/*--------------------------------*- C++ -*----------------------------------*\
| =========                 |                                                 |
| \\      /  F ield         | OpenFOAM: The Open Source CFD Toolbox           |
|  \\    /   O peration     | Version:  2312                                  |
|   \\  /    A nd           | Website:  www.openfoam.com                      |
|    \\/     M anipulation  |                                                 |
\*---------------------------------------------------------------------------*/
FoamFile
{
    version     2.0;
    format      ascii;
    arch        "LSB;label=32;scalar=64";
    class       surfaceScalarField;
    location    "0.941998";
    object      alphaPhi0.water;
}
// * * * * * * * * * * * * * * * * * * * * * * * * * * * * * * * * * * * * * //

dimensions      [0 3 -1 0 0 0 0];

oriented        oriented;

internalField   nonuniform List<scalar> 
263100
(
-1.11032e-09
2.22053e-09
-1.11032e-09
-1.22628e-09
9.68084e-10
-1.19578e-09
-1.95576e-09
1.55034e-09
-1.08991e-09
-2.28328e-09
1.22639e-09
-1.12207e-09
-2.28707e-09
8.33649e-10
-9.86711e-10
-1.90557e-09
3.28954e-10
-7.87843e-10
-1.24942e-09
-1.3313e-10
-5.24698e-10
-4.91221e-10
-4.52335e-10
-2.53432e-10
1.30558e-10
-5.21414e-10
-2.81106e-11
4.4632e-10
-3.43998e-10
8.25377e-11
4.78583e-10
-4.93989e-11
2.20064e-11
2.55281e-10
3.46147e-10
-1.85248e-10
-3.34538e-11
6.33188e-10
-4.75111e-10
-1.76803e-10
7.39157e-10
-7.79875e-10
5.1809e-12
6.46546e-10
-1.03961e-09
5.84562e-10
3.73898e-10
-1.15969e-09
1.48661e-09
1.18734e-11
-1.08537e-09
2.44291e-09
-2.48547e-10
-8.21437e-10
3.05462e-09
-2.59085e-10
-3.97797e-10
3.01767e-09
-1.69313e-11
7.31557e-11
2.21805e-09
5.29971e-10
3.33878e-10
5.93592e-10
1.22336e-09
4.77525e-10
-1.61298e-09
1.78815e-09
4.66723e-10
-3.9473e-09
2.01815e-09
2.98504e-10
-5.67771e-09
1.64874e-09
-2.40527e-11
-6.05091e-09
6.12818e-10
-4.27647e-10
-4.66008e-09
-8.01562e-10
-8.22504e-10
-1.12379e-09
-2.42709e-09
-1.3305e-09
4.49043e-09
-2.89079e-09
-2.8811e-09
1.35581e-08
-9.14673e-09
-2.85645e-10
2.47834e-09
-2.85645e-10
-1.16086e-09
1.62563e-09
-3.40407e-10
-1.6014e-09
1.88879e-09
-3.39959e-10
-1.93637e-09
1.5543e-09
-3.27171e-10
-2.02727e-09
1.0134e-09
-2.90145e-10
-1.91146e-09
4.06581e-10
-2.61235e-10
-1.58973e-09
-1.86013e-10
-2.31737e-10
-1.12615e-09
-5.99341e-10
-2.25085e-10
-5.90774e-10
-7.25548e-10
-2.43767e-10
-4.81561e-11
-5.88781e-10
-2.64953e-10
4.58812e-10
-3.35001e-10
-2.73574e-10
9.26606e-10
-3.42621e-11
-2.29523e-10
1.33487e-09
1.43995e-10
-1.31585e-10
1.66409e-09
1.29975e-10
3.4146e-11
1.89028e-09
-4.71434e-11
2.33042e-10
1.96303e-09
-2.98623e-10
4.18502e-10
1.80666e-09
-4.40544e-10
5.10479e-10
1.5029e-09
-4.46412e-10
4.9767e-10
1.11571e-09
-1.39654e-10
3.47932e-10
6.99808e-10
4.26661e-10
1.05203e-10
2.15457e-10
1.2068e-09
-5.53453e-11
-2.72407e-10
1.97183e-09
-1.75856e-10
-6.72922e-10
2.41519e-09
-2.44881e-10
-8.96059e-10
2.2541e-09
-1.615e-10
-9.08026e-10
1.28831e-09
1.04926e-10
-9.05751e-10
-3.21469e-10
5.99891e-10
-9.61318e-10
-2.52982e-09
1.46778e-09
2.47951e-10
-6.42912e-09
2.56426e-09
5.10478e-09
-1.17072e-08
3.83961e-09
1.53427e-08
3.29552e-09
7.80853e-11
2.02245e-09
7.80852e-11
-6.00209e-10
1.78366e-09
-8.18204e-11
-9.6809e-10
1.86664e-09
-1.01058e-10
-1.3005e-09
1.59031e-09
-9.20951e-11
-1.59098e-09
1.14342e-09
-9.87161e-11
-1.80116e-09
6.19934e-10
-1.26929e-10
-1.85857e-09
1.23358e-10
-2.56771e-10
-1.70606e-09
-2.64907e-10
-4.04623e-10
-1.26416e-09
-5.12716e-10
-5.21669e-10
-5.22853e-10
-6.04809e-10
-5.72201e-10
4.31566e-10
-6.17512e-10
-5.17601e-10
1.47379e-09
-6.05554e-10
-3.21082e-10
2.3736e-09
-5.90212e-10
-1.59483e-11
2.91683e-09
-5.49405e-10
2.94393e-10
2.91759e-09
-4.46114e-10
5.7278e-10
2.34631e-09
-2.49751e-10
7.15969e-10
1.39045e-09
6.32635e-11
6.60612e-10
2.88001e-10
4.93254e-10
3.76118e-10
-6.06855e-10
9.80191e-10
-2.14178e-11
-1.06885e-09
1.44902e-09
-3.83296e-10
-8.66006e-10
1.88545e-09
-7.47726e-10
2.26937e-12
2.12567e-09
-9.45894e-10
1.28484e-09
2.06716e-09
-9.23612e-10
2.74035e-09
1.45959e-09
-7.11235e-10
4.02065e-09
3.93105e-10
-4.76161e-10
4.83834e-09
-9.30343e-10
-3.06282e-10
3.87132e-09
-1.85833e-09
2.28033e-10
7.07882e-10
-4.39026e-09
1.10626e-09
-1.31679e-12
-1.4784e-08
3.80564e-09
9.82342e-09
5.54638e-09
3.26364e-10
1.00514e-09
3.26364e-10
-5.56913e-11
1.20439e-09
3.08965e-10
-2.11901e-10
1.201e-09
2.8383e-10
-4.5982e-10
1.12168e-09
2.80503e-10
-8.29087e-10
9.89837e-10
2.12194e-10
-1.24461e-09
7.80392e-10
7.88702e-11
-1.59305e-09
5.10548e-10
-8.51777e-11
-1.73828e-09
2.14274e-10
-2.62995e-10
-1.54646e-09
-9.77508e-11
-4.32267e-10
-9.66272e-10
-4.18372e-10
-5.00192e-10
-6.32075e-11
-7.24438e-10
-4.47365e-10
9.59776e-10
-9.29514e-10
-2.78567e-10
1.83321e-09
-9.50962e-10
-3.64322e-11
2.33547e-09
-7.14501e-10
1.71136e-10
2.27617e-09
-1.8269e-10
3.0486e-10
1.67666e-09
5.27004e-10
2.97196e-10
7.26506e-10
1.31595e-09
1.04601e-10
-3.04386e-10
1.98878e-09
-1.48015e-10
-1.00398e-09
2.3885e-09
-4.90598e-10
-1.06366e-09
2.43107e-09
-7.93517e-10
-2.83624e-10
2.16608e-09
-9.97103e-10
1.20914e-09
1.73984e-09
-1.07661e-09
3.13006e-09
1.14398e-09
-9.69022e-10
4.95023e-09
4.67944e-10
-7.77905e-10
6.1516e-09
-1.90741e-10
-5.34714e-10
6.70474e-09
-9.22876e-10
-4.50714e-10
7.2815e-09
-9.41408e-10
-1.3772e-09
4.27601e-09
7.2904e-10
-2.0213e-09
-3.24938e-09
-5.93923e-09
-1.27835e-09
6.08684e-09
4.65419e-10
5.32048e-10
-4.58353e-10
5.32048e-10
6.00933e-10
-3.2568e-11
5.89982e-10
7.3308e-10
3.03152e-13
5.88048e-10
6.79075e-10
1.78202e-10
5.95187e-10
3.90863e-10
4.20058e-10
5.44934e-10
-8.04897e-11
6.03697e-10
4.31412e-10
-6.14134e-10
6.66128e-10
2.63479e-10
-1.06117e-09
5.50729e-10
1.05228e-10
-1.30097e-09
2.82368e-10
-2.74475e-11
-1.26989e-09
-1.15942e-10
-9.50577e-11
-9.78122e-10
-5.15349e-10
-1.36961e-10
-5.26988e-10
-7.96543e-10
-1.08571e-10
-7.37116e-11
-7.74801e-10
-7.31663e-11
2.72658e-10
-3.76699e-10
-9.40202e-11
4.1248e-10
4.15771e-10
-1.70949e-10
3.35449e-10
1.40593e-09
-3.13723e-10
9.30636e-11
2.39833e-09
-4.75352e-10
-1.55458e-10
3.0287e-09
-5.72302e-10
-1.52378e-10
3.11001e-09
-6.44375e-10
3.17154e-10
2.64187e-09
-7.03979e-10
1.26364e-09
1.86349e-09
-7.1619e-10
2.66714e-09
9.74021e-10
-6.98049e-10
4.14967e-09
3.26926e-10
-6.66213e-10
5.33549e-09
3.1847e-13
-6.39952e-10
5.77168e-09
1.35226e-10
-6.20934e-10
5.15849e-09
4.19362e-10
-5.7093e-10
4.27485e-09
8.83048e-10
-8.24502e-10
2.80928e-09
3.80517e-09
-1.58241e-09
-2.41182e-09
1.62665e-09
-2.41533e-09
5.57546e-09
-2.031e-09
4.44356e-10
-1.69078e-09
4.44356e-10
1.13719e-09
-1.68991e-09
6.25834e-10
1.63774e-09
-1.4716e-09
6.80564e-10
1.90165e-09
-1.04489e-09
6.92289e-10
1.86568e-09
-4.50864e-10
6.56734e-10
1.53184e-09
1.11906e-10
5.93693e-10
9.71272e-10
5.1723e-10
5.08458e-10
2.61643e-10
6.80613e-10
4.32708e-10
-5.13655e-10
6.25547e-10
3.66901e-10
-1.26715e-09
3.58045e-10
3.20002e-10
-1.89467e-09
2.09501e-11
2.48024e-10
-2.31253e-09
-1.86696e-10
7.1733e-11
-2.44611e-09
-1.67386e-10
-1.34267e-10
-2.23934e-09
1.4329e-10
-3.59738e-10
-1.73954e-09
8.0072e-10
-5.46688e-10
-1.04944e-09
1.62892e-09
-6.56608e-10
-2.38895e-10
2.36682e-09
-6.41088e-10
5.59845e-10
2.75283e-09
-5.15779e-10
1.3535e-09
2.55293e-09
-3.44193e-10
2.11383e-09
1.86572e-09
-1.64869e-10
2.8387e-09
9.80946e-10
-3.97449e-11
3.44234e-09
2.3021e-10
-1.99137e-11
3.8895e-09
-1.13077e-10
-9.68187e-11
3.98204e-09
1.60693e-10
-2.73574e-10
3.64411e-09
1.11589e-09
-6.31147e-10
2.38135e-09
2.69438e-09
-1.02529e-09
5.65784e-10
4.00926e-09
-1.39808e-09
-1.94655e-10
6.85558e-09
-2.46797e-09
-2.46757e-09
7.03564e-09
-3.37827e-09
5.91613e-09
-3.03788e-09
1.13375e-10
-2.09799e-09
1.13375e-10
1.34196e-09
-3.23197e-09
3.42969e-10
2.22796e-09
-2.71963e-09
3.65058e-10
2.90402e-09
-2.09068e-09
3.2651e-10
3.27818e-09
-1.25999e-09
3.22225e-10
3.27707e-09
-4.18303e-10
3.44698e-10
2.857e-09
3.19055e-10
3.73935e-10
1.99742e-09
8.49285e-10
4.21149e-10
7.69912e-10
1.13044e-09
4.66533e-10
-7.01683e-10
1.19188e-09
4.30481e-10
-2.21958e-09
1.09142e-09
3.10705e-10
-3.46265e-09
9.09931e-10
8.34861e-11
-4.15951e-09
6.94499e-10
-1.69333e-10
-4.11863e-09
5.90054e-10
-4.61678e-10
-3.36394e-09
6.83972e-10
-6.15532e-10
-2.04638e-09
8.85457e-10
-5.86264e-10
-4.45131e-10
1.08929e-09
-3.91791e-10
1.11616e-09
1.09753e-09
-3.71112e-11
2.39603e-09
8.47355e-10
2.39619e-10
3.21009e-09
3.27051e-10
5.03844e-10
3.46307e-09
-2.25228e-10
7.23043e-10
3.20392e-09
-4.94502e-10
7.64077e-10
2.54751e-09
-2.73044e-10
6.11002e-10
1.53876e-09
6.74884e-10
2.87867e-10
3.72165e-10
2.2447e-09
-1.98801e-10
-8.16108e-10
4.4742e-09
-8.81752e-10
-2.2371e-09
6.62231e-09
-1.53541e-09
-2.11221e-09
8.49809e-09
-2.1329e-09
-1.95975e-09
8.81407e-09
-2.2745e-09
5.36464e-09
-1.65905e-09
-4.92312e-10
-1.05383e-09
-4.92312e-10
1.15334e-09
-4.21061e-09
-2.33365e-10
2.36592e-09
-3.31457e-09
-2.83085e-10
3.44468e-09
-2.60952e-09
-3.29054e-10
4.27366e-09
-1.69417e-09
-2.98626e-10
4.72135e-09
-6.92521e-10
-2.19908e-10
4.58076e-09
3.46136e-10
-5.9836e-11
3.76692e-09
1.31081e-09
8.47841e-11
2.33253e-09
2.03412e-09
2.09127e-10
4.46795e-10
2.48862e-09
2.5181e-10
-1.57347e-09
2.60111e-09
1.87975e-10
-3.29929e-09
2.31236e-09
3.47182e-11
-4.37338e-09
1.65428e-09
-1.31246e-10
-4.60068e-09
8.37906e-10
-2.21361e-10
-3.91747e-09
7.03011e-11
-2.29095e-10
-2.53705e-09
-5.65751e-10
-5.48905e-11
-7.87325e-10
-9.25001e-10
1.61857e-10
8.96617e-10
-1.14351e-09
4.63232e-10
2.15277e-09
-1.3317e-09
8.21642e-10
2.72308e-09
-1.50132e-09
1.13254e-09
2.5913e-09
-1.53204e-09
1.27264e-09
1.88745e-09
-1.25096e-09
1.23905e-09
7.591e-10
-4.89588e-10
1.0561e-09
-6.17473e-10
9.12517e-10
7.77194e-10
-1.97442e-09
2.79096e-09
3.85046e-10
-2.85983e-09
4.90983e-09
-9.37276e-12
-3.13492e-09
6.78814e-09
-3.34757e-10
-2.25517e-09
7.59096e-09
-3.53639e-10
-6.81051e-10
6.98205e-09
-4.15937e-11
3.77791e-09
7.17269e-10
-1.18118e-09
1.62076e-09
-1.18118e-09
7.82608e-10
-4.41133e-09
-1.00809e-09
2.19942e-09
-3.111e-09
-1.00871e-09
3.56842e-09
-2.54247e-09
-9.51828e-10
4.7063e-09
-1.69229e-09
-8.1221e-10
5.40992e-09
-6.29776e-10
-6.0473e-10
5.52761e-09
5.92511e-10
-3.57872e-10
4.9311e-09
1.91634e-09
-1.3422e-10
3.66915e-09
3.07368e-09
-2.9345e-12
1.90336e-09
3.84608e-09
1.16214e-10
-2.91001e-11
4.02433e-09
1.83486e-10
-1.75181e-09
3.48638e-09
2.21522e-10
-2.96176e-09
2.30182e-09
2.64516e-10
-3.50468e-09
7.63432e-10
3.75766e-10
-3.36696e-09
-7.39928e-10
5.06166e-10
-2.68859e-09
-1.98976e-09
6.60545e-10
-1.69152e-09
-2.82912e-09
8.92418e-10
-6.84557e-10
-3.24179e-09
1.11956e-09
7.64039e-11
-3.3205e-09
1.25913e-09
4.61912e-10
-3.15851e-09
1.26218e-09
4.18719e-10
-2.74972e-09
1.17235e-09
-8.10274e-11
-1.98926e-09
1.04685e-09
-8.79263e-10
-8.89344e-10
9.01879e-10
-1.76322e-09
6.57097e-10
7.6146e-10
-2.49739e-09
2.46523e-09
6.47201e-10
-2.67257e-09
4.05194e-09
6.45356e-10
-2.01942e-09
4.99571e-09
8.26563e-10
-6.31976e-10
4.75605e-09
1.22447e-09
6.43891e-10
3.72214e-09
1.82232e-09
2.15126e-09
2.16827e-09
-1.3349e-09
4.78998e-09
-1.3349e-09
4.9616e-10
-4.29309e-09
-1.07037e-09
1.8392e-09
-2.75323e-09
-9.7107e-10
3.12267e-09
-2.40264e-09
-8.11774e-10
4.18999e-09
-1.71372e-09
-5.73242e-10
4.88222e-09
-6.71191e-10
-3.26307e-10
5.05432e-09
6.83087e-10
-8.45586e-11
4.78437e-09
2.17836e-09
4.94448e-11
4.03893e-09
3.56391e-09
1.76216e-10
2.97886e-09
4.45371e-09
2.75897e-10
1.75863e-09
4.57271e-09
4.28204e-10
5.41019e-10
3.79102e-09
6.39873e-10
-5.76485e-10
2.27284e-09
8.85339e-10
-1.53867e-09
3.9539e-10
1.11928e-09
-2.3538e-09
-1.38257e-09
1.3235e-09
-2.95812e-09
-2.87375e-09
1.43793e-09
-3.30849e-09
-3.85128e-09
1.39118e-09
-3.32367e-09
-4.33212e-09
1.15954e-09
-3.07257e-09
-4.37729e-09
8.51639e-10
-2.70049e-09
-4.1003e-09
5.66475e-10
-2.33706e-09
-3.53542e-09
3.42667e-10
-2.05772e-09
-2.63728e-09
2.07674e-10
-1.92975e-09
-1.40379e-09
1.6427e-10
-1.82277e-09
8.09718e-11
2.2733e-10
-1.52892e-09
1.55636e-09
4.03704e-10
-8.15851e-10
2.51578e-09
6.79461e-10
2.8424e-10
2.67027e-09
1.15224e-09
1.1956e-09
2.13316e-09
1.67321e-09
1.17175e-09
1.83936e-09
1.85627e-09
2.0306e-09
1.23872e-09
-4.58805e-10
6.2547e-09
-4.58805e-10
6.11166e-10
-4.47133e-09
-1.55645e-10
1.25014e-09
-2.83482e-09
5.57064e-11
1.81243e-09
-2.61495e-09
1.73587e-10
2.22156e-09
-2.06374e-09
3.65864e-10
2.448e-09
-1.08709e-09
5.07676e-10
2.55388e-09
2.60021e-10
5.21741e-10
2.62044e-09
1.75702e-09
4.41148e-10
2.75631e-09
3.04747e-09
3.50183e-10
2.833e-09
3.86845e-09
3.72983e-10
2.76425e-09
3.91836e-09
5.06597e-10
2.36652e-09
3.17054e-09
7.55888e-10
1.48776e-09
1.85009e-09
1.03305e-09
7.92477e-11
3.74744e-10
1.18953e-09
-1.65517e-09
-1.02212e-09
1.18461e-09
-3.46e-09
-2.18459e-09
9.79812e-10
-4.94567e-09
-3.01274e-09
5.51225e-10
-5.79008e-09
-3.56718e-09
5.9799e-13
-5.951e-09
-3.9518e-09
-3.48705e-10
-5.42663e-09
-4.03299e-09
-6.93675e-10
-4.45339e-09
-3.73939e-09
-8.86896e-10
-3.28428e-09
-3.07231e-09
-8.50191e-10
-2.16272e-09
-1.97914e-09
-6.3335e-10
-1.085e-09
-6.90912e-10
-3.36878e-10
2.19779e-11
4.79781e-10
6.39954e-12
1.13353e-09
1.14127e-09
3.49982e-10
1.8351e-09
1.3898e-09
6.69703e-10
1.64513e-09
1.63133e-09
7.36933e-10
7.01435e-10
2.50975e-09
2.58291e-10
2.75805e-09
-5.98922e-11
1.20148e-09
4.2695e-09
1.20148e-09
5.52886e-10
-4.82152e-09
1.35625e-09
-9.25841e-11
-3.52433e-09
1.61947e-09
-8.09835e-10
-3.22334e-09
1.56051e-09
-1.46454e-09
-2.67603e-09
1.45439e-09
-1.88903e-09
-1.6724e-09
1.14338e-09
-1.8532e-09
-4.28586e-10
7.1936e-10
-1.25243e-09
8.64326e-10
2.76701e-10
-1.11154e-10
1.89795e-09
-9.79414e-11
1.24543e-09
2.51667e-09
-1.99234e-10
2.41347e-09
2.6528e-09
-1.68709e-10
2.88236e-09
2.4421e-09
-5.17376e-11
2.36723e-09
2.01337e-09
2.47278e-11
9.08539e-10
1.53135e-09
-1.77492e-11
-1.20394e-09
1.00522e-09
-2.15277e-10
-3.57152e-09
4.62865e-10
-5.59071e-10
-5.61292e-09
-2.34432e-10
-9.97536e-10
-6.7764e-09
-1.19498e-09
-1.45012e-09
-6.92892e-09
-2.18353e-09
-1.82881e-09
-6.1568e-09
-3.04594e-09
-1.92618e-09
-4.78686e-09
-3.45503e-09
-1.75394e-09
-3.17262e-09
-3.27715e-09
-1.42355e-09
-1.54096e-09
-2.52403e-09
-1.0087e-09
-1.83973e-11
-1.49082e-09
-5.64561e-10
1.31963e-09
-5.20872e-10
-1.35095e-10
2.19108e-09
3.03366e-10
1.58965e-10
2.24812e-09
1.18131e-09
2.85159e-10
1.51107e-09
2.36535e-09
6.57385e-11
6.71474e-10
3.53161e-09
-1.57814e-10
3.29279e-09
1.67762e-10
2.86938e-09
-1.31889e-09
2.86938e-09
4.31466e-11
-4.56466e-09
2.47312e-09
-2.27022e-09
-3.59981e-09
2.28718e-09
-4.31436e-09
-3.10416e-09
1.8241e-09
-5.97112e-09
-2.33378e-09
1.22259e-09
-6.93159e-09
-1.27486e-09
4.73325e-10
-6.79888e-09
-4.39378e-10
-2.27354e-10
-5.61775e-09
2.78179e-10
-7.37494e-10
-3.52306e-09
7.74432e-10
-1.16592e-09
-1.01617e-09
1.08082e-09
-1.32141e-09
1.14681e-09
1.48307e-09
-1.29054e-09
2.36495e-09
2.13183e-09
-1.23623e-09
2.34169e-09
2.95931e-09
-1.26626e-09
1.18858e-09
3.79981e-09
-1.46328e-09
-7.07083e-10
4.34495e-09
-1.79033e-09
-2.76017e-09
4.30742e-09
-2.1297e-09
-4.41762e-09
3.4903e-09
-2.38428e-09
-5.29419e-09
1.90911e-09
-2.50009e-09
-5.23904e-09
-2.77991e-11
-2.40942e-09
-4.46755e-09
-1.79121e-09
-2.12356e-09
-3.32403e-09
-2.90406e-09
-1.67571e-09
-1.96218e-09
-3.31078e-09
-1.19707e-09
-5.5673e-10
-2.9642e-09
-7.45969e-10
7.64322e-10
-2.19667e-09
-3.49689e-10
1.80997e-09
-1.24123e-09
-6.43461e-11
2.32896e-09
-1.4142e-10
1.41387e-10
2.19239e-09
1.2791e-09
2.01701e-10
1.6973e-09
2.7319e-09
2.70896e-10
1.35425e-09
3.39508e-09
6.40336e-10
3.53563e-09
1.28722e-09
3.10988e-09
-7.66938e-09
3.10988e-09
-1.65584e-09
-1.88792e-09
1.68075e-09
-5.14385e-09
-1.58053e-09
1.12441e-09
-7.87802e-09
-9.92506e-10
3.3004e-10
-9.88669e-09
-1.89621e-10
-3.7179e-10
-1.07166e-08
3.02764e-10
-9.39961e-10
-1.02546e-08
4.62887e-10
-1.53553e-09
-8.41072e-09
1.71051e-10
-1.91117e-09
-5.63118e-09
-1.99754e-10
-1.99985e-09
-2.6173e-09
-2.1714e-10
-1.93649e-09
-1.16494e-10
5.48453e-10
-1.80985e-09
1.49474e-09
2.02313e-09
-1.76284e-09
1.95465e-09
4.10164e-09
-1.87407e-09
1.49905e-09
6.04064e-09
-2.06553e-09
5.08714e-10
7.27083e-09
-2.21901e-09
-5.62379e-10
7.41463e-09
-2.30861e-09
-1.37349e-09
6.31971e-09
-2.25439e-09
-1.7777e-09
4.13583e-09
-1.98976e-09
-1.83423e-09
1.53531e-09
-1.57619e-09
-1.66039e-09
-7.72101e-10
-1.15116e-09
-1.29428e-09
-2.35012e-09
-7.73849e-10
-8.29206e-10
-3.05435e-09
-4.96371e-10
-1.66819e-10
-3.00571e-09
-3.53112e-10
6.33807e-10
-2.40084e-09
-3.22922e-10
1.32317e-09
-1.37688e-09
-2.98963e-10
1.74275e-09
-7.50948e-11
-2.4854e-10
1.9008e-09
1.47333e-09
-1.03106e-10
1.95317e-09
2.57819e-09
3.9364e-10
1.53523e-09
3.14157e-09
1.00354e-09
4.60053e-09
7.72215e-10
1.20385e-09
-1.03626e-08
1.20385e-09
-3.74131e-09
2.95465e-09
-3.56419e-10
-7.20269e-09
2.29753e-09
-7.72254e-10
-9.74498e-09
2.62e-09
-1.34965e-09
-1.12693e-08
2.92395e-09
-1.79951e-09
-1.1569e-08
2.49103e-09
-2.0485e-09
-1.04465e-08
1.25705e-09
-2.04966e-09
-8.23987e-09
-2.65235e-10
-1.89659e-09
-5.55719e-09
-1.42512e-09
-1.58778e-09
-2.93157e-09
-1.65721e-09
-1.32343e-09
-8.3241e-10
-5.37105e-10
-1.15825e-09
5.97845e-10
1.6215e-09
-1.18069e-09
1.46552e-09
4.39713e-09
-1.32559e-09
1.92518e-09
6.87718e-09
-1.47035e-09
2.14077e-09
8.33463e-09
-1.45851e-09
2.24142e-09
8.41019e-09
-1.26116e-09
2.23226e-09
7.0921e-09
-8.85461e-10
1.98134e-09
4.73251e-09
-3.98215e-10
1.49031e-09
2.0991e-09
-4.18779e-11
7.3785e-10
-1.42317e-10
2.30768e-10
-4.76253e-11
-1.62596e-09
2.24943e-10
-5.36438e-10
-2.31986e-09
-5.33559e-11
-6.19583e-10
-2.39322e-09
-3.29612e-10
-3.04998e-10
-1.92084e-09
-5.95669e-10
2.18814e-10
-9.31543e-10
-7.61685e-10
6.61657e-10
4.97389e-10
-7.74629e-10
1.01651e-09
2.00342e-09
-5.89561e-10
9.70528e-10
3.26083e-09
-2.97621e-10
1.76509e-10
4.71686e-09
-4.40721e-10
6.27201e-09
-1.25017e-09
-1.10355e-09
-8.42256e-09
-1.10355e-09
-4.96156e-09
8.71867e-09
-2.2325e-09
-7.38319e-09
6.81614e-09
-2.33488e-09
-8.87418e-09
6.40172e-09
-2.47401e-09
-9.34147e-09
5.52758e-09
-2.27932e-09
-8.7411e-09
3.69742e-09
-1.92498e-09
-7.33841e-09
1.16857e-09
-1.41821e-09
-5.61127e-09
-1.21444e-09
-8.70925e-10
-3.89094e-09
-2.81943e-09
-4.05302e-10
-2.45477e-09
-2.97456e-09
-1.81575e-10
-1.37484e-09
-1.47794e-09
-1.88238e-10
-3.67735e-10
9.86921e-10
-4.18796e-10
7.77186e-10
3.85729e-09
-6.62738e-10
2.08951e-09
6.25068e-09
-7.63403e-10
3.35439e-09
7.57636e-09
-5.99136e-10
4.33236e-09
7.58256e-09
-2.38934e-10
4.77897e-09
6.36982e-09
2.15152e-10
4.405e-09
4.47056e-09
6.19778e-10
3.27457e-09
2.47e-09
7.87655e-10
1.73942e-09
7.90266e-10
6.6069e-10
3.14232e-10
-4.04583e-10
2.73911e-10
-6.28764e-10
-1.16464e-09
-1.41316e-10
-1.0189e-09
-1.54825e-09
-3.83299e-10
-9.92839e-10
-1.37295e-09
-4.92489e-10
-8.31047e-10
-4.79397e-10
-5.08177e-10
-6.97404e-10
9.89448e-10
-4.86642e-10
-6.92103e-10
2.58874e-09
-4.32201e-10
-1.15746e-09
4.56639e-09
-7.02196e-10
-1.60496e-09
6.60654e-09
-1.35493e-09
5.89752e-09
-1.25011e-09
-2.84115e-09
-2.90166e-09
-2.84115e-09
-4.51939e-09
1.32407e-08
-3.04362e-09
-5.4101e-09
1.0222e-08
-2.68066e-09
-5.5239e-09
8.74206e-09
-2.38597e-09
-4.92348e-09
6.5734e-09
-1.80416e-09
-3.91412e-09
3.65637e-09
-1.11916e-09
-2.90009e-09
5.03594e-10
-4.77437e-10
-2.25537e-09
-1.93256e-09
-1.23331e-11
-1.98392e-09
-3.35677e-09
2.38328e-10
-2.01901e-09
-3.03036e-09
1.2268e-10
-1.87697e-09
-1.32881e-09
-2.17643e-10
-1.16493e-09
1.01293e-09
-6.54529e-10
2.04027e-10
3.39608e-09
-8.47386e-10
1.98711e-09
5.26972e-09
-7.85175e-10
3.77093e-09
6.26915e-09
-5.02373e-10
5.03277e-09
6.35102e-09
-8.12629e-11
5.4319e-09
5.69632e-09
2.19186e-10
4.82566e-09
4.62574e-09
4.0353e-10
3.53017e-09
3.38585e-09
3.38904e-10
2.01708e-09
2.14916e-09
1.13313e-10
7.5627e-10
9.23399e-10
-1.12017e-10
-6.82508e-11
-2.376e-10
-1.49367e-10
-5.4724e-10
-1.06274e-09
-5.22998e-11
-9.47266e-10
-1.18139e-09
1.62832e-10
-1.44089e-09
-3.7685e-10
3.38271e-10
-1.94546e-09
1.00539e-09
4.11007e-10
-2.42617e-09
2.71541e-09
2.22939e-10
-2.69903e-09
4.70429e-09
-6.74672e-11
-1.87771e-09
5.60781e-09
-7.92453e-11
3.04666e-09
6.92007e-10
-2.99247e-09
2.98496e-09
-2.99247e-09
-2.7282e-09
1.52605e-08
-2.46731e-09
-2.26909e-09
1.17053e-08
-2.13429e-09
-1.4939e-09
9.5215e-09
-1.76547e-09
-5.30105e-10
6.6538e-09
-1.25724e-09
3.13075e-10
3.37e-09
-7.40516e-10
6.25585e-10
4.6062e-10
-3.85128e-10
3.04039e-10
-1.43332e-09
-1.92227e-10
-5.97008e-10
-2.04407e-09
-3.12983e-10
-1.50272e-09
-1.35657e-09
-5.74379e-10
-1.74001e-09
-2.21422e-11
-8.27109e-10
-1.18324e-09
1.60985e-09
-9.22728e-10
1.24835e-10
3.07595e-09
-8.19965e-10
1.84599e-09
4.12768e-09
-4.9971e-10
3.38999e-09
4.81332e-09
-9.29107e-11
4.37269e-09
5.17429e-09
1.28834e-10
4.58242e-09
5.1545e-09
2.32397e-10
4.08996e-09
4.81883e-09
1.81823e-10
3.21469e-09
4.09268e-09
4.06213e-11
2.30321e-09
2.94338e-09
-1.50083e-11
1.52852e-09
1.54142e-09
2.64026e-11
8.40487e-10
8.29007e-11
2.40655e-10
3.816e-11
-8.87193e-10
4.92958e-10
-9.77391e-10
-9.01523e-10
5.74458e-10
-2.06117e-09
3.68391e-11
4.5803e-10
-2.73955e-09
1.10647e-09
2.93894e-10
-2.96129e-09
2.41652e-09
1.59836e-10
-2.34285e-09
3.31469e-09
3.61502e-10
-7.34704e-10
2.65026e-09
9.38744e-10
1.06051e-09
9.35949e-10
-2.36487e-09
7.60252e-09
-2.36487e-09
-8.46857e-10
1.53031e-08
-1.75586e-09
2.97833e-10
1.20366e-08
-1.67624e-09
1.38437e-09
9.60954e-09
-1.37635e-09
2.43607e-09
6.48543e-09
-1.05755e-09
2.97186e-09
3.47348e-09
-7.44355e-10
2.77545e-09
1.18076e-09
-5.18214e-10
1.9534e-09
-1.15825e-10
-3.55654e-10
7.86795e-10
-3.00292e-10
-3.12878e-10
-2.23933e-10
2.48794e-10
-2.53367e-10
-6.9589e-10
9.06762e-10
-1.11599e-10
-4.34678e-10
1.45225e-09
1.72165e-10
3.44294e-10
1.99158e-09
4.63189e-10
1.3098e-09
2.47126e-09
7.20767e-10
2.0948e-09
3.0682e-09
8.84825e-10
2.569e-09
3.69873e-09
8.57179e-10
2.73229e-09
4.14753e-09
6.61881e-10
2.68949e-09
4.20823e-09
4.53642e-10
2.50109e-09
3.72514e-09
3.51621e-10
2.16596e-09
2.71597e-09
3.66046e-10
1.56399e-09
1.49573e-09
4.66868e-10
5.65572e-10
4.35106e-10
4.75403e-10
-8.79759e-10
1.72278e-10
2.04559e-10
-2.24504e-09
5.44612e-10
-2.97851e-10
-2.99349e-09
1.29914e-09
-7.8517e-10
-3.05704e-09
1.82365e-09
-9.83417e-10
-2.36355e-09
2.24841e-09
-8.91227e-10
-1.06142e-09
2.2894e-09
-6.29448e-10
-3.48298e-10
2.08889e-09
-4.5295e-10
1.7638e-09
-1.21277e-09
-1.60826e-09
1.07007e-08
-1.60826e-09
3.73555e-10
1.44036e-08
-1.18302e-09
1.83436e-09
1.15941e-08
-1.10252e-09
3.24504e-09
8.93899e-09
-8.04883e-10
4.37916e-09
5.7757e-09
-4.49427e-10
4.82574e-09
3.10661e-09
-3.46556e-11
4.56736e-09
1.33152e-09
2.48635e-10
3.69344e-09
5.27318e-10
4.70984e-10
2.55296e-09
4.7462e-10
6.73678e-10
1.52918e-09
6.22614e-10
9.64363e-10
8.22952e-10
5.19563e-10
1.34294e-09
3.54405e-10
3.20092e-10
1.73268e-09
-1.95023e-11
4.05423e-10
1.95997e-09
-2.36736e-10
7.21542e-10
1.85789e-09
-2.66748e-10
1.44694e-09
1.47469e-09
-3.62597e-11
2.26085e-09
9.99468e-10
4.24844e-10
2.88485e-09
5.81702e-10
9.41725e-10
3.11424e-09
3.53865e-10
1.25075e-09
2.90257e-09
2.96786e-10
1.03499e-09
2.41037e-09
3.25047e-10
7.79022e-11
2.04827e-09
2.36759e-10
-1.32368e-09
1.87704e-09
-1.8685e-10
-2.75289e-09
2.26511e-09
-8.07488e-10
-3.58766e-09
2.51275e-09
-1.29298e-09
-3.37708e-09
2.28834e-09
-1.38595e-09
-2.45788e-09
1.97048e-09
-1.27539e-09
-1.29522e-09
1.97575e-09
-1.09445e-09
-4.78311e-10
2.38605e-09
-1.07953e-09
-6.24298e-10
3.63631e-09
-1.52173e-09
2.71761e-09
-1.6319e-09
-7.8954e-10
1.22425e-08
-7.8954e-10
1.5053e-09
1.24759e-08
-2.83678e-10
3.13652e-09
1.00646e-08
-1.41757e-11
4.64412e-09
7.18922e-09
3.28527e-10
5.66543e-09
4.15963e-09
6.84751e-10
6.03832e-09
1.8282e-09
1.0154e-09
5.71433e-09
4.9395e-10
1.30409e-09
4.8718e-09
-9.00809e-11
1.62761e-09
3.76097e-09
-1.29404e-10
1.87461e-09
2.5564e-09
-1.57819e-10
2.09019e-09
1.23432e-09
-3.47725e-10
2.20371e-09
-2.27256e-10
-3.3199e-10
2.03203e-09
-1.53302e-09
-5.9189e-11
1.62132e-09
-2.43411e-09
4.85148e-10
9.64568e-10
-2.66846e-09
1.26043e-09
2.55778e-10
-2.18178e-09
1.75496e-09
-1.3283e-10
-1.26829e-09
2.13347e-09
-3.13605e-10
-4.83171e-10
2.50424e-09
-3.3388e-10
-2.66096e-10
2.81566e-09
-2.84907e-10
-7.83222e-10
3.2219e-09
-4.22731e-10
-1.87462e-09
3.78556e-09
-7.3448e-10
-3.11536e-09
4.28391e-09
-1.22106e-09
-3.65229e-09
4.17109e-09
-1.40822e-09
-3.24556e-09
3.29308e-09
-1.22914e-09
-2.23573e-09
1.90996e-09
-6.89184e-10
-1.30096e-09
1.14541e-09
-1.79663e-10
-6.86835e-10
1.37219e-09
-7.04427e-11
-5.52333e-10
2.4483e-09
-2.4073e-10
-4.19301e-10
4.09974e-09
-6.47873e-10
2.48382e-09
-2.69275e-10
2.44933e-10
1.18397e-08
2.44932e-10
2.60094e-09
9.559e-09
7.52957e-10
4.27414e-09
7.47515e-09
1.06527e-09
5.53779e-09
4.5869e-09
1.44175e-09
6.15368e-09
1.83158e-09
1.77537e-09
5.97874e-09
6.84671e-11
1.97453e-09
5.32663e-09
-8.36779e-10
2.00923e-09
4.35483e-09
-9.54623e-10
1.84109e-09
3.1902e-09
-6.79612e-10
1.67597e-09
1.71552e-09
-2.51037e-10
1.46832e-09
1.52286e-11
6.32677e-11
1.13661e-09
-1.79085e-09
6.8572e-10
6.18794e-10
-3.30166e-09
1.36434e-09
-5.31648e-11
-3.98105e-09
1.63973e-09
-5.60876e-10
-3.67557e-09
1.59016e-09
-6.79336e-10
-2.76525e-09
1.42562e-09
-6.24817e-10
-1.78479e-09
1.48665e-09
-4.11961e-10
-1.36245e-09
2.24602e-09
-2.76066e-10
-1.69387e-09
3.46289e-09
-4.265e-10
-2.52441e-09
4.78877e-09
-8.07385e-10
-3.3226e-09
5.78412e-09
-1.22004e-09
-3.4567e-09
5.80521e-09
-1.37395e-09
-2.76547e-09
4.53306e-09
-1.03742e-09
-1.62333e-09
2.37192e-09
-2.24091e-10
-8.55378e-10
8.11921e-10
3.05308e-10
-7.60327e-10
5.95878e-10
4.27947e-10
-8.01959e-10
1.12849e-09
2.77886e-10
-7.46143e-10
2.16694e-09
2.13443e-10
-1.83804e-10
3.26568e-09
2.10526e-10
2.16703e-09
2.16794e-11
1.14768e-09
9.67922e-09
1.14768e-09
3.33586e-09
5.75511e-09
1.73588e-09
4.73729e-09
4.08889e-09
2.03931e-09
5.38693e-09
1.72439e-09
2.21837e-09
5.20741e-09
-1.75016e-10
2.16458e-09
4.4918e-09
-1.12374e-09
1.87635e-09
3.49924e-09
-1.29599e-09
1.4087e-09
2.49028e-09
-1.01843e-09
9.99298e-10
1.39115e-09
-4.27109e-10
7.25139e-10
8.11594e-11
4.09038e-10
4.86599e-10
-1.51407e-09
1.33771e-09
1.53498e-10
-2.95513e-09
2.10971e-09
-1.02998e-10
-3.72445e-09
2.37169e-09
-2.81548e-10
-3.59615e-09
1.75626e-09
-2.31139e-10
-2.90233e-09
8.48575e-10
5.8751e-11
-2.13895e-09
2.27565e-10
3.83966e-10
-1.84393e-09
4.52061e-10
6.1486e-10
-2.24022e-09
1.92194e-09
5.66355e-10
-3.02549e-09
4.01005e-09
1.19914e-10
-3.5601e-09
5.68551e-09
-4.10749e-10
-3.43216e-09
6.21513e-09
-5.56125e-10
-2.492e-09
4.99817e-09
-1.25171e-10
-1.28093e-09
2.86045e-09
4.38246e-10
-7.55995e-10
9.45582e-10
8.44487e-10
-1.13675e-09
2.90611e-10
8.46479e-10
-1.62472e-09
6.70529e-10
4.01961e-10
-1.74326e-09
1.18826e-09
9.10051e-11
-1.29046e-09
1.69623e-09
3.71026e-11
-4.40305e-10
2.365e-09
1.66209e-11
1.35979e-09
3.25976e-10
1.89383e-09
5.95484e-09
1.89383e-09
3.43639e-09
1.96325e-09
2.20486e-09
4.28443e-09
8.51094e-10
2.32477e-09
4.22299e-09
-4.67373e-10
2.20108e-09
3.47607e-09
-1.30471e-09
1.86057e-09
2.45736e-09
-1.48038e-09
1.38862e-09
1.52508e-09
-1.36149e-09
1.00449e-09
6.78376e-10
-9.94993e-10
7.81238e-10
-2.15218e-10
-3.14219e-10
6.73093e-10
-1.26423e-09
7.46556e-10
5.64624e-10
-2.29951e-09
1.85349e-09
3.8984e-10
-2.92703e-09
2.39666e-09
2.74901e-10
-2.80608e-09
1.87615e-09
3.70867e-10
-2.11704e-09
3.99037e-10
6.70716e-10
-1.46279e-09
-9.61458e-10
1.0951e-09
-1.47434e-09
-1.28291e-09
1.37275e-09
-2.1382e-09
-2.79077e-10
1.20252e-09
-2.95845e-09
1.9445e-09
6.45428e-10
-3.34475e-09
4.14576e-09
1.9227e-10
-3.00775e-09
5.12445e-09
2.41727e-10
-1.82529e-09
4.3897e-09
6.702e-10
-7.46017e-10
2.58271e-09
1.31948e-09
-5.58715e-10
6.81256e-10
1.92871e-09
-1.53645e-09
-1.46428e-11
1.87384e-09
-2.59207e-09
7.4823e-11
1.27051e-09
-2.97132e-09
2.94727e-10
8.35425e-10
-2.82707e-09
5.61984e-10
5.8539e-10
-2.01788e-09
4.28672e-10
5.25389e-10
-8.14432e-11
-4.35068e-10
8.95e-10
-9.89866e-10
2.32318e-09
2.13349e-09
1.64447e-09
2.13349e-09
3.01556e-09
-1.43219e-09
2.37139e-09
3.30964e-09
-1.85858e-09
2.32993e-09
2.82478e-09
-2.04562e-09
2.06094e-09
1.82783e-09
-1.91732e-09
1.68707e-09
8.08157e-10
-1.70766e-09
1.35555e-09
-8.27826e-11
-1.53727e-09
1.13681e-09
-8.54253e-10
-1.25524e-09
1.01348e-09
-1.67504e-09
-4.52838e-10
8.54742e-10
-2.40783e-09
7.31567e-10
6.09143e-10
-2.74089e-09
1.76199e-09
3.17078e-10
-2.4494e-09
1.80923e-09
2.475e-10
-1.60775e-09
5.7874e-10
4.34303e-10
-8.70676e-10
-1.11348e-09
7.16653e-10
-8.36865e-10
-2.00759e-09
8.80598e-10
-1.40417e-09
-1.53517e-09
6.5019e-10
-2.20795e-09
2.75611e-10
1.27717e-10
-2.38674e-09
2.20044e-09
-8.72732e-11
-1.70109e-09
3.34278e-09
1.99848e-10
-3.06984e-10
3.01493e-09
8.03623e-10
6.79807e-10
1.61173e-09
1.8082e-09
6.24049e-10
1.60644e-10
2.42569e-09
-6.6672e-10
-4.79807e-10
2.4008e-09
-2.32598e-09
-2.05101e-10
1.87476e-09
-3.1892e-09
-4.66151e-10
1.53548e-09
-3.26148e-09
-1.20049e-09
1.74364e-09
-3.02988e-09
-1.19912e-09
1.65475e-09
-1.59957e-09
-2.36992e-09
1.45084e-09
9.85632e-10
-5.55732e-09
2.62217e-09
-3.79738e-09
3.92019e-09
2.22174e-09
-2.8894e-09
2.22174e-09
2.35329e-09
-3.96101e-09
2.25891e-09
2.12745e-09
-3.67278e-09
1.99814e-09
1.43548e-09
-2.93017e-09
1.6371e-09
5.30406e-10
-2.1341e-09
1.25074e-09
-3.3413e-10
-1.66467e-09
9.4769e-10
-1.19328e-09
-1.35532e-09
7.31997e-10
-2.06906e-09
-9.24141e-10
5.02934e-10
-2.84426e-09
7.66667e-11
1.39423e-10
-3.26336e-09
1.28438e-09
-2.41597e-10
-2.95525e-09
1.72496e-09
-3.36871e-10
-1.97907e-09
8.97051e-10
-9.85193e-11
-9.29384e-10
-7.64066e-10
2.36608e-10
-4.6656e-10
-2.18102e-09
4.8632e-10
-6.95755e-10
-2.39921e-09
4.65425e-10
-1.18319e-09
-1.37564e-09
2.19035e-10
-1.12614e-09
1.07648e-10
1.19673e-10
-1.56283e-10
9.6604e-10
3.74783e-10
1.32278e-09
9.66895e-10
1.00692e-09
2.38957e-09
5.45081e-11
1.90405e-09
2.21105e-09
-5.14565e-10
2.20816e-09
8.21331e-10
-5.35161e-10
1.97525e-09
-9.20987e-10
-2.73195e-10
1.52127e-09
-2.22457e-09
1.0788e-10
1.1004e-09
-2.49849e-09
-1.12564e-09
1.11544e-09
-2.2496e-09
-2.93301e-09
1.63237e-09
-1.87646e-09
-3.47089e-09
1.96859e-09
-4.19471e-10
-6.02458e-09
2.28416e-09
8.93051e-10
-9.49448e-09
2.77001e-09
-3.38299e-09
6.59341e-10
1.72467e-09
-6.42285e-09
1.72467e-09
1.31767e-09
-5.11007e-09
1.43399e-09
8.74976e-10
-4.23803e-09
9.72482e-10
3.20777e-10
-2.85023e-09
5.20343e-10
-2.50087e-10
-1.69029e-09
2.16477e-10
-8.84307e-10
-1.03454e-09
7.96132e-11
-1.66015e-09
-5.39629e-10
-1.7682e-11
-2.61843e-09
1.96492e-10
-1.91288e-10
-3.31459e-09
1.14205e-09
-4.1442e-10
-3.21655e-09
1.56499e-09
-4.10006e-10
-2.2565e-09
9.08925e-10
-1.71574e-10
-9.47145e-10
-7.60981e-10
2.77187e-10