/*--------------------------------*- C++ -*----------------------------------*\
| =========                 |                                                 |
| \\      /  F ield         | OpenFOAM: The Open Source CFD Toolbox           |
|  \\    /   O peration     | Version:  2312                                  |
|   \\  /    A nd           | Website:  www.openfoam.com                      |
|    \\/     M anipulation  |                                                 |
\*---------------------------------------------------------------------------*/
FoamFile
{
    version     2.0;
    format      ascii;
    arch        "LSB;label=32;scalar=64";
    class       volScalarField;
    location    "0.941998";
    object      alpha.water;
}
// * * * * * * * * * * * * * * * * * * * * * * * * * * * * * * * * * * * * * //

dimensions      [0 0 0 0 0 0 0];

internalField   nonuniform List<scalar> 
90000
(
1
1.00005
1.00004
1.00004
1.00003
1.00003
1.00002
1.00001
1.00001
1
0.999997
0.999996
0.999998
1
1.00001
1.00001
1.00002
1.00003
1.00003
1.00003
1.00002
1.00002
1.00001
1.00001
1.00001
1.00002
1.00002
1.00003
1.00003
1.00003
1.00005
1.00008
1.00007
1.00006
1.00005
1.00004
1.00002
1.00001
1.00001
1
0.999997
0.999998
1
1.00001
1.00002
1.00003
1.00004
1.00004
1.00004
1.00003
1.00003
1.00002
1.00002
1.00002
1.00003
1.00003
1.00004
1.00001
0.999918
0.999607
1.00004
1.00006
1.00005
1.00005
1.00004
1.00003
1.00002
1.00002
1.00001
1.00001
1
0.999999
0.999998
0.999999
1
1
1.00001
1.00001
1.00001
1.00001
1.00001
1.00001
1.00001
1.00001
1.00002
1.00003
1.00006
1.00015
1.00029
0.999964
1.00003
1.00004
1.00004
1.00004
1.00003
1.00003
1.00003
1.00002
1.00002
1.00001
1.00001
1
0.999995
0.999988
0.999982
0.999979
0.999977
0.999979
0.999983
0.999988
0.999994
1
1.00001
1.00001
1.00001
1.00001
0.999984
0.999962
1.0001
1
1.00002
1.00002
1.00002
1.00002
1.00002
1.00003
1.00003
1.00003
1.00003
1.00003
1.00002
1.00001
0.999999
0.999987
0.999977
0.999969
0.999966
0.999968
0.999974
0.999983
0.999993
1
1.00001
1.00001
1.00001
1.00002
1.00002
0.999984
1.00002
0.999993
1.00001
0.999995
0.999997
1
1.00001
1.00002
1.00002
1.00003
1.00003
1.00003
1.00003
1.00002
1.00001
0.999999
0.999987
0.999979
0.999976
0.999977
0.999983
0.999993
1
1.00001
1.00002
1.00002
1.00001
1.00001
1.00001
0.999993
0.999994
0.999985
0.999993
0.999969
0.999974
0.999981
0.99999
1
1.00001
1.00002
1.00003
1.00003
1.00003
1.00003
1.00002
1.00002
1.00001
1
0.999998
0.999998
1
1.00001
1.00001
1.00002
1.00002
1.00002
1.00002
1.00001
1.00001
0.999998
0.999994
0.999997
0.999977
0.999952
0.999959
0.999966
0.999976
0.999986
0.999997
1.00001
1.00001
1.00002
1.00003
1.00003
1.00003
1.00003
1.00003
1.00003
1.00002
1.00002
1.00002
1.00002
1.00002
1.00002
1.00002
1.00002
1.00002
1.00002
1.00001
1.00001
1.00001
1.00002
0.999968
0.999954
0.999961
0.999967
0.999974
0.999981
0.999988
0.999995
1
1.00001
1.00002
1.00002
1.00003
1.00004
1.00004
1.00004
1.00004
1.00003
1.00003
1.00002
1.00002
1.00002
1.00002
1.00001
1.00001
1.00001
1.00001
1.00002
1.00003
1.00003
0.999972
0.99998
0.999984
0.999987
0.99999
0.999991
0.999992
0.999993
0.999995
1
1.00001
1.00002
1.00003
1.00004
1.00004
1.00005
1.00004
1.00004
1.00003
1.00002
1.00001
1
1
0.999997
0.999994
0.999995
1
1.00001
1.00002
1.00001
0.999991
1.00002
1.00002
1.00002
1.00002
1.00001
1.00001
1
0.999997
0.999998
1
1.00001
1.00002
1.00003
1.00003
1.00004
1.00003
1.00003
1.00002
1.00001
1
0.999995
0.999988
0.999984
0.999982
0.999986
0.999993
1
0.999999
0.99999
1.00002
1.00006
1.00006
1.00005
1.00004
1.00003
1.00002
1
0.999997
0.999994
0.999994
0.999998
1
1.00001
1.00001
1.00001
1.00001
1.00001
1
1
0.999997
0.999991
0.999986
0.999984
0.999985
0.99999
0.999994
0.999994
0.999989
0.999991
1.00005
1.00008
1.00007
1.00006
1.00004
1.00003
1.00001
0.999998
0.99999
0.999985
0.999983
0.999982
0.999981
0.999981
0.999982
0.999984
0.999987
0.999991
0.999995
0.999997
0.999996
0.999994
0.999992
0.999992
0.999994
0.999997
0.999997
0.999993
0.999993
1
1.00005
1.00006
1.00005
1.00003
1.00002
1
0.999993
0.999987
0.999983
0.999981
0.999978
0.999974
0.99997
0.999968
0.999968
0.999972
0.999979
0.999987
0.999995
1
1
1
0.999998
0.999997
0.999997
0.999994
0.999989
0.999986
0.999989
0.99999
1.00003
1.00001
1
0.999992
0.999985
0.999982
0.999983
0.999986
0.99999
0.99999
0.999987
0.999982
0.999975
0.999971
0.999972
0.999977
0.999985
0.999994
1
1
1
1
1
0.999999
0.999995
0.999988
0.999981
0.999977
0.999975
0.999968
1
0.999965
0.999965
0.999965
0.99997
0.999979
0.999989
0.999999
1
1
0.999998
0.99999
0.999982
0.999978
0.999979
0.999983
0.999989
0.999995
0.999998
1
1
1
1.00001
1.00001
1
0.999996
0.99999
0.999985
0.999977
0.99998
0.999974
0.999944
0.999953
0.999962
0.999974
0.999987
0.999999
1.00001
1.00001
1
0.999992
0.999984
0.999978
0.999976
0.999978
0.99998
0.999983
0.999984
0.999986
0.999989
0.999994
1
1.00001
1.00001
1.00001
1.00001
1.00001
1.00001
1
1.00002
0.999966
0.999948
0.99996
0.99997
0.999981
0.99999
0.999995
0.999995
0.99999
0.999983
0.999977
0.999975
0.999976
0.999978
0.999981
0.999981
0.999979
0.999977
0.999978
0.999984
0.999993
1
1.00001
1.00001
1.00001
1.00001
1.00001
1.00001
1.00002
1.00002
0.999971
0.99996
0.999969
0.999975
0.999981
0.999985
0.999986
0.999983
0.99998
0.999979
0.999981
0.999988
0.999995
1
1
0.999995
0.999989
0.999985
0.999986
0.999992
1
1.00001
1
0.999998
0.999991
0.999989
0.99999
0.999993
0.999995
0.999978
0.999978
0.99997
0.999975
0.99998
0.999985
0.999989
0.999991
0.999992
0.999995
1
1.00001
1.00002
1.00002
1.00002
1.00002
1.00001
0.999998
0.999995
0.999998
1
1
0.999999
0.999989
0.99998
0.999977
0.99998
0.999982
0.999979
0.999968
0.999957
0.999983
0.999981
0.999987
0.999994
1
1.00001
1.00001
1.00002
1.00002
1.00002
1.00003
1.00003
1.00003
1.00002
1
0.999996
0.999994
0.999997
1
1
0.999995
0.999985
0.999977
0.999978
0.999988
0.999996
0.999996
0.999988
0.999977
0.999989
0.99999
0.999998
1
1.00001
1.00002
1.00002
1.00002
1.00002
1.00002
1.00002
1.00002
1.00001
1
0.99999
0.999985
0.999988
0.999996
1
1.00001
0.999998
0.999987
0.999979
0.999981
0.999994
1.00001
1.00001
1
0.999994
0.999993
1
1
1.00001
1.00002
1.00002
1.00002
1.00002
1.00002
1.00001
1.00001
1.00001
1
0.999992
0.999985
0.999985
0.999993
1.00001
1.00002
1.00002
1.00001
1
0.999991
0.999993
1.00001
1.00002
1.00002
1
0.999994
0.999989
0.999987
0.999982
1.00001
1.00001
1.00001
1.00001
1.00001
1.00001
1.00001
1.00001
1.00001
1.00001
1
0.999995
0.999994
1
1.00001
1.00002
1.00003
1.00002
1.00001
1
1
1.00002
1.00003
1.00003
1.00002
1.00001
1
0.999999
0.999992
1
1.00001
1.00001
1.00001
1.00001
1.00001
1.00001
1.00001
1.00001
1.00001
1.00001
1
0.999997
0.999998
1.00001
1.00001
1.00001
1.00001
0.999996
0.999992
1
1.00002
1.00003
1.00004
1.00003
1.00002
1.00001
1.00002
1.00002
1.00003
1.00005
1
1
1
1
1
1
1.00001
1.00001
1
0.999997
0.99999
0.999989
0.999993
1
1
0.999997
0.99999
0.999988
0.999997
1.00001
1.00003
1.00003
1.00002
1
1
1.00001
1.00002
1.00003
1.00005
1.00002
1
0.999999
0.999996
0.999991
0.999988
0.999988
0.99999
0.99999
0.999988
0.999986
0.999988
0.999995
1
1.00001
1.00001
1
0.999998
1
1.00001
1.00002
1.00002
1
0.999992
0.99999
1
1.00001
1.00001
1.00002
1.00002
0.999981
0.999999
0.999987
0.999982
0.999978
0.999976
0.999978
0.999981
0.999984
0.999986
0.999991
0.999999
1.00001
1.00001
1.00001
1.00001
0.999999
0.999998
1
1
0.999997
0.999985
0.99998
0.999987
0.999997
1.00001
1.00001
1.00001
1
0.999985
1
0.999991
0.99998
0.999979
0.999978
0.999979
0.99998
0.999982
0.999982
0.999985
0.99999
0.999998
1
1
0.999995
0.999988
0.999986
0.999987
0.999987
0.999981
0.999972
0.999967
0.999975
0.999991
0.999996
0.999994
1
1
0.999983
0.999996
1.00003
0.999989
0.999989
0.99999
0.999988
0.999984
0.99998
0.999975
0.999973
0.999977
0.999984
0.999992
0.999996
0.999994
0.99999
0.999988
0.999989
0.999989
0.999983
0.999976
0.999976
0.999981
0.999983
0.999987
0.999982
0.999977
0.999987
0.999993
0.999989
1.00002
1
0.999997
1
0.999996
0.999988
0.999981
0.999975
0.999972
0.999975
0.999984
0.999994
1
1
1
0.999997
0.999995
0.999992
0.999988
0.999982
0.99998
0.99999
0.999995
0.999981
0.999973
0.999977
0.99998
0.999984
0.999998
1.00001
1
0.999989
1
0.999998
0.999992
0.999988
0.999985
0.999985
0.999986
0.999989
0.999995
0.999999
0.999999
0.999996
0.999993
0.99999
0.999986
0.999981
0.99998
0.999985
0.999989
0.999993
0.99999
0.999969
0.99997
0.999988
0.999989
0.99998
0.999999
0.999999
0.999974
0.999998
0.999999
0.999995
0.999996
0.999997
0.999997
0.999995
0.99999
0.999986
0.999983
0.999982
0.999982
0.999983
0.999986
0.999989
0.999988
0.999986
0.999988
0.999999
0.999996
0.99998
0.999973
0.999968
0.99998
0.999993
0.999984
0.999975
0.999994
0.999982
0.999991
0.999999
0.999998
1
1
1
0.999997
0.99999
0.999982
0.999978
0.999977
0.99998
0.999987
0.999994
0.999998
0.999997
0.999994
0.999992
0.999987
0.999992
0.999982
0.999958
0.999966
0.999986
0.999992
0.99998
0.999979
0.999987
0.999996
0.999998
1.00001
0.999999
1
1
1
0.999998
0.999995
0.999991
0.999988
0.999987
0.999989
0.999993
0.999999
1
0.999996
0.999986
0.99998
0.999989
0.999982
0.999984
0.999983
0.999978
1
1.00002
0.999998
0.999978
1
1.00001
1
1
0.999991
0.999999
1
0.999999
1
1
1
0.999997
0.999993
0.999992
0.999994
0.999996
0.999995
0.999992
0.999986
0.999984
0.999983
1.00001
0.999999
0.999993
1
1.00001
1.00002
1.00002
0.999991
0.999993
1.00002
1.00001
0.999995
0.99999
1
1
0.999999
1
1.00001
1
0.999997
0.999993
0.999993
0.999995
0.999996
0.999994
0.999988
0.999984
0.999984
1
0.999995
1.00001
0.999996
0.999986
0.999995
1.00001
1
0.99999
0.999991
1.00001
1.00002
0.999989
0.999992
1
1.00002
1.00001
1
1
0.999999
0.999996
0.999997
1
1
0.999998
0.999992
0.999986
0.999984
0.99999
0.999986
1.00001
0.999997
1
0.999992
1
1.00001
1.00001
0.999993
0.999995
1.00001
1.00001
0.999994
0.999986
1.00001
1.00002
1
1.00001
1
0.999997
0.999999
1
1.00001
1.00001
1
0.999994
0.999994
0.999997
0.999998
1.00001
0.999989
1
1
0.999998
0.999992
1.00002
1.00001
1
0.999992
1.00001
1.00002
0.999989
0.999987
1.00001
1.00001
0.999992
1
1.00001
0.999999
1
1
1
1
1
1
1.00001
1.00001
1.00001
0.999987
0.999999
0.999993
0.999991
1
1
0.999976
1
0.999999
0.999989
1
1.00001
1
0.999988
1
1.00002
0.999988
0.999994
1.00003
1.00003
1
0.999995
0.999991
0.999998
1.00001
1.00001
1
0.999994
0.999989
0.999997
0.99999
0.999981
1.00002
0.99999
0.999993
1.00001
0.999994
1
1.00001
0.999996
1.00001
1
0.999999
1.00002
0.999998
1
1
1.00002
1.00002
1.00002
0.999993
0.999992
1.00001
1.00002
1
0.999987
0.99999
1
0.999996
0.999996
1.00003
0.999976
1.00001
1.00001
0.999987
0.999995
1
0.999997
1.00001
0.999995
1
1.00001
1
1.00002
0.999984
0.999985
1.00003
1.00002
0.999976
0.999978
0.999997
1.00002
1.00002
0.999991
0.999988
1
1.00001
1.00001
1.00002
0.999995
1.00001
0.999986
0.999991
0.999999
0.999995
1
1.00001
1
1
1.00001
1.00001
1.00002
0.99999
0.999973
1.00002
1.00001
0.999983
1.00001
1.00002
0.999979
1.00002
1
0.999975
0.999998
1.00003
1.00001
0.99999
1.00001
1.00001
0.999979
0.999975
1.00001
1.00001
0.999988
0.999996
1
1
0.999991
1.00001
1.00001
0.999983
0.999987
1.00003
0.999973
1
1.00003
0.999983
1.00002
1.00002
0.999959
0.999996
0.999971
1.00001
1.00002
0.999983
1.00001
1.00002
0.999986
0.999988
1.00004
0.999999
0.999978
1.00001
0.999993
0.999996
0.999993
1.00001
1.00001
0.999981
0.999986
1.00003
0.999988
0.99999
1.00002
0.999975
0.999981
1.00002
1
0.999962
0.999928
0.999979
1
1.00002
0.999966
0.999986
1.00003
1
1.00001
0.999986
0.999981
1.00001
1
0.999999
1.00001
0.999973
1.00001
1.00001
0.999982
1
1.00001
0.999971
1.00001
0.999993
0.999987
1
0.999997
0.999994
0.999997
1.00001
0.999911
0.999999
0.999993
0.999967
0.999977
0.999991
0.999986
0.999989
1.00001
0.999985
1
0.999985
0.999972
1.00001
0.99999
0.999981
1.00001
0.999989
1.00001
1.00001
0.999997
1
1
0.999985
0.999996
1.00001
0.999962
0.999983
1.00002
0.999986
0.999948
0.999978
0.999539
0.999912
0.999976
0.999803
0.999906
0.999997
1
0.999999
0.99999
1.00001
0.999983
0.999991
1
0.999996
0.999976
1
1.00001
0.999989
1
1.00002
1
0.999996
0.999996
0.999903
0.999797
0.99998
0.999903
0.999612
0.999922
0.996316
0.999443
0.999908
0.998071
0.999831
0.999909
0.999956
0.999997
0.999999
0.999989
1
1
1.00001
1
1
1
1
1
1
0.999999
1
0.999996
0.999987
0.999956
0.999906
0.999826
0.998095
0.999899
0.999122
0.996431
0.542609
0.712009
0.690826
0.558665
0.770081
0.720935
0.661032
0.840902
0.813438
0.683734
0.887899
0.853475
0.843159
0.841732
0.881735
0.88322
0.84337
0.841818
0.858505
0.886535
0.683656
0.812953
0.84108
0.660176
0.72155
0.771474
0.55931
0.691063
0.709365
0.546807
0.0173638
0.138302
0.0796413
0.0281134
0.162428
0.104599
0.0596852
0.23081
0.155273
0.0584777
0.271624
0.20616
0.183112
0.135686
0.239686
0.241003
0.135112
0.179292
0.214182
0.26628
0.0583572
0.154984
0.231793
0.0591342
0.10602
0.163558
0.0282959
0.079846
0.135643
0.0191455
0.000257063
0.00141941
0.00423763
0.000862231
0.00113304
0.00127733
0.00242729
0.00296398
0.000463403
0.00102279
0.00257613
0.00382001
0.0075632
0.00284954
0.00970592
0.00932506
0.00268442
0.00720232
0.00556231
0.00353004
0.00103444
0.00048887
0.00304086
0.00197004
0.000695548
0.00117216
0.000902959
0.00432326
0.00183858
0.000234675
4.08142e-05
0.000257063
0.0005333
0.000597686
0.000231001
0.000504125
0.000870986
0.000531968
0.000417109
0.000144414
0.00050443
0.000836959
0.00011227
0.000855433
0.00195767
0.0020554
0.000717279
0.00012919
0.00100246
0.000486212
0.000142813
0.000437454
0.000534513
0.000865968
0.000513119
0.000228303
0.000642322
0.000540417
0.000234675
4.14104e-05
2.21215e-05
2.9905e-05
7.63249e-05
5.45742e-05
3.77331e-05
0.000248356
0.000279859
8.83606e-05
0.000266489
4.64544e-05
6.47763e-05
5.78082e-05
7.31757e-05
7.28723e-05
0.000162795
0.000173333
0.000120183
9.46378e-05
6.98495e-05
7.29019e-05
4.20822e-05
0.000272062
8.91554e-05
0.000299687
0.000255952
3.76866e-05
5.92125e-05
7.60609e-05
2.83314e-05
2.55442e-05
1.25088e-06
3.07832e-06
8.78587e-06
2.70069e-06
3.08735e-06
9.63867e-06
2.89128e-05
4.08446e-06
1.0556e-06
3.24867e-05
9.01376e-06
5.65087e-06
1.97971e-05
2.16007e-05
1.94786e-05
2.02328e-05
2.14712e-05
2.45499e-05
7.37823e-06
8.01425e-06
3.12221e-05
1.13129e-06
4.21693e-06
3.05664e-05
1.00081e-05
3.11867e-06
2.78207e-06
8.91046e-06
3.00133e-06
1.35011e-06
1.03229e-06
1.20191e-06
1.25457e-06
4.32607e-07
1.56133e-07
1.49778e-07
1.05943e-08
5.77623e-08
9.00907e-07
3.17148e-06
8.30809e-07
1.95095e-06
5.63148e-06
6.21507e-06
7.27677e-06
7.47546e-06
4.6664e-06
5.65902e-06
2.0773e-06
7.47558e-07
3.01579e-06
8.70659e-07
5.70831e-08
1.06792e-08
1.41648e-07
1.59773e-07
4.40727e-07
1.26096e-06
1.18607e-06
1.00166e-06
1.43776e-07
1.41407e-07
1.15869e-07
5.48636e-08
2.3923e-08
5.86237e-09
6.26805e-10
3.3095e-09
4.09324e-08
1.25844e-08
4.74053e-08
9.54243e-08
6.25257e-08
6.16834e-07
2.41077e-06
2.91243e-06
6.10432e-07
5.6114e-08
1.06546e-07
4.5311e-08
1.52022e-08
3.83515e-08
3.23836e-09
6.1206e-10
6.72115e-09
2.42374e-08
5.48443e-08
1.14618e-07
1.44607e-07
1.48268e-07
1.11047e-08
3.21438e-08
1.16413e-08
8.64447e-09
4.72998e-09
1.79513e-09
2.95612e-10
2.45676e-10
1.13006e-09
2.4089e-09
1.56031e-09
4.69779e-09
1.12706e-08
2.76187e-08
6.90729e-08
8.44413e-08
4.89898e-08
1.17661e-08
3.76396e-09
1.5948e-09
2.59475e-09
1.14104e-09
2.58472e-10
2.75721e-10
1.68817e-09
4.74733e-09
8.2775e-09
1.16754e-08
3.17321e-08
1.08971e-08
1.57415e-09
3.31642e-09
1.60158e-09
8.65131e-10
4.69332e-10
2.91216e-10
8.78402e-11
4.47244e-11
6.75419e-11
1.97895e-10
1.18377e-10
1.54048e-10
8.49942e-10
2.84179e-09
3.39806e-09
3.38774e-09
2.80195e-09
8.93353e-10
1.59797e-10
1.26676e-10
1.96019e-10
6.62139e-11
4.40386e-11
7.66731e-11
2.64991e-10
4.67046e-10
8.76172e-10
1.60359e-09
3.33461e-09
1.5412e-09
2.60534e-10
4.56794e-10
2.82919e-10
1.51084e-10
7.82404e-11
4.30193e-11
2.50141e-11
1.08314e-11
9.08411e-12
1.4022e-11
1.02701e-11
2.36747e-11
7.75008e-11
1.88057e-10
3.22797e-10
2.90372e-10
1.87027e-10
7.86541e-11
2.43534e-11
1.098e-11
1.36621e-11
8.88434e-12
1.06084e-11
2.28014e-11
3.73349e-11
7.29636e-11
1.51373e-10
2.82507e-10
4.57352e-10
2.62946e-10
3.34653e-11
6.44753e-11
3.73044e-11
1.85459e-11
1.0137e-11
4.28434e-12
2.14932e-12
1.40275e-12
1.16036e-12
1.9076e-12
3.11626e-12
5.56571e-12
1.25268e-11
2.28222e-11
2.98778e-11
2.61133e-11
2.32448e-11
1.26382e-11
5.53998e-12
3.18322e-12
1.88051e-12
1.20115e-12
1.34681e-12
1.88428e-12
3.78572e-12
9.3026e-12
1.76718e-11
3.74985e-11
6.51772e-11
3.37134e-11
3.7845e-12
6.94306e-12
4.04455e-12
1.61139e-12
1.04591e-12
5.29253e-13
2.54602e-13
2.05449e-13
2.77931e-13
5.87801e-13
1.23964e-12
2.60933e-12
5.40342e-12
5.65574e-12
8.28297e-12
7.91366e-12
5.10203e-12
5.4768e-12
2.63179e-12
1.26424e-12
5.97199e-13
2.83218e-13
2.03858e-13
2.3872e-13
4.76618e-13
9.42557e-13
1.57118e-12
4.07942e-12
7.01909e-12
3.79558e-12
2.90916e-13
5.02196e-13
4.27303e-13
1.75192e-13
6.60542e-14
2.51572e-14
1.1096e-14
9.93837e-15
1.77631e-14
4.48264e-14
1.18664e-13
3.19955e-13
6.95798e-13
1.17475e-12
1.7061e-12
1.7018e-12
1.17534e-12
7.04525e-13
3.24324e-13
1.21409e-13
4.61708e-14
1.81667e-14
1.0045e-14
1.05669e-14
2.27463e-14
6.12218e-14
1.73594e-13
4.30835e-13
5.08174e-13
2.93527e-13
1.31919e-14
3.07576e-14
1.89658e-14
6.66642e-15
1.86557e-15
5.64379e-16
2.41743e-16
2.54387e-16
5.02166e-16
1.38461e-15
4.46988e-15
1.48544e-14
3.75496e-14
8.14922e-14
1.27054e-13
1.26654e-13
8.24314e-14
3.80358e-14
1.51303e-14
4.58237e-15
1.42875e-15
5.17766e-16
2.56784e-16
2.27752e-16
5.02148e-16
1.73351e-15
6.55616e-15
1.93246e-14
3.13785e-14
1.33166e-14
3.0035e-16
8.60686e-16
4.2328e-16
1.28058e-16
3.63563e-17
1.05671e-17
5.05511e-18
6.72791e-18
1.43697e-17
4.00199e-17
1.29282e-16
4.32658e-16
1.2103e-15
2.78929e-15
4.55143e-15
4.54234e-15
2.80219e-15
1.22464e-15
4.43005e-16
1.33713e-16
4.15252e-17
1.49154e-17
6.80886e-18
4.79418e-18
9.22668e-18
3.3067e-17
1.27317e-16
4.3131e-16
8.7795e-16
3.03591e-16
5.09044e-18
1.5535e-17
7.61654e-18
2.2082e-18
6.02792e-19
1.72635e-19
1.02655e-19
1.70953e-19
3.85936e-19
1.05921e-18
3.27192e-18
1.05392e-17
2.89224e-17
6.5268e-17
1.06712e-16
1.07306e-16
6.59777e-17
2.92484e-17
1.07993e-17
3.39913e-18
1.09701e-18
3.99746e-19
1.74547e-19
9.87097e-20
1.50772e-19
5.43319e-19
2.17758e-18
7.73294e-18
1.59127e-17
5.12815e-18
7.11021e-20
2.41756e-19
1.1405e-19
3.21687e-20
8.21138e-21
2.45958e-21
1.96926e-21
3.89095e-21
8.96047e-21
2.37995e-20
7.10458e-20
2.20262e-19
5.80918e-19
1.27989e-18
2.07276e-18
2.07379e-18
1.28778e-18
5.91189e-19
2.26268e-19
7.36214e-20
2.46963e-20
9.30959e-21
4.03096e-21
1.93061e-21
2.14027e-21
7.46982e-21
3.14308e-20
1.17018e-19
2.46704e-19
7.27404e-20
8.11803e-22
3.08821e-21
1.43419e-21
3.77363e-22
9.58029e-23
3.12511e-23
3.5317e-23
7.8634e-23
1.77548e-22
4.48736e-22
1.27366e-21
3.75586e-21
9.62315e-21
2.0805e-20
3.30388e-20
3.29696e-20
2.08827e-20
9.81417e-21
3.85903e-21
1.3131e-21
4.63811e-22
1.83827e-22
8.16413e-23
3.57386e-23
2.72478e-23
8.48842e-23
3.7328e-22
1.45618e-21
3.17392e-21
8.46226e-22
7.80925e-24
3.15098e-23
1.48321e-23
3.74901e-24
9.32525e-25
3.57605e-25
5.88849e-25
1.37049e-24
2.94935e-24
6.98069e-24
1.86324e-23
5.22622e-23
1.2819e-22
2.64696e-22
4.11212e-22
4.13834e-22
2.67541e-22
1.29466e-22
5.3268e-23
1.93794e-23
7.29725e-24
3.07319e-24
1.42393e-24
6.12313e-25
3.3041e-25
8.02858e-25
3.64071e-24
1.49049e-23
3.33576e-23
8.01872e-24
5.79874e-26
2.8065e-25
1.21186e-25
3.07817e-26
7.37062e-27
4.0758e-27
8.89485e-27
2.00424e-26
4.03256e-26
8.91525e-26
2.23236e-25
5.84959e-25
1.34401e-24
2.66117e-24
4.11764e-24
4.17779e-24
2.73787e-24
1.37267e-24
5.97477e-25
2.32914e-25
9.3934e-26
4.25697e-26
2.10475e-26
9.25777e-27
3.95992e-27
6.47849e-27
2.92583e-26
1.2507e-25
2.8623e-25
6.18584e-26
3.61288e-28
1.94528e-27
8.38753e-28
2.03615e-28
5.28336e-29
4.60974e-29
1.13302e-28
2.43746e-28
4.62535e-28
9.46894e-28
2.15357e-27
5.06916e-27
1.08443e-26
2.07296e-26
3.13907e-26
3.13485e-26
2.09756e-26
1.12315e-26
5.31938e-27
2.26586e-27
9.96313e-28
4.92756e-28
2.62665e-28
1.20741e-28
4.6092e-29
4.63669e-29
1.94501e-28
8.59152e-28
2.00966e-27
3.90474e-28
2.00584e-30
1.06447e-29
5.02417e-30
1.15346e-30
3.53479e-31
4.65745e-31
1.20922e-30
2.50777e-30
4.41209e-30
8.10808e-30
1.64151e-29
3.50117e-29
7.06514e-29
1.28065e-28
1.85151e-28
1.85378e-28
1.31598e-28
7.60825e-29
3.85567e-29
1.77853e-29
8.62992e-30
4.73326e-30
2.73746e-30
1.3284e-30
4.93163e-31
3.09232e-31
1.07161e-30
4.84555e-30
1.16036e-29
2.02732e-30
7.91329e-33
5.44722e-32
2.33993e-32
5.65339e-33
2.20501e-33
4.36034e-33
1.14034e-32
2.1741e-32
3.38565e-32
5.4765e-32
1.00002e-31
1.96521e-31
3.63893e-31
6.0351e-31
8.3488e-31
8.56488e-31
6.37785e-31
3.87582e-31
2.12287e-31
1.10903e-31
6.14526e-32
3.74774e-32
2.34194e-32
1.21053e-32
4.65283e-33
2.07251e-33
5.05925e-33
2.27718e-32
5.49971e-32
8.64543e-33
2.91766e-35
2.26992e-34
9.0874e-35
2.40874e-35
1.38967e-35
3.58835e-35
8.78704e-35
1.51681e-34
2.13742e-34
3.16377e-34
5.23051e-34
8.90636e-34
1.40767e-33
2.11241e-33
2.88519e-33
3.06648e-33
2.39782e-33
1.577e-33
9.79293e-34
5.85896e-34
3.61999e-34
2.41716e-34
1.6525e-34
9.37156e-35
3.8568e-35
1.43045e-35
2.13666e-35
8.90417e-35
2.1168e-34
3.07386e-35
1.07333e-37
6.80857e-37
3.33343e-37
9.45043e-38
8.82842e-38
2.39855e-37
5.53345e-37
8.98528e-37
1.18408e-36
1.59365e-36
2.25105e-36
3.20055e-36
4.52961e-36
6.61782e-36
8.87369e-36
9.08136e-36
7.17148e-36
5.19484e-36
3.71847e-36
2.52841e-36
1.74368e-36
1.30383e-36
1.0008e-36
6.28103e-37
2.74507e-37
9.40506e-38
8.29654e-38
2.89297e-37
6.81754e-37
9.63027e-38
2.56414e-40
2.01004e-39
1.05171e-39
3.68492e-40
4.99522e-40
1.42371e-39
3.20933e-39
4.80371e-39
5.61354e-39
6.33666e-39
7.34684e-39
9.26094e-39
1.25495e-38
1.6894e-38
1.95388e-38
1.82972e-38
1.57266e-38
1.38281e-38
1.17757e-38
9.03071e-39
6.96415e-39
5.90415e-39
5.12085e-39
3.53368e-39
1.63145e-39
5.54299e-40
3.26689e-40
8.45948e-40
1.96881e-39
2.76352e-40
6.39505e-43
6.35333e-42
2.85278e-42
1.40901e-42
2.53059e-42
7.46121e-42
1.52799e-41
2.03268e-41
2.06571e-41
2.01477e-41
2.13173e-41
2.57092e-41
3.07529e-41
3.32371e-41
3.27054e-41
3.19035e-41
3.26311e-41
3.28727e-41
3.00862e-41
2.51271e-41
2.24167e-41
2.244e-41
2.25175e-41
1.70922e-41
8.31959e-42
2.90468e-42
1.37685e-42
2.42445e-42
5.19372e-42
7.30714e-43
2.15425e-45
1.42406e-44
7.64019e-45
5.33369e-45
1.19179e-44
3.14439e-44
5.7431e-44
7.05326e-44
6.44701e-44
5.79673e-44
5.76596e-44
6.01613e-44
5.49669e-44
4.76729e-44
4.59353e-44
5.05146e-44
5.49338e-44
5.56515e-44
5.48146e-44
5.56302e-44
6.28339e-44
7.50105e-44
8.52491e-44
6.87444e-44
3.50882e-44
1.29452e-44
5.73396e-45
7.05652e-45
1.26792e-44
1.85507e-45
4.41786e-48
2.8508e-47
2.03914e-47
1.96447e-47
4.39245e-47
1.05892e-46
1.91946e-46
2.17994e-46
1.83057e-46
1.4454e-46
1.21302e-46
9.77918e-47
7.17822e-47
5.74562e-47
5.82817e-47
6.38078e-47
6.49178e-47
6.74171e-47
8.13188e-47
1.07519e-46
1.48036e-46
2.00725e-46
2.38994e-46
2.13121e-46
1.20653e-46
4.95078e-47
2.22221e-47
2.14231e-47
3.0355e-47
4.74039e-48
1.04775e-50
6.89078e-50
5.51317e-50
5.88108e-50
1.19537e-49
2.93715e-49
5.13799e-49
4.98055e-49
3.82757e-49
2.54339e-49
1.81384e-49
1.29771e-49
9.21889e-50
7.32287e-50
6.62681e-50
5.90696e-50
5.54697e-50
6.76911e-50
1.06036e-49
1.72244e-49
2.68148e-49
4.08967e-49
5.24123e-49
5.63442e-49
3.69745e-49
1.66409e-49
7.52621e-50
6.28675e-50
7.16179e-50
1.18843e-50
2.64654e-53
1.46215e-52
1.33292e-52
1.37399e-52
2.90472e-52
6.80637e-52
1.02113e-51
9.0188e-52
6.01389e-52
3.58831e-52
2.42246e-52
1.72907e-52
1.18367e-52
7.84153e-53
5.37725e-53
4.15995e-53
4.54351e-53
7.42769e-53
1.4172e-52
2.5427e-52
4.22128e-52
7.04553e-52
1.06982e-51
1.27579e-51
9.45121e-52
4.39042e-52
1.98192e-52
1.56478e-52
1.58506e-52
2.79607e-53
4.18945e-56
2.83182e-55
2.36903e-55
2.72714e-55
5.84876e-55
1.22584e-54
1.74036e-54
1.51812e-54
9.37551e-55
5.35055e-55
3.5478e-55
2.36316e-55
1.3477e-55
7.1321e-56
4.4092e-56
3.88665e-56
5.26808e-56
9.50822e-56
1.81124e-55
3.20615e-55
5.52453e-55
1.01972e-54
1.7951e-54
2.28362e-54
1.81362e-54
8.56677e-55
4.02931e-55
3.27163e-55
3.27865e-55
6.02336e-56
8.23385e-59
5.08328e-58
3.90969e-58
5.01719e-58
9.15287e-58
1.89504e-57
2.66999e-57
2.2387e-57
1.2673e-57
7.03357e-58
4.41002e-58
2.54832e-58
1.24445e-58
6.41822e-59
4.53145e-59
4.58634e-59
6.11314e-59
9.88596e-59
1.79097e-58
3.32843e-58
6.50912e-58
1.3876e-57
2.74639e-57
3.57136e-57
2.89076e-57
1.38308e-57
6.99291e-58
6.03547e-58
6.21484e-58
1.14512e-58
2.20203e-61
6.13362e-61
7.89089e-61
9.36482e-61
1.60893e-60
3.47521e-60
4.14451e-60
3.14927e-60
1.62294e-60
8.56668e-61
4.79122e-61
2.44773e-61
1.17129e-61
6.83644e-62
5.40561e-62
5.33151e-62
6.41951e-62
9.81179e-62
1.94133e-61
4.2401e-61
9.49974e-61
2.15696e-60
4.25106e-60
5.24073e-60
4.07874e-60
1.97754e-60
1.08692e-60
9.91276e-61
1.05101e-60
1.9177e-61
1.78882e-64
1.14548e-63
1.65972e-63
1.71831e-63
3.10591e-63
6.11367e-63
6.08972e-63
4.57054e-63
2.29783e-63
1.1458e-63
5.74188e-64
2.72915e-64
1.33394e-64
8.1039e-65
6.1018e-65
5.49316e-65
6.53093e-65
1.10322e-64
2.52673e-64
6.07426e-64
1.36674e-63
2.9137e-63
5.44438e-63
6.3699e-63
5.12333e-63
2.70159e-63
1.627e-63
1.54911e-63
1.66217e-63
2.96462e-64
2.96841e-67
3.36408e-66
2.79708e-66
2.7539e-66
4.55584e-66
7.54038e-66
7.18378e-66
5.69729e-66
2.86948e-66
1.32429e-66
6.014e-67
2.67703e-67
1.24113e-67
6.83142e-68
4.57389e-68
4.02738e-68
5.39784e-68
1.08543e-67
2.76037e-67
6.64453e-67
1.41407e-66
2.92303e-66
5.83405e-66
7.31954e-66
6.98184e-66
4.10147e-66
2.55183e-66
2.41787e-66
2.52234e-66
4.32162e-67
9.57413e-70
4.70638e-69
3.56924e-69
3.61354e-69
5.45295e-69
8.45206e-69
8.22814e-69
6.41025e-69
2.97374e-69
1.20346e-69
4.88778e-70
2.01865e-70
8.61507e-71
4.26927e-71
2.76106e-71
2.74276e-71
4.45902e-71
1.0218e-70
2.63468e-70
6.07596e-70
1.28099e-69
2.85832e-69
6.62658e-69
9.67853e-69
1.0213e-68
6.13032e-69
3.68907e-69
3.40431e-69
3.52338e-69
5.95626e-70
1.00828e-72
3.42163e-72
3.97409e-72
4.25586e-72
6.60418e-72
1.00252e-71
9.58284e-72
6.68453e-72
2.73415e-72
9.69288e-73
3.70539e-73
1.54261e-73
6.67686e-74
3.41529e-74
2.42462e-74
2.72224e-74
4.67777e-74
1.02737e-73
2.42257e-73
5.29644e-73
1.16295e-72
2.88148e-72
7.35977e-72
1.13898e-71
1.17449e-71
6.79212e-72
4.17319e-72
4.02791e-72
4.58385e-72
8.05694e-73
5.76754e-76
5.83256e-75
5.78655e-75
5.66537e-75
7.67309e-75
9.99945e-75
9.31935e-75
6.05702e-75
2.29719e-75
7.86009e-76
3.19312e-76
1.45893e-76
6.77166e-77
3.65338e-77
2.68212e-77
2.90007e-77
4.43442e-77
8.34353e-77
1.77746e-76
3.92182e-76
9.38671e-76
2.53157e-75
6.60289e-75
9.71261e-75
9.47174e-75
5.57294e-75
3.97879e-75
4.39449e-75
5.86125e-75
1.06584e-75
1.49189e-78
1.3767e-77
8.73769e-78
7.27049e-78
7.71523e-78
9.26618e-78
9.29948e-78
6.13089e-78
2.29648e-78
8.3042e-79
3.6966e-79
1.75584e-79
7.99296e-80
4.11672e-80
2.7916e-80
2.64607e-80
3.46735e-80
5.86618e-80
1.25263e-79
3.04876e-79
8.05117e-79
2.24005e-78
5.57163e-78
7.52119e-78
7.10021e-78
4.62298e-78
3.72077e-78
4.76937e-78
6.95997e-78
1.23671e-78
4.4036e-81
1.35847e-80
9.20197e-81
6.3187e-81
6.8808e-81
1.01726e-80
1.08881e-80
7.0992e-81
2.67188e-81
1.02963e-81
4.64346e-82
2.0678e-82
8.59854e-83
4.11505e-83
2.63292e-83
2.34631e-83
2.96903e-83
5.13889e-83
1.18718e-82
3.14085e-82
8.47235e-82
2.24044e-81
5.1013e-81
6.56085e-81
6.12173e-81
4.28803e-81
3.55483e-81
4.66642e-81
6.64392e-81
1.11035e-81
1.88317e-84
6.4385e-84
7.06388e-84
5.6837e-84
7.6663e-84
1.2384e-83
1.15881e-83
6.42794e-84
2.37935e-84
9.04613e-85
3.71569e-85
1.45435e-85
5.66383e-86
2.79245e-86
1.93323e-86
1.87343e-86
2.55468e-86
4.72527e-86
1.13585e-85
3.01107e-85
7.81975e-85
1.9655e-84
4.37485e-84
5.84349e-84
5.65487e-84
4.08326e-84
3.23117e-84
3.91161e-84
4.91001e-84
7.75874e-85
1.00413e-87
1.11056e-86
9.99273e-87
8.348e-87
1.22326e-86
1.46379e-86
9.8505e-87
4.3051e-87
1.4625e-87
4.71137e-88
1.5309e-88
5.09772e-89
2.02407e-89
1.18122e-89
9.77809e-90
1.07345e-89
1.56531e-89
2.96008e-89
7.06279e-89
1.84491e-88
4.86203e-88
1.31196e-87
3.3112e-87
5.28692e-87
5.69816e-87
4.15685e-87
3.04134e-87
3.15148e-87
3.28281e-87
4.97578e-88
2.38315e-90
2.28044e-89
1.57456e-89
1.3497e-89
1.63059e-89
1.34496e-89
7.88363e-90
3.24234e-90
9.83367e-91
2.50999e-91
6.54601e-92
2.05407e-92
8.57513e-93
5.33965e-93
4.54622e-93
4.92107e-93
6.94932e-93
1.28168e-92
3.04731e-92
8.3415e-92
2.53097e-91
8.47164e-91
2.70929e-90
5.43056e-90
6.49765e-90
4.6766e-90
3.05889e-90
2.72053e-90
2.40064e-90
3.57824e-91
4.91401e-93
1.81446e-92
1.35817e-92
1.07659e-92
1.21971e-92
1.07864e-92
7.56291e-93
3.18916e-93
8.52998e-94
1.88053e-94
4.60733e-95
1.43745e-95
5.94302e-96
3.33719e-96
2.38603e-96
2.28145e-96
3.0945e-96
5.85896e-96
1.4766e-95
4.42893e-95
1.5325e-94
6.08293e-94
2.32001e-93
5.42484e-93
6.86703e-93
4.84588e-93
2.94233e-93
2.49281e-93
2.13092e-93
3.3079e-94
1.84365e-96
8.42781e-96
9.92967e-96
8.69229e-96
1.02602e-95
1.11428e-95
8.08618e-96
2.88036e-96
6.36559e-97
1.31001e-97
3.3396e-98
1.04731e-98
3.8508e-99
1.76118e-99
1.06554e-99
9.98731e-100
1.48941e-99
3.18086e-99
8.74136e-99
2.71917e-98
9.55696e-98
3.85548e-97
1.5465e-96
3.93563e-96
5.25774e-96
4.01005e-96
2.65389e-96
2.46527e-96
2.41875e-96
4.04564e-97
1.27057e-99
1.45857e-98
1.40402e-98
1.14015e-98
1.43763e-98
1.451e-98
7.32219e-99
1.75431e-99
3.14759e-100
6.44596e-101
1.71489e-101
5.18402e-102
1.70746e-102
7.16352e-103
4.54472e-103
4.61506e-103
7.41796e-103
1.71945e-102
4.8083e-102
1.41197e-101
4.51361e-101
1.69734e-100
6.79061e-100
1.95331e-99
3.03519e-99
3.03142e-99
2.48285e-99
2.83032e-99
3.36067e-99
5.88667e-100
2.89326e-102
2.58712e-101
1.84237e-101
1.49561e-101
1.81952e-101
1.49907e-101
4.67283e-102
7.92379e-103
1.41509e-103
3.21795e-104
9.21545e-105
3.03944e-105
1.16504e-105
5.67508e-106
3.67266e-106
3.3121e-106
4.45066e-106
8.7093e-106
2.17018e-105
5.74914e-105
1.70613e-104
6.32276e-104
2.69267e-103
9.24844e-103
1.96805e-102
2.60361e-102
2.60853e-102
3.54906e-102
4.78693e-102
8.28468e-103
4.82524e-105
2.02583e-104
1.40985e-104
1.24813e-104
1.3856e-104
8.74834e-105
2.39557e-105
4.69252e-106
1.00793e-106
2.35751e-107
6.89626e-108
2.67351e-108
1.20986e-108
6.1845e-109
3.8384e-109
2.99713e-109
3.01171e-109
3.93613e-109
8.18387e-109
2.22536e-108
7.62783e-108
3.20432e-107
1.53243e-106
6.32864e-106
1.66131e-105
2.54385e-105
2.77159e-105
3.99146e-105
5.56552e-105
9.26712e-106
1.71045e-105
1.70932e-105
4.59864e-105
6.79436e-105
4.24051e-105
1.4907e-105
3.21549e-106
5.35437e-107