/*--------------------------------*- C++ -*----------------------------------*\
| =========                 |                                                 |
| \\      /  F ield         | OpenFOAM: The Open Source CFD Toolbox           |
|  \\    /   O peration     | Version:  2312                                  |
|   \\  /    A nd           | Website:  www.openfoam.com                      |
|    \\/     M anipulation  |                                                 |
\*---------------------------------------------------------------------------*/
FoamFile
{
    version     2.0;
    format      ascii;
    arch        "LSB;label=32;scalar=64";
    class       volScalarField;
    location    "0.941998";
    object      epsilon;
}
// * * * * * * * * * * * * * * * * * * * * * * * * * * * * * * * * * * * * * //

dimensions      [0 2 -3 0 0 0 0];

internalField   nonuniform List<scalar> 
90000
(
1.00513e-05
1.00534e-05
1.0054e-05
1.00542e-05
1.00543e-05
1.00543e-05
1.0054e-05
1.00537e-05
1.00534e-05
1.00531e-05
1.00529e-05
1.00529e-05
1.00529e-05
1.00529e-05
1.0053e-05
1.00532e-05
1.00537e-05
1.00542e-05
1.00545e-05
1.00545e-05
1.00541e-05
1.00534e-05
1.00534e-05
1.00543e-05
1.00552e-05
1.00556e-05
1.00554e-05
1.00548e-05
1.00543e-05
1.00547e-05
1.00533e-05
1.0093e-05
1.00956e-05
1.00955e-05
1.00953e-05
1.00951e-05
1.00949e-05
1.00948e-05
1.00947e-05
1.00945e-05
1.00943e-05
1.00943e-05
1.00944e-05
1.00946e-05
1.00948e-05
1.0095e-05
1.00951e-05
1.00952e-05
1.00952e-05
1.00951e-05
1.00951e-05
1.00953e-05
1.00953e-05
1.00951e-05
1.00946e-05
1.00939e-05
1.00941e-05
1.0095e-05
1.00928e-05
1.00595e-05
1.00539e-05
1.00958e-05
1.00985e-05
1.00983e-05
1.00981e-05
1.00979e-05
1.00978e-05
1.00978e-05
1.00979e-05
1.00978e-05
1.00976e-05
1.00977e-05
1.00978e-05
1.00981e-05
1.00982e-05
1.00982e-05
1.0098e-05
1.00979e-05
1.00981e-05
1.00986e-05
1.00989e-05
1.00991e-05
1.00991e-05
1.00991e-05
1.00993e-05
1.00996e-05
1.00998e-05
1.01002e-05
1.00981e-05
1.00583e-05
1.00541e-05
1.00957e-05
1.00986e-05
1.00987e-05
1.00986e-05
1.00985e-05
1.00983e-05
1.00983e-05
1.00982e-05
1.00982e-05
1.00982e-05
1.00982e-05
1.00983e-05
1.00984e-05
1.00984e-05
1.00983e-05
1.00982e-05
1.00986e-05
1.0099e-05
1.00992e-05
1.00993e-05
1.00993e-05
1.00996e-05
1.01004e-05
1.01011e-05
1.01014e-05
1.01014e-05
1.0101e-05
1.00983e-05
1.00558e-05
1.0054e-05
1.00953e-05
1.00986e-05
1.00989e-05
1.0099e-05
1.0099e-05
1.00988e-05
1.00986e-05
1.00985e-05
1.00984e-05
1.00984e-05
1.00983e-05
1.00983e-05
1.00982e-05
1.00981e-05
1.00983e-05
1.00986e-05
1.00989e-05
1.0099e-05
1.00989e-05
1.00988e-05
1.0099e-05
1.00998e-05
1.01006e-05
1.01011e-05
1.01012e-05
1.01008e-05
1.00997e-05
1.00976e-05
1.00554e-05
1.00538e-05
1.00956e-05
1.00988e-05
1.00991e-05
1.00992e-05
1.00993e-05
1.00992e-05
1.00991e-05
1.00988e-05
1.00985e-05
1.00984e-05
1.00985e-05
1.00986e-05
1.00987e-05
1.00987e-05
1.00987e-05
1.00986e-05
1.00985e-05
1.00983e-05
1.00982e-05
1.00984e-05
1.00989e-05
1.00994e-05
1.00997e-05
1.00998e-05
1.00999e-05
1.01004e-05
1.01009e-05
1.00993e-05
1.00561e-05
1.00538e-05
1.00963e-05
1.00992e-05
1.00993e-05
1.00994e-05
1.00996e-05
1.00997e-05
1.00996e-05
1.00994e-05
1.00989e-05
1.00985e-05
1.00986e-05
1.00989e-05
1.00991e-05
1.0099e-05
1.00986e-05
1.00981e-05
1.00977e-05
1.00977e-05
1.00981e-05
1.00985e-05
1.00987e-05
1.00987e-05
1.00986e-05
1.00988e-05
1.00999e-05
1.01013e-05
1.01022e-05
1.01e-05
1.00562e-05
1.00541e-05
1.00972e-05
1.00997e-05
1.00998e-05
1.00999e-05
1.01e-05
1.01002e-05
1.01003e-05
1.01e-05
1.00996e-05
1.00991e-05
1.00988e-05
1.00989e-05
1.0099e-05
1.00989e-05
1.00985e-05
1.0098e-05
1.00975e-05
1.00978e-05
1.00983e-05
1.00986e-05
1.00986e-05
1.00984e-05
1.00986e-05
1.00995e-05
1.01007e-05
1.01018e-05
1.01023e-05
1.00994e-05
1.00559e-05
1.00547e-05
1.00982e-05
1.01005e-05
1.01004e-05
1.01003e-05
1.01004e-05
1.01006e-05
1.01007e-05
1.01006e-05
1.01004e-05
1.00999e-05
1.00994e-05
1.00989e-05
1.00987e-05
1.00986e-05
1.00986e-05
1.00987e-05
1.00988e-05
1.0099e-05
1.00992e-05
1.00993e-05
1.00991e-05
1.0099e-05
1.00994e-05
1.01002e-05
1.01011e-05
1.01017e-05
1.01018e-05
1.00985e-05
1.00558e-05
1.00556e-05
1.00987e-05
1.01009e-05
1.01006e-05
1.01004e-05
1.01003e-05
1.01004e-05
1.01006e-05
1.01007e-05
1.01008e-05
1.01005e-05
1.00999e-05
1.00991e-05
1.00984e-05
1.00983e-05
1.0099e-05
1.00998e-05
1.01004e-05
1.01008e-05
1.01009e-05
1.01007e-05
1.01003e-05
1.00999e-05
1.00999e-05
1.01004e-05
1.01009e-05
1.01013e-05
1.01011e-05
1.0098e-05
1.0056e-05
1.00565e-05
1.00987e-05
1.01008e-05
1.01005e-05
1.01001e-05
1.00998e-05
1.00996e-05
1.00998e-05
1.01002e-05
1.01006e-05
1.01006e-05
1.01002e-05
1.00995e-05
1.00987e-05
1.00983e-05
1.00992e-05
1.01004e-05
1.01015e-05
1.01022e-05
1.01024e-05
1.0102e-05
1.01013e-05
1.01006e-05
1.01002e-05
1.01002e-05
1.01006e-05
1.01009e-05
1.01009e-05
1.00981e-05
1.00565e-05
1.00568e-05
1.00986e-05
1.01009e-05
1.01008e-05
1.01007e-05
1.01004e-05
1.01002e-05
1.01e-05
1.00999e-05
1.01001e-05
1.01002e-05
1.01002e-05
1.00999e-05
1.00992e-05
1.00985e-05
1.00992e-05
1.01006e-05
1.01018e-05
1.01025e-05
1.01026e-05
1.01021e-05
1.01014e-05
1.01007e-05
1.01003e-05
1.01003e-05
1.01006e-05
1.0101e-05
1.01011e-05
1.00986e-05
1.00569e-05
1.0057e-05
1.00988e-05
1.01015e-05
1.01017e-05
1.01021e-05
1.01024e-05
1.01024e-05
1.01022e-05
1.01015e-05
1.01006e-05
1.01e-05
1.01001e-05
1.01002e-05
1.01002e-05
1.01e-05
1.01001e-05
1.01006e-05
1.0101e-05
1.01012e-05
1.01011e-05
1.01009e-05
1.01007e-05
1.01006e-05
1.01005e-05
1.01006e-05
1.01008e-05
1.01011e-05
1.01013e-05
1.00987e-05
1.0057e-05
1.00586e-05
1.00991e-05
1.01022e-05
1.01029e-05
1.01037e-05
1.01043e-05
1.01045e-05
1.0104e-05
1.01028e-05
1.01013e-05
1.00999e-05
1.00998e-05
1.01004e-05
1.01009e-05
1.01012e-05
1.01013e-05
1.01009e-05
1.01e-05
1.00992e-05
1.00992e-05
1.00998e-05
1.01004e-05
1.01008e-05
1.0101e-05
1.0101e-05
1.01011e-05
1.01013e-05
1.01015e-05
1.00986e-05
1.00572e-05
1.00607e-05
1.00991e-05
1.01032e-05
1.01042e-05
1.0105e-05
1.01054e-05
1.01051e-05
1.01042e-05
1.01028e-05
1.01012e-05
1.00998e-05
1.00995e-05
1.01003e-05
1.01013e-05
1.01018e-05
1.01018e-05
1.01011e-05
1.01e-05
1.00991e-05
1.00991e-05
1.00999e-05
1.01009e-05
1.01015e-05
1.01018e-05
1.01018e-05
1.01019e-05
1.0102e-05
1.01021e-05
1.00993e-05
1.00584e-05
1.00621e-05
1.01012e-05
1.01048e-05
1.01054e-05
1.01055e-05
1.01051e-05
1.01042e-05
1.01032e-05
1.01023e-05
1.01014e-05
1.01003e-05
1.00996e-05
1.01003e-05
1.01013e-05
1.01019e-05
1.01019e-05
1.01014e-05
1.01007e-05
1.01002e-05
1.01001e-05
1.01008e-05
1.01017e-05
1.01025e-05
1.01029e-05
1.01031e-05
1.01033e-05
1.01035e-05
1.01038e-05
1.01017e-05
1.00603e-05
1.00625e-05
1.01045e-05
1.01066e-05
1.01063e-05
1.01054e-05
1.01043e-05
1.01035e-05
1.01031e-05
1.01029e-05
1.01023e-05
1.01013e-05
1.01004e-05
1.01007e-05
1.01013e-05
1.01016e-05
1.01017e-05
1.01015e-05
1.01013e-05
1.01011e-05
1.01012e-05
1.01018e-05
1.01027e-05
1.01034e-05
1.0104e-05
1.01044e-05
1.0105e-05
1.01055e-05
1.01061e-05
1.01036e-05
1.00617e-05
1.00629e-05
1.0107e-05
1.01083e-05
1.01076e-05
1.01066e-05
1.01057e-05
1.01051e-05
1.01047e-05
1.01041e-05
1.01032e-05
1.01022e-05
1.01013e-05
1.01011e-05
1.0101e-05
1.0101e-05
1.01011e-05
1.01013e-05
1.01016e-05
1.01019e-05
1.01023e-05
1.01029e-05
1.01037e-05
1.01044e-05
1.01052e-05
1.0106e-05
1.01068e-05
1.01074e-05
1.01076e-05
1.01046e-05
1.00627e-05
1.00646e-05
1.01084e-05
1.01101e-05
1.01096e-05
1.01089e-05
1.01082e-05
1.01075e-05
1.01067e-05
1.01056e-05
1.01042e-05
1.0103e-05
1.01019e-05
1.01011e-05
1.01004e-05
1.01e-05
1.01002e-05
1.01009e-05
1.01018e-05
1.01026e-05
1.01033e-05
1.0104e-05
1.01048e-05
1.01057e-05
1.0107e-05
1.01081e-05
1.01089e-05
1.01091e-05
1.0109e-05
1.01058e-05
1.00644e-05
1.00671e-05
1.01095e-05
1.01119e-05
1.01116e-05
1.01111e-05
1.01106e-05
1.01099e-05
1.01088e-05
1.01074e-05
1.01059e-05
1.01043e-05
1.01028e-05
1.01014e-05
1.01001e-05
1.00993e-05
1.00996e-05
1.01008e-05
1.01022e-05
1.01034e-05
1.01044e-05
1.01053e-05
1.01066e-05
1.01081e-05
1.01096e-05
1.01106e-05
1.0111e-05
1.01112e-05
1.01111e-05
1.01081e-05
1.0067e-05
1.00699e-05
1.01112e-05
1.0114e-05
1.01139e-05
1.01136e-05
1.01132e-05
1.01124e-05
1.01112e-05
1.01097e-05
1.0108e-05
1.01061e-05
1.01041e-05
1.01021e-05
1.01005e-05
1.00997e-05
1.01003e-05
1.01017e-05
1.01032e-05
1.01047e-05
1.0106e-05
1.01075e-05
1.01093e-05
1.0111e-05
1.01122e-05
1.01129e-05
1.01133e-05
1.01137e-05
1.01139e-05
1.0111e-05
1.00702e-05
1.00731e-05
1.01138e-05
1.01169e-05
1.01171e-05
1.01169e-05
1.01164e-05
1.01154e-05
1.0114e-05
1.01122e-05
1.01101e-05
1.01079e-05
1.01055e-05
1.01033e-05
1.01016e-05
1.01009e-05
1.01013e-05
1.01027e-05
1.01045e-05
1.01064e-05
1.01083e-05
1.01104e-05
1.01122e-05
1.01137e-05
1.01146e-05
1.01154e-05
1.01162e-05
1.01169e-05
1.01171e-05
1.01144e-05
1.00737e-05
1.00772e-05
1.01181e-05
1.01213e-05
1.01215e-05
1.01212e-05
1.01202e-05
1.01187e-05
1.01169e-05
1.01148e-05
1.01124e-05
1.01099e-05
1.01073e-05
1.01048e-05
1.01028e-05
1.01016e-05
1.0102e-05
1.01037e-05
1.01061e-05
1.01086e-05
1.01111e-05
1.01133e-05
1.01151e-05
1.01164e-05
1.01177e-05
1.0119e-05
1.01203e-05
1.0121e-05
1.01212e-05
1.01186e-05
1.00782e-05
1.0083e-05
1.01241e-05
1.01272e-05
1.0127e-05
1.01261e-05
1.01246e-05
1.01226e-05
1.01204e-05
1.01179e-05
1.01152e-05
1.01124e-05
1.01094e-05
1.01065e-05
1.0104e-05
1.01024e-05
1.01028e-05
1.01051e-05
1.0108e-05
1.01111e-05
1.01139e-05
1.01163e-05
1.01183e-05
1.01202e-05
1.01222e-05
1.01242e-05
1.01257e-05
1.01265e-05
1.0127e-05
1.01247e-05
1.00846e-05
1.00905e-05
1.01318e-05
1.01344e-05
1.01337e-05
1.01321e-05
1.01301e-05
1.01277e-05
1.01251e-05
1.01221e-05
1.0119e-05
1.01156e-05
1.01121e-05
1.01088e-05
1.01058e-05
1.01038e-05
1.01041e-05
1.01069e-05
1.01103e-05
1.01136e-05
1.01167e-05
1.01195e-05
1.01223e-05
1.01253e-05
1.01281e-05
1.01304e-05
1.01321e-05
1.01334e-05
1.01347e-05
1.01331e-05
1.00927e-05
1.01003e-05
1.01412e-05
1.01432e-05
1.01418e-05
1.01397e-05
1.01373e-05
1.01345e-05
1.01313e-05
1.01278e-05
1.01239e-05
1.01198e-05
1.01158e-05
1.0112e-05
1.01085e-05
1.0106e-05
1.01062e-05
1.01091e-05
1.01127e-05
1.01165e-05
1.01202e-05
1.01241e-05
1.01278e-05
1.01314e-05
1.01347e-05
1.01373e-05
1.01395e-05
1.01417e-05
1.01438e-05
1.01425e-05
1.01012e-05
1.01122e-05
1.0152e-05
1.01536e-05
1.01518e-05
1.01493e-05
1.01464e-05
1.0143e-05
1.01391e-05
1.01348e-05
1.01301e-05
1.01255e-05
1.01209e-05
1.01165e-05
1.01123e-05
1.0109e-05
1.01088e-05
1.01118e-05
1.0116e-05
1.01207e-05
1.01256e-05
1.01304e-05
1.01349e-05
1.0139e-05
1.01425e-05
1.01456e-05
1.01488e-05
1.01518e-05
1.0154e-05
1.0152e-05
1.0111e-05
1.01259e-05
1.01646e-05
1.01659e-05
1.01637e-05
1.01608e-05
1.01573e-05
1.01532e-05
1.01484e-05
1.01433e-05
1.0138e-05
1.01327e-05
1.01275e-05
1.01221e-05
1.01168e-05
1.01125e-05
1.01121e-05
1.01155e-05
1.01208e-05
1.01268e-05
1.01329e-05
1.01387e-05
1.0144e-05
1.01485e-05
1.01528e-05
1.01568e-05
1.01609e-05
1.01643e-05
1.01656e-05
1.01634e-05
1.0124e-05
1.01415e-05
1.01794e-05
1.01805e-05
1.01779e-05
1.01745e-05
1.01704e-05
1.01655e-05
1.01599e-05
1.01541e-05
1.01481e-05
1.01419e-05
1.01355e-05
1.01287e-05
1.0122e-05
1.01169e-05
1.01165e-05
1.01209e-05
1.01275e-05
1.01349e-05
1.01422e-05
1.01489e-05
1.0155e-05
1.01605e-05
1.01659e-05
1.0171e-05
1.01758e-05
1.01791e-05
1.01799e-05
1.01787e-05
1.01404e-05
1.01598e-05
1.0197e-05
1.01979e-05
1.01949e-05
1.0191e-05
1.01862e-05
1.01805e-05
1.01743e-05
1.01676e-05
1.01605e-05
1.0153e-05
1.01449e-05
1.01364e-05
1.01285e-05
1.01228e-05
1.01226e-05
1.01281e-05
1.01361e-05
1.01448e-05
1.01532e-05
1.01609e-05
1.01683e-05
1.01753e-05
1.01819e-05
1.01877e-05
1.01928e-05
1.01963e-05
1.01983e-05
1.01982e-05
1.016e-05
1.01817e-05
1.02186e-05
1.02192e-05
1.02159e-05
1.02114e-05
1.02057e-05
1.01992e-05
1.0192e-05
1.01841e-05
1.01756e-05
1.01664e-05
1.01564e-05
1.01463e-05
1.01371e-05
1.01307e-05
1.01308e-05
1.01374e-05
1.01467e-05
1.01567e-05
1.01666e-05
1.01758e-05
1.01849e-05
1.01931e-05
1.02008e-05
1.02072e-05
1.02124e-05
1.02171e-05
1.02211e-05
1.0221e-05
1.01831e-05
1.02085e-05
1.02453e-05
1.02456e-05
1.02417e-05
1.02364e-05
1.02298e-05
1.02221e-05
1.02136e-05
1.02044e-05
1.01941e-05
1.01829e-05
1.01709e-05
1.0159e-05
1.01483e-05
1.01409e-05
1.01412e-05
1.01489e-05
1.01596e-05
1.01712e-05
1.01831e-05
1.01943e-05
1.02049e-05
1.02143e-05
1.02231e-05
1.02304e-05
1.02363e-05
1.02428e-05
1.02481e-05
1.02478e-05
1.02108e-05
1.02413e-05
1.02781e-05
1.02778e-05
1.02733e-05
1.02668e-05
1.02589e-05
1.02499e-05
1.02399e-05
1.0229e-05
1.02168e-05
1.02033e-05
1.01891e-05
1.01751e-05
1.01627e-05
1.01543e-05
1.01545e-05
1.01633e-05
1.01756e-05
1.0189e-05
1.02031e-05
1.02162e-05
1.02285e-05
1.02394e-05
1.02498e-05
1.02585e-05
1.02659e-05
1.02739e-05
1.02798e-05
1.02799e-05
1.02439e-05
1.02812e-05
1.03179e-05
1.03169e-05
1.03113e-05
1.03036e-05
1.02941e-05
1.02835e-05
1.02718e-05
1.02587e-05
1.02442e-05
1.02283e-05
1.02119e-05
1.01957e-05
1.01816e-05
1.01719e-05
1.01718e-05
1.01816e-05
1.01958e-05
1.02113e-05
1.02275e-05
1.02427e-05
1.02574e-05
1.02702e-05
1.02824e-05
1.0293e-05
1.03025e-05
1.03114e-05
1.03175e-05
1.03183e-05
1.0283e-05
1.03295e-05
1.03655e-05
1.03636e-05
1.03567e-05
1.03475e-05
1.03364e-05
1.03239e-05
1.031e-05
1.02945e-05
1.02775e-05
1.02593e-05
1.02405e-05
1.0222e-05
1.02057e-05
1.01946e-05
1.01945e-05
1.02056e-05
1.02221e-05
1.024e-05
1.02587e-05
1.02762e-05
1.02938e-05
1.03087e-05
1.03227e-05
1.03358e-05
1.03471e-05
1.03564e-05
1.03628e-05
1.03643e-05
1.03301e-05
1.03873e-05
1.04219e-05
1.04187e-05
1.04106e-05
1.04e-05
1.03875e-05
1.03731e-05
1.03569e-05
1.03389e-05
1.03194e-05
1.02985e-05
1.02769e-05
1.02556e-05
1.02368e-05
1.02243e-05
1.02244e-05
1.02374e-05
1.02562e-05
1.02768e-05
1.02984e-05
1.03188e-05
1.03392e-05
1.03565e-05
1.03729e-05
1.03884e-05
1.04008e-05
1.04104e-05
1.04174e-05
1.04199e-05
1.03872e-05
1.04564e-05
1.04891e-05
1.04848e-05
1.04758e-05
1.04644e-05
1.04505e-05
1.04341e-05
1.04154e-05
1.03947e-05
1.03723e-05
1.03482e-05
1.03235e-05
1.02993e-05
1.02781e-05
1.02641e-05
1.02642e-05
1.0279e-05
1.03002e-05
1.03234e-05
1.03488e-05
1.03724e-05
1.03954e-05
1.04153e-05
1.04344e-05
1.04516e-05
1.0465e-05
1.04756e-05
1.04842e-05
1.04884e-05
1.04569e-05
1.05391e-05
1.05703e-05
1.05658e-05
1.05563e-05
1.05434e-05
1.05273e-05
1.05084e-05
1.0487e-05
1.04636e-05
1.04383e-05
1.0411e-05
1.03832e-05
1.03563e-05
1.03325e-05
1.03166e-05
1.0316e-05
1.03322e-05
1.03563e-05
1.03829e-05
1.04119e-05
1.04386e-05
1.0464e-05
1.0487e-05
1.05086e-05
1.05274e-05
1.05424e-05
1.05555e-05
1.0566e-05
1.05715e-05
1.05411e-05
1.06385e-05
1.06695e-05
1.0664e-05
1.06528e-05
1.06374e-05
1.06188e-05
1.05976e-05
1.05739e-05
1.05477e-05
1.05194e-05
1.0489e-05
1.04581e-05
1.04281e-05
1.04012e-05
1.03834e-05
1.03826e-05
1.04005e-05
1.04278e-05
1.0458e-05
1.04898e-05
1.05192e-05
1.05475e-05
1.05739e-05
1.05979e-05
1.0619e-05
1.06363e-05
1.06517e-05
1.06636e-05
1.06699e-05
1.06403e-05
1.07584e-05
1.07883e-05
1.07801e-05
1.07667e-05
1.07499e-05
1.07298e-05
1.07066e-05
1.06803e-05
1.06511e-05
1.06197e-05
1.05863e-05
1.0552e-05
1.05191e-05
1.04892e-05
1.04695e-05
1.04692e-05
1.04892e-05
1.0519e-05
1.05523e-05
1.05866e-05
1.06191e-05
1.06508e-05
1.06803e-05
1.07065e-05
1.07303e-05
1.07499e-05
1.07668e-05
1.07803e-05
1.07876e-05
1.07579e-05
1.09009e-05
1.0929e-05
1.09192e-05
1.09054e-05
1.08878e-05
1.08659e-05
1.084e-05
1.08114e-05
1.07799e-05
1.07459e-05
1.07098e-05
1.06726e-05
1.06369e-05
1.06043e-05
1.05822e-05
1.05816e-05
1.06037e-05
1.06362e-05
1.06723e-05
1.07092e-05
1.07452e-05
1.07795e-05
1.08113e-05
1.08397e-05
1.08657e-05
1.08879e-05
1.0906e-05
1.09201e-05
1.09295e-05
1.08994e-05
1.10714e-05
1.11005e-05
1.10896e-05
1.10747e-05
1.10548e-05
1.10307e-05
1.10028e-05
1.09724e-05
1.09391e-05
1.09027e-05
1.08645e-05
1.08255e-05
1.07879e-05
1.07522e-05
1.07277e-05
1.07284e-05
1.07523e-05
1.07868e-05
1.08254e-05
1.08645e-05
1.09028e-05
1.09385e-05
1.09716e-05
1.10031e-05
1.10302e-05
1.10544e-05
1.10742e-05
1.10892e-05
1.11014e-05
1.10713e-05
1.12795e-05
1.13108e-05
1.12961e-05
1.12784e-05
1.12565e-05
1.12307e-05
1.1201e-05
1.1169e-05
1.11346e-05
1.10978e-05
1.10602e-05
1.10195e-05
1.09805e-05
1.09443e-05
1.09182e-05
1.09189e-05
1.09446e-05
1.09804e-05
1.10199e-05
1.10599e-05
1.10984e-05
1.11349e-05
1.11692e-05
1.12025e-05
1.12304e-05
1.1256e-05
1.12782e-05
1.1297e-05
1.13111e-05
1.12776e-05
1.15356e-05
1.15693e-05
1.15502e-05
1.15294e-05
1.15045e-05
1.14774e-05
1.14472e-05
1.14145e-05
1.13805e-05
1.13453e-05
1.13103e-05
1.12711e-05
1.12334e-05
1.12004e-05
1.11749e-05
1.11747e-05
1.11995e-05
1.12347e-05
1.12716e-05
1.13093e-05
1.13459e-05
1.13807e-05
1.14146e-05
1.14468e-05
1.14764e-05
1.15051e-05
1.15304e-05
1.15518e-05
1.15685e-05
1.15307e-05
1.18556e-05
1.19013e-05
1.18763e-05
1.18507e-05
1.18217e-05
1.17919e-05
1.17599e-05
1.17278e-05
1.17015e-05
1.16748e-05
1.16546e-05
1.16416e-05
1.16317e-05
1.16274e-05
1.16298e-05
1.16319e-05
1.16287e-05
1.16312e-05
1.16402e-05
1.16568e-05
1.1676e-05
1.17005e-05
1.17299e-05
1.17587e-05
1.1789e-05
1.18232e-05
1.18524e-05
1.18753e-05
1.18999e-05
1.18526e-05
1.22992e-05
1.23932e-05
1.23605e-05
1.23438e-05
1.23113e-05
1.22608e-05
1.22356e-05
1.22281e-05
1.22423e-05
1.22905e-05
1.24328e-05
1.26483e-05
1.29458e-05
1.33041e-05
1.36405e-05
1.36435e-05
1.33051e-05
1.29466e-05
1.26505e-05
1.24344e-05
1.22918e-05
1.2244e-05
1.22279e-05
1.22356e-05
1.22615e-05
1.23097e-05
1.23438e-05
1.23628e-05
1.23938e-05
1.22958e-05
1.32365e-05
1.35029e-05
1.35682e-05
1.37673e-05
1.3677e-05
1.35224e-05
1.36496e-05
1.38278e-05
1.41875e-05
1.48911e-05
1.65431e-05
1.89701e-05
2.2151e-05
2.59214e-05
2.93984e-05
2.94166e-05
2.5926e-05
2.21577e-05
1.89928e-05
1.65608e-05
1.49005e-05
1.41972e-05
1.38315e-05
1.36521e-05
1.35267e-05
1.36706e-05
1.37661e-05
1.35735e-05
1.35038e-05
1.32343e-05
1.66183e-05
1.69382e-05
1.84463e-05
2.197e-05
1.99689e-05
1.93515e-05
2.39476e-05
2.3998e-05
2.656e-05
3.33372e-05
4.78072e-05
6.73425e-05
9.38739e-05
0.000123837
0.000149861
0.000149899
0.000123846
9.3907e-05
6.7568e-05
4.79391e-05
3.3466e-05
2.66346e-05
2.4028e-05
2.403e-05
1.93852e-05
1.99226e-05
2.19632e-05
1.84721e-05
1.69373e-05
1.66021e-05
3.07774e-05
2.74418e-05
3.97085e-05
7.61968e-05
5.48242e-05
5.17389e-05
0.0001441
0.000117843
0.000133082
0.000287915
0.000316879
0.000393572
0.000590605
0.000718189
0.000806565
0.000803053
0.000716492
0.000584811
0.00040159
0.00031815
0.000289824
0.000133769
0.00011818
0.000145368
5.20937e-05
5.45846e-05
7.62625e-05
3.98661e-05
2.74522e-05
3.06506e-05
7.44966e-05
6.71296e-05
0.000116746
0.000264034
0.000212325
0.000317454
0.000800167
0.000648415
0.000762133
0.00178654
0.00160108
0.00190444
0.00276767
0.00272923
0.00306297
0.00303368
0.00271762
0.00272587
0.00196559
0.00161491
0.00179677
0.000764751
0.000649494
0.000805776
0.000317641
0.000210913
0.000264879
0.000117212
6.73286e-05
7.38393e-05
0.000186723
0.000204548
0.000336384
0.000627626
0.000758846
0.00148007
0.00219167
0.0021609
0.00294188
0.00458229
0.00394531
0.00546091
0.00833327
0.00766213
0.00835221
0.00817923
0.00768706
0.00837478
0.00577999
0.00400243
0.00462451
0.00294862
0.00216954
0.00220495
0.00149399
0.00075863
0.000631134
0.000337377
0.000205834
0.000185113
0.000366229
0.000383086
0.000507911
0.000929357
0.00126473
0.00222244
0.00351401
0.00403307
0.00562727
0.00721652
0.00808212
0.00820007
0.00888383
0.0111345
0.00936755
0.00924295
0.0111404
0.00896027
0.00804207
0.00788499
0.00720039
0.00565723
0.00408088
0.00355734
0.00225921
0.00127371
0.000942025
0.000513203
0.000384315
0.000360705
0.000482712
0.000489952
0.000724054
0.00117979
0.00172985
0.00209162
0.00331352
0.00461095
0.00440089
0.00583121
0.00733671
0.00775034
0.00746885
0.00783166
0.00863145
0.00901874
0.00826428
0.00754553
0.00782904
0.00735613
0.00589947
0.0044357
0.00463827
0.00334086
0.00209986
0.00173168
0.00120351
0.000733107
0.000481242
0.000475931
0.000307777
0.000339049
0.00059984
0.00108201
0.00154819
0.00191088
0.00254297
0.00316288
0.00320009
0.00484743
0.00585642
0.00521922
0.00595031
0.00597243
0.00624612
0.00633867
0.00603357
0.00592002
0.0052286
0.00591754
0.004854
0.00319315
0.00318067
0.00255819
0.00192163
0.0015575
0.00109065
0.000599271
0.000338737
0.000306865
0.00027594
0.000308689
0.000466993
0.000774433
0.0011174
0.00145912
0.0019103
0.0022227
0.00227239
0.00292435
0.00353133
0.00335793
0.00367427
0.00410276
0.00428147
0.0042896
0.00415313
0.0036895
0.00337872
0.00355762
0.00294354
0.00227985
0.00223296
0.00192315
0.00146994
0.00113188
0.000782099
0.000470837
0.000310723
0.000275518
0.000218743
0.000225204
0.000278537
0.000388344
0.000538319
0.000758818
0.00112084
0.00143662
0.0017086
0.00214066
0.00250382
0.00264628
0.00286241
0.00305126
0.00313218
0.00313609
0.00306887
0.00287113
0.00265907
0.0025143
0.00214482
0.00171592
0.00144479
0.001126
0.00076448
0.000543077
0.000392618
0.00027978
0.000226992
0.000219513
0.000172743
0.000170576
0.000181701
0.000206954
0.000244918
0.000310573
0.000451324
0.000658344
0.000951469
0.00140211
0.00189543
0.00232021
0.00262351
0.00277704
0.0028322
0.00283717
0.00279322
0.00262726
0.0023255
0.00190682
0.0014106
0.000955391
0.000664782
0.000457861
0.000313882
0.000248374
0.000209352
0.000182711
0.000171144
0.000173027
0.000136877
0.000131882
0.000132786
0.000139478
0.000149104
0.000165169
0.000197624
0.000259301
0.000376159
0.000624868
0.00105674
0.00162327
0.00215635
0.00250462
0.00268545
0.00268992
0.00251502
0.00215927
0.00162774
0.00106297
0.000629906
0.000378406
0.000260492
0.00019926
0.000166389
0.000150296
0.000140502
0.000134312
0.000132967
0.000137398
0.000112071
0.000106471
0.000106932
0.000107945
0.000110521
0.000115029
0.000123797
0.000137916
0.000165448
0.000234004
0.000400342
0.000739853
0.00123636
0.00173845
0.00208571
0.00208574
0.00174342
0.0012408
0.000740914
0.000401347
0.000235117
0.000166202
0.000138169
0.000123987
0.00011557
0.000110833
0.000108294
0.0001065
0.000107135
0.000112331
9.38353e-05
9.02208e-05
8.97634e-05
9.03293e-05
9.15392e-05
9.33481e-05
9.57451e-05
9.99445e-05
0.00010686
0.000121266
0.000156427
0.000247802
0.000438822
0.000734705
0.00102931
0.00102732
0.000735038
0.00044066
0.000247895
0.000157017
0.000121833
0.000107108
0.000100109
9.57779e-05
9.30226e-05
9.15851e-05
9.03471e-05
9.00406e-05
9.05101e-05
9.41336e-05
8.10643e-05
7.78933e-05
7.69351e-05
7.77635e-05
7.80911e-05
7.89143e-05
8.063e-05
8.22246e-05
8.44369e-05
8.78946e-05
9.43929e-05
0.000110316
0.000146543
0.000215062
0.000302355
0.00030194
0.000215008
0.000147283
0.000110508
9.49614e-05
8.81978e-05
8.45566e-05
8.23702e-05
8.07993e-05
7.93307e-05
7.85881e-05
7.76506e-05
7.72683e-05
7.79213e-05
8.08996e-05
7.01297e-05
6.72665e-05
6.68208e-05
6.69797e-05
6.78531e-05
6.84486e-05
6.95895e-05
7.02726e-05
7.11939e-05
7.21039e-05
7.33962e-05
7.59761e-05
8.10483e-05
9.0278e-05
0.000103095
0.000103382
9.07504e-05
8.11817e-05
7.57899e-05
7.35728e-05
7.22414e-05
7.11436e-05
7.02577e-05
6.9397e-05
6.86197e-05
6.78e-05
6.72264e-05
6.69697e-05
6.77357e-05
7.07461e-05
6.15892e-05
5.84074e-05
5.82171e-05
5.85473e-05
5.88522e-05
5.92667e-05
5.9836e-05
5.99058e-05
6.02245e-05
6.04311e-05
6.05406e-05
6.06123e-05
6.08496e-05
6.16749e-05
6.29978e-05
6.29325e-05
6.18245e-05
6.09074e-05
6.06902e-05
6.06843e-05
6.05325e-05
6.04426e-05
6.03061e-05
5.9709e-05
5.90677e-05
5.854e-05
5.84523e-05
5.83797e-05
5.90714e-05
6.19575e-05
5.39106e-05
5.11137e-05
5.08298e-05
5.09132e-05
5.10457e-05
5.12463e-05
5.1245e-05
5.12048e-05
5.12092e-05
5.09349e-05
5.04544e-05
4.9967e-05
4.95013e-05
4.91038e-05
4.88781e-05
4.88016e-05
4.91571e-05
4.95388e-05
5.01204e-05
5.068e-05
5.11277e-05
5.14854e-05
5.15121e-05
5.13217e-05
5.11084e-05
5.09972e-05
5.10285e-05
5.094e-05
5.15556e-05
5.42991e-05
4.71926e-05
4.48321e-05
4.44083e-05
4.4371e-05
4.44462e-05
4.44936e-05
4.43339e-05
4.4179e-05
4.37636e-05
4.31242e-05
4.24608e-05
4.18049e-05
4.1096e-05
4.04197e-05
3.99482e-05
3.99841e-05
4.05081e-05
4.11243e-05
4.18104e-05
4.25185e-05
4.32365e-05
4.39202e-05
4.42496e-05
4.44018e-05
4.44963e-05
4.4563e-05
4.46012e-05
4.45354e-05
4.50404e-05
4.74949e-05
4.15201e-05
3.92437e-05
3.88357e-05
3.88103e-05
3.88225e-05
3.87049e-05
3.84922e-05
3.80934e-05
3.74713e-05
3.67712e-05
3.6018e-05
3.52203e-05
3.4385e-05
3.36926e-05
3.32546e-05
3.33193e-05
3.37618e-05
3.43992e-05
3.52274e-05
3.61128e-05
3.69594e-05
3.76769e-05
3.81642e-05
3.85209e-05
3.87872e-05
3.89294e-05
3.8924e-05
3.892e-05
3.93692e-05
4.15451e-05
3.64046e-05
3.45e-05
3.41304e-05
3.40715e-05
3.39197e-05
3.37437e-05
3.34565e-05
3.29023e-05
3.22272e-05
3.1484e-05
3.06991e-05
2.98903e-05
2.90954e-05
2.84477e-05
2.80368e-05
2.80666e-05
2.84632e-05
2.90947e-05
2.99253e-05
3.08214e-05
3.16993e-05
3.24696e-05
3.30622e-05
3.35002e-05
3.37901e-05
3.39578e-05
3.40249e-05
3.41255e-05
3.45584e-05
3.64986e-05
3.22182e-05
3.04367e-05
3.01513e-05
3.00573e-05
2.98888e-05
2.97022e-05
2.92483e-05
2.86385e-05
2.80048e-05
2.72932e-05
2.65106e-05
2.57026e-05
2.49337e-05
2.43109e-05
2.39208e-05
2.39273e-05
2.42955e-05
2.49157e-05
2.57248e-05
2.65959e-05
2.74555e-05
2.82133e-05
2.88043e-05
2.92457e-05
2.95835e-05
2.98271e-05
2.99899e-05
3.01502e-05
3.05422e-05
3.22591e-05
2.84601e-05
2.70104e-05
2.68359e-05
2.66886e-05
2.65086e-05
2.62025e-05
2.57165e-05
2.52312e-05
2.46878e-05
2.40076e-05
2.32367e-05
2.24445e-05
2.17185e-05
2.11449e-05
2.07922e-05
2.07866e-05
2.11179e-05
2.1691e-05
2.24341e-05
2.32293e-05
2.40107e-05
2.47212e-05
2.53105e-05
2.57723e-05
2.61408e-05
2.64329e-05
2.66525e-05
2.68308e-05
2.71666e-05
2.86405e-05
2.53593e-05
2.42968e-05
2.40448e-05
2.38252e-05
2.35786e-05
2.322e-05
2.28371e-05
2.24299e-05
2.18992e-05
2.12415e-05
2.0525e-05
1.9802e-05
1.91414e-05
1.86039e-05
1.826e-05
1.82302e-05
1.85328e-05
1.90794e-05
1.97817e-05
2.05295e-05
2.1254e-05
2.19096e-05
2.24648e-05
2.29182e-05
2.33016e-05
2.36196e-05
2.38611e-05
2.40371e-05
2.43253e-05
2.55545e-05
2.29169e-05
2.1976e-05
2.16455e-05
2.14097e-05
2.11489e-05
2.08608e-05
2.05386e-05
2.01198e-05
1.96028e-05
1.90123e-05
1.83866e-05
1.77434e-05
1.71356e-05
1.66292e-05
1.63067e-05
1.62867e-05
1.65845e-05
1.71049e-05
1.77487e-05
1.84153e-05
1.90505e-05
1.96364e-05
2.01591e-05
2.06079e-05
2.09822e-05
2.12801e-05
2.15035e-05
2.167e-05
2.19189e-05
2.29293e-05
2.07313e-05
1.98948e-05
1.9615e-05
1.94313e-05
1.92424e-05
1.90077e-05
1.86647e-05
1.82514e-05
1.77974e-05
1.72851e-05
1.67262e-05
1.61403e-05
1.55869e-05
1.51345e-05
1.48572e-05
1.4854e-05
1.51282e-05
1.55898e-05
1.61503e-05
1.6732e-05
1.72947e-05
1.78253e-05
1.83067e-05
1.87211e-05
1.90577e-05
1.93219e-05
1.95237e-05
1.9676e-05
1.98868e-05
2.07152e-05
1.89043e-05
1.81609e-05
1.79752e-05
1.78522e-05
1.76913e-05
1.74423e-05
1.71179e-05
1.67789e-05
1.63912e-05
1.59265e-05
1.54064e-05
1.48715e-05
1.43817e-05
1.39915e-05
1.37584e-05
1.3766e-05
1.40121e-05
1.44128e-05
1.48935e-05
1.53971e-05
1.58957e-05
1.6373e-05
1.68074e-05
1.71787e-05
1.74765e-05
1.77073e-05
1.78831e-05
1.80171e-05
1.81938e-05
1.88713e-05
1.73156e-05
1.67106e-05
1.65939e-05
1.6491e-05
1.63353e-05
1.61176e-05
1.58777e-05
1.56018e-05
1.52447e-05
1.48167e-05
1.43531e-05
1.38958e-05
1.34841e-05
1.31499e-05
1.29414e-05
1.2941e-05
1.31496e-05
1.34927e-05
1.3908e-05
1.43497e-05
1.47935e-05
1.52181e-05
1.56004e-05
1.59209e-05
1.61754e-05
1.63729e-05
1.65258e-05
1.6645e-05
1.67932e-05
1.73379e-05
1.59532e-05
1.55469e-05
1.54382e-05
1.53385e-05
1.52192e-05
1.50664e-05
1.48773e-05
1.46119e-05
1.42774e-05
1.39039e-05
1.35186e-05
1.31461e-05
1.27972e-05
1.24933e-05
1.22941e-05
1.22861e-05
1.24719e-05
1.2779e-05
1.31452e-05
1.35297e-05
1.39112e-05
1.42717e-05
1.45946e-05
1.48672e-05
1.50881e-05
1.52635e-05
1.54001e-05
1.5505e-05
1.56269e-05
1.60584e-05
1.49514e-05
1.46283e-05
1.45071e-05
1.44352e-05
1.43423e-05
1.42104e-05
1.40216e-05
1.37688e-05
1.34836e-05
1.318e-05
1.2871e-05
1.25619e-05
1.22517e-05
1.19699e-05
1.17891e-05
1.17873e-05
1.19572e-05
1.22279e-05
1.25415e-05
1.28658e-05
1.31848e-05
1.34878e-05
1.37614e-05
1.39977e-05
1.41947e-05
1.43523e-05
1.4472e-05
1.45604e-05
1.46586e-05
1.49976e-05
1.41223e-05
1.38167e-05
1.37474e-05
1.36958e-05
1.35952e-05
1.34639e-05
1.32899e-05
1.30855e-05
1.28631e-05
1.26216e-05
1.23664e-05
1.20946e-05
1.18129e-05
1.15633e-05
1.14118e-05
1.14148e-05
1.15608e-05
1.17885e-05
1.20536e-05
1.23317e-05
1.26076e-05
1.28687e-05
1.3105e-05
1.33109e-05
1.34826e-05
1.3617e-05
1.37148e-05
1.37841e-05
1.38603e-05
1.41229e-05
1.3351e-05
1.31631e-05
1.31412e-05
1.30683e-05
1.29694e-05
1.28599e-05
1.2723e-05
1.25641e-05
1.23791e-05
1.21718e-05
1.19468e-05
1.17022e-05
1.14572e-05
1.12546e-05
1.11349e-05
1.1134e-05
1.12491e-05
1.14398e-05
1.1671e-05
1.19193e-05
1.21654e-05
1.23942e-05
1.25971e-05
1.27691e-05
1.29077e-05
1.30127e-05
1.30876e-05
1.31413e-05
1.32014e-05
1.34041e-05
1.27847e-05
1.27228e-05
1.26552e-05
1.25663e-05
1.24929e-05
1.24075e-05
1.22947e-05
1.21534e-05
1.19857e-05
1.18041e-05
1.16091e-05
1.14022e-05
1.12068e-05
1.10484e-05
1.09484e-05
1.09381e-05
1.10257e-05
1.11856e-05
1.13881e-05
1.16059e-05
1.18179e-05
1.20101e-05
1.21752e-05
1.23109e-05
1.24184e-05
1.25017e-05
1.25649e-05
1.26138e-05
1.26663e-05
1.28218e-05
1.24082e-05
1.23185e-05
1.22127e-05
1.21566e-05
1.21092e-05
1.2035e-05
1.19336e-05
1.18068e-05
1.16668e-05
1.15208e-05
1.13627e-05
1.11976e-05
1.10425e-05
1.09096e-05
1.08169e-05
1.07998e-05
1.08704e-05
1.1004e-05
1.1172e-05
1.13488e-05
1.15179e-05
1.16708e-05
1.18049e-05
1.1919e-05
1.20138e-05
1.20902e-05
1.21508e-05
1.21981e-05
1.22418e-05
1.23531e-05
1.20246e-05
1.18714e-05
1.18315e-05
1.18203e-05
1.17825e-05
1.17129e-05
1.16222e-05
1.152e-05
1.14153e-05
1.1301e-05
1.11698e-05
1.10314e-05
1.08988e-05
1.07808e-05
1.06967e-05
1.06831e-05
1.07465e-05
1.0858e-05
1.09919e-05
1.11295e-05
1.1263e-05
1.13909e-05
1.15113e-05
1.16183e-05
1.17077e-05
1.1778e-05
1.18315e-05
1.1869e-05
1.18954e-05
1.19642e-05
1.16253e-05
1.15476e-05
1.15775e-05
1.15708e-05
1.15258e-05
1.1457e-05
1.13787e-05
1.13016e-05
1.12212e-05
1.1122e-05
1.1004e-05
1.08814e-05
1.07652e-05
1.06635e-05
1.05944e-05
1.05904e-05
1.06519e-05
1.07467e-05
1.08544e-05
1.09656e-05
1.10784e-05
1.11921e-05
1.13001e-05
1.1394e-05
1.1469e-05
1.15256e-05
1.15638e-05
1.15845e-05
1.15936e-05
1.16307e-05
1.13519e-05