/*--------------------------------*- C++ -*----------------------------------*\
| =========                 |                                                 |
| \\      /  F ield         | OpenFOAM: The Open Source CFD Toolbox           |
|  \\    /   O peration     | Version:  2312                                  |
|   \\  /    A nd           | Website:  www.openfoam.com                      |
|    \\/     M anipulation  |                                                 |
\*---------------------------------------------------------------------------*/
FoamFile
{
    version     2.0;
    format      ascii;
    arch        "LSB;label=32;scalar=64";
    class       volScalarField;
    location    "0.941998";
    object      k;
}
// * * * * * * * * * * * * * * * * * * * * * * * * * * * * * * * * * * * * * //

dimensions      [0 2 -2 0 0 0 0];

internalField   nonuniform List<scalar> 
90000
(
2.47599e-05
2.47634e-05
2.47644e-05
2.47648e-05
2.4765e-05
2.47649e-05
2.47644e-05
2.47638e-05
2.47633e-05
2.47629e-05
2.47626e-05
2.47626e-05
2.47626e-05
2.47627e-05
2.47628e-05
2.47632e-05
2.47639e-05
2.47647e-05
2.47653e-05
2.47652e-05
2.47645e-05
2.47633e-05
2.47632e-05
2.47648e-05
2.47664e-05
2.47673e-05
2.4767e-05
2.47659e-05
2.47653e-05
2.47663e-05
2.47634e-05
2.48321e-05
2.48367e-05
2.48365e-05
2.48361e-05
2.48357e-05
2.48355e-05
2.48353e-05
2.4835e-05
2.48347e-05
2.48345e-05
2.48346e-05
2.48348e-05
2.48351e-05
2.48354e-05
2.48357e-05
2.48359e-05
2.48359e-05
2.48357e-05
2.48354e-05
2.48355e-05
2.48358e-05
2.4836e-05
2.48358e-05
2.4835e-05
2.48338e-05
2.48343e-05
2.4836e-05
2.48325e-05
2.47747e-05
2.47645e-05
2.48372e-05
2.4842e-05
2.48418e-05
2.48413e-05
2.4841e-05
2.48408e-05
2.48408e-05
2.48408e-05
2.48407e-05
2.48404e-05
2.48406e-05
2.48409e-05
2.48414e-05
2.48416e-05
2.48415e-05
2.48411e-05
2.48408e-05
2.48412e-05
2.4842e-05
2.48426e-05
2.48429e-05
2.4843e-05
2.48431e-05
2.48435e-05
2.48441e-05
2.48446e-05
2.48452e-05
2.48421e-05
2.47727e-05
2.47648e-05
2.48372e-05
2.48424e-05
2.48425e-05
2.48424e-05
2.48421e-05
2.48418e-05
2.48416e-05
2.48416e-05
2.48415e-05
2.48413e-05
2.48414e-05
2.48416e-05
2.48418e-05
2.48419e-05
2.48416e-05
2.48415e-05
2.48422e-05
2.4843e-05
2.48434e-05
2.48435e-05
2.48436e-05
2.48443e-05
2.48456e-05
2.48469e-05
2.48475e-05
2.48476e-05
2.48469e-05
2.48423e-05
2.47683e-05
2.47646e-05
2.48367e-05
2.48425e-05
2.4843e-05
2.48431e-05
2.4843e-05
2.48426e-05
2.48422e-05
2.4842e-05
2.48418e-05
2.48417e-05
2.48417e-05
2.48416e-05
2.48414e-05
2.48413e-05
2.48417e-05
2.48423e-05
2.48429e-05
2.48431e-05
2.48431e-05
2.48429e-05
2.48435e-05
2.48448e-05
2.48462e-05
2.48471e-05
2.48472e-05
2.48465e-05
2.48445e-05
2.48405e-05
2.47673e-05
2.47643e-05
2.48371e-05
2.48429e-05
2.48434e-05
2.48436e-05
2.48436e-05
2.48434e-05
2.48431e-05
2.48426e-05
2.48421e-05
2.48419e-05
2.4842e-05
2.48423e-05
2.48424e-05
2.48423e-05
2.48423e-05
2.48423e-05
2.48423e-05
2.48421e-05
2.4842e-05
2.48424e-05
2.48433e-05
2.48441e-05
2.48447e-05
2.48448e-05
2.48448e-05
2.48454e-05
2.48465e-05
2.48435e-05
2.47684e-05
2.47644e-05
2.48384e-05
2.48435e-05
2.48438e-05
2.4844e-05
2.48442e-05
2.48443e-05
2.48441e-05
2.48436e-05
2.48427e-05
2.48421e-05
2.48422e-05
2.48427e-05
2.48431e-05
2.48429e-05
2.48423e-05
2.48415e-05
2.48409e-05
2.4841e-05
2.48417e-05
2.48425e-05
2.4843e-05
2.48429e-05
2.48425e-05
2.48429e-05
2.48448e-05
2.48472e-05
2.48488e-05
2.48448e-05
2.47686e-05
2.4765e-05
2.48399e-05
2.48444e-05
2.48445e-05
2.48446e-05
2.4845e-05
2.48452e-05
2.48452e-05
2.48448e-05
2.4844e-05
2.48431e-05
2.48427e-05
2.48428e-05
2.4843e-05
2.48428e-05
2.4842e-05
2.48411e-05
2.48404e-05
2.4841e-05
2.4842e-05
2.48426e-05
2.48426e-05
2.48422e-05
2.48424e-05
2.4844e-05
2.4846e-05
2.48481e-05
2.48489e-05
2.48437e-05
2.47681e-05
2.47658e-05
2.48412e-05
2.48454e-05
2.48452e-05
2.48452e-05
2.48454e-05
2.48458e-05
2.48459e-05
2.48458e-05
2.48453e-05
2.48445e-05
2.48435e-05
2.48427e-05
2.48423e-05
2.48422e-05
2.48423e-05
2.48424e-05
2.48427e-05
2.4843e-05
2.48434e-05
2.48435e-05
2.48432e-05
2.48429e-05
2.48436e-05
2.4845e-05
2.48467e-05
2.48479e-05
2.48479e-05
2.48422e-05
2.47678e-05
2.47672e-05
2.48417e-05
2.48456e-05
2.48453e-05
2.48449e-05
2.48449e-05
2.48451e-05
2.48455e-05
2.48459e-05
2.4846e-05
2.48455e-05
2.48445e-05
2.4843e-05
2.48417e-05
2.48418e-05
2.4843e-05
2.48444e-05
2.48455e-05
2.48461e-05
2.48462e-05
2.48458e-05
2.48449e-05
2.48443e-05
2.48443e-05
2.48451e-05
2.48462e-05
2.48469e-05
2.48466e-05
2.48411e-05
2.4768e-05
2.47686e-05
2.48413e-05
2.48451e-05
2.48448e-05
2.48442e-05
2.48437e-05
2.48435e-05
2.4844e-05
2.48449e-05
2.48456e-05
2.48457e-05
2.48451e-05
2.48439e-05
2.48424e-05
2.48418e-05
2.48435e-05
2.48456e-05
2.48474e-05
2.48485e-05
2.48487e-05
2.48479e-05
2.48466e-05
2.48453e-05
2.48445e-05
2.48448e-05
2.48455e-05
2.48461e-05
2.48462e-05
2.48411e-05
2.47688e-05
2.4769e-05
2.48412e-05
2.48454e-05
2.48453e-05
2.48451e-05
2.48448e-05
2.48445e-05
2.48443e-05
2.48444e-05
2.48447e-05
2.48451e-05
2.4845e-05
2.48445e-05
2.48434e-05
2.48422e-05
2.48434e-05
2.48458e-05
2.48479e-05
2.48489e-05
2.48489e-05
2.48479e-05
2.48466e-05
2.48454e-05
2.48446e-05
2.48447e-05
2.48454e-05
2.48461e-05
2.48464e-05
2.48418e-05
2.47694e-05
2.47693e-05
2.4842e-05
2.48467e-05
2.48472e-05
2.4848e-05
2.48486e-05
2.48488e-05
2.48484e-05
2.48473e-05
2.48456e-05
2.48447e-05
2.4845e-05
2.48453e-05
2.48452e-05
2.48449e-05
2.48451e-05
2.48459e-05
2.48464e-05
2.48465e-05
2.48462e-05
2.48458e-05
2.48454e-05
2.48451e-05
2.4845e-05
2.48452e-05
2.48456e-05
2.48462e-05
2.48466e-05
2.4842e-05
2.47696e-05
2.47722e-05
2.48427e-05
2.48484e-05
2.48497e-05
2.48512e-05
2.48524e-05
2.48527e-05
2.48518e-05
2.48497e-05
2.48469e-05
2.48446e-05
2.48446e-05
2.48457e-05
2.48467e-05
2.48472e-05
2.48471e-05
2.48463e-05
2.48446e-05
2.4843e-05
2.48428e-05
2.48438e-05
2.48449e-05
2.48457e-05
2.4846e-05
2.4846e-05
2.48461e-05
2.48465e-05
2.48469e-05
2.48419e-05
2.47701e-05
2.47762e-05
2.48432e-05
2.48505e-05
2.48524e-05
2.48539e-05
2.48545e-05
2.48539e-05
2.48521e-05
2.48495e-05
2.48468e-05
2.48443e-05
2.48439e-05
2.48454e-05
2.48472e-05
2.48482e-05
2.4848e-05
2.48467e-05
2.48447e-05
2.48429e-05
2.48428e-05
2.48443e-05
2.48459e-05
2.48471e-05
2.48475e-05
2.48473e-05
2.48473e-05
2.48477e-05
2.48479e-05
2.48431e-05
2.47721e-05
2.47787e-05
2.48473e-05
2.48536e-05
2.48546e-05
2.48547e-05
2.48537e-05
2.4852e-05
2.48501e-05
2.48484e-05
2.48469e-05
2.4845e-05
2.4844e-05
2.48454e-05
2.48472e-05
2.48482e-05
2.48481e-05
2.48473e-05
2.48461e-05
2.48451e-05
2.48449e-05
2.4846e-05
2.48475e-05
2.48487e-05
2.48492e-05
2.48493e-05
2.48496e-05
2.48503e-05
2.4851e-05
2.48473e-05
2.47754e-05
2.47792e-05
2.48531e-05
2.48567e-05
2.48559e-05
2.48541e-05
2.4852e-05
2.48503e-05
2.48495e-05
2.48492e-05
2.48483e-05
2.48467e-05
2.48454e-05
2.4846e-05
2.48471e-05
2.48477e-05
2.48477e-05
2.48476e-05
2.48472e-05
2.48469e-05
2.48469e-05
2.48478e-05
2.4849e-05
2.485e-05
2.48508e-05
2.48515e-05
2.48525e-05
2.48537e-05
2.48547e-05
2.48504e-05
2.47773e-05
2.47796e-05
2.4857e-05
2.48592e-05
2.48577e-05
2.48559e-05
2.48541e-05
2.48528e-05
2.4852e-05
2.48512e-05
2.48499e-05
2.48482e-05
2.48468e-05
2.48465e-05
2.48465e-05
2.48465e-05
2.48467e-05
2.48473e-05
2.48478e-05
2.48482e-05
2.48487e-05
2.48495e-05
2.48504e-05
2.48514e-05
2.48526e-05
2.48541e-05
2.48557e-05
2.48568e-05
2.48572e-05
2.48516e-05
2.47787e-05
2.47825e-05
2.48591e-05
2.4862e-05
2.48609e-05
2.48595e-05
2.48582e-05
2.4857e-05
2.48556e-05
2.48536e-05
2.48514e-05
2.48494e-05
2.48476e-05
2.48463e-05
2.48453e-05
2.48447e-05
2.48452e-05
2.48464e-05
2.48479e-05
2.48491e-05
2.48501e-05
2.48509e-05
2.48519e-05
2.48534e-05
2.48556e-05
2.48578e-05
2.48592e-05
2.48597e-05
2.48592e-05
2.48533e-05
2.47812e-05
2.47868e-05
2.48607e-05
2.48648e-05
2.48641e-05
2.48632e-05
2.48622e-05
2.4861e-05
2.48592e-05
2.48568e-05
2.48541e-05
2.48514e-05
2.48489e-05
2.48465e-05
2.48445e-05
2.48434e-05
2.48441e-05
2.48462e-05
2.48484e-05
2.48502e-05
2.48516e-05
2.48529e-05
2.48548e-05
2.48575e-05
2.48602e-05
2.48621e-05
2.48628e-05
2.48627e-05
2.48624e-05
2.4857e-05
2.47856e-05
2.47915e-05
2.48632e-05
2.4868e-05
2.48677e-05
2.48672e-05
2.48665e-05
2.48652e-05
2.48631e-05
2.48605e-05
2.48574e-05
2.48541e-05
2.48508e-05
2.48477e-05
2.48453e-05
2.48443e-05
2.48453e-05
2.48476e-05
2.485e-05
2.48522e-05
2.48544e-05
2.48568e-05
2.48598e-05
2.48628e-05
2.48649e-05
2.48658e-05
2.48662e-05
2.48666e-05
2.48668e-05
2.48619e-05
2.47911e-05
2.47966e-05
2.48672e-05
2.48726e-05
2.48728e-05
2.48725e-05
2.48716e-05
2.48699e-05
2.48674e-05
2.48643e-05
2.48608e-05
2.4857e-05
2.48533e-05
2.485e-05
2.48475e-05
2.48464e-05
2.48472e-05
2.48494e-05
2.48521e-05
2.48552e-05
2.48584e-05
2.48619e-05
2.48651e-05
2.48675e-05
2.48687e-05
2.48696e-05
2.48708e-05
2.48718e-05
2.48722e-05
2.48676e-05
2.4797e-05
2.48033e-05
2.48738e-05
2.48795e-05
2.48798e-05
2.48792e-05
2.48776e-05
2.48751e-05
2.4872e-05
2.48684e-05
2.48645e-05
2.48605e-05
2.48565e-05
2.48528e-05
2.48495e-05
2.48476e-05
2.48481e-05
2.48508e-05
2.48546e-05
2.48588e-05
2.48631e-05
2.4867e-05
2.48699e-05
2.48718e-05
2.48735e-05
2.48754e-05
2.48774e-05
2.48787e-05
2.48791e-05
2.48746e-05
2.48043e-05
2.48124e-05
2.48833e-05
2.48889e-05
2.48887e-05
2.48872e-05
2.48846e-05
2.48813e-05
2.48775e-05
2.48735e-05
2.48692e-05
2.48648e-05
2.48601e-05
2.48556e-05
2.48513e-05
2.48486e-05
2.48491e-05
2.48528e-05
2.48577e-05
2.4863e-05
2.48678e-05
2.48716e-05
2.48747e-05
2.48776e-05
2.48807e-05
2.48839e-05
2.48864e-05
2.48878e-05
2.48886e-05
2.48844e-05
2.48146e-05
2.48244e-05
2.48958e-05
2.49006e-05
2.48994e-05
2.48968e-05
2.48933e-05
2.48894e-05
2.48851e-05
2.48804e-05
2.48754e-05
2.48701e-05
2.48645e-05
2.48591e-05
2.48541e-05
2.48508e-05
2.48513e-05
2.48558e-05
2.48615e-05
2.48671e-05
2.48721e-05
2.48766e-05
2.48811e-05
2.48856e-05
2.48901e-05
2.48941e-05
2.48969e-05
2.4899e-05
2.49009e-05
2.48978e-05
2.48278e-05
2.48401e-05
2.49112e-05
2.49149e-05
2.49126e-05
2.4909e-05
2.49049e-05
2.49004e-05
2.48953e-05
2.48897e-05
2.48836e-05
2.48771e-05
2.48705e-05
2.48642e-05
2.48585e-05
2.48544e-05
2.48547e-05
2.48594e-05
2.48655e-05
2.48716e-05
2.48777e-05
2.48839e-05
2.48899e-05
2.48956e-05
2.49009e-05
2.49051e-05
2.49088e-05
2.49122e-05
2.49157e-05
2.49135e-05
2.48416e-05
2.48597e-05
2.4929e-05
2.49319e-05
2.49286e-05
2.49244e-05
2.49197e-05
2.49143e-05
2.4908e-05
2.49012e-05
2.48939e-05
2.48862e-05
2.48787e-05
2.48714e-05
2.48647e-05
2.48592e-05
2.48588e-05
2.48636e-05
2.48705e-05
2.48782e-05
2.48863e-05
2.48941e-05
2.49013e-05
2.49078e-05
2.49136e-05
2.49185e-05
2.49237e-05
2.49288e-05
2.49326e-05
2.4929e-05
2.48575e-05
2.48822e-05
2.49493e-05
2.49518e-05
2.4948e-05
2.49431e-05
2.49376e-05
2.4931e-05
2.49234e-05
2.49153e-05
2.49067e-05
2.4898e-05
2.48893e-05
2.48807e-05
2.4872e-05
2.48649e-05
2.4864e-05
2.48696e-05
2.48782e-05
2.48881e-05
2.48981e-05
2.49076e-05
2.4916e-05
2.49232e-05
2.493e-05
2.49365e-05
2.49434e-05
2.49492e-05
2.49514e-05
2.49473e-05
2.48787e-05
2.49076e-05
2.49732e-05
2.49752e-05
2.49709e-05
2.49654e-05
2.49588e-05
2.4951e-05
2.49423e-05
2.49329e-05
2.4923e-05
2.49128e-05
2.49024e-05
2.48913e-05
2.48804e-05
2.4872e-05
2.48712e-05
2.48785e-05
2.48893e-05
2.49015e-05
2.49134e-05
2.49242e-05
2.4934e-05
2.49428e-05
2.49515e-05
2.49597e-05
2.49676e-05
2.49732e-05
2.49744e-05
2.4972e-05
2.49058e-05
2.49371e-05
2.50017e-05
2.50035e-05
2.49987e-05
2.49924e-05
2.49847e-05
2.49757e-05
2.49657e-05
2.49548e-05
2.49432e-05
2.49308e-05
2.49177e-05
2.4904e-05
2.4891e-05
2.48815e-05
2.48813e-05
2.48903e-05
2.49034e-05
2.49177e-05
2.49313e-05
2.49436e-05
2.49558e-05
2.49671e-05
2.49778e-05
2.49871e-05
2.49952e-05
2.5001e-05
2.50042e-05
2.50039e-05
2.49377e-05
2.49726e-05
2.50368e-05
2.50381e-05
2.50327e-05
2.50254e-05
2.50165e-05
2.50061e-05
2.49945e-05
2.49817e-05
2.49677e-05
2.49525e-05
2.49363e-05
2.49199e-05
2.49048e-05
2.48943e-05
2.48945e-05
2.49053e-05
2.49204e-05
2.49368e-05
2.49529e-05
2.49677e-05
2.49828e-05
2.49964e-05
2.50086e-05
2.50188e-05
2.5027e-05
2.50347e-05
2.50414e-05
2.50411e-05
2.49751e-05
2.50161e-05
2.508e-05
2.50808e-05
2.50745e-05
2.5066e-05
2.50554e-05
2.50432e-05
2.50296e-05
2.50145e-05
2.49977e-05
2.49794e-05
2.49599e-05
2.49404e-05
2.49229e-05
2.49109e-05
2.49113e-05
2.4924e-05
2.49413e-05
2.49601e-05
2.49796e-05
2.49978e-05
2.50155e-05
2.50308e-05
2.50448e-05
2.50563e-05
2.50658e-05
2.50764e-05
2.50853e-05
2.50842e-05
2.50199e-05
2.50693e-05
2.5133e-05
2.51329e-05
2.51255e-05
2.51153e-05
2.51027e-05
2.50883e-05
2.50723e-05
2.50545e-05
2.50346e-05
2.50127e-05
2.49896e-05
2.49667e-05
2.49466e-05
2.49328e-05
2.49332e-05
2.49476e-05
2.49673e-05
2.4989e-05
2.50122e-05
2.50336e-05
2.50539e-05
2.50713e-05
2.50878e-05
2.51019e-05
2.51141e-05
2.51269e-05
2.51362e-05
2.51359e-05
2.50734e-05
2.51342e-05
2.51972e-05
2.51959e-05
2.51871e-05
2.51748e-05
2.51598e-05
2.51428e-05
2.5124e-05
2.51029e-05
2.50794e-05
2.50536e-05
2.50268e-05
2.50005e-05
2.49775e-05
2.49618e-05
2.49616e-05
2.49775e-05
2.50004e-05
2.50254e-05
2.50522e-05
2.50768e-05
2.51005e-05
2.51212e-05
2.51408e-05
2.5158e-05
2.51733e-05
2.51873e-05
2.5197e-05
2.51978e-05
2.5137e-05
2.52125e-05
2.5274e-05
2.52713e-05
2.52605e-05
2.52458e-05
2.52282e-05
2.52083e-05
2.5186e-05
2.51612e-05
2.51337e-05
2.51041e-05
2.50734e-05
2.50434e-05
2.5017e-05
2.4999e-05
2.49986e-05
2.50166e-05
2.50432e-05
2.50723e-05
2.51029e-05
2.51311e-05
2.51593e-05
2.51837e-05
2.52063e-05
2.52272e-05
2.52453e-05
2.52599e-05
2.52702e-05
2.5272e-05
2.52132e-05
2.53061e-05
2.5365e-05
2.53605e-05
2.53475e-05
2.53307e-05
2.53107e-05
2.52879e-05
2.52619e-05
2.52331e-05
2.52014e-05
2.51675e-05
2.51325e-05
2.5098e-05
2.50678e-05
2.50475e-05
2.50474e-05
2.50684e-05
2.5099e-05
2.51321e-05
2.51672e-05
2.51999e-05
2.5233e-05
2.52611e-05
2.52873e-05
2.53118e-05
2.53318e-05
2.53471e-05
2.53583e-05
2.53616e-05
2.53057e-05
2.54177e-05
2.54731e-05
2.5467e-05
2.54527e-05
2.54345e-05
2.54124e-05
2.53863e-05
2.53564e-05
2.53233e-05
2.52872e-05
2.52484e-05
2.52086e-05
2.51696e-05
2.51354e-05
2.51126e-05
2.51124e-05
2.51365e-05
2.51709e-05
2.52081e-05
2.5249e-05
2.52869e-05
2.53241e-05
2.53561e-05
2.53863e-05
2.54137e-05
2.54354e-05
2.54524e-05
2.54657e-05
2.54717e-05
2.54183e-05
2.55512e-05
2.56035e-05
2.5597e-05
2.55819e-05
2.55615e-05
2.55362e-05
2.55062e-05
2.54721e-05
2.54347e-05
2.53942e-05
2.53505e-05
2.5306e-05
2.52625e-05
2.52242e-05
2.51985e-05
2.51973e-05
2.52237e-05
2.52626e-05
2.53049e-05
2.53517e-05
2.53945e-05
2.54351e-05
2.54716e-05
2.55061e-05
2.55362e-05
2.55602e-05
2.55808e-05
2.5597e-05
2.56052e-05
2.5554e-05
2.57111e-05
2.5762e-05
2.5754e-05
2.57365e-05
2.57126e-05
2.56833e-05
2.56498e-05
2.56121e-05
2.55706e-05
2.55256e-05
2.5477e-05
2.54277e-05
2.53794e-05
2.53364e-05
2.53081e-05
2.53064e-05
2.53353e-05
2.53792e-05
2.5427e-05
2.54783e-05
2.55253e-05
2.557e-05
2.56117e-05
2.56501e-05
2.56836e-05
2.57106e-05
2.57348e-05
2.57538e-05
2.57626e-05
2.57134e-05
2.59029e-05
2.59511e-05
2.59395e-05
2.59188e-05
2.58926e-05
2.58611e-05
2.58246e-05
2.57833e-05
2.57373e-05
2.56878e-05
2.56344e-05
2.55807e-05
2.55279e-05
2.548e-05
2.5449e-05
2.54479e-05
2.54798e-05
2.55277e-05
2.55805e-05
2.56352e-05
2.56867e-05
2.57365e-05
2.57832e-05
2.58246e-05
2.58619e-05
2.58924e-05
2.5919e-05
2.59401e-05
2.59502e-05
2.59019e-05
2.61302e-05
2.61748e-05
2.61611e-05
2.61399e-05
2.61126e-05
2.60784e-05
2.60382e-05
2.59938e-05
2.59444e-05
2.58916e-05
2.58344e-05
2.57762e-05
2.572e-05
2.56672e-05
2.56326e-05
2.56318e-05
2.56664e-05
2.57186e-05
2.57755e-05
2.58334e-05
2.589e-05
2.59438e-05
2.59937e-05
2.60378e-05
2.60782e-05
2.6113e-05
2.61407e-05
2.61622e-05
2.61756e-05
2.6128e-05
2.64012e-05
2.64463e-05
2.64311e-05
2.64082e-05
2.63778e-05
2.63408e-05
2.62981e-05
2.62519e-05
2.61999e-05
2.61442e-05
2.60847e-05
2.60231e-05
2.59649e-05
2.59081e-05
2.58691e-05
2.5871e-05
2.59083e-05
2.59625e-05
2.6023e-05
2.60842e-05
2.61438e-05
2.6199e-05
2.62502e-05
2.62987e-05
2.63403e-05
2.63777e-05
2.64074e-05
2.64297e-05
2.64473e-05
2.64013e-05
2.67299e-05
2.67769e-05
2.67559e-05
2.67293e-05
2.66969e-05
2.66587e-05
2.66137e-05
2.65657e-05
2.65131e-05
2.64567e-05
2.64e-05
2.63366e-05
2.62754e-05
2.62195e-05
2.61784e-05
2.61801e-05
2.62201e-05
2.62754e-05
2.63363e-05
2.63989e-05
2.64579e-05
2.65132e-05
2.65653e-05
2.66163e-05
2.66583e-05
2.66959e-05
2.67292e-05
2.67576e-05
2.67778e-05
2.67268e-05
2.71311e-05
2.71812e-05
2.71531e-05
2.71236e-05
2.70874e-05
2.70477e-05
2.7003e-05
2.69551e-05
2.69051e-05
2.68523e-05
2.67999e-05
2.67408e-05
2.66819e-05
2.66325e-05
2.65943e-05
2.65927e-05
2.66302e-05
2.66854e-05
2.67416e-05
2.6798e-05
2.68528e-05
2.69054e-05
2.69559e-05
2.70025e-05
2.70462e-05
2.7088e-05
2.71252e-05
2.71558e-05
2.71802e-05
2.71244e-05
2.76289e-05
2.76979e-05
2.76605e-05
2.76241e-05
2.75826e-05
2.75411e-05
2.74957e-05
2.74504e-05
2.74141e-05
2.73765e-05
2.73472e-05
2.73306e-05
2.73195e-05
2.73142e-05
2.73188e-05
2.73226e-05
2.73167e-05
2.73175e-05
2.73284e-05
2.73514e-05
2.73781e-05
2.74125e-05
2.74543e-05
2.74936e-05
2.75366e-05
2.75863e-05
2.76268e-05
2.76579e-05
2.76944e-05
2.76271e-05
2.83169e-05
2.84567e-05
2.84075e-05
2.83873e-05
2.83464e-05
2.82743e-05
2.82395e-05
2.82383e-05
2.82658e-05
2.83408e-05
2.85656e-05
2.88957e-05
2.93483e-05
2.98898e-05
3.03907e-05
3.03954e-05
2.98918e-05
2.93494e-05
2.88988e-05
2.85674e-05
2.8343e-05
2.82685e-05
2.8237e-05
2.82402e-05
2.8276e-05
2.83432e-05
2.83867e-05
2.84123e-05
2.84567e-05
2.83128e-05
2.97417e-05
3.01456e-05
3.02589e-05
3.05511e-05
3.04192e-05
3.01953e-05
3.03961e-05
3.06713e-05
3.11965e-05
3.22086e-05
3.45365e-05
3.78122e-05
4.191e-05
4.65242e-05
5.05632e-05
5.05849e-05
4.65294e-05
4.19188e-05
3.78412e-05
3.45616e-05
3.22224e-05
3.12103e-05
3.06765e-05
3.04003e-05
3.02022e-05
3.04091e-05
3.05492e-05
3.02675e-05
3.01471e-05
2.9739e-05
3.46022e-05
3.51944e-05
3.75037e-05
4.20339e-05
3.92201e-05
3.83607e-05
4.43236e-05
4.44741e-05
4.7287e-05
5.53634e-05
6.9861e-05
8.75713e-05
0.000109378
0.00013138
0.000149016
0.000149034
0.000131366
0.000109388
8.77753e-05
6.99962e-05
5.5507e-05
4.7376e-05
4.45134e-05
4.44263e-05
3.84046e-05
3.91665e-05
4.20278e-05
3.75416e-05
3.51949e-05
3.45785e-05
5.20297e-05
5.28904e-05
6.50428e-05
9.42833e-05
7.6512e-05
7.4066e-05
0.000145662
0.000128574
0.000137329
0.000229801
0.000246799
0.000286543
0.000375664
0.000426872
0.00046277
0.000461303
0.000426139
0.000373581
0.000289795
0.000247672
0.000230798
0.000137829
0.000128825
0.000146612
7.4383e-05
7.63305e-05
9.43376e-05
6.52069e-05
5.28448e-05
5.19047e-05
0.000102004
0.000144734
0.000138975
0.000231357
0.00026265
0.000282827
0.000456002
0.00043817
0.000435551
0.000762995
0.000782387
0.000807171
0.00103239
0.00102588
0.00110195
0.00109538
0.00102554
0.00102387
0.000820349
0.000771191
0.000764583
0.000435611
0.000440723
0.000458146
0.00028435
0.000263507
0.000231861
0.000139179
0.000144406
0.000101772
0.000243038
0.000340933
0.000283196
0.000561874
0.000716211
0.000793957
0.00106853
0.00126203
0.00126406
0.00178704
0.00187933
0.0017225
0.00217654
0.00220229
0.0021715
0.00213834
0.0021924
0.00217619
0.00174126
0.00180973
0.00178774
0.00126672
0.00127565
0.00107716
0.000806761
0.000722039
0.000564291
0.00028367
0.000340884
0.000245396
0.000332767
0.000456
0.000411941
0.00060418
0.00105036
0.00119844
0.00126195
0.00193772
0.00208021
0.00201974
0.0028407
0.00227443
0.00242738
0.00270419
0.00265431
0.0026343
0.0026998
0.00240722
0.00224847
0.00275218
0.0020261
0.00209211
0.00195729
0.00127665
0.00123952
0.00106359
0.000605354
0.000413555
0.000455889
0.000334458
0.00034496
0.000461218
0.000478435
0.000634503
0.000932459
0.000955413
0.00124987
0.00170807
0.00149189
0.00185879
0.00226687
0.00207497
0.00206328
0.00212417
0.00227771
0.00231715
0.00218704
0.00206859
0.00207094
0.00225232
0.00187382
0.00149874
0.00171502
0.00125441
0.000957197
0.000934095
0.00063964
0.000483729
0.000462137
0.000344633
0.000285472
0.000283199
0.000400932
0.000584982
0.000731581
0.000832104
0.00101794
0.00116246
0.00119374
0.00154064
0.00170761
0.00159002
0.00171123
0.00172122
0.00179769
0.00180978
0.001745
0.00170485
0.00157724
0.00171101
0.00154188
0.00118794
0.00116752
0.00102261
0.000835562
0.000737319
0.000589736
0.000402481
0.000283186
0.000283317
0.000239897
0.000257729
0.00034322
0.000474
0.000584816
0.000679826
0.000820918
0.000901154
0.000930279
0.00111793
0.00125403
0.00120335
0.00125481
0.00134706
0.00138588
0.00139178
0.00136313
0.00126092
0.0012017
0.0012525
0.00112434
0.000931577
0.000905433
0.000824436
0.000683294
0.000590125
0.000477021
0.000345125
0.000259883
0.000239715
0.000201125
0.000208181
0.000244404
0.00030684
0.000362589
0.000438071
0.000575089
0.000670196
0.000753129
0.000882478
0.000981187
0.0010049
0.00104577
0.00109322
0.00111272
0.00111421
0.00110005
0.00104787
0.0010063
0.000981505
0.000883414
0.000755143
0.000673165
0.000575963
0.000441073
0.000364581
0.000308777
0.000245837
0.000209696
0.000201986
0.000168306
0.000169329
0.000179126
0.000197307
0.000215554
0.000242855
0.000311493
0.000397411
0.000509059
0.000664461
0.000807169
0.000912882
0.000983546
0.00101866
0.00103062
0.00103126
0.00102383
0.000984131
0.000914024
0.000810738
0.000665992
0.000510105
0.000400376
0.000314628
0.000244356
0.000218135
0.000198857
0.000179774
0.000170085
0.000168948
0.000142457
0.000140711
0.000141934
0.000146653
0.000152467
0.000161092
0.000179513
0.000212879
0.000273263
0.000386636
0.000551881
0.000726903
0.000868831
0.000954849
0.000996219
0.000997188
0.000957596
0.000870093
0.000728133
0.000553511
0.000388565
0.000274289
0.000213676
0.000180563
0.000162011
0.000153234
0.000147624
0.000143217
0.000141267
0.000143002
0.000123576
0.000120906
0.000120837
0.000121763
0.00012319
0.000126305
0.000132017
0.000141054
0.00015879
0.000200038
0.000287269
0.000435904
0.000610341
0.000759752
0.000850004
0.000850077
0.000760786
0.000611783
0.000436403
0.000287197
0.000200685
0.000159268
0.000141612
0.000132073
0.000126521
0.000123664
0.000122137
0.000120634
0.000121223
0.00012411
0.000109514
0.000107214
0.000106792
0.000107232
0.000107942
0.000109182
0.000110969
0.000114233
0.000119287
0.000129569
0.00015356
0.000208445
0.000308026
0.000436184
0.000542792
0.000542134
0.000436221
0.000308797
0.000208484
0.000153694
0.00013016
0.00011958
0.000114294
0.000111114
0.000109111
0.000107927
0.000107185
0.000107155
0.000107423
0.000109709
9.88062e-05
9.67545e-05
9.59809e-05
9.64969e-05
9.66332e-05
9.74338e-05
9.89003e-05
0.000100288
0.000102129
0.000104922
0.000110054
0.000122085
0.000147325
0.000189727
0.000239447
0.00023937
0.000189676
0.000147718
0.000122189
0.000110466
0.000105158
0.000102312
0.000100476
9.90721e-05
9.77835e-05
9.72409e-05
9.63428e-05
9.62491e-05
9.66735e-05
9.86992e-05
8.95219e-05
8.73674e-05
8.69828e-05
8.71661e-05
8.78033e-05
8.85134e-05
8.96495e-05
9.03052e-05
9.11894e-05
9.21098e-05
9.33287e-05
9.54427e-05
9.96099e-05
0.000106874
0.000116475
0.00011673
0.000107218
9.97424e-05
9.52218e-05
9.34792e-05
9.22816e-05
9.12273e-05
9.03553e-05
8.95093e-05
8.86507e-05
8.79121e-05
8.73371e-05
8.70924e-05
8.77539e-05
9.00069e-05
8.22715e-05
7.92846e-05
7.92209e-05
7.95239e-05
7.98973e-05
8.04452e-05
8.10702e-05
8.12431e-05
8.1704e-05
8.20421e-05
8.21931e-05
8.22383e-05
8.24999e-05
8.3271e-05
8.44228e-05
8.4335e-05
8.33377e-05
8.26221e-05
8.23512e-05
8.23257e-05
8.21072e-05
8.18942e-05
8.16535e-05
8.10023e-05
8.02856e-05
7.96537e-05
7.94717e-05
7.92865e-05
7.99194e-05
8.25984e-05
7.54402e-05
7.25662e-05
7.23163e-05
7.24856e-05
7.27555e-05
7.30488e-05
7.31641e-05
7.32639e-05
7.34089e-05
7.32324e-05
7.28117e-05
7.24214e-05
7.20534e-05
7.16673e-05
7.14191e-05
7.13164e-05
7.16846e-05
7.2093e-05
7.25883e-05
7.30553e-05
7.33995e-05
7.36454e-05
7.35976e-05
7.32836e-05
7.29375e-05
7.26775e-05
7.26073e-05
7.24011e-05
7.29367e-05
7.58366e-05
6.92834e-05
6.65991e-05
6.61562e-05
6.62528e-05
6.64283e-05
6.65606e-05
6.65056e-05
6.64383e-05
6.61116e-05
6.55467e-05
6.49522e-05
6.43854e-05
6.37037e-05
6.29771e-05
6.24871e-05
6.25267e-05
6.30982e-05
6.37138e-05
6.43393e-05
6.50048e-05
6.56717e-05
6.62763e-05
6.6526e-05
6.65729e-05
6.65542e-05
6.65178e-05
6.64627e-05
6.63088e-05
6.67785e-05
6.95024e-05
6.36898e-05
6.10035e-05
6.06591e-05
6.0712e-05
6.07685e-05
6.07255e-05
6.05631e-05
6.02022e-05
5.96311e-05
5.89771e-05
5.82412e-05
5.74373e-05
5.65428e-05
5.57748e-05
5.53272e-05
5.54145e-05
5.59041e-05
5.65584e-05
5.73867e-05
5.83081e-05
5.91772e-05
5.98705e-05
6.02989e-05
6.05838e-05
6.07749e-05
6.08592e-05
6.07885e-05
6.07227e-05
6.11729e-05
6.36788e-05
5.83874e-05
5.61592e-05
5.57785e-05
5.571e-05
5.56036e-05
5.54681e-05
5.51836e-05
5.46312e-05
5.39634e-05
5.32005e-05
5.23495e-05
5.14564e-05
5.05669e-05
4.98397e-05
4.93972e-05
4.9432e-05
4.98752e-05
5.05749e-05
5.14888e-05
5.24847e-05
5.34285e-05
5.42138e-05
5.47915e-05
5.52148e-05
5.54903e-05
5.56352e-05
5.56602e-05
5.57213e-05
5.6186e-05
5.8495e-05
5.38975e-05
5.17656e-05
5.1375e-05
5.12909e-05
5.11728e-05
5.09798e-05
5.04912e-05
4.98408e-05
4.91575e-05
4.83592e-05
4.74525e-05
4.65178e-05
4.5626e-05
4.48933e-05
4.44271e-05
4.44193e-05
4.48559e-05
4.5602e-05
4.65596e-05
4.75716e-05
4.85354e-05
4.93614e-05
4.99999e-05
5.04773e-05
5.084e-05
5.10852e-05
5.12287e-05
5.13744e-05
5.18205e-05
5.39236e-05
4.96826e-05
4.7795e-05
4.75691e-05
4.74588e-05
4.72721e-05
4.69244e-05
4.63756e-05
4.5819e-05
4.51885e-05
4.43833e-05
4.34549e-05
4.24971e-05
4.16055e-05
4.08828e-05
4.04306e-05
4.04185e-05
4.08456e-05
4.15732e-05
4.24872e-05
4.34415e-05
4.43616e-05
4.51949e-05
4.58897e-05
4.64302e-05
4.68496e-05
4.71651e-05
4.7389e-05
4.75728e-05
4.79762e-05
4.98423e-05
4.59846e-05
4.45676e-05
4.42853e-05
4.40505e-05
4.3748e-05
4.3328e-05
4.28627e-05
4.23627e-05
4.1718e-05
4.09094e-05
4.00084e-05
3.90854e-05
3.82233e-05
3.75074e-05
3.70505e-05
3.70172e-05
3.74253e-05
3.81384e-05
3.90311e-05
3.99716e-05
4.08824e-05
4.17089e-05
4.24038e-05
4.29551e-05
4.34041e-05
4.37659e-05
4.40377e-05
4.42404e-05
4.46065e-05
4.62174e-05
4.29843e-05
4.17522e-05
4.13332e-05
4.10242e-05
4.07051e-05
4.03486e-05
3.99354e-05
3.94074e-05
3.87554e-05
3.79929e-05
3.71638e-05
3.63016e-05
3.54786e-05
3.47882e-05
3.43529e-05
3.43338e-05
3.47419e-05
3.54385e-05
3.62911e-05
3.71739e-05
3.80151e-05
3.87844e-05
3.94557e-05
4.00145e-05
4.04706e-05
4.08329e-05
4.11082e-05
4.13172e-05
4.16453e-05
4.30082e-05
4.02546e-05
3.90824e-05
3.86933e-05
3.84535e-05
3.82281e-05
3.79257e-05
3.74836e-05
3.69461e-05
3.63409e-05
3.56423e-05
3.48702e-05
3.40604e-05
3.32945e-05
3.26654e-05
3.22789e-05
3.2274e-05
3.26526e-05
3.32889e-05
3.40629e-05
3.4868e-05
3.56407e-05
3.63559e-05
3.69899e-05
3.75267e-05
3.7961e-05
3.8305e-05
3.85694e-05
3.87665e-05
3.90474e-05
4.0192e-05
3.78315e-05
3.6761e-05
3.65018e-05
3.6365e-05
3.61636e-05
3.5835e-05
3.54015e-05
3.49308e-05
3.43855e-05
3.37344e-05
3.3004e-05
3.22502e-05
3.15544e-05
3.0991e-05
3.06458e-05
3.06461e-05
3.09933e-05
3.15673e-05
3.22585e-05
3.29794e-05
3.36818e-05
3.43408e-05
3.49319e-05
3.54357e-05
3.58415e-05
3.61565e-05
3.63925e-05
3.65654e-05
3.68018e-05
3.77622e-05
3.56605e-05
3.4798e-05
3.46443e-05
3.45207e-05
3.43037e-05
3.40012e-05
3.3658e-05
3.32552e-05
3.27453e-05
3.21415e-05
3.14803e-05
3.08182e-05
3.02132e-05
2.97126e-05
2.93927e-05
2.93835e-05
2.96913e-05
3.02014e-05
3.08141e-05
3.14562e-05
3.20906e-05
3.26905e-05
3.32298e-05
3.36843e-05
3.4046e-05
3.43231e-05
3.45304e-05
3.46855e-05
3.48885e-05
3.56826e-05
3.3791e-05
3.3186e-05
3.30378e-05
3.28896e-05
3.27137e-05
3.24944e-05
3.22173e-05
3.18327e-05
3.1354e-05
3.08146e-05
3.02446e-05
2.96829e-05
2.91525e-05
2.86883e-05
2.83824e-05
2.837e-05
2.86556e-05
2.91217e-05
2.96681e-05
3.02321e-05
3.07865e-05
3.131e-05
3.17816e-05
3.21815e-05
3.25036e-05
3.27539e-05
3.29426e-05
3.30841e-05
3.32578e-05
3.39027e-05
3.23594e-05
3.18588e-05
3.16784e-05
3.15681e-05
3.14409e-05
3.12565e-05
3.09843e-05
3.06155e-05
3.01926e-05
2.97333e-05
2.92583e-05
2.87804e-05
2.83028e-05
2.787e-05
2.75929e-05
2.75925e-05
2.78564e-05
2.82702e-05
2.87421e-05
2.92251e-05
2.96994e-05
3.01514e-05
3.05607e-05
3.09128e-05
3.1203e-05
3.1431e-05
3.16013e-05
3.17266e-05
3.18724e-05
3.23895e-05
3.11288e-05
3.06598e-05
3.05525e-05
3.04895e-05
3.03568e-05
3.01674e-05
2.99061e-05
2.95911e-05
2.92422e-05
2.8864e-05
2.84691e-05
2.8052e-05
2.76201e-05
2.72353e-05
2.69998e-05
2.7003e-05
2.7227e-05
2.75758e-05
2.79798e-05
2.84034e-05
2.88236e-05
2.92205e-05
2.95776e-05
2.98857e-05
3.01398e-05
3.03373e-05
3.04815e-05
3.05854e-05
3.07038e-05
3.11125e-05
2.99817e-05
2.9686e-05
2.9662e-05
2.957e-05
2.9423e-05
2.92479e-05
2.90291e-05
2.87755e-05
2.84828e-05
2.81611e-05
2.78168e-05
2.74418e-05
2.70609e-05
2.67401e-05
2.65467e-05
2.65397e-05
2.67156e-05
2.70111e-05
2.73711e-05
2.77581e-05
2.81405e-05
2.84929e-05
2.88016e-05
2.90603e-05
2.92671e-05
2.94245e-05
2.95389e-05
2.96235e-05
2.97203e-05
3.00416e-05
2.91265e-05
2.90204e-05
2.89329e-05
2.87984e-05
2.86704e-05
2.85255e-05
2.83487e-05
2.81337e-05
2.78795e-05
2.76022e-05
2.72994e-05
2.69716e-05
2.66548e-05
2.63945e-05
2.6229e-05
2.62085e-05
2.63455e-05
2.65991e-05
2.6921e-05
2.72663e-05
2.76002e-05
2.78995e-05
2.81532e-05
2.83592e-05
2.85215e-05
2.86478e-05
2.87456e-05
2.88231e-05
2.89079e-05
2.91572e-05
2.85385e-05
2.83992e-05
2.8241e-05
2.81409e-05
2.80529e-05
2.7937e-05
2.77899e-05
2.76049e-05
2.73935e-05
2.71637e-05
2.69073e-05
2.66355e-05
2.63793e-05
2.61624e-05
2.60137e-05
2.59872e-05
2.61006e-05
2.63144e-05
2.65825e-05
2.68638e-05
2.71313e-05
2.73712e-05
2.75791e-05
2.77541e-05
2.78985e-05
2.80154e-05
2.81088e-05
2.81827e-05
2.82528e-05
2.8433e-05
2.79354e-05
2.77032e-05
2.76327e-05
2.76042e-05
2.75451e-05
2.74471e-05
2.73161e-05
2.71592e-05
2.6989e-05
2.67977e-05
2.65791e-05
2.63528e-05
2.61416e-05
2.59582e-05
2.58297e-05
2.58109e-05
2.59105e-05
2.60845e-05
2.62936e-05
2.651e-05
2.67203e-05
2.69217e-05
2.71103e-05
2.72773e-05
2.74163e-05
2.75259e-05
2.76096e-05
2.76687e-05
2.77117e-05
2.78244e-05
2.73064e-05
2.71908e-05
2.72285e-05
2.72153e-05
2.71519e-05
2.70519e-05
2.69287e-05
2.67981e-05
2.66583e-05
2.64908e-05
2.62998e-05
2.61087e-05
2.59319e-05
2.57775e-05
2.56708e-05
2.56623e-05
2.57537e-05
2.58969e-05
2.60615e-05
2.62342e-05
2.64121e-05
2.65926e-05
2.67644e-05
2.6914e-05
2.70342e-05