/*--------------------------------*- C++ -*----------------------------------*\
| =========                 |                                                 |
| \\      /  F ield         | OpenFOAM: The Open Source CFD Toolbox           |
|  \\    /   O peration     | Version:  2312                                  |
|   \\  /    A nd           | Website:  www.openfoam.com                      |
|    \\/     M anipulation  |                                                 |
\*---------------------------------------------------------------------------*/
FoamFile
{
    version     2.0;
    format      ascii;
    arch        "LSB;label=32;scalar=64";
    class       volScalarField;
    location    "0.941998";
    object      nut;
}
// * * * * * * * * * * * * * * * * * * * * * * * * * * * * * * * * * * * * * //

dimensions      [0 2 -1 0 0 0 0];

internalField   nonuniform List<scalar> 
90000
(
5.4893e-06
5.48972e-06
5.48985e-06
5.48989e-06
5.48991e-06
5.48989e-06
5.48983e-06
5.48975e-06
5.48969e-06
5.48965e-06
5.48963e-06
5.48963e-06
5.48964e-06
5.48966e-06
5.48967e-06
5.48971e-06
5.48979e-06
5.48988e-06
5.48995e-06
5.48993e-06
5.48982e-06
5.48965e-06
5.48963e-06
5.48987e-06
5.49011e-06
5.49024e-06
5.49022e-06
5.49008e-06
5.49005e-06
5.49026e-06
5.48975e-06
5.49852e-06
5.49918e-06
5.49916e-06
5.49911e-06
5.49906e-06
5.49902e-06
5.49899e-06
5.49896e-06
5.49892e-06
5.49892e-06
5.49895e-06
5.49899e-06
5.49902e-06
5.49905e-06
5.49907e-06
5.49906e-06
5.49904e-06
5.49898e-06
5.49892e-06
5.49892e-06
5.49897e-06
5.49902e-06
5.49902e-06
5.49895e-06
5.49883e-06
5.49894e-06
5.49923e-06
5.49883e-06
5.49142e-06
5.48991e-06
5.4993e-06
5.49997e-06
5.49994e-06
5.49987e-06
5.49981e-06
5.49979e-06
5.49979e-06
5.49979e-06
5.49976e-06
5.49972e-06
5.49976e-06
5.49982e-06
5.49989e-06
5.49992e-06
5.49989e-06
5.49982e-06
5.49974e-06
5.49979e-06
5.4999e-06
5.5e-06
5.50005e-06
5.50009e-06
5.50012e-06
5.50019e-06
5.50029e-06
5.50036e-06
5.50046e-06
5.50022e-06
5.49117e-06
5.48996e-06
5.49936e-06
5.50007e-06
5.50008e-06
5.50004e-06
5.49998e-06
5.49994e-06
5.49991e-06
5.4999e-06
5.49988e-06
5.49984e-06
5.49985e-06
5.49989e-06
5.49993e-06
5.49994e-06
5.49991e-06
5.49989e-06
5.49998e-06
5.5001e-06
5.50019e-06
5.50022e-06
5.50025e-06
5.50036e-06
5.50055e-06
5.50072e-06
5.50081e-06
5.50085e-06
5.50074e-06
5.50019e-06
5.49057e-06
5.48996e-06
5.49936e-06
5.50013e-06
5.50017e-06
5.50017e-06
5.50012e-06
5.50006e-06
5.5e-06
5.49996e-06
5.49993e-06
5.49991e-06
5.49989e-06
5.49987e-06
5.49984e-06
5.49983e-06
5.49991e-06
5.50002e-06
5.50012e-06
5.50019e-06
5.50021e-06
5.50022e-06
5.50031e-06
5.50049e-06
5.50068e-06
5.50079e-06
5.50078e-06
5.50066e-06
5.50042e-06
5.49977e-06
5.49037e-06
5.48992e-06
5.49941e-06
5.50018e-06
5.50024e-06
5.50025e-06
5.50024e-06
5.50019e-06
5.50012e-06
5.50003e-06
5.49997e-06
5.49995e-06
5.49996e-06
5.49999e-06
5.5e-06
5.49999e-06
5.5e-06
5.50004e-06
5.50007e-06
5.50009e-06
5.50011e-06
5.50019e-06
5.50031e-06
5.50043e-06
5.50048e-06
5.50048e-06
5.50044e-06
5.50046e-06
5.50065e-06
5.50015e-06
5.49048e-06
5.48997e-06
5.49955e-06
5.50025e-06
5.50029e-06
5.50032e-06
5.50033e-06
5.50033e-06
5.50028e-06
5.50018e-06
5.50005e-06
5.49998e-06
5.50001e-06
5.50008e-06
5.50012e-06
5.50009e-06
5.50001e-06
5.49992e-06
5.49988e-06
5.49995e-06
5.50007e-06
5.50019e-06
5.50026e-06
5.50023e-06
5.50014e-06
5.50015e-06
5.5004e-06
5.50071e-06
5.50095e-06
5.50037e-06
5.4905e-06
5.49003e-06
5.49968e-06
5.50032e-06
5.50034e-06
5.50037e-06
5.50042e-06
5.50045e-06
5.50043e-06
5.50035e-06
5.50022e-06
5.50009e-06
5.50006e-06
5.50009e-06
5.50011e-06
5.50007e-06
5.49997e-06
5.49984e-06
5.49978e-06
5.49991e-06
5.50007e-06
5.50016e-06
5.50015e-06
5.50006e-06
5.50004e-06
5.50025e-06
5.50054e-06
5.50083e-06
5.50095e-06
5.50022e-06
5.49044e-06
5.49007e-06
5.49976e-06
5.50035e-06
5.50035e-06
5.50036e-06
5.50041e-06
5.50047e-06
5.5005e-06
5.50047e-06
5.5004e-06
5.50028e-06
5.50015e-06
5.50005e-06
5.5e-06
5.49999e-06
5.50001e-06
5.50003e-06
5.50008e-06
5.50014e-06
5.50019e-06
5.50019e-06
5.50013e-06
5.50007e-06
5.50015e-06
5.50036e-06
5.5006e-06
5.50079e-06
5.50081e-06
5.50001e-06
5.49038e-06
5.49021e-06
5.4997e-06
5.50026e-06
5.50024e-06
5.50023e-06
5.50025e-06
5.50031e-06
5.50039e-06
5.50045e-06
5.50047e-06
5.50042e-06
5.50028e-06
5.50008e-06
5.49991e-06
5.49994e-06
5.50013e-06
5.50032e-06
5.50046e-06
5.50053e-06
5.50052e-06
5.50043e-06
5.50029e-06
5.50018e-06
5.50018e-06
5.50032e-06
5.5005e-06
5.50062e-06
5.50059e-06
5.49983e-06
5.49037e-06
5.49035e-06
5.49955e-06
5.50009e-06
5.50008e-06
5.50004e-06
5.50001e-06
5.50003e-06
5.50014e-06
5.50029e-06
5.50041e-06
5.50044e-06
5.50037e-06
5.50021e-06
5.50001e-06
5.49997e-06
5.50021e-06
5.50049e-06
5.5007e-06
5.50082e-06
5.5008e-06
5.50066e-06
5.50045e-06
5.50026e-06
5.50016e-06
5.50022e-06
5.50036e-06
5.50047e-06
5.50048e-06
5.49978e-06
5.49041e-06
5.49036e-06
5.49953e-06
5.50014e-06
5.50016e-06
5.50015e-06
5.50014e-06
5.50014e-06
5.50016e-06
5.50021e-06
5.50029e-06
5.50036e-06
5.50038e-06
5.50033e-06
5.50018e-06
5.5e-06
5.5002e-06
5.50051e-06
5.50075e-06
5.50085e-06
5.50079e-06
5.50062e-06
5.50042e-06
5.50024e-06
5.50013e-06
5.50018e-06
5.50031e-06
5.50042e-06
5.50046e-06
5.49983e-06
5.49046e-06
5.49034e-06
5.49974e-06
5.5004e-06
5.50051e-06
5.50064e-06
5.50076e-06
5.50081e-06
5.50077e-06
5.50064e-06
5.50044e-06
5.50034e-06
5.50041e-06
5.50048e-06
5.50048e-06
5.50043e-06
5.50043e-06
5.5005e-06
5.50053e-06
5.50049e-06
5.5004e-06
5.50032e-06
5.50025e-06
5.50021e-06
5.50019e-06
5.50024e-06
5.50032e-06
5.5004e-06
5.50046e-06
5.49983e-06
5.4905e-06
5.49077e-06
5.49995e-06
5.50076e-06
5.50098e-06
5.50121e-06
5.50138e-06
5.50143e-06
5.50129e-06
5.50099e-06
5.50062e-06
5.50033e-06
5.50037e-06
5.50055e-06
5.5007e-06
5.50076e-06
5.50071e-06
5.50055e-06
5.50027e-06
5.50001e-06
5.49994e-06
5.50006e-06
5.50022e-06
5.50032e-06
5.50035e-06
5.50034e-06
5.50036e-06
5.50042e-06
5.50048e-06
5.49982e-06
5.49059e-06
5.49141e-06
5.50012e-06
5.50118e-06
5.50146e-06
5.50166e-06
5.50171e-06
5.50159e-06
5.50132e-06
5.50094e-06
5.50057e-06
5.50025e-06
5.50025e-06
5.5005e-06
5.50075e-06
5.50087e-06
5.50082e-06
5.50061e-06
5.5003e-06
5.50004e-06
5.5e-06
5.50018e-06
5.50041e-06
5.50055e-06
5.50057e-06
5.50049e-06
5.50048e-06
5.50055e-06
5.50062e-06
5.5e-06
5.49088e-06
5.49177e-06
5.50083e-06
5.50166e-06
5.50177e-06
5.50174e-06
5.50156e-06
5.50126e-06
5.50096e-06
5.50071e-06
5.50051e-06
5.50029e-06
5.50022e-06
5.50045e-06
5.5007e-06
5.50083e-06
5.50082e-06
5.5007e-06
5.50054e-06
5.50041e-06
5.50037e-06
5.50046e-06
5.50063e-06
5.50075e-06
5.50076e-06
5.50071e-06
5.50074e-06
5.50086e-06
5.50102e-06
5.50056e-06
5.49125e-06
5.49175e-06
5.50157e-06
5.50201e-06
5.50186e-06
5.50156e-06
5.5012e-06
5.5009e-06
5.50075e-06
5.50074e-06
5.50066e-06
5.50049e-06
5.50039e-06
5.5005e-06
5.50067e-06
5.50075e-06
5.50077e-06
5.50077e-06
5.50074e-06
5.50069e-06
5.50067e-06
5.50071e-06
5.50076e-06
5.50083e-06
5.50087e-06
5.50094e-06
5.50109e-06
5.50129e-06
5.50148e-06
5.50089e-06
5.49137e-06
5.49169e-06
5.50196e-06
5.50222e-06
5.50198e-06
5.50166e-06
5.50136e-06
5.50113e-06
5.50102e-06
5.50097e-06
5.50085e-06
5.50069e-06
5.50056e-06
5.50054e-06
5.50055e-06
5.50057e-06
5.50064e-06
5.50074e-06
5.50082e-06
5.50085e-06
5.50086e-06
5.50086e-06
5.50086e-06
5.5009e-06
5.50102e-06
5.50124e-06
5.50148e-06
5.50168e-06
5.50173e-06
5.50091e-06
5.49139e-06
5.49207e-06
5.50211e-06
5.50247e-06
5.50228e-06
5.50205e-06
5.50185e-06
5.50169e-06
5.50151e-06
5.50126e-06
5.501e-06
5.50078e-06
5.50058e-06
5.50043e-06
5.50034e-06
5.50032e-06
5.50042e-06
5.50061e-06
5.50078e-06
5.50088e-06
5.50091e-06
5.5009e-06
5.50092e-06
5.50104e-06
5.50136e-06
5.50171e-06
5.50193e-06
5.50198e-06
5.50186e-06
5.50097e-06
5.49161e-06
5.49258e-06
5.50222e-06
5.50275e-06
5.50262e-06
5.50247e-06
5.50233e-06
5.50218e-06
5.50195e-06
5.50163e-06
5.50128e-06
5.50094e-06
5.50064e-06
5.50038e-06
5.5002e-06
5.50013e-06
5.50027e-06
5.50053e-06
5.50077e-06
5.50091e-06
5.50098e-06
5.50105e-06
5.50123e-06
5.50159e-06
5.502e-06
5.50225e-06
5.50231e-06
5.50224e-06
5.50212e-06
5.50138e-06
5.49215e-06
5.49313e-06
5.50241e-06
5.50304e-06
5.50298e-06
5.5029e-06
5.5028e-06
5.50264e-06
5.50237e-06
5.50202e-06
5.50162e-06
5.5012e-06
5.50081e-06
5.50051e-06
5.50032e-06
5.50028e-06
5.50044e-06
5.5007e-06
5.50094e-06
5.50113e-06
5.50131e-06
5.50158e-06
5.50196e-06
5.50236e-06
5.5026e-06
5.50264e-06
5.50259e-06
5.50256e-06
5.50257e-06
5.50195e-06
5.4928e-06
5.4937e-06
5.50277e-06
5.50348e-06
5.50347e-06
5.50342e-06
5.50331e-06
5.5031e-06
5.50278e-06
5.50239e-06
5.50196e-06
5.50151e-06
5.50113e-06
5.50085e-06
5.50069e-06
5.50062e-06
5.5007e-06
5.5009e-06
5.50116e-06
5.50148e-06
5.50187e-06
5.50231e-06
5.50272e-06
5.50297e-06
5.50301e-06
5.503e-06
5.50304e-06
5.50314e-06
5.50322e-06
5.50263e-06
5.4935e-06
5.49439e-06
5.50339e-06
5.50415e-06
5.50417e-06
5.50409e-06
5.5039e-06
5.50359e-06
5.50321e-06
5.50279e-06
5.50235e-06
5.50196e-06
5.5016e-06
5.50127e-06
5.50095e-06
5.50073e-06
5.50073e-06
5.50098e-06
5.50139e-06
5.5019e-06
5.50245e-06
5.50293e-06
5.50324e-06
5.50338e-06
5.50345e-06
5.50358e-06
5.50378e-06
5.50396e-06
5.50404e-06
5.50344e-06
5.4943e-06
5.49529e-06
5.50434e-06
5.50511e-06
5.50509e-06
5.50491e-06
5.5046e-06
5.5042e-06
5.50376e-06
5.50333e-06
5.50291e-06
5.50249e-06
5.50205e-06
5.50158e-06
5.5011e-06
5.50075e-06
5.50077e-06
5.50115e-06
5.50173e-06
5.50238e-06
5.50296e-06
5.50339e-06
5.50367e-06
5.50389e-06
5.50416e-06
5.50449e-06
5.50481e-06
5.505e-06
5.50508e-06
5.50444e-06
5.49535e-06
5.49651e-06
5.50566e-06
5.50636e-06
5.50624e-06
5.50592e-06
5.5055e-06
5.50505e-06
5.50459e-06
5.50411e-06
5.50361e-06
5.50309e-06
5.50252e-06
5.50191e-06
5.50132e-06
5.50095e-06
5.501e-06
5.50149e-06
5.50218e-06
5.50284e-06
5.50339e-06
5.50385e-06
5.50427e-06
5.5047e-06
5.50517e-06
5.50562e-06
5.50596e-06
5.50618e-06
5.50635e-06
5.50582e-06
5.49681e-06
5.49815e-06
5.50737e-06
5.50791e-06
5.50763e-06
5.5072e-06
5.50672e-06
5.50624e-06
5.5057e-06
5.50513e-06
5.50453e-06
5.50387e-06
5.50316e-06
5.50242e-06
5.5018e-06
5.50137e-06
5.50137e-06
5.5019e-06
5.50259e-06
5.50326e-06
5.50393e-06
5.5046e-06
5.5052e-06
5.50576e-06
5.50634e-06
5.5068e-06
5.5072e-06
5.50756e-06
5.50794e-06
5.50764e-06
5.49831e-06
5.50035e-06
5.50932e-06
5.50973e-06
5.50933e-06
5.50882e-06
5.50831e-06
5.50775e-06
5.50711e-06
5.50644e-06
5.50569e-06
5.50486e-06
5.504e-06
5.50318e-06
5.50247e-06
5.50187e-06
5.50177e-06
5.50226e-06
5.50304e-06
5.50393e-06
5.50483e-06
5.50565e-06
5.50637e-06
5.50705e-06
5.50766e-06
5.50819e-06
5.50878e-06
5.50935e-06
5.50982e-06
5.50936e-06
5.50003e-06
5.50285e-06
5.51148e-06
5.51185e-06
5.51138e-06
5.51083e-06
5.51025e-06
5.50958e-06
5.50883e-06
5.508e-06
5.50709e-06
5.5061e-06
5.50511e-06
5.5042e-06
5.50324e-06
5.50243e-06
5.50228e-06
5.50289e-06
5.50388e-06
5.50499e-06
5.50607e-06
5.50707e-06
5.50796e-06
5.50867e-06
5.50939e-06
5.51009e-06
5.5109e-06
5.5116e-06
5.51184e-06
5.51126e-06
5.50236e-06
5.50559e-06
5.51402e-06
5.51435e-06
5.51384e-06
5.51325e-06
5.51258e-06
5.5118e-06
5.51091e-06
5.50993e-06
5.50885e-06
5.50768e-06
5.50656e-06
5.50537e-06
5.50416e-06
5.5032e-06
5.5031e-06
5.50391e-06
5.50513e-06
5.50648e-06
5.50777e-06
5.50891e-06
5.50995e-06
5.51082e-06
5.51175e-06
5.51264e-06
5.51353e-06
5.5142e-06
5.51427e-06
5.51388e-06
5.50539e-06
5.50872e-06
5.51707e-06
5.51739e-06
5.51685e-06
5.51619e-06
5.51542e-06
5.51451e-06
5.51348e-06
5.51232e-06
5.51102e-06
5.50963e-06
5.50823e-06
5.50674e-06
5.5053e-06
5.50425e-06
5.50422e-06
5.50522e-06
5.50666e-06
5.50823e-06
5.50971e-06
5.511e-06
5.51232e-06
5.51355e-06
5.5147e-06
5.51568e-06
5.5165e-06
5.51717e-06
5.51746e-06
5.51741e-06
5.5089e-06
5.51253e-06
5.52087e-06
5.52113e-06
5.52051e-06
5.51977e-06
5.51887e-06
5.51781e-06
5.5166e-06
5.5152e-06
5.51364e-06
5.51195e-06
5.5102e-06
5.50842e-06
5.50675e-06
5.50558e-06
5.50561e-06
5.5068e-06
5.50845e-06
5.51024e-06
5.51197e-06
5.51355e-06
5.51529e-06
5.51683e-06
5.51809e-06
5.51912e-06
5.51991e-06
5.52078e-06
5.52156e-06
5.52146e-06
5.51286e-06
5.51722e-06
5.52553e-06
5.52572e-06
5.52501e-06
5.52414e-06
5.52308e-06
5.52183e-06
5.52039e-06
5.51873e-06
5.51687e-06
5.51485e-06
5.51273e-06
5.5106e-06
5.50868e-06
5.50736e-06
5.50743e-06
5.50882e-06
5.51068e-06
5.51269e-06
5.51482e-06
5.51683e-06
5.5189e-06
5.52058e-06
5.52195e-06
5.52312e-06
5.52414e-06
5.52528e-06
5.52633e-06
5.52602e-06
5.51763e-06
5.523e-06
5.53121e-06
5.53129e-06
5.53049e-06
5.52946e-06
5.52819e-06
5.52671e-06
5.52502e-06
5.52309e-06
5.5209e-06
5.51851e-06
5.51598e-06
5.51349e-06
5.51129e-06
5.50982e-06
5.50987e-06
5.51143e-06
5.51351e-06
5.51581e-06
5.51843e-06
5.5208e-06
5.52304e-06
5.52487e-06
5.52653e-06
5.52805e-06
5.5294e-06
5.53074e-06
5.53172e-06
5.53146e-06
5.52341e-06
5.53006e-06
5.53807e-06
5.53803e-06
5.53712e-06
5.53588e-06
5.53437e-06
5.53261e-06
5.53063e-06
5.52839e-06
5.52585e-06
5.52305e-06
5.52012e-06
5.51724e-06
5.51475e-06
5.51306e-06
5.51303e-06
5.51472e-06
5.51714e-06
5.51983e-06
5.52287e-06
5.52551e-06
5.52801e-06
5.53021e-06
5.5323e-06
5.53418e-06
5.53581e-06
5.5372e-06
5.53815e-06
5.53808e-06
5.5303e-06
5.53854e-06
5.54626e-06
5.54613e-06
5.54504e-06
5.54354e-06
5.54174e-06
5.53969e-06
5.53737e-06
5.53475e-06
5.5318e-06
5.52857e-06
5.52521e-06
5.52192e-06
5.51909e-06
5.51716e-06
5.51707e-06
5.51897e-06
5.52185e-06
5.52498e-06
5.52839e-06
5.53133e-06
5.53432e-06
5.53701e-06
5.53945e-06
5.54162e-06
5.5435e-06
5.54494e-06
5.546e-06
5.54605e-06
5.53853e-06
5.54868e-06
5.55601e-06
5.55574e-06
5.55442e-06
5.55269e-06
5.55063e-06
5.54827e-06
5.54556e-06
5.54251e-06
5.5391e-06
5.5354e-06
5.53162e-06
5.52789e-06
5.52468e-06
5.52251e-06
5.52243e-06
5.52468e-06
5.52801e-06
5.53151e-06
5.53533e-06
5.53873e-06
5.54232e-06
5.54543e-06
5.54814e-06
5.55059e-06
5.55275e-06
5.55434e-06
5.5555e-06
5.55561e-06
5.54858e-06
5.56078e-06
5.56761e-06
5.5672e-06
5.56574e-06
5.56385e-06
5.56157e-06
5.55887e-06
5.55574e-06
5.55224e-06
5.54839e-06
5.54424e-06
5.54004e-06
5.53585e-06
5.53221e-06
5.52973e-06
5.52964e-06
5.53226e-06
5.53597e-06
5.53984e-06
5.54423e-06
5.54824e-06
5.55227e-06
5.55567e-06
5.55872e-06
5.56154e-06
5.56394e-06
5.5657e-06
5.56698e-06
5.56736e-06
5.56078e-06
5.57523e-06
5.58154e-06
5.58108e-06
5.57954e-06
5.57746e-06
5.57488e-06
5.5718e-06
5.56827e-06
5.56437e-06
5.56012e-06
5.5555e-06
5.55083e-06
5.54613e-06
5.54204e-06
5.53928e-06
5.5391e-06
5.54202e-06
5.54617e-06
5.55049e-06
5.55554e-06
5.56008e-06
5.56435e-06
5.5681e-06
5.57166e-06
5.57485e-06
5.5774e-06
5.57943e-06
5.58102e-06
5.58165e-06
5.57539e-06
5.59245e-06
5.59832e-06
5.59776e-06
5.59603e-06
5.59366e-06
5.59073e-06
5.5873e-06
5.58342e-06
5.57913e-06
5.57449e-06
5.56935e-06
5.56426e-06
5.55905e-06
5.55454e-06
5.55163e-06
5.55133e-06
5.55445e-06
5.5591e-06
5.56397e-06
5.56949e-06
5.57443e-06
5.57897e-06
5.58322e-06
5.58726e-06
5.59076e-06
5.59343e-06
5.59585e-06
5.59785e-06
5.59839e-06
5.59254e-06
5.61296e-06
5.61826e-06
5.6175e-06
5.61554e-06
5.61295e-06
5.60979e-06
5.60608e-06
5.60191e-06
5.59721e-06
5.59222e-06
5.58661e-06
5.58122e-06
5.57565e-06
5.57054e-06
5.56748e-06
5.56715e-06
5.57044e-06
5.57562e-06
5.58103e-06
5.58675e-06
5.59204e-06
5.59702e-06
5.60183e-06
5.60611e-06
5.60986e-06
5.61284e-06
5.61553e-06
5.61767e-06
5.61822e-06
5.61278e-06
5.63722e-06
5.64195e-06
5.64109e-06
5.6391e-06
5.63641e-06
5.63303e-06
5.62904e-06
5.6247e-06
5.61971e-06
5.6146e-06
5.60864e-06
5.60285e-06
5.59718e-06
5.59137e-06
5.58795e-06
5.58789e-06
5.59133e-06
5.59691e-06
5.60274e-06
5.60854e-06
5.61424e-06
5.61967e-06
5.62474e-06
5.62903e-06
5.63297e-06
5.63651e-06
5.63913e-06
5.64108e-06
5.64203e-06
5.63705e-06
5.66613e-06
5.67062e-06
5.66965e-06
5.66748e-06
5.66458e-06
5.66109e-06
5.65703e-06
5.65276e-06
5.64757e-06
5.64232e-06
5.63641e-06
5.63006e-06
5.62445e-06
5.61847e-06
5.61434e-06
5.6148e-06
5.61851e-06
5.62398e-06
5.63008e-06
5.63619e-06
5.64209e-06
5.6475e-06
5.65248e-06
5.65711e-06
5.66107e-06
5.66477e-06
5.66737e-06
5.66928e-06
5.67061e-06
5.66623e-06
5.70096e-06
5.70516e-06
5.70363e-06
5.7013e-06
5.6985e-06
5.69525e-06
5.6911e-06
5.68682e-06
5.68183e-06
5.67643e-06
5.67134e-06
5.66501e-06
5.65873e-06
5.65331e-06
5.64908e-06
5.64943e-06
5.65341e-06
5.65879e-06
5.66469e-06
5.67103e-06
5.67667e-06
5.68175e-06
5.68656e-06
5.69149e-06
5.69525e-06
5.69833e-06
5.7013e-06
5.70392e-06
5.70542e-06
5.70057e-06
5.74299e-06
5.74738e-06
5.74502e-06
5.74291e-06
5.73997e-06
5.73668e-06
5.73283e-06
5.72886e-06
5.72467e-06
5.71992e-06
5.71526e-06
5.70982e-06
5.70384e-06
5.69946e-06
5.69608e-06
5.69552e-06
5.69891e-06
5.70466e-06
5.70994e-06
5.71497e-06
5.71982e-06
5.7247e-06
5.72913e-06
5.73277e-06
5.73651e-06
5.73995e-06
5.74307e-06
5.74535e-06
5.74737e-06
5.74258e-06
5.79488e-06
5.80156e-06
5.79806e-06
5.79526e-06
5.79208e-06
5.78925e-06
5.78587e-06
5.78261e-06
5.78027e-06
5.77762e-06
5.77527e-06
5.77468e-06
5.77487e-06
5.77478e-06
5.77554e-06
5.77609e-06
5.77519e-06
5.77432e-06
5.77443e-06
5.77593e-06
5.77769e-06
5.78009e-06
5.78319e-06
5.78559e-06
5.78878e-06
5.7929e-06
5.79558e-06
5.79741e-06
5.80075e-06
5.79559e-06
5.86753e-06
5.88069e-06
5.87589e-06
5.87547e-06
5.874e-06
5.86822e-06
5.86588e-06
5.86895e-06
5.87358e-06
5.88161e-06
5.9069e-06
5.94123e-06
5.98794e-06
6.04373e-06
6.09386e-06
6.09442e-06
6.04409e-06
5.98803e-06
5.94148e-06
5.9069e-06
5.88191e-06
5.87389e-06
5.8685e-06
5.86614e-06
5.86862e-06
5.87346e-06
5.87522e-06
5.87676e-06
5.88041e-06
5.86748e-06
6.01452e-06
6.05707e-06
6.0733e-06
6.10164e-06
6.08902e-06
6.06832e-06
6.092e-06
6.12286e-06
6.17375e-06
6.26987e-06
6.48906e-06
6.78325e-06
7.13647e-06
7.51523e-06
7.82688e-06
7.82872e-06
7.51559e-06
7.13732e-06
6.78554e-06
6.49157e-06
6.27131e-06
6.17497e-06
6.12327e-06
6.09257e-06
6.06914e-06
6.08784e-06
6.10145e-06
6.07444e-06
6.0573e-06
6.01443e-06
6.48433e-06
6.58147e-06
6.8625e-06
7.23789e-06
6.93275e-06
6.84387e-06
7.38332e-06
7.41791e-06
7.57699e-06
8.27482e-06
9.18797e-06
1.02489e-05
1.14698e-05
1.25443e-05
1.33358e-05
1.33356e-05
1.25408e-05
1.14679e-05
1.02623e-05
9.19816e-06
8.2858e-06
7.58428e-06
7.42175e-06
7.39214e-06
6.84761e-06
6.92989e-06
7.23801e-06
6.86674e-06
6.58201e-06
6.48174e-06
7.91613e-06
9.17453e-06
9.58867e-06
1.04997e-05
9.61013e-06
9.54251e-06
1.32517e-05
1.26255e-05
1.27541e-05
1.65075e-05
1.72995e-05
1.87758e-05
2.15052e-05
2.2835e-05
2.38965e-05
2.38491e-05
2.28104e-05
2.14782e-05
1.8821e-05
1.73526e-05
1.65414e-05
1.27811e-05
1.26386e-05
1.3308e-05
9.55884e-06
9.60657e-06
1.05027e-05
9.59898e-06
9.15524e-06
7.91073e-06
1.25702e-05
2.80846e-05
1.48894e-05
1.82451e-05
2.92412e-05
2.26779e-05
2.33881e-05
2.66486e-05
2.24022e-05
2.93275e-05
3.4409e-05
3.07898e-05
3.4659e-05
3.47051e-05
3.56798e-05
3.55959e-05
3.48305e-05
3.46123e-05
3.0814e-05
3.3145e-05
2.92819e-05
2.23316e-05
2.69153e-05
2.34442e-05
2.29094e-05
2.96294e-05
1.82662e-05
1.48736e-05
2.7875e-05
1.26245e-05
2.84704e-05
5.1143e-05
2.14575e-05
4.52708e-05
6.08375e-05
3.83314e-05
4.68855e-05
6.63362e-05
4.8882e-05
6.2723e-05
8.05687e-05
4.88983e-05
5.11638e-05
5.69695e-05
5.08115e-05
5.03134e-05
5.62759e-05
5.08934e-05
4.72109e-05
7.36457e-05
6.21994e-05
4.89762e-05
6.75057e-05
4.73591e-05
3.92088e-05
6.18492e-05
4.54075e-05
2.14661e-05
5.0809e-05
2.92778e-05
2.72126e-05
4.88514e-05
3.00695e-05
3.53503e-05
7.85093e-05
5.81629e-05
4.07876e-05
8.37896e-05
6.92087e-05
5.0875e-05
8.98604e-05
5.67765e-05
5.9692e-05
5.9108e-05
6.76893e-05
6.75713e-05
5.88851e-05
5.82039e-05
5.65783e-05
8.64558e-05
5.13108e-05
6.96317e-05
8.44888e-05
4.12343e-05
6.12064e-05
7.99319e-05
3.50106e-05
2.9993e-05
4.86714e-05
2.79109e-05
2.21867e-05
3.90753e-05
2.84523e-05
3.07118e-05
4.5237e-05
3.92773e-05
4.2431e-05
5.69462e-05
4.5517e-05
5.33265e-05
6.3037e-05
4.99973e-05
5.12986e-05
5.18521e-05
5.40947e-05
5.35801e-05
5.20894e-05
5.10389e-05
4.93025e-05
6.20661e-05
5.35656e-05
4.55757e-05
5.70725e-05
4.23903e-05
3.92695e-05
4.53479e-05
3.0596e-05
2.87263e-05
3.99412e-05
2.24601e-05
2.38304e-05
2.12894e-05
2.41184e-05
2.84639e-05
3.11132e-05
3.2611e-05
3.66726e-05
3.84516e-05
4.00777e-05
4.40692e-05
4.48111e-05
4.35954e-05
4.42915e-05
4.46442e-05
4.65654e-05
4.65044e-05
4.54215e-05
4.41868e-05
4.28205e-05
4.45252e-05
4.40802e-05
3.97753e-05
3.85704e-05
3.67899e-05
3.26986e-05
3.14142e-05
2.86993e-05
2.43282e-05
2.1307e-05
2.35418e-05
1.87705e-05
1.93664e-05
2.27027e-05
2.61105e-05
2.75469e-05
2.85066e-05
3.17497e-05
3.28822e-05
3.42757e-05
3.84627e-05
4.00791e-05
3.88108e-05
3.85678e-05
3.98051e-05
4.03739e-05
4.06413e-05
4.02665e-05
3.87835e-05
3.84664e-05
3.96863e-05
3.86518e-05
3.42589e-05
3.30425e-05
3.18085e-05
2.85864e-05
2.76904e-05
2.61852e-05
2.2768e-05
1.95625e-05
1.87707e-05
1.66434e-05
1.732e-05
1.93008e-05
2.18197e-05
2.19802e-05
2.27611e-05
2.65563e-05
2.81386e-05
2.98772e-05
3.27418e-05
3.46054e-05
3.43439e-05
3.43859e-05
3.52518e-05
3.55766e-05
3.56274e-05
3.54885e-05
3.44192e-05
3.42741e-05
3.44835e-05
3.27476e-05
2.99091e-05
2.8228e-05
2.65151e-05
2.29033e-05
2.20277e-05
2.18555e-05
1.9441e-05
1.74345e-05
1.67273e-05
1.47585e-05
1.51282e-05
1.58928e-05
1.69299e-05
1.70739e-05
1.70912e-05
1.93486e-05
2.15908e-05
2.45123e-05
2.834e-05
3.09359e-05
3.23255e-05
3.31856e-05
3.36291e-05
3.37532e-05
3.37363e-05
3.37748e-05
3.31776e-05
3.23326e-05
3.10238e-05
2.82994e-05
2.45121e-05
2.17019e-05
1.94583e-05
1.71207e-05
1.7242e-05
1.69999e-05
1.59195e-05
1.52129e-05
1.4847e-05
1.33438e-05
1.35118e-05
1.3654e-05
1.38777e-05
1.40316e-05
1.41404e-05
1.46756e-05
1.57291e-05
1.78663e-05
2.15308e-05
2.59396e-05
2.92957e-05
3.15061e-05
3.2762e-05
3.3261e-05
3.32703e-05
3.28146e-05
3.15549e-05
2.93142e-05
2.59402e-05
2.15722e-05
1.78938e-05
1.57746e-05
1.47258e-05
1.41974e-05
1.40607e-05
1.39596e-05
1.3744e-05
1.35077e-05
1.33951e-05
1.22636e-05
1.23568e-05
1.22895e-05
1.23616e-05
1.23581e-05
1.24818e-05
1.26705e-05
1.29837e-05
1.3716e-05
1.53903e-05
1.85519e-05
2.31142e-05
2.71171e-05
2.9883e-05
3.11766e-05
3.11816e-05
2.9879e-05
2.7148e-05
2.3134e-05
1.84961e-05
1.54165e-05
1.3736e-05
1.30627e-05
1.26618e-05
1.24659e-05
1.24182e-05
1.23973e-05
1.22979e-05
1.23448e-05
1.23412e-05
1.15032e-05
1.14668e-05
1.14347e-05
1.14568e-05
1.14556e-05
1.14932e-05
1.15751e-05
1.17509e-05
1.19844e-05
1.24596e-05
1.3567e-05
1.57804e-05
1.94593e-05
2.33061e-05
2.57611e-05
2.57484e-05
2.32994e-05
1.94753e-05
1.57804e-05
1.35398e-05
1.2515e-05
1.20155e-05
1.17439e-05
1.16015e-05
1.15183e-05
1.14467e-05
1.14444e-05
1.1477e-05
1.14747e-05
1.15075e-05
1.08388e-05
1.08165e-05
1.07767e-05
1.07769e-05
1.0762e-05
1.0827e-05
1.0918e-05
1.10087e-05
1.11175e-05
1.12723e-05
1.15483e-05
1.216e-05
1.33299e-05
1.50639e-05
1.70664e-05
1.70789e-05
1.50595e-05
1.3334e-05
1.21594e-05
1.15652e-05
1.12842e-05
1.11415e-05
1.10307e-05
1.0933e-05
1.08476e-05
1.08289e-05
1.07581e-05
1.07903e-05
1.07945e-05
1.08374e-05
1.02849e-05
1.02128e-05
1.01905e-05
1.02093e-05
1.02257e-05
1.03014e-05
1.03943e-05
1.04444e-05
1.05121e-05
1.059e-05
1.06807e-05
1.07907e-05
1.1018e-05
1.13868e-05
1.18433e-05
1.18622e-05
1.14007e-05
1.10292e-05
1.07672e-05
1.06895e-05
1.06093e-05
1.05283e-05
1.04582e-05
1.03905e-05
1.03076e-05
1.02591e-05
1.02118e-05
1.01935e-05
1.02319e-05
1.0306e-05
9.89094e-06
9.68618e-06
9.70224e-06
9.72144e-06
9.76211e-06
9.82725e-06
9.88557e-06
9.91623e-06
9.97598e-06
1.00243e-05
1.00431e-05
1.00422e-05
1.00668e-05
1.01186e-05
1.01821e-05
1.01715e-05
1.01103e-05
1.00871e-05
1.00569e-05
1.00516e-05
1.00234e-05
9.98632e-06
9.95019e-06
9.89002e-06
9.82127e-06
9.75443e-06
9.72447e-06
9.69124e-06
9.73126e-06
9.91042e-06
9.50111e-06
9.27202e-06
9.25969e-06
9.28787e-06
9.33286e-06
9.37145e-06
9.40129e-06
9.43435e-06
9.47093e-06
9.47619e-06
9.45684e-06
9.44697e-06
9.4392e-06
9.41391e-06
9.39199e-06
9.37968e-06
9.40823e-06
9.44242e-06
9.46153e-06
9.47785e-06
9.4836e-06
9.4809e-06
9.46369e-06
9.41793e-06
9.36811e-06
9.32173e-06
9.29801e-06
9.26134e-06
9.28664e-06
9.53251e-06
9.15435e-06
8.90411e-06
8.86993e-06
8.90331e-06
8.9354e-06
8.96146e-06
8.97889e-06
8.99216e-06
8.98844e-06
8.9665e-06
8.94216e-06
8.92462e-06
8.88735e-06
8.83109e-06
8.79683e-06
8.80007e-06
8.84577e-06
8.88403e-06
8.91067e-06
8.94447e-06
8.97737e-06
9.00109e-06
9.00151e-06
8.98332e-06
8.9592e-06
8.93602e-06
8.91359e-06
8.88546e-06
8.91072e-06
9.15367e-06
8.79274e-06
8.53458e-06
8.52715e-06
8.54759e-06
8.56085e-06
8.5747e-06
8.57603e-06
8.56284e-06
8.54061e-06
8.51338e-06
8.47584e-06
8.43019e-06
8.36813e-06
8.30967e-06
8.28453e-06
8.29455e-06
8.33113e-06
8.3693e-06
8.41365e-06
8.47303e-06
8.5276e-06
8.56236e-06
8.57442e-06
8.57551e-06
8.57041e-06
8.56282e-06
8.54412e-06
8.52651e-06
8.5547e-06
8.78442e-06
8.42799e-06
8.22745e-06
8.20417e-06
8.19818e-06
8.20347e-06
8.20608e-06
8.19184e-06
8.16389e-06
8.13241e-06
8.09067e-06
8.03419e-06
7.97242e-06
7.90954e-06
7.85861e-06
7.83283e-06
7.83554e-06
7.86552e-06
7.91224e-06
7.97312e-06
8.0437e-06
8.10474e-06
8.14678e-06
8.17216e-06
8.19042e-06
8.20137e-06
8.20354e-06
8.19474e-06
8.18852e-06
8.22139e-06
8.43729e-06
8.11483e-06
7.92371e-06
7.87843e-06
7.87721e-06
7.8852e-06
7.87497e-06
7.84464e-06
7.80659e-06
7.76585e-06
7.71162e-06
7.64437e-06
7.57712e-06
7.51416e-06
7.46111e-06
7.42613e-06
7.42152e-06
7.45343e-06
7.51171e-06
7.5842e-06
7.65814e-06
7.722e-06
7.77257e-06
7.8113e-06
7.84105e-06
7.86331e-06
7.87448e-06
7.87578e-06
7.87854e-06
7.91308e-06
8.11237e-06
7.80576e-06
7.61161e-06
7.58885e-06
7.59539e-06
7.58694e-06
7.56307e-06
7.52682e-06
7.48851e-06
7.44418e-06
7.3847e-06
7.31381e-06
7.24187e-06
7.1732e-06
7.11407e-06
7.07558e-06
7.07325e-06
7.1102e-06
7.17116e-06
7.24186e-06
7.31164e-06
7.37654e-06
7.43621e-06
7.4881e-06
7.5282e-06
7.55677e-06
7.57426e-06
7.58335e-06
7.59146e-06
7.62532e-06
7.80654e-06
7.50464e-06
7.3575e-06
7.34074e-06
7.33005e-06
7.30536e-06
7.27641e-06
7.24038e-06
7.2008e-06
7.15255e-06
7.09093e-06
7.01878e-06
6.94326e-06
6.86952e-06
6.8057e-06
6.76596e-06
6.76485e-06
6.80191e-06
6.86123e-06
6.93107e-06
7.00433e-06
7.07744e-06
7.14603e-06
7.20359e-06
7.24588e-06
7.27643e-06
7.29865e-06
7.31479e-06
7.32823e-06
7.36175e-06
7.5229e-06
7.25616e-06
7.13926e-06
7.1035e-06
7.07476e-06
7.05103e-06
7.02376e-06
6.98855e-06
6.94665e-06
6.89585e-06
6.83303e-06
6.76053e-06
6.68434e-06
6.61116e-06
6.54989e-06
6.51335e-06
6.51409e-06
6.55009e-06
6.60806e-06
6.67845e-06
6.75366e-06
6.82732e-06
6.89438e-06
6.95009e-06
6.99268e-06
7.0254e-06
7.05165e-06
7.0728e-06
7.08997e-06
7.12124e-06
7.2603e-06
7.03472e-06
6.9098e-06
6.86949e-06
6.84875e-06
6.83514e-06
6.81055e-06
6.77495e-06
6.73104e-06
6.67848e-06
6.61457e-06
6.54265e-06
6.4689e-06
6.40071e-06
6.34524e-06
6.31164e-06
6.31108e-06
6.34295e-06
6.39737e-06
6.46583e-06
6.53954e-06
6.61031e-06
6.67352e-06
6.72664e-06
6.77007e-06
6.80532e-06
6.83446e-06
6.8575e-06
6.87416e-06
6.90018e-06
7.01831e-06
6.81382e-06
6.69699e-06
6.6711e-06
6.66681e-06
6.65315e-06
6.62601e-06
6.58925e-06
6.54479e-06
6.49204e-06
6.43082e-06
6.36319e-06
6.29437e-06
6.23093e-06
6.17803e-06
6.14353e-06
6.14023e-06
6.16983e-06
6.22255e-06
6.28832e-06
6.35753e-06
6.42326e-06
6.4824e-06
6.53414e-06
6.57861e-06
6.61547e-06
6.64452e-06
6.66534e-06
6.67883e-06
6.69972e-06
6.80072e-06
6.60968e-06
6.5217e-06
6.50965e-06
6.50361e-06
6.48331e-06
6.45552e-06
6.4214e-06
6.37947e-06
6.33026e-06
6.27512e-06
6.21403e-06
6.15137e-06
6.09277e-06
6.04231e-06
6.00813e-06
6.00456e-06
6.03375e-06
6.08409e-06
6.14436e-06
6.20601e-06
6.26509e-06
6.32011e-06
6.37035e-06
6.414e-06
6.44941e-06
6.47576e-06
6.49356e-06
6.50509e-06
6.52337e-06
6.60936e-06
6.44165e-06
6.37541e-06
6.3631e-06
6.34712e-06
6.32865e-06
6.3074e-06
6.27911e-06
6.2414e-06
6.19696e-06
6.14638e-06
6.08985e-06
6.03194e-06
5.97694e-06
5.92888e-06
5.89719e-06
5.89587e-06
5.92555e-06
5.97285e-06
6.02633e-06
6.07982e-06
6.13194e-06
6.18206e-06
6.22878e-06
6.26941e-06
6.30189e-06
6.32577e-06
6.34213e-06
6.35344e-06
6.37024e-06
6.44184e-06
6.30323e-06
6.24464e-06
6.2257e-06
6.21321e-06
6.20316e-06
6.18756e-06
6.16212e-06
6.12672e-06
6.08468e-06
6.03692e-06
5.98587e-06
5.93444e-06
5.88441e-06
5.84016e-06
5.81238e-06
5.81311e-06
5.84071e-06
5.88232e-06
5.92828e-06
5.97472e-06
6.02093e-06
6.06623e-06
6.1081e-06
6.14418e-06
6.17317e-06
6.19493e-06
6.21048e-06
6.2218e-06
6.23705e-06
6.2955e-06
6.17537e-06
6.12319e-06
6.11105e-06
6.10881e-06
6.10053e-06
6.08343e-06
6.05672e-06
6.02247e-06
5.98298e-06
5.94076e-06
5.89856e-06
5.85569e-06
5.81215e-06
5.77333e-06
5.74922e-06
5.74905e-06
5.77107e-06
5.80547e-06
5.84542e-06
5.88789e-06
5.93067e-06
5.97147e-06
6.00803e-06
6.03896e-06
6.06385e-06
6.08296e-06
6.09715e-06
6.1079e-06
6.12143e-06
6.16865e-06
6.05955e-06
6.02544e-06
6.02568e-06
6.02183e-06
6.00755e-06
5.9868e-06
5.96099e-06
5.9314e-06
5.89819e-06
5.86391e-06
5.82917e-06
5.79163e-06
5.75238e-06
5.71795e-06
5.69612e-06
5.69354e-06
5.71025e-06
5.73997e-06
5.77724e-06
5.81798e-06
5.8584e-06
5.89518e-06
5.92662e-06
5.95226e-06
5.97247e-06
5.98816e-06
6.00029e-06
6.01001e-06
6.02186e-06
6.05971e-06
5.97211e-06
5.95755e-06
5.95329e-06
5.93978e-06
5.9217e-06
5.90238e-06
5.88286e-06
5.86136e-06
5.83645e-06
5.8089e-06
5.77766e-06
5.74203e-06
5.70574e-06
5.67507e-06
5.65531e-06
5.65177e-06
5.66563e-06
5.69268e-06
5.72762e-06
5.76524e-06
5.8013e-06
5.83296e-06
5.85896e-06
5.87947e-06
5.89549e-06
5.90823e-06
5.9187e-06
5.92755e-06
5.9378e-06
5.96743e-06
5.90741e-06
5.89248e-06
5.87746e-06
5.86279e-06
5.84902e-06
5.83656e-06
5.8243e-06
5.80878e-06
5.78878e-06
5.76417e-06
5.73458e-06
5.70214e-06
5.67153e-06
5.64664e-06
5.63045e-06
5.62793e-06
5.64022e-06
5.6634e-06
5.6925e-06
5.72305e-06
5.7519e-06
5.77734e-06
5.7988e-06
5.81642e-06
5.83077e-06
5.84253e-06
5.85224e-06
5.86023e-06
5.86838e-06
5.88994e-06
5.84094e-06
5.81836e-06
5.80832e-06
5.80183e-06
5.79557e-06
5.78857e-06
5.77816e-06
5.76269e-06
5.74288e-06
5.71901e-06
5.69218e-06
5.66586e-06
5.64324e-06
5.62522e-06
5.61349e-06
5.61243e-06
5.6225e-06
5.6397e-06
5.66073e-06
5.68308e-06
5.70523e-06
5.7265e-06
5.7463e-06
5.76371e-06
5.77816e-06
5.78969e-06
5.7986e-06
5.80503e-06
5.81017e-06
5.82387e-06
5.77256e-06
5.7623e-06
5.76334e-06
5.76112e-06
5.75667e-06
5.74868e-06
5.7356e-06
5.71888e-06
5.69991e-06
5.67873e-06
5.65715e-06
5.63804e-06
5.62196e-06
5.60819e-06
5.59815e-06
5.59655e-06
5.60398e-06
5.61646e-06
5.63164e-06