/*--------------------------------*- C++ -*----------------------------------*\
| =========                 |                                                 |
| \\      /  F ield         | OpenFOAM: The Open Source CFD Toolbox           |
|  \\    /   O peration     | Version:  2312                                  |
|   \\  /    A nd           | Website:  www.openfoam.com                      |
|    \\/     M anipulation  |                                                 |
\*---------------------------------------------------------------------------*/
FoamFile
{
    version     2.0;
    format      ascii;
    arch        "LSB;label=32;scalar=64";
    class       volScalarField;
    location    "0.941998";
    object      p;
}
// * * * * * * * * * * * * * * * * * * * * * * * * * * * * * * * * * * * * * //

dimensions      [1 -1 -2 0 0 0 0];

internalField   nonuniform List<scalar> 
90000
(
4846.26
4846.26
4846.26
4846.26
4846.26
4846.26
4846.25
4846.25
4846.25
4846.25
4846.25
4846.24
4846.24
4846.24
4846.24
4846.24
4846.24
4846.24
4846.24
4846.24
4846.24
4846.24
4846.23
4846.23
4846.23
4846.23
4846.23
4846.23
4846.23
4846.22
4748.16
4748.16
4748.16
4748.15
4748.15
4748.15
4748.15
4748.15
4748.15
4748.15
4748.15
4748.14
4748.14
4748.14
4748.14
4748.14
4748.14
4748.14
4748.14
4748.14
4748.14
4748.13
4748.13
4748.13
4748.13
4748.13
4748.13
4748.13
4748.13
4748.13
4650.05
4650.05
4650.05
4650.05
4650.05
4650.05
4650.05
4650.05
4650.05
4650.05
4650.05
4650.04
4650.04
4650.04
4650.04
4650.04
4650.04
4650.04
4650.03
4650.03
4650.03
4650.03
4650.03
4650.03
4650.03
4650.02
4650.02
4650.02
4650.03
4650.03
4551.94
4551.94
4551.94
4551.94
4551.94
4551.94
4551.94
4551.94
4551.94
4551.94
4551.94
4551.94
4551.94
4551.94
4551.94
4551.94
4551.94
4551.93
4551.93
4551.93
4551.93
4551.93
4551.93
4551.93
4551.92
4551.92
4551.92
4551.92
4551.92
4551.92
4453.83
4453.83
4453.83
4453.83
4453.83
4453.83
4453.84
4453.84
4453.84
4453.84
4453.84
4453.84
4453.84
4453.84
4453.84
4453.84
4453.84
4453.84
4453.83
4453.83
4453.83
4453.83
4453.83
4453.82
4453.82
4453.82
4453.82
4453.82
4453.81
4453.82
4355.72
4355.72
4355.72
4355.72
4355.73
4355.73
4355.73
4355.73
4355.74
4355.74
4355.74
4355.74
4355.74
4355.74
4355.74
4355.74
4355.74
4355.73
4355.73
4355.73
4355.73
4355.73
4355.72
4355.72
4355.72
4355.72
4355.72
4355.72
4355.71
4355.71
4257.62
4257.62
4257.62
4257.62
4257.62
4257.62
4257.63
4257.63
4257.63
4257.63
4257.64
4257.64
4257.64
4257.64
4257.64
4257.64
4257.64
4257.63
4257.63
4257.63
4257.63
4257.62
4257.62
4257.62
4257.62
4257.62
4257.61
4257.61
4257.61
4257.61
4159.52
4159.52
4159.52
4159.52
4159.52
4159.52
4159.52
4159.53
4159.53
4159.53
4159.53
4159.53
4159.53
4159.53
4159.53
4159.53
4159.53
4159.53
4159.53
4159.53
4159.52
4159.52
4159.52
4159.52
4159.51
4159.51
4159.51
4159.51
4159.51
4159.51
4061.42
4061.42
4061.42
4061.42
4061.42
4061.42
4061.42
4061.42
4061.43
4061.43
4061.43
4061.43
4061.43
4061.43
4061.43
4061.43
4061.43
4061.43
4061.43
4061.42
4061.42
4061.42
4061.42
4061.41
4061.41
4061.41
4061.41
4061.41
4061.41
4061.41
3963.33
3963.33
3963.33
3963.33
3963.33
3963.33
3963.33
3963.32
3963.32
3963.32
3963.32
3963.32
3963.32
3963.32
3963.32
3963.32
3963.32
3963.32
3963.32
3963.32
3963.32
3963.32
3963.32
3963.31
3963.31
3963.31
3963.31
3963.31
3963.31
3963.31
3865.23
3865.23
3865.23
3865.23
3865.23
3865.23
3865.22
3865.22
3865.22
3865.22
3865.22
3865.22
3865.22
3865.22
3865.22
3865.22
3865.22
3865.22
3865.22
3865.22
3865.22
3865.22
3865.22
3865.22
3865.21
3865.21
3865.21
3865.21
3865.21
3865.21
3767.12
3767.12
3767.12
3767.12
3767.12
3767.12
3767.12
3767.12
3767.12
3767.12
3767.12
3767.12
3767.12
3767.12
3767.12
3767.12
3767.12
3767.12
3767.12
3767.12
3767.12
3767.12
3767.12
3767.12
3767.12
3767.12
3767.12
3767.12
3767.12
3767.12
3669.02
3669.02
3669.02
3669.02
3669.02
3669.02
3669.02
3669.02
3669.02
3669.02
3669.02
3669.02
3669.01
3669.01
3669.01
3669.01
3669.02
3669.02
3669.02
3669.02
3669.02
3669.02
3669.02
3669.02
3669.02
3669.02
3669.02
3669.02
3669.02
3669.02
3570.91
3570.91
3570.91
3570.91
3570.91
3570.91
3570.91
3570.92
3570.92
3570.92
3570.92
3570.91
3570.91
3570.91
3570.91
3570.91
3570.91
3570.92
3570.92
3570.92
3570.92
3570.92
3570.92
3570.92
3570.92
3570.92
3570.92
3570.92
3570.92
3570.92
3472.81
3472.8
3472.81
3472.81
3472.81
3472.81
3472.81
3472.81
3472.81
3472.81
3472.81
3472.81
3472.81
3472.81
3472.81
3472.81
3472.81
3472.81
3472.81
3472.81
3472.81
3472.82
3472.82
3472.82
3472.82
3472.82
3472.82
3472.82
3472.82
3472.82
3374.7
3374.7
3374.7
3374.71
3374.71
3374.71
3374.71
3374.71
3374.71
3374.71
3374.71
3374.71
3374.71
3374.71
3374.71
3374.71
3374.71
3374.71
3374.71
3374.71
3374.71
3374.71
3374.72
3374.72
3374.72
3374.72
3374.72
3374.72
3374.72
3374.72
3276.6
3276.6
3276.6
3276.6
3276.61
3276.61
3276.61
3276.61
3276.61
3276.61
3276.61
3276.61
3276.61
3276.61
3276.61
3276.61
3276.61
3276.61
3276.61
3276.61
3276.61
3276.61
3276.61
3276.61
3276.62
3276.62
3276.62
3276.62
3276.62
3276.62
3178.5
3178.5
3178.5
3178.5
3178.5
3178.5
3178.5
3178.5
3178.5
3178.5
3178.51
3178.51
3178.51
3178.51
3178.51
3178.51
3178.51
3178.51
3178.51
3178.51
3178.51
3178.51
3178.51
3178.51
3178.51
3178.51
3178.51
3178.51
3178.52
3178.51
3080.4
3080.4
3080.4
3080.4
3080.4
3080.4
3080.4
3080.4
3080.4
3080.4
3080.4
3080.4
3080.41
3080.41
3080.41
3080.41
3080.41
3080.41
3080.41
3080.41
3080.41
3080.41
3080.41
3080.41
3080.41
3080.41
3080.41
3080.41
3080.41
3080.41
2982.3
2982.3
2982.3
2982.3
2982.29
2982.29
2982.29
2982.3
2982.3
2982.3
2982.3
2982.3
2982.3
2982.3
2982.3
2982.3
2982.3
2982.3
2982.3
2982.3
2982.3
2982.3
2982.3
2982.3
2982.31
2982.31
2982.31
2982.31
2982.31
2982.31
2884.19
2884.19
2884.19
2884.19
2884.19
2884.19
2884.19
2884.19
2884.19
2884.19
2884.19
2884.2
2884.2
2884.2
2884.2
2884.2
2884.2
2884.2
2884.2
2884.2
2884.2
2884.2
2884.2
2884.2
2884.2
2884.2
2884.2
2884.2
2884.2
2884.2
2786.08
2786.08
2786.08
2786.08
2786.08
2786.08
2786.08
2786.09
2786.09
2786.09
2786.09
2786.09
2786.09
2786.1
2786.1
2786.1
2786.1
2786.1
2786.1
2786.1
2786.1
2786.1
2786.1
2786.1
2786.1
2786.1
2786.1
2786.1
2786.1
2786.1
2687.97
2687.97
2687.97
2687.97
2687.97
2687.98
2687.98
2687.98
2687.98
2687.98
2687.99
2687.99
2687.99
2688
2688
2688
2688
2688
2688
2688
2688
2688
2688
2687.99
2687.99
2687.99
2687.99
2687.99
2687.99
2687.99
2589.86
2589.86
2589.86
2589.86
2589.87
2589.87
2589.87
2589.87
2589.88
2589.88
2589.89
2589.89
2589.89
2589.9
2589.9
2589.9
2589.9
2589.9
2589.9
2589.9
2589.9
2589.89
2589.89
2589.89
2589.89
2589.88
2589.88
2589.88
2589.88
2589.88
2491.75
2491.75
2491.75
2491.75
2491.76
2491.76
2491.77
2491.77
2491.78
2491.78
2491.79
2491.79
2491.8
2491.8
2491.8
2491.8
2491.8
2491.8
2491.8
2491.8
2491.79
2491.79
2491.78
2491.78
2491.78
2491.77
2491.77
2491.77
2491.77
2491.77
2393.64
2393.64
2393.64
2393.64
2393.65
2393.65
2393.66
2393.67
2393.67
2393.68
2393.69
2393.69
2393.7
2393.7
2393.71
2393.71
2393.71
2393.7
2393.7
2393.7
2393.69
2393.69
2393.68
2393.67
2393.67
2393.67
2393.66
2393.66
2393.66
2393.65
2295.52
2295.52
2295.53
2295.53
2295.54
2295.55
2295.56
2295.56
2295.57
2295.58
2295.59
2295.6
2295.6
2295.61
2295.61
2295.61
2295.61
2295.61
2295.6
2295.6
2295.59
2295.58
2295.58
2295.57
2295.56
2295.55
2295.55
2295.54
2295.54
2295.54
2197.41
2197.41
2197.41
2197.42
2197.43
2197.44
2197.45
2197.46
2197.47
2197.48
2197.5
2197.51
2197.51
2197.52
2197.52
2197.52
2197.52
2197.52
2197.51
2197.5
2197.49
2197.48
2197.47
2197.46
2197.45
2197.44
2197.43
2197.43
2197.42
2197.42
2099.28
2099.29
2099.3
2099.3
2099.32
2099.33
2099.34
2099.36
2099.37
2099.39
2099.4
2099.41
2099.42
2099.43
2099.43
2099.44
2099.43
2099.43
2099.42
2099.41
2099.4
2099.38
2099.37
2099.35
2099.34
2099.33
2099.32
2099.31
2099.3
2099.3
2001.16
2001.16
2001.17
2001.18
2001.2
2001.22
2001.23
2001.25
2001.27
2001.29
2001.31
2001.33
2001.34
2001.35
2001.35
2001.35
2001.35
2001.34
2001.33
2001.32
2001.3
2001.28
2001.27
2001.25
2001.23
2001.21
2001.2
2001.18
2001.17
2001.17
1903.02
1903.03
1903.04
1903.06
1903.08
1903.1
1903.12
1903.15
1903.18
1903.2
1903.22
1903.24
1903.26
1903.27
1903.27
1903.28
1903.27
1903.26
1903.25
1903.23
1903.21
1903.19
1903.16
1903.13
1903.11
1903.09
1903.07
1903.05
1903.04
1903.03
1804.88
1804.88
1804.9
1804.92
1804.95
1804.98
1805.01
1805.04
1805.08
1805.11
1805.14
1805.16
1805.18
1805.2
1805.2
1805.21
1805.2
1805.19
1805.17
1805.15
1805.12
1805.09
1805.05
1805.02
1804.99
1804.96
1804.93
1804.91
1804.89
1804.89
1706.71
1706.72
1706.74
1706.77
1706.81
1706.85
1706.89
1706.93
1706.98
1707.02
1707.06
1707.09
1707.12
1707.13
1707.14
1707.15
1707.14
1707.12
1707.1
1707.07
1707.03
1706.99
1706.94
1706.9
1706.86
1706.82
1706.78
1706.75
1706.74
1706.73
1608.53
1608.55
1608.57
1608.61
1608.65
1608.71
1608.76
1608.82
1608.88
1608.94
1608.98
1609.03
1609.06
1609.08
1609.09
1609.1
1609.09
1609.06
1609.03
1608.99
1608.94
1608.89
1608.83
1608.77
1608.72
1608.66
1608.62
1608.58
1608.56
1608.54
1510.33
1510.34
1510.38
1510.42
1510.48
1510.55
1510.63
1510.71
1510.78
1510.85
1510.92
1510.97
1511.02
1511.05
1511.06
1511.06
1511.05
1511.02
1510.98
1510.93
1510.86
1510.79
1510.71
1510.64
1510.56
1510.49
1510.43
1510.39
1510.35
1510.34
1412.09
1412.11
1412.15
1412.21
1412.29
1412.38
1412.48
1412.58
1412.68
1412.78
1412.86
1412.93
1412.99
1413.03
1413.05
1413.05
1413.03
1412.99
1412.94
1412.87
1412.78
1412.69
1412.59
1412.49
1412.39
1412.3
1412.22
1412.16
1412.12
1412.09
1313.8
1313.83
1313.89
1313.97
1314.07
1314.19
1314.32
1314.45
1314.58
1314.71
1314.82
1314.91
1314.99
1315.04
1315.06
1315.06
1315.04
1314.99
1314.92
1314.82
1314.71
1314.59
1314.46
1314.33
1314.2
1314.08
1313.97
1313.89
1313.83
1313.8
1215.45
1215.49
1215.57
1215.68
1215.81
1215.97
1216.14
1216.31
1216.49
1216.65
1216.79
1216.91
1217.01
1217.08
1217.11
1217.11
1217.08
1217.01
1216.92
1216.79
1216.65
1216.49
1216.32
1216.14
1215.97
1215.82
1215.68
1215.57
1215.5
1215.46
1117.03
1117.08
1117.18
1117.32
1117.5
1117.71
1117.93
1118.16
1118.38
1118.6
1118.79
1118.95
1119.07
1119.16
1119.2
1119.2
1119.16
1119.07
1118.95
1118.79
1118.6
1118.39
1118.16
1117.93
1117.71
1117.5
1117.33
1117.18
1117.08
1117.03
1018.51
1018.57
1018.7
1018.89
1019.12
1019.39
1019.68
1019.99
1020.28
1020.56
1020.81
1021.01
1021.18
1021.29
1021.35
1021.35
1021.29
1021.18
1021.02
1020.81
1020.56
1020.28
1019.99
1019.69
1019.39
1019.13
1018.89
1018.7
1018.57
1018.51
919.845
919.933
920.105
920.351
920.658
921.01
921.391
921.785
922.171
922.534
922.859
923.132
923.346
923.493
923.567
923.567
923.493
923.346
923.133
922.859
922.534
922.171
921.785
921.391
921.01
920.657
920.351
920.105
919.932
919.843
821.008
821.124
821.35
821.672
822.073
822.534
823.032
823.546
824.052
824.525
824.95
825.308
825.587
825.778
825.875
825.875
825.778
825.587
825.308
824.95
824.525
824.051
823.545
823.03
822.532
822.072
821.67
821.347
821.122
821.005
721.939
722.093
722.388
722.808
723.332
723.933
724.582
725.254
725.913
726.532
727.085
727.555
727.92
728.168
728.295
728.295
728.169
727.92
727.555
727.086
726.531
725.912
725.253
724.58
723.931
723.33
722.805
722.383
722.088
721.934
622.564
622.767
623.155
623.703
624.384
625.164
626.011
626.887
627.744
628.55
629.274
629.887
630.365
630.689
630.852
630.853
630.689
630.365
629.888
629.274
628.55
627.743
626.886
626.009
625.16
624.379
623.698
623.148
622.759
622.555
522.784
523.058
523.569
524.281
525.16
526.17
527.276
528.414
529.522
530.57
531.518
532.322
532.945
533.367
533.58
533.58
533.367
532.946
532.323
531.518
530.57
529.522
528.412
527.273
526.166
525.155
524.275
523.562
523.049
522.774
422.461
422.847
423.53
424.446
425.571
426.88
428.321
429.796
431.218
432.571
433.817
434.881
435.698
436.245
436.519
436.518
436.245
435.699
434.884
433.819
432.573
431.218
429.794
428.317
426.874
425.567
424.441
423.522
422.838
422.454
321.375
321.992
322.93
324.071
325.526
327.214
329.069
331.001
332.79
334.512
336.18
337.602
338.668
339.381
339.728
339.728
339.379
338.669
337.609
336.183
334.514
332.79
331
329.065
327.207
325.526
324.069
322.924
321.984
321.373
219.035
220.446
221.727
222.877
225.052
227.11
229.347
232.08
234.178
236.202
238.654
240.569
241.902
242.866
243.29
243.291
242.858
241.901
240.589
238.657
236.206
234.179
232.08
229.342
227.096
225.065
222.888
221.725
220.439
219.063
113.941
118.935
120.28
119.534
124.638
126.453
128.244
133.554
135.658
136.534
141.989
144.229
145.47
146.953
147.44
147.455
146.901
145.43
144.342
141.973
136.528
135.656
133.559
128.232
126.45
124.68
119.578
120.292
118.936
114.104
26.1807
36.4838
36.3723
31.5956
40.3977
40.5711
39.1869
47.9102
48.0215
44.3564
55.0904
55.8072
56.0156
57.7441
58.4817
58.4865
57.4774
55.8142
56.137
54.9316
44.2814
48.0233
47.9479
39.1507
40.5687
40.4567
31.6579
36.4002
36.5064
26.5074
-3.34678
-0.130177
-1.22874
-1.90762
1.23483
0.32126
-0.353344
3.83152
2.47082
0.341357
5.93888
4.6298
3.85486
1.72124
4.90688
4.94214
1.73017
3.81222
4.94629
5.48424
0.286451
2.4754
3.91159
-0.394527
0.337244
1.24798
-1.87535
-1.20846
-0.123997
-3.30555
-4.8825
-5.05564
-4.96409
-4.83452
-5.0447
-4.91766
-4.84485
-5.1217
-4.98135
-4.85062
-5.1967
-5.0476
-4.92924
-5.26169
-5.17383
-5.19238
-5.24943
-4.9033
-5.01174
-5.18477
-4.84515
-4.97802
-5.12324
-4.85595
-4.93165
-5.04909
-4.82613
-4.95188
-5.04074
-4.88478
-5.07012
-5.09899
-5.1133
-5.09483
-5.12564
-5.12409
-5.11499
-5.14806
-5.13839
-5.13257
-5.18228
-5.17948
-5.18375
-5.17479
-5.2073
-5.20451
-5.17191
-5.17753
-5.18523
-5.18033
-5.12995
-5.13593
-5.14636
-5.11011
-5.11902
-5.12359
-5.0919
-5.11079
-5.09853
-5.06861
-5.22381
-5.23499
-5.23481
-5.2468
-5.25783
-5.26324
-5.26911
-5.2771
-5.27704
-5.27994
-5.29181
-5.29289
-5.28972
-5.2977
-5.29938
-5.29884
-5.29447
-5.28873
-5.29407
-5.29164
-5.27872
-5.2758
-5.27514
-5.26633
-5.26034
-5.25567
-5.24552
-5.23382
-5.23321
-5.22155
-5.34209
-5.34606
-5.35011
-5.35583
-5.36285
-5.36962
-5.37521
-5.37974
-5.38398
-5.38591
-5.39023
-5.39164
-5.39469
-5.39695
-5.39776
-5.39749
-5.3965
-5.39467
-5.39217
-5.39003
-5.38501
-5.38286
-5.37833
-5.37354
-5.36777
-5.36097
-5.35428
-5.34875
-5.34453
-5.34025
-5.44911
-5.45055
-5.45341
-5.4575
-5.46209
-5.46684
-5.47121
-5.47482
-5.47804
-5.48109
-5.48422
-5.48631
-5.48826
-5.48971
-5.49028
-5.49015
-5.4895
-5.48809
-5.48608
-5.48368
-5.48015
-5.4769
-5.47351
-5.4697
-5.46522
-5.46034
-5.45578
-5.45177
-5.44887
-5.44731
-5.55198
-5.55303
-5.55493
-5.55763
-5.56108
-5.56486
-5.56791
-5.57073
-5.57342
-5.5756
-5.57778
-5.5797
-5.5813
-5.58227
-5.58277
-5.58267
-5.58202
-5.58094
-5.57924
-5.5771
-5.57461
-5.57229
-5.56948
-5.56645
-5.56325
-5.55943
-5.55594
-5.5532
-5.55126
-5.5502
-5.65288
-5.65365
-5.65497
-5.6569
-5.65931
-5.66185
-5.66417
-5.66634
-5.66832
-5.66995
-5.67149
-5.67285
-5.674
-5.6748
-5.67514
-5.67503
-5.6745
-5.67358
-5.67227
-5.67069
-5.66899
-5.66719
-5.66509
-5.66276
-5.66032
-5.65766
-5.65524
-5.65328
-5.65183
-5.65106
-5.75236
-5.75288
-5.75379
-5.75516
-5.75675
-5.7585
-5.76019
-5.76173
-5.76316
-5.76436
-5.76533
-5.76618
-5.7669
-5.76737
-5.76755
-5.76746
-5.76706
-5.76643
-5.76555
-5.76449
-5.76338
-5.76203
-5.7605
-5.7588
-5.757
-5.75517
-5.75348
-5.75207
-5.75107
-5.75057
-5.85088
-5.85119
-5.8518
-5.85271
-5.85379
-5.85495
-5.85608
-5.85717
-5.8581
-5.85887
-5.8595
-5.85999
-5.86033
-5.86052
-5.86057
-5.86048
-5.86023
-5.85985
-5.85932
-5.85866
-5.8579
-5.85697
-5.85589
-5.85472
-5.85349
-5.85221
-5.85105
-5.8501
-5.8494
-5.84908
-5.94867
-5.94887
-5.9493
-5.94987
-5.95054
-5.9513
-5.95199
-5.95263
-5.9532
-5.95366
-5.954
-5.95421
-5.95433
-5.95435
-5.95432
-5.95423
-5.95407
-5.95386
-5.95353
-5.95314
-5.95265
-5.95208
-5.9514
-5.95063
-5.9498
-5.949
-5.94822
-5.94758
-5.94712
-5.9469
-6.04604
-6.04616
-6.04642
-6.04677
-6.04715
-6.04757
-6.04794
-6.04827
-6.04856
-6.04875
-6.04884
-6.04885
-6.04883
-6.04876
-6.04868
-6.04858
-6.04847
-6.04836
-6.04819
-6.048
-6.04774
-6.04742
-6.04704
-6.0466
-6.0461
-6.04561
-6.04514
-6.04471
-6.04443
-6.04429
-6.14313
-6.14321
-6.14335
-6.1435
-6.1437
-6.14389
-6.14401
-6.14411
-6.14417
-6.14416
-6.14407
-6.14394
-6.14382
-6.1437
-6.14358
-6.14347
-6.1434
-6.14336
-6.14331
-6.14324
-6.14314
-6.14302
-6.14288
-6.14268
-6.14244
-6.14217
-6.1419
-6.14166
-6.14151
-6.14143
-6.2401
-6.24014
-6.24016
-6.24022
-6.24028
-6.24028
-6.24023
-6.24017
-6.24007
-6.2399
-6.23968
-6.23947
-6.23929
-6.23911
-6.23895
-6.23884
-6.23882
-6.23883
-6.23884
-6.23886
-6.23889
-6.23893
-6.23895
-6.23892
-6.23885
-6.23875
-6.23864
-6.23853
-6.23846
-6.23842
-6.33701
-6.337
-6.33698
-6.33697
-6.33692
-6.33679
-6.33663
-6.33645
-6.33623
-6.33596
-6.33567
-6.33542
-6.33517
-6.33494
-6.33477
-6.33468
-6.33468
-6.33471
-6.33477
-6.33486
-6.33499
-6.33512
-6.33525
-6.33533
-6.33538
-6.33541
-6.33541
-6.33539
-6.33536
-6.33535
-6.43392
-6.43389
-6.43385
-6.43376
-6.43363
-6.43345
-6.43322
-6.43295
-6.43266
-6.43233
-6.432
-6.4317
-6.43142
-6.43118
-6.43102
-6.43094
-6.43094
-6.43098
-6.43106
-6.43121
-6.4314
-6.43159
-6.43176
-6.43192
-6.43206
-6.43217
-6.43224
-6.43227
-6.43229
-6.43229
-6.53088
-6.53085
-6.53076
-6.53063
-6.53048
-6.53026
-6.52997
-6.52966
-6.52933
-6.52897
-6.52862
-6.5283
-6.52801
-6.52778
-6.52763
-6.52755
-6.52755
-6.52759
-6.5277
-6.52787
-6.52807
-6.52829
-6.5285
-6.52871
-6.5289
-6.52905
-6.52916
-6.52923
-6.52927
-6.52929
-6.62791
-6.62786
-6.62775
-6.62763
-6.62746
-6.6272
-6.62689
-6.62656
-6.62622
-6.62585
-6.6255
-6.62517
-6.62489
-6.62468
-6.62453
-6.62444
-6.62444
-6.62449
-6.62461
-6.62478
-6.62499
-6.62521
-6.62544
-6.62568
-6.62589
-6.62606
-6.62618
-6.62627
-6.62634
-6.62637
-6.72501
-6.72495
-6.72487
-6.72475
-6.72455
-6.72427
-6.72397
-6.72364
-6.7233
-6.72294
-6.72259
-6.72228
-6.72201
-6.7218
-6.72166
-6.72158
-6.72158
-6.72164
-6.72174
-6.72189
-6.72209
-6.72232
-6.72256
-6.7228
-6.72301
-6.72318
-6.72332
-6.72342
-6.7235
-6.72354
-6.82221
-6.82216
-6.82208
-6.82194
-6.82173
-6.82149
-6.8212
-6.82087
-6.82054
-6.82019
-6.81986
-6.81956
-6.81931
-6.81912
-6.819
-6.81893
-6.81892
-6.81896
-6.81905
-6.81919
-6.81938
-6.81961
-6.81985
-6.82007
-6.82026
-6.82043
-6.82056
-6.82067
-6.82076
-6.8208
-6.9195
-6.91947
-6.91937
-6.91922
-6.91904
-6.91882
-6.91854
-6.91823
-6.9179
-6.91758
-6.91727
-6.917
-6.91678
-6.91661
-6.91649
-6.91642
-6.91641
-6.91644
-6.91652
-6.91665
-6.91684
-6.91705
-6.91726
-6.91746
-6.91763
-6.91779
-6.91792
-6.91803
-6.91812
-6.91816
-7.01688
-7.01683
-7.01674
-7.01661
-7.01645
-7.01624
-7.01597
-7.01568
-7.01538
-7.01509
-7.01481
-7.01458
-7.01438
-7.01421
-7.0141
-7.01404
-7.01402
-7.01405
-7.01412
-7.01424
-7.01441
-7.01459
-7.01478
-7.01495
-7.01511
-7.01526
-7.01539
-7.01549
-7.01557
-7.0156
-7.11432
-7.11427
-7.1142
-7.1141
-7.11394
-7.11373
-7.1135
-7.11323
-7.11296
-7.1127
-7.11246
-7.11224
-7.11206
-7.11191
-7.1118
-7.11174
-7.11173
-7.11176
-7.11182
-7.11193
-7.11206
-7.11222
-7.11239
-7.11254
-7.11269
-7.11283
-7.11294
-7.11303
-7.11309
-7.11312
-7.21183
-7.21181
-7.21175
-7.21164
-7.21149
-7.21131
-7.2111
-7.21086
-7.21062
-7.21039
-7.21018
-7.20998
-7.20981
-7.20968
-7.20958
-7.20954
-7.20953
-7.20955
-7.20961
-7.20969
-7.2098
-7.20993
-7.21008
-7.21022
-7.21035
-7.21047
-7.21057
-7.21065
-7.21069
-7.21072
-7.30942
-7.3094
-7.30934
-7.30924
-7.30911
-7.30895
-7.30877
-7.30855
-7.30834
-7.30814
-7.30795
-7.30778
-7.30763
-7.30751
-7.30744
-7.3074
-7.30739
-7.30741
-7.30745
-7.30752
-7.30761
-7.30772
-7.30784
-7.30796
-7.30808
-7.30818
-7.30826
-7.30832
-7.30836
-7.30838
-7.40705
-7.40701
-7.40697
-7.40689
-7.40678
-7.40665
-7.40649
-7.4063
-7.40612
-7.40595
-7.40578
-7.40563
-7.4055
-7.40541
-7.40534
-7.4053
-7.40529
-7.4053
-7.40535
-7.40541
-7.40548
-7.40556
-7.40566
-7.40575
-7.40585
-7.40593
-7.406
-7.40606
-7.40609
-7.40611
-7.5047
-7.50469
-7.50466
-7.5046
-7.50451
-7.50439
-7.50424
-7.50408
-7.50392
-7.50378
-7.50364
-7.50352
-7.50342
-7.50333
-7.50327
-7.50323
-7.50322
-7.50324
-7.50327
-7.50333
-7.50339
-7.50345
-7.50352
-7.50359
-7.50366
-7.50373
-7.5038
-7.50385
-7.50388
-7.5039
-7.60243
-7.60243
-7.6024
-7.60234
-7.60225
-7.60213
-7.60201
-7.60189
-7.60177
-7.60166
-7.60155
-7.60145
-7.60136
-7.60128
-7.60122
-7.60119
-7.60118
-7.60119
-7.60123
-7.60127
-7.60132
-7.60137
-7.60142
-7.60148
-7.60153
-7.60158
-7.60164
-7.60168
-7.60172
-7.60174
-7.70021
-7.70019
-7.70016
-7.7001
-7.70001
-7.69991
-7.69982
-7.69975
-7.69966
-7.69957
-7.69948
-7.6994
-7.69932
-7.69926
-7.69921
-7.69918
-7.69918
-7.69919
-7.69922
-7.69926
-7.6993
-7.69934
-7.69937
-7.6994
-7.69944
-7.69947
-7.69951
-7.69955
-7.69959
-7.6996
-7.79801
-7.79799
-7.79795
-7.79789
-7.79781
-7.79775
-7.7977
-7.79765
-7.79759
-7.79751
-7.79743
-7.79737
-7.79731
-7.79727
-7.79723
-7.79721
-7.79721
-7.79721
-7.79724
-7.79727
-7.7973
-7.79732
-7.79734
-7.79736
-7.79737
-7.7974
-7.79743
-7.79746
-7.7975
-7.79752
-7.89586
-7.89585
-7.8958
-7.89575
-7.8957
-7.89566
-7.89563
-7.89558
-7.89552
-7.89546
-7.8954
-7.89536
-7.89533
-7.8953
-7.89528
-7.89526
-7.89525
-7.89526
-7.89527
-7.89529
-7.89531
-7.89532
-7.89533
-7.89533
-7.89534
-7.89536
-7.89539
-7.89543
-7.89546
-7.89548
-7.99379
-7.99377
-7.99371
-7.99366
-7.99363
-7.9936
-7.99356
-7.99352
-7.99348
-7.99344
-7.99341
-7.99339
-7.99337
-7.99335
-7.99333
-7.99331
-7.99331
-7.99331
-7.99332
-7.99334
-7.99334
-7.99335
-7.99335
-7.99335
-7.99336
-7.99339
-7.99341
-7.99344
-7.99346
-7.99348
-8.09175
-8.09172
-8.09167
-8.09162
-8.09159
-8.09155
-8.09152
-8.0915
-8.09148
-8.09148
-8.09147
-8.09147
-8.09145
-8.09143
-8.0914
-8.09139
-8.09139
-8.0914
-8.09141
-8.09141
-8.09141
-8.09141
-8.09141
-8.09142
-8.09143
-8.09145
-8.09147
-8.09149
-8.0915
-8.09151
-8.18976
-8.18973
-8.18968
-8.18963
-8.18959
-8.18956
-8.18954
-8.18954
-8.18954
-8.18956
-8.18956
-8.18956
-8.18954
-8.18952
-8.1895
-8.1895
-8.1895
-8.18951
-8.18952
-8.18952
-8.18951
-8.18951
-8.18951
-8.18951
-8.18952
-8.18954
-8.18955
-8.18957
-8.18958
-8.18959
-8.28782
-8.28779
-8.28775
-8.28771
-8.28767
-8.28764
-8.28763
-8.28763
-8.28764
-8.28765
-8.28765
-8.28765
-8.28763
-8.28762
-8.28762
-8.28763
-8.28764
-8.28764
-8.28764
-8.28763
-8.28763
-8.28762
-8.28762
-8.28763
-8.28765
-8.28767
-8.28768
-8.28769
-8.28771
-8.28772
-8.38592
-8.3859
-8.38587
-8.38585
-8.38582
-8.38579
-8.38577
-8.38576
-8.38575
-8.38575
-8.38575
-8.38574
-8.38574
-8.38575
-8.38576
-8.38577
-8.38578
-8.38577
-8.38576
-8.38575
-8.38575
-8.38575
-8.38577
-8.38579
-8.38581
-8.38584
-8.38586
-8.38588
-8.3859
-8.38591
-8.48407
-8.48405
-8.48404
-8.48404
-8.48401
-8.48398
-8.48394
-8.48391
-8.48389
-8.48387
-8.48386
-8.48386
-8.48387
-8.48389
-8.4839
-8.48391
-8.48391
-8.4839
-8.48389
-8.48388
-8.48388
-8.4839
-8.48393
-8.48397
-8.48401
-8.48405
-8.48409
-8.48412
-8.48414
-8.48415
-8.58228
-8.58228
-8.58228
-8.58227
-8.58224
-8.58219
-8.58214
-8.58209
-8.58205
-8.58202
-8.582
-8.582
-8.582
-8.58202
-8.58203
-8.58203
-8.58202
-8.58201
-8.582
-8.58201
-8.58202
-8.58206
-8.58211
-8.58216
-8.58222
-8.58228
-8.58233
-8.58237
-8.5824
-8.58241
-8.68057
-8.68058
-8.68058
-8.68055
-8.6805
-8.68044
-8.68038
-8.68031
-8.68025
-8.68019
-8.68015
-8.68013
-8.68013
-8.68013
-8.68013
-8.68012
-8.68012
-8.68011
-8.68012
-8.68014
-8.68017
-8.68022
-8.68029
-8.68036
-8.68044
-8.68051
-8.68058
-8.68063
-8.68067
-8.68069
-8.77892
-8.77893
-8.7789
-8.77885
-8.77878
-8.77871
-8.77863
-8.77855
-8.77846
-8.77838
-8.77831
-8.77826
-8.77823
-8.77821
-8.77821
-8.7782
-8.7782
-8.77821
-8.77823
-8.77827
-8.77832
-8.77839
-8.77848
-8.77857
-8.77866
-8.77876
-8.77884
-8.77891
-8.77895
-8.77897
-8.87726
-8.87725
-8.87721
-8.87714
-8.87707
-8.87699
-8.87689
-8.87678
-8.87666
-8.87655
-8.87646
-8.87639
-8.87634
-8.8763
-8.87628
-8.87628
-8.87629
-8.87631
-8.87636
-8.87642
-8.87649
-8.87659
-8.87669
-8.8768
-8.87691
-8.87702
-8.87711
-8.87718
-8.87723
-8.87726
-8.97554
-8.97553
-8.97548
-8.97542
-8.97535
-8.97525
-8.97514
-8.975
-8.97487
-8.97474
-8.97463
-8.97454
-8.97447
-8.97441
-8.97439
-8.97438
-8.9744
-8.97444
-8.9745
-8.97459
-8.97469
-8.97481
-8.97493
-8.97506
-8.97518
-8.97529
-8.97539
-8.97546
-8.97551
-8.97553
-9.07378
-9.07376
-9.07373
-9.07368
-9.07361
-9.07351
-9.07338
-9.07324
-9.0731
-9.07296
-9.07284
-9.07273
-9.07264
-9.07257
-9.07253
-9.07252
-9.07254
-9.0726
-9.07268
-9.07279
-9.07291
-9.07305
-9.07319
-9.07332
-9.07345
-9.07356
-9.07365
-9.07372
-9.07376
-9.07378
-9.17199
-9.17198
-9.17196
-9.17191
-9.17184
-9.17173
-9.17161
-9.17148
-9.17135
-9.17122
-9.17109
-9.17097
-9.17087
-9.17079
-9.17074
-9.17072
-9.17075
-9.17081
-9.1709
-9.17102
-9.17116
-9.1713
-9.17145
-9.17158
-9.1717
-9.17181
-9.17189
-9.17195
-9.17198
-9.17199
-9.27018
-9.27018
-9.27016
-9.27011
-9.27003
-9.26994
-9.26984
-9.26973
-9.26961
-9.26949
-9.26937
-9.26925
-9.26914
-9.26905
-9.269
-9.26898
-9.269
-9.26907
-9.26916
-9.26929
-9.26942
-9.26956
-9.2697
-9.26982
-9.26993
-9.27002
-9.27009
-9.27014
-9.27016
-9.27017
-9.36835
-9.36835
-9.36832
-9.36827
-9.3682
-9.36813
-9.36805
-9.36797
-9.36788
-9.36777
-9.36766
-9.36754
-9.36744
-9.36735
-9.3673
-9.36729
-9.36731
-9.36737
-9.36746
-9.36757
-9.3677
-9.36782
-9.36794
-9.36804
-9.36813
-9.36821
-9.36826
-9.3683
-9.36832
-9.36833
-9.4665
-9.46649
-9.46646
-9.46641
-9.46637
-9.46632
-9.46628
-9.46622
-9.46615
-9.46606
-9.46595
-9.46585
-9.46576
-9.46568
-9.46564
-9.46563
-9.46565
-9.46571
-9.46578
-9.46588
-9.46598
-9.46607
-9.46617
-9.46625
-9.46632
-9.46637
-9.46642
-9.46645
-9.46646
-9.46647
-9.56464
-9.56463
-9.5646
-9.56457
-9.56455
-9.56453
-9.5645
-9.56446
-9.56441
-9.56434
-9.56425
-9.56417
-9.56409
-9.56404
-9.56401
-9.564
-9.56402
-9.56406
-9.56412
-9.56418
-9.56426
-9.56432
-9.56439
-9.56445
-9.5645
-9.56454
-9.56457
-9.56459
-9.56461
-9.56461
-9.66278
-9.66277
-9.66275
-9.66274
-9.66274
-9.66273
-9.66272
-9.66269
-9.66266
-9.66261
-9.66255
-9.6625
-9.66245
-9.66241
-9.66239
-9.66239
-9.6624
-9.66243
-9.66246
-9.6625
-9.66254
-9.66258
-9.66262
-9.66266
-9.66269
-9.66271
-9.66273
-9.66275
-9.66276
-9.66276
-9.76093
-9.76092
-9.76092
-9.76092
-9.76092
-9.76092
-9.76091
-9.7609
-9.76089
-9.76087
-9.76085
-9.76083
-9.76082
-9.7608
-9.7608
-9.76079
-9.7608
-9.76081
-9.76082
-9.76083
-9.76084
-9.76086
-9.76087
-9.76088
-9.76089
-9.7609
-9.76091
-9.76091
-9.76092
-9.76092
4846.26
4846.26
4846.26
4846.26
4846.26
4846.26
4846.25
4846.25
4846.25
4846.25
4846.25
4846.24
4846.24
4846.24
4846.24
4846.24
4846.24
4846.24
4846.24
4846.24
4846.24
4846.24
4846.23
4846.23
4846.23
4846.23
4846.23
4846.23
4846.23
4846.24
4748.16
4748.16
4748.16
4748.15
4748.15
4748.15
4748.15
4748.15
4748.15
4748.15
4748.15
4748.14
4748.14
4748.14
4748.14
4748.14
4748.14
4748.14
4748.14
4748.14
4748.14
4748.13
4748.13
4748.13
4748.13
4748.13
4748.13
4748.12
4748.13
4748.12
4650.05
4650.05
4650.05
4650.05
4650.05
4650.05
4650.05
4650.05
4650.05
4650.05
4650.05
4650.04
4650.04
4650.04
4650.04
4650.04
4650.04
4650.04
4650.03
4650.03
4650.03
4650.03
4650.03
4650.03
4650.03
4650.02
4650.02
4650.02
4650.02
4650.02
4551.94
4551.94
4551.94
4551.94
4551.94
4551.94
4551.94
4551.94
4551.94
4551.95
4551.95
4551.94
4551.94
4551.94
4551.94
4551.94
4551.94
4551.93
4551.93
4551.93
4551.93
4551.93
4551.93
4551.93
4551.92
4551.92
4551.92
4551.92
4551.92
4551.92
4453.83
4453.83
4453.83
4453.83
4453.83
4453.83
4453.84
4453.84
4453.84
4453.84
4453.84
4453.84
4453.84
4453.84
4453.84
4453.84
4453.84
4453.84
4453.83
4453.83
4453.83
4453.83
4453.83
4453.82
4453.82
4453.82
4453.82
4453.82
4453.81
4453.82
4355.72
4355.72
4355.72
4355.72
4355.73
4355.73
4355.73
4355.73
4355.74
4355.74
4355.74
4355.74
4355.74
4355.74
4355.74
4355.74
4355.74
4355.74
4355.73
4355.73
4355.73
4355.73
4355.72
4355.72
4355.72
4355.72
4355.72
4355.72
4355.71
4355.71
4257.62
4257.62
4257.62
4257.62
4257.62
4257.62
4257.63
4257.63
4257.63
4257.63
4257.64
4257.64
4257.64
4257.64
4257.64
4257.64
4257.64
4257.63
4257.63
4257.63
4257.63
4257.62
4257.62
4257.62
4257.62
4257.62
4257.61
4257.61
4257.61
4257.61
4159.52
4159.52
4159.52
4159.52
4159.52
4159.52
4159.52
4159.53
4159.53
4159.53
4159.53
4159.53
4159.53
4159.53
4159.53
4159.53
4159.53
4159.53
4159.53
4159.53
4159.52
4159.52
4159.52
4159.52
4159.51
4159.51
4159.51
4159.51
4159.51
4159.51
4061.42
4061.43
4061.43
4061.43
4061.43
4061.43
4061.42
4061.43
4061.43
4061.43
4061.43
4061.43
4061.43
4061.43
4061.43
4061.43
4061.43
4061.43
4061.43
4061.42
4061.42
4061.42
4061.42
4061.41
4061.41
4061.41
4061.41
4061.41
4061.41
4061.41
3963.33
3963.33
3963.33
3963.33
3963.33
3963.33
3963.33
3963.32
3963.32
3963.32
3963.32
3963.32
3963.32
3963.32
3963.32
3963.32
3963.32
3963.32
3963.32
3963.32
3963.32
3963.32
3963.32
3963.31
3963.31
3963.31
3963.31
3963.31
3963.31
3963.31
3865.23
3865.23
3865.23
3865.23
3865.23
3865.23
3865.22
3865.22
3865.22
3865.22
3865.22
3865.22
3865.22
3865.22
3865.22
3865.22
3865.22
3865.22
3865.22
3865.22
3865.22
3865.22
3865.22
3865.22
3865.22
3865.21
3865.21
3865.21
3865.21
3865.21
3767.12
3767.12
3767.12
3767.12
3767.12
3767.12
3767.12
3767.12
3767.12
3767.12
3767.12
3767.12
3767.12
3767.12
3767.12
3767.12
3767.12
3767.12
3767.12
3767.12
3767.12
3767.12
3767.12
3767.12
3767.12
3767.12
3767.12
3767.12
3767.12
3767.12
3669.02
3669.02
3669.02
3669.02
3669.02
3669.02
3669.02
3669.02
3669.02
3669.02
3669.02
3669.02
3669.01
3669.01
3669.01
3669.02
3669.02
3669.02
3669.02
3669.02
3669.02
3669.02
3669.02
3669.02
3669.02
3669.02
3669.02
3669.02
3669.02
3669.02
3570.91
3570.91
3570.91
3570.91
3570.91
3570.91
3570.92
3570.92
3570.92
3570.92
3570.92
3570.91
3570.91
3570.91
3570.91
3570.91
3570.91
3570.92
3570.92
3570.92
3570.92
3570.92
3570.92
3570.92
3570.92
3570.92
3570.92
3570.92
3570.92
3570.92
3472.8
3472.8
3472.81
3472.81
3472.81
3472.81
3472.81
3472.81
3472.81
3472.81
3472.81
3472.81
3472.81
3472.81
3472.81
3472.81
3472.81
3472.81
3472.81
3472.81
3472.81
3472.82
3472.82
3472.82
3472.82
3472.82
3472.82
3472.82
3472.82
3472.82
3374.7
3374.7
3374.71
3374.71
3374.71
3374.71
3374.71
3374.71
3374.71
3374.71
3374.71
3374.71
3374.71
3374.71
3374.71
3374.71
3374.71
3374.71
3374.71
3374.71
3374.71
3374.71
3374.72
3374.72
3374.72
3374.72
3374.72
3374.72
3374.72
3374.72
3276.6
3276.6
3276.6
3276.61
3276.61
3276.61
3276.61
3276.61
3276.61
3276.61
3276.61
3276.61
3276.61
3276.61
3276.61
3276.61
3276.61
3276.61
3276.61
3276.61
3276.61