/*--------------------------------*- C++ -*----------------------------------*\
| =========                 |                                                 |
| \\      /  F ield         | OpenFOAM: The Open Source CFD Toolbox           |
|  \\    /   O peration     | Version:  2312                                  |
|   \\  /    A nd           | Website:  www.openfoam.com                      |
|    \\/     M anipulation  |                                                 |
\*---------------------------------------------------------------------------*/
FoamFile
{
    version     2.0;
    format      ascii;
    arch        "LSB;label=32;scalar=64";
    class       volScalarField;
    location    "0.941998";
    object      p_rgh;
}
// * * * * * * * * * * * * * * * * * * * * * * * * * * * * * * * * * * * * * //

dimensions      [1 -1 -2 0 0 0 0];

internalField   nonuniform List<scalar> 
90000
(
4895.31
4895.32
4895.31
4895.31
4895.31
4895.31
4895.31
4895.3
4895.3
4895.3
4895.3
4895.29
4895.29
4895.29
4895.29
4895.29
4895.29
4895.29
4895.29
4895.29
4895.29
4895.29
4895.29
4895.28
4895.28
4895.28
4895.28
4895.28
4895.28
4895.27
4895.31
4895.32
4895.32
4895.31
4895.31
4895.31
4895.3
4895.3
4895.3
4895.3
4895.3
4895.29
4895.29
4895.29
4895.29
4895.3
4895.3
4895.3
4895.29
4895.29
4895.29
4895.29
4895.28
4895.28
4895.28
4895.28
4895.28
4895.28
4895.27
4895.22
4895.31
4895.31
4895.31
4895.31
4895.31
4895.3
4895.3
4895.3
4895.3
4895.3
4895.3
4895.29
4895.29
4895.29
4895.29
4895.29
4895.29
4895.29
4895.29
4895.29
4895.28
4895.28
4895.28
4895.28
4895.28
4895.28
4895.29
4895.31
4895.35
4895.27
4895.3
4895.3
4895.3
4895.3
4895.3
4895.3
4895.3
4895.3
4895.3
4895.3
4895.3
4895.3
4895.29
4895.29
4895.28
4895.28
4895.28
4895.28
4895.28
4895.28
4895.28
4895.28
4895.28
4895.28
4895.28
4895.27
4895.26
4895.26
4895.3
4895.27
4895.29
4895.29
4895.29
4895.29
4895.29
4895.29
4895.3
4895.3
4895.3
4895.3
4895.3
4895.3
4895.29
4895.29
4895.28
4895.28
4895.27
4895.27
4895.27
4895.27
4895.28
4895.28
4895.28
4895.28
4895.28
4895.28
4895.28
4895.26
4895.27
4895.26
4895.28
4895.27
4895.27
4895.27
4895.28
4895.29
4895.29
4895.3
4895.3
4895.31
4895.3
4895.3
4895.3
4895.29
4895.28
4895.28
4895.27
4895.27
4895.27
4895.28
4895.28
4895.28
4895.28
4895.28
4895.28
4895.27
4895.27
4895.26
4895.26
4895.26
4895.26
4895.25
4895.25
4895.26
4895.27
4895.27
4895.28
4895.29
4895.3
4895.3
4895.31
4895.3
4895.3
4895.3
4895.29
4895.29
4895.28
4895.28
4895.28
4895.28
4895.28
4895.28
4895.28
4895.28
4895.28
4895.27
4895.27
4895.26
4895.26
4895.26
4895.25
4895.24
4895.24
4895.25
4895.25
4895.26
4895.27
4895.28
4895.29
4895.29
4895.3
4895.3
4895.31
4895.31
4895.3
4895.3
4895.3
4895.29
4895.29
4895.29
4895.29
4895.29
4895.29
4895.28
4895.28
4895.28
4895.27
4895.27
4895.27
4895.28
4895.25
4895.24
4895.24
4895.25
4895.25
4895.26
4895.26
4895.27
4895.28
4895.28
4895.29
4895.3
4895.3
4895.31
4895.31
4895.31
4895.31
4895.3
4895.3
4895.29
4895.29
4895.28
4895.28
4895.28
4895.27
4895.27
4895.27
4895.27
4895.28
4895.28
4895.25
4895.26
4895.26
4895.27
4895.27
4895.27
4895.27
4895.27
4895.27
4895.27
4895.28
4895.29
4895.3
4895.31
4895.32
4895.32
4895.31
4895.31
4895.3
4895.29
4895.28
4895.27
4895.27
4895.26
4895.26
4895.26
4895.26
4895.27
4895.28
4895.27
4895.27
4895.3
4895.3
4895.3
4895.3
4895.29
4895.28
4895.27
4895.27
4895.27
4895.27
4895.28
4895.29
4895.3
4895.3
4895.31
4895.3
4895.3
4895.29
4895.28
4895.27
4895.26
4895.26
4895.25
4895.25
4895.25
4895.26
4895.26
4895.26
4895.25
4895.3
4895.35
4895.34
4895.33
4895.32
4895.31
4895.29
4895.28
4895.27
4895.26
4895.26
4895.27
4895.27
4895.27
4895.28
4895.28
4895.28
4895.28
4895.28
4895.27
4895.27
4895.26
4895.25
4895.25
4895.25
4895.26
4895.26
4895.26
4895.25
4895.25
4895.32
4895.37
4895.35
4895.34
4895.32
4895.3
4895.28
4895.27
4895.26
4895.25
4895.25
4895.24
4895.24
4895.24
4895.24
4895.25
4895.25
4895.26
4895.26
4895.26
4895.27
4895.26
4895.26
4895.26
4895.26
4895.27
4895.26
4895.26
4895.26
4895.27
4895.33
4895.34
4895.32
4895.3
4895.28
4895.27
4895.26
4895.25
4895.24
4895.24
4895.24
4895.23
4895.22
4895.22
4895.22
4895.23
4895.24
4895.25
4895.26
4895.27
4895.27
4895.27
4895.27
4895.27
4895.27
4895.26
4895.26
4895.25
4895.25
4895.25
4895.3
4895.27
4895.26
4895.25
4895.24
4895.24
4895.24
4895.24
4895.25
4895.25
4895.24
4895.24
4895.23
4895.22
4895.22
4895.23
4895.24
4895.25
4895.26
4895.27
4895.27
4895.27
4895.27
4895.27
4895.26
4895.25
4895.24
4895.24
4895.23
4895.22
4895.25
4895.2
4895.2
4895.2
4895.21
4895.23
4895.24
4895.26
4895.27
4895.27
4895.26
4895.24
4895.23
4895.23
4895.23
4895.23
4895.24
4895.25
4895.26
4895.26
4895.26
4895.27
4895.27
4895.28
4895.27
4895.26
4895.25
4895.25
4895.24
4895.24
4895.21
4895.16
4895.18
4895.19
4895.21
4895.24
4895.25
4895.26
4895.27
4895.26
4895.24
4895.23
4895.22
4895.22
4895.22
4895.23
4895.23
4895.23
4895.23
4895.24
4895.25
4895.27
4895.28
4895.29
4895.29
4895.29
4895.28
4895.28
4895.28
4895.3
4895.19
4895.16
4895.18
4895.2
4895.22
4895.24
4895.24
4895.24
4895.24
4895.23
4895.22
4895.21
4895.22
4895.22
4895.22
4895.22
4895.22
4895.22
4895.22
4895.23
4895.25
4895.27
4895.28
4895.28
4895.28
4895.28
4895.28
4895.28
4895.3
4895.3
4895.2
4895.18
4895.19
4895.2
4895.22
4895.22
4895.22
4895.22
4895.21
4895.21
4895.22
4895.23
4895.25
4895.26
4895.26
4895.25
4895.24
4895.23
4895.23
4895.24
4895.26
4895.27
4895.26
4895.25
4895.24
4895.24
4895.24
4895.25
4895.25
4895.22
4895.2
4895.19
4895.2
4895.21
4895.22
4895.22
4895.23
4895.23
4895.24
4895.25
4895.27
4895.29
4895.3
4895.3
4895.28
4895.26
4895.25
4895.24
4895.25
4895.26
4895.26
4895.25
4895.23
4895.22
4895.21
4895.22
4895.22
4895.22
4895.2
4895.18
4895.21
4895.2
4895.21
4895.23
4895.24
4895.26
4895.26
4895.27
4895.28
4895.29
4895.3
4895.31
4895.3
4895.28
4895.26
4895.24
4895.24
4895.25
4895.25
4895.26
4895.24
4895.22
4895.21
4895.21
4895.23
4895.24
4895.24
4895.23
4895.21
4895.23
4895.21
4895.23
4895.24
4895.26
4895.27
4895.28
4895.29
4895.29
4895.29
4895.28
4895.28
4895.26
4895.24
4895.22
4895.22
4895.23
4895.24
4895.26
4895.26
4895.25
4895.22
4895.2
4895.21
4895.24
4895.26
4895.27
4895.25
4895.23
4895.23
4895.25
4895.22
4895.25
4895.26
4895.27
4895.27
4895.27
4895.27
4895.26
4895.26
4895.25
4895.24
4895.22
4895.21
4895.21
4895.23
4895.26
4895.29
4895.3
4895.28
4895.25
4895.23
4895.23
4895.26
4895.28
4895.28
4895.25
4895.23
4895.21
4895.21
4895.2
4895.23
4895.24
4895.24
4895.24
4895.24
4895.24
4895.24
4895.25
4895.25
4895.25
4895.24
4895.23
4895.23
4895.25
4895.28
4895.31
4895.31
4895.3
4895.27
4895.25
4895.25
4895.29
4895.31
4895.31
4895.28
4895.25
4895.24
4895.23
4895.21
4895.24
4895.21
4895.21
4895.21
4895.22
4895.22
4895.23
4895.24
4895.25
4895.26
4895.25
4895.24
4895.23
4895.24
4895.26
4895.28
4895.28
4895.27
4895.24
4895.23
4895.25
4895.29
4895.32
4895.32
4895.29
4895.27
4895.26
4895.27
4895.27
4895.29
4895.33
4895.19
4895.19
4895.2
4895.2
4895.2
4895.21
4895.22
4895.23
4895.23
4895.22
4895.21
4895.22
4895.23
4895.25
4895.26
4895.25
4895.23
4895.22
4895.24
4895.28
4895.31
4895.3
4895.27
4895.23
4895.23
4895.25
4895.25
4895.28
4895.33
4895.26
4895.18
4895.17
4895.16
4895.16
4895.16
4895.17
4895.18
4895.19
4895.19
4895.2
4895.21
4895.24
4895.26
4895.28
4895.28
4895.27
4895.26
4895.27
4895.29
4895.3
4895.28
4895.24
4895.21
4895.19
4895.22
4895.23
4895.22
4895.24
4895.24
4895.14
4895.15
4895.12
4895.12
4895.11
4895.11
4895.13
4895.15
4895.17
4895.19
4895.21
4895.24
4895.28
4895.3
4895.3
4895.29
4895.27
4895.27
4895.27
4895.27
4895.24
4895.2
4895.18
4895.19
4895.2
4895.22
4895.22
4895.2
4895.19
4895.13
4895.18
4895.11
4895.08
4895.09
4895.09
4895.11
4895.12
4895.14
4895.16
4895.18
4895.21
4895.25
4895.27
4895.28
4895.27
4895.25
4895.25
4895.25
4895.24
4895.22
4895.18
4895.15
4895.16
4895.2
4895.19
4895.17
4895.18
4895.17
4895.11
4895.14
4895.22
4895.08
4895.08
4895.09
4895.1
4895.1
4895.11
4895.11
4895.13
4895.16
4895.2
4895.24
4895.26
4895.27
4895.27
4895.27
4895.27
4895.27
4895.24
4895.21
4895.2
4895.2
4895.19
4895.18
4895.14
4895.11
4895.12
4895.12
4895.1
4895.18
4895.12
4895.06
4895.08
4895.08
4895.07
4895.07
4895.07
4895.09
4895.13
4895.18
4895.23
4895.28
4895.3
4895.31
4895.31
4895.31
4895.3
4895.28
4895.26
4895.24
4895.25
4895.25
4895.18
4895.13
4895.12
4895.1
4895.09
4895.11
4895.13
4895.1
4895.05
4895.03
4895.03
4895.02
4895.03
4895.05
4895.08
4895.12
4895.16
4895.21
4895.26
4895.29
4895.3
4895.31
4895.32
4895.31
4895.3
4895.29
4895.29
4895.29
4895.28
4895.24
4895.14
4895.11
4895.13
4895.1
4895.04
4895.08
4895.06
4894.96
4895.03
4894.96
4894.96
4894.98
4895.01
4895.05
4895.08
4895.11
4895.14
4895.18
4895.21
4895.25
4895.29
4895.32
4895.35
4895.36
4895.35
4895.35
4895.37
4895.33
4895.25
4895.19
4895.13
4895.13
4895.13
4895.05
4894.99
4895.01
4894.95
4894.96
4894.97
4894.88
4894.9
4894.93
4894.96
4894.99
4895.02
4895.05
4895.1
4895.15
4895.22
4895.29
4895.36
4895.4
4895.42
4895.42
4895.42
4895.39
4895.39
4895.32
4895.2
4895.18
4895.19
4895.15
4895.06
4895
4894.97
4894.95
4894.92
4894.92
4894.89
4894.78
4894.8
4894.83
4894.87
4894.92
4894.97
4895.04
4895.11
4895.19
4895.28
4895.37
4895.43
4895.45
4895.45
4895.44
4895.47
4895.44
4895.42
4895.37
4895.3
4895.31
4895.3
4895.16
4895.01
4895.01
4894.97
4894.89
4894.85
4894.77
4894.78
4894.63
4894.65
4894.71
4894.77
4894.85
4894.92
4895.01
4895.11
4895.21
4895.31
4895.4
4895.46
4895.49
4895.52
4895.54
4895.62
4895.58
4895.52
4895.49
4895.46
4895.41
4895.29
4895.11
4895.01
4895.02
4894.88
4894.75
4894.67
4894.67
4894.66
4894.45
4894.5
4894.56
4894.63
4894.71
4894.82
4894.94
4895.09
4895.22
4895.34
4895.43
4895.51
4895.58
4895.69
4895.69
4895.75
4895.67
4895.59
4895.55
4895.52
4895.37
4895.2
4895.08
4895.01
4894.91
4894.69
4894.59
4894.55
4894.54
4894.5
4894.22
4894.26
4894.31
4894.41
4894.55
4894.72
4894.9
4895.06
4895.2
4895.35
4895.48
4895.63
4895.71
4895.86
4895.85
4895.86
4895.8
4895.77
4895.69
4895.6
4895.37
4895.22
4895.12
4894.93
4894.7
4894.52
4894.45
4894.38
4894.25
4894.23
4893.89
4893.92
4894.03
4894.19
4894.38
4894.58
4894.78
4894.99
4895.21
4895.44
4895.63
4895.84
4895.88
4896.02
4896.05
4896.05
4895.98
4896
4895.82
4895.64
4895.42
4895.27
4895.08
4894.74
4894.51
4894.39
4894.2
4894
4893.94
4893.94
4893.45
4893.53
4893.66
4893.85
4894.07
4894.34
4894.65
4894.96
4895.26
4895.53
4895.7
4895.96
4896.1
4896.21
4896.31
4896.3
4896.15
4896.14
4895.96
4895.72
4895.52
4895.27
4894.95
4894.59
4894.35
4894.14
4893.8
4893.63
4893.65
4893.57
4892.9
4892.96
4893.12
4893.39
4893.74
4894.09
4894.45
4894.81
4895.18
4895.57
4895.87
4896.11
4896.46
4896.5
4896.59
4896.66
4896.52
4896.4
4896.24
4895.89
4895.61
4895.23
4894.83
4894.5
4894.05
4893.72
4893.42
4893.23
4893.07
4892.96
4892.13
4892.24
4892.54
4892.89
4893.23
4893.63
4894.14
4894.71
4895.19
4895.66
4896.21
4896.36
4896.79
4896.96
4896.97
4897.01
4896.94
4896.73
4896.49
4896.08
4895.69
4895.25
4894.71
4894.25
4893.62
4893.16
4892.93
4892.56
4892.18
4892.07
4891.17
4891.43
4891.7
4892.02
4892.53
4893.19
4893.89
4894.56
4895.25
4895.76
4896.39
4896.75
4897.13
4897.41
4897.52
4897.55
4897.46
4897.17
4896.82
4896.37
4895.84
4895.23
4894.46
4893.72
4893.26
4892.62
4891.98
4891.67
4891.43
4891.1
4889.99
4890.13
4890.4
4891.05
4891.86
4892.54
4893.32
4894.27
4895.13
4895.81
4896.52
4897.3
4897.76
4897.99
4898.19
4898.22
4898.05
4897.68
4897.28
4896.68
4895.83
4895.04
4894.37
4893.24
4892.53
4891.84
4890.98
4890.57
4890.19
4889.73
4888.21
4888.38
4889.06
4889.8
4890.54
4891.65
4892.81
4893.8
4894.92
4896.19
4896.96
4897.67
4898.44
4898.79
4899.01
4899
4898.85
4898.44
4897.69
4896.91
4896.13
4894.92
4893.82
4892.83
4891.51
4890.52
4889.82
4889.03
4888.33
4887.91
4885.92
4886.4
4887.16
4887.84
4889.06
4890.55
4891.89
4893.41
4894.7
4896.04
4897.43
4898.44
4899.24
4899.82
4899.95
4900.11
4899.83
4899.17
4898.45
4897.42
4895.99
4894.83
4893.31
4891.81
4890.44
4889.1
4887.96
4887.06
4886.44
4885.61
4883.02
4883.61
4884.43
4885.62
4887.14
4888.8
4890.67
4892.7
4894.37
4896.17
4897.76
4899.12
4900.37
4900.99
4901.29
4901.44
4900.98
4900.35
4899.29
4897.82
4896.18
4894.45
4892.58
4890.7
4888.89
4887
4885.64
4884.65
4883.57
4882.78
4878.68
4878.05
4881.07
4882.51
4883.88
4886.42
4889.08
4891.83
4893.92
4895.91
4898.44
4900.24
4901.61
4902.63
4903.02
4902.93
4902.61
4901.68
4900.29
4898.41
4896.03
4893.93
4891.81
4889.07
4886.4
4883.87
4882.55
4881.02
4878.38
4878.45
4854.28
4874.14
4877.69
4868.22
4881.68
4883.87
4885.89
4891.39
4893.5
4894.33
4899.84
4902.08
4903.37
4904.8
4905.29
4905.3
4904.75
4903.3
4902.19
4899.82
4894.38
4893.49
4891.35
4885.87
4883.85
4881.7
4868.37
4877.66
4872.61
4854.99
2663.28
3495.36
3392.49
2746.59
3780.99
3542.75
3250.77
4132.06
3998.94
3366.07
4367.23
4200.95
4151.12
4145.92
4340.72
4347.93
4153.6
4144.41
4225.68
4360.45
3365.62
3996.59
4132.96
3246.58
3545.73
3787.81
2749.78
3393.67
3482.56
2683.97
87.5425
689.292
397.878
142.182
810.062
522.948
299.989
1151.09
775.887
294.707
1355.19
1029.89
915.048
678.2
1196.09
1202.64
675.366
896.101
1069.91
1328.29
294.056
774.461
1156.03
297.221
529.995
815.666
143.118
398.911
676.141
96.4014
1.46708
7.16042
21.4758
4.56939
5.72601
6.5813
12.4581
14.89
2.40964
5.36365
12.8574
19.2845
38.2951
14.1724
48.865
46.9242
13.3513
36.4997
28.1139
17.6838
5.42789
2.5415
15.2764
10.1392
3.631
5.91909
4.78334
21.9202
9.2909
1.35179
0.290128
1.37387
2.78083
3.13058
1.21313
2.61993
4.51657
2.73922
2.15793
0.760706
2.56331
4.27701
0.544138
4.37675
10.0154
10.521
3.66881
0.637417
5.12276
2.47153
0.755084
2.26506
2.75401
4.49563
2.67128
1.2013
3.36316
2.81996
1.25915
0.294702
0.140523
0.170156
0.413719
0.287685
0.188356
1.28727
1.44657
0.434537
1.36854
0.211977
0.296172
0.258554
0.342297
0.332731
0.802518
0.858315
0.584014
0.455819
0.320503
0.338943
0.190276
1.399
0.440664
1.55331
1.32999
0.190272
0.31329
0.413321
0.163687
0.160733
0.0110442
0.0168328
0.0432622
0.00504146
8.58455e-05
0.0283128
0.125668
-0.011474
-0.0318962
0.134057
0.00436508
-0.0150081
0.057494
0.0648694
0.052728
0.0570271
0.0646307
0.0828989
-0.0063121
-0.000771257
0.128203
-0.0303677
-0.0093548
0.136168
0.0321342
0.00213953
0.0070256
0.0452947
0.017949
0.013407
0.00105504
0.000537909
-0.00204107
-0.0105946
-0.0166879
-0.0214733
-0.026607
-0.0299576
-0.0285888
-0.0192916
-0.0351501
-0.0311482
-0.013081
-0.0113517
-0.0061506
-0.00493864
-0.0195712
-0.0127557
-0.0302314
-0.0350604
-0.0191963
-0.0276111
-0.0286469
-0.0250888
-0.019897
-0.0149215
-0.00883386
-0.000362298
0.00212628
0.0026884
-0.00853204
-0.00959947
-0.0116389
-0.0146735
-0.018295
-0.0221784
-0.0252526
-0.0280642
-0.0305418
-0.0328771
-0.0348687
-0.036523
-0.0383049
-0.0362026
-0.0267736
-0.0238909
-0.035987
-0.0379827
-0.0360032
-0.0341964
-0.03188
-0.0294286
-0.0268125
-0.0237998
-0.0205678
-0.0166501
-0.0129901
-0.00991473
-0.00781086
-0.00673041
-0.0120626
-0.0127149
-0.0141581
-0.0161041
-0.0185288
-0.0210873
-0.0234154
-0.0255871
-0.0275623
-0.0291866
-0.0307289
-0.0320738
-0.0331863
-0.033893
-0.0339969
-0.0338077
-0.0334721
-0.0327686
-0.0314945
-0.029928
-0.0282286
-0.0264334
-0.0243422
-0.0220124
-0.0195565
-0.0168858
-0.0144403
-0.0124618
-0.0108965
-0.0102513
-0.0135042
-0.0140138
-0.0149292
-0.0163001
-0.0178943
-0.0196478
-0.0213419
-0.0228825
-0.0243112
-0.0255084
-0.0264756
-0.0273298
-0.0280435
-0.0285066
-0.0286772
-0.0285861
-0.028198
-0.0275705
-0.0267014
-0.0256429
-0.0245248
-0.0231782
-0.0216486
-0.0199487
-0.0181485
-0.0163152
-0.0146299
-0.0132094
-0.0121994
-0.0117085
-0.0139287
-0.0142372
-0.0148521
-0.0157626
-0.0168408
-0.0179948
-0.019131
-0.0202168
-0.021148
-0.0219198
-0.0225523
-0.0230374
-0.0233769
-0.0235641
-0.0236149
-0.0235281
-0.0232767
-0.0229011
-0.0223681
-0.0217054
-0.020948
-0.0200241
-0.0189353
-0.0177717
-0.0165348
-0.0152611
-0.0141032
-0.0131489
-0.0124512
-0.0121276
-0.0136241
-0.0138222
-0.014246
-0.0148198
-0.0154851
-0.0162451
-0.0169437
-0.0175847
-0.018154
-0.0186116
-0.018952
-0.0191567
-0.0192772
-0.0192965
-0.0192696
-0.0191826
-0.0190202
-0.0188095
-0.0184767
-0.0180938
-0.0176045
-0.0170325
-0.0163476
-0.0155799
-0.0147534
-0.0139453
-0.0131693
-0.0125319
-0.0120662
-0.0118478
-0.0128862
-0.0130134
-0.0132742
-0.0136213
-0.0139993
-0.014424
-0.0147911
-0.0151218
-0.0154075
-0.0155994
-0.0156945
-0.0157007
-0.0156806
-0.0156126
-0.0155284
-0.0154314
-0.0153249
-0.0152147
-0.0150372
-0.0148497
-0.0145899
-0.0142682
-0.0138872
-0.0134457
-0.0129456
-0.0124609
-0.0119873
-0.0115617
-0.011279
-0.0111384
-0.0118775
-0.0119639
-0.0120998
-0.0122549
-0.0124542
-0.0126398
-0.0127629
-0.0128602
-0.0129224
-0.0129079
-0.0128167
-0.0126909
-0.0125715
-0.0124466
-0.0123254
-0.0122154
-0.0121496
-0.0121096
-0.0120563
-0.0119883
-0.011894
-0.0117748
-0.0116253
-0.0114288
-0.0111896
-0.0109206
-0.0106548
-0.0104087
-0.010259
-0.0101792
-0.0107455
-0.0107857
-0.010813
-0.0108711
-0.0109339
-0.0109334
-0.010884
-0.0108176
-0.0107177
-0.0105482
-0.0103283
-0.0101238
-0.00993716
-0.00975752
-0.00960192
-0.00949399
-0.00947023
-0.00947544
-0.00949406
-0.00951461
-0.00954257
-0.00958152
-0.00960378
-0.0095699
-0.00949829
-0.00939903
-0.00929009
-0.00918306
-0.00911141
-0.00907001
-0.00956088
-0.0095457
-0.00953044
-0.00952256
-0.00946524
-0.00934423
-0.00918475
-0.00900304
-0.0087832
-0.00851014
-0.00822163
-0.00796629
-0.00772308
-0.00749463
-0.00732481
-0.00723394
-0.00723371
-0.00726215
-0.00731873
-0.00741446
-0.00753815
-0.00767497
-0.00779506
-0.00787721
-0.00793083
-0.00795879
-0.00795579
-0.00793709
-0.0079147
-0.00789919
-0.00836566
-0.00833798
-0.0083009
-0.00821413
-0.00808232
-0.00790213
-0.00766709
-0.00740328
-0.0071095
-0.00678215
-0.00645473
-0.00615485
-0.00587125
-0.00563026
-0.00547014
-0.00539253
-0.0053934
-0.00543027
-0.00551452
-0.00566224
-0.00584599
-0.00603844
-0.00621404
-0.00636828
-0.00650518
-0.0066165
-0.0066857
-0.00672181
-0.00673522
-0.00674105
-0.00722943
-0.00719688
-0.00711177
-0.00698345
-0.00683164
-0.0066087
-0.00631844
-0.00600858
-0.00567811
-0.00532244
-0.00497059
-0.0046471
-0.00435739
-0.00413026
-0.00398247
-0.00390289
-0.00389678
-0.00394199
-0.00404869
-0.00422
-0.00442352
-0.00463759
-0.00484936
-0.00505514
-0.00524583
-0.00540132
-0.00550862
-0.0055765
-0.00561782
-0.00564238
-0.00616256
-0.00611134
-0.00600194
-0.00588051
-0.00571353
-0.00545007
-0.0051365
-0.00481049
-0.0044655
-0.00410167
-0.00374646
-0.00342364
-0.00314392
-0.00292734
-0.00277801
-0.00269304
-0.00268558
-0.00274232
-0.00286042
-0.00303237
-0.00323608
-0.0034594
-0.00369429
-0.00392562
-0.00413662
-0.0043079
-0.00443385
-0.00452295
-0.00458522
-0.00462246
-0.00516089
-0.00510425
-0.00501557
-0.00489564
-0.00469533
-0.00442252
-0.00411865
-0.00379275
-0.00344722
-0.00309028
-0.0027435
-0.00242904
-0.00216026
-0.00195301
-0.00181026
-0.00173442
-0.0017311
-0.00178659
-0.0018923
-0.00204498
-0.00223854
-0.00246667
-0.00271169
-0.00295021
-0.00316161
-0.00333365
-0.00346786
-0.00357072
-0.00364584
-0.00368939
-0.00426086
-0.00421482
-0.00413409
-0.00399311
-0.00378332
-0.00353597
-0.00324711
-0.00292454
-0.0025865
-0.00224345
-0.00191141
-0.00161413
-0.00136423
-0.00117406
-0.00104579
-0.000977995
-0.000968672
-0.00100807
-0.001096
-0.00123655
-0.00142805
-0.00165635
-0.00189633
-0.00212044
-0.00231488
-0.00247732
-0.002613
-0.00272381
-0.00280558
-0.00285109
-0.00344944
-0.00341519
-0.0033202
-0.00317312
-0.00299156
-0.00276702
-0.00248649
-0.00217529
-0.00185447
-0.00152983
-0.00122271
-0.000954538
-0.000731292
-0.000558722
-0.000439749
-0.000373883
-0.00035781
-0.000387195
-0.000467304
-0.000603482
-0.000788051
-0.000999595
-0.00121252
-0.00140953
-0.00158288
-0.00173578
-0.00187114
-0.00198438
-0.00206581
-0.00210848
-0.00272565
-0.00267767
-0.00258542
-0.00245995
-0.0023025
-0.00208592
-0.00182078
-0.00153226
-0.0012343
-0.000937407
-0.000664052
-0.000426939
-0.000225346
-6.34989e-05
5.04473e-05
0.000113751
0.000130169
0.000104097
3.10653e-05
-9.23094e-05
-0.000256945
-0.00044225
-0.000628071
-0.00080263
-0.000962381
-0.00110788
-0.00123739
-0.00134347
-0.0014165
-0.0014527
-0.00206698
-0.00202177
-0.00194946
-0.00184515
-0.00169044
-0.00148466
-0.00124514
-0.000980848
-0.000708839
-0.000447607
-0.000208301
5.0862e-06
0.000191645
0.000343558
0.000449168
0.000505082
0.000517112
0.000491947
0.000428302
0.000324375
0.000186216
2.8218e-05
-0.000135036
-0.000294163
-0.000443241
-0.000577908
-0.000693589
-0.000784372
-0.000844411
-0.000873446
-0.00148181
-0.00145883
-0.00139663
-0.00129405
-0.00114159
-0.000959135
-0.000746623
-0.000506995
-0.000265421
-3.79388e-05
0.000174319
0.000370021
0.00054031
0.00067454
0.00076502
0.00081122
0.000819112
0.000795382
0.000741801
0.000658111
0.000547144
0.000416491
0.000274991
0.000131741
-4.09564e-06
-0.000123917
-0.000221869
-0.000295116
-0.000342974
-0.00036714
-0.000973193
-0.00094747
-0.000888659
-0.000787353
-0.000656293
-0.000503788
-0.000316349
-0.000103349
0.000107115
0.000305548
0.000495968
0.000672882
0.000822314
0.000935892
0.00101265
0.00105418
0.0010629
0.00104255
0.00099648
0.000927337
0.000837846
0.000731422
0.000613198
0.000490379
0.000372888
0.000270544
0.000189116
0.000129406
8.9765e-05
6.81002e-05
-0.000495235
-0.000464707
-0.000416391
-0.000335839
-0.000234685
-0.000104657
6.25008e-05
0.000249096
0.000431585
0.000604615
0.000769816
0.000920687
0.00104719
0.0011448
0.00121407
0.00125449
0.00126499
0.00124636
0.00120361
0.00114319
0.00107023
0.0009865
0.000894032
0.000796727
0.000701635
0.000616585
0.000546801
0.000493622
0.000456549
0.000435908
-5.28311e-05
-3.94917e-05
-6.17307e-06
5.1782e-05
0.000139602
0.000262695
0.000413434
0.000571843
0.000725929
0.000870604
0.0010054
0.00112821
0.00123371
0.00131895
0.00138296
0.00142204
0.00143242
0.00141479
0.00137578
0.00132385
0.00126474
0.00120076
0.00113218
0.00105962
0.000985983
0.000915746
0.000853615
0.000802967
0.000766236
0.000746509
0.00031761
0.000324242
0.000351593
0.000405281
0.000497983
0.000616852
0.000741621
0.000862499
0.000979839
0.00109373
0.00120248
0.00130381
0.00139434
0.0014703
0.00152769
0.00156199
0.00157088
0.00155525
0.00152119
0.00147662
0.00142769
0.0013775
0.00132682
0.00127487
0.00122117
0.00116676
0.00111432
0.00106809
0.00103326
0.00101461
0.000643611
0.000660335
0.000688168
0.000750613
0.000844089
0.000941166
0.00102567
0.00110367
0.00118631
0.0012761
0.00136699
0.00145261
0.00152878
0.00159198
0.00163866
0.00166606
0.0016734
0.00166098
0.00163254
0.00159428
0.00155293
0.00151377
0.00147893
0.001447
0.00141435
0.00137799
0.00133775
0.00129765
0.00126445
0.00124511
0.000943478
0.000961105
0.00099561
0.0010618
0.00113638
0.0011983
0.00124766
0.00129925
0.00136432
0.0014403
0.001516
0.00158296
0.00163883
0.0016833
0.00171657
0.0017375
0.00174425
0.00173556
0.00171346
0.00168315
0.00165201
0.00162637
0.00160795
0.00159408
0.0015779
0.00155418
0.00152216
0.00148556
0.00145255
0.00143167
0.00118654
0.00119927
0.00124546
0.00130447
0.00135271
0.00138869
0.00142404
0.00147078
0.00153022
0.00159261
0.00164725
0.00168999
0.00172272
0.00175051
0.00177405
0.00179186
0.00179956
0.00179486
0.00177937
0.00175877
0.00174003
0.00172782
0.00172157
0.00171665
0.00170636
0.00168592
0.00165559
0.00162097
0.0015904
0.00157167
0.00136399
0.0013829
0.00143754
0.00148741
0.00152193
0.00155055
0.00158518
0.00162846
0.00167318
0.00171019
0.00173701
0.00175689
0.00177606
0.00179744
0.00181911
0.00183572
0.0018424
0.00183832
0.00182711
0.00181481
0.00180661
0.00180341
0.00180218
0.00179791
0.00178575
0.00176491
0.00173713
0.00170862
0.00168593
0.00167357
0.00149644
0.00152631
0.0015808
0.00162781
0.00166419
0.00169572
0.00172607
0.00175174
0.00176724
0.00177293
0.00177617
0.00178452
0.00180185
0.00182458
0.00184551
0.00185781
0.0018591
0.00185214
0.00184289
0.0018369
0.00183612
0.00183827
0.00183899
0.00183422
0.00182208
0.0018031
0.001782
0.00176325
0.00174947
0.00174121
0.00158907
0.00161826
0.0016672
0.00171516
0.00175639
0.00178892
0.00180938
0.00181434
0.00180547
0.00179224
0.00178616
0.00179351
0.00181186
0.00183298
0.00184761
0.00185101
0.00184516
0.00183619
0.00183049
0.00183103
0.00183628
0.00184174
0.00184295
0.00183748
0.00182588
0.0018109
0.00179601
0.00178302
0.00177264
0.0017649
0.00163032
0.00165604
0.00169595
0.00173707
0.00177505
0.00180502
0.00182168
0.00182167
0.00181056
0.00179874
0.00179578
0.00180326
0.00181577
0.00182515
0.00182655
0.00182042
0.00181187
0.0018067
0.0018083
0.00181559
0.0018241
0.00182846
0.00182548
0.00181521
0.00180031
0.00178417
0.00176919
0.0017557
0.00174278
0.00173041
0.00162699
0.00165144
0.00167598
0.00170027
0.00172859
0.00175851
0.00178148
0.0017933
0.00179714
0.00179871
0.00180211
0.00180567
0.00180527
0.00179908
0.00178853
0.00177817
0.00177341
0.0017766
0.00178598
0.00179671
0.0018025
0.00179866
0.00178431
0.00176218
0.0017365
0.00171112
0.00168819
0.00166788
0.00165
0.00163528
0.00158009
0.00160088
0.00160502
0.00161438
0.00163895
0.00167437
0.00171057
0.00174102
0.00176431
0.00178079
0.00178913
0.00178815
0.00177826
0.00176265
0.00174759
0.00173941
0.00174139
0.00175173
0.00176435
0.00177208
0.00176845
0.00175058
0.00171993
0.00168118
0.00163955
0.00159945
0.00156403
0.0015346
0.00151181
0.0014969
0.00147095
0.00147393
0.00146861
0.00147973
0.00151255
0.00155845
0.00160792
0.00165583
0.00169845
0.00173099
0.00175031
0.00175455
0.00174633
0.00173295
0.00172223
0.00171975
0.00172641
0.00173758
0.00174578
0.0017437
0.00172624
0.00169228
0.00164437
0.00158779
0.00152823
0.00147104
0.00142059
0.00137962
0.00135035
0.00133517
0.00127886
0.00126557
0.00127143
0.0013027
0.00135187
0.00140965
0.00147224
0.00153744
0.00160062
0.00165534
0.00169516
0.00171731
0.00172465
0.00172426
0.00172335
0.00172594
0.00173164
0.00173574
0.00173202
0.00171476
0.0016807
0.00162976
0.00156471
0.00149046
0.00141282
0.00133768
0.00127052
0.00121624
0.00117882
0.00116111
0.00103184
0.00102063
0.00105044
0.00110435
0.00116836
0.0012387
0.00131729
0.00140402
0.00149286
0.00157456
0.0016411
0.00168859
0.00171821
0.00173535
0.00174496
0.00174969
0.00174885
0.0017396
0.00171807
0.00168106
0.00162713
0.00155701
0.0014737
0.0013815
0.00128608
0.00119388
0.00111139
0.00104491
0.000999413
0.000978091
0.000793596
0.000797539
0.000844404
0.000907764
0.00097959
0.00106295
0.00116157
0.00127311
0.00138873
0.00149717
0.0015895
0.00166205
0.00171395
0.00174823
0.00176712
0.00177196
0.00176227
0.00173657
0.00169363
0.00163296
0.00155531
0.0014629
0.00135921
0.00124888
0.00113773
0.00103239
0.000939578
0.000865653
0.000815734
0.000792905
0.000608524
0.000622691
0.00066817
0.000726309
0.000800104
0.000895526
0.00101297
0.00114525
0.00128071
0.0014082
0.00152012
0.0016128
0.00168476
0.00173577
0.00176431
0.00177078
0.00175348
0.00171207
0.00164737
0.0015618
0.00145887
0.00134303
0.00121921
0.00109309
0.000970876
0.000858813
0.000763029
0.000688747
0.000640121
0.000619203
0.000473452
0.000486807
0.000518109
0.000566605
0.000641091
0.000744536
0.000871584
0.00101154
0.00115328
0.00128833
0.00141151
0.00151943
0.00160887
0.00167621
0.00171674
0.00172736
0.0017056
0.00165186
0.00156895
0.00146199
0.0013374
0.00120204
0.00106302
0.0009274
0.000801343
0.0006903
0.000598906
0.000530617
0.000487976
0.000471472
0.00036467
0.000370921
0.000391292
0.000436945
0.000513212
0.000616515
0.000738406
0.000869382
0.00100262
0.00113399
0.00126061
0.00137852
0.00148164
0.0015623
0.00161297
0.0016279
0.00160436
0.00154338
0.00144932
0.00132944
0.00119246
0.0010475
0.000903536
0.000768023
0.000646748
0.000544043
0.000462445
0.000403993
0.000369343
0.000357908
0.000270409
0.000273187
0.00029466
0.000344547
0.000419664
0.00051208
0.000614736
0.000723711
0.00083836
0.000958419
0.0010815
0.00120206
0.00131122
0.00139828
0.00145371
0.00147054
0.00144627
0.00138283
0.00128602
0.0011645
0.00102824
0.000887462
0.000751105
0.000626249
0.00051771
0.000428402
0.000359698
0.00031201
0.000285035
0.000277444
0.000196128
0.000201351
0.000231683
0.000284324
0.000349689
0.000420773
0.00049596
0.000578015
0.000671058
0.000776465
0.000890966
0.00100668
0.00111258
0.00119661
0.00124886
0.00126335
0.00123859
0.00117756
0.00108687
0.000975456
0.000853181
0.000729279
0.000611503
0.000505588
0.000415154
0.000342017
0.000286662
0.000248821
0.000227776
0.000222088
0.00014569
0.000155783
0.000190402
0.000235501
0.000281617
0.000326261
0.000373711
0.000431283
0.000504634
0.000594519
0.000695986
0.000799422
0.000893177
0.000965994
0.00100949
0.00101948
0.000995843
0.000942377
0.00086567
0.000773762
0.000674856
0.000576272
0.000483777
0.000401397
0.000331483
0.000275078
0.000232215
0.000202521
0.000185343
0.000179803
0.00010979
0.000122431
0.000150421
0.000178676
0.00020185
0.000222532
0.000248047
0.000286545
0.000342503
0.000414989
0.000497935
0.000581864
0.000656425
0.000712712
0.000744812
0.000750466
0.000730769
0.000689597
0.000632536
0.000565704
0.000494961
0.000425254
0.000360239
0.00030234
0.000252869
0.000212354
0.000180946
0.000158404
0.000144321
0.000138195
7.36183e-05
8.28745e-05
9.78877e-05
0.000108749
0.000114513
0.00012015
0.000131713
0.000155091
0.000192494
0.00024196
0.000298299
0.00035449
0.00040339
0.000439385
0.000459168
0.000461931
0.00044914
0.000423607
0.000388993
0.000349174
0.000307475
0.000266586
0.000228337
0.000194047
0.000164366
0.000139584
0.000119801
0.000104984
9.49345e-05
8.93529e-05
2.19594e-05
2.62014e-05
3.06642e-05
3.28406e-05
3.30819e-05
3.37275e-05
3.72213e-05
4.53616e-05
5.87802e-05
7.66004e-05
9.68409e-05
0.000116953
0.000134392
0.000147202
0.000154318
0.000155574
0.000151596
0.000143367
0.000132199
0.0001194
0.000106016
9.2861e-05
8.03918e-05
6.90007e-05
5.89547e-05
5.03998e-05
4.33939e-05
3.79966e-05
3.40861e-05
3.14746e-05
4895.32
4895.32
4895.32
4895.31
4895.31
4895.31
4895.31
4895.3
4895.3
4895.3
4895.3
4895.29
4895.29
4895.29
4895.29
4895.3
4895.3
4895.3
4895.29
4895.29
4895.29
4895.29
4895.29
4895.28
4895.28
4895.28
4895.28
4895.29
4895.29
4895.31
4895.32
4895.32
4895.32
4895.31
4895.31
4895.31
4895.31
4895.3
4895.3
4895.3
4895.3
4895.29
4895.29
4895.29
4895.29
4895.3
4895.3
4895.29
4895.29
4895.29
4895.29
4895.29
4895.28
4895.28
4895.28
4895.28
4895.28
4895.28
4895.29
4895.28
4895.31
4895.31
4895.31
4895.31
4895.31
4895.31
4895.3
4895.3
4895.3
4895.3
4895.3
4895.29
4895.29
4895.29
4895.29
4895.29
4895.29
4895.28