/*--------------------------------*- C++ -*----------------------------------*\
| =========                 |                                                 |
| \\      /  F ield         | OpenFOAM: The Open Source CFD Toolbox           |
|  \\    /   O peration     | Version:  2312                                  |
|   \\  /    A nd           | Website:  www.openfoam.com                      |
|    \\/     M anipulation  |                                                 |
\*---------------------------------------------------------------------------*/
FoamFile
{
    version     2.0;
    format      ascii;
    arch        "LSB;label=32;scalar=64";
    class       surfaceScalarField;
    location    "0.941998";
    object      phi;
}
// * * * * * * * * * * * * * * * * * * * * * * * * * * * * * * * * * * * * * //

dimensions      [0 3 -1 0 0 0 0];

oriented        oriented;

internalField   nonuniform List<scalar> 
263100
(
-1.20219e-09
2.40437e-09
-1.20219e-09
-8.57214e-10
9.46165e-10
-1.19352e-09
-1.34239e-09
1.61628e-09
-1.04413e-09
-1.50983e-09
1.30547e-09
-1.05068e-09
-1.45545e-09
9.32068e-10
-8.97294e-10
-1.11554e-09
4.49519e-10
-6.97654e-10
-5.80032e-10
1.0465e-11
-4.51879e-10
1.42977e-11
-2.86671e-10
-2.13346e-10
4.6902e-10
-3.3416e-10
-2.98089e-11
6.46401e-10
-1.34573e-10
3.99266e-11
5.86226e-10
1.82155e-10
-5.09621e-11
3.21182e-10
5.99118e-10
-2.76304e-10
2.44814e-11
9.11344e-10
-5.68498e-10
-1.01856e-10
1.02919e-09
-8.63203e-10
9.99619e-11
9.41012e-10
-1.10135e-09
6.79047e-10
6.6977e-10
-1.19493e-09
1.54901e-09
3.08184e-10
-1.10038e-09
2.44139e-09
4.38867e-11
-8.24362e-10
2.96334e-09
3.91349e-11
-4.07898e-10
2.84095e-09
2.87153e-10
3.18347e-11
1.97927e-09
8.3953e-10
2.58106e-10
3.34615e-10
1.53955e-09
3.69766e-10
-1.82377e-09
2.09974e-09
3.35488e-10
-4.04205e-09
2.32279e-09
1.64182e-10
-5.59967e-09
1.93023e-09
-1.32871e-10
-5.79742e-09
8.73835e-10
-4.82555e-10
-4.30162e-09
-5.5718e-10
-8.01242e-10
-7.77154e-10
-2.1923e-09
-1.2515e-09
4.7108e-09
-2.68343e-09
-2.77236e-09
1.37378e-08
-9.02959e-09
-2.67179e-10
3.06095e-09
-2.67179e-10
-8.15525e-10
1.90101e-09
-2.77083e-10
-1.03872e-09
2.21255e-09
-2.47938e-10
-1.23412e-09
1.85434e-09
-2.25781e-10
-1.26871e-09
1.28664e-09
-1.86749e-10
-1.1785e-09
6.6043e-10
-1.61338e-10
-9.46279e-10
6.7241e-11
-1.44787e-10
-6.05719e-10
-3.28611e-10
-1.5526e-10
-1.99796e-10
-4.14315e-10
-1.90274e-10
2.27814e-10
-2.16653e-10
-2.24316e-10
6.43097e-10
1.09649e-10
-2.3927e-10
1.04578e-09
4.82919e-10
-1.99347e-10
1.4105e-09
7.25663e-10
-1.0134e-10
1.70713e-09
7.52436e-10
6.0487e-11
1.90001e-09
5.94781e-10
2.52289e-10
1.93745e-09
3.37732e-10
4.29301e-10
1.75405e-09
1.68529e-10
5.08962e-10
1.42621e-09
1.45004e-10
4.74158e-10
1.01952e-09
4.40815e-10
3.16324e-10
5.90792e-10
1.0024e-09
8.12203e-11
1.00709e-10
1.80621e-09
-7.00386e-11
-3.72281e-10
2.60877e-09
-1.77168e-10
-7.39685e-10
3.0925e-09
-2.25364e-10
-8.885e-10
2.9392e-09
-1.18284e-10
-8.09564e-10
1.95765e-09
1.66805e-10
-7.2514e-10
2.86787e-10
6.85892e-10
-7.37077e-10
-2.00479e-09
1.5539e-09
4.45933e-10
-6.01017e-09
2.65499e-09
5.21987e-09
-1.14045e-08
3.91683e-09
1.55398e-08
3.36377e-09
1.01341e-10
2.92277e-09
1.01341e-10
-3.20412e-10
2.32997e-09
-1.92238e-11
-5.21905e-10
2.43739e-09
-2.66673e-11
-7.42625e-10
2.09541e-09
-1.52006e-11
-9.77393e-10
1.56403e-09
-2.24727e-11
-1.17952e-09
9.63818e-10
-6.22026e-11
-1.26776e-09
4.0743e-10
-1.94266e-10
-1.17241e-09
-5.54892e-12
-3.46218e-10
-8.0556e-10
-2.3769e-10
-4.63332e-10
-1.49619e-10
-2.79595e-10
-5.11848e-10
7.11283e-10
-2.18484e-10
-4.55922e-10
1.65669e-09
-1.28221e-10
-2.63964e-10
2.45649e-09
-4.61079e-11
3.72032e-11
2.90353e-09
4.17661e-11
3.2858e-10
2.82739e-09
1.58044e-10
5.84459e-10
2.21526e-09
3.35362e-10
6.99844e-10
1.25198e-09
6.11603e-10
6.24524e-10
1.80783e-10
1.0044e-09
3.36463e-10
-6.56245e-10
1.47079e-09
-5.1532e-11
-1.05899e-09
1.94873e-09
-3.94186e-10
-8.08128e-10
2.42585e-09
-7.26194e-10
8.17094e-11
2.72933e-09
-8.86643e-10
1.36442e-09
2.73081e-09
-8.32945e-10
2.80069e-09
2.1469e-09
-6.03015e-10
4.0611e-09
1.05221e-09
-3.65714e-10
4.84823e-09
-3.4408e-10
-2.14752e-10
3.85445e-09
-1.40161e-09
2.96185e-10
6.8859e-10
-4.10221e-09
1.14361e-09
-1.7565e-11
-1.46384e-08
3.82095e-09
9.87634e-09
5.5419e-09
3.63303e-10
2.17561e-09
3.63303e-10
1.31452e-10
2.02375e-09
3.62485e-10
6.34517e-11
2.02291e-09
3.32668e-10
-1.21403e-10
1.83213e-09
3.15935e-10
-4.46669e-10
1.55002e-09
2.34355e-10
-8.363e-10
1.19071e-09
9.14286e-11
-1.16197e-09
7.92073e-10
-9.52945e-11
-1.29806e-09
3.97153e-10
-2.71017e-10
-1.11648e-09
3.14959e-11
-4.29323e-10
-5.72541e-10
-2.94593e-10
-4.88995e-10
2.63175e-10
-5.70905e-10
-4.31841e-10
1.19415e-09
-7.32684e-10
-2.69168e-10
1.96109e-09
-7.13276e-10
-4.05658e-11
2.34196e-09
-4.35171e-10
1.54209e-10
2.19149e-09
1.12625e-10
2.49977e-10
1.54911e-09
8.06811e-10
2.1665e-10
6.06154e-10
1.57259e-09
1.28737e-11
-3.67999e-10
2.2184e-09
-2.32321e-10
-9.77452e-10
2.60303e-09
-5.4835e-10
-9.45045e-10
2.66427e-09
-8.15605e-10
-9.98927e-11
2.44309e-09
-9.78321e-10
1.40187e-09
2.07787e-09
-1.01574e-09
3.27841e-09
1.52978e-09
-8.85375e-10
5.00857e-09
8.60826e-10
-6.86513e-10
6.10353e-09
1.57031e-10
-4.57513e-10
6.58183e-09
-6.52487e-10
-4.23214e-10
7.1304e-09
-8.09397e-10
-1.37202e-09
4.15968e-09
7.29634e-10
-2.05931e-09
-3.31242e-09
-6.00968e-09
-1.32037e-09
6.01731e-09
4.30906e-10
6.0129e-10
8.50434e-10
6.0129e-10
6.59284e-10
9.99e-10
6.44367e-10
7.74191e-10
1.00856e-09
6.1653e-10
7.12431e-10
1.04367e-09
5.91709e-10
4.36994e-10
1.09456e-09
5.07667e-10
6.24293e-12
1.07577e-09
3.65514e-10
-4.65853e-10
9.44871e-10
1.85288e-10
-8.44182e-10
6.66524e-10
2.02037e-11
-1.02127e-09
2.80644e-10
-1.19332e-10
-9.57857e-10
-1.89955e-10
-1.79315e-10
-6.76514e-10
-6.25149e-10
-2.08636e-10
-2.74531e-10
-9.10405e-10
-1.82945e-10
1.00973e-10
-8.73074e-10
-1.59392e-10
3.64565e-10
-4.45688e-10
-1.9152e-10
4.34276e-10
3.73635e-10
-2.76499e-10
3.17478e-10
1.37806e-09
-4.2315e-10
7.69443e-11
2.37602e-09
-5.72217e-10
-1.18972e-10
3.0078e-09
-6.60924e-10
-3.52956e-11
3.09271e-09
-7.12936e-10
5.10311e-10
2.64046e-09
-7.40455e-10
1.49275e-09
1.887e-09
-7.20932e-10
2.87719e-09
1.01756e-09
-6.80061e-10
4.28473e-09
3.70336e-10
-6.40322e-10
5.36165e-09
1.40249e-11
-6.26941e-10
5.68584e-09
9.65721e-11
-6.32874e-10
5.00491e-09
3.28536e-10
-6.1586e-10
4.11574e-09
7.24471e-10
-8.93911e-10
2.67966e-09
3.62278e-09
-1.64148e-09
-2.47113e-09
1.46649e-09
-2.45933e-09
5.50861e-09
-2.04296e-09
5.55636e-10
-4.70227e-10
5.55636e-10
1.05217e-09
-5.81301e-10
6.8529e-10
1.42549e-09
-4.1559e-10
6.9497e-10
1.60809e-09
-1.34002e-10
6.63579e-10
1.54857e-09
2.71179e-10
5.85145e-10
1.25334e-09
6.2723e-10
4.87398e-10
7.80867e-10
8.28385e-10
3.78738e-10
1.87187e-10
8.05644e-10
2.92931e-10
-4.72366e-10
5.97078e-10
2.30886e-10
-1.12704e-09
2.17213e-10
1.84005e-10
-1.6824e-09
-1.85968e-10
9.90501e-11
-2.07252e-09
-4.30076e-10
-6.60119e-11
-2.2105e-09
-4.17863e-10
-2.6078e-10
-2.02555e-09
-7.68873e-11
-4.79386e-10
-1.55405e-09
6.28609e-10
-6.54184e-10
-8.86123e-10
1.5022e-09
-7.46357e-10
-8.17981e-11
2.27648e-09
-7.11731e-10
7.2854e-10
2.68449e-09
-5.69848e-10
1.53717e-09
2.48896e-09
-3.78776e-10
2.30322e-09
1.79481e-09
-1.87883e-10
3.01367e-09
8.89558e-10
-6.12913e-11
3.57619e-09
1.00258e-10
-4.65718e-11
3.95818e-09
-2.88533e-10
-1.39332e-10
3.98017e-09
-5.99125e-11
-3.38259e-10
3.58169e-09
8.59536e-10
-6.94816e-10
2.3186e-09
2.42937e-09
-1.08943e-09
5.22542e-10
3.788e-09
-1.44061e-09
-2.01727e-10
6.71113e-09
-2.47487e-09
-2.43537e-09
6.98111e-09
-3.35368e-09
6.01017e-09
-2.9787e-09
2.4094e-10
-1.20047e-09
2.4094e-10
1.1339e-09
-2.21818e-09
3.83173e-10
1.81203e-09
-1.77813e-09
3.56007e-10
2.35352e-09
-1.2725e-09
2.85292e-10
2.67248e-09
-5.86356e-10
2.48449e-10
2.69731e-09
9.58224e-11
2.43415e-10
2.36558e-09
6.75527e-10
2.54007e-10
1.63849e-09
1.05114e-09
2.89812e-10
5.64224e-10
1.19406e-09
3.30948e-10
-7.52979e-10
1.14127e-09
2.98274e-10
-2.13501e-09
9.6189e-10
1.94328e-10
-3.25849e-09
7.46105e-10
-3.87904e-11
-3.8657e-09
5.30913e-10
-2.82295e-10
-3.77455e-09
4.55195e-10
-5.35321e-10
-2.99934e-09
6.05019e-10
-6.59612e-10
-1.69258e-09
8.62585e-10
-6.00561e-10
-1.3091e-10
1.10657e-09
-3.80303e-10
1.37084e-09
1.12717e-09
-1.19359e-11
2.58233e-09
8.57618e-10
2.61334e-10
3.33278e-09
2.90618e-10
5.08233e-10
3.52962e-09
-3.18898e-10
7.00177e-10
3.23389e-09
-6.57882e-10
7.11193e-10
2.56646e-09
-4.89767e-10
5.3524e-10
1.56654e-09
4.37846e-10
2.13959e-10
4.28664e-10
2.0325e-09
-2.56144e-10
-7.25222e-10
4.33042e-09
-8.98238e-10
-2.11249e-09
6.58731e-09
-1.50762e-09
-1.98149e-09
8.57163e-09
-2.05532e-09
-1.85221e-09
8.9701e-09
-2.17287e-09
5.64331e-09
-1.53718e-09
-4.19168e-10
-5.75999e-10
-4.19168e-10
8.46846e-10
-3.44276e-09
-2.31486e-10
1.84036e-09
-2.64142e-09
-3.09042e-10
2.77752e-09
-2.00152e-09
-3.83019e-10
3.54214e-09
-1.15458e-09
-3.69645e-10
3.9929e-09
-2.26993e-10
-2.98852e-10
3.91595e-09
7.23403e-10
-1.34676e-10
3.22393e-09
1.58911e-09
6.46292e-12
1.94506e-09
2.22509e-09
1.283e-10
2.38208e-10
2.59881e-09
1.70022e-10
-1.59239e-09
2.65113e-09
1.11352e-10
-3.13356e-09
2.32948e-09
-2.06949e-11
-4.05624e-09
1.67505e-09
-1.55638e-10
-4.16579e-09
8.94449e-10
-2.36874e-10
-3.4315e-09
1.64891e-10
-1.99745e-10
-2.06891e-09
-4.36979e-10
3.93233e-12
-3.98866e-10
-7.85448e-10
2.34839e-10
1.16618e-09
-1.02754e-09
5.30708e-10
2.29653e-09
-1.27224e-09
8.64984e-10
2.76763e-09
-1.51792e-09
1.13961e-09
2.58398e-09
-1.61699e-09
1.24661e-09
1.88341e-09
-1.38154e-09
1.18465e-09
8.06585e-10
-6.27283e-10
1.00043e-09
-4.90025e-10
8.21268e-10
7.43222e-10
-1.76786e-09
2.7908e-09
3.94842e-10
-2.6073e-09
5.02171e-09
5.47842e-11
-2.88629e-09
7.01282e-09
-2.29908e-10
-2.05883e-09
7.88465e-09
-2.32284e-10
-5.71549e-10
7.30131e-09
7.25988e-11
4.14708e-09
8.10083e-10
-1.19639e-09
1.72147e-09
-1.19639e-09
4.40619e-10
-3.91694e-09
-1.07143e-09
1.68059e-09
-2.71779e-09
-1.08762e-09
2.92615e-09
-2.1514e-09
-1.03079e-09
4.00084e-09
-1.30602e-09
-8.80608e-10
4.69543e-09
-2.49158e-10
-6.57614e-10
4.85361e-09
9.57666e-10
-4.03005e-10
4.34324e-09
2.24703e-09
-1.73609e-10
3.21121e-09
3.35964e-09
-2.92311e-11
1.61768e-09
4.09208e-09
8.85899e-11
-1.12023e-10
4.23712e-09
1.58874e-10
-1.62546e-09
3.68017e-09
2.08638e-10
-2.65569e-09
2.49733e-09
2.78423e-10
-3.07153e-09
9.75196e-10
4.14726e-10
-2.88057e-09
-5.21092e-10
5.6272e-10
-2.2335e-09
-1.78163e-09
7.32113e-10
-1.33603e-09
-2.65743e-09
9.60776e-10
-4.60782e-10
-3.12933e-09
1.16046e-09
1.80773e-10
-3.28217e-09
1.25902e-09
4.91675e-10
-3.18375e-09
1.22227e-09
4.34699e-10
-2.80071e-09
1.10923e-09
-8.40397e-12
-2.03043e-09
9.81954e-10
-7.10265e-10
-8.66119e-10
8.60085e-10
-1.4956e-09
7.85892e-10
7.61808e-10
-2.16806e-09
2.71248e-09
6.93302e-10
-2.34667e-09
4.39456e-09
7.26147e-10
-1.76192e-09
5.40536e-09
9.05328e-10
-4.74571e-10
5.1536e-09
1.28764e-09
6.90871e-10
4.10134e-09
1.85115e-09
2.51887e-09
2.14775e-09
-1.45822e-09
4.72772e-09
-1.45822e-09
1.95093e-10
-3.94941e-09
-1.21694e-09
1.44463e-09
-2.50557e-09
-1.10062e-09
2.65705e-09
-2.11809e-09
-9.12746e-10
3.67182e-09
-1.39003e-09
-6.44517e-10
4.33173e-09
-3.10852e-10
-3.69486e-10
4.50487e-09
1.06573e-09
-1.09984e-10
4.27201e-09
2.56412e-09
3.88368e-11
3.62035e-09
3.9462e-09
1.54861e-10
2.69792e-09
4.81718e-09
2.69092e-10
1.6518e-09
4.92243e-09
4.25558e-10
6.1643e-10
4.13179e-09
6.44925e-10
-3.42682e-10
2.60839e-09
9.01221e-10
-1.19986e-09
7.21506e-10
1.14633e-09
-1.98532e-09
-1.08215e-09
1.35412e-09
-2.62453e-09
-2.62003e-09
1.45233e-09
-3.04922e-09
-3.65833e-09
1.3718e-09
-3.1501e-09
-4.20479e-09
1.109e-09
-2.96119e-09
-4.301e-09
7.71273e-10
-2.59942e-09
-4.04163e-09
4.68466e-10
-2.18472e-09
-3.44943e-09
2.5055e-10
-1.81907e-09
-2.4795e-09
1.40852e-10
-1.60247e-09
-1.14299e-09
1.37039e-10
-1.44185e-09
4.49678e-10
2.37646e-10
-1.16071e-09
2.0192e-09
4.25251e-10
-5.31345e-10
3.01837e-09
6.90515e-10
4.54409e-10
3.16383e-09
1.13166e-09
1.2556e-09
2.57833e-09
1.60302e-09
1.1694e-09
2.24607e-09
1.75084e-09
2.40793e-09
1.12732e-09
-6.62385e-10
6.33698e-09
-6.62385e-10
4.03003e-10
-4.06536e-09
-3.30797e-10
1.03222e-09
-2.49903e-09
-8.35291e-11
1.57191e-09
-2.22717e-09
7.49426e-11
1.94246e-09
-1.61942e-09
2.97714e-10
2.12512e-09
-5.9805e-10
4.65778e-10
2.20038e-09
7.76938e-10
4.97225e-10
2.26749e-09
2.28386e-09
4.27609e-10
2.44472e-09
3.57639e-09
3.49769e-10
2.61832e-09
4.3932e-09
3.61258e-10
2.6696e-09
4.43242e-09
5.09928e-10
2.39391e-09
3.67489e-09
7.65785e-10
1.61455e-09
2.33723e-09
1.04454e-09
2.64188e-10
8.3266e-10
1.19445e-09
-1.45764e-09
-6.08115e-10
1.17118e-09
-3.28164e-09
-1.82495e-09
9.37402e-10
-4.79168e-09
-2.70486e-09
4.77111e-10
-5.64138e-09
-3.29149e-09
-9.8835e-11
-5.77102e-09
-3.67634e-09
-4.57747e-10
-5.1791e-09
-3.71823e-09
-7.91991e-10
-4.11816e-09
-3.35601e-09
-9.5413e-10
-2.87966e-09
-2.5897e-09
-8.84238e-10
-1.73046e-09
-1.40752e-09
-6.45916e-10
-6.79065e-10
-6.71613e-11
-3.50648e-10
3.36768e-10
1.1165e-09
-1.63561e-11
1.32781e-09
1.74526e-09
2.88082e-10
1.93328e-09
1.93449e-09
5.62219e-10
1.68976e-09
2.12198e-09
6.05693e-10
7.28504e-10
2.96612e-09
1.43767e-10
3.22793e-09
-1.46018e-10
9.88918e-10
4.76054e-09
9.88918e-10
4.78504e-10
-4.12668e-09
1.18292e-09
-1.29907e-10
-2.84542e-09
1.48752e-09
-8.49122e-10
-2.51499e-09
1.48022e-09
-1.54217e-09
-1.93406e-09
1.40988e-09
-2.01869e-09
-9.13102e-10
1.11912e-09
-2.02428e-09
3.34304e-10
7.04556e-10
-1.43756e-09
1.62098e-09
2.67867e-10
-2.79886e-10
2.64862e-09
-9.71046e-11
1.12031e-09
3.2567e-09
-1.874e-10
2.34922e-09
3.37248e-09
-1.4987e-10
2.86976e-09
3.13909e-09
-2.37873e-11
2.38522e-09
2.67792e-09
5.03811e-11
9.37823e-10
2.15252e-09
-7.10413e-12
-1.16967e-09
1.57912e-09
-2.29553e-10
-3.51903e-09
9.97947e-10
-6.00837e-10
-5.51213e-09
2.85709e-10
-1.05907e-09
-6.59239e-09
-6.55233e-10
-1.51427e-09
-6.63614e-09
-1.59363e-09
-1.87445e-09
-5.76098e-09
-2.37177e-09
-1.94251e-09
-4.32172e-09
-2.69653e-09
-1.74254e-09
-2.69157e-09
-2.45238e-09
-1.3922e-09
-1.10891e-09
-1.67897e-09
-9.77722e-10
3.13342e-10
-6.79865e-10
-5.60892e-10
1.53868e-09
2.23435e-10
-1.79466e-10
2.32862e-09
9.63732e-10
6.9134e-11
2.35688e-09
1.76422e-09
1.80694e-10
1.6043e-09
2.92562e-09
-2.05655e-11
7.44286e-10
4.06935e-09
-2.07744e-10
3.88602e-09
1.35844e-10
2.72069e-09
-3.16269e-10
2.72068e-09
5.10661e-11
-3.51506e-09
2.40324e-09
-2.22185e-09
-2.55353e-09
2.25988e-09
-4.26748e-09
-2.04981e-09
1.80782e-09
-5.95054e-09
-1.28265e-09
1.21368e-09
-6.94604e-09
-2.38382e-10
4.65985e-10
-6.83999e-09
5.77021e-10
-2.33554e-10
-5.66632e-09
1.2735e-09
-7.39621e-10
-3.56098e-09
1.74703e-09
-1.15127e-09
-1.04255e-09
2.02949e-09
-1.28318e-09
1.11856e-09
2.40123e-09
-1.23654e-09
2.31745e-09
3.00814e-09
-1.17298e-09
2.26482e-09
3.78136e-09
-1.20491e-09
1.09393e-09
4.56408e-09
-1.41825e-09
-7.85124e-10
5.0655e-09
-1.76784e-09
-2.77039e-09
5.0105e-09
-2.12264e-09
-4.30959e-09
4.21524e-09
-2.37724e-09
-5.03951e-09
2.69883e-09
-2.47817e-09
-4.85165e-09
8.54138e-10
-2.36179e-09
-4.0016e-09
-8.11784e-10
-2.04485e-09
-2.84557e-09
-1.87085e-09
-1.58398e-09
-1.54287e-09
-2.26905e-09
-1.11827e-09
-2.4259e-10
-1.97821e-09
-7.07646e-10
9.68785e-10
-1.31648e-09
-3.6692e-10
1.95383e-09
-4.90083e-10
-1.27643e-10
2.47385e-09
4.9585e-10
6.46878e-11
2.35443e-09
1.85092e-09
1.50005e-10
1.84386e-09
3.30026e-09
2.57053e-10
1.41097e-09
3.97988e-09
6.32865e-10
4.11693e-09
1.25554e-09
3.08911e-09
-6.32815e-09
3.08911e-09
-1.59232e-09
-6.1613e-10
1.70846e-09
-5.08212e-09
-3.03683e-10
1.14476e-09
-7.83591e-09
2.61133e-10
3.37446e-10
-9.86027e-09
1.03033e-09
-3.79469e-10
-1.06904e-08
1.49313e-09
-9.60477e-10
-1.02153e-08
1.6339e-09
-1.55568e-09
-8.34676e-09
1.31596e-09
-1.91017e-09
-5.55957e-09
9.34651e-10
-1.97147e-09
-2.56745e-09
8.94914e-10
-1.87712e-09
-1.24054e-10
1.62188e-09
-1.7258e-09
1.40753e-09
3.03834e-09
-1.67016e-09
1.79722e-09
5.04392e-09
-1.79182e-09
1.31717e-09
6.90803e-09
-2.00059e-09
3.7125e-10
8.0882e-09
-2.16582e-09
-5.8428e-10
8.22569e-09
-2.25898e-09
-1.23688e-09
7.17511e-09
-2.19271e-09
-1.49035e-09
5.07779e-09
-1.9018e-09
-1.44855e-09
2.57507e-09
-1.46525e-09
-1.25558e-09
3.42254e-10
-1.03158e-09
-9.57137e-10
-1.21592e-09
-6.76625e-10
-6.02732e-10
-1.97243e-09
-4.48138e-10
-4.58217e-11
-2.03769e-09
-3.67769e-10
7.02501e-10
-1.57875e-09
-3.95967e-10
1.41082e-09
-6.99371e-10
-4.03501e-10
1.87664e-09
5.00234e-10
-3.42365e-10
2.05604e-09
2.00272e-09
-1.80331e-10
2.06585e-09
3.10119e-09
3.26076e-10
1.52087e-09
3.69816e-09
9.13572e-10
5.08354e-09
5.70347e-10
1.24957e-09
-8.93358e-09
1.24957e-09
-3.72187e-09
4.23661e-09
-3.20938e-10
-7.21813e-09
3.57001e-09
-7.68625e-10
-9.77427e-09
3.86372e-09
-1.38146e-09
-1.12784e-08
4.1429e-09
-1.85507e-09
-1.15268e-08
3.69731e-09
-2.10085e-09
-1.03324e-08
2.46995e-09
-2.08439e-09
-8.08097e-09
9.74851e-10
-1.90261e-09
-5.39927e-09
-1.67903e-10
-1.54932e-09
-2.84201e-09
-3.95438e-10
-1.25139e-09
-8.5709e-10
6.78172e-10
-1.06176e-09
4.47859e-10
2.75825e-09
-1.08113e-09
1.22756e-09
5.43545e-09
-1.24068e-09
1.67545e-09
7.81839e-09
-1.40412e-09
1.96826e-09
9.21045e-09
-1.40077e-09
2.21142e-09
9.27581e-09
-1.1985e-09
2.35886e-09
7.99829e-09
-8.02853e-10
2.22399e-09
5.71225e-09
-2.95373e-10
1.76565e-09
3.15392e-09
6.6116e-11
9.56131e-10
9.52068e-10
3.18621e-10
5.73229e-11
-5.53399e-10
2.64837e-10
-5.41573e-10
-1.32925e-09
-8.72986e-11
-6.81296e-10
-1.5269e-09
-4.30854e-10
-3.51013e-10
-1.18791e-09
-7.33735e-10
2.34859e-10
-3.08867e-10
-9.05333e-10
7.28321e-10
1.05601e-09
-9.09665e-10
1.07318e-09
2.54008e-09
-7.33038e-10
9.52753e-10
3.79315e-09
-4.77322e-10
7.08859e-11
5.26172e-09
-6.72522e-10
6.58824e-09
-1.48567e-09
-1.0813e-09
-7.08449e-09
-1.0813e-09
-5.02603e-09
9.87112e-09
-2.26063e-09
-7.48364e-09
7.96873e-09
-2.40091e-09
-8.95514e-09
7.55219e-09
-2.56323e-09
-9.34157e-09
6.69624e-09
-2.37836e-09
-8.62797e-09
4.91313e-09
-2.01122e-09
-7.13624e-09
2.45927e-09
-1.46376e-09
-5.37365e-09
1.46114e-10
-8.63459e-10
-3.6984e-09
-1.42342e-09
-3.4327e-10
-2.39266e-09
-1.56806e-09
-8.46909e-11
-1.47919e-09
-1.35382e-10
-9.10318e-11
-6.20897e-10
2.22071e-09
-3.38757e-10
4.50244e-10
4.95787e-09
-6.08968e-10
1.78131e-09
7.22383e-09
-7.17628e-10
3.15498e-09
8.46793e-09
-5.6083e-10
4.27898e-09
8.44638e-09
-1.82484e-10
4.84356e-09
7.25634e-09
2.93448e-10
4.52023e-09
5.39802e-09
7.0399e-10
3.35817e-09
3.42946e-09
8.56581e-10
1.73209e-09
1.74695e-09
6.89798e-10
2.04571e-10
5.04072e-10
2.48734e-10
-8.03444e-10
-3.39193e-10
-2.11147e-10
-1.19702e-09
-8.02209e-10
-4.84919e-10
-1.12319e-09
-6.78965e-10
-6.09197e-10
-9.10119e-10
1.95792e-10
-6.26416e-10
-7.654e-10
1.66937e-09
-6.16607e-10
-7.87472e-10
3.26609e-09
-5.96299e-10
-1.26611e-09
5.20329e-09
-9.06071e-10
-1.68184e-09
7.163e-09
-1.53227e-09
6.23561e-09
-1.3761e-09
-2.89e-09
-1.65932e-09
-2.89e-09
-4.63687e-09
1.43163e-08
-3.13536e-09
-5.52259e-09
1.13386e-08
-2.79215e-09
-5.56009e-09
9.90631e-09
-2.50194e-09
-4.84228e-09
7.81276e-09
-1.89982e-09
-3.71611e-09
4.9872e-09
-1.1728e-09
-2.62421e-09
1.92162e-09
-4.77048e-10
-1.99859e-09
-4.43301e-10
4.48735e-11
-1.84553e-09
-1.84719e-09
3.2128e-10
-2.05928e-09
-1.5534e-09
2.06222e-10
-2.10763e-09
5.13688e-11
-1.64069e-10
-1.5283e-09
2.24414e-09
-6.33883e-10
-1.92378e-10
4.45809e-09
-8.42882e-10
1.65795e-09
6.19569e-09
-7.88655e-10
3.56555e-09
7.10842e-09
-4.84367e-10
4.94928e-09
7.15939e-09
-4.00207e-11
5.41185e-09
6.49998e-09
2.91397e-10
4.80287e-09
5.43741e-09
4.63686e-10
3.44687e-09
4.18342e-09
3.8045e-10
1.85764e-09
2.90418e-09
1.29448e-10
5.4916e-10
1.62723e-09
-1.22278e-10
-2.82207e-10
4.41173e-10
-1.73794e-10
-7.33576e-10
-3.62796e-10
-7.29154e-11
-1.10551e-09
-4.1724e-10
1.58866e-10
-1.59992e-09
4.73459e-10
3.30562e-10
-2.12803e-09
1.91603e-09
3.72542e-10
-2.60504e-09
3.61622e-09
1.45786e-10
-2.80687e-09
5.50558e-09
-1.36206e-10
-1.85693e-09
6.28234e-09
-9.8328e-11
3.67667e-09
7.49088e-10
-3.07017e-09
4.24212e-09
-3.07017e-09
-2.80935e-09
1.64386e-08
-2.55159e-09
-2.30009e-09
1.29646e-08
-2.21489e-09
-1.4303e-09
1.08488e-08
-1.81889e-09
-3.56765e-10
8.05464e-09
-1.27338e-09
5.62969e-10
4.83839e-09
-7.15554e-10
8.71393e-10
1.97597e-09
-3.28687e-10
4.45168e-10
1.00121e-10
-1.26428e-10
-6.3663e-10
-5.51837e-10
-2.67768e-10
-1.73234e-09
2.96357e-11
-5.67342e-10
-2.12449e-09
1.23248e-09
-8.6261e-10
-1.62074e-09
2.68284e-09
-9.78637e-10
-2.68836e-10
4.00537e-09
-8.83343e-10
1.56339e-09
4.95627e-09
-5.37151e-10
3.22502e-09
5.58931e-09
-8.54173e-11
4.27709e-09
5.93945e-09
1.75238e-10
4.4969e-09
5.90704e-09
2.89279e-10
3.96757e-09
5.54266e-09
2.40046e-10
3.03884e-09
4.77207e-09
9.17128e-11
2.10503e-09
3.57973e-09
1.87538e-11
1.34804e-09
2.17411e-09
6.05751e-11
6.93094e-10
7.944e-10
2.89689e-10
-9.01455e-11
-3.90689e-11
5.67837e-10
-1.12264e-09
1.01066e-10
6.64336e-10
-2.25709e-09
1.16475e-09
5.41068e-10
-2.96549e-09
2.26039e-09
3.64484e-10
-3.13074e-09
3.49247e-09
2.29688e-10
-2.38212e-09
4.26584e-09
4.62929e-10
-6.52432e-10
3.55044e-09
1.08173e-09
2.13388e-09
1.07335e-09
-2.39845e-09
8.97218e-09
-2.39845e-09
-8.38204e-10
1.6706e-08
-1.76626e-09
3.65982e-10
1.34992e-08
-1.66181e-09
1.51993e-09
1.11023e-08
-1.33479e-09
2.61675e-09
7.99138e-09
-9.94597e-10
3.13665e-09
4.97484e-09
-6.73239e-10
2.84277e-09
2.65129e-09
-4.59456e-10
1.8605e-09
1.29122e-09
-3.31855e-10
5.20265e-10
9.9004e-10
-3.3513e-10
-6.25314e-10
1.40877e-09
-3.35031e-10
-1.15449e-09
1.95398e-09
-2.2679e-10
-8.4755e-10
2.37259e-09
4.83293e-11
5.69985e-11
2.83437e-09
3.72683e-10
1.14471e-09
3.31362e-09
6.77011e-10
2.00619e-09
3.91227e-09
8.97275e-10
2.49063e-09
4.54799e-09
9.05588e-10
2.61421e-09
4.9757e-09
7.16422e-10
2.53104e-09
4.9847e-09
4.99214e-10
2.33703e-09
4.46315e-09
3.85484e-10
2.03089e-09
3.46576e-09
4.06399e-10
1.4804e-09
2.32766e-09
5.28357e-10
5.1369e-10
1.43525e-09
5.74826e-10
-9.45134e-10
1.36715e-09
3.26662e-10
-2.36105e-09
1.8751e-09
-1.68149e-10
-3.17247e-09
2.68831e-09
-6.60959e-10
-3.24459e-09
3.13085e-09
-8.42156e-10
-2.49493e-09
3.46151e-09
-7.4236e-10
-1.1216e-09
3.47027e-09
-4.78197e-10
-3.39424e-10
3.34994e-09
-3.34088e-10
3.19996e-09
-1.12063e-09
-1.56816e-09
1.21666e-08
-1.56816e-09
4.52359e-10
1.59731e-08
-1.11684e-09
1.94368e-09
1.31538e-08
-1.02154e-09
3.35853e-09
1.04658e-08
-7.1619e-10
4.44893e-09
7.24753e-09
-3.64649e-10
4.79046e-09
4.50863e-09
2.96731e-11
4.37701e-09
2.64943e-09
2.71133e-10
3.33996e-09
1.74669e-09
4.34863e-10
2.08415e-09
1.56901e-09
5.79861e-10
1.04054e-09
1.6165e-09
8.28906e-10
4.12591e-10
1.48352e-09
1.19373e-09
9.13041e-11
1.25494e-09
1.61298e-09
-1.34975e-10
1.35781e-09
1.90151e-09
-2.70945e-10
1.73092e-09
1.8763e-09
-2.987e-10
2.48152e-09
1.52444e-09
-1.11244e-10
3.27132e-09
1.05207e-09
2.99503e-10
3.84457e-09
6.18458e-10
8.00994e-10
4.01176e-09
3.81948e-10
1.14845e-09
3.7934e-09
3.29436e-10
9.9907e-10
3.38924e-09
3.78424e-10
8.55579e-11
3.19297e-09
3.2657e-10
-1.31201e-09
3.22888e-09
-7.95502e-11
-2.78737e-09
3.7752e-09
-6.89946e-10
-3.6909e-09
4.05033e-09
-1.16771e-09
-3.52127e-09
3.7516e-09
-1.23426e-09
-2.61196e-09
3.35013e-09
-1.12005e-09
-1.43857e-09
3.3627e-09
-9.44173e-10
-6.02792e-10
3.86692e-09
-9.53298e-10
-6.70628e-10
5.22672e-09
-1.44456e-09
4.32889e-09
-1.52226e-09
-7.21066e-10
1.37163e-08
-7.21066e-10
1.5866e-09
1.40708e-08
-2.09112e-10
3.21131e-09
1.15932e-08
6.11517e-11
4.66428e-09
8.65904e-09
3.99481e-10
5.57429e-09
5.56026e-09
7.40592e-10
5.79266e-09
3.15072e-09
1.04368e-09
5.3094e-09
1.73523e-09
1.28755e-09
4.35452e-09
1.07019e-09
1.56094e-09
3.23271e-09
9.36902e-10
1.76638e-09
2.12519e-09
8.64471e-10
1.97067e-09
9.77779e-10
6.86825e-10
2.13275e-09
-3.12359e-10
7.29352e-10
2.02807e-09
-1.51206e-09
1.07016e-09
1.65508e-09
-2.39933e-09
1.66684e-09
1.01836e-09
-2.69578e-09
2.43548e-09
2.89592e-10
-2.26821e-09
2.83156e-09
-1.31224e-10
-1.36845e-09
3.1087e-09
-3.2838e-10
-5.40255e-10
3.42897e-09
-3.49845e-10
-2.57013e-10
3.79555e-09
-2.75453e-10
-7.21858e-10
4.34683e-09
-3.72185e-10
-1.8034e-09
5.10612e-09
-6.66371e-10
-3.06995e-09
5.75011e-09
-1.1383e-09
-3.66026e-09
5.67414e-09
-1.29973e-09
-3.30458e-09
4.73089e-09
-1.10705e-09
-2.3291e-09
3.28493e-09
-5.52737e-10
-1.42354e-09
2.56745e-09
-3.17517e-11
-8.3152e-10
2.9394e-09
7.93534e-11
-6.79337e-10
4.16787e-09
-1.24273e-10
-4.51838e-10
5.83433e-09
-5.31585e-10
4.14481e-09
-1.21353e-10
2.76298e-10
1.32839e-08
2.76298e-10
2.64597e-09
1.11175e-08
7.85852e-10
4.30004e-09
8.96584e-09
1.10727e-09
5.4796e-09
6.04779e-09
1.49358e-09
5.95184e-09
3.25599e-09
1.8271e-09
5.60995e-09
1.44144e-09
2.00821e-09
4.82149e-09
4.69162e-10
2.01653e-09
3.80707e-09
2.58531e-10
1.8335e-09
2.71813e-09
4.36304e-10
1.66289e-09
1.41232e-09
8.21401e-10
1.47747e-09
-1.07567e-10
1.1642e-09
1.18548e-09
-1.79765e-09
1.83445e-09
6.85744e-10
-3.29075e-09
2.57324e-09
-5.81017e-13
-4.01629e-09
2.83712e-09
-5.46042e-10
-3.77211e-09
2.7151e-09
-7.14409e-10
-2.86527e-09
2.41171e-09
-7.11357e-10
-1.82248e-09
2.38495e-09
-5.10937e-10
-1.31491e-09
3.16216e-09
-3.5463e-10
-1.57814e-09
4.48608e-09
-4.63599e-10
-2.39254e-09
5.96611e-09
-8.13987e-10
-3.20992e-09
7.08073e-09
-1.21271e-09
-3.382e-09
7.11897e-09
-1.34534e-09
-2.72641e-09
5.79327e-09
-9.90867e-10
-1.61699e-09
3.58718e-09
-1.51671e-10
-8.94935e-10
2.11043e-09
4.01681e-10
-8.47759e-10
2.09224e-09
5.36848e-10
-9.18222e-10
2.82732e-09
3.72889e-10
-8.37675e-10
3.94153e-09
3.1278e-10
-1.88953e-10
4.95249e-09
3.23665e-10
3.83174e-09
1.23517e-10
1.13349e-09
1.11475e-08
1.13349e-09
3.37043e-09
7.32783e-09
1.74277e-09
4.7599e-09
5.62909e-09
2.07583e-09
5.31661e-09
3.26821e-09
2.28828e-09
4.97619e-09
1.35513e-09
2.25243e-09
4.08902e-09
3.51176e-10
1.96098e-09
2.99011e-09
7.96879e-11
1.47682e-09
1.98765e-09
2.22411e-10
1.05454e-09
9.97933e-10
6.91771e-10
7.78434e-10
-1.54874e-10
1.46733e-09
5.55633e-10
-1.62108e-09
2.41194e-09
2.33429e-10
-3.01902e-09
3.22696e-09
-4.82114e-11
-3.8167e-09
3.51e-09
-2.73934e-10
-3.7461e-09
2.85968e-09
-2.90298e-10
-3.04773e-09
1.8615e-09
-5.93173e-11
-2.21234e-09
1.16118e-09
2.34618e-10
-1.80118e-09
1.37851e-09
4.81559e-10
-2.11206e-09
2.94368e-09
4.77495e-10
-2.85745e-09
5.15158e-09
4.50223e-11
-3.40803e-09
6.92082e-09
-4.8561e-10
-3.30358e-09
7.43105e-09
-6.25631e-10
-2.37958e-09
6.12915e-09
-1.7911e-10
-1.17243e-09
3.93318e-09
4.12049e-10
-6.77556e-10
2.10015e-09
8.49625e-10
-1.10753e-09
1.65744e-09
8.71768e-10
-1.63694e-09
2.25424e-09
4.22455e-10
-1.77712e-09
2.87443e-09
1.14534e-10
-1.31132e-09
3.35629e-09
7.30142e-11
-4.59587e-10
3.98442e-09
4.2298e-11
2.99721e-09
3.45732e-10
1.87132e-09
7.5284e-09
1.87132e-09
3.5037e-09
3.56901e-09
2.24071e-09
4.33479e-09
2.44922e-09
2.40805e-09
4.15727e-09
1.13929e-09
2.31417e-09
3.23146e-09
2.77225e-10
1.97609e-09
2.04075e-09
2.01039e-11
1.48458e-09
1.01915e-09
3.1766e-12
1.07362e-09
1.97132e-10
2.11586e-10
8.28159e-10
-5.89721e-10
7.66373e-10
7.14458e-10
-1.52065e-09
1.76881e-09
6.11335e-10
-2.4853e-09
2.88176e-09
4.28929e-10
-3.12052e-09
3.45319e-09
2.8353e-10
-3.03481e-09
2.92632e-09
3.25876e-10
-2.33914e-09
1.4076e-09
5.72104e-10
-1.5945e-09
-1.25242e-11
9.73711e-10
-1.47303e-09
-3.25667e-10
1.26575e-09
-2.02471e-09
7.62006e-10
1.12348e-09
-2.798e-09
3.12097e-09
5.74096e-10
-3.19647e-09
5.40277e-09
9.86765e-11
-2.86853e-09
6.34076e-09
1.37106e-10
-1.67014e-09
5.48685e-09
5.6479e-10
-5.66606e-10
3.59417e-09
1.23597e-09
-3.89233e-10
1.72874e-09
1.89071e-09
-1.40453e-09
1.22806e-09
1.84732e-09
-2.50039e-09
1.53944e-09
1.22985e-09
-2.91902e-09
1.87038e-09
7.88286e-10
-2.78755e-09
2.12154e-09
5.3849e-10
-1.98984e-09
1.96739e-09
4.85181e-10
-6.92878e-11
1.14773e-09
8.51138e-10
6.62973e-10
2.29155e-09
2.14781e-09
3.29881e-09
2.14781e-09
3.09837e-09
1.48158e-10
2.44128e-09
3.34529e-09
-2.84449e-10
2.42527e-09
2.721e-09
-4.75167e-10
2.15746e-09
1.54149e-09
-3.79174e-10
1.76001e-09
3.7316e-10
-2.49762e-10
1.39002e-09
-5.72774e-10
-2.01732e-10
1.13872e-09
-1.31013e-09
-4.92133e-11
1.01117e-09
-2.05479e-09
6.59618e-10
8.62931e-10
-2.73236e-09
1.79926e-09
6.2633e-10
-3.05133e-09
2.80081e-09
3.261e-10
-2.77755e-09
2.82108e-09
2.30586e-10
-1.90653e-09
1.50728e-09
3.85383e-10
-1.06765e-09
-2.55198e-10
6.55475e-10
-8.88931e-10
-1.17578e-09
8.35332e-10
-1.34385e-09
-6.29108e-10
6.37815e-10
-2.10528e-09
1.3164e-09
1.05345e-10
-2.28507e-09
3.34363e-09
-1.49326e-10
-1.59692e-09
4.47915e-09
9.98541e-11
-1.55387e-10
4.04257e-09
6.83213e-10
8.98712e-10
2.54015e-09
1.70268e-09
8.65936e-10
1.1032e-09
2.36554e-09
-4.53865e-10
6.12371e-10
2.34928e-09
-2.16212e-09
1.10647e-09
1.80429e-09
-3.07093e-09
9.83082e-10
1.44538e-09
-3.15734e-09
2.68749e-10
1.63324e-09
-2.90644e-09
2.52286e-10
1.55454e-09
-1.48986e-09
-8.48454e-10
1.36868e-09
1.05243e-09
-3.94045e-09
2.54604e-09
-2.10234e-09
3.8305e-09
2.23972e-09
-1.21363e-09
2.23972e-09
2.38174e-09
-2.45819e-09
2.30019e-09
2.07749e-09
-2.16694e-09
2.03542e-09
1.24579e-09
-1.41732e-09
1.65186e-09
1.92866e-10
-6.31889e-10
1.23521e-09
-7.69943e-10
-2.08915e-10
9.09569e-10
-1.6536e-09
2.13703e-11
6.92359e-10
-2.50703e-09
3.67778e-10
4.82282e-10
-3.26151e-09
1.29573e-09
1.42477e-10
-3.68811e-09
2.4333e-09
-2.33181e-10
-3.39611e-09
2.77013e-09
-3.47547e-10
-2.39202e-09
1.80091e-09
-1.22326e-10
-1.24394e-09
-1.02918e-11
1.99428e-10
-6.11631e-10
-1.53233e-09
4.65347e-10
-7.01544e-10
-1.72875e-09
4.69794e-10
-1.12458e-09
-5.84549e-10
2.18069e-10
-1.07322e-09
1.03454e-09
8.00793e-11
-1.06977e-10
1.94399e-09
2.83622e-10
1.43361e-09
1.90059e-09
8.78929e-10
2.61388e-09
9.0493e-10
1.78672e-09
2.50754e-09
3.38918e-10
2.13878e-09
1.10746e-09
4.45693e-10
1.92097e-09
-7.0047e-10
9.01412e-10
1.43512e-09
-2.04382e-09
1.41977e-09
9.83179e-10
-2.32066e-09
2.2908e-10
9.89655e-10
-2.04408e-09
-1.54313e-09
1.49923e-09
-1.6512e-09
-1.99273e-09
1.85125e-09
-2.33194e-10
-4.42788e-09
2.18197e-09
9.57189e-10
-7.78874e-09
2.64833e-09
-1.65045e-09
4.5311e-10
1.69844e-09
-4.72438e-09
1.69844e-09
1.24173e-09
-3.61032e-09
1.40577e-09
7.06697e-10
-2.70706e-09
9.2825e-10
4.13505e-11
-1.29611e-09
4.58394e-10
-6.22153e-10
-1.36628e-10
1.45056e-10
-1.30645e-09
4.79591e-10
1.72417e-11
-2.09707e-09
8.99959e-10
-5.40151e-11
-3.07011e-09
1.55015e-09
-1.98077e-10
-3.80725e-09
2.40353e-09
-4.07827e-10
-3.76426e-09
2.71432e-09
-4.17058e-10
-2.81458e-09
1.89025e-09
-2.06788e-10
-1.41975e-09
2.7804e-11
2.21862e-10
-3.20087e-10
-1.90346e-09
6.44057e-10
-5.14283e-11
-2.78995e-09
8.66194e-10
-2.41966e-10
-2.36251e-09