/*--------------------------------*- C++ -*----------------------------------*\
| =========                 |                                                 |
| \\      /  F ield         | OpenFOAM: The Open Source CFD Toolbox           |
|  \\    /   O peration     | Version:  2312                                  |
|   \\  /    A nd           | Website:  www.openfoam.com                      |
|    \\/     M anipulation  |                                                 |
\*---------------------------------------------------------------------------*/
FoamFile
{
    version     2.0;
    format      ascii;
    arch        "LSB;label=32;scalar=64";
    class       volVectorField;
    location    "0.941998";
    object      U;
}
// * * * * * * * * * * * * * * * * * * * * * * * * * * * * * * * * * * * * * //

dimensions      [0 1 -1 0 0 0 0];

internalField   nonuniform List<vector> 
90000
(
(-4.87075e-06 1.18816e-05 -4.87075e-06)
(-1.02061e-05 5.68182e-06 -5.23752e-06)
(-1.20473e-05 9.24374e-06 -4.98271e-06)
(-1.44481e-05 7.47913e-06 -5.98885e-06)
(-1.50926e-05 5.56012e-06 -6.0231e-06)
(-1.30851e-05 3.03323e-06 -5.93316e-06)
(-8.60596e-06 4.22039e-07 -5.35415e-06)
(-2.84227e-06 -1.34682e-06 -4.51305e-06)
(2.63186e-06 -1.70233e-06 -3.6284e-06)
(6.02207e-06 -6.72087e-07 -3.03782e-06)
(6.52629e-06 1.42984e-06 -3.21359e-06)
(4.66977e-06 3.86601e-06 -4.10631e-06)
(1.56567e-06 5.82992e-06 -5.4912e-06)
(-9.49175e-07 6.71446e-06 -6.92071e-06)
(-7.16717e-07 6.37483e-06 -8.10315e-06)
(3.52551e-06 4.9053e-06 -8.50419e-06)
(1.11511e-05 2.73641e-06 -7.76987e-06)
(2.01778e-05 8.75411e-07 -5.86042e-06)
(2.75024e-05 -1.35895e-08 -3.15976e-06)
(2.96905e-05 1.05746e-06 -2.74308e-07)
(2.48682e-05 4.15698e-06 1.61868e-06)
(1.25347e-05 8.14979e-06 2.06883e-06)
(-6.89878e-06 1.16139e-05 8.86669e-07)
(-2.95913e-05 1.35605e-05 -2.1682e-06)
(-4.90362e-05 1.21908e-05 -6.32471e-06)
(-5.81359e-05 7.19009e-06 -1.06551e-05)
(-5.16744e-05 -4.87914e-07 -1.46264e-05)
(-2.86398e-05 -1.18276e-05 -2.0471e-05)
(2.76988e-05 -8.53454e-06 -3.41946e-05)
(3.39546e-05 7.50384e-05 -6.36425e-05)
(-8.58862e-07 2.81901e-05 -8.58862e-07)
(-5.01704e-06 1.55844e-05 -1.22435e-06)
(-9.45622e-06 2.06084e-05 -1.34701e-06)
(-1.14212e-05 1.69362e-05 -1.45273e-06)
(-1.25822e-05 1.18316e-05 -1.29342e-06)
(-1.22939e-05 5.72874e-06 -1.36744e-06)
(-1.0674e-05 1.12255e-07 -1.55375e-06)
(-7.80257e-06 -3.51587e-06 -1.89029e-06)
(-4.06868e-06 -4.18039e-06 -2.29824e-06)
(9.03668e-08 -1.90813e-06 -2.59218e-06)
(4.28652e-06 2.18155e-06 -2.5939e-06)
(8.38461e-06 6.49297e-06 -2.09625e-06)
(1.22573e-05 9.59509e-06 -1.15702e-06)
(1.56053e-05 1.04147e-05 2.84683e-07)
(1.81192e-05 9.00976e-06 1.96153e-06)
(1.93288e-05 5.75053e-06 3.43289e-06)
(1.85959e-05 2.09551e-06 4.20198e-06)
(1.60158e-05 3.09302e-08 4.08305e-06)
(1.23478e-05 9.89669e-07 3.02792e-06)
(8.12936e-06 5.96064e-06 1.44899e-06)
(3.47577e-06 1.33809e-05 -1.68962e-07)
(-1.41617e-06 2.16211e-05 -1.31682e-06)
(-5.79607e-06 2.76273e-05 -1.70447e-06)
(-8.52476e-06 2.8656e-05 -1.06683e-06)
(-9.07709e-06 2.1907e-05 8.54847e-07)
(-7.3177e-06 7.57055e-06 4.45151e-06)
(-9.82915e-06 -1.23215e-05 1.10356e-05)
(-8.5118e-06 -4.27034e-05 1.99829e-05)
(3.15057e-05 -6.771e-05 2.88863e-05)
(3.30554e-05 0.000148586 2.69524e-05)
(6.44158e-07 3.11993e-05 6.44158e-07)
(-4.62835e-07 2.23287e-05 -3.56942e-07)
(-3.81645e-06 2.41624e-05 -2.63546e-07)
(-6.20064e-06 2.04005e-05 -2.62203e-08)
(-8.3626e-06 1.43964e-05 7.53012e-08)
(-1.06613e-05 7.63322e-06 -1.26882e-07)
(-1.2253e-05 1.70639e-06 -8.46023e-07)
(-1.24062e-05 -2.31606e-06 -1.83865e-06)
(-1.02471e-05 -3.66578e-06 -2.64398e-06)
(-5.24147e-06 -2.62115e-06 -3.08768e-06)
(2.38685e-06 -2.9208e-07 -2.89079e-06)
(1.1687e-05 2.05071e-06 -1.74462e-06)
(2.06849e-05 3.63119e-06 2.18601e-07)
(2.71135e-05 3.98038e-06 2.43287e-06)
(2.90635e-05 3.33148e-06 4.38372e-06)
(2.55908e-05 2.33241e-06 5.53269e-06)
(1.75379e-05 2.30569e-06 5.37188e-06)
(6.99416e-06 4.12791e-06 3.73594e-06)
(-2.91775e-06 8.40209e-06 1.1894e-06)
(-9.32736e-06 1.48639e-05 -1.92621e-06)
(-1.02209e-05 2.1797e-05 -4.23867e-06)
(-4.5174e-06 2.77459e-05 -5.14177e-06)
(6.75825e-06 3.03774e-05 -4.59441e-06)
(2.086e-05 2.63999e-05 -2.44207e-06)
(3.46209e-05 1.51357e-05 6.53659e-07)
(4.55234e-05 -1.65403e-06 3.38438e-06)
(4.30827e-05 -1.97645e-05 8.0023e-06)
(2.31338e-05 -5.37455e-05 1.35724e-05)
(3.13958e-06 -0.000137283 3.3483e-05)
(-1.35895e-06 0.000124793 4.05683e-05)
(9.23577e-07 2.61165e-05 9.23577e-07)
(2.50997e-06 2.27145e-05 1.04838e-06)
(1.87351e-06 2.29996e-05 1.25381e-06)
(-1.02967e-08 2.01499e-05 1.62102e-06)
(-2.47483e-06 1.58748e-05 1.56485e-06)
(-6.20049e-06 1.09587e-05 1.1156e-06)
(-9.95382e-06 6.00114e-06 3.86892e-07)
(-1.25288e-05 1.81019e-06 -6.69889e-07)
(-1.25232e-05 -1.15567e-06 -1.668e-06)
(-8.93974e-06 -3.13027e-06 -2.26695e-06)
(-1.95338e-06 -4.26319e-06 -2.14746e-06)
(7.12945e-06 -4.73351e-06 -1.276e-06)
(1.59625e-05 -4.30502e-06 6.8202e-08)
(2.19043e-05 -2.58182e-06 1.3936e-06)
(2.31119e-05 5.37668e-07 2.12284e-06)
(1.90747e-05 5.21777e-06 2.12352e-06)
(1.09145e-05 1.07615e-05 1.09369e-06)
(9.38516e-07 1.62384e-05 -8.34699e-07)
(-7.40964e-06 2.07514e-05 -2.95058e-06)
(-1.05756e-05 2.36188e-05 -4.5583e-06)
(-6.60912e-06 2.49614e-05 -5.48872e-06)
(5.53476e-06 2.46475e-05 -5.48868e-06)
(2.33347e-05 2.16985e-05 -4.34228e-06)
(4.17358e-05 1.49462e-05 -1.91565e-06)
(5.6291e-05 4.93421e-06 1.51488e-06)
(6.45585e-05 -6.63053e-06 3.58329e-06)
(6.96554e-05 -1.40102e-05 -5.81672e-07)
(6.15499e-05 -1.6653e-05 -4.06747e-06)
(-5.58769e-06 -0.000108095 -5.39336e-07)
(-3.09255e-05 8.10671e-05 1.06067e-05)
(1.55754e-06 1.56111e-05 1.55754e-06)
(5.67548e-06 1.5689e-05 2.6185e-06)
(8.06479e-06 1.55438e-05 2.92152e-06)
(7.70466e-06 1.46895e-05 3.25225e-06)
(6.05713e-06 1.35553e-05 3.25294e-06)
(2.41685e-06 1.16778e-05 2.91992e-06)
(-2.24223e-06 8.84654e-06 2.32839e-06)
(-6.70791e-06 5.34408e-06 1.69755e-06)
(-9.66654e-06 1.38668e-06 1.00684e-06)
(-1.0211e-05 -2.92072e-06 3.04818e-07)
(-8.41086e-06 -6.81415e-06 -1.81621e-07)
(-4.88959e-06 -9.13899e-06 -3.65389e-07)
(-7.53303e-07 -8.88392e-06 -6.15017e-07)
(2.61331e-06 -5.25321e-06 -1.15149e-06)
(4.30872e-06 1.86097e-06 -1.94328e-06)
(3.94694e-06 1.12247e-05 -3.00844e-06)
(1.93303e-06 2.02871e-05 -3.92107e-06)
(-4.8908e-07 2.69514e-05 -4.37047e-06)
(-1.34054e-06 2.93969e-05 -4.60107e-06)
(1.38558e-06 2.73106e-05 -4.50894e-06)
(9.20728e-06 2.214e-05 -3.95666e-06)
(2.16818e-05 1.55441e-05 -3.22765e-06)
(3.59471e-05 8.41538e-06 -2.37738e-06)
(4.86421e-05 2.56148e-06 -1.26268e-06)
(5.58929e-05 -1.1931e-06 1.15321e-07)
(5.4428e-05 -4.46994e-06 1.70244e-06)
(4.83567e-05 -4.04758e-06 -4.58933e-07)
(3.74563e-05 2.44776e-05 -4.92526e-06)
(-5.71957e-06 -2.26754e-05 -1.03523e-05)
(-2.04479e-05 5.71175e-05 -1.15291e-05)
(1.6335e-06 1.785e-06 1.6335e-06)
(7.46743e-06 2.0124e-06 3.20054e-06)
(1.30761e-05 2.83163e-06 3.57481e-06)
(1.53639e-05 4.4982e-06 3.66596e-06)
(1.59993e-05 6.9409e-06 3.65846e-06)
(1.41854e-05 8.67102e-06 3.6178e-06)
(1.0292e-05 8.93647e-06 3.54556e-06)
(4.91396e-06 7.34846e-06 3.48507e-06)
(-1.39053e-06 4.00291e-06 3.3333e-06)
(-8.00038e-06 -6.32168e-07 2.99272e-06)
(-1.4117e-05 -5.19981e-06 2.21699e-06)
(-1.89053e-05 -8.12478e-06 6.48313e-07)
(-2.16032e-05 -7.63742e-06 -1.34967e-06)
(-2.14093e-05 -3.17318e-06 -3.37878e-06)
(-1.81144e-05 5.08872e-06 -5.12441e-06)
(-1.23907e-05 1.53163e-05 -6.21799e-06)
(-5.00533e-06 2.45795e-05 -6.31138e-06)
(3.07504e-06 2.98137e-05 -5.39958e-06)
(1.11754e-05 2.90892e-05 -3.85981e-06)
(1.91338e-05 2.2926e-05 -2.00611e-06)
(2.66348e-05 1.41548e-05 -4.12357e-07)
(3.30889e-05 5.17709e-06 7.06107e-07)
(3.79422e-05 -1.14017e-06 1.02638e-06)
(4.01002e-05 -2.24532e-06 1.1025e-07)
(3.83264e-05 2.98216e-06 -2.03899e-06)
(2.97973e-05 1.2016e-05 -4.74398e-06)
(1.3107e-05 2.13286e-05 -7.3967e-06)
(1.56079e-06 5.30197e-05 -1.31682e-05)
(-1.56733e-05 4.41905e-05 -1.84282e-05)
(-1.60054e-05 5.91396e-05 -1.80071e-05)
(-7.16563e-07 -9.52819e-06 -7.16563e-07)
(5.37647e-06 -1.46952e-05 1.23063e-06)
(1.52176e-05 -1.16086e-05 1.41539e-06)
(2.08751e-05 -7.43362e-06 1.23906e-06)
(2.52131e-05 -1.7906e-06 1.26526e-06)
(2.7005e-05 3.57929e-06 1.71589e-06)
(2.55432e-05 7.51386e-06 2.49085e-06)
(2.03272e-05 9.22014e-06 3.30326e-06)
(1.13392e-05 8.53783e-06 3.92744e-06)
(-6.92334e-07 6.09263e-06 3.80405e-06)
(-1.43822e-05 3.0096e-06 2.93631e-06)
(-2.71575e-05 3.34488e-07 1.10331e-06)
(-3.60484e-05 -2.73757e-07 -1.35777e-06)
(-3.87653e-05 1.77939e-06 -3.90507e-06)
(-3.43966e-05 6.54472e-06 -5.63376e-06)
(-2.38459e-05 1.27649e-05 -6.05633e-06)
(-9.34782e-06 1.81887e-05 -5.18312e-06)
(6.21436e-06 2.02391e-05 -3.09678e-06)
(2.00588e-05 1.77078e-05 -1.23548e-07)
(2.99801e-05 1.12243e-05 2.50507e-06)
(3.47509e-05 3.1896e-06 4.21794e-06)
(3.42148e-05 -3.15459e-06 4.7868e-06)
(2.93115e-05 -4.32933e-06 4.11615e-06)
(2.09347e-05 1.49576e-06 2.23564e-06)
(1.02712e-05 1.45812e-05 -1.11643e-06)
(-1.99494e-06 3.45501e-05 -5.46662e-06)
(-1.45446e-05 5.35815e-05 -9.84097e-06)
(-2.17028e-05 7.90161e-05 -1.3377e-05)
(-2.0966e-05 8.28091e-05 -1.50037e-05)
(-9.78039e-06 5.9546e-05 -1.18035e-05)
(-5.2479e-06 -1.12691e-05 -5.2479e-06)
(-3.79507e-07 -2.9294e-05 -4.06221e-06)
(1.39615e-05 -2.29648e-05 -4.07285e-06)
(2.29612e-05 -1.69634e-05 -4.04882e-06)
(3.15908e-05 -9.07858e-06 -3.36924e-06)
(3.78278e-05 -6.92523e-07 -2.39174e-06)
(3.98731e-05 7.06038e-06 -8.96033e-07)
(3.6163e-05 1.32773e-05 9.4053e-07)
(2.63415e-05 1.71023e-05 2.34618e-06)
(1.13183e-05 1.86161e-05 2.91069e-06)
(-6.67767e-06 1.78975e-05 2.59154e-06)
(-2.39157e-05 1.51358e-05 1.37658e-06)
(-3.65037e-05 1.10581e-05 -2.09556e-07)
(-4.18074e-05 7.08845e-06 -1.59735e-06)
(-3.86311e-05 4.36314e-06 -2.39367e-06)
(-2.79499e-05 2.89978e-06 -2.05429e-06)
(-1.2558e-05 2.05588e-06 -4.13478e-07)
(4.06255e-06 8.32188e-07 1.99975e-06)
(1.79937e-05 -1.83506e-06 4.45401e-06)
(2.60285e-05 -5.79944e-06 6.25604e-06)
(2.74314e-05 -9.48303e-06 7.16766e-06)
(2.29862e-05 -1.02332e-05 6.98614e-06)
(1.38524e-05 -5.15882e-06 5.81949e-06)
(1.66173e-06 6.89478e-06 4.00478e-06)
(-1.1477e-05 2.51347e-05 1.25524e-06)
(-2.24958e-05 4.82677e-05 -2.28367e-06)
(-2.8145e-05 7.00962e-05 -4.73505e-06)
(-2.61204e-05 8.47603e-05 -5.7296e-06)
(-1.22131e-05 8.33815e-05 -4.5904e-06)
(-7.96344e-07 4.96454e-05 2.45636e-06)
(-9.82264e-06 3.65329e-06 -9.82264e-06)
(-6.34691e-06 -3.76271e-05 -9.08094e-06)
(1.15024e-05 -2.74463e-05 -9.1835e-06)
(2.26881e-05 -2.10912e-05 -8.69438e-06)
(3.45742e-05 -1.23777e-05 -7.40456e-06)
(4.36366e-05 -2.21572e-06 -5.49513e-06)
(4.80996e-05 8.7324e-06 -3.23654e-06)
(4.64829e-05 1.95191e-05 -1.08972e-06)
(3.82803e-05 2.83143e-05 6.68083e-07)
(2.45272e-05 3.39358e-05 2.00611e-06)
(7.5994e-06 3.49581e-05 2.70531e-06)
(-8.97379e-06 3.06108e-05 2.99331e-06)
(-2.18958e-05 2.14331e-05 3.14128e-06)
(-2.91612e-05 9.81269e-06 3.51128e-06)
(-3.02039e-05 -1.65546e-06 3.99029e-06)
(-2.58863e-05 -1.12679e-05 4.66886e-06)
(-1.80059e-05 -1.78033e-05 5.78167e-06)
(-8.96771e-06 -2.1502e-05 6.75956e-06)
(-1.13232e-06 -2.34271e-05 7.21683e-06)
(3.88491e-06 -2.40167e-05 6.86736e-06)
(5.20313e-06 -2.23207e-05 6.0232e-06)
(2.59009e-06 -1.69625e-05 5.0477e-06)
(-3.36258e-06 -6.69575e-06 3.98522e-06)
(-1.10469e-05 9.00533e-06 3.06425e-06)
(-1.85453e-05 2.86072e-05 2.24422e-06)
(-2.31293e-05 4.83169e-05 1.98433e-06)
(-2.10893e-05 6.3205e-05 2.60364e-06)
(-1.20324e-05 6.61152e-05 5.03026e-06)
(3.80445e-06 5.72086e-05 8.5339e-06)
(6.99917e-06 3.29282e-05 1.08991e-05)
(-1.12484e-05 3.25146e-05 -1.12484e-05)
(-8.4026e-06 -3.95803e-05 -9.92306e-06)
(9.53346e-06 -2.61866e-05 -9.39349e-06)
(2.00987e-05 -2.125e-05 -8.2836e-06)
(3.16128e-05 -1.31333e-05 -6.35883e-06)
(4.01708e-05 -2.42062e-06 -4.24369e-06)
(4.44587e-05 1.06772e-05 -2.15832e-06)
(4.42151e-05 2.4943e-05 -2.6549e-07)
(3.97782e-05 3.72318e-05 1.1304e-06)
(3.1842e-05 4.54549e-05 2.54953e-06)
(2.19033e-05 4.6712e-05 4.00915e-06)
(1.13882e-05 3.98168e-05 5.73514e-06)
(1.28376e-06 2.5985e-05 7.56611e-06)
(-7.82008e-06 8.49432e-06 9.15259e-06)
(-1.59949e-05 -9.04066e-06 1.03818e-05)
(-2.31715e-05 -2.36918e-05 1.07988e-05)
(-2.8552e-05 -3.35089e-05 9.94778e-06)
(-3.12173e-05 -3.84732e-05 7.80863e-06)
(-3.07315e-05 -3.93564e-05 5.0618e-06)
(-2.79055e-05 -3.70291e-05 2.41239e-06)
(-2.39331e-05 -3.1658e-05 2.71066e-07)
(-1.99482e-05 -2.25576e-05 -1.03437e-06)
(-1.70107e-05 -9.58855e-06 -1.7877e-06)
(-1.51819e-05 6.88327e-06 -1.49534e-06)
(-1.31226e-05 2.44135e-05 -2.89011e-07)
(-8.74112e-06 3.75101e-05 1.52442e-06)
(-3.69305e-07 4.28166e-05 4.43314e-06)
(8.94938e-06 3.76691e-05 7.43953e-06)
(1.38435e-05 2.99468e-05 8.71861e-06)
(7.56857e-06 2.37547e-05 5.59787e-06)
(-5.34459e-06 5.81985e-05 -5.34459e-06)
(-2.40652e-06 -3.99695e-05 -3.39141e-06)
(7.72038e-06 -2.47421e-05 -2.09913e-06)
(1.27826e-05 -2.15878e-05 -7.71166e-07)
(1.75703e-05 -1.48651e-05 9.87202e-07)
(2.03495e-05 -4.32437e-06 2.10407e-06)
(2.16661e-05 9.56592e-06 2.47541e-06)
(2.23465e-05 2.4968e-05 2.27215e-06)
(2.35573e-05 3.82413e-05 2.10051e-06)
(2.53973e-05 4.68854e-05 2.66243e-06)
(2.66523e-05 4.75897e-05 4.1583e-06)
(2.56896e-05 3.95278e-05 6.334e-06)
(2.06064e-05 2.45715e-05 8.79182e-06)
(1.01368e-05 6.30063e-06 1.03965e-05)
(-5.51987e-06 -1.14225e-05 1.06613e-05)
(-2.3726e-05 -2.53352e-05 9.3381e-06)
(-4.06367e-05 -3.46867e-05 6.32915e-06)
(-5.26555e-05 -3.99378e-05 2.23211e-06)
(-5.76121e-05 -4.15618e-05 -2.16297e-06)
(-5.51781e-05 -3.97637e-05 -5.46125e-06)
(-4.67059e-05 -3.45188e-05 -7.44892e-06)
(-3.50345e-05 -2.55811e-05 -8.00333e-06)
(-2.29462e-05 -1.26636e-05 -7.37162e-06)
(-1.1903e-05 2.1929e-06 -6.1184e-06)
(-1.65592e-06 1.59601e-05 -4.08141e-06)
(8.63045e-06 2.35992e-05 -1.051e-06)
(1.70577e-05 2.45408e-05 1.17953e-06)
(1.87839e-05 2.197e-05 1.93419e-06)
(1.2778e-05 2.44574e-05 -2.8941e-07)
(4.28333e-06 2.77471e-05 -2.26662e-06)
(8.02759e-06 6.10846e-05 8.02759e-06)
(9.15893e-06 -4.10263e-05 9.44205e-06)
(8.24204e-07 -2.67712e-05 1.13363e-05)
(-4.63855e-06 -2.39948e-05 1.09364e-05)
(-1.20402e-05 -1.82996e-05 1.03297e-05)
(-1.80562e-05 -8.29374e-06 8.22481e-06)
(-2.06762e-05 4.95986e-06 5.29562e-06)
(-1.78947e-05 1.9394e-05 2.24259e-06)
(-9.16633e-06 3.13792e-05 -1.59e-07)
(3.98311e-06 3.86578e-05 -1.15432e-06)
(1.77634e-05 3.94143e-05 -2.95666e-07)
(2.70276e-05 3.41547e-05 1.64336e-06)
(2.75011e-05 2.4483e-05 3.17806e-06)
(1.77446e-05 1.30565e-05 3.74277e-06)
(-4.8097e-07 2.0067e-06 2.73344e-06)
(-2.33216e-05 -7.0828e-06 -4.45131e-07)
(-4.55613e-05 -1.46344e-05 -4.42681e-06)
(-6.12416e-05 -2.13323e-05 -7.96492e-06)
(-6.68728e-05 -2.7232e-05 -1.06791e-05)
(-6.25216e-05 -3.09401e-05 -1.20028e-05)
(-5.06894e-05 -3.04725e-05 -1.18916e-05)
(-3.51154e-05 -2.54154e-05 -1.07128e-05)
(-1.8923e-05 -1.54883e-05 -8.824e-06)
(-3.75143e-06 -3.75199e-06 -6.56814e-06)
(9.72295e-06 6.58516e-06 -4.1401e-06)
(1.99502e-05 1.30927e-05 -1.89785e-06)
(2.41481e-05 1.78367e-05 -6.72448e-07)
(2.02594e-05 2.51586e-05 -1.38654e-06)
(1.24096e-05 3.58472e-05 -2.50535e-06)
(4.52672e-06 3.56671e-05 2.76563e-07)
(2.30497e-05 2.65757e-05 2.30497e-05)
(1.81204e-05 -3.95006e-05 2.09195e-05)
(-1.53427e-05 -2.83331e-05 1.99869e-05)
(-3.21897e-05 -2.43143e-05 1.68227e-05)
(-5.13718e-05 -1.79606e-05 1.25509e-05)
(-6.50598e-05 -8.32219e-06 7.08434e-06)
(-6.97462e-05 3.05464e-06 1.43021e-06)
(-6.34467e-05 1.38172e-05 -3.81188e-06)
(-4.67764e-05 2.20702e-05 -7.15399e-06)
(-2.30966e-05 2.66645e-05 -8.51953e-06)
(1.19572e-06 2.89874e-05 -8.31978e-06)
(1.87076e-05 3.07007e-05 -7.51961e-06)
(2.45389e-05 3.20212e-05 -6.97094e-06)
(1.80699e-05 3.31353e-05 -7.53882e-06)
(2.29758e-06 3.27623e-05 -9.14502e-06)
(-1.76138e-05 2.94772e-05 -1.09948e-05)
(-3.58696e-05 2.21359e-05 -1.24917e-05)
(-4.74262e-05 1.06833e-05 -1.34163e-05)
(-5.00715e-05 -3.01254e-06 -1.322e-05)
(-4.46739e-05 -1.54498e-05 -1.19501e-05)
(-3.44246e-05 -2.27182e-05 -9.82913e-06)
(-2.20046e-05 -2.35678e-05 -7.49076e-06)
(-8.93691e-06 -1.84591e-05 -5.1937e-06)
(3.69302e-06 -1.01889e-05 -3.10378e-06)
(1.48471e-05 -1.64103e-06 -1.23286e-06)
(2.25523e-05 6.98786e-06 2.37023e-07)
(2.46149e-05 1.83566e-05 9.21194e-07)
(2.12805e-05 3.20287e-05 1.68075e-06)
(1.74511e-05 4.11865e-05 3.95513e-06)
(8.46478e-06 4.00546e-05 8.22054e-06)
(2.92791e-05 -3.38628e-05 2.92791e-05)
(1.51284e-05 -2.48397e-05 2.01292e-05)
(-3.88641e-05 -1.80107e-05 1.64694e-05)
(-6.46502e-05 -1.18186e-05 1.11339e-05)
(-8.89683e-05 -3.83295e-06 4.92062e-06)
(-0.000103573 4.23045e-06 -1.55357e-06)
(-0.000105655 1.02373e-05 -7.1396e-06)
(-9.38145e-05 1.27375e-05 -1.04184e-05)
(-7.00084e-05 1.36287e-05 -1.20549e-05)
(-4.06118e-05 1.48089e-05 -1.22841e-05)
(-1.22342e-05 2.02499e-05 -1.15177e-05)
(8.29406e-06 3.0781e-05 -1.08342e-05)
(1.74626e-05 4.45311e-05 -1.09306e-05)
(1.65343e-05 5.80757e-05 -1.15176e-05)
(8.80096e-06 6.68863e-05 -1.19742e-05)
(-1.26117e-06 6.7679e-05 -1.22331e-05)
(-9.53556e-06 5.8648e-05 -1.16899e-05)
(-1.39376e-05 4.06077e-05 -9.95037e-06)
(-1.48747e-05 1.86191e-05 -7.27302e-06)
(-1.36065e-05 -1.56035e-06 -4.51226e-06)
(-1.11268e-05 -1.54533e-05 -2.10873e-06)
(-7.9381e-06 -2.14557e-05 -5.20492e-07)
(-3.52505e-06 -2.05435e-05 9.27147e-08)
(3.00131e-06 -1.4942e-05 3.75318e-09)
(1.04881e-05 -6.92279e-06 3.5841e-08)
(1.67367e-05 4.66839e-06 5.79098e-07)
(2.0128e-05 1.92968e-05 1.73521e-06)
(2.11456e-05 3.18849e-05 4.57956e-06)
(1.89131e-05 3.71406e-05 8.20495e-06)
(8.49764e-06 4.54559e-05 6.11611e-06)
(1.91885e-05 -8.07987e-05 1.91885e-05)
(-4.48138e-06 1.46765e-05 9.34855e-06)
(-5.9401e-05 1.34052e-05 4.18581e-06)
(-8.52996e-05 1.88466e-05 -1.82825e-06)
(-0.000105888 2.49616e-05 -6.55175e-06)
(-0.000114892 2.63144e-05 -9.47812e-06)
(-0.00011022 2.16332e-05 -1.05509e-05)
(-9.26991e-05 1.23147e-05 -1.05425e-05)
(-6.75901e-05 4.03853e-06 -9.29432e-06)
(-4.09673e-05 2.46191e-06 -8.06987e-06)
(-1.74995e-05 1.13964e-05 -6.98176e-06)
(-9.16043e-07 2.94253e-05 -6.90732e-06)
(8.99859e-06 5.29478e-05 -7.511e-06)
(1.48513e-05 7.46945e-05 -8.15986e-06)
(1.83427e-05 8.79993e-05 -7.78972e-06)
(2.09527e-05 8.92268e-05 -6.23421e-06)
(2.29643e-05 7.74526e-05 -3.37266e-06)
(2.31438e-05 5.51675e-05 1.15048e-07)
(2.0278e-05 2.92684e-05 3.56626e-06)
(1.38734e-05 6.3281e-06 5.63696e-06)
(5.02425e-06 -9.54362e-06 5.96309e-06)
(-2.98457e-06 -1.7271e-05 4.54489e-06)
(-6.8969e-06 -1.84523e-05 1.90109e-06)
(-5.73088e-06 -1.44544e-05 -1.91658e-07)
(-8.0882e-07 -5.9642e-06 -1.162e-06)
(5.10731e-06 7.23189e-06 -1.27719e-06)
(9.57677e-06 2.18242e-05 -2.89469e-07)
(1.15997e-05 3.31937e-05 9.42044e-07)
(4.22669e-06 4.31174e-05 -2.47144e-07)
(-1.76e-06 5.97199e-05 -6.61779e-06)
(6.17039e-07 -8.58024e-05 6.17039e-07)
(-2.72245e-05 7.07656e-05 -8.68285e-06)
(-6.5333e-05 5.91484e-05 -1.02609e-05)
(-8.26936e-05 5.86881e-05 -1.21639e-05)
(-9.22117e-05 5.60145e-05 -1.17935e-05)
(-9.05588e-05 4.47202e-05 -1.02601e-05)
(-7.92241e-05 2.64705e-05 -7.6045e-06)
(-6.26643e-05 6.13147e-06 -4.41831e-06)
(-4.48939e-05 -8.41237e-06 -1.6076e-06)
(-2.97792e-05 -1.08707e-05 1.76592e-07)
(-1.90643e-05 1.09746e-06 1.44076e-07)
(-1.04843e-05 2.41631e-05 -1.35969e-06)
(-1.02955e-06 5.20847e-05 -3.14125e-06)
(1.09961e-05 7.5828e-05 -3.86531e-06)
(2.4693e-05 8.9277e-05 -2.90664e-06)
(3.74046e-05 8.94741e-05 -2.58727e-07)
(4.61187e-05 7.68667e-05 3.23681e-06)
(4.75795e-05 5.56919e-05 6.49049e-06)
(4.00014e-05 3.25315e-05 8.35551e-06)
(2.56504e-05 1.28021e-05 8.22136e-06)
(9.37943e-06 -9.73293e-07 6.32066e-06)
(-3.84618e-06 -8.76282e-06 3.80394e-06)
(-1.08149e-05 -1.18413e-05 1.65477e-06)
(-1.19459e-05 -9.63322e-06 6.0013e-07)
(-1.01803e-05 -8.69071e-07 3.35377e-07)
(-8.17702e-06 1.31126e-05 2.68966e-07)
(-7.43943e-06 2.86568e-05 -1.67034e-07)
(-9.96119e-06 4.46184e-05 -2.65758e-06)
(-1.73254e-05 6.37962e-05 -7.49537e-06)
(-1.15288e-05 6.73546e-05 -7.93435e-06)
(-1.50241e-05 -4.67473e-05 -1.50241e-05)
(-3.84814e-05 0.00012304 -1.68767e-05)
(-5.15608e-05 9.96869e-05 -1.52361e-05)
(-5.59548e-05 9.05313e-05 -1.42726e-05)
(-5.24968e-05 7.52112e-05 -1.10197e-05)
(-4.29093e-05 5.09097e-05 -6.77893e-06)
(-3.13894e-05 2.23662e-05 -2.39215e-06)
(-2.23613e-05 -3.16719e-06 1.31588e-06)
(-1.82391e-05 -1.80822e-05 3.216e-06)
(-1.9055e-05 -1.79504e-05 2.72122e-06)
(-2.11597e-05 -2.89918e-06 2.24356e-07)
(-1.90756e-05 2.11813e-05 -3.04558e-06)
(-9.83696e-06 4.69829e-05 -4.95183e-06)
(6.57731e-06 6.73784e-05 -5.14364e-06)
(2.61571e-05 7.81805e-05 -3.31818e-06)
(4.30322e-05 7.82559e-05 -2.19249e-07)
(5.26091e-05 6.89092e-05 2.20378e-06)
(5.19216e-05 5.40791e-05 3.88845e-06)
(4.17359e-05 3.78998e-05 4.28886e-06)
(2.65739e-05 2.35385e-05 3.78831e-06)
(1.16114e-05 1.13415e-05 2.91465e-06)
(5.79038e-07 1.24599e-06 2.65688e-06)
(-5.54498e-06 -5.5733e-06 3.66803e-06)
(-9.23271e-06 -5.56306e-06 5.15016e-06)
(-1.3436e-05 3.05313e-06 5.87463e-06)
(-1.85599e-05 1.76668e-05 5.53765e-06)
(-2.38433e-05 3.52496e-05 3.66467e-06)
(-2.78346e-05 5.54188e-05 3.36321e-07)
(-2.51583e-05 7.12597e-05 -7.00741e-07)
(-1.10203e-05 5.08864e-05 4.09727e-06)
(-2.0074e-05 1.40494e-05 -2.0074e-05)
(-3.29317e-05 0.000156592 -1.6818e-05)
(-2.50759e-05 0.000124881 -1.50395e-05)
(-1.91424e-05 0.000106722 -1.28803e-05)
(-9.02144e-06 8.08792e-05 -9.42011e-06)
(1.4471e-06 4.95082e-05 -5.41703e-06)
(8.01809e-06 1.88795e-05 -2.1831e-06)
(7.5217e-06 -3.77069e-06 -3.64238e-07)
(-4.08859e-07 -1.35826e-05 -9.31059e-07)
(-1.19231e-05 -9.07163e-06 -2.96218e-06)
(-2.05276e-05 5.71219e-06 -5.32207e-06)
(-2.06346e-05 2.47483e-05 -6.75417e-06)
(-1.0729e-05 4.27019e-05 -6.9357e-06)
(5.9805e-06 5.60723e-05 -5.31027e-06)
(2.40715e-05 6.36917e-05 -2.88455e-06)
(3.80299e-05 6.56372e-05 -5.37282e-07)
(4.4658e-05 6.22198e-05 1.07181e-06)
(4.29998e-05 5.52627e-05 1.43593e-06)
(3.52967e-05 4.56582e-05 8.55695e-07)
(2.56918e-05 3.3967e-05 9.33698e-07)
(1.70802e-05 2.03442e-05 1.88764e-06)
(1.0067e-05 6.60791e-06 3.55959e-06)
(3.20449e-06 -2.28467e-06 5.598e-06)
(-5.82481e-06 -2.61162e-06 6.50408e-06)
(-1.69805e-05 6.52093e-06 5.78786e-06)
(-2.64926e-05 2.081e-05 4.39119e-06)
(-3.14095e-05 3.67014e-05 3.02683e-06)
(-2.88612e-05 5.085e-05 3.50961e-06)
(-1.512e-05 4.97989e-05 6.56116e-06)
(-2.81772e-06 2.54082e-05 7.51532e-06)
(-1.9155e-05 6.89053e-05 -1.9155e-05)
(-2.00527e-05 0.000168957 -1.47097e-05)
(-1.5748e-07 0.000135302 -1.40356e-05)
(8.68921e-06 0.000111689 -1.19731e-05)
(2.08789e-05 8.10256e-05 -9.2139e-06)
(2.93424e-05 4.9356e-05 -6.79717e-06)
(3.06837e-05 2.30122e-05 -4.83256e-06)
(2.41517e-05 7.40628e-06 -3.62217e-06)
(1.21603e-05 3.13851e-06 -3.59751e-06)
(-1.27433e-06 8.36762e-06 -3.77261e-06)
(-1.02271e-05 1.74471e-05 -3.65027e-06)
(-1.097e-05 2.66788e-05 -2.4849e-06)
(-4.5944e-06 3.50201e-05 -1.59504e-07)
(5.77822e-06 4.15314e-05 2.27279e-06)
(1.58795e-05 4.75208e-05 3.899e-06)
(2.28291e-05 5.24277e-05 4.2241e-06)
(2.59291e-05 5.45014e-05 3.44409e-06)
(2.60087e-05 5.30325e-05 2.54791e-06)
(2.44993e-05 4.70945e-05 2.19842e-06)
(2.19246e-05 3.62118e-05 2.51991e-06)
(1.76577e-05 2.21793e-05 3.54311e-06)
(1.0407e-05 9.8084e-06 4.22116e-06)
(-1.76515e-06 4.51994e-06 3.06542e-06)
(-1.66868e-05 8.65588e-06 -2.44861e-07)
(-2.83468e-05 1.81095e-05 -3.63022e-06)
(-3.30235e-05 2.7646e-05 -5.14788e-06)
(-2.96733e-05 3.59784e-05 -4.79393e-06)
(-1.84789e-05 3.89115e-05 -3.00674e-06)
(-6.27197e-06 3.18688e-05 -1.39982e-06)
(-8.78586e-07 2.27897e-05 -5.95715e-06)
(-1.48898e-05 0.00010816 -1.48898e-05)
(-9.47533e-06 0.000166253 -1.16711e-05)
(1.48022e-05 0.000134882 -1.08858e-05)
(2.64903e-05 0.000108974 -9.06417e-06)
(3.94314e-05 7.74722e-05 -6.73292e-06)
(4.70564e-05 4.80986e-05 -4.32042e-06)
(4.67153e-05 2.72197e-05 -1.87806e-06)
(3.9058e-05 1.7026e-05 1.69897e-07)
(2.72547e-05 1.5174e-05 1.71576e-06)
(1.54683e-05 1.71685e-05 3.53942e-06)
(6.79747e-06 1.87368e-05 5.69029e-06)
(1.94081e-06 1.87374e-05 8.01519e-06)
(-7.24115e-07 2.01005e-05 9.85274e-06)
(-2.3166e-06 2.39353e-05 1.00526e-05)
(-3.14914e-06 3.04949e-05 8.23044e-06)
(-2.48644e-06 3.82661e-05 5.67337e-06)
(8.06902e-07 4.37696e-05 3.29773e-06)
(5.6152e-06 4.47536e-05 1.98271e-06)
(9.97734e-06 4.09995e-05 1.72166e-06)
(1.12611e-05 3.35459e-05 2.09009e-06)
(6.44459e-06 2.52334e-05 1.973e-06)
(-5.4586e-06 2.18732e-05 -3.74994e-07)
(-2.06841e-05 2.42098e-05 -4.50769e-06)
(-3.29743e-05 3.01366e-05 -8.21665e-06)
(-3.69965e-05 3.34326e-05 -9.505e-06)
(-3.15472e-05 3.36271e-05 -9.26719e-06)
(-2.05329e-05 3.47419e-05 -7.98619e-06)
(-9.10202e-06 3.59123e-05 -6.96194e-06)
(-5.85732e-06 4.15716e-05 -9.3159e-06)
(-4.02737e-06 3.75637e-05 -1.04055e-05)
(-9.73986e-06 0.00013156 -9.73986e-06)
(-8.58238e-08 0.000151844 -6.69241e-06)
(2.5633e-05 0.000125097 -5.1519e-06)
(3.95697e-05 9.6775e-05 -2.33896e-06)
(5.1756e-05 6.52484e-05 8.47492e-07)
(5.76966e-05 3.89461e-05 3.69745e-06)
(5.62019e-05 2.26769e-05 5.7759e-06)
(4.86345e-05 1.52016e-05 7.62388e-06)
(3.80364e-05 1.3365e-05 9.04604e-06)
(2.67707e-05 1.21773e-05 1.06812e-05)
(1.54659e-05 9.22973e-06 1.21343e-05)
(3.23077e-06 7.031e-06 1.19348e-05)
(-9.33192e-06 8.82655e-06 1.00271e-05)
(-2.00657e-05 1.43992e-05 6.25046e-06)
(-2.61211e-05 2.27685e-05 1.81179e-06)
(-2.5176e-05 2.96993e-05 -1.26856e-06)
(-1.82419e-05 3.44265e-05 -2.4202e-06)
(-9.28692e-06 3.64044e-05 -2.64449e-06)
(-3.21597e-06 3.7163e-05 -2.19943e-06)
(-4.15379e-06 3.78207e-05 -2.76808e-06)
(-1.23948e-05 4.02775e-05 -4.95128e-06)
(-2.45319e-05 4.52534e-05 -8.26243e-06)
(-3.42045e-05 4.90901e-05 -1.04425e-05)
(-3.54764e-05 4.58229e-05 -1.02428e-05)
(-2.85847e-05 3.66121e-05 -7.42337e-06)
(-1.88385e-05 3.01986e-05 -4.13658e-06)
(-1.08368e-05 3.14083e-05 -2.32219e-06)
(-6.92877e-06 3.96819e-05 -3.069e-06)
(-5.65329e-06 5.57802e-05 -5.34831e-06)
(-2.65912e-06 4.29551e-05 -3.22147e-06)
(-2.7249e-06 0.000138237 -2.7249e-06)
(1.13944e-05 0.00012719 1.19214e-06)
(3.58022e-05 0.000104031 3.58619e-06)
(4.93469e-05 7.43015e-05 6.39619e-06)
(5.78131e-05 4.44307e-05 8.68693e-06)
(5.83899e-05 2.24853e-05 1.01151e-05)
(5.25131e-05 1.09455e-05 1.07758e-05)
(4.33103e-05 6.53134e-06 1.02112e-05)
(3.27232e-05 6.06904e-06 9.68935e-06)
(2.07799e-05 6.22922e-06 9.03834e-06)
(6.67328e-06 6.79003e-06 7.58979e-06)
(-9.5211e-06 9.96963e-06 4.76667e-06)
(-2.58278e-05 1.62015e-05 5.67934e-07)
(-3.75697e-05 2.18989e-05 -3.07111e-06)
(-3.98316e-05 2.65333e-05 -4.55764e-06)
(-3.33778e-05 2.69291e-05 -5.07036e-06)
(-2.33341e-05 2.78861e-05 -4.00149e-06)
(-1.53431e-05 3.26124e-05 -3.1667e-06)
(-1.41308e-05 4.12887e-05 -3.79074e-06)
(-1.97466e-05 5.18035e-05 -6.37277e-06)
(-2.8195e-05 6.24574e-05 -9.73082e-06)
(-3.34209e-05 6.6835e-05 -1.16765e-05)
(-3.10492e-05 6.03081e-05 -1.04441e-05)
(-2.19513e-05 4.31053e-05 -6.04051e-06)
(-1.23666e-05 2.73793e-05 -9.37067e-07)
(-8.22875e-06 2.29691e-05 1.046e-06)
(-8.46513e-06 2.86816e-05 1.94124e-07)
(-9.10005e-06 4.08189e-05 -6.59014e-07)
(-4.72123e-06 5.50486e-05 -7.99147e-07)
(-2.9361e-07 4.05108e-05 -2.04268e-06)
(4.02026e-06 0.0001254 4.02026e-06)
(2.1411e-05 9.31818e-05 7.86698e-06)
(4.17092e-05 7.37e-05 1.01281e-05)
(5.11085e-05 4.66971e-05 1.17666e-05)
(5.21575e-05 2.26623e-05 1.22688e-05)
(4.57373e-05 7.88984e-06 1.11992e-05)
(3.55303e-05 2.15125e-06 8.82227e-06)
(2.49276e-05 2.09271e-06 6.56184e-06)
(1.50355e-05 5.17205e-06 5.07804e-06)
(4.44295e-06 1.03703e-05 3.86897e-06)
(-8.70601e-06 1.76664e-05 2.01311e-06)
(-2.33352e-05 2.57893e-05 -2.82201e-07)
(-3.46888e-05 3.12922e-05 -1.96418e-06)
(-3.86414e-05 3.01575e-05 -2.65567e-06)
(-3.44785e-05 2.46621e-05 -1.66096e-06)
(-2.62284e-05 1.88012e-05 3.46925e-07)
(-1.98025e-05 1.92346e-05 2.37472e-06)
(-1.93563e-05 3.08356e-05 2.39754e-06)
(-2.48661e-05 4.90354e-05 -8.55723e-07)
(-3.15642e-05 6.62817e-05 -4.84255e-06)
(-3.40019e-05 7.5345e-05 -6.85539e-06)
(-2.8818e-05 6.96338e-05 -5.89984e-06)
(-1.77994e-05 5.0265e-05 -1.87679e-06)
(-8.76102e-06 2.87598e-05 2.19151e-06)
(-8.30033e-06 1.83979e-05 3.07072e-06)
(-1.35991e-05 2.15337e-05 -1.22126e-08)
(-1.74501e-05 2.89352e-05 -3.29804e-06)
(-1.61157e-05 3.72888e-05 -4.62737e-06)
(-8.45425e-06 4.62945e-05 -5.21702e-06)
(-1.71903e-06 3.63829e-05 -3.18274e-06)
(9.04128e-06 9.49738e-05 9.04128e-06)
(2.6886e-05 5.47096e-05 1.15856e-05)
(4.03266e-05 4.04237e-05 1.3182e-05)
(4.33246e-05 2.13539e-05 1.33358e-05)
(3.75133e-05 7.42571e-06 1.20194e-05)
(2.65571e-05 1.171e-06 9.37022e-06)
(1.52033e-05 1.78067e-07 6.90214e-06)
(5.99296e-06 2.28096e-06 5.29993e-06)
(-1.83274e-06 7.50111e-06 4.54193e-06)
(-1.03686e-05 1.63614e-05 3.86932e-06)
(-1.99857e-05 2.69067e-05 2.71444e-06)
(-2.82703e-05 3.44446e-05 1.62484e-06)
(-3.12517e-05 3.34763e-05 1.73127e-06)
(-2.71521e-05 2.26405e-05 3.13058e-06)
(-1.94303e-05 9.01725e-06 5.2862e-06)
(-1.47594e-05 2.60945e-06 7.13027e-06)
(-1.71651e-05 9.55794e-06 6.41059e-06)
(-2.42604e-05 3.06825e-05 3.1309e-06)
(-3.03395e-05 5.46691e-05 -5.48355e-07)
(-3.08074e-05 6.89505e-05 -1.20422e-06)
(-2.30169e-05 6.72914e-05 1.08498e-06)
(-1.09937e-05 5.0476e-05 5.37957e-06)
(-3.99456e-06 2.81945e-05 9.34054e-06)
(-8.38724e-06 1.54066e-05 9.37409e-06)
(-1.96395e-05 1.60627e-05 6.05799e-06)
(-2.75066e-05 2.2751e-05 2.75126e-06)
(-2.91658e-05 2.67945e-05 9.59139e-08)
(-2.52616e-05 2.87875e-05 -1.40793e-06)
(-7.38817e-06 3.01634e-05 7.00549e-07)
(3.3718e-06 2.04552e-05 1.1211e-05)
(1.15918e-05 5.51063e-05 1.15918e-05)
(2.70733e-05 1.80839e-05 1.39663e-05)
(3.31406e-05 1.01731e-05 1.47429e-05)
(3.11161e-05 2.31694e-06 1.35829e-05)
(2.17027e-05 -1.11414e-06 1.13104e-05)
(9.64968e-06 -1.49193e-06 9.05328e-06)
(-9.91647e-07 -1.02792e-06 7.40425e-06)
(-9.3037e-06 8.29537e-07 6.53525e-06)
(-1.6642e-05 6.94113e-06 5.59728e-06)
(-2.38616e-05 1.79212e-05 4.09494e-06)
(-2.90557e-05 2.88033e-05 2.21639e-06)
(-2.94167e-05 3.22035e-05 1.46197e-06)
(-2.35508e-05 2.29087e-05 2.22455e-06)
(-1.43845e-05 5.86878e-06 3.69733e-06)
(-8.84165e-06 -7.82708e-06 4.90982e-06)
(-1.06729e-05 -6.80231e-06 3.90589e-06)
(-1.74466e-05 9.78524e-06 4.68798e-07)
(-2.24886e-05 3.34629e-05 -1.64998e-06)
(-2.01114e-05 5.16071e-05 -7.16714e-07)
(-9.15312e-06 5.38557e-05 3.17635e-06)
(5.0482e-06 4.12933e-05 8.81204e-06)
(1.13928e-05 2.26226e-05 1.31708e-05)
(3.3952e-06 9.38763e-06 1.37299e-05)
(-1.32323e-05 1.03732e-05 1.06237e-05)
(-2.69199e-05 1.30949e-05 8.16078e-06)
(-3.19426e-05 1.2848e-05 8.88288e-06)
(-3.11395e-05 1.37044e-05 8.07481e-06)