/*--------------------------------*- C++ -*----------------------------------*\
| =========                 |                                                 |
| \\      /  F ield         | OpenFOAM: The Open Source CFD Toolbox           |
|  \\    /   O peration     | Version:  2312                                  |
|   \\  /    A nd           | Website:  www.openfoam.com                      |
|    \\/     M anipulation  |                                                 |
\*---------------------------------------------------------------------------*/
FoamFile
{
    version     2.0;
    format      ascii;
    arch        "LSB;label=32;scalar=64";
    class       surfaceScalarField;
    location    "0.14934";
    object      alphaPhi0.water;
}
// * * * * * * * * * * * * * * * * * * * * * * * * * * * * * * * * * * * * * //

dimensions      [0 3 -1 0 0 0 0];

oriented        oriented;

internalField   nonuniform List<scalar> 
263100
(
-1.21975e-10
2.4395e-10
-1.21975e-10
-2.05326e-10
2.41387e-10
-1.24189e-10
-2.8141e-10
2.36412e-10
-1.30564e-10
-3.32539e-10
2.24361e-10
-1.38332e-10
-3.53565e-10
2.08711e-10
-1.44894e-10
-3.44624e-10
1.89911e-10
-1.4865e-10
-3.10598e-10
1.67654e-10
-1.48376e-10
-2.60411e-10
1.42315e-10
-1.43999e-10
-2.04237e-10
1.14064e-10
-1.36548e-10
-1.48404e-10
7.86966e-11
-1.25326e-10
-1.02435e-10
4.75729e-11
-1.15445e-10
-6.82014e-11
1.96249e-11
-1.0828e-10
-4.24745e-11
-3.70238e-12
-1.04246e-10
-1.94311e-11
-1.92965e-11
-1.03555e-10
8.91369e-12
-2.61092e-11
-1.05894e-10
5.01698e-11
-2.40097e-11
-1.10247e-10
1.08612e-10
-1.30445e-11
-1.15232e-10
1.83982e-10
5.8719e-12
-1.19575e-10
2.73125e-10
2.9183e-11
-1.22201e-10
3.67907e-10
5.69447e-11
-1.23759e-10
4.55532e-10
8.97085e-11
-1.24973e-10
5.25536e-10
1.19595e-10
-1.23613e-10
5.6738e-10
1.46853e-10
-1.21023e-10
5.73801e-10
1.70582e-10
-1.18332e-10
5.42134e-10
1.90065e-10
-1.16101e-10
4.74804e-10
2.04752e-10
-1.14525e-10
3.78676e-10
2.14805e-10
-1.14288e-10
2.6334e-10
2.26257e-10
-1.21797e-10
1.31579e-10
2.94333e-10
-1.84876e-10
3.97882e-10
-2.96548e-10
-1.16585e-10
5.16581e-10
-1.16585e-10
-2.06814e-10
5.0276e-10
-1.17157e-10
-2.85721e-10
4.93693e-10
-1.21705e-10
-3.40572e-10
4.74931e-10
-1.27963e-10
-3.66455e-10
4.47414e-10
-1.33934e-10
-3.62942e-10
4.08763e-10
-1.38446e-10
-3.3399e-10
3.56553e-10
-1.40728e-10
-2.87142e-10
2.90375e-10
-1.39919e-10
-2.35966e-10
2.18949e-10
-1.38309e-10
-1.85831e-10
1.35183e-10
-1.36746e-10
-1.38172e-10
5.1301e-11
-1.3211e-10
-9.68615e-11
-1.85333e-11
-1.27742e-10
-6.12785e-11
-6.78928e-11
-1.24511e-10
-2.62343e-11
-9.29957e-11
-1.22022e-10
1.42307e-11
-9.20536e-11
-1.20352e-10
6.53284e-11
-6.71094e-11
-1.19414e-10
1.30639e-10
-2.29995e-11
-1.18953e-10
2.10946e-10
3.40221e-11
-1.18868e-10
3.02461e-10
9.6932e-11
-1.19516e-10
3.9632e-10
1.62643e-10
-1.20147e-10
4.83814e-10
2.23364e-10
-1.18066e-10
5.54093e-10
2.71733e-10
-1.14271e-10
5.95085e-10
3.13094e-10
-1.11821e-10
5.97842e-10
3.46761e-10
-1.09928e-10
5.59533e-10
3.72004e-10
-1.08443e-10
4.85367e-10
3.87345e-10
-1.08524e-10
3.87501e-10
3.88531e-10
-1.11534e-10
2.80284e-10
3.6969e-10
-1.21981e-10
2.03109e-10
3.4002e-10
-1.63574e-10
3.86374e-10
-2.5877e-10
-1.15439e-10
7.70946e-10
-1.15439e-10
-2.11992e-10
7.42554e-10
-1.1547e-10
-2.97299e-10
7.27192e-10
-1.18506e-10
-3.61649e-10
7.00511e-10
-1.2303e-10
-4.00841e-10
6.6187e-10
-1.28056e-10
-4.135e-10
6.06468e-10
-1.32774e-10
-4.01559e-10
5.30792e-10
-1.36594e-10
-3.6957e-10
4.3514e-10
-1.39575e-10
-3.20031e-10
3.25131e-10
-1.40015e-10
-2.67177e-10
2.12829e-10
-1.4206e-10
-2.08665e-10
9.58286e-11
-1.42633e-10
-1.48383e-10
5.06455e-14
-1.41855e-10
-8.64987e-11
-6.71755e-11
-1.40005e-10
-2.36736e-11
-9.915e-11
-1.37158e-10
4.15072e-11
-9.58311e-11
-1.33531e-10
1.11346e-10
-6.13253e-11
-1.29674e-10
1.87599e-10
-1.72114e-12
-1.26683e-10
2.70974e-10
7.48468e-11
-1.25183e-10
3.60135e-10
1.59274e-10
-1.25062e-10
4.50151e-10
2.45991e-10
-1.24654e-10
5.36428e-10
3.20748e-10
-1.22246e-10
6.02584e-10
3.88569e-10
-1.21835e-10
6.35998e-10
4.45754e-10
-1.19145e-10
6.28016e-10
4.91846e-10
-1.15932e-10
5.7649e-10
5.27496e-10
-1.13998e-10
4.84928e-10
5.54497e-10
-1.12078e-10
3.5525e-10
5.82945e-10
-1.03645e-10
2.18727e-10
6.11076e-10
-8.63401e-11
2.12597e-10
5.87581e-10
-9.2738e-11
5.94671e-10
-1.32305e-10
-1.24928e-10
1.02865e-09
-1.24928e-10
-2.26546e-10
9.8216e-10
-1.23152e-10
-3.20331e-10
9.60206e-10
-1.23375e-10
-3.97363e-10
9.24209e-10
-1.25114e-10
-4.54039e-10
8.73104e-10
-1.27282e-10
-4.8753e-10
8.0115e-10
-1.30311e-10
-4.96558e-10
7.0534e-10
-1.344e-10
-4.81158e-10
5.87217e-10
-1.3957e-10
-4.41773e-10
4.52919e-10
-1.44985e-10
-3.78718e-10
3.13988e-10
-1.48754e-10
-3.05475e-10
1.8646e-10
-1.54814e-10
-2.1614e-10
7.09813e-11
-1.56619e-10
-1.19588e-10
-8.85795e-12
-1.55745e-10
-2.04721e-11
-5.06685e-11
-1.52512e-10
7.70122e-11
-5.36347e-11
-1.48181e-10
1.7073e-10
-2.14752e-11
-1.44345e-10
2.61564e-10
3.91755e-11
-1.41886e-10
3.51575e-10
1.20666e-10
-1.41093e-10
4.40687e-10
2.15111e-10
-1.41262e-10
5.29911e-10
3.11547e-10
-1.40835e-10
6.07231e-10
4.04625e-10
-1.40664e-10
6.62396e-10
4.88984e-10
-1.37497e-10
6.83689e-10
5.61404e-10
-1.33429e-10
6.63735e-10
6.20542e-10
-1.30752e-10
6.03099e-10
6.65968e-10
-1.316e-10
5.0827e-10
6.98009e-10
-1.37417e-10
3.83089e-10
7.22391e-10
-1.44459e-10
2.17493e-10
7.56627e-10
-1.36248e-10
1.36519e-10
7.83365e-10
-1.31626e-10
8.02082e-10
-1.42364e-10
-1.45254e-10
1.3197e-09
-1.45254e-10
-2.52017e-10
1.25843e-09
-1.40345e-10
-3.56129e-10
1.22795e-09
-1.36955e-10
-4.48385e-10
1.17782e-09
-1.34593e-10
-5.2519e-10
1.10819e-09
-1.33124e-10
-5.81955e-10
1.01462e-09
-1.33737e-10
-6.13352e-10
8.96316e-10
-1.37329e-10
-6.15431e-10
7.58382e-10
-1.44116e-10
-5.82728e-10
6.04303e-10
-1.52121e-10
-5.16153e-10
4.4994e-10
-1.60296e-10
-4.16458e-10
3.05678e-10
-1.66118e-10
-2.97575e-10
1.8273e-10
-1.71104e-10
-1.62934e-10
8.66103e-11
-1.71495e-10
-2.47761e-11
2.86136e-11
-1.69184e-10
1.07946e-10
1.00786e-11
-1.66597e-10
2.30633e-10
2.82589e-11
-1.64529e-10
3.42684e-10
7.96113e-11
-1.63888e-10
4.45222e-10
1.60518e-10
-1.65124e-10
5.3998e-10
2.61993e-10
-1.65855e-10
6.24931e-10
3.73966e-10
-1.6594e-10
6.92968e-10
4.88032e-10
-1.63608e-10
7.3465e-10
5.95047e-10
-1.5973e-10
7.40794e-10
6.89292e-10
-1.55949e-10
7.0614e-10
7.68667e-10
-1.53478e-10
6.32098e-10
8.35384e-10
-1.53067e-10
5.29295e-10
8.93393e-10
-1.55734e-10
4.12449e-10
9.42997e-10
-1.63382e-10
2.56018e-10
9.91889e-10
-1.62229e-10
1.32e-10
1.04187e-09
-1.58563e-10
1.07768e-09
-1.57681e-10
-1.74715e-10
1.68275e-09
-1.74715e-10
-2.89924e-10
1.61462e-09
-1.65604e-10
-4.0916e-10
1.57103e-09
-1.58646e-10
-5.20694e-10
1.49772e-09
-1.52609e-10
-6.20134e-10
1.39795e-09
-1.48075e-10
-7.00359e-10
1.27134e-09
-1.4709e-10
-7.52877e-10
1.12151e-09
-1.50062e-10
-7.68134e-10
9.56921e-10
-1.5787e-10
-7.38556e-10
7.80156e-10
-1.675e-10
-6.62628e-10
6.07541e-10
-1.77097e-10
-5.44236e-10
4.46261e-10
-1.84743e-10
-3.92986e-10
3.04849e-10
-1.89478e-10
-2.22381e-10
1.88395e-10
-1.92425e-10
-4.47056e-11
1.05148e-10
-1.92958e-10
1.25125e-10
6.59474e-11
-1.94145e-10
2.82305e-10
6.4529e-11
-1.94913e-10
4.24411e-10
1.03748e-10
-1.95348e-10
5.48204e-10
1.88159e-10
-1.96467e-10
6.54552e-10
3.04002e-10
-1.96119e-10
7.39998e-10
4.4186e-10
-1.94349e-10
7.99398e-10
5.87919e-10
-1.90852e-10
8.26449e-10
7.29567e-10
-1.87176e-10
8.16726e-10
8.58403e-10
-1.84792e-10
7.70003e-10
9.71511e-10
-1.84786e-10
6.89248e-10
1.07164e-09
-1.86012e-10
5.80508e-10
1.1655e-09
-1.8621e-10
4.59866e-10
1.25497e-09
-1.87151e-10
3.13493e-10
1.33617e-09
-1.82058e-10
1.65862e-10
1.40669e-09
-1.74721e-10
1.45825e-09
-1.67256e-10
-2.09877e-10
2.15028e-09
-2.09877e-10
-3.4429e-10
2.08126e-09
-1.96874e-10
-4.88216e-10
2.01696e-09
-1.87972e-10
-6.25838e-10
1.90812e-09
-1.80351e-10
-7.50607e-10
1.76338e-09
-1.75343e-10
-8.52907e-10
1.58875e-09
-1.74539e-10
-9.20755e-10
1.39325e-09
-1.78299e-10
-9.43189e-10
1.18858e-09
-1.84987e-10
-9.12219e-10
9.79174e-10
-1.94748e-10
-8.25051e-10
7.77213e-10
-2.04234e-10
-6.86791e-10
5.87778e-10
-2.12061e-10
-5.08056e-10
4.16841e-10
-2.1819e-10
-3.04756e-10
2.70917e-10
-2.23165e-10
-8.93042e-11
1.55697e-10
-2.2702e-10
1.24178e-10
9.07329e-11
-2.30997e-10
3.26962e-10
7.13711e-11
-2.33835e-10
5.08402e-10
1.11194e-10
-2.36862e-10
6.65414e-10
2.05767e-10
-2.34701e-10
7.9274e-10
3.47677e-10
-2.32063e-10
8.84726e-10
5.22388e-10
-2.27228e-10
9.38624e-10
7.11304e-10
-2.22648e-10
9.5252e-10
9.00287e-10
-2.19697e-10
9.2808e-10
1.07966e-09
-2.19184e-10
8.70333e-10
1.24638e-09
-2.2055e-10
7.85191e-10
1.40147e-09
-2.21714e-10
6.74698e-10
1.54736e-09
-2.19526e-10
5.44791e-10
1.683e-09
-2.14499e-10
3.89557e-10
1.7992e-09
-2.04479e-10
2.13601e-10
1.8874e-09
-1.93814e-10
1.94634e-09
-1.8308e-10
-2.47984e-10
2.73457e-09
-2.47984e-10
-4.21169e-10
2.66259e-09
-2.33725e-10
-6.046e-10
2.56819e-09
-2.25431e-10
-7.77559e-10
2.41148e-09
-2.19994e-10
-9.30772e-10
2.20833e-09
-2.17473e-10
-1.05255e-09
1.97224e-09
-2.18774e-10
-1.13018e-09
1.71792e-09
-2.23503e-10
-1.15185e-09
1.45843e-09
-2.29823e-10
-1.11352e-09
1.20239e-09
-2.37228e-10
-1.01412e-09
9.58052e-10
-2.45713e-10
-8.56886e-10
7.24819e-10
-2.53166e-10
-6.52976e-10
5.12472e-10
-2.6098e-10
-4.14668e-10
3.27409e-10
-2.69178e-10
-1.58427e-10
1.83533e-10
-2.78741e-10
1.08212e-10
9.1594e-11
-2.84367e-10
3.66421e-10
6.59459e-11
-2.8873e-10
6.02129e-10
1.14895e-10
-2.88798e-10
8.0587e-10
2.27814e-10
-2.83413e-10
9.65081e-10
4.01868e-10
-2.75903e-10
1.07077e-09
6.20084e-10
-2.68224e-10
1.12512e-09
8.56194e-10
-2.61896e-10
1.1309e-09
1.10319e-09
-2.60136e-10
1.09614e-09
1.349e-09
-2.61482e-10
1.02927e-09
1.58864e-09
-2.63351e-10
9.36296e-10
1.81823e-09
-2.62766e-10
8.1658e-10
2.03124e-09
-2.57052e-10
6.66703e-10
2.21829e-09
-2.47229e-10
4.82076e-10
2.36722e-09
-2.34643e-10
2.64524e-10
2.46943e-09
-2.24258e-10
2.52919e-09
-2.15999e-10
-2.89495e-10
3.42484e-09
-2.89495e-10
-5.28925e-10
3.34185e-09
-2.79234e-10
-7.69262e-10
3.20827e-09
-2.75409e-10
-9.88022e-10
2.99541e-09
-2.75093e-10
-1.17301e-09
2.72668e-09
-2.77282e-10
-1.3117e-09
2.42211e-09
-2.81685e-10
-1.39323e-09
2.10071e-09
-2.87138e-10
-1.41019e-09
1.77726e-09
-2.92728e-10
-1.36023e-09
1.461e-09
-2.98488e-10
-1.24363e-09
1.15709e-09
-3.04296e-10
-1.06659e-09
8.69246e-10
-3.12478e-10
-8.3468e-10
6.05524e-10
-3.22578e-10
-5.56854e-10
3.77763e-10
-3.34235e-10
-2.47787e-10
2.0769e-10
-3.46167e-10
8.17745e-11
9.8856e-11
-3.5347e-10
4.10203e-10
7.43034e-11
-3.5562e-10
7.14441e-10
1.38314e-10
-3.51433e-10
9.76786e-10
2.71705e-10
-3.41695e-10
1.177e-09
4.77529e-10
-3.29921e-10
1.3072e-09
7.3597e-10
-3.19968e-10
1.37148e-09
1.02161e-09
-3.14375e-10
1.37786e-09
1.33445e-09
-3.13651e-10
1.33888e-09
1.65997e-09
-3.15264e-10
1.26375e-09
1.98744e-09
-3.15317e-10
1.15529e-09
2.30342e-09
-3.10973e-10
1.0096e-09
2.59108e-09
-3.01601e-10
8.20246e-10
2.83265e-09
-2.90077e-10
5.85765e-10
3.01504e-09
-2.7976e-10
3.13841e-10
3.13261e-09
-2.73557e-10
3.19171e-09
-2.69047e-10
-3.41527e-10
4.20495e-09
-3.41527e-10
-6.74448e-10
4.10103e-09
-3.40118e-10
-9.88767e-10
3.92366e-09
-3.43603e-10
-1.26359e-09
3.65413e-09
-3.50332e-10
-1.48434e-09
3.32099e-09
-3.57835e-10
-1.63943e-09
2.94805e-09
-3.64944e-10
-1.72225e-09
2.55627e-09
-3.7039e-10
-1.73069e-09
2.16094e-09
-3.74322e-10
-1.66601e-09
1.77174e-09
-3.77985e-10
-1.53058e-09
1.3954e-09
-3.83239e-10
-1.32718e-09
1.04009e-09
-3.91813e-10
-1.05854e-09
7.18644e-10
-4.03502e-10
-7.30473e-10
4.48887e-10
-4.16622e-10
-3.50438e-10
2.50306e-10
-4.26711e-10
5.4867e-11
1.41117e-10
-4.34397e-10
4.63944e-10
1.22374e-10
-4.32509e-10
8.51418e-10
1.92923e-10
-4.21313e-10
1.17914e-09
3.51502e-10
-4.09957e-10
1.42825e-09
5.85898e-10
-3.97286e-10
1.59833e-09
8.74916e-10
-3.86794e-10
1.68593e-09
1.21816e-09
-3.83993e-10
1.70546e-09
1.60402e-09
-3.83614e-10
1.66918e-09
2.01827e-09
-3.8318e-10
1.58327e-09
2.44085e-09
-3.78991e-10
1.44724e-09
2.84594e-09
-3.70295e-10
1.25458e-09
3.21036e-09
-3.59311e-10
1.00401e-09
3.50858e-09
-3.49761e-10
7.02121e-10
3.72917e-09
-3.43881e-10
3.65495e-10
3.86926e-09
-3.41958e-10
3.93617e-09
-3.41283e-10
-4.15388e-10
5.07994e-09
-4.15388e-10
-8.62019e-10
4.95008e-09
-4.25419e-10
-1.26385e-09
4.73022e-09
-4.3632e-10
-1.60354e-09
4.40944e-09
-4.48893e-10
-1.86535e-09
4.01747e-09
-4.60037e-10
-2.04036e-09
3.57811e-09
-4.6815e-10
-2.12669e-09
3.11122e-09
-4.72494e-10
-2.12729e-09
2.63257e-09
-4.74553e-10
-2.04614e-09
2.15448e-09
-4.76879e-10
-1.88537e-09
1.68932e-09
-4.81796e-10
-1.64472e-09
1.25358e-09
-4.90701e-10
-1.32373e-09
8.68292e-10
-5.02905e-10
-9.26672e-10
5.56285e-10
-5.15172e-10
-4.66769e-10
3.36736e-10
-5.23384e-10
3.33633e-11
2.20246e-10
-5.23413e-10
5.37816e-10
2.07682e-10
-5.17096e-10
1.00756e-09
2.92881e-10
-5.06672e-10
1.4079e-09
4.71748e-10
-4.93234e-10
1.72528e-09
7.27794e-10
-4.81554e-10
1.94547e-09
1.06427e-09
-4.76675e-10
2.07433e-09
1.47292e-09
-4.743e-10
2.1215e-09
1.94241e-09
-4.72166e-10
2.09344e-09
2.45176e-09
-4.66831e-10
1.99202e-09
2.96947e-09
-4.57322e-10
1.81091e-09
3.46458e-09
-4.45467e-10
1.55286e-09
3.90281e-09
-4.35159e-10
1.22429e-09
4.2625e-09
-4.29489e-10
8.4254e-10
4.53231e-09
-4.28153e-10
4.29963e-10
4.70957e-09
-4.28353e-10
4.79946e-09
-4.27436e-10
-5.20268e-10
6.09376e-09
-5.20268e-10
-1.08952e-09
5.93814e-09
-5.37677e-10
-1.58816e-09
5.68141e-09
-5.53442e-10
-2.00199e-09
5.31609e-09
-5.69116e-10
-2.31439e-09
4.86708e-09
-5.81197e-10
-2.5192e-09
4.35602e-09
-5.88759e-10
-2.61704e-09
3.79871e-09
-5.91527e-10
-2.61407e-09
3.21562e-09
-5.92628e-10
-2.51458e-09
2.62486e-09
-5.94723e-10
-2.31891e-09
2.0498e-09
-6.00459e-10
-2.02463e-09
1.51882e-09
-6.10121e-10
-1.63097e-09
1.06149e-09
-6.21383e-10
-1.1444e-09
7.0318e-10
-6.30576e-10
-5.84743e-10
4.60863e-10
-6.34125e-10
1.76666e-11
3.35792e-10
-6.30175e-10
6.20845e-10
3.26928e-10
-6.20805e-10
1.18338e-09
4.24646e-10
-6.08732e-10
1.67374e-09
6.26652e-10
-5.98334e-10
2.06747e-09
9.29244e-10
-5.9293e-10
2.35852e-09
1.33217e-09
-5.90275e-10
2.54649e-09
1.82761e-09
-5.87378e-10
2.63214e-09
2.39682e-09
-5.80915e-10
2.61322e-09
3.00909e-09
-5.69801e-10
2.48475e-09
3.62558e-09
-5.55939e-10
2.24822e-09
4.20885e-09
-5.43636e-10
1.91216e-09
4.72782e-09
-5.36807e-10
1.49523e-09
5.16142e-09
-5.34139e-10
1.0228e-09
5.4985e-09
-5.33815e-10
5.19205e-10
5.7321e-09
-5.32688e-10
5.86084e-09
-5.28898e-10
-6.57004e-10
7.32439e-09
-6.57004e-10
-1.3534e-09
7.15428e-09
-6.78975e-10
-1.95881e-09
6.86259e-09
-6.95109e-10
-2.45888e-09
6.44887e-09
-7.09069e-10
-2.83691e-09
5.93085e-09
-7.18792e-10
-3.08636e-09
5.3254e-09
-7.2389e-10
-3.2096e-09
4.65081e-09
-7.2692e-10
-3.20974e-09
3.93166e-09
-7.29866e-10
-3.08874e-09
3.19922e-09
-7.35378e-10
-2.84492e-09
2.49121e-09
-7.44311e-10
-2.47644e-09
1.84874e-09
-7.55194e-10
-1.9866e-09
1.30812e-09
-7.64914e-10
-1.3894e-09
8.93951e-10
-7.69802e-10
-7.11451e-10
6.17236e-10
-7.68021e-10
6.87825e-12
4.76897e-10
-7.60949e-10
7.21836e-10
4.68029e-10
-7.50968e-10
1.39114e-09
5.86697e-10
-7.42552e-10
1.98342e-09
8.33948e-10
-7.3738e-10
2.47692e-09
1.2107e-09
-7.34981e-10
2.85865e-09
1.71265e-09
-7.31929e-10
3.11825e-09
2.32334e-09
-7.24741e-10
3.24509e-09
3.01288e-09
-7.12334e-10
3.22898e-09
3.74199e-09
-6.96716e-10
3.06638e-09
4.46688e-09
-6.81381e-10
2.76575e-09
5.15152e-09
-6.70805e-10
2.34601e-09
5.76916e-09
-6.64936e-10
1.83468e-09
6.2989e-09
-6.61583e-10
1.25979e-09
6.72475e-09
-6.57355e-10
6.44315e-10
7.03041e-09
-6.51422e-10
7.20272e-09
-6.43826e-10
-8.23419e-10
8.87007e-09
-8.23419e-10
-1.65129e-09
8.6906e-09
-8.41825e-10
-2.37759e-09
8.35567e-09
-8.53577e-10
-2.98323e-09
7.875e-09
-8.63329e-10
-3.44953e-09
7.26006e-09
-8.70659e-10
-3.76671e-09
6.5259e-09
-8.7663e-10
-3.93107e-09
5.69622e-09
-8.83509e-10
-3.94038e-09
4.80698e-09
-8.93108e-10
-3.79158e-09
3.90541e-09
-9.064e-10
-3.48224e-09
3.0437e-09
-9.21221e-10
-3.01511e-09
2.27302e-09
-9.34058e-10
-2.40257e-09
1.63267e-09
-9.41882e-10
-1.66981e-09
1.14493e-09
-9.43057e-10
-8.54226e-10
8.17185e-10
-9.37999e-10
-7.02677e-13
6.48696e-10
-9.29876e-10
8.45751e-10
6.39112e-10
-9.22482e-10
1.6455e-09
7.91337e-10
-9.18047e-10
2.36711e-09
1.10971e-09
-9.15989e-10
2.98421e-09
1.59212e-09
-9.12518e-10
3.47273e-09
2.22434e-09
-9.04257e-10
3.8093e-09
2.97701e-09
-8.90286e-10
3.97372e-09
3.80927e-09
-8.72707e-10
3.95206e-09
4.67893e-09
-8.55546e-10
3.75051e-09
5.53502e-09
-8.40921e-10
3.38269e-09
6.35253e-09
-8.30515e-10
2.87631e-09
7.10119e-09
-8.22251e-10
2.26141e-09
7.75542e-09
-8.13688e-10
1.56504e-09
8.28743e-09
-8.03583e-10
8.09296e-10
8.66696e-09
-7.92618e-10
8.86894e-09
-7.81281e-10
-1.01556e-09
1.08229e-08
-1.01556e-09
-1.98982e-09
1.06239e-08
-1.02511e-09
-2.86081e-09
1.02258e-08
-1.03071e-09
-3.60017e-09
9.64645e-09
-1.03678e-09
-4.18357e-09
8.89562e-09
-1.04431e-09
-4.59278e-09
7.99269e-09
-1.0557e-09
-4.81345e-09
6.97167e-09
-1.07225e-09
-4.83336e-09
5.88296e-09
-1.09371e-09
-4.64699e-09
4.79215e-09
-1.11772e-09
-4.25136e-09
3.75621e-09
-1.13857e-09
-3.65925e-09
2.83674e-09
-1.15343e-09
-2.89664e-09
2.07211e-09
-1.16006e-09
-2.00224e-09
1.48325e-09
-1.15889e-09
-1.02285e-09
1.08001e-09
-1.15331e-09
-6.04902e-12
8.68576e-10
-1.14793e-09
1.00441e-09
8.57592e-10
-1.14524e-09
1.96977e-09
1.05566e-09
-1.14431e-09
2.85349e-09
1.4652e-09
-1.14099e-09
3.61843e-09
2.07528e-09
-1.13207e-09
4.2261e-09
2.85867e-09
-1.1163e-09
4.64076e-09
3.77469e-09
-1.09587e-09
4.83783e-09
4.77506e-09
-1.07471e-09
4.81177e-09
5.81375e-09
-1.05602e-09
4.56783e-09
6.84851e-09
-1.0415e-09
4.13064e-09
7.8441e-09
-1.02752e-09
3.52901e-09
8.76394e-09
-1.01268e-09
2.79118e-09
9.56737e-09
-9.96097e-10
1.94218e-09
1.02104e-08
-9.79075e-10
1.00706e-09
1.06532e-08
-9.65571e-10
1.08707e-08
-9.59451e-10
-1.23506e-09
1.32584e-08
-1.23506e-09
-2.3879e-09
1.30159e-08
-1.23433e-09
-3.43874e-09
1.25267e-08
-1.2354e-09
-4.34707e-09
1.18117e-08
-1.24178e-09
-5.07863e-09
1.0885e-08
-1.25501e-09
-5.60221e-09
9.77629e-09
-1.27692e-09
-5.88949e-09
8.53326e-09
-1.30691e-09
-5.91803e-09
7.22069e-09
-1.34161e-09
-5.67615e-09
5.91347e-09
-1.37404e-09
-5.17464e-09
4.68426e-09
-1.40233e-09
-4.43233e-09
3.5813e-09
-1.41883e-09
-3.49302e-09
2.6545e-09
-1.42568e-09
-2.40827e-09
1.92702e-09
-1.42595e-09
-1.23123e-09
1.41894e-09
-1.42485e-09
-1.11963e-11
1.14921e-09
-1.42586e-09
1.20769e-09
1.13514e-09
-1.42852e-09
2.38185e-09
1.38648e-09
-1.42891e-09
3.46357e-09
1.89814e-09
-1.42232e-09
4.40023e-09
2.64755e-09
-1.40718e-09
5.13968e-09
3.59635e-09
-1.38532e-09
5.63998e-09
4.69697e-09
-1.36065e-09
5.87685e-09
5.90008e-09
-1.33682e-09
5.84698e-09
7.15824e-09
-1.3144e-09
5.56289e-09
8.4254e-09
-1.2925e-09
5.04781e-09
9.65205e-09
-1.26936e-09
4.32845e-09
1.07814e-08
-1.24499e-09
3.43143e-09
1.17527e-08
-1.22135e-09
2.38503e-09
1.25112e-08
-1.20312e-09
1.2255e-09
1.30193e-08
-1.19617e-09
1.32613e-08
-1.20269e-09
-1.49198e-09
1.62484e-08
-1.49198e-09
-2.87287e-09
1.59397e-08
-1.48481e-09
-4.14941e-09
1.53323e-08
-1.48666e-09
-5.26634e-09
1.44459e-08
-1.49828e-09
-6.1761e-09
1.33057e-08
-1.52138e-09
-6.83152e-09
1.19556e-08
-1.55629e-09
-7.18964e-09
1.0458e-08
-1.59996e-09
-7.22023e-09
8.88986e-09
-1.64611e-09
-6.91277e-09
7.33226e-09
-1.68787e-09
-6.28072e-09
5.85789e-09
-1.71861e-09
-5.36752e-09
4.52622e-09
-1.73937e-09
-4.22522e-09
3.38528e-09
-1.75139e-09
-2.91531e-09
2.47526e-09
-1.75934e-09
-1.4961e-09
1.83421e-09
-1.7684e-09
-2.03738e-11
1.49423e-09
-1.7785e-09
1.46132e-09
1.47686e-09
-1.78621e-09
2.89286e-09
1.78736e-09
-1.78651e-09
4.21014e-09
2.41e-09
-1.77657e-09
5.34552e-09
3.31193e-09
-1.75737e-09
6.23785e-09
4.44848e-09
-1.73178e-09
6.84287e-09
5.77085e-09
-1.70336e-09
7.13682e-09
7.22897e-09
-1.67281e-09
7.11499e-09
8.76931e-09
-1.63974e-09
6.78692e-09
1.03299e-08
-1.60423e-09
6.17192e-09
1.18369e-08
-1.56805e-09
5.29542e-09
1.32096e-08
-1.53476e-09
4.18901e-09
1.4373e-08
-1.50932e-09
2.89411e-09
1.52724e-08
-1.49682e-09
1.46795e-09
1.58785e-08
-1.49861e-09
1.6175e-08
-1.51005e-09
-1.80515e-09
1.98939e-08
-1.80515e-09
-3.47636e-09
1.95081e-08
-1.79714e-09
-5.03202e-09
1.87575e-08
-1.80354e-09
-6.39991e-09
1.76647e-08
-1.82393e-09
-7.51651e-09
1.62704e-08
-1.85887e-09
-8.31837e-09
1.46349e-08
-1.90683e-09
-8.75055e-09
1.28354e-08
-1.96255e-09
-8.77794e-09
1.09586e-08
-2.01871e-09
-8.39334e-09
9.08942e-09
-2.06835e-09
-7.62159e-09
7.3052e-09
-2.10771e-09
-6.51352e-09
5.67483e-09
-2.13786e-09
-5.13494e-09
4.26252e-09
-2.16176e-09
-3.55343e-09
3.13057e-09
-2.18498e-09
-1.83273e-09
2.33476e-09
-2.20731e-09
-3.54301e-11
1.91838e-09
-2.226e-09
1.77115e-09
1.90225e-09
-2.23604e-09
3.51387e-09
2.28033e-09
-2.2341e-09
5.10861e-09
3.03338e-09
-2.22136e-09
6.47882e-09
4.11677e-09
-2.19897e-09
7.5594e-09
5.48608e-09
-2.16967e-09
8.3027e-09
7.09081e-09
-2.13299e-09
8.67873e-09
8.87348e-09
-2.08818e-09
8.67334e-09
1.07633e-08
-2.03664e-09
8.28795e-09
1.26727e-08
-1.98297e-09
7.53856e-09
1.45021e-08
-1.93303e-09
6.45606e-09
1.61552e-08
-1.89341e-09
5.08711e-09
1.75546e-08
-1.86914e-09
3.49631e-09
1.86477e-08
-1.85982e-09
1.76579e-09
1.94011e-08
-1.8593e-09
1.97784e-08
-1.85584e-09
-2.19084e-09
2.4337e-08
-2.19084e-09
-4.22657e-09
2.38736e-08
-2.18533e-09
-6.12338e-09
2.29534e-08
-2.19967e-09
-7.78995e-09
2.16135e-08
-2.23133e-09
-9.14547e-09
1.99129e-08
-2.27941e-09
-1.01119e-08
1.79307e-08
-2.34088e-09
-1.06259e-08
1.57598e-08
-2.40948e-09
-1.06505e-08
1.34965e-08
-2.47775e-09
-1.01831e-08
1.12331e-08
-2.54028e-09
-9.25589e-09
9.05754e-09
-2.59496e-09
-7.92638e-09
7.0572e-09
-2.64349e-09
-6.26526e-09
5.3204e-09
-2.68829e-09
-4.34716e-09
3.93306e-09
-2.72944e-09
-2.24889e-09
2.96736e-09
-2.76407e-09
-5.25681e-11
2.47071e-09
-2.78703e-09
2.15072e-09
2.46036e-09
-2.79535e-09
4.26224e-09
2.92566e-09
-2.79008e-09
6.18943e-09
3.83736e-09
-2.77255e-09
7.84716e-09
5.15298e-09
-2.74513e-09
9.16533e-09
6.82309e-09
-2.70545e-09
1.00866e-08
8.78759e-09
-2.65121e-09
1.05662e-08
1.09694e-08
-2.58373e-09
1.05763e-08
1.32704e-08
-2.50928e-09
1.01106e-08
1.55764e-08
-2.43645e-09
9.18785e-09
1.77728e-08
-2.37425e-09
7.85268e-09
1.97599e-08
-2.3287e-09
6.17454e-09
2.14582e-08
-2.29929e-09
4.24343e-09
2.28032e-08
-2.27936e-09
2.15601e-09
2.37403e-08
-2.25998e-09
2.42108e-08
-2.23714e-09
-2.65989e-09
2.97504e-08
-2.65989e-09
-5.14889e-09
2.92061e-08
-2.66032e-09
-7.46223e-09
2.80815e-08
-2.68513e-09
-9.4865e-09
2.64431e-08
-2.73142e-09
-1.11225e-08
2.43708e-08
-2.79655e-09
-1.22803e-08
2.19657e-08
-2.87576e-09
-1.2891e-08
1.93376e-08
-2.96204e-09
-1.29177e-08
1.65955e-08
-3.04907e-09
-1.23611e-08
1.38457e-08
-3.13278e-09
-1.12557e-08
1.11957e-08
-3.21209e-09
-9.66063e-09
8.75851e-09
-3.28711e-09
-7.65075e-09
6.6493e-09
-3.35606e-09
-5.31296e-09
4.97492e-09
-3.41432e-09
-2.74652e-09
3.81848e-09
-3.45643e-09
-6.37019e-11
3.22994e-09
-3.4791e-09
2.61492e-09
3.22607e-09
-3.48321e-09
5.17267e-09
3.7949e-09
-3.47253e-09
7.50451e-09
4.9071e-09
-3.44819e-09
9.51821e-09
6.51816e-09
-3.40785e-09
1.11306e-08
8.56745e-09
-3.34739e-09
1.22658e-08
1.09722e-08
-3.26673e-09
1.28608e-08
1.36242e-08
-3.17221e-09
1.28756e-08
1.63964e-08
-3.07466e-09
1.23032e-08
1.91573e-08
-2.98518e-09
1.11722e-08
2.17875e-08
-2.91076e-09
9.54553e-09
2.41822e-08
-2.8518e-09
7.51359e-09
2.62458e-08
-2.80346e-09
5.18053e-09
2.78872e-08
-2.75939e-09
2.64905e-09
2.90275e-08
-2.71941e-09
2.95984e-08
-2.68883e-09
-3.22376e-09
3.63192e-08
-3.22376e-09
-6.27468e-09
3.56717e-08
-3.23391e-09
-9.09576e-09
3.4299e-08
-3.27417e-09
-1.15507e-08
3.23045e-08
-3.34154e-09
-1.35215e-08
2.97914e-08
-3.4306e-09
-1.49075e-08
2.68825e-08
-3.53431e-09
-1.56357e-08
2.37059e-08
-3.64595e-09
-1.56695e-08
2.03886e-08
-3.76008e-09
-1.50096e-08
1.7059e-08
-3.87366e-09
-1.36888e-08
1.38522e-08
-3.98514e-09
-1.17659e-08
1.09109e-08
-4.09098e-09
-9.32392e-09
8.37555e-09
-4.18457e-09
-6.47029e-09
6.3697e-09
-4.25807e-09
-3.33647e-09
4.98548e-09
-4.30626e-09
-6.95946e-11
4.27905e-09
-4.32952e-09
3.18254e-09
4.27327e-09
-4.3314e-09
6.28473e-09
4.9632e-09
-4.31494e-09
9.11724e-09
6.32147e-09
-4.27742e-09
1.15694e-08
8.29536e-09
-4.2138e-09
1.35343e-08
1.08019e-08
-4.12275e-09
1.49125e-08
1.37249e-08
-4.01042e-09
1.56262e-08
1.69229e-08
-3.8888e-09
1.56325e-08
2.0246e-08
-3.77017e-09
1.49309e-08
2.35523e-08
-3.66249e-09
1.35628e-08
2.67119e-08
-3.56678e-09
1.16044e-08
2.95996e-08
-3.48038e-09
9.15566e-09
3.20886e-08
-3.40044e-09
6.32776e-09
3.40626e-08
-3.3303e-09
3.23779e-09
3.54304e-08
-3.27846e-09
3.612e-08
-3.25045e-09
-3.90027e-09
4.4237e-08
-3.90027e-09
-7.64147e-09
4.34458e-08
-3.9262e-09
-1.10781e-08
4.17817e-08
-3.99032e-09
-1.40521e-08
3.93776e-08
-4.08607e-09
-1.64245e-08
3.63573e-08
-4.2061e-09
-1.80842e-08
3.2863e-08
-4.34152e-09
-1.89546e-08
2.90429e-08
-4.48636e-09
-1.8998e-08
2.50481e-08
-4.63597e-09
-1.82116e-08
2.10378e-08
-4.78798e-09
-1.66242e-08
1.71821e-08
-4.9385e-09
-1.42974e-08
1.36551e-08
-5.07952e-09
-1.13289e-08
1.06209e-08
-5.20047e-09
-7.85555e-09
8.21891e-09
-5.29266e-09
-4.04507e-09
6.55383e-09
-5.35294e-09
-7.80442e-11
5.69555e-09
-5.38388e-09
3.87135e-09
5.68121e-09
-5.38756e-09
7.64468e-09
6.51618e-09
-5.36244e-09
1.10948e-08
8.17132e-09
-5.30293e-09
1.40777e-08
1.05764e-08
-5.20643e-09
1.64543e-08
1.36172e-08
-5.07878e-09
1.81044e-08
1.71424e-08
-4.93309e-09
1.89438e-08
2.09828e-08
-4.78294e-09
1.89349e-08
2.49703e-08
-4.63719e-09
1.80862e-08
2.89455e-08
-4.49826e-09
1.64462e-08
3.27486e-08
-4.36478e-09
1.40945e-08
3.62162e-08
-4.23623e-09
1.11362e-08
3.91922e-08
-4.12039e-09
7.69856e-09
4.15488e-08
-4.02819e-09
3.93317e-09
4.31894e-08
-3.96839e-09
4.40202e-08
-3.93491e-09
-4.71922e-09
5.37384e-08
-4.71922e-09
-9.29193e-09
5.27621e-08
-4.76925e-09
-1.34673e-08
5.0771e-08
-4.86154e-09
-1.70616e-08
4.7907e-08
-4.99102e-09
-1.99149e-08
4.43101e-08
-5.14722e-09
-2.19045e-08
4.01391e-08
-5.32176e-09
-2.29484e-08
3.55649e-08
-5.50912e-09
-2.30036e-08
3.07722e-08
-5.70595e-09
-2.20606e-08
2.59613e-08
-5.90875e-09
-2.01457e-08
2.13433e-08
-6.10912e-09
-1.73285e-08
1.71262e-08
-6.29435e-09
-1.37303e-08
1.34995e-08
-6.45151e-09
-9.52189e-09
1.06222e-08
-6.57245e-09
-4.90656e-09
8.61971e-09
-6.65593e-09
-9.6125e-11
7.58262e-09
-6.70227e-09
4.70527e-09
7.56534e-09
-6.70817e-09
9.30255e-09
8.5806e-09
-6.668e-09
1.35035e-08
1.05887e-08
-6.57734e-09
1.71184e-08
1.34939e-08
-6.44089e-09
1.99751e-08
1.71493e-08
-6.27231e-09
2.1939e-08
2.13751e-08
-6.08749e-09
2.29261e-08
2.59805e-08
-5.89761e-09
2.2904e-08
3.07733e-08
-5.70682e-09
2.18842e-08
3.55548e-08
-5.5148e-09
1.99145e-08
4.0117e-08
-5.32429e-09
1.70779e-08
4.42583e-08
-5.14626e-09
1.34948e-08
4.7805e-08
-4.99424e-09
9.32793e-09
5.06188e-08
-4.87778e-09
4.76673e-09
5.25814e-08
-4.79656e-09
5.35644e-08
-4.74629e-09
-5.71299e-09
6.51382e-08
-5.71299e-09
-1.12694e-08
6.3952e-08
-5.78977e-09
-1.63197e-08
6.16003e-08
-5.91258e-09
-2.06529e-08
5.8218e-08
-6.0788e-09
-2.40847e-08
5.39562e-08
-6.2783e-09
-2.6477e-08
4.89916e-08
-6.5036e-09
-2.77362e-08
4.35268e-08
-6.74992e-09
-2.78072e-08
3.77917e-08
-7.01354e-09
-2.66721e-08
3.20377e-08
-7.2859e-09
-2.43586e-08
2.65225e-08
-7.55274e-09
-2.09534e-08
2.14916e-08
-7.797e-09
-1.66077e-08
1.71637e-08
-8.00473e-09
-1.15273e-08
1.37259e-08
-8.1686e-09
-5.94889e-09
1.13315e-08
-8.28515e-09
-1.1809e-10
1.00962e-08
-8.3496e-09
5.71924e-09
1.00892e-08
-8.35336e-09
1.13126e-08
1.13225e-08
-8.28917e-09
1.64097e-08
1.37386e-08
-8.1599e-09
2.07715e-08
1.72142e-08
-7.9782e-09
2.41967e-08
2.15757e-08
-7.76155e-09
2.65395e-08
2.6622e-08
-7.52432e-09
2.77125e-08
3.21365e-08
-7.27333e-09
2.76797e-08
3.78838e-08
-7.0111e-09
2.64473e-08
4.36083e-08
-6.7428e-09
2.40636e-08
4.90535e-08
-6.48285e-09
2.06276e-08
5.39883e-08
-6.24908e-09
1.62974e-08
5.82175e-08
-6.05369e-09
1.12741e-08
6.15717e-08
-5.89661e-09
5.76917e-09
6.38974e-08
-5.78038e-09
6.50469e-08
-5.71773e-09
-6.90842e-09
7.88488e-08
-6.90842e-09
-1.36147e-08
7.74432e-08
-7.00904e-09
-1.9699e-08
7.46852e-08
-7.16326e-09
-2.49151e-08
7.07023e-08
-7.37377e-09
-2.90487e-08
6.5658e-08
-7.63082e-09
-3.1937e-08
5.97559e-08
-7.92795e-09
-3.3463e-08
5.32425e-08
-8.25965e-09
-3.35535e-08
4.64047e-08
-8.61659e-09
-3.21828e-08
3.95503e-08
-8.98256e-09
-2.9388e-08
3.29863e-08
-9.33664e-09
-2.5281e-08
2.69989e-08
-9.65882e-09
-2.00471e-08
2.18445e-08
-9.93515e-09
-1.39264e-08
1.77477e-08
-1.0157e-08
-7.19038e-09
1.48969e-08
-1.03152e-08
-1.28544e-10
1.34349e-08
-1.0398e-08
6.95133e-09
1.34429e-08
-1.03941e-08
1.37283e-08
1.4925e-08
-1.03012e-08
1.98837e-08
1.78041e-08
-1.01294e-08
2.51309e-08
2.19339e-08
-9.89607e-09
2.92408e-08
2.71201e-08
-9.61827e-09
3.205e-08
3.31354e-08
-9.30597e-09
3.34555e-08
3.97188e-08
-8.96515e-09
3.34059e-08
4.65742e-08
-8.60457e-09
3.1901e-08
5.33894e-08
-8.2415e-09
2.90028e-08
5.98671e-08
-7.89816e-09
2.4848e-08
6.57431e-08
-7.5932e-09
1.96364e-08
7.0779e-08
-7.33233e-09
1.35927e-08
7.4756e-08
-7.11632e-09
6.95473e-09
7.74931e-08
-6.96605e-09
7.88428e-08
-6.89441e-09
-8.32467e-09
9.53587e-08
-8.32467e-09
-1.63764e-08
9.3722e-08
-8.4457e-09
-2.36865e-08
9.04897e-08
-8.63932e-09
-2.99631e-08
8.57991e-08
-8.91014e-09
-3.49496e-08
7.98346e-08
-9.2495e-09
-3.8443e-08
7.28394e-08
-9.64942e-09
-4.02926e-08
6.51149e-08
-1.00986e-08
-4.04028e-08
5.7008e-08
-1.05784e-08
-3.87452e-08
4.88828e-08
-1.10645e-08
-3.53749e-08
4.10962e-08
-1.1531e-08
-3.04353e-08
3.39827e-08
-1.1957e-08
-2.41459e-08
2.78486e-08
-1.23272e-08
-1.67811e-08
2.29683e-08
-1.26274e-08
-8.65559e-09
1.95742e-08
-1.28396e-08
-1.22294e-10
1.78393e-08
-1.29451e-08
8.43249e-09
1.78545e-08
-1.29348e-08
1.66056e-08
1.96164e-08
-1.28124e-08
2.40112e-08
2.3031e-08
-1.25925e-08
3.03154e-08
2.79326e-08
-1.22935e-08
3.52539e-08
3.40997e-08
-1.1929e-08
3.86311e-08
4.1259e-08
-1.15085e-08
4.03137e-08
4.90849e-08
-1.10445e-08
4.02301e-08
5.72176e-08
-1.05584e-08
3.83843e-08
6.52965e-08
-1.00779e-08
3.48712e-08
7.29816e-08
-9.62722e-09
2.98694e-08
7.99545e-08
-9.2204e-09
2.36063e-08
8.5916e-08
-8.86533e-09
1.6334e-08
9.06037e-08
-8.58168e-09
8.34528e-09
9.3824e-08
-8.39409e-09
9.54224e-08
-8.3055e-09
-9.98399e-09
1.152e-07
-9.98399e-09
-1.96191e-08
1.13303e-07
-1.013e-08
-2.83858e-08
1.09512e-07
-1.03794e-08
-3.59318e-08
1.03997e-07
-1.07363e-08
-4.19423e-08
9.69756e-08
-1.11904e-08
-4.61606e-08
8.87378e-08
-1.17279e-08
-4.8394e-08
7.96414e-08
-1.23283e-08
-4.85255e-08
7.00888e-08
-1.29637e-08
-4.65303e-08
6.04982e-08
-1.36035e-08
-4.24866e-08
5.12834e-08