/*--------------------------------*- C++ -*----------------------------------*\
| =========                 |                                                 |
| \\      /  F ield         | OpenFOAM: The Open Source CFD Toolbox           |
|  \\    /   O peration     | Version:  2312                                  |
|   \\  /    A nd           | Website:  www.openfoam.com                      |
|    \\/     M anipulation  |                                                 |
\*---------------------------------------------------------------------------*/
FoamFile
{
    version     2.0;
    format      ascii;
    arch        "LSB;label=32;scalar=64";
    class       volScalarField;
    location    "0.14934";
    object      alpha.water;
}
// * * * * * * * * * * * * * * * * * * * * * * * * * * * * * * * * * * * * * //

dimensions      [0 0 0 0 0 0 0];

internalField   nonuniform List<scalar> 
90000
(
1
1
1
1
1
1
1
1
1
1
1
1
1
1
1
1
1
1
1
1
1
1
1
1
1
1
1
1
1
1
1
1
1
1
1
1
1
1
1
1
1
1
1
1
1
1
1
1
1
1
1
1
1
1
1
1
1
1
1
1
1
1
1
1
1
1
1
1
1
1
1
1
1
1
1
1
1
1
1
1
1
1
1
1
1
1
1
1
1
1
1
1
1
1
1
1
1
1
1
1
1
1
1
1
1
1
1
1
1
1
1
1
1
1
1
1
1
1
1
1
1
1
1
1
1
1
1
1
1
1
1
1
1
1
1
1
1
1
1
1
1
1
1
1
1
1
1
1
1
1
1
1
1
1
1
1
1
1
1
1
1
1
1
1
1
1
1
1
1
1
1
1
1
1
1
1
1
1
1
1
1
1
1
1
1
1
1
1
1
1
1
1
1
1
1
1
1
1
1
1
1
1
1
1
1
1
1
1
1
1
1
1
1
1
1
1
1
1
1
1
1
1
1
1
1
1
1
1
1
1
1
1
1
1
1
1
1
1
1
1
1
1
1
1
1
1
1
1
1
1
1
1
1
1
1
1
1
1
1
1
1
1
1
1
1
1
1
1
1
1
1
1
1
1
1
1
1
1
1
1
1
1
1
1
1
1
1
1
1
1
1
1
1
1
1
1
1
1
1
1
1
1
1
1
1
1
1
1
1
1
1
1
1
1
1
1
0.999999
1
1
1
1
1
1
1
1
1
1
1
1
1
1
1
1
1
1
1
1
1
1
1
1
1
1
1
0.999999
0.999999
0.999999
1
1
1
1
1
1
1
1
1
1
1
1
1
1
1
1
1
1
1
1
1
1
1
1
1
1
0.999999
0.999999
0.999999
0.999999
1
1
1
1
1
1
1
1
1
1
1
1
1
1
1
1
1
1
1
1
1
1
1
1
1
1
0.999999
0.999999
0.999999
1
1
1
1
1
1
1
1
1
1
1
1
1
1
1
1
1
1
1
1
1
1
1
1
1
1
1
0.999999
0.999999
1
1
1
1
1
1
1
1
1
1
1
1
1
1
1
1
0.999999
0.999999
0.999999
0.999999
1
1
1
1
1
1
0.999999
0.999999
0.999999
0.999999
1
1
1
1
1
1
1
1
1
1
1
1
1
1
1
0.999999
0.999998
0.999999
0.999999
1
1
1
1
1
1
0.999999
0.999999
0.999999
0.999999
1
1
1
1
1
1
1
1
1
1
1
0.999999
0.999999
1
1
1
0.999999
0.999999
0.999999
0.999999
1
1
1
1
1
0.999999
0.999999
0.999999
0.999999
1
1
1
1
1
1
1
1
1
1
1
0.999999
0.999999
0.999999
1
0.999999
0.999999
0.999999
0.999999
0.999999
1
1
1
1
1
0.999999
0.999999
0.999999
1
1
1
1
1
1
1
1
1
1
1
0.999999
0.999999
0.999999
0.999999
0.999999
0.999999
0.999999
0.999998
0.999999
0.999999
0.999999
0.999999
1
1
1
1
1
1
1
1
1
1
1
1
1
1
1
1
1
0.999999
0.999999
0.999999
1
1
1
0.999999
0.999999
0.999999
0.999999
0.999998
0.999999
0.999999
1
1
1
1
1
1
1
1
1
1
1
1
1
1
1
1
1
0.999999
0.999999
1
1
1
1
1
1
1
0.999999
0.999998
0.999999
1
1
1
1
1
1
1
1
1
1
1
1
1
1
1
1
1
1
1
1
1
1
1
1
1
1
1
0.999999
0.999999
1
1
1
1
1
1
1
1
1
1
1
1
1
1
1
1
1
1
1
1
1
1
1
1
1
1
1
0.999999
0.999999
1
1
1
1
1
1
1
1
1
1
1
1
1
1
1
0.999999
0.999999
0.999999
0.999999
0.999999
0.999999
0.999999
0.999999
1
1
1
1
0.999999
0.999999
1
1
1
1
1
1
1
1
1
1
1
1
1
1
1
0.999999
0.999999
0.999999
0.999999
0.999999
0.999999
0.999999
0.999999
1
1
1
1
0.999999
1
1
1
1
1
1
1
1
1
1
1
1
1
1
1
1
1
1
0.999999
1
1
1
0.999999
0.999999
1
1
1
1
1
1
1
1
1
1
1
1
1
1
1
1
1
1
1
1
1
1
1
1
1
1
1
1
1
1
1
1
1
1
1
1
1
1
1
1
1
1
1
1
0.999999
0.999999
0.999999
0.999999
1
1
1
1
1
1
1
1
1
1
1
1
1
1
1
1
1
1
1
1
1
1
1
1
1
0.999999
0.999999
0.999998
0.999998
0.999999
1
1
1
1
1
1
1
1
1
1
1
1
1
1
1
1
1
1
1
1
1
1
1
1
0.999999
0.999999
0.999998
0.999999
0.999999
1
1
1
1
1
1
1
1
1
1
1
1
1
1
1
1
1
1
1
1
1
1
1
0.999999
0.999999
0.999999
0.999999
0.999999
1
1
1
1
1
1
1
1
1
1
1
1
1
1
1
1
1
1
1
1
1
1
1
1
0.999998
0.999999
0.999999
1
1
1
1
1
1
1
1
1
1
1
1
1
1
1
1
1
1
1
1
1
1
1
1
1
1
0.999999
0.999998
0.999999
1
1
1
1
1
1
1
1
1
1
1
1
1
1
1
1
1
1
1
1
1
0.999999
0.999999
1
1
1
1
0.999998
0.999998
0.999999
1
1
1
1
1
1
1
1
1
1
1
1
1
1
1
1
1
0.999999
1
1
0.999999
0.999999
1
1
1
1
1
0.999999
0.999999
1
1
1
1
1
1
1
1
1
1
1
1
1
1
1
1
1
1
1
1
0.999999
0.999999
0.999999
1
0.999999
1
1
1
1
1
1
1
1
1
1
1
1
1
1
1
1
1
1
1
1
1
1
1
1
1
0.999999
0.999999
1
1
1
1
1
1
1
1
1
1
1
1
1
1
1
1
1
1
1
1
1
1
1
1
1
1
1
1
1
1
1
1
1
1
1
1
1
1
0.999999
0.999999
1
1
1
1
0.999999
0.999999
1
1
1
1
1
1
1
1
1
1
1
1
1
1
1
1
1
1
1
1
1
0.999999
0.999999
1
1
1
1
0.999999
0.999999
1
1
0.999999
1
1
1
1
1
1
1
1
1
1
1
1
1
1
1
1
1
1
1
0.999999
1
1
1
1
0.999999
0.999999
1
1
1
1
1
1
1
1
1
1
1
1
1
1
1
1
1
1
1
1
1
1
1
1
1
1
1
0.999999
0.999999
1
1
1
1
1
1
1
1
1
1
1
1
1
1
1
1
1
1
1
1
1
1
1
1
1
1
1
0.999999
0.999999
0.999999
0.999999
0.999999
0.999999
0.999999
0.999999
1
1
1
0.999999
1
0.999999
0.999999
0.999999
1
1
0.999999
1
1
1
0.999999
1
1
1
1
1
0.999999
0.999999
0.999999
0.999999
0.999999
0.999999
0.999999
0.999998
0.999998
0.999999
0.999999
0.999999
0.999999
0.999999
0.999999
0.999999
0.999999
0.999999
0.999999
0.999999
0.999999
1
1
0.999999
0.999999
1
1
1
1
0.999999
0.999999
0.999999
0.999999
0.999999
0.999999
0.999999
1
1
1
1
1
1
1
1
1
1
1
1
1
1
1
1
1
0.999999
1
1
1
1
1
0.999999
0.999999
0.999999
0.999999
0.999999
0.999999
0.999999
1
1
1
1
0.999999
1
1
1
1
1
1
1
1
1
1
0.999999
1
0.999998
1
0.999999
0.999999
1
0.999999
0.999999
0.999999
0.999999
0.999999
0.999998
0.999999
0.999999
0.999999
0.999999
0.999999
0.999999
0.999998
0.999999
0.999999
0.999999
0.999999
0.999999
0.999999
0.999999
0.999999
0.999998
0.999999
0.999999
0.999999
0.999998
0.999999
0.999999
0.999999
0.999999
0.999999
0.999999
1
0.999999
1
0.999999
1
0.999999
0.999999
0.999999
1
1
1
1
1
1
1
1
1
1
0.999999
1
1
1
0.999999
0.999999
1
1
0.999999
0.999998
0.999999
1
0.999999
0.999998
0.999998
0.999999
0.999999
1
0.999999
0.999999
0.999999
0.999999
0.999999
0.999998
0.999999
1
0.999999
1
0.999999
0.999999
0.999999
0.999999
0.999999
0.999999
0.999998
0.999999
0.999999
0.999998
0.999998
0.999999
0.999999
1
1
1
1
1
1
1
0.999999
1
1
1
1
1
1
1
1
1
1
1
1
1
1
1
1
1
1
1
1
1
1
1.00001
1
1.00004
1.00005
1
1
1.00001
1
1.00001
1.00002
1.00003
1.00003
1.00002
1.00003
1.00002
1.00003
1
1
1.00003
1.00003
1.00003
1
1
1.00001
1
1
1
1
1
0.0378227
0.038136
0.0387136
0.0395909
0.0407198
0.0420879
0.0436906
0.0454529
0.0473172
0.0492135
0.0510415
0.0526905
0.054046
0.0550131
0.0555253
0.0555204
0.0550274
0.0540406
0.052679
0.051035
0.0492085
0.047317
0.0454404
0.0436857
0.0421028
0.0407174
0.0395847
0.0387112
0.0381102
0.0378344
5.1848e-06
5.82908e-06
5.94979e-06
6.83404e-06
7.72609e-06
8.49878e-06
1.02454e-05
1.2489e-05
1.52778e-05
1.91631e-05
2.42266e-05
3.03269e-05
3.69146e-05
4.31373e-05
4.87138e-05
4.83966e-05
4.36235e-05
3.65251e-05
2.98715e-05
2.41576e-05
1.93012e-05
1.55435e-05
1.23013e-05
1.02194e-05
8.75931e-06
7.42805e-06
6.61127e-06
5.99411e-06
5.55534e-06
5.60756e-06
1.24263e-07
1.46416e-07
1.54333e-07
1.88055e-07
2.27825e-07
2.7254e-07
3.64331e-07
4.99251e-07
6.95088e-07
1.00139e-06
1.4579e-06
2.08921e-06
2.86438e-06
3.67604e-06
4.41216e-06
4.38132e-06
3.71606e-06
2.83211e-06
2.05537e-06
1.45296e-06
1.00924e-06
7.08281e-07
4.92168e-07
3.63497e-07
2.81419e-07
2.18433e-07
1.81018e-07
1.55319e-07
1.38564e-07
1.36846e-07
3.47865e-09
4.24511e-09
4.64366e-09
5.97997e-09
7.77004e-09
1.01288e-08
1.49624e-08
2.28985e-08
3.59228e-08
5.84929e-08
9.60121e-08
1.53651e-07
2.31245e-07
3.18244e-07
3.97457e-07
3.94631e-07
3.21837e-07
2.28791e-07
1.51222e-07
9.57199e-08
5.89911e-08
3.66313e-08
2.26073e-08
1.49349e-08
1.04646e-08
7.45211e-09
5.74994e-09
4.66819e-09
4.00285e-09
3.83225e-09
1.0666e-10
1.34788e-10
1.52694e-10
2.06838e-10
2.86788e-10
4.04578e-10
6.53338e-10
1.10296e-09
1.91811e-09
3.46404e-09
6.28017e-09
1.09938e-08
1.78274e-08
2.59199e-08
3.33781e-08
3.3145e-08
2.62214e-08
1.76517e-08
1.08285e-08
6.26522e-09
3.49643e-09
1.95763e-09
1.09045e-09
6.52725e-10
4.18048e-10
2.75285e-10
1.99028e-10
1.53668e-10
1.27084e-10
1.17459e-10
3.60861e-12
4.67482e-12
5.42326e-12
7.53554e-12
1.09213e-11
1.65013e-11
2.87754e-11
5.27757e-11
1.00018e-10
1.96812e-10
3.86926e-10
7.28033e-10
1.25276e-09
1.90129e-09
2.50617e-09
2.48865e-09
1.92385e-09
1.2411e-09
7.17578e-10
3.86278e-10
1.9882e-10
1.02176e-10
5.22362e-11
2.87665e-11
1.70592e-11
1.04922e-11
7.27072e-12
5.4603e-12
4.42237e-12
3.95833e-12
1.26973e-13
1.70623e-13
2.03974e-13
3.00299e-13
4.61808e-13
7.35434e-13
1.35925e-12
2.63784e-12
5.25876e-12
1.06829e-11
2.17659e-11
4.33745e-11
7.8223e-11
1.22796e-10
1.64818e-10
1.63663e-10
1.2429e-10
7.75432e-11
4.27818e-11
2.1747e-11
1.08535e-11
5.3951e-12
2.62107e-12
1.36227e-12
7.62322e-13
4.43911e-13
2.88913e-13
2.05545e-13
1.61484e-13
1.39281e-13
7.87551e-15
1.09617e-14
1.33617e-14
2.00452e-14
3.149e-14
5.10464e-14
9.33578e-14
1.69632e-13
2.79153e-13
5.64391e-13
1.22681e-12
2.50755e-12
4.55603e-12
7.13089e-12
9.47884e-12
9.4147e-12
7.22767e-12
4.53172e-12
2.48118e-12
1.22984e-12
5.72755e-13
2.82914e-13
1.69446e-13
9.3659e-14
5.27717e-14
3.03597e-14
1.9329e-14
1.3471e-14
1.03562e-14
8.68199e-15
2.71233e-16
3.93391e-16
4.90617e-16
7.61794e-16
1.26228e-15
2.18435e-15
4.41299e-15
9.42627e-15
2.0598e-14
4.66493e-14
1.02528e-13
2.0324e-13
3.39773e-13
4.59604e-13
5.10827e-13
5.10487e-13
4.62281e-13
3.38298e-13
2.01396e-13
1.02654e-13
4.72732e-14
2.10816e-14
9.35879e-15
4.43301e-15
2.26183e-15
1.21233e-15
7.34706e-16
4.93915e-16
3.71003e-16
3.00744e-16
7.93759e-18
1.18733e-17
1.49841e-17
2.35763e-17
3.99334e-17
7.11183e-17
1.48989e-16
3.36323e-16
7.96568e-16
1.93065e-15
4.56941e-15
1.00582e-14
1.94658e-14
3.17965e-14
4.31281e-14
4.28415e-14
3.21568e-14
1.9317e-14
9.94147e-15
4.57601e-15
1.95955e-15
8.17476e-16
3.33733e-16
1.49967e-16
7.36241e-17
3.83515e-17
2.27716e-17
1.50692e-17
1.12024e-17
8.81354e-18
2.2074e-19
3.41219e-19
4.32905e-19
6.85334e-19
1.17119e-18
2.10657e-18
4.45752e-18
1.01405e-17
2.40287e-17
5.90491e-17
1.43905e-16
3.29844e-16
6.71488e-16
1.16061e-15
1.6548e-15
1.64175e-15
1.176e-15
6.66262e-16
3.25762e-16
1.44258e-16
6.00153e-17
2.46341e-17
1.00835e-17
4.49718e-18
2.18173e-18
1.12529e-18
6.62781e-19
4.35272e-19
3.2186e-19
2.45492e-19
5.62907e-21
9.04187e-21
1.14715e-20
1.81327e-20
3.11363e-20
5.61218e-20
1.18833e-19
2.7122e-19
6.45664e-19
1.59353e-18
3.90254e-18
8.97538e-18
1.83135e-17
3.15224e-17
4.44588e-17
4.41329e-17
3.19049e-17
1.81641e-17
8.8753e-18
3.91617e-18
1.62089e-18
6.61834e-19
2.70374e-19
1.20165e-19
5.80902e-20
2.99048e-20
1.75821e-20
1.15108e-20
8.49999e-21
6.27931e-21
1.29711e-22
2.17734e-22
2.74811e-22
4.31953e-22
7.38407e-22
1.32371e-21
2.77641e-21
6.3039e-21
1.48787e-20
3.64533e-20
8.87968e-20
2.0351e-19
4.14987e-19
7.14553e-19
1.00877e-18
1.00153e-18
7.23193e-19
4.11812e-19
2.01571e-19
8.91511e-20
3.7115e-20
1.52617e-20
6.2895e-21
2.81779e-21
1.37109e-21
7.10034e-22
4.19779e-22
2.75138e-22
2.03449e-22
1.45495e-22
2.67708e-24
4.73436e-24
5.89955e-24
9.21176e-24
1.55607e-23
2.75013e-23
5.66315e-23
1.26276e-22
2.92548e-22
7.027e-22
1.67889e-21
3.79386e-21
7.66424e-21
1.31169e-20
1.84615e-20
1.83286e-20
1.32762e-20
7.60456e-21
3.76114e-21
1.68775e-21
7.1536e-22
3.00028e-22
1.26311e-22
5.77245e-23
2.85138e-23
1.4957e-23
8.95709e-24
5.88386e-24
4.36791e-24
3.02492e-24
4.8844e-26
9.26572e-26
1.13198e-25
1.74145e-25
2.91216e-25
5.01985e-25
1.00833e-24
2.18664e-24
4.9146e-24
1.13959e-23
2.63533e-23
5.80185e-23
1.14655e-22
1.93221e-22
2.70251e-22
2.68487e-22
1.95578e-22
1.13712e-22
5.74905e-23
2.65149e-23
1.15941e-23
5.01966e-24
2.19275e-24
1.03335e-24
5.21804e-25
2.7887e-25
1.70514e-25
1.11933e-25
8.33724e-26
5.60836e-26
7.81486e-28
1.64367e-27
1.94908e-27
2.97095e-27
4.85987e-27
8.13354e-27
1.58248e-26
3.31618e-26
7.14227e-26
1.57785e-25
3.47845e-25
7.32678e-25
1.39595e-24
2.29774e-24
3.17299e-24
3.15063e-24
2.31897e-24
1.38835e-24
7.26597e-25
3.47883e-25
1.59206e-25
7.23623e-26
3.34215e-26
1.63583e-26
8.47004e-27
4.63602e-27
2.91884e-27
1.88913e-27
1.4049e-27
9.28203e-28
1.08938e-29
2.70192e-29
3.05324e-29
4.6194e-29
7.40384e-29
1.2034e-28
2.25856e-28
4.55668e-28
9.36096e-28
1.94413e-27
3.9898e-27
7.86717e-27
1.42151e-26
2.25669e-26
3.03841e-26
3.01561e-26
2.25803e-26
1.41974e-26
7.80257e-27
3.93865e-27
1.91956e-27
9.29666e-28
4.63306e-28
2.36402e-28
1.25181e-28
7.01344e-29
4.58478e-29
2.84599e-29
2.08778e-29
1.38803e-29
1.31375e-31
4.2598e-31
4.53955e-31
6.82239e-31
1.08063e-30
1.70231e-30
3.10195e-30
6.06159e-30
1.19119e-29
2.30411e-29
4.31936e-29
7.81366e-29
1.3072e-28
1.96428e-28
2.53101e-28
2.51167e-28
1.92006e-28
1.31718e-28
7.72674e-29
4.13185e-29
2.16177e-29
1.12888e-29
6.22524e-30
3.29747e-30
1.76264e-30
1.00519e-30
6.89297e-31
3.91348e-31
2.75307e-31
1.9312e-31
1.36387e-33
6.73752e-33
6.68631e-33
1.01149e-32
1.57734e-32
2.44012e-32
4.36889e-32
8.34008e-32
1.5852e-31
2.88032e-31
4.92462e-31
8.09144e-31
1.23705e-30
1.74954e-30
2.11098e-30
2.08275e-30
1.61696e-30
1.26256e-30
7.9175e-31
4.42999e-31
2.47848e-31
1.39673e-31
8.6303e-32
4.69849e-32
2.49839e-32
1.44043e-32
1.0427e-32
5.11923e-33
3.28895e-33
2.6286e-33
1.20837e-35
1.09575e-34
1.01661e-34
1.53906e-34
2.36852e-34
3.63593e-34
6.4145e-34
1.19859e-33
2.2181e-33
3.8337e-33
6.07097e-33
9.20676e-33
1.30743e-32
1.76327e-32
1.98872e-32
1.94601e-32
1.51674e-32
1.34837e-32
8.87763e-33
5.09603e-33
3.00228e-33
1.80748e-33
1.24107e-33
6.91055e-34
3.64777e-34
2.12737e-34
1.62772e-34
6.72691e-35
3.72212e-35
3.68124e-35
9.13803e-38
1.77682e-36
1.57514e-36
2.35755e-36
3.56854e-36
5.42367e-36
9.37812e-36
1.701e-35
3.04373e-35
5.01315e-35
7.44538e-35
1.05987e-34
1.425e-34
1.85905e-34
2.00358e-34
1.95432e-34
1.51128e-34
1.46832e-34
1.00284e-34
5.89636e-35
3.63226e-35
2.31971e-35
1.74594e-35
1.00068e-35
5.31523e-36
3.16594e-36
2.55567e-36
9.13464e-37
4.24204e-37
5.34634e-37
5.91058e-40
2.72542e-38
2.34612e-38
3.447e-38
5.07775e-38
7.6006e-38
1.27528e-37
2.21625e-37
3.78831e-37
5.90754e-37
8.22686e-37
1.10098e-36
1.40643e-36
1.77839e-36
1.85718e-36
1.8105e-36
1.39285e-36
1.44058e-36
1.02453e-36
6.23617e-37
4.03475e-37
2.74056e-37
2.25037e-37
1.34191e-37
7.29178e-38
4.48649e-38
3.81045e-38
1.2518e-38
5.05502e-39
7.6994e-39
3.26007e-42
3.79436e-40
3.20614e-40
4.58641e-40
6.53247e-40
9.55887e-40
1.54005e-39
2.53771e-39
4.10094e-39
6.00501e-39
7.79419e-39
9.74949e-39
1.17745e-38
1.43576e-38
1.45724e-38
1.42038e-38
1.09346e-38
1.19272e-38
8.91692e-39
5.69265e-39
3.90402e-39
2.84104e-39
2.55001e-39
1.59597e-39
8.98286e-40
5.76046e-40
5.14494e-40
1.63747e-40
6.13433e-41
1.03656e-40
1.63151e-44
4.67389e-42
3.89359e-42
5.39525e-42
7.40252e-42
1.04921e-41
1.61102e-41
2.49928e-41
3.78702e-41
5.16683e-41
6.20525e-41
7.20087e-41
8.15966e-41
9.51114e-41
9.38382e-41
9.12505e-41
7.06845e-41
8.11702e-41
6.44977e-41
4.37221e-41
3.2052e-41
2.51816e-41
2.4838e-41
1.64163e-41
9.65388e-42
6.49292e-42
6.10654e-42
1.93956e-42
7.10041e-43
1.24959e-42
7.81833e-47
5.01305e-44
4.11071e-44
5.50758e-44
7.24799e-44
9.8739e-44
1.4369e-43
2.08599e-43
2.94186e-43
3.71144e-43
4.09068e-43
4.36858e-43
4.60549e-43
5.08583e-43
4.86923e-43
4.71443e-43
3.69423e-43
4.46828e-43
3.81556e-43
2.7755e-43
2.19032e-43
1.87268e-43
2.04588e-43
1.43632e-43
8.8858e-44
6.30112e-44
6.25789e-44
2.01321e-44
7.40965e-45
1.31531e-44
3.94451e-49
4.61497e-46
3.71444e-46
4.80417e-46
6.04182e-46
7.86486e-46
1.07868e-45
1.45631e-45
1.89788e-45
2.19759e-45
2.19912e-45
2.14457e-45
2.08451e-45
2.15996e-45
2.0022e-45
1.92668e-45
1.53438e-45
1.95205e-45
1.81511e-45
1.43064e-45
1.23397e-45
1.15042e-45
1.39402e-45
1.05605e-45
6.91911e-46
5.19898e-46
5.47178e-46
1.79803e-46
6.7393e-47
1.19164e-46
2.24606e-51
3.60586e-48
2.84485e-48
3.54558e-48
4.24874e-48
5.25405e-48
6.75115e-48
8.42333e-48
1.00772e-47
1.05678e-47
9.56527e-48
8.4135e-48
7.45403e-48
7.18582e-48
6.42073e-48
6.11956e-48
4.96556e-48
6.63981e-48
6.83888e-48
5.89827e-48
5.68874e-48
5.77911e-48
7.75353e-48
6.47051e-48
4.51627e-48
3.61733e-48
4.05285e-48
1.36737e-48
5.24919e-49
9.21259e-49
1.28983e-53
2.37845e-50
1.83761e-50
2.2034e-50
2.50681e-50
2.92793e-50
3.50522e-50
4.01501e-50
4.38748e-50
4.04603e-50
3.38391e-50
2.61333e-50
2.07753e-50
1.85477e-50
1.57929e-50
1.48582e-50
1.20574e-50
1.78855e-50
1.97207e-50
1.92418e-50
2.11514e-50
2.3634e-50
3.51546e-50
3.28743e-50
2.47187e-50
2.1089e-50
2.51528e-50
8.79673e-51
3.4695e-51
6.04191e-51
6.76929e-56
1.32149e-52
9.97834e-53
1.14984e-52
1.23616e-52
1.3568e-52
1.50576e-52
1.57131e-52
1.5231e-52
1.29809e-52
9.3517e-53
6.37591e-53
4.50104e-53
3.64671e-53
2.93329e-53
2.7177e-53
2.18819e-53
3.68196e-53
4.42702e-53
4.83602e-53
6.11388e-53
8.01588e-53
1.29368e-52
1.38144e-52
1.12809e-52
1.02677e-52
1.30638e-52
4.76469e-53
1.93426e-53
3.34495e-53
3.09094e-58
6.16796e-55
4.5424e-55
5.02881e-55
5.08278e-55
5.21617e-55
5.34074e-55
5.00755e-55
4.35843e-55
3.30646e-55
2.05716e-55
1.21656e-55
7.49903e-56
5.42486e-56
4.08638e-56
3.70399e-56
2.91761e-56
5.51334e-56
7.60842e-56
9.54208e-56
1.38246e-55
2.18198e-55
3.88895e-55
4.7769e-55
4.27609e-55
4.16224e-55
5.66562e-55
2.16352e-55
9.05049e-56
1.55596e-55
1.19486e-60
2.40864e-57
1.72775e-57
1.83386e-57
1.73724e-57
1.66651e-57
1.54088e-57
1.32421e-57
1.01663e-57
6.68905e-58
3.59065e-58
1.81303e-58
9.5928e-59
6.08743e-59
4.24947e-59
3.70678e-59
2.82689e-59
6.09793e-59
9.79868e-59
1.43253e-58
2.44081e-58
4.50547e-58
1.00035e-57
1.32676e-57
1.34082e-57
1.40118e-57
2.04553e-57
8.20128e-58
3.53805e-58
6.05445e-58
3.86315e-63
7.83977e-60
5.46879e-60
5.525e-60
4.93126e-60
4.37656e-60
3.73193e-60
2.83577e-60
1.91661e-60
1.08831e-60
4.97106e-61
2.11303e-61
9.44686e-62
5.16658e-62
3.30605e-62
2.73257e-62
1.92188e-62
4.84093e-62
9.25518e-62
1.60386e-61
3.30838e-61
7.32817e-61
2.09077e-60
3.01032e-60
3.47208e-60
3.90618e-60
6.12819e-60
2.58557e-60
1.15103e-60
1.9633e-60
1.03946e-65
2.11964e-62
1.43587e-62
1.37915e-62
1.16816e-62
9.48642e-63
7.33614e-63
4.96694e-63
2.93143e-63
1.42393e-63
5.47174e-64
1.93546e-64
7.22565e-65
3.35631e-65
1.95326e-65
1.49484e-65
8.68406e-66
2.61126e-65
6.10624e-65
1.27822e-64
3.34025e-64
9.19555e-64
3.41569e-63
5.71083e-63
7.30324e-63
9.10584e-63
1.51958e-62
6.76018e-63
3.10732e-63
5.29114e-63
2.31956e-68
4.74764e-65
3.12123e-65
2.84991e-65
2.28576e-65
1.69571e-65
1.18622e-65
7.11821e-66
3.64345e-66
1.50217e-66
4.81783e-67
1.40926e-67
4.38334e-68
1.72547e-68
9.18775e-69
6.25919e-69
3.85432e-69
1.27015e-68
3.76455e-68
1.01591e-67
2.97727e-67
8.58577e-67
4.46644e-66
8.85464e-66
1.25741e-65
1.75643e-65
3.11435e-65
1.46352e-65
6.94871e-66
1.18338e-65
4.28459e-71
8.80877e-68
5.64314e-68
4.88121e-68
3.67309e-68
2.50079e-68
1.57815e-68
8.35913e-69
3.69282e-69
1.28673e-69
3.44045e-70
8.39884e-71
2.23228e-71
7.71512e-72
3.96502e-72
2.25753e-72
1.32551e-72
5.25687e-72
1.91233e-71
6.4108e-71
2.31032e-70
7.59339e-70
4.69054e-69
1.11842e-68
1.7819e-68
2.79184e-68
5.27429e-68
2.62238e-68
1.28626e-68
2.19599e-68
6.56481e-74
1.35724e-70
8.46869e-71
6.93998e-71
4.89462e-71
3.05165e-71
1.73362e-71
8.09769e-72
3.08368e-72
9.11046e-73
2.06926e-73
4.42831e-74
1.10781e-74
3.86471e-75
2.17591e-75
1.47821e-75
3.96483e-76
1.6867e-75
7.68241e-75
3.23827e-74
1.45e-73
5.75162e-73
3.94997e-72
1.15523e-71
2.0823e-71
3.66677e-71
7.38691e-71
3.89108e-71
1.97086e-71
3.38463e-71
8.37385e-77
1.74288e-73
1.05716e-73
8.23488e-74
5.45256e-74
3.10423e-74
1.58799e-74
6.56972e-75
2.17692e-75
5.58792e-76
1.152e-76
2.4763e-77
6.95539e-78
2.69163e-78
1.66038e-78
1.38169e-78
1.10553e-78
5.58679e-79
2.49771e-78
1.32731e-77
7.45501e-77
3.5661e-76
2.68152e-75
9.83959e-75
2.01881e-74
3.99377e-74
8.57263e-74
4.7877e-74
2.50114e-74
4.34266e-74
8.92742e-80
1.87445e-76
1.10384e-76
8.22258e-77
5.13314e-77
2.66624e-77
1.2369e-77
4.61088e-78
1.37156e-78
3.27716e-79
7.03756e-80
1.76605e-80
5.59829e-81
2.31146e-81
1.48089e-81
1.32189e-81
1.6441e-81
2.22125e-81
1.68723e-81
4.50149e-81
3.13587e-80
1.82131e-79
1.52407e-78
7.04812e-78
1.6417e-77
3.62995e-77
8.27357e-77
4.8953e-77
2.63125e-77
4.65655e-77
8.01041e-83
1.70289e-79
9.71685e-80
7.00015e-80
4.1601e-80
1.97827e-80
8.47763e-81
2.96158e-81
8.46933e-82
2.09305e-82
5.1916e-83
1.46156e-83
4.85986e-84
2.02583e-84
1.2998e-84
1.18461e-84
1.62558e-84
3.02419e-84
5.87677e-84
6.43643e-84
1.09427e-83
7.68946e-83
7.99144e-82
4.39914e-81
1.14818e-80
2.78607e-80
6.67794e-80
4.1752e-80
2.29759e-80
4.20217e-80
6.11806e-86
1.32346e-82
7.30908e-83
5.18434e-83
2.98491e-83
1.31152e-83
5.37594e-84
1.87584e-84
5.5558e-85
1.51065e-85
4.10494e-86
1.19739e-86
3.96256e-87
1.62925e-87
1.036e-87
9.50796e-88
1.34753e-87
2.72349e-87
6.66365e-87
1.74695e-86
3.66786e-86
3.89894e-86
4.75621e-85
2.56815e-84
7.15894e-84
1.83545e-83
4.55347e-83
2.98877e-83
1.66943e-83
3.23195e-83
4.05668e-89
8.9965e-86
4.80396e-86
3.44374e-86
1.96725e-86
8.16669e-87
3.3355e-87
1.22157e-87
3.87896e-88
1.10839e-88
3.08584e-89
8.89858e-90
2.87704e-90
1.16014e-90
7.2975e-91
6.71554e-91
9.68593e-91
2.02853e-90
5.34985e-90
1.68044e-89
5.26464e-89
1.08386e-88
3.36799e-88
1.53922e-87
4.26031e-87
1.07378e-86
2.72213e-86
1.87374e-86
1.01284e-86
2.16784e-86
2.41227e-92
5.53862e-89
2.86582e-89
2.14413e-89
1.24481e-89
4.99448e-90
2.09764e-90
8.16413e-91
2.65954e-91
7.64933e-92
2.09688e-92
5.87366e-93
1.84662e-93
7.29728e-94
4.54172e-94
4.18724e-94
6.1272e-94
1.31586e-93
3.61379e-93
1.2229e-92
4.38036e-92
1.33976e-91
4.15891e-91
1.42408e-90
3.42591e-90
6.24806e-90
1.61197e-89
1.05508e-89
5.17206e-90
1.31566e-89
1.42537e-95
3.25597e-92
1.63489e-92
1.31322e-92
7.82747e-93
3.10932e-93
1.34154e-93
5.31223e-94
1.72256e-94
4.84923e-95
1.28709e-95
3.48461e-96
1.06479e-96
4.12642e-97
2.54198e-97
2.35147e-97
3.49263e-97
7.68605e-97
2.18244e-96
7.74244e-96
2.97887e-95
1.05385e-94
3.502e-94
1.14562e-93
2.67552e-93
4.42274e-93
9.19977e-93
5.61088e-93
2.23822e-93
7.62338e-93
7.61957e-99
1.92793e-95
9.4577e-96
8.23291e-96
5.01474e-96
1.95136e-96
8.44569e-97
3.31772e-97
1.04859e-97
2.85183e-98
7.29246e-99
1.90806e-99
5.67483e-100
2.16003e-100
1.31846e-100
1.22595e-100
1.8515e-100
4.18355e-100
1.22895e-99
4.53426e-99
1.83263e-98
7.00505e-98
2.46121e-97
8.1341e-97
1.9346e-96
3.12904e-96
5.50671e-96
3.03623e-96
8.43397e-97
4.46334e-96
4.85577e-102
1.20189e-98
5.76553e-99
5.26448e-99
3.19881e-99
1.21423e-99
5.20233e-100
1.99186e-100
6.07468e-101
1.5902e-101
3.91906e-102
9.93125e-103
2.88177e-103
1.07957e-103
6.54183e-104
6.11938e-104
9.41361e-104
2.18854e-103
6.66353e-103
2.55065e-102
1.07156e-101
4.30415e-101
1.57978e-100
5.34886e-100
1.30733e-99
2.12042e-99
3.43463e-99
1.77932e-99
3.22765e-100
2.76594e-99
3.00697e-105
7.67002e-102
3.60317e-102
3.37621e-102
2.02053e-102
7.4583e-103
3.13542e-103
1.16017e-103
3.40466e-104
8.58539e-105
2.04433e-105
5.0318e-106
1.42831e-106
5.27716e-107
3.17811e-107
2.99309e-107
4.69385e-107
1.12444e-106
3.55305e-106
1.40915e-105
6.1174e-105
2.54751e-104
9.67419e-104
3.35804e-103
8.44781e-103
1.3893e-102
2.1718e-102
1.08385e-102
1.25879e-103
1.75685e-102
1.99361e-108
4.95918e-105
2.28449e-105
2.15852e-105
1.26095e-105
4.51936e-106
1.85725e-106
6.62385e-107
1.87141e-107
4.55589e-108
1.05106e-108
2.51963e-109
7.01312e-110
2.56002e-110
1.53315e-110
1.45401e-110
2.32654e-110
5.74291e-110
1.88392e-109
7.73371e-109
3.45708e-108
1.48218e-107
5.78495e-107
2.05214e-106
5.3055e-106
8.88788e-106
1.38039e-105
6.80699e-106
5.3109e-107
1.12961e-105
1.16923e-111
3.22013e-108
1.4546e-108
1.37211e-108
7.78091e-109
2.70933e-109
1.08754e-109
3.7378e-110
1.01804e-110
2.39765e-111
5.37222e-112
1.25674e-112
3.4368e-113
1.2408e-113
7.40325e-114
7.07172e-114
1.15196e-113
2.93376e-113
9.98754e-113
4.23928e-112
1.94751e-111
8.56567e-111
3.42191e-110
1.23635e-109
3.27681e-109
5.59701e-109
8.7623e-109
4.3412e-109
2.59696e-110
7.28338e-109
8.55517e-115
2.09067e-111
9.26571e-112
8.68674e-112
4.77188e-112
1.61384e-112
6.32796e-113
2.09637e-113
5.50992e-114
1.25716e-114
2.74062e-115
6.26652e-116
1.68619e-116
6.05102e-117
3.60854e-117
3.47254e-117
5.74862e-117
1.50214e-116
5.30637e-116
2.32753e-115
1.09796e-114
4.94557e-114
2.01794e-113
7.40857e-113
2.00884e-112
3.49747e-112
5.55256e-112
2.77586e-112
1.57785e-113
4.68296e-112
7.37152e-115
1.06572e-114
4.27177e-112
3.07856e-112
1.08129e-112
4.07396e-113
1.27186e-113
3.2427e-114
7.35623e-115
1.62642e-115
3.87056e-116
1.08639e-116
3.36939e-117
1.61638e-117
9.42918e-118
9.16035e-118
1.50786e-117
3.35988e-117
1.06031e-116
3.82251e-116
1.6468e-115
7.65962e-115
3.41998e-114
1.38633e-113
5.00978e-113
1.42034e-112
1.44681e-112
1.52274e-113
1.52291e-113
1.52273e-113
1
1
1
1
1
1
1
1
1
1
1
1
1
1
1
1
1
1
1
1
1
1
1
1
1
1
1
1
1
1
1
1
1
1
1
1
1
1
1
1
1
1
1
1
1
1
1
1
1
1
1
1
1
1
1
1
1
1
1
1
1
1
1
1
1
1
1
1
1
1
1
1
1
1
1
1
1
1
1
1
1
1
1
1
1
1
1
1
1
1
1
1
1
1
1
1
1
1
1
1
1
1
1
1
1
1
1
1
1
1
1
1
1
1
1
1
1
1
1
1
1
1
1
1
1
1
1
1
1
1
1
1
1
1
1
1
1
1
1
1
1
1
1
1
1
1
1
1
1
1
1
1
1
1
1
1
1
1
1
1
1
1
1
1
1
1
1
1
1
1
1
1
1
1
1
1
1
1
1
1
1
1
1
1
1
1
1
1
1
1
1
1
1
1
1
1
1
1
1
1
1
1
1
1
1
1
1
1
1
1
1
1
1
1
1
1
1
1
1
1
1
1
1
1
1
1
1
1
1
1
1
1
1
1
1
1
1
1
1
1
1
1
1
1
1
1
1
1
1
1
1
1
1
1
1
1
1
1
1
1
1
1
1
1
1
1
1
1
1
1
1
1
1
1
1
1
1
1
1
1
1
1
1
1
1
1
1
1
1
1
1
1
1
1
1
1
1
1
1
1
1
1
1
1
1
1
1
1
1
1
1
1
1
1
0.999999
0.999999
0.999999
1
1
1
1
1
1
1
1
1
1
1
1
1
1
1
1
1
1
1
1
1
1
1
1
1
0.999999
0.999999
0.999999
0.999999
0.999999
1
1
1
1
1
1
1
1
1
1
1
1
1
1
1
1
1
1
1
1
1
1
1
1
1
0.999999
0.999999
0.999999
0.999999
1
1
1
1
1
1
1
1
1
1
1
1
1
1
1
1
1
1
1
1
1
1
1
1
1
1
0.999999
0.999999
0.999999
1
1
1
1
1
1
1
1
1
1
1
1
1
1
1
1
1
0.999999
0.999999
0.999999
1
1
1
1
1
1
1
0.999999
0.999999
0.999999
1
1
1
1
1
1
1
1
1
1
1
1
1
1
1
0.999999
0.999998
0.999998
0.999999
0.999999
1
1
1
1
1
0.999999
0.999999
0.999999
0.999999
1
1
1
1
1
1
1
1
1
1
1
1
1
1
1
1
0.999998
0.999998
0.999999
0.999999
1
1
1
1
1
0.999999
0.999999
0.999998
0.999999
0.999999
1
1
1
1
1
1
1
1
1
1
0.999999
0.999999
1
1
1
0.999999
0.999999
0.999999
0.999999
1
1
1
1
1
0.999999
0.999999
0.999999
0.999999
1
1
1
1
1
1
1
1
1
1
1
0.999999
0.999999
0.999999
0.999999
0.999999
0.999998
0.999998
0.999999
0.999999
0.999999
1
1
1
1
1
0.999999
0.999999
1
1
1
1
1
1
1
1
1
1
0.999999
0.999999
0.999999
0.999999
0.999999
0.999999
0.999999
0.999998
0.999998
0.999998
0.999999
0.999998
0.999999
0.999999
1
1
1
1
1
1
1
1
1
1
1
1
1
1
1
1
0.999999
0.999999
0.999999
0.999999
1
1
0.999999
0.999999
0.999999
1
0.999998
0.999998
0.999999
1
1
1
1
1
1
1
1
1
1
1
1
1
1
1
1
1
0.999999
0.999999
0.999999
1
1
1
1
1
1
1
0.999998
0.999998
0.999999
1
1
1
1
1
1
1
1
1
1
1
1
1
1
1
1
1
1
1
1
1
1
1
1
1
1
0.999999
0.999999
1
1
1
1
1
1
1
1
1
1
1
1
1
1
1
1
1
0.999999
1
1
1
0.999999
0.999999
1
1
1
1
0.999999
0.999999
1
1
1
1
1
1
1
1
1
1
1
1
1
1
1
0.999999
0.999999
0.999999
0.999999
1
1
0.999999
0.999999
0.999999
1
1
1
0.999999
0.999999
1
1
1
1
1
1
1
1
1
1
1
1
1
1
1
1
0.999999
0.999999
0.999999
1
1
1
0.999999
1
1
1
1
1
1
1
1
1
1
1
1
1
1
1
1
1
1
1
1
1
1
1
1
1
1
1
1
1
1
1
1
1
1
1
1
1
1
1
1
1
1
1
1
1
1
0.999999
0.999999
1
1
1
1
1
1
1
1
1
1
1
1
1
1
1
1
1
1
1
1
1
1
1
1
1
0.999999
0.999999
0.999998
0.999998
0.999999
1
1
1
1
1
1
1
1
1
1
1
1
1
1
1
1
1
1
1
1
1
1
1
1
0.999999
0.999998
0.999998
0.999998
0.999999
1
1
1
1
1
1
1
1
1
1
1
1
1
1
1
1
1
1
1
1
1
1
1
1
0.999999
0.999999
0.999999
0.999999
0.999999
1
1
1
1
1
1
1
1
1
1
1
1
1
1
1
1
1
1
1
1
1
1
1
0.999999
0.999999
0.999999
1
1
1
1
1
1
1
0.999999
1
1
1
1
1
1
1
1
1
1
1
1
1
1
1
1
1
1
0.999998
0.999998
0.999999
1
1
1
1
1
1
1
1
1
1
1
1
1
1
1
1
1
1
1
1
1
0.999999
1
1
1
1
1
0.999998
0.999998
1
1
1
1
1
1
1
1
1
1
1
1
1
1
1
1
1
1
0.999999
1
1
0.999999
0.999999
1
1
1
1
1
0.999998
0.999999
1
1
1
1
1
1
1
1
1
1
1
1
1
1
1
1
1
0.999999
1
1
0.999999
0.999999
1
1
0.999999
1
1
1
0.999999
1
1
1
1
1
1
1
1
1
1
1
1
1
1
1
1
1
1
1
1
1
0.999999
0.999999
1
1
1
1
1
1
1
1
1
1
1
1
1
1
1
1
1
1
1
1
1
1
1
1
1
1
1
1
1
1
1
1
1
1
1
1
1
1
0.999999
0.999999
1
1
1
1
0.999999
1
1
1
1
1
1
1
1
1
1
1
1
1
1
1
1
1
1
1
1
1
1
0.999999
0.999999
0.999999
1
1
1
0.999999
0.999999
0.999999
1
0.999999
1
1
1
1
1
1
1
1
1
1
1
1
1
1
1
1
1
1
0.999999
0.999999
0.999999
1
1
1
0.999999
0.999999
1
1
0.999999
0.999999
1
1
1
1
1
1
1
1
1
1
1
0.999999
1
1
1
1
1
1
0.999999
0.999999
1
1
1
0.999999
0.999999
1
1
1
1
1
1
1
1
1
1
1
1
1
1
1
1
1
1
1
1
1
1
1
1
1
1
1
0.999999
0.999999
0.999999
1
1
1
1
1
1
1
1
1
1
1
0.999999
1
1
1
1
1
1
1
0.999999
1
1
0.999999
1
1
0.999999
0.999999
0.999999
0.999999
0.999999
0.999999
0.999999
0.999998
0.999998
0.999999
0.999999
0.999999
0.999999
0.999999
0.999999
0.999998
0.999998
0.999999
0.999999
0.999998
0.999998
0.999999
0.999999
1
0.999998
1
1
1
1
0.999999
0.999999
0.999999
0.999999
0.999999
0.999999
0.999999
0.999999
0.999998
0.999998
0.999999
0.999999
0.999999
0.999998
0.999999
0.999999
0.999999
0.999999
0.999999
0.999999
0.999998
0.999999
1
0.999999
0.999999
0.999999
1
0.999999
1
0.999999
0.999999
0.999999
0.999999
0.999999
0.999999
1
1
1
1
1
1
1
1
1
1
1
1
1
1
1
1
1
1
1
1
1
1
1
1
0.999999
0.999999
0.999999
0.999999
0.999998
0.999998
0.999997
0.999999
0.999999
0.999999
0.999999
0.999998
0.999998
0.999998
0.999998
0.999999
0.999999
0.999998
0.999999
0.999999
0.999998
0.999998
0.999999
0.999998
0.999998
0.999998
0.999999
0.999998
0.999999
0.999999
0.999999
0.999999
0.999999
1
0.999998
1
0.999999
0.999999
0.999998
0.999998
0.999999
0.999999
1
1
1
1
1
1
1
0.999999
0.999999
0.999999
1
1
0.999999
0.999998
1
1
0.999998
0.999998
0.999999
0.999999
0.999998
0.999999
0.999999
0.999999
0.999999
1
0.999999
1
1
1
1
1
1
1
1
1
1
1
1
1
1
1
0.999999
1
0.999999
1
0.999999
1
1
0.999999
0.999994
0.999997
0.999998
0.999997
0.999999
0.999998
0.999997
0.999997
0.999997
0.999997
0.999997
0.999997
0.999999
0.999998
0.999998
0.999997
0.999998
0.999998
0.999998
0.999998
0.999997
0.999998
0.999997
0.999997
0.999997
0.999997
0.999997
0.999999
1
1.00001
1
1
1
1
1
1
1
1
1
1
1
1
1
1
1
1
1
1
1
1
1
1
1
1
1
1
1.00001
1
1.00001
1
1.00002
1.00003
1.00001
1.00002
1.00002
1.00001
1.00001
1.00001
1.00001
1.00001
1.00002
1.00002
1.00003
1.00003
1.00002
1.00001
1.00002
1.00003
1.00003
1.00002
1.00002
1.00002
1.00002
1.00001
1.00002
1
1
1
0.038136
0.0384245
0.0390553
0.0399902
0.0412116
0.0427194
0.044473
0.0464194
0.0485127
0.0506515
0.0527347
0.0546482
0.0562395
0.0573736
0.0579444
0.0579444
0.0573843
0.0562365
0.0546451
0.0527416
0.0506556
0.0485107
0.0464187
0.044472
0.0427255
0.0412203
0.0400018
0.0390555
0.0384155
0.0381002
5.82908e-06
5.83354e-06
6.33517e-06
7.01463e-06
7.82217e-06
9.3313e-06
1.13328e-05
1.38587e-05
1.76599e-05
2.28926e-05
3.03201e-05
4.09146e-05
5.43286e-05
7.00969e-05
9.00921e-05
9.00451e-05
7.0413e-05
5.41148e-05
4.08504e-05
3.06658e-05
2.32367e-05
1.77594e-05
1.39631e-05
1.13155e-05
9.44227e-06
7.94979e-06