/*--------------------------------*- C++ -*----------------------------------*\
| =========                 |                                                 |
| \\      /  F ield         | OpenFOAM: The Open Source CFD Toolbox           |
|  \\    /   O peration     | Version:  2312                                  |
|   \\  /    A nd           | Website:  www.openfoam.com                      |
|    \\/     M anipulation  |                                                 |
\*---------------------------------------------------------------------------*/
FoamFile
{
    version     2.0;
    format      ascii;
    arch        "LSB;label=32;scalar=64";
    class       volScalarField;
    location    "0.14934";
    object      epsilon;
}
// * * * * * * * * * * * * * * * * * * * * * * * * * * * * * * * * * * * * * //

dimensions      [0 2 -3 0 0 0 0];

internalField   nonuniform List<scalar> 
90000
(
1.66055e-05
1.66055e-05
1.66055e-05
1.66055e-05
1.66055e-05
1.66055e-05
1.66055e-05
1.66055e-05
1.66056e-05
1.66056e-05
1.66056e-05
1.66056e-05
1.66055e-05
1.66055e-05
1.66055e-05
1.66055e-05
1.66055e-05
1.66055e-05
1.66055e-05
1.66055e-05
1.66055e-05
1.66055e-05
1.66055e-05
1.66055e-05
1.66055e-05
1.66055e-05
1.66055e-05
1.66055e-05
1.66055e-05
1.66055e-05
1.66055e-05
1.66076e-05
1.66076e-05
1.66076e-05
1.66076e-05
1.66076e-05
1.66076e-05
1.66076e-05
1.66076e-05
1.66076e-05
1.66076e-05
1.66076e-05
1.66076e-05
1.66076e-05
1.66076e-05
1.66076e-05
1.66076e-05
1.66076e-05
1.66076e-05
1.66076e-05
1.66076e-05
1.66076e-05
1.66076e-05
1.66076e-05
1.66076e-05
1.66076e-05
1.66076e-05
1.66076e-05
1.66076e-05
1.66055e-05
1.66055e-05
1.66076e-05
1.66077e-05
1.66077e-05
1.66077e-05
1.66077e-05
1.66077e-05
1.66077e-05
1.66077e-05
1.66077e-05
1.66077e-05
1.66076e-05
1.66076e-05
1.66076e-05
1.66076e-05
1.66076e-05
1.66076e-05
1.66076e-05
1.66076e-05
1.66076e-05
1.66076e-05
1.66076e-05
1.66076e-05
1.66076e-05
1.66076e-05
1.66076e-05
1.66076e-05
1.66076e-05
1.66076e-05
1.66055e-05
1.66056e-05
1.66076e-05
1.66077e-05
1.66077e-05
1.66077e-05
1.66077e-05
1.66077e-05
1.66076e-05
1.66076e-05
1.66076e-05
1.66076e-05
1.66076e-05
1.66076e-05
1.66076e-05
1.66076e-05
1.66076e-05
1.66076e-05
1.66076e-05
1.66076e-05
1.66076e-05
1.66076e-05
1.66076e-05
1.66076e-05
1.66076e-05
1.66076e-05
1.66076e-05
1.66076e-05
1.66076e-05
1.66076e-05
1.66055e-05
1.66056e-05
1.66076e-05
1.66077e-05
1.66077e-05
1.66077e-05
1.66077e-05
1.66076e-05
1.66076e-05
1.66076e-05
1.66076e-05
1.66076e-05
1.66076e-05
1.66076e-05
1.66076e-05
1.66076e-05
1.66076e-05
1.66076e-05
1.66076e-05
1.66076e-05
1.66076e-05
1.66076e-05
1.66076e-05
1.66076e-05
1.66076e-05
1.66076e-05
1.66076e-05
1.66076e-05
1.66076e-05
1.66076e-05
1.66056e-05
1.66056e-05
1.66076e-05
1.66076e-05
1.66076e-05
1.66077e-05
1.66077e-05
1.66076e-05
1.66076e-05
1.66076e-05
1.66076e-05
1.66076e-05
1.66076e-05
1.66076e-05
1.66076e-05
1.66076e-05
1.66076e-05
1.66076e-05
1.66076e-05
1.66076e-05
1.66076e-05
1.66076e-05
1.66076e-05
1.66076e-05
1.66076e-05
1.66076e-05
1.66076e-05
1.66076e-05
1.66076e-05
1.66076e-05
1.66056e-05
1.66056e-05
1.66076e-05
1.66076e-05
1.66077e-05
1.66077e-05
1.66077e-05
1.66077e-05
1.66077e-05
1.66076e-05
1.66076e-05
1.66076e-05
1.66076e-05
1.66076e-05
1.66076e-05
1.66076e-05
1.66076e-05
1.66076e-05
1.66076e-05
1.66076e-05
1.66076e-05
1.66076e-05
1.66076e-05
1.66076e-05
1.66077e-05
1.66077e-05
1.66077e-05
1.66077e-05
1.66077e-05
1.66076e-05
1.66056e-05
1.66056e-05
1.66076e-05
1.66077e-05
1.66077e-05
1.66077e-05
1.66077e-05
1.66077e-05
1.66077e-05
1.66077e-05
1.66076e-05
1.66076e-05
1.66076e-05
1.66076e-05
1.66076e-05
1.66076e-05
1.66076e-05
1.66076e-05
1.66076e-05
1.66076e-05
1.66076e-05
1.66076e-05
1.66077e-05
1.66077e-05
1.66077e-05
1.66077e-05
1.66077e-05
1.66077e-05
1.66077e-05
1.66077e-05
1.66056e-05
1.66056e-05
1.66077e-05
1.66077e-05
1.66077e-05
1.66077e-05
1.66077e-05
1.66077e-05
1.66077e-05
1.66077e-05
1.66077e-05
1.66076e-05
1.66076e-05
1.66076e-05
1.66076e-05
1.66076e-05
1.66076e-05
1.66076e-05
1.66076e-05
1.66076e-05
1.66076e-05
1.66076e-05
1.66077e-05
1.66077e-05
1.66077e-05
1.66077e-05
1.66077e-05
1.66077e-05
1.66077e-05
1.66077e-05
1.66056e-05
1.66056e-05
1.66077e-05
1.66077e-05
1.66077e-05
1.66077e-05
1.66077e-05
1.66077e-05
1.66077e-05
1.66077e-05
1.66077e-05
1.66077e-05
1.66076e-05
1.66076e-05
1.66076e-05
1.66076e-05
1.66076e-05
1.66076e-05
1.66076e-05
1.66076e-05
1.66076e-05
1.66077e-05
1.66077e-05
1.66077e-05
1.66077e-05
1.66077e-05
1.66077e-05
1.66077e-05
1.66077e-05
1.66077e-05
1.66056e-05
1.66057e-05
1.66077e-05
1.66078e-05
1.66077e-05
1.66077e-05
1.66077e-05
1.66077e-05
1.66077e-05
1.66077e-05
1.66077e-05
1.66077e-05
1.66077e-05
1.66076e-05
1.66076e-05
1.66076e-05
1.66076e-05
1.66076e-05
1.66076e-05
1.66076e-05
1.66076e-05
1.66077e-05
1.66077e-05
1.66077e-05
1.66077e-05
1.66077e-05
1.66078e-05
1.66078e-05
1.66078e-05
1.66077e-05
1.66057e-05
1.66057e-05
1.66078e-05
1.66078e-05
1.66078e-05
1.66078e-05
1.66078e-05
1.66078e-05
1.66077e-05
1.66077e-05
1.66077e-05
1.66077e-05
1.66077e-05
1.66076e-05
1.66076e-05
1.66076e-05
1.66076e-05
1.66076e-05
1.66076e-05
1.66077e-05
1.66077e-05
1.66077e-05
1.66077e-05
1.66077e-05
1.66078e-05
1.66078e-05
1.66078e-05
1.66078e-05
1.66078e-05
1.66078e-05
1.66057e-05
1.66057e-05
1.66078e-05
1.66078e-05
1.66078e-05
1.66078e-05
1.66078e-05
1.66078e-05
1.66078e-05
1.66078e-05
1.66077e-05
1.66077e-05
1.66077e-05
1.66077e-05
1.66076e-05
1.66076e-05
1.66076e-05
1.66076e-05
1.66077e-05
1.66077e-05
1.66077e-05
1.66077e-05
1.66078e-05
1.66078e-05
1.66078e-05
1.66078e-05
1.66078e-05
1.66078e-05
1.66079e-05
1.66078e-05
1.66058e-05
1.66058e-05
1.66079e-05
1.66079e-05
1.66079e-05
1.66079e-05
1.66078e-05
1.66078e-05
1.66078e-05
1.66078e-05
1.66078e-05
1.66077e-05
1.66077e-05
1.66077e-05
1.66077e-05
1.66076e-05
1.66076e-05
1.66077e-05
1.66077e-05
1.66077e-05
1.66077e-05
1.66078e-05
1.66078e-05
1.66078e-05
1.66078e-05
1.66078e-05
1.66079e-05
1.66079e-05
1.66079e-05
1.66079e-05
1.66058e-05
1.66059e-05
1.66079e-05
1.6608e-05
1.6608e-05
1.66079e-05
1.66079e-05
1.66079e-05
1.66078e-05
1.66078e-05
1.66078e-05
1.66078e-05
1.66077e-05
1.66077e-05
1.66077e-05
1.66076e-05
1.66076e-05
1.66077e-05
1.66077e-05
1.66077e-05
1.66078e-05
1.66078e-05
1.66078e-05
1.66078e-05
1.66079e-05
1.66079e-05
1.66079e-05
1.66079e-05
1.6608e-05
1.6608e-05
1.66059e-05
1.6606e-05
1.66081e-05
1.66081e-05
1.66081e-05
1.6608e-05
1.6608e-05
1.6608e-05
1.66079e-05
1.66079e-05
1.66078e-05
1.66078e-05
1.66078e-05
1.66077e-05
1.66077e-05
1.66076e-05
1.66076e-05
1.66077e-05
1.66077e-05
1.66077e-05
1.66078e-05
1.66078e-05
1.66079e-05
1.66079e-05
1.66079e-05
1.6608e-05
1.6608e-05
1.6608e-05
1.6608e-05
1.6608e-05
1.6606e-05
1.66061e-05
1.66082e-05
1.66082e-05
1.66082e-05
1.66081e-05
1.66081e-05
1.6608e-05
1.6608e-05
1.6608e-05
1.66079e-05
1.66079e-05
1.66078e-05
1.66077e-05
1.66077e-05
1.66076e-05
1.66076e-05
1.66077e-05
1.66077e-05
1.66078e-05
1.66078e-05
1.66079e-05
1.66079e-05
1.6608e-05
1.6608e-05
1.66081e-05
1.66081e-05
1.66081e-05
1.66081e-05
1.66081e-05
1.66061e-05
1.66062e-05
1.66083e-05
1.66083e-05
1.66083e-05
1.66082e-05
1.66082e-05
1.66081e-05
1.66081e-05
1.6608e-05
1.6608e-05
1.66079e-05
1.66078e-05
1.66078e-05
1.66077e-05
1.66077e-05
1.66077e-05
1.66077e-05
1.66078e-05
1.66078e-05
1.66079e-05
1.6608e-05
1.6608e-05
1.66081e-05
1.66081e-05
1.66082e-05
1.66082e-05
1.66082e-05
1.66083e-05
1.66083e-05
1.66062e-05
1.66064e-05
1.66084e-05
1.66084e-05
1.66084e-05
1.66084e-05
1.66083e-05
1.66083e-05
1.66082e-05
1.66081e-05
1.66081e-05
1.6608e-05
1.66079e-05
1.66078e-05
1.66078e-05
1.66077e-05
1.66077e-05
1.66078e-05
1.66078e-05
1.66079e-05
1.6608e-05
1.66081e-05
1.66082e-05
1.66082e-05
1.66083e-05
1.66083e-05
1.66084e-05
1.66084e-05
1.66084e-05
1.66084e-05
1.66064e-05
1.66065e-05
1.66086e-05
1.66086e-05
1.66086e-05
1.66085e-05
1.66085e-05
1.66084e-05
1.66083e-05
1.66083e-05
1.66082e-05
1.66081e-05
1.6608e-05
1.66079e-05
1.66078e-05
1.66078e-05
1.66077e-05
1.66078e-05
1.66079e-05
1.6608e-05
1.66081e-05
1.66082e-05
1.66083e-05
1.66084e-05
1.66084e-05
1.66085e-05
1.66085e-05
1.66086e-05
1.66086e-05
1.66086e-05
1.66065e-05
1.66068e-05
1.66088e-05
1.66088e-05
1.66088e-05
1.66087e-05
1.66087e-05
1.66086e-05
1.66085e-05
1.66084e-05
1.66083e-05
1.66082e-05
1.66081e-05
1.6608e-05
1.66079e-05
1.66078e-05
1.66078e-05
1.66079e-05
1.6608e-05
1.66081e-05
1.66082e-05
1.66083e-05
1.66084e-05
1.66085e-05
1.66086e-05
1.66087e-05
1.66087e-05
1.66088e-05
1.66088e-05
1.66088e-05
1.66067e-05
1.6607e-05
1.66091e-05
1.66091e-05
1.6609e-05
1.6609e-05
1.66089e-05
1.66088e-05
1.66087e-05
1.66086e-05
1.66085e-05
1.66084e-05
1.66082e-05
1.66081e-05
1.66079e-05
1.66078e-05
1.66078e-05
1.66079e-05
1.66081e-05
1.66082e-05
1.66084e-05
1.66085e-05
1.66086e-05
1.66087e-05
1.66088e-05
1.66089e-05
1.6609e-05
1.6609e-05
1.66091e-05
1.6609e-05
1.6607e-05
1.66073e-05
1.66094e-05
1.66094e-05
1.66093e-05
1.66093e-05
1.66092e-05
1.66091e-05
1.6609e-05
1.66088e-05
1.66087e-05
1.66085e-05
1.66083e-05
1.66082e-05
1.6608e-05
1.66079e-05
1.66079e-05
1.6608e-05
1.66082e-05
1.66084e-05
1.66085e-05
1.66087e-05
1.66088e-05
1.6609e-05
1.66091e-05
1.66092e-05
1.66093e-05
1.66093e-05
1.66094e-05
1.66094e-05
1.66073e-05
1.66077e-05
1.66098e-05
1.66098e-05
1.66097e-05
1.66096e-05
1.66095e-05
1.66094e-05
1.66092e-05
1.66091e-05
1.66089e-05
1.66087e-05
1.66085e-05
1.66083e-05
1.66081e-05
1.6608e-05
1.6608e-05
1.66082e-05
1.66083e-05
1.66086e-05
1.66088e-05
1.66089e-05
1.66091e-05
1.66093e-05
1.66094e-05
1.66095e-05
1.66096e-05
1.66097e-05
1.66098e-05
1.66098e-05
1.66077e-05
1.66082e-05
1.66102e-05
1.66102e-05
1.66102e-05
1.66101e-05
1.66099e-05
1.66098e-05
1.66096e-05
1.66094e-05
1.66092e-05
1.6609e-05
1.66087e-05
1.66085e-05
1.66083e-05
1.66082e-05
1.66082e-05
1.66083e-05
1.66085e-05
1.66088e-05
1.6609e-05
1.66093e-05
1.66095e-05
1.66096e-05
1.66098e-05
1.66099e-05
1.66101e-05
1.66102e-05
1.66102e-05
1.66102e-05
1.66082e-05
1.66088e-05
1.66108e-05
1.66108e-05
1.66107e-05
1.66106e-05
1.66104e-05
1.66103e-05
1.66101e-05
1.66098e-05
1.66096e-05
1.66093e-05
1.6609e-05
1.66088e-05
1.66085e-05
1.66083e-05
1.66083e-05
1.66085e-05
1.66088e-05
1.66091e-05
1.66094e-05
1.66096e-05
1.66099e-05
1.66101e-05
1.66103e-05
1.66104e-05
1.66106e-05
1.66107e-05
1.66108e-05
1.66108e-05
1.66087e-05
1.66094e-05
1.66114e-05
1.66114e-05
1.66113e-05
1.66112e-05
1.66111e-05
1.66109e-05
1.66106e-05
1.66104e-05
1.66101e-05
1.66097e-05
1.66094e-05
1.66091e-05
1.66087e-05
1.66085e-05
1.66085e-05
1.66087e-05
1.66091e-05
1.66094e-05
1.66098e-05
1.66101e-05
1.66104e-05
1.66106e-05
1.66109e-05
1.66111e-05
1.66112e-05
1.66114e-05
1.66114e-05
1.66115e-05
1.66094e-05
1.66102e-05
1.66122e-05
1.66122e-05
1.66121e-05
1.6612e-05
1.66118e-05
1.66116e-05
1.66113e-05
1.6611e-05
1.66106e-05
1.66102e-05
1.66098e-05
1.66094e-05
1.6609e-05
1.66088e-05
1.66088e-05
1.6609e-05
1.66094e-05
1.66098e-05
1.66103e-05
1.66106e-05
1.6611e-05
1.66113e-05
1.66116e-05
1.66118e-05
1.6612e-05
1.66122e-05
1.66122e-05
1.66123e-05
1.66103e-05
1.66112e-05
1.66132e-05
1.66132e-05
1.66131e-05
1.66129e-05
1.66127e-05
1.66125e-05
1.66121e-05
1.66117e-05
1.66113e-05
1.66108e-05
1.66104e-05
1.66099e-05
1.66094e-05
1.66092e-05
1.66092e-05
1.66095e-05
1.66099e-05
1.66104e-05
1.66109e-05
1.66113e-05
1.66118e-05
1.66121e-05
1.66125e-05
1.66127e-05
1.66129e-05
1.66131e-05
1.66132e-05
1.66133e-05
1.66113e-05
1.66123e-05
1.66144e-05
1.66143e-05
1.66142e-05
1.6614e-05
1.66138e-05
1.66135e-05
1.66131e-05
1.66126e-05
1.66121e-05
1.66116e-05
1.6611e-05
1.66105e-05
1.661e-05
1.66097e-05
1.66097e-05
1.661e-05
1.66105e-05
1.6611e-05
1.66116e-05
1.66122e-05
1.66127e-05
1.66131e-05
1.66135e-05
1.66138e-05
1.6614e-05
1.66142e-05
1.66144e-05
1.66145e-05
1.66124e-05
1.66137e-05
1.66158e-05
1.66157e-05
1.66156e-05
1.66153e-05
1.6615e-05
1.66147e-05
1.66142e-05
1.66137e-05
1.66131e-05
1.66125e-05
1.66119e-05
1.66112e-05
1.66107e-05
1.66104e-05
1.66104e-05
1.66107e-05
1.66112e-05
1.66119e-05
1.66125e-05
1.66131e-05
1.66138e-05
1.66143e-05
1.66147e-05
1.6615e-05
1.66153e-05
1.66156e-05
1.66157e-05
1.66158e-05
1.66137e-05
1.66154e-05
1.66175e-05
1.66174e-05
1.66172e-05
1.66169e-05
1.66165e-05
1.66161e-05
1.66156e-05
1.6615e-05
1.66144e-05
1.66137e-05
1.66129e-05
1.66122e-05
1.66116e-05
1.66112e-05
1.66112e-05
1.66116e-05
1.66122e-05
1.66129e-05
1.66136e-05
1.66144e-05
1.66151e-05
1.66157e-05
1.66161e-05
1.66165e-05
1.66169e-05
1.66172e-05
1.66173e-05
1.66174e-05
1.66154e-05
1.66173e-05
1.66194e-05
1.66193e-05
1.6619e-05
1.66187e-05
1.66183e-05
1.66179e-05
1.66173e-05
1.66167e-05
1.66159e-05
1.66151e-05
1.66142e-05
1.66134e-05
1.66127e-05
1.66123e-05
1.66123e-05
1.66127e-05
1.66133e-05
1.66142e-05
1.6615e-05
1.66159e-05
1.66167e-05
1.66173e-05
1.66179e-05
1.66184e-05
1.66188e-05
1.66191e-05
1.66192e-05
1.66193e-05
1.66173e-05
1.66195e-05
1.66216e-05
1.66214e-05
1.66212e-05
1.66209e-05
1.66205e-05
1.662e-05
1.66193e-05
1.66186e-05
1.66178e-05
1.66168e-05
1.66158e-05
1.66148e-05
1.66141e-05
1.66136e-05
1.66136e-05
1.66141e-05
1.66148e-05
1.66158e-05
1.66168e-05
1.66178e-05
1.66186e-05
1.66193e-05
1.662e-05
1.66205e-05
1.6621e-05
1.66212e-05
1.66214e-05
1.66215e-05
1.66194e-05
1.6622e-05
1.66241e-05
1.66239e-05
1.66237e-05
1.66234e-05
1.6623e-05
1.66224e-05
1.66217e-05
1.66209e-05
1.66199e-05
1.66189e-05
1.66178e-05
1.66167e-05
1.66159e-05
1.66154e-05
1.66154e-05
1.66159e-05
1.66167e-05
1.66178e-05
1.66189e-05
1.662e-05
1.66209e-05
1.66217e-05
1.66225e-05
1.6623e-05
1.66234e-05
1.66237e-05
1.66239e-05
1.6624e-05
1.66219e-05
1.66248e-05
1.66269e-05
1.66268e-05
1.66266e-05
1.66263e-05
1.66259e-05
1.66253e-05
1.66246e-05
1.66236e-05
1.66226e-05
1.66214e-05
1.66202e-05
1.66191e-05
1.66182e-05
1.66176e-05
1.66176e-05
1.66181e-05
1.66191e-05
1.66202e-05
1.66215e-05
1.66226e-05
1.66236e-05
1.66245e-05
1.66253e-05
1.66259e-05
1.66263e-05
1.66266e-05
1.66268e-05
1.66269e-05
1.66248e-05
1.6628e-05
1.66302e-05
1.66301e-05
1.66299e-05
1.66296e-05
1.66292e-05
1.66286e-05
1.66278e-05
1.66269e-05
1.66257e-05
1.66245e-05
1.66232e-05
1.6622e-05
1.66211e-05
1.66205e-05
1.66205e-05
1.6621e-05
1.6622e-05
1.66233e-05
1.66245e-05
1.66257e-05
1.66269e-05
1.66278e-05
1.66286e-05
1.66292e-05
1.66296e-05
1.66299e-05
1.66301e-05
1.66302e-05
1.66281e-05
1.66316e-05
1.66338e-05
1.66338e-05
1.66336e-05
1.66334e-05
1.6633e-05
1.66324e-05
1.66316e-05
1.66307e-05
1.66295e-05
1.66282e-05
1.66269e-05
1.66256e-05
1.66246e-05
1.66241e-05
1.66241e-05
1.66246e-05
1.66257e-05
1.66269e-05
1.66282e-05
1.66295e-05
1.66307e-05
1.66316e-05
1.66324e-05
1.6633e-05
1.66334e-05
1.66336e-05
1.66338e-05
1.66339e-05
1.66316e-05
1.66356e-05
1.66379e-05
1.66379e-05
1.66377e-05
1.66375e-05
1.66372e-05
1.66367e-05
1.6636e-05
1.66351e-05
1.6634e-05
1.66327e-05
1.66313e-05
1.66301e-05
1.66291e-05
1.66285e-05
1.66285e-05
1.66291e-05
1.66301e-05
1.66313e-05
1.66326e-05
1.66339e-05
1.66351e-05
1.6636e-05
1.66367e-05
1.66372e-05
1.66375e-05
1.66377e-05
1.66378e-05
1.66379e-05
1.66356e-05
1.664e-05
1.66423e-05
1.66423e-05
1.66423e-05
1.66422e-05
1.6642e-05
1.66416e-05
1.6641e-05
1.66401e-05
1.66391e-05
1.66379e-05
1.66366e-05
1.66354e-05
1.66345e-05
1.66339e-05
1.66339e-05
1.66344e-05
1.66354e-05
1.66366e-05
1.66379e-05
1.66391e-05
1.66402e-05
1.6641e-05
1.66415e-05
1.66419e-05
1.66421e-05
1.66423e-05
1.66423e-05
1.66422e-05
1.664e-05
1.66446e-05
1.66469e-05
1.6647e-05
1.66471e-05
1.66472e-05
1.66471e-05
1.66469e-05
1.66465e-05
1.66459e-05
1.6645e-05
1.6644e-05
1.66429e-05
1.66418e-05
1.66409e-05
1.66404e-05
1.66404e-05
1.66409e-05
1.66417e-05
1.66428e-05
1.6644e-05
1.6645e-05
1.66459e-05
1.66465e-05
1.66469e-05
1.66471e-05
1.66472e-05
1.66471e-05
1.6647e-05
1.66469e-05
1.66447e-05
1.66495e-05
1.66518e-05
1.6652e-05
1.66523e-05
1.66525e-05
1.66527e-05
1.66527e-05
1.66526e-05
1.66522e-05
1.66517e-05
1.66509e-05
1.665e-05
1.66491e-05
1.66484e-05
1.6648e-05
1.6648e-05
1.66484e-05
1.66491e-05
1.665e-05
1.66509e-05
1.66517e-05
1.66523e-05
1.66526e-05
1.66527e-05
1.66527e-05
1.66525e-05
1.66522e-05
1.6652e-05
1.66518e-05
1.66495e-05
1.66544e-05
1.66568e-05
1.66572e-05
1.66576e-05
1.6658e-05
1.66585e-05
1.66589e-05
1.66591e-05
1.66592e-05
1.6659e-05
1.66586e-05
1.66581e-05
1.66575e-05
1.66569e-05
1.66567e-05
1.66567e-05
1.6657e-05
1.66575e-05
1.66581e-05
1.66586e-05
1.6659e-05
1.66592e-05
1.66591e-05
1.66589e-05
1.66585e-05
1.6658e-05
1.66575e-05
1.66572e-05
1.66568e-05
1.66544e-05
1.66593e-05
1.66618e-05
1.66622e-05
1.66629e-05
1.66636e-05
1.66644e-05
1.66652e-05
1.66659e-05
1.66664e-05
1.66668e-05
1.66669e-05
1.66668e-05
1.66666e-05
1.66664e-05
1.66663e-05
1.66663e-05
1.66664e-05
1.66666e-05
1.66668e-05
1.66669e-05
1.66668e-05
1.66664e-05
1.66659e-05
1.66652e-05
1.66644e-05
1.66636e-05
1.66629e-05
1.66623e-05
1.66618e-05
1.66593e-05
1.6664e-05
1.66665e-05
1.66671e-05
1.6668e-05
1.6669e-05
1.66702e-05
1.66714e-05
1.66727e-05
1.66738e-05
1.66747e-05
1.66755e-05
1.6676e-05
1.66763e-05
1.66765e-05
1.66765e-05
1.66765e-05
1.66764e-05
1.66763e-05
1.6676e-05
1.66755e-05
1.66747e-05
1.66738e-05
1.66726e-05
1.66714e-05
1.66702e-05
1.6669e-05
1.6668e-05
1.66672e-05
1.66665e-05
1.6664e-05
1.66683e-05
1.66709e-05
1.66716e-05
1.66727e-05
1.66741e-05
1.66756e-05
1.66774e-05
1.66792e-05
1.66809e-05
1.66825e-05
1.6684e-05
1.66851e-05
1.6686e-05
1.66866e-05
1.66869e-05
1.66869e-05
1.66866e-05
1.6686e-05
1.66851e-05
1.6684e-05
1.66826e-05
1.66809e-05
1.66791e-05
1.66774e-05
1.66757e-05
1.66741e-05
1.66727e-05
1.66717e-05
1.66709e-05
1.66684e-05
1.66721e-05
1.66746e-05
1.66756e-05
1.66768e-05
1.66785e-05
1.66804e-05
1.66826e-05
1.66849e-05
1.66873e-05
1.66896e-05
1.66918e-05
1.66936e-05
1.66951e-05
1.66961e-05
1.66966e-05
1.66966e-05
1.66961e-05
1.6695e-05
1.66936e-05
1.66918e-05
1.66897e-05
1.66873e-05
1.66849e-05
1.66826e-05
1.66804e-05
1.66785e-05
1.66768e-05
1.66756e-05
1.66747e-05
1.66721e-05
1.66751e-05
1.66776e-05
1.66786e-05
1.66799e-05
1.66819e-05
1.66842e-05
1.66868e-05
1.66896e-05
1.66925e-05
1.66954e-05
1.66982e-05
1.67006e-05
1.67026e-05
1.67039e-05
1.67046e-05
1.67047e-05
1.67039e-05
1.67025e-05
1.67006e-05
1.66982e-05
1.66955e-05
1.66925e-05
1.66896e-05
1.66868e-05
1.66842e-05
1.66819e-05
1.668e-05
1.66786e-05
1.66777e-05
1.6675e-05
1.66795e-05
1.66817e-05
1.6683e-05
1.66844e-05
1.66866e-05
1.66893e-05
1.66922e-05
1.66954e-05
1.66989e-05
1.67023e-05
1.67056e-05
1.67085e-05
1.6711e-05
1.67127e-05
1.67136e-05
1.67136e-05
1.67127e-05
1.6711e-05
1.67085e-05
1.67055e-05
1.67023e-05
1.66989e-05
1.66955e-05
1.66921e-05
1.66892e-05
1.66867e-05
1.66846e-05
1.66829e-05
1.66819e-05
1.66792e-05
1.66511e-05
1.66516e-05
1.66538e-05
1.66539e-05
1.6663e-05
1.66608e-05
1.66668e-05
1.66672e-05
1.66686e-05
1.66704e-05
1.66717e-05
1.66723e-05
1.66725e-05
1.66721e-05
1.6672e-05
1.66721e-05
1.66722e-05
1.66724e-05
1.66719e-05
1.6672e-05
1.66707e-05
1.66686e-05
1.66653e-05
1.66618e-05
1.66596e-05
1.66554e-05
1.66521e-05
1.66507e-05
1.66511e-05
1.66516e-05
1.71224e-05
1.69607e-05
1.70014e-05
1.72641e-05
1.75862e-05
1.78253e-05
1.78844e-05
1.79649e-05
1.79782e-05
1.79402e-05
1.78675e-05
1.7754e-05
1.76213e-05
1.74524e-05
1.73306e-05
1.73448e-05
1.74385e-05
1.76059e-05
1.77725e-05
1.79036e-05
1.79782e-05
1.7944e-05
1.78833e-05
1.77483e-05
1.75505e-05
1.73055e-05
1.70735e-05
1.69073e-05
1.68921e-05
1.6898e-05
1.89331e-05
2.017e-05
2.05533e-05
2.17093e-05
2.25309e-05
2.30631e-05
2.39418e-05
2.45955e-05
2.49661e-05
2.51581e-05
2.51154e-05
2.48424e-05
2.44948e-05
2.42219e-05
2.45927e-05
2.44727e-05
2.43412e-05
2.43699e-05
2.46617e-05
2.50488e-05
2.51604e-05
2.50624e-05
2.45296e-05
2.40051e-05
2.33058e-05
2.23594e-05
2.14155e-05
2.04263e-05
1.92534e-05
1.86314e-05
2.10662e-05
2.16568e-05
2.22857e-05
2.3229e-05
2.40272e-05
2.4908e-05
2.58301e-05
2.66196e-05
2.72654e-05
2.77261e-05
2.80051e-05
2.81125e-05
2.80764e-05
2.8047e-05
2.81461e-05
2.81126e-05
2.80883e-05
2.80244e-05
2.80171e-05
2.79909e-05
2.77571e-05
2.7281e-05
2.66246e-05
2.58598e-05
2.49837e-05
2.40253e-05
2.31365e-05
2.23149e-05
2.17045e-05
2.1127e-05
2.33053e-05
2.37259e-05
2.43196e-05
2.50957e-05
2.59867e-05
2.69533e-05
2.79423e-05
2.89112e-05
2.98039e-05
3.05823e-05
3.12144e-05
3.168e-05
3.19917e-05
3.21975e-05
3.23125e-05
3.23193e-05
3.21883e-05
3.19509e-05
3.16534e-05
3.12004e-05
3.06028e-05
2.98241e-05
2.89394e-05
2.79585e-05
2.69696e-05
2.59873e-05
2.50515e-05
2.41946e-05
2.3686e-05
2.33824e-05
2.54943e-05
2.58323e-05
2.63619e-05
2.71184e-05
2.80323e-05
2.90506e-05
3.0151e-05
3.1301e-05
3.24353e-05
3.34933e-05
3.44472e-05
3.52495e-05
3.58676e-05
3.63026e-05
3.6513e-05
3.65168e-05
3.6288e-05
3.58439e-05
3.52415e-05
3.44677e-05
3.35244e-05
3.24505e-05
3.13244e-05
3.01717e-05
2.90557e-05
2.80223e-05
2.71009e-05
2.62937e-05
2.57328e-05
2.55529e-05
2.75543e-05
2.77558e-05
2.82693e-05
2.90131e-05
2.99426e-05
3.10261e-05
3.22309e-05
3.35312e-05
3.486e-05
3.61606e-05
3.73748e-05
3.84376e-05
3.92903e-05
3.99021e-05
4.02168e-05
4.02182e-05
3.98995e-05
3.92834e-05
3.84349e-05
3.73867e-05
3.61771e-05
3.48707e-05
3.35338e-05
3.22359e-05
3.10297e-05
2.99362e-05
2.90015e-05
2.82566e-05
2.76902e-05
2.75081e-05
2.92361e-05
2.94018e-05
2.99198e-05
3.06614e-05
3.15978e-05
3.2721e-05
3.39953e-05
3.53842e-05
3.68362e-05
3.82915e-05
3.96712e-05
4.09047e-05
4.19184e-05
4.26442e-05
4.30263e-05
4.30335e-05
4.2661e-05
4.19317e-05
4.09129e-05
3.9684e-05
3.83031e-05
3.68372e-05
3.53781e-05
3.39928e-05
3.27163e-05
3.15951e-05
3.06473e-05
2.99174e-05
2.93882e-05
2.91855e-05
3.05146e-05
3.07613e-05
3.12556e-05
3.19763e-05
3.29038e-05
3.40197e-05
3.53034e-05
3.67168e-05
3.82148e-05
3.97326e-05
4.1192e-05
4.25115e-05
4.36018e-05
4.43818e-05
4.47929e-05
4.48016e-05
4.44008e-05
4.36124e-05
4.25182e-05
4.12088e-05
3.97436e-05
3.82183e-05
3.67217e-05
3.52973e-05
3.40085e-05
3.28908e-05
3.1958e-05
3.12494e-05
3.0754e-05
3.05255e-05
3.14798e-05
3.17545e-05
3.22163e-05
3.28859e-05
3.37776e-05
3.48458e-05
3.60856e-05
3.7458e-05
3.89212e-05
4.041e-05
4.18442e-05
4.31523e-05
4.42337e-05
4.50117e-05
4.5416e-05
4.5423e-05
4.50177e-05
4.4237e-05
4.31569e-05
4.18542e-05
4.0413e-05
3.89354e-05
3.7471e-05
3.60888e-05
3.48416e-05
3.376e-05
3.28706e-05
3.21923e-05
3.17306e-05
3.1471e-05
3.20144e-05
3.22934e-05
3.27086e-05
3.33293e-05
3.41274e-05
3.51213e-05
3.62641e-05
3.75294e-05
3.88836e-05
4.02596e-05
4.15838e-05
4.27901e-05
4.37817e-05
4.44969e-05
4.48637e-05
4.48617e-05
4.44919e-05
4.37782e-05
4.27858e-05
4.15814e-05
4.0265e-05
3.88961e-05
3.75463e-05
3.62753e-05
3.51239e-05
3.41291e-05
3.33117e-05
3.26893e-05
3.22676e-05
3.19909e-05
3.2111e-05
3.2399e-05
3.27555e-05
3.33e-05
3.40158e-05
3.48951e-05
3.58975e-05
3.70154e-05
3.81969e-05
3.93824e-05
4.05297e-05
4.1554e-05
4.24024e-05
4.30017e-05
4.33187e-05
4.33229e-05
4.30003e-05
4.23994e-05
4.15523e-05
4.05217e-05
3.9382e-05
3.8191e-05
3.70155e-05
3.59033e-05
3.48939e-05
3.40173e-05
3.32969e-05
3.27427e-05
3.23727e-05
3.20976e-05
3.18349e-05
3.21057e-05
3.24099e-05
3.28642e-05
3.34953e-05
3.42284e-05
3.50765e-05
3.60087e-05
3.6979e-05
3.79417e-05
3.88531e-05
3.96642e-05
4.03282e-05
4.07924e-05
4.10412e-05
4.10369e-05
4.07936e-05
4.0329e-05
3.96664e-05
3.88567e-05
3.79408e-05
3.69765e-05
3.60123e-05
3.50882e-05
3.42385e-05
3.34969e-05
3.28808e-05
3.24067e-05
3.20986e-05
3.18283e-05
3.12499e-05
3.14918e-05
3.17353e-05
3.21367e-05
3.26319e-05
3.3235e-05
3.3917e-05
3.46396e-05
3.53753e-05
3.60997e-05
3.67663e-05
3.73481e-05
3.78045e-05
3.8128e-05
3.8295e-05
3.8293e-05
3.81326e-05
3.78142e-05
3.73554e-05
3.67746e-05
3.61068e-05
3.53863e-05
3.46448e-05
3.39173e-05
3.32413e-05
3.26415e-05
3.21397e-05
3.17532e-05
3.15028e-05
3.12457e-05
3.03986e-05
3.06313e-05
3.08217e-05
3.11351e-05
3.15224e-05
3.19876e-05
3.24912e-05
3.30193e-05
3.35482e-05
3.40361e-05
3.44613e-05
3.48193e-05
3.50873e-05
3.52685e-05
3.5359e-05
3.536e-05
3.52735e-05
3.50977e-05
3.48294e-05
3.44747e-05
3.40445e-05
3.3556e-05
3.30337e-05
3.25074e-05
3.20015e-05
3.15444e-05
3.11547e-05
3.0848e-05
3.06598e-05
3.04205e-05
2.93987e-05
2.96175e-05
2.97599e-05
2.9975e-05
3.02795e-05
3.06032e-05
3.09511e-05
3.13052e-05
3.16287e-05
3.1902e-05
3.21276e-05
3.22863e-05
3.2389e-05
3.24491e-05
3.24717e-05
3.24737e-05
3.2452e-05
3.23959e-05
3.22919e-05
3.2132e-05
3.19114e-05
3.16349e-05
3.13131e-05
3.09642e-05
3.06163e-05
3.02883e-05
2.99995e-05
2.9771e-05
2.96382e-05
2.94175e-05
2.82865e-05
2.84872e-05
2.85674e-05
2.87337e-05
2.89238e-05
2.9139e-05
2.93579e-05
2.9556e-05
2.9715e-05
2.98175e-05
2.98676e-05
2.98708e-05
2.98412e-05
2.97988e-05
2.97683e-05
2.97705e-05
2.98034e-05
2.98465e-05
2.98784e-05
2.98782e-05
2.98308e-05
2.97259e-05
2.95692e-05
2.93756e-05
2.91601e-05
2.89441e-05
2.87482e-05
2.85877e-05
2.84996e-05
2.83041e-05
2.71384e-05
2.73021e-05
2.73434e-05
2.74544e-05
2.75702e-05
2.76966e-05
2.78041e-05
2.78744e-05
2.78975e-05
2.78668e-05
2.77917e-05
2.7674e-05
2.75424e-05
2.7427e-05
2.73618e-05
2.73669e-05
2.74361e-05
2.75492e-05
2.76814e-05
2.78002e-05
2.7879e-05
2.79076e-05
2.78816e-05
2.78081e-05
2.77032e-05
2.75837e-05
2.7464e-05
2.73604e-05
2.73105e-05
2.7144e-05
2.59828e-05
2.61164e-05
2.61444e-05
2.61896e-05
2.62574e-05
2.63025e-05
2.63194e-05
2.63031e-05
2.62329e-05
2.61105e-05
2.59401e-05
2.57393e-05
2.55411e-05
2.53776e-05
2.52856e-05
2.52862e-05
2.5378e-05
2.55416e-05
2.57418e-05
2.59423e-05
2.61132e-05
2.62359e-05
2.63057e-05
2.63266e-05
2.63081e-05
2.62613e-05
2.62011e-05
2.61449e-05
2.61259e-05
2.59875e-05
2.48637e-05
2.49742e-05
2.49736e-05
2.49948e-05
2.50076e-05
2.49973e-05
2.49609e-05
2.4879e-05
2.47386e-05
2.4553e-05
2.43245e-05
2.40757e-05
2.38355e-05
2.36427e-05
2.35352e-05
2.35355e-05
2.36444e-05
2.3839e-05
2.4081e-05
2.43308e-05
2.45586e-05
2.47447e-05
2.48808e-05
2.49662e-05
2.50066e-05
2.50134e-05
2.50005e-05
2.49821e-05
2.4985e-05
2.48718e-05
2.38182e-05
2.39169e-05
2.38909e-05
2.38903e-05
2.38641e-05
2.38236e-05
2.37407e-05
2.36082e-05
2.34336e-05
2.32133e-05
2.29551e-05
2.26806e-05
2.2421e-05
2.22151e-05
2.20988e-05
2.20984e-05
2.22149e-05
2.24217e-05
2.26817e-05
2.29568e-05
2.32158e-05
2.34381e-05
2.36132e-05
2.37392e-05
2.38206e-05
2.38669e-05
2.38889e-05
2.38969e-05
2.39137e-05
2.38232e-05
2.28577e-05
2.29267e-05
2.29007e-05
2.28734e-05
2.28318e-05
2.27619e-05
2.26489e-05
2.25001e-05
2.23084e-05
2.20706e-05
2.17997e-05
2.15168e-05
2.12533e-05
2.10444e-05
2.0927e-05
2.09273e-05
2.10452e-05
2.12551e-05
2.152e-05
2.18025e-05
2.20724e-05
2.23103e-05
2.25057e-05
2.26553e-05
2.27623e-05
2.28338e-05
2.28779e-05
2.29031e-05
2.29289e-05
2.28589e-05
2.19894e-05
2.20324e-05
2.20091e-05
2.19669e-05
2.19157e-05
2.18262e-05
2.17055e-05
2.15512e-05
2.13502e-05
2.11094e-05
2.08408e-05
2.05661e-05
2.03106e-05
2.01068e-05
1.99922e-05
1.99924e-05
2.01069e-05
2.03111e-05
2.05687e-05
2.08442e-05
2.11108e-05
2.135e-05
2.15509e-05
2.17099e-05
2.18295e-05
2.19151e-05
2.19726e-05
2.20091e-05
2.20408e-05
2.19878e-05
2.12044e-05
2.1253e-05
2.12152e-05
2.11737e-05
2.11083e-05
2.10138e-05
2.0895e-05
2.07361e-05
2.05375e-05
2.03062e-05
2.00536e-05
1.9795e-05
1.95517e-05
1.93572e-05
1.92476e-05
1.92472e-05
1.93562e-05
1.95498e-05
1.97933e-05
2.00546e-05
2.0309e-05
2.05389e-05
2.07347e-05
2.08937e-05
2.10176e-05
2.11096e-05
2.11743e-05
2.12172e-05
2.12513e-05
2.12115e-05
2.05266e-05
2.05593e-05
2.05166e-05
2.04737e-05
2.04065e-05
2.03166e-05
2.01967e-05
2.0041e-05
1.98549e-05
1.96419e-05
1.94095e-05
1.91686e-05
1.8942e-05
1.87615e-05
1.86593e-05
1.86595e-05
1.87624e-05
1.89431e-05
1.91688e-05
1.94104e-05
1.96455e-05
1.98592e-05
2.00437e-05
2.01967e-05
2.03185e-05
2.04108e-05
2.04772e-05
2.05226e-05
2.05567e-05
2.05268e-05
1.99308e-05
1.99426e-05
1.99153e-05
1.98725e-05
1.98073e-05
1.97204e-05
1.96032e-05
1.94605e-05
1.92922e-05
1.90998e-05
1.88874e-05
1.86677e-05
1.84616e-05
1.82961e-05
1.82016e-05
1.82018e-05
1.82964e-05
1.84613e-05
1.86663e-05
1.8885e-05
1.90977e-05
1.92923e-05
1.94624e-05
1.96052e-05
1.97199e-05
1.98081e-05
1.98731e-05
1.99183e-05
1.99511e-05
1.99289e-05
1.94068e-05
1.9422e-05
1.93991e-05
1.93535e-05
1.92913e-05
1.92075e-05
1.91017e-05
1.89741e-05
1.88226e-05
1.86481e-05
1.84573e-05
1.82618e-05
1.80776e-05
1.79278e-05
1.78414e-05
1.78411e-05
1.79271e-05
1.80768e-05
1.82616e-05
1.84574e-05
1.86477e-05
1.88223e-05
1.89757e-05
1.91052e-05
1.92102e-05
1.92923e-05
1.93538e-05
1.9397e-05
1.94277e-05
1.94118e-05
1.89619e-05
1.89836e-05
1.8951e-05
1.89071e-05
1.8851e-05
1.87753e-05
1.86822e-05
1.85674e-05
1.84308e-05
1.82758e-05
1.81089e-05
1.79375e-05
1.77744e-05
1.76406e-05
1.75623e-05
1.75621e-05
1.76405e-05
1.77753e-05
1.79395e-05
1.81119e-05
1.82791e-05
1.84329e-05
1.85687e-05
1.86841e-05
1.87787e-05
1.88537e-05
1.89104e-05
1.89508e-05
1.89791e-05
1.89679e-05
1.85897e-05
1.85966e-05
1.85659e-05
1.85315e-05
1.84811e-05
1.84155e-05
1.83318e-05
1.8229e-05
1.8109e-05
1.79755e-05
1.78312e-05
1.76817e-05
1.75385e-05
1.74194e-05
1.73484e-05
1.73481e-05
1.74186e-05
1.75376e-05
1.76806e-05
1.783e-05
1.79752e-05
1.81095e-05
1.82286e-05
1.83307e-05
1.84152e-05
1.84826e-05
1.85341e-05
1.85712e-05
1.85969e-05
1.85882e-05
1.82641e-05
1.8264e-05
1.82453e-05
1.82158e-05
1.81701e-05
1.81102e-05
1.80343e-05
1.79449e-05
1.78427e-05
1.77285e-05
1.76038e-05
1.7474e-05
1.73486e-05
1.7243e-05
1.71797e-05
1.71798e-05
1.72426e-05
1.73467e-05
1.74705e-05
1.75999e-05
1.7726e-05
1.78428e-05
1.79467e-05
1.80363e-05
1.81107e-05
1.81704e-05
1.82162e-05
1.82492e-05
1.82717e-05
1.82648e-05
1.7986e-05
1.79951e-05
1.79795e-05
1.7948e-05
1.79064e-05
1.78517e-05
1.7787e-05
1.77114e-05
1.76241e-05
1.75254e-05
1.74175e-05
1.73051e-05
1.71965e-05
1.71051e-05
1.70502e-05
1.70507e-05
1.71062e-05
1.7197e-05
1.73044e-05
1.74162e-05
1.75247e-05
1.7625e-05
1.77144e-05
1.77916e-05
1.7856e-05
1.79078e-05
1.79476e-05
1.79765e-05
1.79963e-05
1.79911e-05
1.77601e-05
1.77701e-05
1.77492e-05
1.7721e-05
1.76842e-05
1.76397e-05
1.75862e-05
1.75213e-05
1.74459e-05
1.7361e-05
1.72685e-05
1.71726e-05
1.70807e-05
1.70029e-05
1.69543e-05
1.69539e-05
1.70026e-05
1.70815e-05
1.71738e-05
1.72688e-05
1.73605e-05
1.74454e-05
1.75214e-05
1.75872e-05
1.76422e-05
1.76868e-05
1.77216e-05
1.77474e-05
1.77651e-05
1.77611e-05
1.75696e-05
1.75704e-05
1.75519e-05
1.75304e-05
1.7501e-05
1.74652e-05
1.74185e-05
1.73623e-05
1.7298e-05
1.72259e-05
1.71476e-05
1.70675e-05
1.69907e-05
1.69235e-05