/*--------------------------------*- C++ -*----------------------------------*\
| =========                 |                                                 |
| \\      /  F ield         | OpenFOAM: The Open Source CFD Toolbox           |
|  \\    /   O peration     | Version:  2312                                  |
|   \\  /    A nd           | Website:  www.openfoam.com                      |
|    \\/     M anipulation  |                                                 |
\*---------------------------------------------------------------------------*/
FoamFile
{
    version     2.0;
    format      ascii;
    arch        "LSB;label=32;scalar=64";
    class       volScalarField;
    location    "0.14934";
    object      k;
}
// * * * * * * * * * * * * * * * * * * * * * * * * * * * * * * * * * * * * * //

dimensions      [0 2 -2 0 0 0 0];

internalField   nonuniform List<scalar> 
90000
(
3.48975e-05
3.48977e-05
3.48977e-05
3.48977e-05
3.48977e-05
3.48977e-05
3.48977e-05
3.48977e-05
3.48977e-05
3.48977e-05
3.48977e-05
3.48977e-05
3.48977e-05
3.48977e-05
3.48976e-05
3.48976e-05
3.48976e-05
3.48976e-05
3.48977e-05
3.48977e-05
3.48977e-05
3.48977e-05
3.48977e-05
3.48977e-05
3.48977e-05
3.48977e-05
3.48977e-05
3.48977e-05
3.48977e-05
3.48976e-05
3.48977e-05
3.49009e-05
3.49009e-05
3.49009e-05
3.49009e-05
3.49009e-05
3.49009e-05
3.49009e-05
3.49009e-05
3.49009e-05
3.49009e-05
3.49009e-05
3.49009e-05
3.49008e-05
3.49008e-05
3.49008e-05
3.49008e-05
3.49008e-05
3.49009e-05
3.49009e-05
3.49009e-05
3.49009e-05
3.49009e-05
3.49009e-05
3.49009e-05
3.49009e-05
3.49009e-05
3.49009e-05
3.49008e-05
3.48976e-05
3.48977e-05
3.49009e-05
3.49009e-05
3.49009e-05
3.49009e-05
3.49009e-05
3.49009e-05
3.49009e-05
3.49009e-05
3.49009e-05
3.49009e-05
3.49009e-05
3.49009e-05
3.49009e-05
3.49008e-05
3.49008e-05
3.49008e-05
3.49009e-05
3.49009e-05
3.49009e-05
3.49009e-05
3.49009e-05
3.49009e-05
3.49009e-05
3.49009e-05
3.49009e-05
3.49009e-05
3.49009e-05
3.49009e-05
3.48977e-05
3.48977e-05
3.49009e-05
3.49009e-05
3.49009e-05
3.49009e-05
3.49009e-05
3.49009e-05
3.49009e-05
3.49009e-05
3.49009e-05
3.49009e-05
3.49009e-05
3.49009e-05
3.49009e-05
3.49008e-05
3.49008e-05
3.49008e-05
3.49008e-05
3.49009e-05
3.49009e-05
3.49009e-05
3.49009e-05
3.49009e-05
3.49009e-05
3.49009e-05
3.49009e-05
3.49009e-05
3.49009e-05
3.49008e-05
3.48977e-05
3.48977e-05
3.49009e-05
3.49009e-05
3.49009e-05
3.49009e-05
3.49009e-05
3.49009e-05
3.49009e-05
3.49009e-05
3.49009e-05
3.49009e-05
3.49009e-05
3.49009e-05
3.49008e-05
3.49008e-05
3.49008e-05
3.49008e-05
3.49008e-05
3.49008e-05
3.49009e-05
3.49009e-05
3.49009e-05
3.49009e-05
3.49009e-05
3.49009e-05
3.49009e-05
3.49009e-05
3.49009e-05
3.49008e-05
3.48977e-05
3.48977e-05
3.49009e-05
3.49009e-05
3.49009e-05
3.49009e-05
3.49009e-05
3.49009e-05
3.49009e-05
3.49009e-05
3.49009e-05
3.49009e-05
3.49009e-05
3.49009e-05
3.49008e-05
3.49008e-05
3.49008e-05
3.49008e-05
3.49008e-05
3.49009e-05
3.49009e-05
3.49009e-05
3.49009e-05
3.49009e-05
3.49009e-05
3.49009e-05
3.49009e-05
3.49009e-05
3.49009e-05
3.49009e-05
3.48977e-05
3.48977e-05
3.49009e-05
3.49009e-05
3.49009e-05
3.49009e-05
3.49009e-05
3.49009e-05
3.49009e-05
3.49009e-05
3.49009e-05
3.49009e-05
3.49009e-05
3.49009e-05
3.49008e-05
3.49008e-05
3.49008e-05
3.49008e-05
3.49009e-05
3.49009e-05
3.49009e-05
3.49009e-05
3.49009e-05
3.49009e-05
3.49009e-05
3.49009e-05
3.49009e-05
3.49009e-05
3.49009e-05
3.49009e-05
3.48978e-05
3.48978e-05
3.49009e-05
3.4901e-05
3.4901e-05
3.4901e-05
3.4901e-05
3.4901e-05
3.49009e-05
3.49009e-05
3.49009e-05
3.49009e-05
3.49009e-05
3.49009e-05
3.49008e-05
3.49008e-05
3.49008e-05
3.49008e-05
3.49009e-05
3.49009e-05
3.49009e-05
3.49009e-05
3.49009e-05
3.4901e-05
3.4901e-05
3.4901e-05
3.4901e-05
3.4901e-05
3.4901e-05
3.4901e-05
3.48978e-05
3.48978e-05
3.4901e-05
3.4901e-05
3.4901e-05
3.4901e-05
3.4901e-05
3.4901e-05
3.4901e-05
3.4901e-05
3.49009e-05
3.49009e-05
3.49009e-05
3.49009e-05
3.49008e-05
3.49008e-05
3.49008e-05
3.49008e-05
3.49009e-05
3.49009e-05
3.49009e-05
3.49009e-05
3.4901e-05
3.4901e-05
3.4901e-05
3.4901e-05
3.4901e-05
3.49011e-05
3.4901e-05
3.4901e-05
3.48978e-05
3.48979e-05
3.4901e-05
3.49011e-05
3.49011e-05
3.49011e-05
3.4901e-05
3.4901e-05
3.4901e-05
3.4901e-05
3.4901e-05
3.49009e-05
3.49009e-05
3.49009e-05
3.49008e-05
3.49008e-05
3.49008e-05
3.49008e-05
3.49009e-05
3.49009e-05
3.49009e-05
3.49009e-05
3.4901e-05
3.4901e-05
3.4901e-05
3.49011e-05
3.49011e-05
3.49011e-05
3.49011e-05
3.4901e-05
3.48979e-05
3.48979e-05
3.49011e-05
3.49011e-05
3.49011e-05
3.49011e-05
3.49011e-05
3.49011e-05
3.49011e-05
3.4901e-05
3.4901e-05
3.4901e-05
3.49009e-05
3.49009e-05
3.49008e-05
3.49008e-05
3.49008e-05
3.49008e-05
3.49009e-05
3.49009e-05
3.49009e-05
3.4901e-05
3.4901e-05
3.49011e-05
3.49011e-05
3.49011e-05
3.49011e-05
3.49012e-05
3.49012e-05
3.49011e-05
3.4898e-05
3.4898e-05
3.49012e-05
3.49012e-05
3.49012e-05
3.49012e-05
3.49012e-05
3.49011e-05
3.49011e-05
3.49011e-05
3.4901e-05
3.4901e-05
3.4901e-05
3.49009e-05
3.49009e-05
3.49008e-05
3.49008e-05
3.49008e-05
3.49009e-05
3.49009e-05
3.4901e-05
3.4901e-05
3.49011e-05
3.49011e-05
3.49011e-05
3.49012e-05
3.49012e-05
3.49012e-05
3.49012e-05
3.49012e-05
3.48981e-05
3.48981e-05
3.49012e-05
3.49013e-05
3.49013e-05
3.49012e-05
3.49012e-05
3.49012e-05
3.49012e-05
3.49011e-05
3.49011e-05
3.4901e-05
3.4901e-05
3.49009e-05
3.49009e-05
3.49008e-05
3.49008e-05
3.49009e-05
3.49009e-05
3.4901e-05
3.4901e-05
3.49011e-05
3.49011e-05
3.49012e-05
3.49012e-05
3.49012e-05
3.49013e-05
3.49013e-05
3.49014e-05
3.49013e-05
3.48982e-05
3.48982e-05
3.49014e-05
3.49014e-05
3.49014e-05
3.49014e-05
3.49013e-05
3.49013e-05
3.49013e-05
3.49012e-05
3.49012e-05
3.49011e-05
3.4901e-05
3.4901e-05
3.49009e-05
3.49009e-05
3.49009e-05
3.49009e-05
3.4901e-05
3.49011e-05
3.49011e-05
3.49012e-05
3.49012e-05
3.49012e-05
3.49013e-05
3.49013e-05
3.49014e-05
3.49014e-05
3.49015e-05
3.49015e-05
3.48983e-05
3.48984e-05
3.49016e-05
3.49016e-05
3.49016e-05
3.49015e-05
3.49015e-05
3.49014e-05
3.49014e-05
3.49013e-05
3.49012e-05
3.49012e-05
3.49011e-05
3.4901e-05
3.49009e-05
3.49009e-05
3.49009e-05
3.49009e-05
3.4901e-05
3.49011e-05
3.49012e-05
3.49012e-05
3.49013e-05
3.49013e-05
3.49014e-05
3.49015e-05
3.49015e-05
3.49016e-05
3.49016e-05
3.49016e-05
3.48984e-05
3.48986e-05
3.49018e-05
3.49018e-05
3.49018e-05
3.49017e-05
3.49017e-05
3.49016e-05
3.49015e-05
3.49014e-05
3.49013e-05
3.49013e-05
3.49012e-05
3.49011e-05
3.4901e-05
3.49009e-05
3.49009e-05
3.4901e-05
3.49011e-05
3.49011e-05
3.49012e-05
3.49013e-05
3.49014e-05
3.49015e-05
3.49016e-05
3.49016e-05
3.49017e-05
3.49017e-05
3.49018e-05
3.49017e-05
3.48986e-05
3.48988e-05
3.4902e-05
3.4902e-05
3.4902e-05
3.49019e-05
3.49019e-05
3.49018e-05
3.49017e-05
3.49016e-05
3.49015e-05
3.49014e-05
3.49012e-05
3.49011e-05
3.4901e-05
3.49009e-05
3.49009e-05
3.4901e-05
3.49011e-05
3.49012e-05
3.49013e-05
3.49015e-05
3.49016e-05
3.49017e-05
3.49017e-05
3.49018e-05
3.49019e-05
3.49019e-05
3.4902e-05
3.4902e-05
3.48988e-05
3.48991e-05
3.49023e-05
3.49023e-05
3.49023e-05
3.49022e-05
3.49021e-05
3.4902e-05
3.49019e-05
3.49018e-05
3.49016e-05
3.49015e-05
3.49013e-05
3.49012e-05
3.49011e-05
3.4901e-05
3.4901e-05
3.49011e-05
3.49012e-05
3.49014e-05
3.49015e-05
3.49016e-05
3.49018e-05
3.49019e-05
3.4902e-05
3.49021e-05
3.49021e-05
3.49022e-05
3.49023e-05
3.49023e-05
3.48991e-05
3.48994e-05
3.49026e-05
3.49026e-05
3.49026e-05
3.49025e-05
3.49024e-05
3.49023e-05
3.49021e-05
3.4902e-05
3.49018e-05
3.49017e-05
3.49015e-05
3.49013e-05
3.49012e-05
3.4901e-05
3.4901e-05
3.49012e-05
3.49013e-05
3.49015e-05
3.49017e-05
3.49019e-05
3.4902e-05
3.49022e-05
3.49023e-05
3.49024e-05
3.49025e-05
3.49026e-05
3.49026e-05
3.49026e-05
3.48995e-05
3.48998e-05
3.4903e-05
3.4903e-05
3.49029e-05
3.49028e-05
3.49027e-05
3.49026e-05
3.49024e-05
3.49023e-05
3.49021e-05
3.49019e-05
3.49017e-05
3.49015e-05
3.49013e-05
3.49011e-05
3.49011e-05
3.49013e-05
3.49015e-05
3.49017e-05
3.49019e-05
3.49021e-05
3.49023e-05
3.49025e-05
3.49026e-05
3.49027e-05
3.49029e-05
3.49029e-05
3.4903e-05
3.4903e-05
3.48998e-05
3.49003e-05
3.49035e-05
3.49034e-05
3.49033e-05
3.49032e-05
3.49031e-05
3.4903e-05
3.49028e-05
3.49026e-05
3.49024e-05
3.49022e-05
3.49019e-05
3.49017e-05
3.49014e-05
3.49012e-05
3.49012e-05
3.49014e-05
3.49016e-05
3.49019e-05
3.49022e-05
3.49024e-05
3.49026e-05
3.49028e-05
3.4903e-05
3.49031e-05
3.49033e-05
3.49034e-05
3.49035e-05
3.49034e-05
3.49003e-05
3.49009e-05
3.4904e-05
3.4904e-05
3.49039e-05
3.49038e-05
3.49036e-05
3.49034e-05
3.49032e-05
3.4903e-05
3.49027e-05
3.49025e-05
3.49021e-05
3.49018e-05
3.49015e-05
3.49013e-05
3.49013e-05
3.49015e-05
3.49018e-05
3.49021e-05
3.49024e-05
3.49027e-05
3.4903e-05
3.49032e-05
3.49034e-05
3.49036e-05
3.49038e-05
3.49039e-05
3.4904e-05
3.4904e-05
3.49008e-05
3.49016e-05
3.49047e-05
3.49047e-05
3.49046e-05
3.49044e-05
3.49042e-05
3.4904e-05
3.49038e-05
3.49035e-05
3.49031e-05
3.49028e-05
3.49024e-05
3.4902e-05
3.49017e-05
3.49015e-05
3.49015e-05
3.49017e-05
3.49021e-05
3.49024e-05
3.49028e-05
3.49031e-05
3.49035e-05
3.49038e-05
3.4904e-05
3.49043e-05
3.49044e-05
3.49046e-05
3.49047e-05
3.49047e-05
3.49016e-05
3.49024e-05
3.49055e-05
3.49055e-05
3.49054e-05
3.49052e-05
3.4905e-05
3.49047e-05
3.49044e-05
3.4904e-05
3.49036e-05
3.49032e-05
3.49028e-05
3.49023e-05
3.4902e-05
3.49017e-05
3.49017e-05
3.4902e-05
3.49024e-05
3.49029e-05
3.49033e-05
3.49037e-05
3.49041e-05
3.49044e-05
3.49048e-05
3.4905e-05
3.49052e-05
3.49054e-05
3.49055e-05
3.49056e-05
3.49024e-05
3.49034e-05
3.49066e-05
3.49065e-05
3.49064e-05
3.49062e-05
3.49059e-05
3.49056e-05
3.49052e-05
3.49047e-05
3.49043e-05
3.49038e-05
3.49033e-05
3.49028e-05
3.49023e-05
3.4902e-05
3.4902e-05
3.49023e-05
3.49028e-05
3.49034e-05
3.49039e-05
3.49044e-05
3.49048e-05
3.49053e-05
3.49056e-05
3.49059e-05
3.49062e-05
3.49064e-05
3.49065e-05
3.49066e-05
3.49034e-05
3.49047e-05
3.49078e-05
3.49077e-05
3.49075e-05
3.49073e-05
3.4907e-05
3.49066e-05
3.49062e-05
3.49057e-05
3.49051e-05
3.49045e-05
3.49039e-05
3.49033e-05
3.49028e-05
3.49024e-05
3.49024e-05
3.49028e-05
3.49033e-05
3.4904e-05
3.49046e-05
3.49052e-05
3.49057e-05
3.49062e-05
3.49066e-05
3.4907e-05
3.49073e-05
3.49075e-05
3.49077e-05
3.49078e-05
3.49046e-05
3.49061e-05
3.49092e-05
3.49091e-05
3.49089e-05
3.49087e-05
3.49083e-05
3.49079e-05
3.49074e-05
3.49068e-05
3.49062e-05
3.49054e-05
3.49047e-05
3.4904e-05
3.49033e-05
3.49028e-05
3.49028e-05
3.49033e-05
3.4904e-05
3.49047e-05
3.49055e-05
3.49062e-05
3.49068e-05
3.49074e-05
3.49079e-05
3.49083e-05
3.49087e-05
3.4909e-05
3.49092e-05
3.49092e-05
3.49061e-05
3.49078e-05
3.49109e-05
3.49108e-05
3.49106e-05
3.49103e-05
3.491e-05
3.49095e-05
3.49089e-05
3.49082e-05
3.49074e-05
3.49065e-05
3.49056e-05
3.49047e-05
3.49039e-05
3.49034e-05
3.49034e-05
3.49039e-05
3.49047e-05
3.49056e-05
3.49066e-05
3.49074e-05
3.49082e-05
3.49088e-05
3.49095e-05
3.491e-05
3.49104e-05
3.49107e-05
3.49109e-05
3.4911e-05
3.49079e-05
3.49099e-05
3.4913e-05
3.49129e-05
3.49127e-05
3.49124e-05
3.49119e-05
3.49113e-05
3.49106e-05
3.49098e-05
3.49088e-05
3.49078e-05
3.49068e-05
3.49057e-05
3.49048e-05
3.49042e-05
3.49042e-05
3.49048e-05
3.49058e-05
3.49068e-05
3.49079e-05
3.49089e-05
3.49098e-05
3.49106e-05
3.49114e-05
3.4912e-05
3.49124e-05
3.49127e-05
3.4913e-05
3.49132e-05
3.491e-05
3.49124e-05
3.49156e-05
3.49155e-05
3.49152e-05
3.49148e-05
3.49142e-05
3.49135e-05
3.49127e-05
3.49117e-05
3.49106e-05
3.49094e-05
3.49082e-05
3.4907e-05
3.49059e-05
3.49053e-05
3.49053e-05
3.4906e-05
3.4907e-05
3.49083e-05
3.49095e-05
3.49107e-05
3.49118e-05
3.49128e-05
3.49136e-05
3.49142e-05
3.49147e-05
3.49152e-05
3.49155e-05
3.49157e-05
3.49125e-05
3.49155e-05
3.49187e-05
3.49185e-05
3.49181e-05
3.49176e-05
3.4917e-05
3.49161e-05
3.49152e-05
3.49141e-05
3.49128e-05
3.49115e-05
3.491e-05
3.49086e-05
3.49074e-05
3.49067e-05
3.49067e-05
3.49075e-05
3.49086e-05
3.491e-05
3.49115e-05
3.49128e-05
3.49142e-05
3.49153e-05
3.49162e-05
3.4917e-05
3.49176e-05
3.49181e-05
3.49185e-05
3.49187e-05
3.49155e-05
3.4919e-05
3.49222e-05
3.4922e-05
3.49216e-05
3.4921e-05
3.49202e-05
3.49193e-05
3.49182e-05
3.4917e-05
3.49155e-05
3.4914e-05
3.49123e-05
3.49107e-05
3.49093e-05
3.49085e-05
3.49085e-05
3.49093e-05
3.49107e-05
3.49122e-05
3.49139e-05
3.49155e-05
3.4917e-05
3.49183e-05
3.49194e-05
3.49202e-05
3.4921e-05
3.49216e-05
3.4922e-05
3.49222e-05
3.4919e-05
3.49231e-05
3.49264e-05
3.49261e-05
3.49256e-05
3.4925e-05
3.49241e-05
3.49231e-05
3.49219e-05
3.49205e-05
3.49188e-05
3.4917e-05
3.49151e-05
3.49132e-05
3.49117e-05
3.49108e-05
3.49108e-05
3.49117e-05
3.49132e-05
3.4915e-05
3.49169e-05
3.49188e-05
3.49205e-05
3.49219e-05
3.49232e-05
3.49242e-05
3.49251e-05
3.49257e-05
3.4926e-05
3.49263e-05
3.49231e-05
3.49279e-05
3.49311e-05
3.49308e-05
3.49303e-05
3.49296e-05
3.49287e-05
3.49276e-05
3.49263e-05
3.49247e-05
3.49228e-05
3.49207e-05
3.49185e-05
3.49164e-05
3.49148e-05
3.49138e-05
3.49138e-05
3.49148e-05
3.49164e-05
3.49185e-05
3.49207e-05
3.49228e-05
3.49247e-05
3.49263e-05
3.49277e-05
3.49289e-05
3.49297e-05
3.49303e-05
3.49308e-05
3.4931e-05
3.49278e-05
3.49333e-05
3.49365e-05
3.49363e-05
3.49358e-05
3.49351e-05
3.49342e-05
3.4933e-05
3.49315e-05
3.49297e-05
3.49275e-05
3.49252e-05
3.49228e-05
3.49205e-05
3.49187e-05
3.49176e-05
3.49176e-05
3.49187e-05
3.49205e-05
3.49228e-05
3.49252e-05
3.49275e-05
3.49296e-05
3.49314e-05
3.4933e-05
3.49342e-05
3.49351e-05
3.49358e-05
3.49363e-05
3.49365e-05
3.49332e-05
3.49395e-05
3.49428e-05
3.49425e-05
3.49421e-05
3.49414e-05
3.49404e-05
3.49392e-05
3.49376e-05
3.49356e-05
3.49332e-05
3.49307e-05
3.49281e-05
3.49256e-05
3.49236e-05
3.49225e-05
3.49224e-05
3.49236e-05
3.49256e-05
3.49281e-05
3.49308e-05
3.49333e-05
3.49355e-05
3.49375e-05
3.49392e-05
3.49405e-05
3.49414e-05
3.49421e-05
3.49426e-05
3.49428e-05
3.49395e-05
3.49465e-05
3.49499e-05
3.49497e-05
3.49492e-05
3.49486e-05
3.49476e-05
3.49463e-05
3.49447e-05
3.49426e-05
3.49401e-05
3.49374e-05
3.49346e-05
3.4932e-05
3.49298e-05
3.49286e-05
3.49286e-05
3.49298e-05
3.49319e-05
3.49346e-05
3.49374e-05
3.49401e-05
3.49425e-05
3.49447e-05
3.49464e-05
3.49476e-05
3.49486e-05
3.49493e-05
3.49497e-05
3.49499e-05
3.49466e-05
3.49544e-05
3.49579e-05
3.49577e-05
3.49573e-05
3.49567e-05
3.49558e-05
3.49546e-05
3.49529e-05
3.49508e-05
3.49483e-05
3.49455e-05
3.49426e-05
3.49398e-05
3.49376e-05
3.49363e-05
3.49363e-05
3.49375e-05
3.49398e-05
3.49425e-05
3.49454e-05
3.49482e-05
3.49508e-05
3.49529e-05
3.49546e-05
3.49558e-05
3.49567e-05
3.49573e-05
3.49577e-05
3.49579e-05
3.49544e-05
3.49632e-05
3.49667e-05
3.49666e-05
3.49663e-05
3.49659e-05
3.49651e-05
3.4964e-05
3.49624e-05
3.49604e-05
3.49579e-05
3.49551e-05
3.49521e-05
3.49493e-05
3.49471e-05
3.49458e-05
3.49458e-05
3.49471e-05
3.49493e-05
3.49521e-05
3.4955e-05
3.49579e-05
3.49604e-05
3.49624e-05
3.4964e-05
3.49651e-05
3.49658e-05
3.49663e-05
3.49665e-05
3.49666e-05
3.49631e-05
3.49727e-05
3.49763e-05
3.49763e-05
3.49762e-05
3.49759e-05
3.49754e-05
3.49746e-05
3.49732e-05
3.49714e-05
3.49691e-05
3.49664e-05
3.49636e-05
3.49609e-05
3.49587e-05
3.49575e-05
3.49575e-05
3.49587e-05
3.49609e-05
3.49635e-05
3.49664e-05
3.49691e-05
3.49714e-05
3.49732e-05
3.49745e-05
3.49754e-05
3.49759e-05
3.49762e-05
3.49763e-05
3.49762e-05
3.49727e-05
3.49828e-05
3.49865e-05
3.49867e-05
3.49868e-05
3.49869e-05
3.49868e-05
3.49863e-05
3.49853e-05
3.49839e-05
3.49819e-05
3.49796e-05
3.49771e-05
3.49746e-05
3.49727e-05
3.49715e-05
3.49715e-05
3.49727e-05
3.49746e-05
3.4977e-05
3.49796e-05
3.4982e-05
3.49839e-05
3.49853e-05
3.49862e-05
3.49867e-05
3.49869e-05
3.49869e-05
3.49867e-05
3.49865e-05
3.49828e-05
3.49934e-05
3.49972e-05
3.49976e-05
3.49981e-05
3.49986e-05
3.49989e-05
3.4999e-05
3.49986e-05
3.49977e-05
3.49964e-05
3.49947e-05
3.49926e-05
3.49906e-05
3.4989e-05
3.4988e-05
3.49881e-05
3.4989e-05
3.49906e-05
3.49926e-05
3.49947e-05
3.49965e-05
3.49978e-05
3.49986e-05
3.49989e-05
3.49989e-05
3.49986e-05
3.49981e-05
3.49976e-05
3.49972e-05
3.49934e-05
3.50043e-05
3.50082e-05
3.50089e-05
3.50098e-05
3.50107e-05
3.50117e-05
3.50124e-05
3.50128e-05
3.50129e-05
3.50124e-05
3.50115e-05
3.50102e-05
3.50088e-05
3.50076e-05
3.5007e-05
3.5007e-05
3.50077e-05
3.50088e-05
3.50102e-05
3.50115e-05
3.50124e-05
3.50129e-05
3.50128e-05
3.50124e-05
3.50116e-05
3.50107e-05
3.50097e-05
3.50089e-05
3.50082e-05
3.50042e-05
3.50151e-05
3.50191e-05
3.50201e-05
3.50214e-05
3.5023e-05
3.50247e-05
3.50263e-05
3.50277e-05
3.50288e-05
3.50295e-05
3.50296e-05
3.50294e-05
3.50288e-05
3.50283e-05
3.5028e-05
3.50281e-05
3.50284e-05
3.50288e-05
3.50293e-05
3.50296e-05
3.50294e-05
3.50288e-05
3.50277e-05
3.50263e-05
3.50247e-05
3.50229e-05
3.50215e-05
3.50201e-05
3.50191e-05
3.50151e-05
3.50255e-05
3.50296e-05
3.50309e-05
3.50328e-05
3.5035e-05
3.50375e-05
3.50401e-05
3.50427e-05
3.5045e-05
3.5047e-05
3.50485e-05
3.50495e-05
3.50501e-05
3.50504e-05
3.50506e-05
3.50505e-05
3.50504e-05
3.50501e-05
3.50495e-05
3.50485e-05
3.5047e-05
3.5045e-05
3.50427e-05
3.50401e-05
3.50375e-05
3.50349e-05
3.50328e-05
3.5031e-05
3.50297e-05
3.50255e-05
3.50351e-05
3.50393e-05
3.50409e-05
3.50432e-05
3.50462e-05
3.50496e-05
3.50533e-05
3.50571e-05
3.50609e-05
3.50643e-05
3.50673e-05
3.50698e-05
3.50716e-05
3.50728e-05
3.50734e-05
3.50734e-05
3.50728e-05
3.50716e-05
3.50698e-05
3.50673e-05
3.50643e-05
3.50608e-05
3.50571e-05
3.50533e-05
3.50496e-05
3.50462e-05
3.50433e-05
3.5041e-05
3.50394e-05
3.50351e-05
3.50434e-05
3.50477e-05
3.50497e-05
3.50524e-05
3.50561e-05
3.50603e-05
3.50651e-05
3.50701e-05
3.50753e-05
3.50802e-05
3.50848e-05
3.50887e-05
3.50918e-05
3.5094e-05
3.5095e-05
3.50951e-05
3.5094e-05
3.50918e-05
3.50887e-05
3.50848e-05
3.50803e-05
3.50752e-05
3.50701e-05
3.50651e-05
3.50603e-05
3.50561e-05
3.50525e-05
3.50497e-05
3.50478e-05
3.50435e-05
3.50501e-05
3.50543e-05
3.50565e-05
3.50595e-05
3.50638e-05
3.50687e-05
3.50744e-05
3.50806e-05
3.5087e-05
3.50933e-05
3.50993e-05
3.51046e-05
3.51088e-05
3.51118e-05
3.51133e-05
3.51134e-05
3.51118e-05
3.51088e-05
3.51045e-05
3.50993e-05
3.50933e-05
3.50869e-05
3.50805e-05
3.50744e-05
3.50688e-05
3.50638e-05
3.50597e-05
3.50565e-05
3.50544e-05
3.505e-05
3.50609e-05
3.50647e-05
3.50675e-05
3.50707e-05
3.50757e-05
3.50815e-05
3.5088e-05
3.50952e-05
3.51029e-05
3.51105e-05
3.51178e-05
3.51244e-05
3.51298e-05
3.51336e-05
3.51355e-05
3.51356e-05
3.51336e-05
3.51299e-05
3.51244e-05
3.51178e-05
3.51106e-05
3.51029e-05
3.50954e-05
3.50879e-05
3.50814e-05
3.50758e-05
3.50711e-05
3.50673e-05
3.5065e-05
3.50605e-05
3.49965e-05
3.49975e-05
3.50012e-05
3.50025e-05
3.50163e-05
3.50149e-05
3.50249e-05
3.50272e-05
3.50312e-05
3.50356e-05
3.50392e-05
3.50418e-05
3.50433e-05
3.50438e-05
3.5044e-05
3.50442e-05
3.50438e-05
3.50432e-05
3.50412e-05
3.50396e-05
3.50361e-05
3.50312e-05
3.50246e-05
3.50179e-05
3.5013e-05
3.50057e-05
3.49998e-05
3.49969e-05
3.49968e-05
3.49969e-05
3.56705e-05
3.54527e-05
3.55096e-05
3.58705e-05
3.63096e-05
3.66323e-05
3.6715e-05
3.68254e-05
3.68463e-05
3.67997e-05
3.67077e-05
3.65634e-05
3.63961e-05
3.61848e-05
3.60529e-05
3.60713e-05
3.61663e-05
3.63747e-05
3.65874e-05
3.67561e-05
3.68506e-05
3.68012e-05
3.67162e-05
3.65326e-05
3.62636e-05
3.59289e-05
3.56105e-05
3.53808e-05
3.53572e-05
3.53639e-05
3.90494e-05
4.07492e-05
4.12743e-05
4.28909e-05
4.40499e-05
4.48283e-05
4.61223e-05
4.71637e-05
4.78868e-05
4.84549e-05
4.88608e-05
4.94155e-05
5.14911e-05
5.75848e-05
7.46024e-05
7.4465e-05
5.76943e-05
5.13318e-05
4.91879e-05
4.87713e-05
4.84625e-05
4.80175e-05
4.70726e-05
4.61907e-05
4.51492e-05
4.37936e-05
4.24759e-05
4.11091e-05
3.95064e-05
3.87026e-05
4.19686e-05
4.27821e-05
4.36454e-05
4.49668e-05
4.61236e-05
4.73981e-05
4.8789e-05
5.00566e-05
5.11934e-05
5.21664e-05
5.29881e-05
5.37189e-05
5.45473e-05
5.59893e-05
5.92824e-05
5.92316e-05
5.60438e-05
5.44768e-05
5.3589e-05
5.29565e-05
5.21988e-05
5.12193e-05
5.00561e-05
4.88231e-05
4.7504e-05
4.61123e-05
4.48376e-05
4.36783e-05
4.2809e-05
4.20547e-05
4.50518e-05
4.56139e-05
4.64286e-05
4.75098e-05
4.87589e-05
5.01356e-05
5.15844e-05
5.30536e-05
5.44815e-05
5.58246e-05
5.70352e-05
5.80733e-05
5.89433e-05
5.97014e-05
6.04484e-05
6.04518e-05
5.9693e-05
5.88935e-05
5.80356e-05
5.70164e-05
5.58472e-05
5.45078e-05
5.30872e-05
5.1604e-05
5.01607e-05
4.8759e-05
4.74541e-05
4.62787e-05
4.55647e-05
4.51701e-05
4.79589e-05
4.8404e-05
4.9123e-05
5.01515e-05
5.14013e-05
5.28122e-05
5.43566e-05
5.6e-05
5.76685e-05
5.92823e-05
6.0799e-05
6.21453e-05
6.32541e-05
6.40843e-05
6.45663e-05
6.45703e-05
6.40704e-05
6.32248e-05
6.2135e-05
6.08174e-05
5.93164e-05
5.769e-05
5.60281e-05
5.43832e-05
5.28198e-05
5.13903e-05
5.01283e-05
4.90339e-05
4.82701e-05
4.80405e-05
5.05925e-05
5.08678e-05
5.15473e-05
5.25372e-05
5.37708e-05
5.52129e-05
5.68209e-05
5.85652e-05
6.03691e-05
6.21591e-05
6.38594e-05
6.5386e-05
6.66421e-05
6.75627e-05
6.80559e-05
6.80596e-05
6.75611e-05
6.66356e-05
6.53841e-05
6.38764e-05
6.21825e-05
6.03827e-05
5.85721e-05
5.68298e-05
5.52199e-05
5.37648e-05
5.25237e-05
5.1535e-05
5.07802e-05
5.05414e-05
5.2666e-05
5.29e-05
5.35674e-05
5.4518e-05
5.5723e-05
5.7158e-05
5.87852e-05
6.05578e-05
6.24124e-05
6.42744e-05
6.60502e-05
6.76495e-05
6.8973e-05
6.99283e-05
7.04387e-05
7.04456e-05
6.99493e-05
6.89881e-05
6.7659e-05
6.60717e-05
6.42913e-05
6.24171e-05
6.05529e-05
5.87858e-05
5.7156e-05
5.57184e-05
5.45049e-05
5.35671e-05
5.28798e-05
5.26114e-05
5.41882e-05
5.45066e-05
5.51272e-05
5.60273e-05
5.71835e-05
5.85677e-05
6.01513e-05
6.18822e-05
6.37095e-05
6.55529e-05
6.73191e-05
6.89142e-05
7.02315e-05
7.11754e-05
7.16748e-05
7.16839e-05
7.11939e-05
7.02424e-05
6.89243e-05
6.73384e-05
6.55671e-05
6.3716e-05
6.18881e-05
6.01465e-05
5.85576e-05
5.71713e-05
5.60076e-05
5.51204e-05
5.44984e-05
5.41987e-05
5.52728e-05
5.5618e-05
5.61847e-05
5.70119e-05
5.809e-05
5.93863e-05
6.08703e-05
6.25014e-05
6.42254e-05
6.59646e-05
6.76301e-05
6.91395e-05
7.03823e-05
7.12764e-05
7.17414e-05
7.17463e-05
7.12842e-05
7.03898e-05
6.91472e-05
6.76448e-05
6.59752e-05
6.42431e-05
6.25176e-05
6.08775e-05
5.9382e-05
5.80748e-05
5.69923e-05
5.61629e-05
5.55957e-05
5.52632e-05
5.5817e-05
5.61673e-05
5.66713e-05
5.7414e-05
5.83752e-05
5.95523e-05
6.08928e-05
6.23655e-05
6.39254e-05
6.54937e-05
6.69892e-05
6.83412e-05
6.94475e-05
7.02392e-05
7.06441e-05
7.06463e-05
7.02359e-05
6.94419e-05
6.8338e-05
6.69904e-05
6.55022e-05
6.39388e-05
6.23868e-05
6.09096e-05
5.95538e-05
5.83743e-05
5.73991e-05
5.66495e-05
5.61405e-05
5.57916e-05
5.58269e-05
5.61864e-05
5.66161e-05
5.72609e-05
5.81093e-05
5.91356e-05
6.03013e-05
6.15823e-05
6.29196e-05
6.42513e-05
6.55265e-05
6.6653e-05
6.75767e-05
6.82315e-05
6.8578e-05
6.85803e-05
6.82307e-05
6.75784e-05
6.66535e-05
6.55188e-05
6.42517e-05
6.29168e-05
6.15857e-05
6.03091e-05
5.91363e-05
5.81115e-05
5.72617e-05
5.66013e-05
5.61611e-05
5.58149e-05
5.53963e-05
5.57368e-05
5.60911e-05
5.66355e-05
5.7365e-05
5.82214e-05
5.91958e-05
6.02545e-05
6.1346e-05
6.24164e-05
6.34176e-05
6.42986e-05
6.50155e-05
6.55137e-05
6.57785e-05
6.57738e-05
6.55147e-05
6.50184e-05
6.43026e-05
6.34213e-05
6.2416e-05
6.13455e-05
6.02625e-05
5.92098e-05
5.82322e-05
5.73726e-05
5.66511e-05
5.60901e-05
5.57275e-05
5.53879e-05
5.45889e-05
5.48985e-05
5.51848e-05
5.56494e-05
5.62334e-05
5.69303e-05
5.77069e-05
5.85242e-05
5.93476e-05
6.01462e-05
6.08701e-05
6.1494e-05
6.19808e-05
6.23229e-05
6.24975e-05
6.24968e-05
6.23302e-05
6.19945e-05
6.15058e-05
6.08826e-05
6.01567e-05
5.93619e-05
5.85334e-05
5.77099e-05
5.69373e-05
5.62445e-05
5.56578e-05
5.5203e-05
5.49128e-05
5.45885e-05
5.34751e-05
5.37702e-05
5.39929e-05
5.43567e-05
5.48097e-05
5.53424e-05
5.59202e-05
5.65153e-05
5.70981e-05
5.76286e-05
5.80834e-05
5.84584e-05
5.87328e-05
5.89156e-05
5.90061e-05
5.90073e-05
5.89211e-05
5.87438e-05
5.84693e-05
5.80983e-05
5.76379e-05
5.71061e-05
5.65285e-05
5.59366e-05
5.536e-05
5.48327e-05
5.43792e-05
5.40205e-05
5.38043e-05
5.35e-05
5.21702e-05
5.24545e-05
5.26129e-05
5.28709e-05
5.32176e-05
5.3593e-05
5.3987e-05
5.43779e-05
5.47301e-05
5.50195e-05
5.5245e-05
5.53913e-05
5.54776e-05
5.55225e-05
5.55347e-05
5.55357e-05
5.55239e-05
5.54856e-05
5.54001e-05
5.52523e-05
5.50314e-05
5.47408e-05
5.43907e-05
5.40025e-05
5.36092e-05
5.32327e-05
5.28973e-05
5.26307e-05
5.24808e-05
5.21975e-05
5.07364e-05
5.09993e-05
5.10877e-05
5.12765e-05
5.14981e-05
5.1745e-05
5.19857e-05
5.21981e-05
5.23602e-05
5.24481e-05
5.24691e-05
5.24355e-05
5.23678e-05
5.22918e-05
5.22402e-05
5.22423e-05
5.22968e-05
5.2376e-05
5.24479e-05
5.24827e-05
5.24607e-05
5.23693e-05
5.22128e-05
5.20065e-05
5.17671e-05
5.15209e-05
5.1295e-05
5.11097e-05
5.10127e-05
5.07575e-05
4.92462e-05
4.94619e-05
4.95079e-05
4.9631e-05
4.97656e-05
4.99028e-05
5.00138e-05
5.00774e-05
5.00772e-05
5.00064e-05
4.98799e-05
4.97022e-05
4.95093e-05
4.93423e-05
4.9248e-05
4.92545e-05
4.93536e-05
4.95167e-05
4.97093e-05
4.98888e-05
5.00208e-05
5.00898e-05
5.00874e-05
5.00217e-05
4.99125e-05
4.97809e-05
4.96459e-05
4.95273e-05
4.94749e-05
4.92542e-05
4.77453e-05
4.79249e-05
4.79469e-05
4.79973e-05
4.80698e-05
4.81106e-05
4.81155e-05
4.80737e-05
4.7959e-05
4.77767e-05
4.75337e-05
4.72516e-05
4.6974e-05
4.67462e-05
4.66186e-05
4.66199e-05
4.67484e-05
4.69764e-05
4.72561e-05
4.7538e-05
4.77823e-05
4.79643e-05
4.80766e-05
4.81245e-05
4.81195e-05
4.80754e-05
4.80113e-05
4.79495e-05
4.79344e-05
4.77485e-05
4.62706e-05
4.64288e-05
4.64173e-05
4.6437e-05
4.64429e-05
4.6417e-05
4.63555e-05
4.62314e-05
4.60303e-05
4.57698e-05
4.54528e-05
4.51079e-05
4.47752e-05
4.45082e-05
4.43592e-05
4.43593e-05
4.45101e-05
4.47795e-05
4.51142e-05
4.54603e-05
4.57774e-05
4.60388e-05
4.62337e-05
4.63612e-05
4.64284e-05
4.645e-05
4.64439e-05
4.64285e-05
4.64401e-05
4.62854e-05
4.48977e-05
4.50255e-05
4.49897e-05
4.49806e-05
4.49373e-05
4.48729e-05
4.47526e-05
4.45652e-05
4.43212e-05
4.40158e-05
4.36586e-05
4.32781e-05
4.29175e-05
4.26307e-05
4.24685e-05
4.2468e-05
4.26311e-05
4.29198e-05
4.32811e-05
4.36622e-05
4.40205e-05
4.43285e-05
4.45729e-05
4.47516e-05
4.48704e-05
4.49416e-05
4.49789e-05
4.49959e-05
4.50238e-05
4.4898e-05
4.36062e-05
4.37082e-05
4.36666e-05
4.36262e-05
4.35637e-05
4.34638e-05
4.33049e-05
4.30958e-05
4.2829e-05
4.24998e-05
4.21242e-05
4.17306e-05
4.13628e-05
4.10703e-05
4.09054e-05
4.09061e-05
4.1072e-05
4.13659e-05
4.17349e-05
4.21271e-05
4.25011e-05
4.2831e-05
4.31028e-05
4.33125e-05
4.34641e-05
4.3567e-05
4.3632e-05
4.36702e-05
4.37091e-05
4.36104e-05
4.24367e-05
4.25069e-05
4.24656e-05
4.24061e-05
4.23321e-05
4.22062e-05
4.20355e-05
4.18186e-05
4.15393e-05
4.12052e-05
4.08312e-05
4.04465e-05
4.00871e-05
3.97992e-05
3.96366e-05
3.96366e-05
3.97987e-05
4.00869e-05
4.04489e-05
4.08348e-05
4.12072e-05
4.15407e-05
4.18205e-05
4.20425e-05
4.22102e-05
4.23312e-05
4.24135e-05
4.24666e-05
4.25127e-05
4.24368e-05
4.13797e-05
4.14387e-05
4.13875e-05
4.13279e-05
4.12358e-05
4.11022e-05
4.09339e-05
4.07119e-05
4.04356e-05
4.01128e-05
3.97582e-05
3.93935e-05
3.90488e-05
3.87721e-05
3.86153e-05
3.86148e-05
3.87708e-05
3.90465e-05
3.93917e-05
3.97601e-05
4.01169e-05
4.04382e-05
4.07114e-05
4.09334e-05
4.11071e-05
4.12371e-05
4.1329e-05
4.13905e-05
4.14394e-05
4.13811e-05
4.04389e-05
4.04866e-05
4.04301e-05
4.03681e-05
4.02729e-05
4.01456e-05
3.99773e-05
3.97596e-05
3.94985e-05
3.91989e-05
3.88709e-05
3.85299e-05
3.82076e-05
3.79492e-05
3.78021e-05
3.78023e-05
3.79503e-05
3.82091e-05
3.85304e-05
3.88724e-05
3.92035e-05
3.95033e-05
3.97622e-05
3.99771e-05
4.01486e-05
4.02792e-05
4.03734e-05
4.04378e-05
4.04865e-05
4.04421e-05
3.96143e-05
3.96424e-05
3.95993e-05
3.95368e-05
3.94437e-05
3.93208e-05
3.91559e-05
3.89543e-05
3.87163e-05
3.84441e-05
3.81437e-05
3.78317e-05
3.75374e-05
3.72993e-05
3.71623e-05
3.71624e-05
3.72991e-05
3.75364e-05
3.78299e-05
3.81412e-05
3.84427e-05
3.87178e-05
3.89579e-05
3.91593e-05
3.93213e-05
3.9446e-05
3.95378e-05
3.96019e-05
3.96488e-05
3.96158e-05
3.88936e-05
3.89144e-05
3.88785e-05
3.88135e-05
3.87253e-05
3.8607e-05
3.84572e-05
3.8276e-05
3.80612e-05
3.78142e-05
3.75435e-05
3.72645e-05
3.69997e-05
3.67828e-05
3.66568e-05
3.66562e-05
3.67811e-05
3.69974e-05
3.7263e-05
3.75431e-05
3.78141e-05
3.8062e-05
3.82794e-05
3.84625e-05
3.8611e-05
3.87272e-05
3.88142e-05
3.88759e-05
3.89201e-05
3.88961e-05
3.82656e-05
3.82934e-05
3.82492e-05
3.81878e-05
3.81086e-05
3.80011e-05
3.78683e-05
3.77053e-05
3.75115e-05
3.72913e-05
3.7053e-05
3.68069e-05
3.65714e-05
3.6377e-05
3.62628e-05
3.62626e-05
3.63769e-05
3.65721e-05
3.68087e-05
3.7056e-05
3.72949e-05
3.75142e-05
3.77072e-05
3.78711e-05
3.80055e-05
3.8112e-05
3.81929e-05
3.82508e-05
3.82918e-05
3.82741e-05
3.77365e-05
3.77519e-05
3.7709e-05
3.76595e-05
3.7587e-05
3.74925e-05
3.73728e-05
3.72265e-05
3.70556e-05
3.68644e-05
3.66572e-05
3.64418e-05
3.62349e-05
3.60621e-05
3.5959e-05
3.59589e-05
3.60618e-05
3.62346e-05
3.64409e-05
3.66559e-05
3.68641e-05
3.70562e-05
3.72264e-05
3.73721e-05
3.74927e-05
3.7589e-05
3.76627e-05
3.77158e-05
3.77527e-05
3.77388e-05
3.72803e-05
3.72845e-05
3.72551e-05
3.72116e-05
3.71452e-05
3.70589e-05
3.69509e-05
3.68234e-05
3.66772e-05
3.65131e-05
3.63336e-05
3.61464e-05
3.59653e-05
3.58122e-05
3.57202e-05
3.57205e-05
3.58123e-05
3.59634e-05
3.61423e-05
3.63287e-05
3.65099e-05
3.66774e-05
3.68264e-05
3.69545e-05
3.70611e-05
3.71465e-05
3.7212e-05
3.72593e-05
3.72915e-05
3.72803e-05
3.68863e-05
3.68977e-05
3.6874e-05
3.68289e-05
3.67691e-05
3.66911e-05
3.6599e-05
3.64911e-05
3.63659e-05
3.6224e-05
3.60685e-05
3.59063e-05
3.57492e-05
3.56165e-05
3.55361e-05
3.55368e-05
3.5618e-05
3.575e-05
3.59053e-05
3.60666e-05
3.62226e-05
3.63666e-05
3.6495e-05
3.66057e-05
3.66981e-05
3.67723e-05
3.68295e-05
3.68711e-05
3.68995e-05
3.6891e-05
3.65598e-05
3.65735e-05
3.6545e-05
3.65053e-05
3.64527e-05
3.63888e-05
3.63119e-05
3.62186e-05
3.61099e-05
3.59876e-05
3.58542e-05
3.57156e-05
3.55824e-05
3.5469e-05
3.53978e-05
3.53974e-05
3.54689e-05
3.55839e-05
3.57177e-05
3.58549e-05
3.5987e-05
3.6109e-05
3.62182e-05
3.63129e-05
3.63921e-05
3.64564e-05
3.65066e-05
3.65439e-05
3.65694e-05
3.65626e-05
3.62859e-05
3.62898e-05
3.62646e-05
3.62339e-05
3.61911e-05
3.6139e-05
3.60712e-05
3.59897e-05
3.58967e-05
3.57927e-05
3.56797e-05
3.55639e-05
3.54525e-05
3.53545e-05
3.52899e-05
3.52884e-05
3.53518e-05