/*--------------------------------*- C++ -*----------------------------------*\
| =========                 |                                                 |
| \\      /  F ield         | OpenFOAM: The Open Source CFD Toolbox           |
|  \\    /   O peration     | Version:  2312                                  |
|   \\  /    A nd           | Website:  www.openfoam.com                      |
|    \\/     M anipulation  |                                                 |
\*---------------------------------------------------------------------------*/
FoamFile
{
    version     2.0;
    format      ascii;
    arch        "LSB;label=32;scalar=64";
    class       volScalarField;
    location    "0.14934";
    object      nut;
}
// * * * * * * * * * * * * * * * * * * * * * * * * * * * * * * * * * * * * * //

dimensions      [0 2 -1 0 0 0 0];

internalField   nonuniform List<scalar> 
90000
(
6.60056e-06
6.60059e-06
6.60059e-06
6.60059e-06
6.60059e-06
6.60059e-06
6.60059e-06
6.60059e-06
6.60059e-06
6.60059e-06
6.60059e-06
6.60058e-06
6.60058e-06
6.60058e-06
6.60058e-06
6.60058e-06
6.60058e-06
6.60058e-06
6.60058e-06
6.60058e-06
6.60058e-06
6.60059e-06
6.60059e-06
6.60058e-06
6.60058e-06
6.60058e-06
6.60058e-06
6.60058e-06
6.60058e-06
6.60058e-06
6.60059e-06
6.60097e-06
6.60097e-06
6.60097e-06
6.60097e-06
6.60097e-06
6.60097e-06
6.60097e-06
6.60097e-06
6.60097e-06
6.60097e-06
6.60097e-06
6.60097e-06
6.60096e-06
6.60096e-06
6.60096e-06
6.60096e-06
6.60096e-06
6.60096e-06
6.60097e-06
6.60097e-06
6.60097e-06
6.60097e-06
6.60097e-06
6.60097e-06
6.60097e-06
6.60097e-06
6.60097e-06
6.60096e-06
6.60058e-06
6.60059e-06
6.60098e-06
6.60098e-06
6.60098e-06
6.60098e-06
6.60098e-06
6.60098e-06
6.60098e-06
6.60097e-06
6.60097e-06
6.60097e-06
6.60097e-06
6.60097e-06
6.60096e-06
6.60096e-06
6.60096e-06
6.60096e-06
6.60096e-06
6.60096e-06
6.60097e-06
6.60097e-06
6.60097e-06
6.60097e-06
6.60097e-06
6.60097e-06
6.60097e-06
6.60097e-06
6.60097e-06
6.60097e-06
6.60058e-06
6.60059e-06
6.60098e-06
6.60098e-06
6.60098e-06
6.60098e-06
6.60098e-06
6.60098e-06
6.60098e-06
6.60097e-06
6.60097e-06
6.60097e-06
6.60097e-06
6.60096e-06
6.60096e-06
6.60096e-06
6.60096e-06
6.60096e-06
6.60096e-06
6.60096e-06
6.60096e-06
6.60097e-06
6.60097e-06
6.60097e-06
6.60097e-06
6.60097e-06
6.60097e-06
6.60097e-06
6.60097e-06
6.60096e-06
6.60058e-06
6.6006e-06
6.60098e-06
6.60098e-06
6.60098e-06
6.60098e-06
6.60098e-06
6.60098e-06
6.60097e-06
6.60097e-06
6.60097e-06
6.60097e-06
6.60096e-06
6.60096e-06
6.60096e-06
6.60096e-06
6.60096e-06
6.60096e-06
6.60096e-06
6.60096e-06
6.60096e-06
6.60097e-06
6.60097e-06
6.60097e-06
6.60097e-06
6.60097e-06
6.60097e-06
6.60097e-06
6.60097e-06
6.60096e-06
6.60059e-06
6.6006e-06
6.60097e-06
6.60098e-06
6.60098e-06
6.60098e-06
6.60098e-06
6.60098e-06
6.60097e-06
6.60097e-06
6.60097e-06
6.60097e-06
6.60096e-06
6.60096e-06
6.60096e-06
6.60096e-06
6.60095e-06
6.60096e-06
6.60096e-06
6.60096e-06
6.60097e-06
6.60097e-06
6.60097e-06
6.60097e-06
6.60097e-06
6.60097e-06
6.60097e-06
6.60097e-06
6.60097e-06
6.60097e-06
6.60059e-06
6.6006e-06
6.60097e-06
6.60098e-06
6.60098e-06
6.60098e-06
6.60098e-06
6.60098e-06
6.60097e-06
6.60097e-06
6.60097e-06
6.60097e-06
6.60096e-06
6.60096e-06
6.60096e-06
6.60096e-06
6.60096e-06
6.60096e-06
6.60096e-06
6.60097e-06
6.60097e-06
6.60097e-06
6.60097e-06
6.60098e-06
6.60098e-06
6.60098e-06
6.60098e-06
6.60098e-06
6.60098e-06
6.60097e-06
6.6006e-06
6.6006e-06
6.60097e-06
6.60098e-06
6.60098e-06
6.60098e-06
6.60098e-06
6.60098e-06
6.60098e-06
6.60097e-06
6.60097e-06
6.60097e-06
6.60096e-06
6.60096e-06
6.60096e-06
6.60096e-06
6.60096e-06
6.60096e-06
6.60096e-06
6.60097e-06
6.60097e-06
6.60098e-06
6.60098e-06
6.60098e-06
6.60098e-06
6.60099e-06
6.60099e-06
6.60099e-06
6.60099e-06
6.60098e-06
6.60061e-06
6.60061e-06
6.60098e-06
6.60099e-06
6.60099e-06
6.60099e-06
6.60099e-06
6.60098e-06
6.60098e-06
6.60098e-06
6.60098e-06
6.60097e-06
6.60097e-06
6.60096e-06
6.60096e-06
6.60096e-06
6.60096e-06
6.60096e-06
6.60097e-06
6.60097e-06
6.60097e-06
6.60098e-06
6.60098e-06
6.60099e-06
6.60099e-06
6.60099e-06
6.601e-06
6.601e-06
6.601e-06
6.60099e-06
6.60062e-06
6.60062e-06
6.60099e-06
6.601e-06
6.601e-06
6.601e-06
6.60099e-06
6.60099e-06
6.60099e-06
6.60099e-06
6.60098e-06
6.60098e-06
6.60097e-06
6.60097e-06
6.60096e-06
6.60096e-06
6.60096e-06
6.60096e-06
6.60096e-06
6.60097e-06
6.60098e-06
6.60098e-06
6.60099e-06
6.60099e-06
6.601e-06
6.601e-06
6.60101e-06
6.60101e-06
6.60101e-06
6.601e-06
6.60062e-06
6.60063e-06
6.60101e-06
6.60101e-06
6.60101e-06
6.60101e-06
6.60101e-06
6.601e-06
6.601e-06
6.601e-06
6.60099e-06
6.60098e-06
6.60098e-06
6.60097e-06
6.60096e-06
6.60095e-06
6.60095e-06
6.60096e-06
6.60096e-06
6.60097e-06
6.60098e-06
6.60099e-06
6.60099e-06
6.601e-06
6.60101e-06
6.60101e-06
6.60102e-06
6.60102e-06
6.60102e-06
6.60101e-06
6.60064e-06
6.60065e-06
6.60102e-06
6.60103e-06
6.60102e-06
6.60102e-06
6.60102e-06
6.60102e-06
6.60101e-06
6.60101e-06
6.601e-06
6.60099e-06
6.60098e-06
6.60097e-06
6.60096e-06
6.60095e-06
6.60095e-06
6.60096e-06
6.60097e-06
6.60098e-06
6.60099e-06
6.60099e-06
6.601e-06
6.60101e-06
6.60102e-06
6.60102e-06
6.60103e-06
6.60103e-06
6.60103e-06
6.60103e-06
6.60065e-06
6.60067e-06
6.60104e-06
6.60105e-06
6.60104e-06
6.60104e-06
6.60104e-06
6.60103e-06
6.60103e-06
6.60102e-06
6.60101e-06
6.601e-06
6.60099e-06
6.60098e-06
6.60097e-06
6.60096e-06
6.60095e-06
6.60096e-06
6.60097e-06
6.60099e-06
6.601e-06
6.60101e-06
6.60102e-06
6.60102e-06
6.60103e-06
6.60104e-06
6.60104e-06
6.60105e-06
6.60105e-06
6.60105e-06
6.60068e-06
6.60069e-06
6.60107e-06
6.60107e-06
6.60107e-06
6.60106e-06
6.60106e-06
6.60105e-06
6.60104e-06
6.60103e-06
6.60102e-06
6.60101e-06
6.601e-06
6.60099e-06
6.60097e-06
6.60096e-06
6.60096e-06
6.60097e-06
6.60098e-06
6.601e-06
6.60101e-06
6.60102e-06
6.60103e-06
6.60104e-06
6.60105e-06
6.60106e-06
6.60107e-06
6.60107e-06
6.60108e-06
6.60108e-06
6.60071e-06
6.60072e-06
6.6011e-06
6.60111e-06
6.6011e-06
6.60109e-06
6.60109e-06
6.60108e-06
6.60106e-06
6.60105e-06
6.60104e-06
6.60103e-06
6.60101e-06
6.601e-06
6.60098e-06
6.60097e-06
6.60097e-06
6.60098e-06
6.60099e-06
6.60101e-06
6.60102e-06
6.60104e-06
6.60105e-06
6.60106e-06
6.60107e-06
6.60108e-06
6.60109e-06
6.6011e-06
6.60111e-06
6.60111e-06
6.60073e-06
6.60076e-06
6.60114e-06
6.60115e-06
6.60114e-06
6.60113e-06
6.60112e-06
6.60111e-06
6.60109e-06
6.60108e-06
6.60106e-06
6.60104e-06
6.60102e-06
6.60101e-06
6.60099e-06
6.60097e-06
6.60097e-06
6.60099e-06
6.601e-06
6.60102e-06
6.60104e-06
6.60105e-06
6.60107e-06
6.60109e-06
6.6011e-06
6.60111e-06
6.60113e-06
6.60114e-06
6.60114e-06
6.60114e-06
6.60077e-06
6.60081e-06
6.60119e-06
6.60119e-06
6.60118e-06
6.60117e-06
6.60116e-06
6.60114e-06
6.60112e-06
6.60111e-06
6.60108e-06
6.60106e-06
6.60104e-06
6.60102e-06
6.60099e-06
6.60098e-06
6.60098e-06
6.60099e-06
6.60102e-06
6.60104e-06
6.60106e-06
6.60108e-06
6.6011e-06
6.60112e-06
6.60114e-06
6.60115e-06
6.60117e-06
6.60118e-06
6.60118e-06
6.60118e-06
6.60081e-06
6.60086e-06
6.60125e-06
6.60125e-06
6.60124e-06
6.60122e-06
6.6012e-06
6.60119e-06
6.60116e-06
6.60114e-06
6.60111e-06
6.60109e-06
6.60106e-06
6.60103e-06
6.601e-06
6.60098e-06
6.60098e-06
6.60101e-06
6.60103e-06
6.60106e-06
6.60109e-06
6.60112e-06
6.60114e-06
6.60116e-06
6.60118e-06
6.6012e-06
6.60122e-06
6.60123e-06
6.60124e-06
6.60124e-06
6.60087e-06
6.60093e-06
6.60131e-06
6.60131e-06
6.60129e-06
6.60128e-06
6.60126e-06
6.60124e-06
6.60121e-06
6.60118e-06
6.60115e-06
6.60112e-06
6.60109e-06
6.60105e-06
6.60102e-06
6.601e-06
6.601e-06
6.60102e-06
6.60106e-06
6.60109e-06
6.60113e-06
6.60116e-06
6.60119e-06
6.60122e-06
6.60124e-06
6.60126e-06
6.60128e-06
6.60129e-06
6.60131e-06
6.60131e-06
6.60094e-06
6.60101e-06
6.60139e-06
6.60138e-06
6.60136e-06
6.60135e-06
6.60132e-06
6.6013e-06
6.60127e-06
6.60123e-06
6.6012e-06
6.60116e-06
6.60112e-06
6.60108e-06
6.60104e-06
6.60101e-06
6.60101e-06
6.60104e-06
6.60108e-06
6.60113e-06
6.60117e-06
6.60121e-06
6.60124e-06
6.60128e-06
6.6013e-06
6.60133e-06
6.60135e-06
6.60137e-06
6.60139e-06
6.60139e-06
6.60101e-06
6.6011e-06
6.60148e-06
6.60147e-06
6.60145e-06
6.60143e-06
6.6014e-06
6.60137e-06
6.60134e-06
6.6013e-06
6.60126e-06
6.60121e-06
6.60116e-06
6.60111e-06
6.60107e-06
6.60103e-06
6.60103e-06
6.60107e-06
6.60112e-06
6.60117e-06
6.60121e-06
6.60126e-06
6.6013e-06
6.60134e-06
6.60138e-06
6.60141e-06
6.60143e-06
6.60146e-06
6.60147e-06
6.60147e-06
6.60109e-06
6.60121e-06
6.60158e-06
6.60158e-06
6.60155e-06
6.60153e-06
6.6015e-06
6.60146e-06
6.60142e-06
6.60138e-06
6.60133e-06
6.60127e-06
6.60121e-06
6.60115e-06
6.60109e-06
6.60105e-06
6.60105e-06
6.60109e-06
6.60115e-06
6.60121e-06
6.60127e-06
6.60132e-06
6.60137e-06
6.60142e-06
6.60146e-06
6.6015e-06
6.60153e-06
6.60156e-06
6.60157e-06
6.60157e-06
6.6012e-06
6.60134e-06
6.60172e-06
6.60171e-06
6.60169e-06
6.60166e-06
6.60162e-06
6.60158e-06
6.60153e-06
6.60147e-06
6.60141e-06
6.60134e-06
6.60127e-06
6.60119e-06
6.60113e-06
6.60108e-06
6.60108e-06
6.60113e-06
6.6012e-06
6.60127e-06
6.60134e-06
6.6014e-06
6.60147e-06
6.60152e-06
6.60158e-06
6.60162e-06
6.60166e-06
6.60168e-06
6.6017e-06
6.60171e-06
6.60134e-06
6.60151e-06
6.60188e-06
6.60187e-06
6.60185e-06
6.60181e-06
6.60177e-06
6.60171e-06
6.60165e-06
6.60158e-06
6.60151e-06
6.60142e-06
6.60134e-06
6.60125e-06
6.60118e-06
6.60112e-06
6.60112e-06
6.60118e-06
6.60126e-06
6.60135e-06
6.60143e-06
6.60151e-06
6.60159e-06
6.60166e-06
6.60172e-06
6.60177e-06
6.60181e-06
6.60184e-06
6.60187e-06
6.60188e-06
6.60151e-06
6.60171e-06
6.60208e-06
6.60207e-06
6.60204e-06
6.602e-06
6.60194e-06
6.60188e-06
6.60181e-06
6.60172e-06
6.60163e-06
6.60154e-06
6.60143e-06
6.60133e-06
6.60124e-06
6.60118e-06
6.60118e-06
6.60125e-06
6.60134e-06
6.60145e-06
6.60155e-06
6.60165e-06
6.60174e-06
6.60182e-06
6.60189e-06
6.60195e-06
6.602e-06
6.60204e-06
6.60207e-06
6.60208e-06
6.60171e-06
6.60195e-06
6.60232e-06
6.6023e-06
6.60227e-06
6.60222e-06
6.60216e-06
6.60209e-06
6.602e-06
6.6019e-06
6.60179e-06
6.60168e-06
6.60156e-06
6.60144e-06
6.60133e-06
6.60125e-06
6.60125e-06
6.60133e-06
6.60144e-06
6.60157e-06
6.60169e-06
6.60181e-06
6.60192e-06
6.60201e-06
6.60209e-06
6.60216e-06
6.60222e-06
6.60227e-06
6.6023e-06
6.60232e-06
6.60194e-06
6.60223e-06
6.6026e-06
6.60258e-06
6.60254e-06
6.60249e-06
6.60242e-06
6.60234e-06
6.60224e-06
6.60212e-06
6.60199e-06
6.60185e-06
6.60171e-06
6.60156e-06
6.60143e-06
6.60134e-06
6.60134e-06
6.60143e-06
6.60157e-06
6.60171e-06
6.60186e-06
6.602e-06
6.60213e-06
6.60224e-06
6.60233e-06
6.60242e-06
6.60249e-06
6.60255e-06
6.60258e-06
6.6026e-06
6.60223e-06
6.60257e-06
6.60294e-06
6.60292e-06
6.60287e-06
6.60282e-06
6.60274e-06
6.60264e-06
6.60252e-06
6.60238e-06
6.60223e-06
6.60206e-06
6.60189e-06
6.60172e-06
6.60156e-06
6.60146e-06
6.60146e-06
6.60156e-06
6.60172e-06
6.60189e-06
6.60207e-06
6.60223e-06
6.60238e-06
6.60252e-06
6.60263e-06
6.60274e-06
6.60282e-06
6.60288e-06
6.60292e-06
6.60295e-06
6.60257e-06
6.60298e-06
6.60335e-06
6.60333e-06
6.60328e-06
6.60321e-06
6.60312e-06
6.603e-06
6.60286e-06
6.6027e-06
6.60252e-06
6.60232e-06
6.60211e-06
6.60191e-06
6.60173e-06
6.60162e-06
6.60162e-06
6.60173e-06
6.60191e-06
6.60212e-06
6.60233e-06
6.60252e-06
6.6027e-06
6.60286e-06
6.603e-06
6.60312e-06
6.60321e-06
6.60328e-06
6.60333e-06
6.60337e-06
6.60299e-06
6.60347e-06
6.60385e-06
6.60382e-06
6.60376e-06
6.60368e-06
6.60357e-06
6.60343e-06
6.60327e-06
6.60308e-06
6.60286e-06
6.60264e-06
6.60239e-06
6.60216e-06
6.60195e-06
6.60182e-06
6.60183e-06
6.60196e-06
6.60216e-06
6.6024e-06
6.60264e-06
6.60287e-06
6.60309e-06
6.60328e-06
6.60344e-06
6.60357e-06
6.60368e-06
6.60376e-06
6.60383e-06
6.60386e-06
6.60348e-06
6.60406e-06
6.60444e-06
6.60441e-06
6.60434e-06
6.60424e-06
6.60411e-06
6.60395e-06
6.60376e-06
6.60354e-06
6.6033e-06
6.60303e-06
6.60275e-06
6.60247e-06
6.60224e-06
6.6021e-06
6.6021e-06
6.60224e-06
6.60247e-06
6.60275e-06
6.60303e-06
6.6033e-06
6.60355e-06
6.60378e-06
6.60396e-06
6.60411e-06
6.60423e-06
6.60433e-06
6.60441e-06
6.60444e-06
6.60406e-06
6.60475e-06
6.60514e-06
6.60509e-06
6.60501e-06
6.60489e-06
6.60475e-06
6.60457e-06
6.60435e-06
6.60411e-06
6.60382e-06
6.60351e-06
6.60319e-06
6.60287e-06
6.6026e-06
6.60244e-06
6.60244e-06
6.6026e-06
6.60287e-06
6.60318e-06
6.60351e-06
6.60382e-06
6.60412e-06
6.60437e-06
6.60458e-06
6.60475e-06
6.6049e-06
6.60501e-06
6.60508e-06
6.60513e-06
6.60474e-06
6.60555e-06
6.60594e-06
6.60588e-06
6.60579e-06
6.60567e-06
6.60551e-06
6.60531e-06
6.60507e-06
6.60479e-06
6.60446e-06
6.6041e-06
6.60372e-06
6.60336e-06
6.60306e-06
6.60289e-06
6.60289e-06
6.60307e-06
6.60336e-06
6.60372e-06
6.6041e-06
6.60446e-06
6.60479e-06
6.60507e-06
6.60531e-06
6.60552e-06
6.60568e-06
6.6058e-06
6.60588e-06
6.60593e-06
6.60554e-06
6.60647e-06
6.60686e-06
6.6068e-06
6.60671e-06
6.60658e-06
6.60641e-06
6.60619e-06
6.60593e-06
6.60561e-06
6.60523e-06
6.60482e-06
6.60439e-06
6.60399e-06
6.60365e-06
6.60346e-06
6.60347e-06
6.60366e-06
6.60399e-06
6.60439e-06
6.60482e-06
6.60523e-06
6.6056e-06
6.60592e-06
6.60619e-06
6.60642e-06
6.60659e-06
6.60671e-06
6.6068e-06
6.60686e-06
6.60646e-06
6.60753e-06
6.60792e-06
6.60787e-06
6.60778e-06
6.60765e-06
6.60747e-06
6.60723e-06
6.60693e-06
6.60657e-06
6.60615e-06
6.6057e-06
6.60522e-06
6.60478e-06
6.60441e-06
6.60421e-06
6.60421e-06
6.60441e-06
6.60478e-06
6.60523e-06
6.6057e-06
6.60616e-06
6.60656e-06
6.60692e-06
6.60723e-06
6.60747e-06
6.60765e-06
6.60778e-06
6.60788e-06
6.60793e-06
6.60752e-06
6.60875e-06
6.60915e-06
6.6091e-06
6.60901e-06
6.60887e-06
6.60869e-06
6.60843e-06
6.60811e-06
6.60772e-06
6.60727e-06
6.60677e-06
6.60626e-06
6.60577e-06
6.60538e-06
6.60515e-06
6.60515e-06
6.60537e-06
6.60576e-06
6.60626e-06
6.60677e-06
6.60727e-06
6.60772e-06
6.60811e-06
6.60843e-06
6.60868e-06
6.60887e-06
6.60901e-06
6.60911e-06
6.60915e-06
6.60875e-06
6.61013e-06
6.61054e-06
6.6105e-06
6.61041e-06
6.61028e-06
6.61009e-06
6.60983e-06
6.6095e-06
6.60909e-06
6.60861e-06
6.60808e-06
6.60753e-06
6.607e-06
6.60658e-06
6.60634e-06
6.60633e-06
6.60657e-06
6.60699e-06
6.60752e-06
6.60807e-06
6.6086e-06
6.60909e-06
6.6095e-06
6.60984e-06
6.61009e-06
6.61028e-06
6.61042e-06
6.6105e-06
6.61055e-06
6.61013e-06
6.61168e-06
6.61211e-06
6.61207e-06
6.61199e-06
6.61187e-06
6.61169e-06
6.61144e-06
6.61111e-06
6.6107e-06
6.6102e-06
6.60965e-06
6.60907e-06
6.60852e-06
6.60808e-06
6.60783e-06
6.60783e-06
6.60807e-06
6.60851e-06
6.60906e-06
6.60963e-06
6.61019e-06
6.6107e-06
6.61112e-06
6.61145e-06
6.61169e-06
6.61188e-06
6.612e-06
6.61207e-06
6.6121e-06
6.61168e-06
6.61339e-06
6.61384e-06
6.61381e-06
6.61375e-06
6.61365e-06
6.6135e-06
6.61328e-06
6.61297e-06
6.61257e-06
6.61208e-06
6.61152e-06
6.61093e-06
6.61037e-06
6.60993e-06
6.60968e-06
6.60969e-06
6.60994e-06
6.61038e-06
6.61092e-06
6.61151e-06
6.61207e-06
6.61257e-06
6.61297e-06
6.61328e-06
6.6135e-06
6.61366e-06
6.61375e-06
6.6138e-06
6.61382e-06
6.61338e-06
6.61526e-06
6.61571e-06
6.61571e-06
6.61569e-06
6.61563e-06
6.61553e-06
6.61535e-06
6.61509e-06
6.61472e-06
6.61426e-06
6.61372e-06
6.61315e-06
6.61262e-06
6.61219e-06
6.61196e-06
6.61196e-06
6.6122e-06
6.61262e-06
6.61315e-06
6.61372e-06
6.61426e-06
6.61472e-06
6.61507e-06
6.61534e-06
6.61552e-06
6.61563e-06
6.61568e-06
6.6157e-06
6.6157e-06
6.61525e-06
6.61725e-06
6.61772e-06
6.61775e-06
6.61778e-06
6.61779e-06
6.61775e-06
6.61765e-06
6.61746e-06
6.61716e-06
6.61677e-06
6.61629e-06
6.61578e-06
6.6153e-06
6.61491e-06
6.61469e-06
6.61469e-06
6.61491e-06
6.61529e-06
6.61578e-06
6.61629e-06
6.61677e-06
6.61716e-06
6.61744e-06
6.61764e-06
6.61775e-06
6.61779e-06
6.61778e-06
6.61776e-06
6.61772e-06
6.61725e-06
6.61934e-06
6.61983e-06
6.61991e-06
6.62e-06
6.62009e-06
6.62015e-06
6.62014e-06
6.62006e-06
6.61988e-06
6.6196e-06
6.61924e-06
6.61883e-06
6.61842e-06
6.61809e-06
6.61791e-06
6.61791e-06
6.61809e-06
6.61842e-06
6.61882e-06
6.61925e-06
6.61961e-06
6.61988e-06
6.62005e-06
6.62014e-06
6.62014e-06
6.62008e-06
6.62e-06
6.61991e-06
6.61983e-06
6.61934e-06
6.62149e-06
6.622e-06
6.62213e-06
6.6223e-06
6.62249e-06
6.62266e-06
6.62279e-06
6.62286e-06
6.62285e-06
6.62274e-06
6.62254e-06
6.62227e-06
6.62198e-06
6.62174e-06
6.62161e-06
6.62161e-06
6.62175e-06
6.62198e-06
6.62227e-06
6.62254e-06
6.62274e-06
6.62284e-06
6.62286e-06
6.62279e-06
6.62265e-06
6.62247e-06
6.62229e-06
6.62213e-06
6.622e-06
6.62148e-06
6.62363e-06
6.62417e-06
6.62436e-06
6.62461e-06
6.62491e-06
6.62523e-06
6.62553e-06
6.6258e-06
6.62599e-06
6.6261e-06
6.62611e-06
6.62604e-06
6.62592e-06
6.62581e-06
6.62575e-06
6.62575e-06
6.62581e-06
6.62592e-06
6.62604e-06
6.62611e-06
6.6261e-06
6.62599e-06
6.6258e-06
6.62554e-06
6.62523e-06
6.6249e-06
6.62462e-06
6.62436e-06
6.62418e-06
6.62363e-06
6.62569e-06
6.62625e-06
6.62651e-06
6.62686e-06
6.62729e-06
6.62777e-06
6.62827e-06
6.62877e-06
6.62921e-06
6.62958e-06
6.62985e-06
6.63003e-06
6.63013e-06
6.63018e-06
6.63019e-06
6.63019e-06
6.63017e-06
6.63012e-06
6.63003e-06
6.62986e-06
6.62958e-06
6.62921e-06
6.62878e-06
6.62828e-06
6.62777e-06
6.62729e-06
6.62686e-06
6.62651e-06
6.62626e-06
6.6257e-06
6.6276e-06
6.62819e-06
6.62851e-06
6.62895e-06
6.62952e-06
6.63018e-06
6.6309e-06
6.63164e-06
6.63236e-06
6.63302e-06
6.63359e-06
6.63405e-06
6.6344e-06
6.63462e-06
6.63473e-06
6.63472e-06
6.63461e-06
6.6344e-06
6.63406e-06
6.6336e-06
6.63302e-06
6.63235e-06
6.63164e-06
6.6309e-06
6.63018e-06
6.62953e-06
6.62896e-06
6.62851e-06
6.62819e-06
6.62761e-06
6.62927e-06
6.62987e-06
6.63025e-06
6.63079e-06
6.6315e-06
6.63233e-06
6.63326e-06
6.63425e-06
6.63525e-06
6.63621e-06
6.6371e-06
6.63785e-06
6.63845e-06
6.63886e-06
6.63907e-06
6.63907e-06
6.63886e-06
6.63845e-06
6.63786e-06
6.63709e-06
6.63621e-06
6.63525e-06
6.63425e-06
6.63326e-06
6.63232e-06
6.6315e-06
6.6308e-06
6.63025e-06
6.62988e-06
6.62928e-06
6.6306e-06
6.63119e-06
6.63162e-06
6.63223e-06
6.63306e-06
6.63404e-06
6.63515e-06
6.63637e-06
6.63762e-06
6.63886e-06
6.64003e-06
6.64106e-06
6.64189e-06
6.64248e-06
6.64277e-06
6.64278e-06
6.64248e-06
6.64189e-06
6.64106e-06
6.64003e-06
6.63887e-06
6.63762e-06
6.63636e-06
6.63515e-06
6.63404e-06
6.63307e-06
6.63225e-06
6.63163e-06
6.63121e-06
6.63059e-06
6.63296e-06
6.63351e-06
6.63404e-06
6.63472e-06
6.63568e-06
6.63685e-06
6.63815e-06
6.6396e-06
6.64113e-06
6.64265e-06
6.64411e-06
6.64542e-06
6.64649e-06
6.64725e-06
6.64763e-06
6.64764e-06
6.64724e-06
6.6465e-06
6.64542e-06
6.6441e-06
6.64265e-06
6.64112e-06
6.63961e-06
6.63814e-06
6.63683e-06
6.6357e-06
6.63475e-06
6.63403e-06
6.63355e-06
6.63291e-06
6.61985e-06
6.62005e-06
6.62058e-06
6.62099e-06
6.62262e-06
6.62297e-06
6.62435e-06
6.62511e-06
6.62603e-06
6.62698e-06
6.62784e-06
6.62855e-06
6.62908e-06
6.62939e-06
6.62953e-06
6.62956e-06
6.62938e-06
6.62907e-06
6.6285e-06
6.62788e-06
6.62703e-06
6.62601e-06
6.62486e-06
6.6237e-06
6.62274e-06
6.62163e-06
6.62072e-06
6.62018e-06
6.61999e-06
6.61982e-06
6.68799e-06
6.66959e-06
6.67495e-06
6.70768e-06
6.74705e-06
6.77536e-06
6.7835e-06
6.7938e-06
6.7965e-06
6.79369e-06
6.78725e-06
6.77703e-06
6.7657e-06
6.75209e-06
6.75009e-06
6.75145e-06
6.75061e-06
6.76365e-06
6.77887e-06
6.79141e-06
6.79807e-06
6.79275e-06
6.78439e-06
6.76778e-06
6.74362e-06
6.71346e-06
6.68463e-06
6.66352e-06
6.6606e-06
6.66082e-06
7.24854e-06
7.40925e-06
7.45968e-06
7.62655e-06
7.75093e-06
7.84204e-06
7.99663e-06
8.1396e-06
8.26652e-06
8.39922e-06
8.5551e-06
8.84659e-06
9.74166e-06
1.23211e-05
2.03677e-05
2.03922e-05
1.23074e-05
9.73109e-06
8.8295e-06
8.54641e-06
8.40111e-06
8.2798e-06
8.12997e-06
7.99922e-06
7.87187e-06
7.71975e-06
7.58226e-06
7.4461e-06
7.29576e-06
7.23564e-06
7.52498e-06
7.60631e-06
7.69294e-06
7.83424e-06
7.96866e-06
8.11754e-06
8.29395e-06
8.47156e-06
8.65082e-06
8.83355e-06
9.02321e-06
9.23841e-06
9.53776e-06
1.00593e-05
1.12376e-05
1.12318e-05
1.00641e-05
9.5308e-06
9.22509e-06
9.01706e-06
8.83468e-06
8.65466e-06
8.4698e-06
8.29598e-06
8.12918e-06
7.96541e-06
7.82039e-06
7.69447e-06
7.59912e-06
7.53414e-06
7.83812e-06
7.8925e-06
7.97731e-06
8.09487e-06
8.23378e-06
8.39309e-06
8.57072e-06
8.76206e-06
8.96328e-06
9.17112e-06
9.37937e-06
9.581e-06
9.77407e-06
9.96298e-06
1.01775e-05
1.01765e-05
9.96304e-06
9.77001e-06
9.57658e-06
9.37739e-06
9.17244e-06
8.96588e-06
8.76461e-06
8.57226e-06
8.39645e-06
8.23365e-06
8.09015e-06
7.96685e-06
7.88873e-06
7.85337e-06
8.11966e-06
8.16287e-06
8.23827e-06
8.34732e-06
8.48265e-06
8.64084e-06
8.81954e-06
9.01695e-06
9.22789e-06
9.44352e-06
9.65789e-06
9.86065e-06
1.00396e-05
1.01814e-05
1.02756e-05
1.02758e-05
1.01811e-05
1.0037e-05
9.85962e-06
9.65798e-06
9.44564e-06
9.23042e-06
9.01927e-06
8.82211e-06
8.6418e-06
8.48204e-06
8.34496e-06
8.22968e-06
8.14913e-06
8.12865e-06
8.36034e-06
8.39023e-06
8.4594e-06
8.56215e-06
8.69051e-06
8.84295e-06
9.01541e-06
9.20605e-06
9.40901e-06
9.61647e-06
9.82006e-06
1.00105e-05
1.01731e-05
1.02958e-05
1.0365e-05
1.03657e-05
1.0296e-05
1.01729e-05
1.00106e-05
9.82214e-06
9.61934e-06
9.41037e-06
9.2075e-06
9.01685e-06
8.84417e-06
8.69043e-06
8.56116e-06
8.45917e-06
8.38118e-06
8.3575e-06
8.53854e-06
8.56603e-06
8.63145e-06
8.72429e-06
8.84413e-06
8.98608e-06
9.14873e-06
9.32767e-06
9.51723e-06
9.70993e-06
9.89726e-06
1.00693e-05
1.0214e-05
1.03202e-05
1.03784e-05
1.03787e-05
1.03224e-05
1.02152e-05
1.00701e-05
9.90051e-06
9.71208e-06
9.51837e-06
9.32777e-06
9.14956e-06
8.98673e-06
8.84343e-06
8.7241e-06
8.63208e-06
8.56348e-06
8.5356e-06
8.66052e-06
8.69234e-06
8.7508e-06
8.83513e-06
8.94412e-06
9.0746e-06
9.22392e-06
9.38661e-06
9.55915e-06
9.73374e-06
9.90164e-06
1.00543e-05
1.01813e-05
1.0273e-05
1.03221e-05
1.03227e-05
1.0274e-05
1.0182e-05
1.00557e-05
9.90328e-06
9.73526e-06
9.56022e-06
9.38717e-06
9.22407e-06
9.07447e-06
8.94384e-06
8.83399e-06
8.75037e-06
8.69176e-06
8.66079e-06
8.73441e-06
8.76734e-06
8.81866e-06
8.89536e-06
8.99118e-06
9.10886e-06
9.24102e-06
9.38594e-06
9.5383e-06
9.69115e-06
9.83756e-06
9.96992e-06
1.0079e-05
1.0158e-05
1.01993e-05
1.01992e-05
1.01589e-05
1.00804e-05
9.97106e-06
9.83948e-06
9.69356e-06
9.54005e-06
9.38756e-06
9.24235e-06
9.10863e-06
8.99116e-06
8.8934e-06
8.81839e-06
8.76694e-06
8.7338e-06
8.75853e-06
8.79215e-06
8.83704e-06
8.90125e-06
8.98661e-06
9.088e-06
9.20232e-06
9.32737e-06
9.4585e-06
9.58897e-06
9.71243e-06
9.82345e-06
9.91432e-06
9.97866e-06
1.00115e-05
1.00126e-05
9.97884e-06
9.91353e-06
9.82353e-06
9.71334e-06
9.59018e-06
9.45945e-06
9.32953e-06
9.20456e-06
9.08778e-06
8.98587e-06
8.90135e-06
8.83546e-06
8.79081e-06
8.75697e-06
8.73528e-06
8.76947e-06
8.8072e-06
8.86164e-06
8.93416e-06
9.01938e-06
9.11656e-06
9.22086e-06
9.32796e-06
9.4342e-06
9.5346e-06
9.62209e-06
9.69272e-06
9.74376e-06
9.77095e-06
9.77066e-06
9.74385e-06
9.69388e-06
9.62262e-06
9.53424e-06
9.43438e-06
9.32857e-06
9.22185e-06
9.11744e-06
9.01991e-06
8.93444e-06
8.86273e-06
8.80607e-06
8.76868e-06
8.73515e-06
8.67564e-06
8.70852e-06
8.73681e-06
8.78412e-06
8.84207e-06
8.91294e-06
8.99098e-06
9.07432e-06
9.15923e-06
9.24108e-06
9.31614e-06
9.38095e-06
9.4334e-06
9.46949e-06
9.48836e-06
9.48799e-06
9.46953e-06
9.43403e-06
9.38161e-06
9.31636e-06
9.24119e-06
9.15973e-06
9.0758e-06
8.99224e-06
8.91362e-06
8.84396e-06
8.78451e-06
8.73735e-06
8.70753e-06
8.67481e-06
8.58228e-06
8.61323e-06
8.63653e-06
8.67284e-06
8.72144e-06
8.77674e-06
8.83649e-06
8.89898e-06
8.96085e-06
9.01892e-06
9.06985e-06
9.11253e-06
9.14563e-06
9.1684e-06
9.17965e-06
9.17992e-06
9.16945e-06
9.1473e-06
9.11426e-06
9.07154e-06
9.02031e-06
8.96237e-06
8.90045e-06
8.83734e-06
8.77725e-06
8.72233e-06
8.67468e-06
8.63737e-06
8.61473e-06
8.58332e-06
8.46627e-06
8.49495e-06
8.51253e-06
8.5408e-06
8.57704e-06
8.61742e-06
8.66192e-06
8.70576e-06
8.74612e-06
8.78169e-06
8.81078e-06
8.83318e-06
8.84819e-06
8.8576e-06
8.86211e-06
8.86219e-06
8.858e-06
8.84889e-06
8.83389e-06
8.81189e-06
8.78237e-06
8.74657e-06
8.70605e-06
8.66268e-06
8.61915e-06
8.57828e-06
8.54249e-06
8.51399e-06
8.49781e-06
8.46806e-06
8.33222e-06
8.36105e-06
8.37134e-06
8.39297e-06
8.41792e-06
8.44678e-06
8.47509e-06
8.50103e-06
8.5234e-06
8.53998e-06
8.5497e-06
8.55278e-06
8.55224e-06
8.55024e-06
8.54804e-06
8.54781e-06
8.54991e-06
8.55288e-06
8.55402e-06
8.55076e-06
8.54116e-06
8.52505e-06
8.50286e-06
8.47637e-06
8.44831e-06
8.42024e-06
8.39452e-06
8.37389e-06
8.36356e-06
8.33558e-06
8.19034e-06
8.21717e-06
8.22251e-06
8.23547e-06
8.25219e-06
8.26999e-06
8.28488e-06
8.29673e-06
8.30366e-06
8.3029e-06
8.29562e-06
8.28413e-06
8.27095e-06
8.25868e-06
8.25085e-06
8.2509e-06
8.259e-06
8.27205e-06
8.28593e-06
8.297e-06
8.30321e-06
8.30351e-06
8.29771e-06
8.28648e-06
8.27107e-06
8.25373e-06
8.23726e-06
8.22374e-06
8.2179e-06
8.19205e-06
8.04276e-06
8.06471e-06
8.06749e-06
8.07492e-06
8.08465e-06
8.09217e-06
8.09681e-06
8.09694e-06
8.09018e-06
8.07619e-06
8.05709e-06
8.03379e-06
8.00964e-06
7.98918e-06
7.97765e-06
7.97829e-06
7.99021e-06
8.01009e-06
8.03394e-06
8.05749e-06
8.07731e-06
8.09128e-06
8.09807e-06
8.09819e-06
8.09339e-06
8.08567e-06
8.0769e-06
8.06883e-06
8.06647e-06
8.04367e-06
7.89619e-06
7.915e-06
7.91379e-06
7.91675e-06
7.9202e-06
7.92003e-06
7.91656e-06
7.90771e-06
7.89107e-06
7.86792e-06
7.83925e-06
7.8069e-06
7.77532e-06
7.7497e-06
7.73547e-06
7.73575e-06
7.7503e-06
7.77597e-06
7.80761e-06
7.84e-06
7.86897e-06
7.89191e-06
7.9079e-06
7.91736e-06
7.92126e-06
7.92085e-06
7.9179e-06
7.91449e-06
7.91526e-06
7.89584e-06
7.74973e-06
7.76832e-06
7.76463e-06
7.76465e-06
7.76264e-06
7.75718e-06
7.74791e-06
7.73186e-06
7.70822e-06
7.67885e-06
7.64398e-06
7.60622e-06
7.56997e-06
7.54096e-06
7.52473e-06
7.52469e-06
7.54106e-06
7.57028e-06
7.60666e-06
7.64453e-06
7.67963e-06
7.7092e-06
7.73207e-06
7.74815e-06
7.7581e-06
7.76321e-06
7.76519e-06
7.76575e-06
7.7687e-06
7.7522e-06
7.61695e-06
7.62877e-06
7.62491e-06
7.62206e-06
7.61571e-06
7.60684e-06
7.59251e-06
7.57134e-06
7.5444e-06
7.51144e-06
7.47314e-06
7.43231e-06
7.3936e-06
7.36274e-06
7.34525e-06
7.34525e-06
7.36294e-06
7.39416e-06
7.43301e-06
7.47382e-06
7.5122e-06
7.54546e-06
7.57233e-06
7.59265e-06
7.60695e-06
7.61629e-06
7.62191e-06
7.6251e-06
7.6292e-06
7.61547e-06
7.48697e-06
7.4994e-06
7.49366e-06
7.48869e-06
7.48088e-06
7.46945e-06
7.45193e-06
7.42897e-06
7.4003e-06
7.36548e-06
7.32579e-06
7.28409e-06
7.24497e-06
7.21376e-06
7.19612e-06
7.19623e-06
7.21407e-06
7.24543e-06
7.28451e-06
7.32586e-06
7.36535e-06
7.40037e-06
7.42954e-06
7.45245e-06
7.46943e-06
7.48135e-06
7.48919e-06
7.4941e-06
7.499e-06
7.48804e-06
7.37074e-06
7.38071e-06
7.37421e-06
7.36768e-06
7.35912e-06
7.34544e-06
7.32666e-06
7.30316e-06
7.27378e-06
7.23887e-06
7.19965e-06
7.159e-06
7.1208e-06
7.09003e-06
7.07251e-06
7.07244e-06
7.08982e-06
7.12055e-06
7.15895e-06
7.19977e-06
7.23908e-06
7.27429e-06
7.30392e-06
7.32757e-06
7.3457e-06
7.35903e-06
7.36834e-06
7.37452e-06
7.37995e-06
7.37132e-06
7.26761e-06
7.27166e-06
7.26664e-06
7.25991e-06
7.24997e-06
7.23548e-06
7.21718e-06
7.19381e-06
7.1651e-06
7.13147e-06
7.09423e-06
7.05563e-06
7.01898e-06
6.98937e-06
6.97245e-06
6.9724e-06
6.98926e-06
7.01886e-06
7.0556e-06
7.09453e-06
7.13197e-06
7.16554e-06
7.19408e-06
7.21743e-06
7.23592e-06
7.25e-06
7.26014e-06
7.26701e-06
7.27251e-06
7.26569e-06
7.17009e-06
7.17557e-06
7.17044e-06
7.16347e-06
7.15321e-06
7.13949e-06
7.12178e-06
7.09915e-06
7.07193e-06
7.04056e-06
7.00612e-06
6.97022e-06
6.93609e-06
6.90844e-06
6.89253e-06
6.89253e-06
6.9085e-06
6.93623e-06
6.97035e-06
7.00632e-06
7.04089e-06
7.07212e-06
7.09913e-06
7.12171e-06
7.13992e-06
7.15392e-06
7.16411e-06
7.1711e-06
7.17643e-06
7.17113e-06
7.08634e-06
7.0922e-06
7.0865e-06
7.07937e-06
7.06924e-06
7.05618e-06
7.03896e-06
7.01778e-06
6.99274e-06
6.96424e-06
6.9329e-06
6.90025e-06
6.86913e-06
6.84359e-06
6.8287e-06
6.82864e-06
6.84341e-06
6.86888e-06
6.90008e-06
6.93289e-06
6.96448e-06
6.99323e-06
7.01835e-06
7.03949e-06
7.05656e-06
7.06976e-06
7.07951e-06
7.08636e-06
7.09148e-06
7.08752e-06
7.01531e-06
7.01729e-06
7.01261e-06
7.00566e-06
6.99635e-06
6.98401e-06
6.96826e-06
6.94919e-06
6.92673e-06
6.90108e-06
6.87293e-06
6.84366e-06
6.81551e-06
6.79211e-06
6.77833e-06
6.77821e-06
6.79175e-06
6.81498e-06
6.84322e-06
6.87278e-06
6.90121e-06
6.92714e-06
6.94984e-06
6.96895e-06
6.98446e-06
6.99663e-06
7.00583e-06
7.01244e-06
7.01731e-06
7.01438e-06
6.94991e-06
6.95201e-06
6.94794e-06
6.94174e-06
6.93353e-06
6.92225e-06
6.90825e-06
6.89122e-06
6.87113e-06
6.84827e-06
6.82335e-06
6.79736e-06
6.77221e-06
6.75123e-06
6.73882e-06
6.73881e-06
6.75121e-06
6.77214e-06
6.79724e-06
6.82331e-06
6.84837e-06
6.8713e-06
6.89145e-06
6.90854e-06
6.92259e-06
6.93378e-06
6.94236e-06
6.9486e-06
6.95307e-06
6.9508e-06
6.89434e-06
6.89742e-06
6.89314e-06
6.88781e-06
6.88003e-06
6.86987e-06
6.85723e-06
6.84202e-06
6.82424e-06
6.8042e-06
6.78236e-06
6.75957e-06
6.73758e-06
6.71912e-06
6.70807e-06
6.70816e-06
6.71933e-06
6.73781e-06
6.75967e-06
6.78231e-06
6.80417e-06
6.8243e-06
6.84213e-06
6.85738e-06
6.87004e-06
6.8802e-06
6.88801e-06
6.89367e-06
6.89762e-06
6.89573e-06
6.84862e-06
6.8502e-06
6.84644e-06
6.8415e-06
6.83426e-06
6.82506e-06
6.81384e-06
6.80066e-06
6.7854e-06
6.76813e-06
6.74919e-06
6.72946e-06
6.71034e-06
6.69411e-06
6.68429e-06
6.68439e-06
6.69429e-06
6.71039e-06
6.7293e-06
6.74889e-06
6.76788e-06
6.78544e-06
6.80104e-06
6.81447e-06
6.82564e-06
6.83462e-06
6.84152e-06
6.8465e-06
6.84992e-06
6.84837e-06
6.80828e-06
6.80905e-06
6.80619e-06
6.80148e-06
6.79516e-06
6.78709e-06
6.77765e-06
6.7665e-06
6.75344e-06
6.73855e-06
6.72222e-06
6.70517e-06
6.6886e-06
6.67448e-06
6.66581e-06
6.66589e-06
6.67465e-06
6.6887e-06
6.70509e-06
6.722e-06
6.73832e-06
6.75337e-06
6.76678e-06
6.77837e-06
6.78804e-06
6.79584e-06
6.80186e-06
6.80625e-06
6.80927e-06
6.80808e-06
6.77336e-06
6.77464e-06
6.77201e-06
6.76809e-06
6.76264e-06
6.75597e-06
6.74792e-06
6.73812e-06
6.72672e-06
6.71388e-06
6.69989e-06
6.68534e-06
6.67125e-06
6.65912e-06
6.65144e-06
6.65144e-06
6.65921e-06
6.67151e-06
6.68564e-06
6.70004e-06
6.71384e-06
6.72657e-06
6.73798e-06
6.74789e-06
6.75624e-06
6.76303e-06
6.76836e-06
6.77231e-06
6.77501e-06
6.77401e-06
6.74461e-06
6.74575e-06
6.7435e-06
6.74032e-06
6.73574e-06
6.7301e-06
6.72284e-06
6.71415e-06
6.70433e-06
6.69342e-06
6.68161e-06
6.66947e-06
6.65769e-06
6.64726e-06
6.64034e-06
6.64028e-06
6.64719e-06
6.65785e-06