/*--------------------------------*- C++ -*----------------------------------*\
| =========                 |                                                 |
| \\      /  F ield         | OpenFOAM: The Open Source CFD Toolbox           |
|  \\    /   O peration     | Version:  2312                                  |
|   \\  /    A nd           | Website:  www.openfoam.com                      |
|    \\/     M anipulation  |                                                 |
\*---------------------------------------------------------------------------*/
FoamFile
{
    version     2.0;
    format      ascii;
    arch        "LSB;label=32;scalar=64";
    class       volScalarField;
    location    "0.14934";
    object      p;
}
// * * * * * * * * * * * * * * * * * * * * * * * * * * * * * * * * * * * * * //

dimensions      [1 -1 -2 0 0 0 0];

internalField   nonuniform List<scalar> 
90000
(
4895.74
4895.74
4895.74
4895.75
4895.75
4895.75
4895.75
4895.75
4895.75
4895.75
4895.75
4895.75
4895.75
4895.75
4895.75
4895.75
4895.75
4895.75
4895.75
4895.75
4895.74
4895.74
4895.74
4895.74
4895.74
4895.74
4895.74
4895.73
4895.73
4895.73
4797.64
4797.64
4797.64
4797.64
4797.65
4797.65
4797.65
4797.65
4797.65
4797.65
4797.65
4797.65
4797.65
4797.65
4797.65
4797.65
4797.65
4797.65
4797.65
4797.65
4797.64
4797.64
4797.64
4797.64
4797.64
4797.64
4797.63
4797.63
4797.63
4797.63
4699.54
4699.54
4699.54
4699.54
4699.54
4699.55
4699.55
4699.55
4699.55
4699.55
4699.55
4699.55
4699.55
4699.55
4699.55
4699.55
4699.55
4699.55
4699.55
4699.54
4699.54
4699.54
4699.54
4699.54
4699.54
4699.53
4699.53
4699.53
4699.53
4699.53
4601.44
4601.44
4601.44
4601.44
4601.44
4601.44
4601.45
4601.45
4601.45
4601.45
4601.45
4601.45
4601.45
4601.45
4601.45
4601.45
4601.45
4601.45
4601.44
4601.44
4601.44
4601.44
4601.44
4601.44
4601.43
4601.43
4601.43
4601.43
4601.43
4601.43
4503.34
4503.34
4503.34
4503.34
4503.34
4503.34
4503.34
4503.34
4503.35
4503.35
4503.35
4503.35
4503.35
4503.35
4503.35
4503.35
4503.35
4503.35
4503.34
4503.34
4503.34
4503.34
4503.34
4503.33
4503.33
4503.33
4503.33
4503.33
4503.33
4503.33
4405.24
4405.24
4405.24
4405.24
4405.24
4405.24
4405.24
4405.24
4405.24
4405.24
4405.25
4405.25
4405.25
4405.25
4405.25
4405.25
4405.25
4405.24
4405.24
4405.24
4405.24
4405.24
4405.23
4405.23
4405.23
4405.23
4405.23
4405.23
4405.23
4405.23
4307.14
4307.14
4307.14
4307.14
4307.14
4307.14
4307.14
4307.14
4307.14
4307.14
4307.14
4307.15
4307.15
4307.15
4307.15
4307.15
4307.15
4307.14
4307.14
4307.14
4307.14
4307.14
4307.13
4307.13
4307.13
4307.13
4307.13
4307.13
4307.13
4307.13
4209.03
4209.03
4209.04
4209.04
4209.04
4209.04
4209.04
4209.04
4209.04
4209.04
4209.04
4209.04
4209.05
4209.05
4209.05
4209.05
4209.04
4209.04
4209.04
4209.04
4209.04
4209.03
4209.03
4209.03
4209.03
4209.03
4209.03
4209.03
4209.02
4209.02
4110.93
4110.93
4110.93
4110.93
4110.93
4110.94
4110.94
4110.94
4110.94
4110.94
4110.94
4110.94
4110.94
4110.94
4110.94
4110.94
4110.94
4110.94
4110.94
4110.94
4110.94
4110.93
4110.93
4110.93
4110.93
4110.93
4110.92
4110.92
4110.92
4110.92
4012.83
4012.83
4012.83
4012.83
4012.83
4012.83
4012.83
4012.83
4012.84
4012.84
4012.84
4012.84
4012.84
4012.84
4012.84
4012.84
4012.84
4012.84
4012.84
4012.84
4012.83
4012.83
4012.83
4012.83
4012.82
4012.82
4012.82
4012.82
4012.82
4012.82
3914.72
3914.72
3914.72
3914.72
3914.72
3914.73
3914.73
3914.73
3914.73
3914.74
3914.74
3914.74
3914.74
3914.74
3914.74
3914.74
3914.74
3914.74
3914.74
3914.74
3914.73
3914.73
3914.73
3914.72
3914.72
3914.72
3914.72
3914.71
3914.71
3914.71
3816.61
3816.61
3816.61
3816.61
3816.62
3816.62
3816.62
3816.62
3816.63
3816.63
3816.64
3816.64
3816.64
3816.64
3816.64
3816.64
3816.64
3816.64
3816.64
3816.63
3816.63
3816.63
3816.62
3816.62
3816.62
3816.61
3816.61
3816.61
3816.61
3816.61
3718.5
3718.5
3718.5
3718.5
3718.51
3718.51
3718.51
3718.52
3718.52
3718.53
3718.53
3718.54
3718.54
3718.54
3718.54
3718.54
3718.54
3718.54
3718.53
3718.53
3718.53
3718.52
3718.52
3718.51
3718.51
3718.5
3718.5
3718.5
3718.5
3718.5
3620.38
3620.38
3620.39
3620.39
3620.39
3620.4
3620.41
3620.41
3620.42
3620.42
3620.43
3620.43
3620.44
3620.44
3620.44
3620.44
3620.44
3620.44
3620.43
3620.43
3620.42
3620.42
3620.41
3620.4
3620.4
3620.39
3620.39
3620.39
3620.38
3620.38
3522.27
3522.27
3522.27
3522.28
3522.28
3522.29
3522.3
3522.3
3522.31
3522.32
3522.32
3522.33
3522.33
3522.34
3522.34
3522.34
3522.34
3522.33
3522.33
3522.32
3522.32
3522.31
3522.3
3522.29
3522.29
3522.28
3522.27
3522.27
3522.27
3522.27
3424.15
3424.15
3424.15
3424.16
3424.17
3424.17
3424.18
3424.19
3424.2
3424.21
3424.22
3424.22
3424.23
3424.23
3424.24
3424.24
3424.23
3424.23
3424.23
3424.22
3424.21
3424.2
3424.19
3424.18
3424.17
3424.16
3424.16
3424.15
3424.15
3424.15
3326.03
3326.03
3326.03
3326.04
3326.05
3326.06
3326.07
3326.08
3326.09
3326.1
3326.11
3326.12
3326.13
3326.13
3326.13
3326.13
3326.13
3326.13
3326.12
3326.11
3326.1
3326.09
3326.08
3326.07
3326.06
3326.05
3326.04
3326.03
3326.03
3326.02
3227.9
3227.9
3227.91
3227.92
3227.93
3227.94
3227.95
3227.97
3227.98
3227.99
3228
3228.02
3228.02
3228.03
3228.03
3228.03
3228.03
3228.02
3228.02
3228.01
3227.99
3227.98
3227.97
3227.95
3227.94
3227.93
3227.91
3227.91
3227.9
3227.9
3129.76
3129.77
3129.77
3129.79
3129.8
3129.81
3129.83
3129.85
3129.87
3129.88
3129.9
3129.91
3129.92
3129.93
3129.93
3129.93
3129.93
3129.92
3129.91
3129.9
3129.88
3129.87
3129.85
3129.83
3129.82
3129.8
3129.79
3129.77
3129.77
3129.76
3031.62
3031.63
3031.64
3031.65
3031.67
3031.68
3031.7
3031.73
3031.75
3031.77
3031.79
3031.8
3031.81
3031.82
3031.83
3031.83
3031.82
3031.81
3031.8
3031.79
3031.77
3031.75
3031.73
3031.71
3031.69
3031.67
3031.65
3031.64
3031.63
3031.62
2933.47
2933.48
2933.49
2933.51
2933.53
2933.55
2933.57
2933.6
2933.63
2933.65
2933.67
2933.69
2933.71
2933.72
2933.72
2933.72
2933.72
2933.71
2933.69
2933.67
2933.65
2933.63
2933.6
2933.58
2933.55
2933.53
2933.51
2933.49
2933.48
2933.48
2835.31
2835.32
2835.33
2835.35
2835.38
2835.4
2835.43
2835.47
2835.5
2835.53
2835.55
2835.58
2835.6
2835.61
2835.62
2835.62
2835.61
2835.6
2835.58
2835.56
2835.53
2835.5
2835.47
2835.44
2835.41
2835.38
2835.36
2835.34
2835.33
2835.32
2737.14
2737.15
2737.16
2737.19
2737.22
2737.25
2737.29
2737.32
2737.36
2737.4
2737.43
2737.46
2737.48
2737.5
2737.51
2737.51
2737.5
2737.49
2737.46
2737.44
2737.4
2737.37
2737.33
2737.29
2737.26
2737.22
2737.19
2737.17
2737.16
2737.15
2638.95
2638.96
2638.98
2639.01
2639.04
2639.08
2639.13
2639.17
2639.22
2639.26
2639.3
2639.34
2639.37
2639.39
2639.4
2639.4
2639.39
2639.37
2639.34
2639.31
2639.27
2639.23
2639.18
2639.13
2639.09
2639.05
2639.02
2638.99
2638.97
2638.96
2540.75
2540.76
2540.78
2540.81
2540.85
2540.9
2540.96
2541.01
2541.07
2541.12
2541.17
2541.21
2541.24
2541.27
2541.28
2541.28
2541.27
2541.25
2541.22
2541.17
2541.13
2541.07
2541.02
2540.96
2540.91
2540.86
2540.82
2540.79
2540.77
2540.75
2442.52
2442.53
2442.56
2442.6
2442.65
2442.7
2442.77
2442.83
2442.9
2442.97
2443.03
2443.08
2443.12
2443.15
2443.16
2443.16
2443.15
2443.12
2443.08
2443.03
2442.97
2442.91
2442.84
2442.78
2442.71
2442.65
2442.61
2442.57
2442.54
2442.53
2344.26
2344.27
2344.31
2344.35
2344.41
2344.48
2344.56
2344.64
2344.72
2344.8
2344.87
2344.93
2344.98
2345.01
2345.03
2345.03
2345.02
2344.98
2344.94
2344.88
2344.81
2344.73
2344.65
2344.57
2344.49
2344.42
2344.36
2344.32
2344.29
2344.27
2245.97
2245.99
2246.02
2246.08
2246.15
2246.24
2246.33
2246.43
2246.53
2246.62
2246.71
2246.78
2246.84
2246.88
2246.9
2246.9
2246.88
2246.84
2246.78
2246.71
2246.63
2246.53
2246.44
2246.34
2246.25
2246.17
2246.09
2246.04
2246
2245.98
2147.64
2147.66
2147.71
2147.77
2147.86
2147.96
2148.07
2148.19
2148.31
2148.42
2148.52
2148.61
2148.68
2148.72
2148.75
2148.75
2148.73
2148.68
2148.61
2148.52
2148.42
2148.31
2148.2
2148.08
2147.97
2147.87
2147.79
2147.72
2147.68
2147.65
2049.26
2049.29
2049.34
2049.42
2049.53
2049.65
2049.78
2049.92
2050.06
2050.19
2050.31
2050.42
2050.5
2050.56
2050.59
2050.59
2050.56
2050.5
2050.42
2050.32
2050.2
2050.06
2049.93
2049.79
2049.66
2049.54
2049.44
2049.36
2049.3
2049.27
1950.83
1950.86
1950.93
1951.02
1951.14
1951.28
1951.44
1951.61
1951.77
1951.93
1952.08
1952.2
1952.3
1952.37
1952.41
1952.41
1952.37
1952.31
1952.21
1952.08
1951.94
1951.78
1951.61
1951.45
1951.29
1951.15
1951.03
1950.94
1950.87
1950.84
1852.33
1852.37
1852.44
1852.56
1852.7
1852.87
1853.05
1853.25
1853.44
1853.63
1853.81
1853.96
1854.08
1854.16
1854.2
1854.2
1854.16
1854.08
1853.96
1853.81
1853.64
1853.45
1853.26
1853.06
1852.88
1852.71
1852.57
1852.46
1852.38
1852.34
1753.75
1753.8
1753.89
1754.02
1754.19
1754.38
1754.6
1754.83
1755.06
1755.29
1755.49
1755.67
1755.81
1755.91
1755.96
1755.96
1755.91
1755.81
1755.67
1755.5
1755.29
1755.07
1754.84
1754.61
1754.39
1754.2
1754.03
1753.9
1753.81
1753.76
1655.08
1655.13
1655.24
1655.39
1655.59
1655.82
1656.07
1656.34
1656.62
1656.88
1657.12
1657.33
1657.5
1657.61
1657.67
1657.67
1657.62
1657.5
1657.33
1657.13
1656.89
1656.62
1656.35
1656.08
1655.83
1655.6
1655.4
1655.25
1655.14
1655.09
1556.3
1556.36
1556.48
1556.66
1556.89
1557.16
1557.46
1557.77
1558.09
1558.4
1558.68
1558.93
1559.12
1559.26
1559.33
1559.33
1559.26
1559.13
1558.93
1558.69
1558.4
1558.1
1557.78
1557.47
1557.17
1556.9
1556.67
1556.49
1556.37
1556.31
1457.39
1457.46
1457.6
1457.81
1458.07
1458.38
1458.73
1459.1
1459.47
1459.82
1460.16
1460.44
1460.67
1460.83
1460.91
1460.91
1460.83
1460.67
1460.45
1460.16
1459.83
1459.47
1459.1
1458.74
1458.4
1458.08
1457.82
1457.61
1457.47
1457.4
1358.33
1358.41
1358.58
1358.81
1359.12
1359.48
1359.87
1360.29
1360.72
1361.14
1361.52
1361.85
1362.12
1362.3
1362.4
1362.4
1362.3
1362.12
1361.86
1361.52
1361.14
1360.73
1360.3
1359.88
1359.49
1359.13
1358.83
1358.59
1358.43
1358.34
1259.11
1259.2
1259.39
1259.66
1260
1260.41
1260.86
1261.34
1261.83
1262.31
1262.75
1263.13
1263.44
1263.65
1263.76
1263.76
1263.65
1263.44
1263.13
1262.75
1262.31
1261.84
1261.35
1260.87
1260.42
1260.01
1259.67
1259.4
1259.21
1259.12
1159.7
1159.8
1160.01
1160.31
1160.7
1161.16
1161.67
1162.21
1162.76
1163.31
1163.81
1164.25
1164.6
1164.84
1164.97
1164.97
1164.84
1164.6
1164.25
1163.81
1163.31
1162.77
1162.22
1161.67
1161.16
1160.71
1160.32
1160.02
1159.81
1159.71
1060.07
1060.19
1060.42
1060.75
1061.18
1061.69
1062.26
1062.87
1063.49
1064.1
1064.66
1065.16
1065.56
1065.83
1065.98
1065.98
1065.84
1065.56
1065.16
1064.67
1064.1
1063.5
1062.87
1062.27
1061.7
1061.19
1060.76
1060.43
1060.2
1060.08
960.213
960.339
960.589
960.954
961.423
961.98
962.605
963.276
963.965
964.641
965.271
965.824
966.268
966.58
966.74
966.741
966.581
966.27
965.826
965.275
964.646
963.972
963.284
962.613
961.987
961.431
960.962
960.598
960.349
960.223
860.098
860.233
860.5
860.891
861.394
861.994
862.671
863.399
864.149
864.888
865.579
866.187
866.677
867.021
867.2
867.2
867.023
866.679
866.189
865.582
864.892
864.155
863.405
862.678
862.001
861.402
860.898
860.508
860.241
860.106
759.71
759.851
760.13
760.54
761.07
761.703
762.42
763.194
763.995
764.787
765.531
766.188
766.72
767.095
767.289
767.29
767.097
766.722
766.191
765.534
764.791
764
763.2
762.426
761.71
761.077
760.547
760.137
759.858
759.717
659.035
659.179
659.464
659.883
660.427
661.079
661.819
662.622
663.457
664.287
665.07
665.764
666.329
666.728
666.934
666.935
666.729
666.331
665.767
665.073
664.291
663.462
662.627
661.824
661.084
660.432
659.889
659.47
659.185
659.041
558.069
558.211
558.493
558.909
559.449
560.099
560.84
561.649
562.494
563.337
564.138
564.851
565.433
565.845
566.06
566.06
565.847
565.435
564.853
564.14
563.34
562.497
561.653
560.844
560.103
559.453
558.914
558.499
558.217
558.074
456.815
456.95
457.218
457.614
458.129
458.753
459.467
460.249
461.071
461.896
462.684
463.39
463.968
464.379
464.593
464.594
464.38
463.969
463.391
462.686
461.899
461.074
460.252
459.47
458.756
458.133
457.618
457.222
456.955
456.82
355.289
355.411
355.652
356.01
356.477
357.043
357.696
358.414
359.173
359.94
360.677
361.34
361.887
362.277
362.48
362.481
362.277
361.887
361.341
360.679
359.942
359.175
358.416
357.698
357.046
356.479
356.012
355.655
355.414
355.292
253.515
253.617
253.819
254.119
254.512
254.99
255.543
256.156
256.807
257.469
258.109
258.689
259.17
259.515
259.696
259.696
259.516
259.17
258.69
258.11
257.47
256.808
256.157
255.545
254.992
254.513
254.121
253.821
253.619
253.517
151.565
151.641
151.793
152.019
152.315
152.675
153.095
153.563
154.063
154.576
155.076
155.535
155.918
156.196
156.343
156.343
156.196
155.917
155.534
155.077
154.577
154.064
153.563
153.096
152.676
152.314
152.019
151.793
151.641
151.565
48.3737
48.4117
48.4846
48.5957
48.7396
48.9145
49.1226
49.3568
49.61
49.8753
50.1409
50.3917
50.6088
50.7735
50.8691
50.8686
50.7747
50.6073
50.39
50.1408
49.8759
49.6109
49.3556
49.1225
48.9159
48.7378
48.5938
48.4837
48.4089
48.374
-3.08732
-3.07361
-3.04446
-3.00109
-2.94401
-2.87332
-2.78965
-2.69508
-2.59117
-2.48
-2.36477
-2.25075
-2.14657
-2.06138
-2.00543
-2.00552
-2.0606
-2.14694
-2.25098
-2.36494
-2.48037
-2.59146
-2.6958
-2.78984
-2.87279
-2.94374
-3.00089
-3.04452
-3.07419
-3.08789
-5.05024
-5.05036
-5.05007
-5.04942
-5.04792
-5.04499
-5.04001
-5.03192
-5.01933
-5.0006
-4.97403
-4.93927
-4.8996
-4.85944
-4.827
-4.82699
-4.85946
-4.89962
-4.93919
-4.97396
-5.00061
-5.01939
-5.03193
-5.04
-5.04501
-5.04788
-5.04942
-5.05015
-5.05044
-5.05042
-5.15305
-5.15313
-5.1531
-5.15275
-5.15187
-5.14995
-5.14643
-5.14054
-5.13138
-5.11792
-5.09943
-5.07616
-5.05023
-5.02537
-5.00707
-5.00707
-5.02536
-5.05019
-5.07611
-5.09941
-5.11791
-5.13136
-5.14054
-5.14644
-5.14996
-5.15192
-5.15284
-5.15318
-5.15327
-5.15327
-5.25599
-5.25616
-5.25644
-5.25664
-5.2566
-5.25596
-5.25436
-5.25136
-5.24645
-5.23921
-5.22944
-5.21753
-5.20477
-5.19303
-5.18484
-5.18486
-5.193
-5.20474
-5.21752
-5.22945
-5.23922
-5.24646
-5.25137
-5.25437
-5.256
-5.25666
-5.25673
-5.25653
-5.25625
-5.25614
-5.35872
-5.35904
-5.35963
-5.36036
-5.36111
-5.36171
-5.36189
-5.36141
-5.36004
-5.3576
-5.35401
-5.3495
-5.34464
-5.34018
-5.33716
-5.33718
-5.34019
-5.34463
-5.34951
-5.35402
-5.35763
-5.36009
-5.36144
-5.36193
-5.36176
-5.36119
-5.36047
-5.35974
-5.35912
-5.35881
-5.46091
-5.46133
-5.46214
-5.46329
-5.46463
-5.46611
-5.46754
-5.46878
-5.4697
-5.47012
-5.47003
-5.46948
-5.46858
-5.46758
-5.46683
-5.46685
-5.46761
-5.46861
-5.4695
-5.47009
-5.47019
-5.46976
-5.46884
-5.46759
-5.46617
-5.46473
-5.46338
-5.46228
-5.46145
-5.46097
-5.56218
-5.56269
-5.56363
-5.56497
-5.56669
-5.56863
-5.5707
-5.57282
-5.57486
-5.57669
-5.57825
-5.57945
-5.58026
-5.5807
-5.58088
-5.58089
-5.58076
-5.58032
-5.57951
-5.57834
-5.57678
-5.57495
-5.57291
-5.57079
-5.56872
-5.56679
-5.56511
-5.56377
-5.56286
-5.56233
-5.66259
-5.66308
-5.66405
-5.66544
-5.66722
-5.66929
-5.67155
-5.67392
-5.67631
-5.67859
-5.68066
-5.68242
-5.68379
-5.68472
-5.68518
-5.68519
-5.68475
-5.68385
-5.6825
-5.68074
-5.67867
-5.67641
-5.67401
-5.67164
-5.66937
-5.66733
-5.66556
-5.66417
-5.66324
-5.66272
-5.76196
-5.76242
-5.76332
-5.76466
-5.76628
-5.76824
-5.77035
-5.77259
-5.77484
-5.777
-5.779
-5.78071
-5.78207
-5.78303
-5.78351
-5.78352
-5.78307
-5.78215
-5.78081
-5.7791
-5.77714
-5.77495
-5.77269
-5.77046
-5.76833
-5.76641
-5.76477
-5.76348
-5.7626
-5.76212
-5.86046
-5.86087
-5.86165
-5.86275
-5.86422
-5.86584
-5.86762
-5.86951
-5.87139
-5.87319
-5.87482
-5.87622
-5.87733
-5.8781
-5.87849
-5.87852
-5.87815
-5.87739
-5.87632
-5.87494
-5.8733
-5.87149
-5.86962
-5.86773
-5.86592
-5.8643
-5.8629
-5.86179
-5.86102
-5.86062
-5.95816
-5.95848
-5.95913
-5.96002
-5.96117
-5.96244
-5.96386
-5.96528
-5.96669
-5.96802
-5.9692
-5.9702
-5.97098
-5.97153
-5.97182
-5.97183
-5.97157
-5.97108
-5.97031
-5.9693
-5.96811
-5.9668
-5.96539
-5.96393
-5.96254
-5.96127
-5.96017
-5.95928
-5.95866
-5.95834
-6.0553
-6.05553
-6.05598
-6.05671
-6.05746
-6.05843
-6.05941
-6.06038
-6.06134
-6.06222
-6.06296
-6.06356
-6.06405
-6.06438
-6.06454
-6.06455
-6.06441
-6.06413
-6.06367
-6.06305
-6.06231
-6.06145
-6.06048
-6.05947
-6.05849
-6.05758
-6.05678
-6.05613
-6.05568
-6.05545
-6.15189
-6.15207
-6.15242
-6.15283
-6.15342
-6.15402
-6.1546
-6.1552
-6.15575
-6.15621
-6.15656
-6.15685
-6.15708
-6.15721
-6.15728
-6.1573
-6.15727
-6.15716
-6.15696
-6.15667
-6.15629
-6.15582
-6.15527
-6.15468
-6.15408
-6.15349
-6.15297
-6.15254
-6.15225
-6.15211
-6.24833
-6.24841
-6.2486
-6.24884
-6.24916
-6.24945
-6.24976
-6.25002
-6.25022
-6.25035
-6.25042
-6.25046
-6.25047
-6.25046
-6.25046
-6.25047
-6.2505
-6.25052
-6.25051
-6.25048
-6.2504
-6.25026
-6.25006
-6.2498
-6.2495
-6.2492
-6.24892
-6.24869
-6.24854
-6.24847
-6.34446
-6.34452
-6.34458
-6.34473
-6.34478
-6.34488
-6.34494
-6.34493
-6.34489
-6.34479
-6.34463
-6.34447
-6.34433
-6.34423
-6.34416
-6.34416
-6.34423
-6.34437
-6.34454
-6.34471
-6.34485
-6.34494
-6.34499
-6.34499
-6.34495
-6.34487
-6.34479
-6.34472
-6.34468
-6.34466
-6.4407
-6.44068
-6.44067
-6.44059
-6.44057
-6.44051
-6.44034
-6.44014
-6.43992
-6.43964
-6.43933
-6.43905
-6.43882
-6.43864
-6.43854
-6.43854
-6.43866
-6.43886
-6.43911
-6.43938
-6.43965
-6.43992
-6.44017
-6.44037
-6.44051
-6.44061
-6.44068
-6.44073
-6.44076
-6.44077
-6.53682
-6.53679
-6.53673
-6.53658
-6.53646
-6.53621
-6.53594
-6.53565
-6.53529
-6.53489
-6.5345
-6.53414
-6.53384
-6.53361
-6.53349
-6.53348
-6.53361
-6.53385
-6.53415
-6.53451
-6.53491
-6.53531
-6.53568
-6.536
-6.53627
-6.53649
-6.53666
-6.53679
-6.53687
-6.53691
-6.63316
-6.63308
-6.63291
-6.63276
-6.63249
-6.6322
-6.63188
-6.63149
-6.63104
-6.63058
-6.63014
-6.62974
-6.6294
-6.62916
-6.62903
-6.62904
-6.62918
-6.62943
-6.62977
-6.63017
-6.63062
-6.63107
-6.63151
-6.6319
-6.63224
-6.63254
-6.63278
-6.63296
-6.63309
-6.63315
-6.72951
-6.72947
-6.7293
-6.72908
-6.72879
-6.72846
-6.72806
-6.72761
-6.72715
-6.72669
-6.72623
-6.72581
-6.72546
-6.72522
-6.72509
-6.72509
-6.72522
-6.72546
-6.7258
-6.72622
-6.72669
-6.72717
-6.72762
-6.72805
-6.72845
-6.7288
-6.72909
-6.72931
-6.72945
-6.72953
-6.82615
-6.826
-6.82586
-6.82559
-6.82529
-6.82491
-6.82449
-6.82405
-6.82359
-6.82312
-6.82266
-6.82224
-6.8219
-6.82166
-6.82154
-6.82154
-6.82167
-6.82191
-6.82225
-6.82267
-6.82312
-6.82359
-6.82405
-6.82449
-6.82491
-6.82528
-6.82558
-6.82581
-6.82597
-6.82605
-6.92278
-6.92272
-6.92253
-6.9223
-6.922
-6.92163
-6.92123
-6.92079
-6.92033
-6.91988
-6.91945
-6.91906
-6.91874
-6.91853
-6.91841
-6.91841
-6.91851
-6.91873
-6.91904
-6.91942
-6.91984
-6.92029
-6.92075
-6.92119
-6.9216
-6.92196
-6.92226
-6.92249
-6.92265
-6.92273
-7.01967
-7.01964
-7.01944
-7.01922
-7.01892
-7.01856
-7.01815
-7.01771
-7.01728
-7.01688
-7.01649
-7.01613
-7.01582
-7.01561
-7.01549
-7.01549
-7.01558
-7.01577
-7.01606
-7.01642
-7.01683
-7.01727
-7.0177
-7.01812
-7.0185
-7.01884
-7.01912
-7.01935
-7.01951
-7.0196
-7.11682
-7.11663
-7.11651
-7.11629
-7.116
-7.11566
-7.11526
-7.11487
-7.1145
-7.11414
-7.11378
-7.11344
-7.11315
-7.11295
-7.11285
-7.11285
-7.11293
-7.11311
-7.11337
-7.11369
-7.11406
-7.11446
-7.11485
-7.11523
-7.11558
-7.1159
-7.11617
-7.11639
-7.11654
-7.11662
-7.21388
-7.21382
-7.21372
-7.21351
-7.21324
-7.21292
-7.21258
-7.21224
-7.2119
-7.21157
-7.21124
-7.21094
-7.21069
-7.21052
-7.21042
-7.21041
-7.21047
-7.21062
-7.21085
-7.21113
-7.21146
-7.21181
-7.21216
-7.21251
-7.21283
-7.21313
-7.21339
-7.21359
-7.21373
-7.21381
-7.31127
-7.3113
-7.31112
-7.3109
-7.31065
-7.31036
-7.31005
-7.30973
-7.30941
-7.30909
-7.30881
-7.30856
-7.30835
-7.3082
-7.3081
-7.30807
-7.30813
-7.30827
-7.30847
-7.30873
-7.30902
-7.30932
-7.30964
-7.30995
-7.31025
-7.31053
-7.31076
-7.31094
-7.31107
-7.31114
-7.4089
-7.40878
-7.40861
-7.40843
-7.40821
-7.40796
-7.40767
-7.40738
-7.40709
-7.40683
-7.40659
-7.40638
-7.40619
-7.40604
-7.40594
-7.40591
-7.40596
-7.40607
-7.40625
-7.40646
-7.40671
-7.40698
-7.40726
-7.40754
-7.40781
-7.40805
-7.40826
-7.40843
-7.40855
-7.40862
-7.5064
-7.50629
-7.50621
-7.50607
-7.50589
-7.50566
-7.5054
-7.50515
-7.5049
-7.50467
-7.50446
-7.50427
-7.50409
-7.50395
-7.50386
-7.50384
-7.50387
-7.50396
-7.5041
-7.50428
-7.5045
-7.50474
-7.50499
-7.50525
-7.50549
-7.50571
-7.5059
-7.50605
-7.50616
-7.50621
-7.60405
-7.60407
-7.604
-7.60385
-7.60366
-7.60344
-7.60322
-7.60299
-7.60277
-7.60255
-7.60234
-7.60216
-7.60201
-7.60191
-7.60184
-7.60182
-7.60185
-7.60192
-7.60204
-7.6022
-7.6024
-7.60261
-7.60284
-7.60307
-7.60328
-7.60347
-7.60364
-7.60377
-7.60385
-7.6039
-7.70197
-7.70196
-7.70184
-7.70168
-7.7015
-7.70132
-7.70114
-7.70095
-7.70074
-7.70053
-7.70034
-7.70018
-7.70007
-7.69999
-7.69994
-7.69992
-7.69994
-7.7
-7.7001
-7.70023
-7.70039
-7.70057
-7.70076
-7.70096
-7.70114
-7.70131
-7.70145
-7.70156
-7.70163
-7.70167
-7.79984
-7.79975
-7.79964
-7.79953
-7.7994
-7.79926
-7.79911
-7.79894
-7.79876
-7.79857
-7.79841
-7.79829
-7.7982
-7.79813
-7.79808
-7.79806
-7.79807
-7.79812
-7.79819
-7.79829
-7.79842
-7.79856
-7.79872
-7.79889
-7.79905
-7.79919
-7.79932
-7.79941
-7.79947
-7.7995
-7.89765
-7.8976
-7.89756
-7.89749
-7.89739
-7.89726
-7.89711
-7.89694
-7.89677
-7.89662
-7.89649
-7.89639
-7.8963
-7.89624
-7.8962
-7.89619
-7.8962
-7.89623
-7.89629
-7.89637
-7.89647
-7.89658
-7.89672
-7.89687
-7.89701
-7.89714
-7.89725
-7.89732
-7.89737
-7.89739
-7.99561
-7.99563
-7.99561
-7.99553
-7.99542
-7.99529
-7.99514
-7.99499
-7.99484
-7.99472
-7.99461
-7.99452
-7.99444
-7.99439
-7.99436
-7.99436
-7.99437
-7.9944
-7.99444
-7.99449
-7.99457
-7.99467
-7.99478
-7.9949
-7.99502
-7.99513
-7.99521
-7.99527
-7.9953
-7.99531
-8.09366
-8.09366
-8.09361
-8.09353
-8.09342
-8.09331
-8.09319
-8.09308
-8.09297
-8.09287
-8.09278
-8.0927
-8.09264
-8.0926
-8.09258
-8.09257
-8.09258
-8.09259
-8.09261
-8.09265
-8.0927
-8.09278
-8.09287
-8.09296
-8.09305
-8.09312
-8.09318
-8.09322
-8.09325
-8.09326
-8.19163
-8.19158
-8.19153
-8.19147
-8.19141
-8.19134
-8.19126
-8.19119
-8.1911
-8.19102
-8.19094
-8.19087
-8.19081
-8.19078
-8.19076
-8.19075
-8.19075
-8.19075
-8.19076
-8.19078
-8.19082
-8.19088
-8.19094
-8.19101
-8.19107
-8.19112
-8.19116
-8.1912
-8.19122
-8.19124
-8.28955
-8.28952
-8.2895
-8.28948
-8.28945
-8.28941
-8.28936
-8.28929
-8.28921
-8.28913
-8.28905
-8.28899
-8.28895
-8.28891
-8.28889
-8.28888
-8.28887
-8.28887
-8.28888
-8.2889
-8.28893
-8.28897
-8.28902
-8.28906
-8.2891
-8.28914
-8.28918
-8.28921
-8.28924
-8.28925
-8.38757
-8.38758
-8.38758
-8.38757
-8.38754
-8.38751
-8.38745
-8.38738
-8.38731
-8.38724
-8.38717
-8.38712
-8.38708
-8.38705
-8.38703
-8.38701
-8.387
-8.387
-8.38701
-8.38703
-8.38705
-8.38708
-8.38711
-8.38714
-8.38717
-8.3872
-8.38723
-8.38726
-8.38729
-8.3873
-8.48568
-8.48569
-8.48567
-8.48565
-8.48561
-8.48557
-8.48552
-8.48546
-8.48541
-8.48536
-8.48531
-8.48528
-8.48524
-8.48521
-8.48519
-8.48516
-8.48515
-8.48514
-8.48515
-8.48516
-8.48518
-8.48519
-8.48521
-8.48523
-8.48525
-8.48528
-8.48531
-8.48534
-8.48536
-8.48537
-8.58376
-8.58375
-8.58372
-8.58369
-8.58366
-8.58363
-8.58359
-8.58355
-8.58351
-8.58348
-8.58345
-8.58342
-8.58339
-8.58335
-8.58332
-8.58329
-8.58328
-8.58327
-8.58327
-8.58328
-8.58329
-8.5833
-8.58331
-8.58333
-8.58335
-8.58338
-8.5834
-8.58342
-8.58344
-8.58345
-8.6818
-8.68177
-8.68176
-8.68176
-8.68175
-8.68173
-8.6817
-8.68168
-8.68165
-8.68162
-8.68158
-8.68154
-8.6815
-8.68146
-8.68142
-8.68139
-8.68137
-8.68137
-8.68137
-8.68137
-8.68139
-8.6814
-8.68142
-8.68144
-8.68147
-8.68149
-8.68151
-8.68153
-8.68154
-8.68154
-8.77985
-8.77984
-8.77986
-8.77988
-8.77988
-8.77987
-8.77985
-8.77983
-8.77979
-8.77976
-8.77971
-8.77966
-8.77961
-8.77956
-8.77952
-8.7795
-8.77948
-8.77948
-8.77949
-8.7795
-8.77952
-8.77954
-8.77956
-8.77959
-8.77961
-8.77962
-8.77964
-8.77964
-8.77965
-8.77965
-8.87796
-8.87799
-8.87801
-8.87802
-8.87801
-8.878
-8.87798
-8.87796
-8.87793
-8.87789
-8.87785
-8.8778
-8.87775
-8.87771
-8.87768
-8.87766
-8.87765
-8.87765
-8.87766
-8.87768
-8.87769
-8.87771
-8.87773
-8.87775
-8.87776
-8.87776
-8.87776
-8.87776
-8.87776
-8.87776
-8.97613
-8.97616
-8.97615
-8.97613
-8.97611
-8.97609
-8.97608
-8.97607
-8.97605
-8.97603
-8.976
-8.97597
-8.97594
-8.97591
-8.97588
-8.97587
-8.97586
-8.97586
-8.97587
-8.97588
-8.97589
-8.97589
-8.9759
-8.9759
-8.9759
-8.97589
-8.97588
-8.97587
-8.97587
-8.97586
-9.07429
-9.07429
-9.07425
-9.07422
-9.07419
-9.07418
-9.07418
-9.07418
-9.07418
-9.07418
-9.07417
-9.07415
-9.07413
-9.07412
-9.0741
-9.07409
-9.07408
-9.07407
-9.07407
-9.07407
-9.07406
-9.07406
-9.07405
-9.07404
-9.07402
-9.07401
-9.074
-9.07398
-9.07398
-9.07398
-9.17239
-9.17237
-9.17233
-9.17231
-9.1723
-9.17231
-9.17232
-9.17233
-9.17234
-9.17234
-9.17234
-9.17233
-9.17232
-9.17231
-9.1723
-9.17228
-9.17227
-9.17226
-9.17225
-9.17223
-9.17222
-9.1722
-9.17218
-9.17216
-9.17214
-9.17213
-9.17212
-9.17211
-9.1721
-9.1721
-9.27047
-9.27044
-9.27044
-9.27045
-9.27046
-9.27047
-9.27049
-9.27049
-9.27049
-9.27049
-9.27049
-9.27048
-9.27047
-9.27047
-9.27046
-9.27045
-9.27044
-9.27042
-9.27041
-9.27039
-9.27037
-9.27034
-9.27032
-9.2703
-9.27028
-9.27027
-9.27025
-9.27025
-9.27024
-9.27024
-9.36856
-9.36856
-9.36858
-9.36861
-9.36862
-9.36863
-9.36863
-9.36862
-9.3686
-9.36859
-9.36859
-9.36858
-9.36859
-9.36859
-9.36859
-9.36859
-9.36859
-9.36858
-9.36856
-9.36854
-9.36852
-9.3685
-9.36848
-9.36846
-9.36844
-9.36842
-9.36841
-9.3684
-9.36839
-9.36839
-9.4667
-9.46672
-9.46674
-9.46675
-9.46675
-9.46674
-9.46671
-9.46668
-9.46666
-9.46665
-9.46664
-9.46665
-9.46666
-9.46668
-9.4667
-9.46671
-9.46671
-9.46671
-9.46671
-9.4667
-9.46668
-9.46666
-9.46664
-9.46662
-9.4666
-9.46658
-9.46656
-9.46655
-9.46654
-9.46653
-9.56485
-9.56487
-9.56488
-9.56487
-9.56484
-9.5648
-9.56476
-9.56472
-9.5647
-9.56468
-9.56469
-9.5647
-9.56473
-9.56476
-9.56478
-9.56481
-9.56482
-9.56483
-9.56483
-9.56482
-9.56481
-9.5648
-9.56478
-9.56476
-9.56474
-9.56472
-9.5647
-9.56469
-9.56468
-9.56467
-9.66296
-9.66297
-9.66296
-9.66294
-9.6629
-9.66286
-9.66282
-9.66279
-9.66277
-9.66276
-9.66277
-9.66279
-9.66281
-9.66284
-9.66287
-9.66289
-9.6629
-9.66291
-9.66292
-9.66292
-9.66291
-9.6629
-9.66289
-9.66287
-9.66286
-9.66284
-9.66283
-9.66282
-9.66281
-9.6628
-9.761
-9.761
-9.76099
-9.76098
-9.76096
-9.76094
-9.76093
-9.76091
-9.76091
-9.76091
-9.76091
-9.76092
-9.76093
-9.76094
-9.76095
-9.76096
-9.76097
-9.76097
-9.76098
-9.76098
-9.76097
-9.76097
-9.76097
-9.76096
-9.76096
-9.76095
-9.76095
-9.76094
-9.76094
-9.76093
4895.74
4895.74
4895.74
4895.75
4895.75
4895.75
4895.75
4895.75
4895.75
4895.75
4895.75
4895.75
4895.75
4895.75
4895.75
4895.75
4895.75
4895.75
4895.75
4895.75
4895.74
4895.74
4895.74
4895.74
4895.74
4895.74
4895.74
4895.73
4895.73
4895.73
4797.64
4797.64
4797.64
4797.64
4797.65
4797.65
4797.65
4797.65
4797.65
4797.65
4797.65
4797.65
4797.65
4797.65
4797.65
4797.65
4797.65
4797.65
4797.65
4797.65
4797.64
4797.64
4797.64
4797.64
4797.64
4797.64
4797.63
4797.63
4797.63
4797.63
4699.54
4699.54
4699.54
4699.54
4699.54
4699.55
4699.55
4699.55
4699.55
4699.55
4699.55
4699.55
4699.55
4699.55
4699.55
4699.55
4699.55
4699.55
4699.55
4699.54
4699.54
4699.54
4699.54
4699.54
4699.54
4699.53
4699.53
4699.53
4699.53
4699.53
4601.44
4601.44
4601.44
4601.44
4601.44
4601.44
4601.45
4601.45
4601.45
4601.45
4601.45
4601.45
4601.45
4601.45
4601.45
4601.45
4601.45
4601.45
4601.45
4601.44
4601.44
4601.44
4601.44
4601.44
4601.43
4601.43
4601.43
4601.43
4601.43
4601.43
4503.34
4503.34
4503.34
4503.34
4503.34
4503.34
4503.34
4503.34
4503.35
4503.35
4503.35
4503.35
4503.35
4503.35
4503.35
4503.35
4503.35
4503.35
4503.34
4503.34
4503.34
4503.34
4503.34
4503.33
4503.33
4503.33
4503.33
4503.33
4503.33
4503.33
4405.24
4405.24
4405.24
4405.24
4405.24
4405.24
4405.24
4405.24
4405.24
4405.25
4405.25
4405.25
4405.25
4405.25
4405.25
4405.25
4405.25
4405.25
4405.24
4405.24
4405.24
4405.24
4405.23
4405.23
4405.23
4405.23
4405.23
4405.23
4405.23
4405.23
4307.14
4307.14
4307.14
4307.14
4307.14
4307.14
4307.14
4307.14
4307.14
4307.14
4307.15
4307.15
4307.15
4307.15
4307.15
4307.15
4307.15
4307.14
4307.14
4307.14
4307.14
4307.14
4307.13
4307.13
4307.13
4307.13
4307.13
4307.13
4307.13
4307.13
4209.03
4209.04
4209.04
4209.04
4209.04
4209.04
4209.04
4209.04
4209.04
4209.04
4209.04
4209.04
4209.05
4209.05
4209.05
4209.05
4209.04
4209.04
4209.04
4209.04
4209.04
4209.03
4209.03
4209.03
4209.03
4209.03
4209.03
4209.03
4209.02
4209.02
4110.93
4110.93
4110.93
4110.93
4110.93
4110.94
4110.94
4110.94
4110.94
4110.94
4110.94
4110.94
4110.94
4110.94
4110.94
4110.94
4110.94
4110.94
4110.94
4110.94
4110.94
4110.93
4110.93
4110.93
4110.93
4110.93
4110.92
4110.92
4110.92
4110.92
4012.83
4012.83
4012.83
4012.83
4012.83
4012.83
4012.83
4012.84
4012.84
4012.84
4012.84
4012.84
4012.84
4012.84
4012.84
4012.84
4012.84
4012.84
4012.84
4012.84
4012.83
4012.83
4012.83
4012.83
4012.83
4012.82
4012.82
4012.82
4012.82
4012.82
3914.72
3914.72
3914.72
3914.72
3914.72
3914.73
3914.73
3914.73
3914.73
3914.74
3914.74
3914.74
3914.74
3914.74
3914.74
3914.74
3914.74
3914.74
3914.74
3914.74
3914.73
3914.73
3914.73
3914.72
3914.72
3914.72
3914.72
3914.72
3914.71
3914.71
3816.61
3816.61
3816.61
3816.61
3816.62
3816.62
3816.62
3816.63
3816.63
3816.63
3816.64
3816.64
3816.64
3816.64
3816.64
3816.64
3816.64
3816.64
3816.64
3816.63
3816.63
3816.63
3816.62
3816.62
3816.62
3816.61
3816.61
3816.61
3816.61
3816.61
3718.5
3718.5
3718.5
3718.5
3718.51
3718.51
3718.51
3718.52
3718.52
3718.53
3718.53
3718.54
3718.54
3718.54
3718.54
3718.54
3718.54
3718.54
3718.54
3718.53
3718.53
3718.52
3718.52
3718.51
3718.51
3718.51
3718.5
3718.5
3718.5
3718.5
3620.38
3620.39
3620.39
3620.39
3620.4
3620.4
3620.41
3620.41
3620.42
3620.42
3620.43
3620.43
3620.44
3620.44
3620.44
3620.44
3620.44
3620.44
3620.43
3620.43
3620.42
3620.42
3620.41
3620.41
3620.4
3620.39
3620.39
3620.39
3620.38
3620.38
3522.27
3522.27
3522.27
3522.28
3522.28
3522.29
3522.3
3522.3
3522.31
3522.32
3522.32
3522.33
3522.34
3522.34
3522.34
3522.34
3522.34
3522.34
3522.33
3522.33
3522.32
3522.31
3522.3
3522.3
3522.29
3522.28
3522.28
3522.27
3522.27
3522.27
3424.15
3424.15
3424.16
3424.16
3424.17
3424.18
3424.19
3424.19
3424.2
3424.21
3424.22
3424.23
3424.23
3424.24
3424.24
3424.24
3424.24
3424.23
3424.23
3424.22
3424.21
3424.2
3424.19
3424.18
3424.18
3424.17
3424.16
3424.15
3424.15
3424.15
3326.03
3326.03
3326.04
3326.04
3326.05
3326.06
3326.07
3326.08
3326.09
3326.1
3326.11
3326.12