/*--------------------------------*- C++ -*----------------------------------*\
| =========                 |                                                 |
| \\      /  F ield         | OpenFOAM: The Open Source CFD Toolbox           |
|  \\    /   O peration     | Version:  2312                                  |
|   \\  /    A nd           | Website:  www.openfoam.com                      |
|    \\/     M anipulation  |                                                 |
\*---------------------------------------------------------------------------*/
FoamFile
{
    version     2.0;
    format      ascii;
    arch        "LSB;label=32;scalar=64";
    class       volScalarField;
    location    "0.14934";
    object      p_rgh;
}
// * * * * * * * * * * * * * * * * * * * * * * * * * * * * * * * * * * * * * //

dimensions      [1 -1 -2 0 0 0 0];

internalField   nonuniform List<scalar> 
90000
(
4944.79
4944.79
4944.79
4944.8
4944.8
4944.8
4944.8
4944.8
4944.8
4944.8
4944.8
4944.8
4944.8
4944.8
4944.8
4944.8
4944.8
4944.8
4944.8
4944.8
4944.79
4944.79
4944.79
4944.79
4944.79
4944.79
4944.79
4944.78
4944.78
4944.78
4944.79
4944.79
4944.79
4944.79
4944.8
4944.8
4944.8
4944.8
4944.8
4944.8
4944.8
4944.8
4944.8
4944.8
4944.8
4944.8
4944.8
4944.8
4944.8
4944.8
4944.79
4944.79
4944.79
4944.79
4944.79
4944.79
4944.78
4944.78
4944.78
4944.78
4944.79
4944.79
4944.79
4944.79
4944.79
4944.8
4944.8
4944.8
4944.8
4944.8
4944.8
4944.8
4944.8
4944.8
4944.8
4944.8
4944.8
4944.8
4944.8
4944.79
4944.79
4944.79
4944.79
4944.79
4944.79
4944.78
4944.78
4944.78
4944.78
4944.78
4944.79
4944.79
4944.79
4944.79
4944.79
4944.79
4944.8
4944.8
4944.8
4944.8
4944.8
4944.8
4944.8
4944.8
4944.8
4944.8
4944.8
4944.8
4944.8
4944.79
4944.79
4944.79
4944.79
4944.79
4944.78
4944.78
4944.78
4944.78
4944.78
4944.78
4944.79
4944.79
4944.79
4944.79
4944.79
4944.79
4944.79
4944.79
4944.8
4944.8
4944.8
4944.8
4944.8
4944.8
4944.8
4944.8
4944.8
4944.8
4944.79
4944.79
4944.79
4944.79
4944.79
4944.78
4944.78
4944.78
4944.78
4944.78
4944.78
4944.78
4944.79
4944.79
4944.79
4944.79
4944.79
4944.79
4944.79
4944.79
4944.79
4944.8
4944.8
4944.8
4944.8
4944.8
4944.8
4944.8
4944.8
4944.8
4944.79
4944.79
4944.79
4944.79
4944.78
4944.78
4944.78
4944.78
4944.78
4944.78
4944.78
4944.78
4944.79
4944.79
4944.79
4944.79
4944.79
4944.79
4944.79
4944.79
4944.79
4944.79
4944.79
4944.8
4944.8
4944.8
4944.8
4944.8
4944.8
4944.79
4944.79
4944.79
4944.79
4944.79
4944.78
4944.78
4944.78
4944.78
4944.78
4944.78
4944.78
4944.78
4944.78
4944.79
4944.79
4944.79
4944.79
4944.79
4944.79
4944.79
4944.79
4944.79
4944.79
4944.79
4944.8
4944.8
4944.8
4944.8
4944.79
4944.79
4944.79
4944.79
4944.79
4944.79
4944.78
4944.78
4944.78
4944.78
4944.78
4944.78
4944.77
4944.77
4944.78
4944.78
4944.78
4944.78
4944.78
4944.79
4944.79
4944.79
4944.79
4944.79
4944.79
4944.79
4944.79
4944.8
4944.8
4944.79
4944.79
4944.79
4944.79
4944.79
4944.79
4944.78
4944.78
4944.78
4944.78
4944.78
4944.77
4944.77
4944.77
4944.77
4944.78
4944.78
4944.78
4944.78
4944.78
4944.78
4944.78
4944.78
4944.79
4944.79
4944.79
4944.79
4944.79
4944.79
4944.79
4944.79
4944.79
4944.79
4944.79
4944.79
4944.78
4944.78
4944.78
4944.78
4944.77
4944.77
4944.77
4944.77
4944.77
4944.77
4944.77
4944.77
4944.77
4944.77
4944.77
4944.78
4944.78
4944.78
4944.78
4944.79
4944.79
4944.79
4944.79
4944.79
4944.79
4944.79
4944.79
4944.79
4944.79
4944.79
4944.78
4944.78
4944.78
4944.77
4944.77
4944.77
4944.77
4944.77
4944.76
4944.76
4944.76
4944.76
4944.76
4944.77
4944.77
4944.77
4944.77
4944.77
4944.78
4944.78
4944.79
4944.79
4944.79
4944.79
4944.79
4944.79
4944.79
4944.79
4944.79
4944.78
4944.78
4944.78
4944.77
4944.77
4944.77
4944.76
4944.76
4944.76
4944.76
4944.76
4944.75
4944.75
4944.75
4944.75
4944.76
4944.76
4944.76
4944.77
4944.77
4944.78
4944.78
4944.79
4944.79
4944.79
4944.79
4944.79
4944.79
4944.79
4944.79
4944.78
4944.78
4944.77
4944.77
4944.76
4944.76
4944.76
4944.75
4944.75
4944.75
4944.75
4944.74
4944.74
4944.74
4944.74
4944.75
4944.75
4944.76
4944.76
4944.77
4944.77
4944.78
4944.78
4944.79
4944.79
4944.79
4944.79
4944.79
4944.79
4944.78
4944.78
4944.77
4944.77
4944.76
4944.75
4944.75
4944.74
4944.74
4944.74
4944.73
4944.73
4944.72
4944.72
4944.72
4944.73
4944.73
4944.74
4944.75
4944.75
4944.76
4944.77
4944.77
4944.78
4944.78
4944.79
4944.79
4944.79
4944.79
4944.78
4944.78
4944.77
4944.77
4944.76
4944.75
4944.74
4944.74
4944.73
4944.72
4944.72
4944.72
4944.72
4944.7
4944.7
4944.7
4944.71
4944.72
4944.72
4944.73
4944.74
4944.75
4944.76
4944.77
4944.77
4944.78
4944.78
4944.78
4944.79
4944.78
4944.78
4944.77
4944.77
4944.76
4944.75
4944.74
4944.73
4944.72
4944.71
4944.71
4944.7
4944.7
4944.7
4944.68
4944.68
4944.68
4944.69
4944.7
4944.71
4944.72
4944.73
4944.74
4944.75
4944.76
4944.77
4944.77
4944.78
4944.78
4944.78
4944.78
4944.78
4944.77
4944.76
4944.75
4944.74
4944.73
4944.72
4944.71
4944.7
4944.69
4944.68
4944.68
4944.67
4944.65
4944.65
4944.66
4944.66
4944.68
4944.69
4944.7
4944.72
4944.73
4944.74
4944.75
4944.76
4944.77
4944.78
4944.78
4944.78
4944.78
4944.77
4944.77
4944.76
4944.74
4944.73
4944.72
4944.7
4944.69
4944.67
4944.66
4944.65
4944.65
4944.64
4944.61
4944.62
4944.62
4944.63
4944.65
4944.66
4944.68
4944.7
4944.71
4944.73
4944.75
4944.76
4944.77
4944.78
4944.78
4944.78
4944.78
4944.77
4944.76
4944.75
4944.73
4944.72
4944.7
4944.68
4944.66
4944.65
4944.63
4944.62
4944.61
4944.61
4944.57
4944.57
4944.58
4944.6
4944.61
4944.63
4944.66
4944.68
4944.7
4944.72
4944.74
4944.75
4944.77
4944.77
4944.78
4944.78
4944.77
4944.76
4944.75
4944.74
4944.72
4944.7
4944.68
4944.66
4944.64
4944.62
4944.6
4944.59
4944.58
4944.57
4944.52
4944.52
4944.54
4944.55
4944.57
4944.6
4944.62
4944.65
4944.68
4944.7
4944.72
4944.74
4944.76
4944.77
4944.77
4944.77
4944.77
4944.76
4944.74
4944.72
4944.7
4944.68
4944.65
4944.63
4944.6
4944.58
4944.56
4944.54
4944.53
4944.53
4944.46
4944.47
4944.48
4944.5
4944.53
4944.55
4944.59
4944.62
4944.65
4944.68
4944.71
4944.73
4944.75
4944.76
4944.77
4944.77
4944.76
4944.75
4944.73
4944.71
4944.68
4944.65
4944.62
4944.59
4944.56
4944.53
4944.51
4944.49
4944.48
4944.47
4944.39
4944.4
4944.41
4944.44
4944.47
4944.5
4944.54
4944.57
4944.61
4944.65
4944.68
4944.71
4944.73
4944.75
4944.76
4944.76
4944.75
4944.74
4944.71
4944.68
4944.65
4944.62
4944.58
4944.54
4944.51
4944.47
4944.45
4944.42
4944.41
4944.4
4944.3
4944.31
4944.33
4944.36
4944.39
4944.43
4944.48
4944.52
4944.57
4944.61
4944.65
4944.69
4944.72
4944.74
4944.75
4944.75
4944.74
4944.72
4944.69
4944.66
4944.62
4944.57
4944.53
4944.48
4944.44
4944.4
4944.37
4944.34
4944.32
4944.31
4944.2
4944.21
4944.23
4944.27
4944.31
4944.35
4944.41
4944.46
4944.52
4944.57
4944.62
4944.66
4944.7
4944.72
4944.73
4944.73
4944.72
4944.7
4944.66
4944.62
4944.58
4944.52
4944.47
4944.41
4944.36
4944.31
4944.27
4944.24
4944.22
4944.21
4944.07
4944.09
4944.11
4944.15
4944.2
4944.25
4944.32
4944.39
4944.45
4944.52
4944.58
4944.63
4944.67
4944.7
4944.71
4944.71
4944.7
4944.67
4944.63
4944.58
4944.52
4944.46
4944.39
4944.33
4944.26
4944.21
4944.15
4944.12
4944.09
4944.08
4943.91
4943.93
4943.96
4944.01
4944.06
4944.13
4944.21
4944.29
4944.37
4944.45
4944.52
4944.58
4944.63
4944.67
4944.68
4944.68
4944.67
4944.64
4944.59
4944.53
4944.46
4944.38
4944.3
4944.22
4944.15
4944.07
4944.01
4943.97
4943.94
4943.92
4943.72
4943.74
4943.78
4943.83
4943.9
4943.99
4944.08
4944.18
4944.27
4944.37
4944.45
4944.53
4944.59
4944.63
4944.65
4944.65
4944.63
4944.59
4944.53
4944.46
4944.38
4944.28
4944.19
4944.09
4944
4943.92
4943.85
4943.79
4943.75
4943.73
4943.49
4943.51
4943.56
4943.62
4943.71
4943.81
4943.92
4944.03
4944.15
4944.27
4944.37
4944.46
4944.53
4944.58
4944.6
4944.6
4944.58
4944.53
4944.46
4944.38
4944.27
4944.17
4944.05
4943.93
4943.82
4943.72
4943.64
4943.57
4943.53
4943.5
4943.21
4943.24
4943.29
4943.37
4943.47
4943.59
4943.72
4943.86
4944
4944.14
4944.26
4944.37
4944.45
4944.51
4944.54
4944.54
4944.51
4944.46
4944.37
4944.27
4944.15
4944.02
4943.88
4943.74
4943.61
4943.49
4943.39
4943.31
4943.26
4943.23
4942.88
4942.91
4942.97
4943.07
4943.19
4943.33
4943.49
4943.66
4943.82
4943.98
4944.13
4944.25
4944.35
4944.42
4944.46
4944.46
4944.43
4944.36
4944.26
4944.13
4943.99
4943.83
4943.66
4943.5
4943.35
4943.21
4943.08
4942.99
4942.93
4942.89
4942.48
4942.51
4942.59
4942.7
4942.85
4943.02
4943.2
4943.4
4943.6
4943.78
4943.96
4944.11
4944.23
4944.31
4944.35
4944.35
4944.31
4944.23
4944.11
4943.96
4943.79
4943.6
4943.41
4943.21
4943.03
4942.86
4942.72
4942.61
4942.53
4942.49
4942
4942.04
4942.13
4942.27
4942.44
4942.63
4942.85
4943.08
4943.31
4943.54
4943.74
4943.92
4944.06
4944.16
4944.21
4944.21
4944.16
4944.06
4943.92
4943.75
4943.54
4943.32
4943.09
4942.86
4942.64
4942.45
4942.28
4942.15
4942.06
4942.01
4941.42
4941.48
4941.59
4941.74
4941.94
4942.17
4942.42
4942.69
4942.97
4943.23
4943.47
4943.69
4943.85
4943.97
4944.02
4944.02
4943.97
4943.85
4943.68
4943.48
4943.23
4942.97
4942.7
4942.43
4942.18
4941.95
4941.75
4941.6
4941.49
4941.44
4940.74
4940.81
4940.93
4941.11
4941.34
4941.61
4941.91
4942.22
4942.54
4942.85
4943.14
4943.38
4943.58
4943.71
4943.78
4943.78
4943.71
4943.58
4943.38
4943.14
4942.85
4942.55
4942.23
4941.91
4941.62
4941.35
4941.12
4940.94
4940.82
4940.76
4939.94
4940.01
4940.15
4940.36
4940.62
4940.93
4941.28
4941.65
4942.02
4942.38
4942.71
4942.99
4943.22
4943.38
4943.46
4943.46
4943.38
4943.23
4943
4942.71
4942.38
4942.02
4941.65
4941.29
4940.95
4940.63
4940.37
4940.16
4940.02
4939.95
4938.98
4939.07
4939.23
4939.46
4939.77
4940.13
4940.53
4940.95
4941.37
4941.79
4942.17
4942.5
4942.77
4942.95
4943.05
4943.05
4942.96
4942.77
4942.51
4942.18
4941.79
4941.38
4940.95
4940.53
4940.14
4939.78
4939.48
4939.24
4939.08
4938.99
4937.86
4937.95
4938.14
4938.41
4938.75
4939.16
4939.61
4940.09
4940.58
4941.05
4941.5
4941.88
4942.19
4942.4
4942.51
4942.51
4942.4
4942.19
4941.89
4941.5
4941.06
4940.59
4940.1
4939.62
4939.17
4938.76
4938.42
4938.15
4937.96
4937.87
4936.55
4936.65
4936.86
4937.16
4937.55
4938.01
4938.52
4939.06
4939.61
4940.15
4940.66
4941.09
4941.45
4941.69
4941.82
4941.82
4941.69
4941.45
4941.1
4940.67
4940.16
4939.62
4939.07
4938.52
4938.01
4937.56
4937.17
4936.87
4936.66
4936.56
4935.02
4935.14
4935.37
4935.7
4936.13
4936.64
4937.21
4937.81
4938.44
4939.05
4939.61
4940.11
4940.51
4940.78
4940.93
4940.93
4940.79
4940.51
4940.12
4939.62
4939.05
4938.45
4937.83
4937.22
4936.65
4936.14
4935.71
4935.38
4935.15
4935.04
4933.26
4933.39
4933.64
4934
4934.47
4935.03
4935.65
4936.33
4937.02
4937.69
4938.32
4938.87
4939.32
4939.63
4939.79
4939.79
4939.63
4939.32
4938.88
4938.32
4937.7
4937.02
4936.33
4935.67
4935.04
4934.49
4934.01
4933.65
4933.4
4933.28
4931.25
4931.38
4931.65
4932.04
4932.54
4933.14
4933.82
4934.55
4935.3
4936.03
4936.72
4937.33
4937.83
4938.17
4938.35
4938.35
4938.17
4937.83
4937.34
4936.73
4936.04
4935.3
4934.55
4933.83
4933.15
4932.55
4932.04
4931.66
4931.39
4931.26
4928.96
4929.1
4929.38
4929.79
4930.32
4930.95
4931.67
4932.44
4933.24
4934.03
4934.78
4935.43
4935.97
4936.34
4936.54
4936.53
4936.34
4935.97
4935.44
4934.78
4934.04
4933.24
4932.44
4931.67
4930.96
4930.32
4929.79
4929.39
4929.11
4928.97
4926.38
4926.53
4926.81
4927.23
4927.77
4928.42
4929.17
4929.97
4930.81
4931.64
4932.42
4933.11
4933.68
4934.08
4934.28
4934.28
4934.08
4933.68
4933.12
4932.42
4931.64
4930.81
4929.98
4929.17
4928.44
4927.78
4927.24
4926.82
4926.53
4926.39
4923.52
4923.66
4923.94
4924.36
4924.9
4925.54
4926.29
4927.1
4927.94
4928.79
4929.59
4930.3
4930.88
4931.29
4931.51
4931.51
4931.3
4930.88
4930.3
4929.59
4928.79
4927.95
4927.1
4926.29
4925.55
4924.89
4924.36
4923.94
4923.66
4923.53
4920.36
4920.5
4920.76
4921.16
4921.68
4922.29
4923.01
4923.79
4924.62
4925.44
4926.23
4926.93
4927.51
4927.92
4928.14
4928.14
4927.93
4927.51
4926.94
4926.23
4925.44
4924.62
4923.8
4923.01
4922.3
4921.67
4921.16
4920.77
4920.5
4920.36
4916.94
4917.06
4917.3
4917.65
4918.13
4918.69
4919.35
4920.06
4920.82
4921.59
4922.33
4922.99
4923.54
4923.93
4924.13
4924.13
4923.93
4923.54
4922.99
4922.33
4921.59
4920.83
4920.07
4919.35
4918.69
4918.13
4917.66
4917.31
4917.06
4916.93
4913.26
4913.37
4913.57
4913.86
4914.25
4914.73
4915.29
4915.91
4916.55
4917.22
4917.85
4918.43
4918.91
4919.26
4919.44
4919.45
4919.26
4918.92
4918.43
4917.86
4917.22
4916.55
4915.9
4915.29
4914.73
4914.26
4913.87
4913.56
4913.36
4913.26
4909.41
4909.5
4909.64
4909.88
4910.16
4910.54
4910.94
4911.42
4911.91
4912.43
4912.93
4913.38
4913.77
4914.05
4914.2
4914.2
4914.05
4913.77
4913.38
4912.93
4912.43
4911.92
4911.42
4910.95
4910.52
4910.17
4909.87
4909.65
4909.5
4909.42
4904.32
4904.41
4904.45
4904.73
4904.93
4904.87
4905.08
4905.35
4905.57
4905.87
4906.2
4906.49
4906.7
4906.81
4906.96
4906.89
4906.88
4906.56
4906.36
4906.22
4905.98
4905.72
4905.31
4905.09
4904.92
4904.69
4904.55
4904.43
4904.36
4904.32
189.055
190.619
193.507
197.892
203.536
210.378
218.393
227.21
236.54
246.036
255.199
263.473
270.286
275.158
277.749
277.724
275.23
270.259
263.416
255.166
246.011
236.539
227.147
218.369
210.452
203.525
197.862
193.495
190.491
189.112
0.0280765
0.0312079
0.0321051
0.0372172
0.0432283
0.0500553
0.0638523
0.0832662
0.10993
0.148267
0.200395
0.265946
0.338865
0.410429
0.471013
0.469425
0.412859
0.336875
0.263721
0.200114
0.148957
0.111207
0.0823087
0.0637312
0.0513527
0.0417636
0.0360992
0.032255
0.0297437
0.0300301
-0.00215774
-0.00212929
-0.00205364
-0.00153593
-0.000450418
0.00170246
0.00569069
0.0122819
0.02245
0.0374872
0.0583188
0.0848434
0.114755
0.143789
0.165878
0.165726
0.144006
0.114632
0.0847162
0.0583139
0.0375283
0.0225304
0.0122431
0.00568515
0.00173617
-0.000543535
-0.00165664
-0.00212726
-0.00230298
-0.00231513
-0.00761827
-0.0077888
-0.00806716
-0.00825755
-0.00820471
-0.00755938
-0.00592735
-0.0028893
0.00209216
0.00945166
0.0194113
0.0316298
0.0447947
0.0569863
0.0655903
0.0655609
0.0570377
0.0448092
0.0316189
0.0194025
0.00943761
0.00208221
-0.00289755
-0.00593992
-0.0075993
-0.00826688
-0.00834569
-0.00815273
-0.00788001
-0.00776658
-0.0122704
-0.0125908
-0.0131747
-0.0139081
-0.0146612
-0.0152619
-0.015437
-0.0149569
-0.0135776
-0.0111278
-0.00752748
-0.00299533
0.00190162
0.00640367
0.00946394
0.0094477
0.00639911
0.0019164
-0.00300333
-0.00753805
-0.0111612
-0.0136331
-0.0149811
-0.0154741
-0.0153077
-0.0147406
-0.0140159
-0.0132858
-0.0126652
-0.0123547
-0.0163602
-0.0167846
-0.017588
-0.0187386
-0.0200832
-0.0215587
-0.0229932
-0.0242258
-0.0251488
-0.02557
-0.0254781
-0.0249258
-0.024023
-0.0230201
-0.0222702
-0.0222872
-0.0230481
-0.0240506
-0.0249503
-0.0255354
-0.0256395
-0.0252074
-0.0242926
-0.0230428
-0.0216215
-0.0201785
-0.0188347
-0.0177254
-0.0168967
-0.0164157
-0.0195336
-0.0200408
-0.0209823
-0.0223228
-0.0240449
-0.0259806
-0.0280532
-0.0301676
-0.0322116
-0.0340407
-0.0355951
-0.0368012
-0.0376078
-0.0380521
-0.0382244
-0.0382356
-0.038112
-0.0376675
-0.0368554
-0.0356922
-0.0341263
-0.0323009
-0.0302598
-0.0281357
-0.0260671
-0.0241422
-0.0224597
-0.0211232
-0.0202067
-0.0196789
-0.0218361
-0.0223273
-0.0232976
-0.024687
-0.0264702
-0.028541
-0.0308019
-0.0331697
-0.0355556
-0.0378396
-0.0399133
-0.0416683
-0.0430375
-0.0439656
-0.0444305
-0.0444443
-0.0440038
-0.0430953
-0.0417521
-0.0399879
-0.0379246
-0.0356588
-0.0332569
-0.0308858
-0.0286243
-0.0265753
-0.0248089
-0.023421
-0.0224909
-0.0219741
-0.0231148
-0.0235722
-0.024465
-0.0258147
-0.0274314
-0.0293855
-0.0314972
-0.033738
-0.0359861
-0.0381528
-0.040146
-0.041858
-0.0432216
-0.044179
-0.0446636
-0.044671
-0.0442197
-0.0432961
-0.0419593
-0.0402543
-0.0382881
-0.0361004
-0.033842
-0.0316111
-0.0294848
-0.0275638
-0.0259208
-0.024629
-0.0237525
-0.0232749
-0.0235097
-0.0239198
-0.0247043
-0.0258024
-0.0272656
-0.0288895
-0.0306711
-0.0325621
-0.0344396
-0.0362403
-0.0378749
-0.0392722
-0.0403824
-0.0411517
-0.0415388
-0.0415695
-0.0411968
-0.0404433
-0.0393738
-0.0379871
-0.0363483
-0.0345395
-0.0326715
-0.0307844
-0.0289748
-0.0273471
-0.0259531
-0.0248387
-0.0240744
-0.0236695
-0.0231083
-0.0234297
-0.0240779
-0.0249708
-0.0261195
-0.0273913
-0.0288111
-0.0302329
-0.0316355
-0.0329719
-0.0341525
-0.035147
-0.0359254
-0.0364768
-0.036774
-0.0367843
-0.0365235
-0.0360255
-0.0352579
-0.0342517
-0.0330639
-0.0317532
-0.030342
-0.0288831
-0.0274876
-0.0262193
-0.0251153
-0.0242269
-0.0236144
-0.0232906
-0.0221492
-0.0223827
-0.022829
-0.0235607
-0.0243145
-0.0252764
-0.0262643
-0.0272335
-0.0281893
-0.0290704
-0.0298103
-0.0304109
-0.0308977
-0.0312255
-0.0313852
-0.0313963
-0.0312619
-0.0309815
-0.0305155
-0.0298964
-0.0291558
-0.0282989
-0.0273306
-0.0263194
-0.0253408
-0.0244327
-0.0236338
-0.0229826
-0.0225331
-0.0222964
-0.0206424
-0.0208202
-0.0211682
-0.0215792
-0.0221695
-0.0227722
-0.0233501
-0.023948
-0.0245037
-0.0249559
-0.0253144
-0.0256033
-0.0258251
-0.025962
-0.0260264
-0.0260459
-0.0260173
-0.025909
-0.0257057
-0.0254201
-0.0250446
-0.0245738
-0.024022
-0.0234279
-0.0228258
-0.0222434
-0.0217185
-0.0212888
-0.0210019
-0.0208552
-0.018977
-0.0190554
-0.0192538
-0.0194878
-0.0198149
-0.0201027
-0.0204105
-0.0206725
-0.0208663
-0.0209988
-0.0210738
-0.0211139
-0.0211243
-0.0211148
-0.0211102
-0.0211221
-0.0211512
-0.0211698
-0.0211629
-0.0211282
-0.0210513
-0.0209121
-0.020707
-0.020448
-0.0201549
-0.0198546
-0.0195732
-0.0193403
-0.0191915
-0.0191192
-0.0170104
-0.0170672
-0.0171271
-0.0172806
-0.0173255
-0.0174315
-0.0174925
-0.0174827
-0.0174353
-0.0173357
-0.0171833
-0.0170219
-0.0168818
-0.016775
-0.0167131
-0.0167105
-0.0167819
-0.0169166
-0.0170891
-0.0172618
-0.0174007
-0.0174914
-0.0175373
-0.0175407
-0.0174992
-0.0174236
-0.0173379
-0.017269
-0.0172299
-0.0172082
-0.0151455
-0.0151289
-0.0151168
-0.0150445
-0.0150249
-0.0149598
-0.0147922
-0.0145949
-0.0143698
-0.014088
-0.0137817
-0.0134995
-0.0132656
-0.0130914
-0.0129914
-0.0129925
-0.013108
-0.0133129
-0.0135647
-0.0138323
-0.0141039
-0.0143733
-0.0146215
-0.0148211
-0.0149608
-0.0150557
-0.0151268
-0.0151804
-0.0152124
-0.0152223
-0.013172
-0.0131392
-0.0130845
-0.0129349
-0.0128075
-0.0125601
-0.0122872
-0.0119952
-0.0116423
-0.0112414
-0.0108459
-0.010488
-0.0101866
-0.00996224
-0.00983649
-0.00983458
-0.00996289
-0.0101969
-0.0105036
-0.0108625
-0.0112569
-0.0116585
-0.0120326
-0.0123547
-0.01262
-0.0128366
-0.0130106
-0.0131388
-0.0132197
-0.0132603
-0.011407
-0.0113312
-0.0111584
-0.0110053
-0.010744
-0.0104493
-0.0101272
-0.00973579
-0.00928692
-0.0088297
-0.0083938
-0.0079914
-0.00765106
-0.00740637
-0.00728072
-0.00728994
-0.00743238
-0.00768489
-0.00802071
-0.00842226
-0.00886835
-0.00932414
-0.00975623
-0.0101469
-0.0104908
-0.0107859
-0.011029
-0.0112134
-0.0113365
-0.0114007
-0.00965543
-0.00962273
-0.0094478
-0.00923233
-0.0089402
-0.00861391
-0.00821439
-0.00776494
-0.00729959
-0.00683691
-0.00638195
-0.0059574
-0.0056078
-0.00536585
-0.00524255
-0.00524272
-0.00536788
-0.00561008
-0.00595293
-0.00637409
-0.00684092
-0.00731513
-0.00777129
-0.00820085
-0.00859674
-0.00894637
-0.00923616
-0.00945556
-0.00960121
-0.00967517
-0.00820383
-0.00804703
-0.00791015
-0.00764276
-0.00734024
-0.00696141
-0.00653898
-0.00609951
-0.00564249
-0.00517351
-0.00471004
-0.00428737
-0.00394687
-0.00371298
-0.00359275
-0.00359161
-0.00371533
-0.00395972
-0.00430456
-0.00472001
-0.0051736
-0.00563749
-0.00609657
-0.00654303
-0.00696158
-0.00733049
-0.00763308
-0.0078618
-0.00801619
-0.00809697
-0.00673298
-0.0066661
-0.0064849
-0.00625236
-0.00595093
-0.00558229
-0.00518218
-0.00474387
-0.00428274
-0.00382716
-0.00339573
-0.00300889
-0.00269491
-0.0024762
-0.00236155
-0.00235516
-0.00246096
-0.00267649
-0.00298581
-0.00336598
-0.00379329
-0.00424492
-0.00470117
-0.00514449
-0.00555458
-0.00591256
-0.00620796
-0.00643716
-0.00659779
-0.00668482
-0.00552062
-0.00549028
-0.00528776
-0.00507192
-0.00476762
-0.00441276
-0.00400437
-0.00356111
-0.00312982
-0.00272582
-0.00233895
-0.00197592
-0.00167018
-0.00145524
-0.00134379
-0.0013352
-0.00142929
-0.00162449
-0.00191052
-0.00226964
-0.00268008
-0.00311629
-0.00355263
-0.00396883
-0.00435008
-0.00468632
-0.00497125
-0.00519861
-0.00536005
-0.00544659
-0.00456722
-0.00438311
-0.00425723
-0.0040408
-0.00375138
-0.00340777
-0.00301413
-0.0026184
-0.00224943
-0.00189268
-0.001533
-0.00118854
-0.000901017
-0.000703434
-0.000603816
-0.000597104
-0.000681652
-0.000857326
-0.00111645
-0.00144238
-0.00181379
-0.00220708
-0.00260013
-0.00297732
-0.00332889
-0.00364663
-0.00392103
-0.00414059
-0.00429421
-0.00437419
-0.00353036
-0.00346848
-0.00337121
-0.00315501
-0.00288743
-0.0025707
-0.00222745
-0.00188839
-0.0015547
-0.00121825
-0.000887284
-0.000586185
-0.0003413
-0.000168915
-7.37174e-05
-5.66299e-05
-0.000122097
-0.000271956
-0.000498428
-0.000784375
-0.00111007
-0.00145717
-0.00180984
-0.00215555
-0.00248368
-0.00278272
-0.00303997
-0.00324346
-0.00338438
-0.00345777
-0.00281735
-0.00284705
-0.00267405
-0.00245076
-0.00219591
-0.00190687
-0.00159874
-0.00127987
-0.000955982
-0.00064273
-0.000357743
-0.0001101
9.63897e-05
0.000254337
0.000351312
0.000375096
0.000317955
0.000181484
-2.27857e-05
-0.000277252
-0.000565103
-0.00087312
-0.00118988
-0.00150394
-0.00180322
-0.00207516
-0.00230812
-0.00249277
-0.0026224
-0.00269197
-0.00235
-0.00223021
-0.00205985
-0.00187739
-0.00165982
-0.00140542
-0.00112418
-0.00082987
-0.000542131
-0.000278467
-4.37416e-05
0.00016742
0.000356485
0.000511156
0.00061068
0.000639028
0.000591769
0.00047529
0.000301898
8.54314e-05
-0.000162148
-0.000431051
-0.000711346
-0.000991603
-0.00125963
-0.00150386
-0.00171436
-0.00188289
-0.00200238
-0.00206659
-0.00175112
-0.00163505
-0.00155535
-0.00142366
-0.0012367
-0.00100559
-0.000751206
-0.000495227
-0.000251561
-2.44847e-05
0.00018699
0.000383055
0.000557664
0.00069714
0.000785663
0.000813359
0.000779323
0.000688508
0.000547869
0.000365066
0.000148626
-9.16937e-05
-0.00034463
-0.000598022
-0.000840142
-0.00106056
-0.00125017
-0.00140091
-0.00150581
-0.0015596
-0.0012986
-0.00131768
-0.00124642
-0.00110372
-0.000911706
-0.00069227
-0.00046716
-0.00024447
-2.17469e-05
0.000199527
0.000408156
0.000590096
0.000736129
0.000842295
0.00090636
0.000926001
0.000899581
0.000826224
0.000707021
0.000546338
0.000352385
0.000136141
-9.0439e-05
-0.000315895
-0.000529984
-0.000723584
-0.000888407
-0.00101719
-0.00110447
-0.00114717
-0.00111962
-0.0011108
-0.000986674
-0.000829121
-0.000651273
-0.000469064
-0.000287521
-9.65104e-05
0.000110441
0.000321588
0.000513483
0.000668029
0.000781549
0.000859956
0.000908488
0.000926311
0.000908892
0.000851768
0.000754334
0.000620633
0.000458382
0.000276993
8.59555e-05
-0.000105698
-0.000289182
-0.000455758
-0.000597157
-0.000706623
-0.000779959
-0.000815611
-0.000893823
-0.000798406
-0.000692572
-0.000576301
-0.000446943
-0.000310506
-0.000161669
8.46591e-06
0.000194921
0.00037782
0.000536357
0.000660982
0.000754045
0.000821911
0.000867231
0.000887219
0.000877287
0.000834859
0.000760859
0.000658642
0.000532587
0.000387519
0.000229157
6.49268e-05
-9.58816e-05
-0.000243087
-0.000367415
-0.000462268
-0.000524562
-0.000554128
-0.000599637
-0.000549282
-0.000510299
-0.000438126
-0.000335192
-0.000208358
-5.87882e-05
0.000107538
0.000275041
0.000427348
0.000556326
0.000661942
0.000746357
0.000809518
0.000849133
0.000863208
0.000851578
0.00081645
0.000759984
0.000682786
0.000584326
0.000465049
0.000328698
0.000183271
3.99295e-05
-8.96295e-05
-0.000196024
-0.000273968
-0.000322366
-0.000342943
-0.000455891
-0.000481705
-0.000457143
-0.000382845
-0.000272781
-0.000138051
1.22322e-05
0.000164643
0.000305574
0.000429074
0.000536552
0.000629695
0.000705723
0.000759247
0.000787297
0.000792662
0.000779296
0.000752432
0.0007127
0.000656903
0.000580909
0.000483496
0.000368791
0.000246068
0.000127193
2.3117e-05
-5.88631e-05
-0.000116038
-0.000149397
-0.000161674
-0.000408329
-0.000414054
-0.000359888
-0.000275373
-0.000172782
-5.92022e-05
5.90068e-05
0.000173572
0.000279371
0.000376764
0.000467036
0.000547224
0.000610587
0.000651786
0.000671194
0.00067558
0.00066967
0.000657336
0.000636102
0.000600345
0.000545468
0.000471333
0.000383258
0.0002904
0.000202656
0.000127734
6.96344e-05
2.89101e-05
4.14907e-06
-6.17513e-06
-0.000279229
-0.000233205
-0.000178941
-0.000119884
-5.74707e-05
1.05707e-05
8.52407e-05
0.000164901
0.000248003
0.000332581
0.000413686
0.00048364
0.000535908
0.000569038
0.000587122
0.000596916
0.000601548
0.000600955
0.000590857
0.000566467
0.000525735
0.000470862
0.000407497
0.00034257
0.000282001
0.000229393
0.000186078
0.000152168
0.000127821
0.000114186
-0.000103365
-6.84232e-05
-4.97009e-05
-2.91119e-05
-3.09634e-06
3.51626e-05
8.9119e-05
0.00015786
0.000237267
0.000319965
0.0003966
0.000459271
0.000504838
0.000535566
0.00055682
0.000572198
0.000581928
0.000583961
0.000574548
0.000552164
0.000518363
0.000476998
0.000432539
0.00038845
0.000346475
0.000307066
0.000270484
0.000237875
0.000211694
0.000195413
-1.92147e-05
-2.80728e-05
-2.72485e-05
-1.61902e-05
5.78069e-06
4.34542e-05
9.77051e-05
0.000165249
0.000239585
0.000312332
0.000375996
0.000426866
0.000465635
0.000495078
0.000520629
0.000539869
0.000550605
0.000552903
0.000543028
0.000523175
0.000497135
0.00046865
0.000439955
0.000411302
0.000381729
0.000350432
0.000318066
0.00028725
0.000262056
0.000246839
-2.53434e-05
-3.90978e-05
-2.24851e-05
2.66779e-06
3.62979e-05
8.02449e-05
0.00013266
0.000189224
0.00024464
0.00029439
0.00033658
0.000372611
0.000405395
0.000437134
0.000464849
0.000488034
0.000503351
0.000506273
0.000499932
0.000487247
0.000471651
0.000455272
0.000438238
0.000419194
0.000396582
0.00037009
0.000341424
0.000314135
0.000292561
0.00028049
-1.4977e-05
2.17354e-06
3.05797e-05
5.68291e-05
8.70796e-05
0.000123174
0.000162596
0.0002015
0.000236957
0.000268306
0.000297521
0.000327791
0.000361053
0.000395329
0.000427701
0.000455031
0.000473789
0.00048271
0.000481134
0.000474484
0.000464982
0.000453451
0.000439371
0.000421682
0.000399907
0.00037497
0.000349324
0.00032635
0.000309336
0.000300535
4.89637e-05
8.09387e-05
8.95521e-05
9.26415e-05
0.000102497
0.000121211
0.000146166
0.000174011
0.000203083
0.000233831
0.000268067
0.000307126
0.000348041
0.000390578
0.000429178
0.000458916
0.000477185
0.000484228
0.000484488
0.000476498
0.000464176
0.000448437
0.000429553
0.00040792
0.000384517
0.000361107
0.000339878
0.000322937
0.000311691
0.000306532
0.000102373
0.000111445
9.07399e-05
7.43824e-05
7.123e-05
8.03384e-05
9.85648e-05
0.000123699
0.000155108
0.000193243
0.000238025
0.000287214
0.000338977
0.000387074
0.000426432
0.000453836
0.000468176
0.000470439
0.000463298
0.000449852
0.000431357
0.000410008
0.00038728
0.00036482
0.000344313
0.000327242
0.000314563
0.000306568
0.000302735
0.000301968
8.50071e-05
6.41178e-05
4.15354e-05
3.4704e-05
4.03599e-05
5.31017e-05
7.00635e-05
9.15486e-05
0.000119478
0.00015538
0.000198777
0.000246926
0.000295283
0.000338315
0.000371595
0.000392797
0.000401734
0.000399881
0.0003898
0.000374379
0.0003553
0.000335787
0.000317742
0.00030292
0.000292597
0.000287145
0.000286066
0.000288015
0.000291278
0.000294158
1.70995e-05
-6.16622e-06
-5.5506e-07
2.06854e-05
4.39274e-05
6.19909e-05
7.4368e-05
8.49253e-05
9.8802e-05
0.00011932
0.000147093
0.000179854
0.000213579
0.000243816
0.000267208
0.000282097
0.00028852
0.000287729
0.000281754
0.000272957
0.000263578
0.000255033
0.00024949
0.000248183
0.000251283
0.000258005
0.000266786
0.000275627
0.000282636
0.000286464
-3.55674e-05
-3.50401e-05
-2.02838e-06
3.41233e-05
5.9907e-05
7.1725e-05
7.26997e-05
6.903e-05
6.75896e-05
7.15681e-05
8.22044e-05
9.81988e-05
0.00011676
0.000134954
0.000150613
0.000162663
0.000171058
0.000176514
0.000180201
0.000183489
0.000187694
0.00019384
0.00020238
0.000213654
0.000227074
0.000241295
0.000254589
0.00026522
0.000271887
0.000274056
-3.87374e-05
-1.57255e-05
1.62064e-05
3.78775e-05
4.53121e-05
4.10049e-05
3.03414e-05
1.98025e-05
1.20349e-05
9.82545e-06
1.31333e-05
2.07938e-05
3.11144e-05
4.2649e-05
5.45133e-05
6.63798e-05
7.83085e-05
9.06311e-05
0.000103727
0.000117945
0.000133465
0.000150236
0.00016839
0.000186973
0.000205022
0.000221356
0.000234744
0.000244129
0.000248946
0.000249259
-1.58392e-05
5.55028e-06
1.15926e-05
4.30773e-06
-9.64502e-06
-2.43667e-05
-3.5084e-05
-4.12926e-05
-4.26437e-05
-4.00981e-05
-3.52194e-05
-2.93977e-05
-2.3256e-05
-1.6693e-05
-9.0898e-06
2.88506e-07
1.19876e-05
2.6419e-05
4.34586e-05
6.27374e-05
8.36272e-05
0.000105343
0.000127052
0.000147879
0.000166861
0.000183142
0.000196076
0.000204974
0.000209709
0.000210312
-1.33044e-05
-1.39819e-05
-3.33712e-05
-5.62668e-05
-7.23855e-05
-7.87617e-05
-7.56228e-05
-6.59732e-05
-5.41307e-05
-4.37052e-05
-3.70363e-05
-3.47056e-05
-3.58813e-05
-3.86839e-05
-4.07415e-05
-4.00667e-05
-3.53623e-05
-2.58617e-05
-1.1831e-05
5.95783e-06
2.63682e-05
4.81344e-05
7.00872e-05
9.1165e-05
0.000110544
0.000127713
0.000142397
0.000153155
0.000160436
0.000163684
-4.86539e-05
-6.92947e-05
-9.09398e-05
-0.000104377
-0.000103023
-8.61529e-05
-6.00631e-05
-3.24722e-05
-9.63325e-06
4.03785e-06
7.07251e-06
5.19146e-07
-1.29189e-05
-2.94878e-05
-4.55051e-05
-5.79519e-05
-6.45711e-05
-6.44203e-05
-5.77058e-05
-4.53721e-05
-2.88164e-05
-9.56883e-06
1.09931e-05
3.17589e-05
5.18482e-05
7.0593e-05
8.71278e-05
0.000101647
0.00011231
0.000118673
-9.5519e-05
-0.000119357
-0.000127482
-0.00011742
-8.97918e-05
-5.03834e-05
-7.85912e-06
2.93785e-05
5.48501e-05
6.54838e-05
6.14463e-05
4.52062e-05
2.09945e-05
-6.4638e-06
-3.31062e-05
-5.5557e-05
-7.11798e-05
-7.90718e-05
-7.93672e-05
-7.29975e-05
-6.1381e-05
-4.60337e-05
-2.83308e-05
-9.39998e-06
9.82701e-06
2.85425e-05
4.58984e-05
6.10789e-05
7.26847e-05
8.02901e-05
-0.000106659
-0.000117806
-0.000110953
-8.6839e-05
-4.99777e-05
-7.50958e-06
3.27589e-05
6.42878e-05
8.29567e-05
8.74589e-05
7.92583e-05
6.07778e-05
3.61583e-05
9.39996e-06
-1.62694e-05
-3.80977e-05
-5.42652e-05
-6.40695e-05
-6.75532e-05
-6.53817e-05
-5.85982e-05
-4.8406e-05
-3.59246e-05
-2.20572e-05
-7.57219e-06
6.81598e-06
2.03498e-05
3.21903e-05
4.11853e-05
4.70648e-05
-5.07571e-05
-5.13613e-05
-4.47684e-05
-3.09006e-05
-1.22574e-05
7.39284e-06
2.46007e-05
3.69813e-05
4.33511e-05
4.36731e-05
3.87313e-05
2.99581e-05
1.9078e-05
7.61468e-06
-3.27435e-06
-1.26845e-05
-1.99849e-05
-2.48071e-05
-2.70468e-05