/*--------------------------------*- C++ -*----------------------------------*\
| =========                 |                                                 |
| \\      /  F ield         | OpenFOAM: The Open Source CFD Toolbox           |
|  \\    /   O peration     | Version:  2312                                  |
|   \\  /    A nd           | Website:  www.openfoam.com                      |
|    \\/     M anipulation  |                                                 |
\*---------------------------------------------------------------------------*/
FoamFile
{
    version     2.0;
    format      ascii;
    arch        "LSB;label=32;scalar=64";
    class       surfaceScalarField;
    location    "0.14934";
    object      phi;
}
// * * * * * * * * * * * * * * * * * * * * * * * * * * * * * * * * * * * * * //

dimensions      [0 3 -1 0 0 0 0];

oriented        oriented;

internalField   nonuniform List<scalar> 
263100
(
-1.02839e-10
2.05678e-10
-1.02839e-10
-2.51437e-10
1.83888e-10
-1.1113e-10
-3.75506e-10
1.77156e-10
-1.14852e-10
-4.79977e-10
1.6444e-10
-1.18608e-10
-5.61365e-10
1.48483e-10
-1.22195e-10
-6.15906e-10
1.29675e-10
-1.2584e-10
-6.41713e-10
1.09128e-10
-1.29251e-10
-6.39103e-10
8.83283e-11
-1.32254e-10
-6.09695e-10
6.84252e-11
-1.35167e-10
-5.53067e-10
4.49133e-11
-1.35837e-10
-4.75629e-10
2.77733e-11
-1.37526e-10
-3.80862e-10
1.37273e-11
-1.39802e-10
-2.71976e-10
1.86978e-12
-1.41806e-10
-1.53397e-10
-6.5562e-12
-1.43254e-10
-2.94308e-11
-1.13766e-11
-1.44137e-10
9.53746e-11
-1.22387e-11
-1.44319e-10
2.15531e-10
-8.19664e-12
-1.43681e-10
3.25116e-10
1.06867e-12
-1.42089e-10
4.20039e-10
1.34967e-11
-1.39441e-10
4.95809e-10
3.01456e-11
-1.36607e-10
5.47017e-10
5.24904e-11
-1.34419e-10
5.7312e-10
7.32253e-11
-1.30712e-10
5.73508e-10
9.31824e-11
-1.26464e-10
5.4881e-10
1.11754e-10
-1.22384e-10
5.00198e-10
1.28519e-10
-1.18504e-10
4.29366e-10
1.4302e-10
-1.14631e-10
3.38557e-10
1.54714e-10
-1.10364e-10
2.31863e-10
1.62651e-10
-1.06066e-10
1.09379e-10
2.00981e-10
-1.31295e-10
2.09739e-10
-1.54386e-10
-1.11213e-10
3.52889e-10
-1.11213e-10
-2.6034e-10
3.28011e-10
-1.17635e-10
-3.85948e-10
3.15103e-10
-1.20369e-10
-4.92404e-10
2.92151e-10
-1.23139e-10
-5.75301e-10
2.6276e-10
-1.25925e-10
-6.31047e-10
2.27966e-10
-1.28865e-10
-6.57531e-10
1.89263e-10
-1.31761e-10
-6.54408e-10
1.48794e-10
-1.34326e-10
-6.27072e-10
1.14521e-10
-1.38207e-10
-5.74591e-10
7.52743e-11
-1.43317e-10
-4.95779e-10
3.66324e-11
-1.45438e-10
-3.96508e-10
5.14418e-12
-1.47014e-10
-2.8252e-10
-1.93357e-11
-1.4848e-10
-1.58171e-10
-3.69159e-11
-1.49403e-10
-2.85208e-11
-4.61473e-11
-1.49996e-10
1.01015e-10
-4.60751e-11
-1.50303e-10
2.25295e-10
-3.61661e-11
-1.50191e-10
3.39424e-10
-1.67801e-11
-1.49423e-10
4.37684e-10
1.0733e-11
-1.48222e-10
5.13751e-10
4.73774e-11
-1.4634e-10
5.65877e-10
8.74718e-11
-1.41596e-10
5.93153e-10
1.24216e-10
-1.35606e-10
5.94381e-10
1.61537e-10
-1.31234e-10
5.68972e-10
1.97353e-10
-1.27411e-10
5.1761e-10
2.29847e-10
-1.23543e-10
4.42681e-10
2.58348e-10
-1.20418e-10
3.46906e-10
2.8325e-10
-1.18339e-10
2.25759e-10
3.1238e-10
-1.174e-10
1.03469e-10
3.59346e-10
-1.2365e-10
3.89247e-10
-1.36237e-10
-1.20508e-10
5.31257e-10
-1.20508e-10
-2.75187e-10
4.98192e-10
-1.26244e-10
-4.064e-10
4.76657e-10
-1.28521e-10
-5.17826e-10
4.41564e-10
-1.3107e-10
-6.05476e-10
3.97392e-10
-1.33743e-10
-6.65833e-10
3.45661e-10
-1.36809e-10
-6.96834e-10
2.8854e-10
-1.40215e-10
-6.97659e-10
2.28732e-10
-1.4393e-10
-6.65232e-10
1.69717e-10
-1.46166e-10
-6.09613e-10
1.17017e-10
-1.50672e-10
-5.26858e-10
5.89038e-11
-1.54122e-10
-4.22222e-10
1.14533e-11
-1.56686e-10
-2.99883e-10
-2.5899e-11
-1.58811e-10
-1.66501e-10
-5.0553e-11
-1.60542e-10
-2.78533e-11
-6.20331e-11
-1.61689e-10
1.10712e-10
-6.00493e-11
-1.62008e-10
2.43286e-10
-4.35739e-11
-1.6153e-10
3.63811e-10
-1.29514e-11
-1.60274e-10
4.66783e-10
3.00563e-11
-1.58554e-10
5.47252e-10
8.49719e-11
-1.55574e-10
6.05781e-10
1.40235e-10
-1.51013e-10
6.35716e-10
2.00911e-10
-1.49431e-10
6.35681e-10
2.61552e-10
-1.46508e-10
6.06085e-10
3.1961e-10
-1.43237e-10
5.48678e-10
3.73213e-10
-1.40528e-10
4.66966e-10
4.20458e-10
-1.38591e-10
3.61137e-10
4.63935e-10
-1.36311e-10
2.38538e-10
5.02505e-10
-1.32582e-10
1.30144e-10
5.27383e-10
-1.2884e-10
5.81985e-10
-1.0657e-10
-1.3671e-10
7.42421e-10
-1.3671e-10
-2.99207e-10
6.97378e-10
-1.41327e-10
-4.39309e-10
6.66438e-10
-1.4311e-10
-5.58824e-10
6.17862e-10
-1.45495e-10
-6.53648e-10
5.57446e-10
-1.48018e-10
-7.19994e-10
4.87275e-10
-1.51099e-10
-7.55349e-10
4.10163e-10
-1.54666e-10
-7.58223e-10
3.29397e-10
-1.58748e-10
-7.27444e-10
2.47797e-10
-1.62683e-10
-6.62132e-10
1.69508e-10
-1.64962e-10
-5.75055e-10
1.01145e-10
-1.70359e-10
-4.59988e-10
3.4099e-11
-1.7323e-10
-3.26028e-10
-1.5019e-11
-1.75514e-10
-1.78955e-10
-4.71307e-11
-1.77121e-10
-2.56525e-11
-6.07366e-11
-1.78134e-10
1.26842e-10
-5.56099e-11
-1.78499e-10
2.72194e-10
-3.19578e-11
-1.77808e-10
4.04219e-10
9.72058e-12
-1.76092e-10
5.16118e-10
6.85671e-11
-1.7354e-10
6.06605e-10
1.38986e-10
-1.70283e-10
6.67378e-10
2.19077e-10
-1.68565e-10
6.97153e-10
3.04662e-10
-1.65678e-10
6.94983e-10
3.91839e-10
-1.63037e-10
6.61406e-10
4.77112e-10
-1.60805e-10
5.98208e-10
5.5759e-10
-1.58965e-10
5.07358e-10
6.31041e-10
-1.57164e-10
3.94947e-10
6.96268e-10
-1.55494e-10
2.67782e-10
7.50251e-10
-1.53651e-10
1.25853e-10
7.86861e-10
-1.53004e-10
8.28523e-10
-1.42469e-10
-1.59545e-10
1.00245e-09
-1.59545e-10
-3.3366e-10
9.45761e-10
-1.63018e-10
-4.8636e-10
9.04166e-10
-1.6447e-10
-6.17229e-10
8.40255e-10
-1.66681e-10
-7.21658e-10
7.60967e-10
-1.69019e-10
-7.95527e-10
6.69223e-10
-1.71901e-10
-8.3559e-10
5.68497e-10
-1.75428e-10
-8.40749e-10
4.64114e-10
-1.79734e-10
-8.08231e-10
3.55721e-10
-1.83494e-10
-7.40443e-10
2.52921e-10
-1.87125e-10
-6.3763e-10
1.5908e-10
-1.89732e-10
-5.11104e-10
7.90514e-11
-1.93965e-10
-3.60442e-10
1.37701e-11
-1.96233e-10
-1.94499e-10
-2.78777e-11
-1.97432e-10
-2.14086e-11
-4.47636e-11
-1.98255e-10
1.51097e-10
-3.81215e-11
-1.97888e-10
3.1532e-10
-8.1433e-12
-1.96432e-10
4.63245e-10
4.60826e-11
-1.94807e-10
5.88781e-10
1.2127e-10
-1.9205e-10
6.86578e-10
2.13329e-10
-1.89737e-10
7.52112e-10
3.19541e-10
-1.87107e-10
7.83249e-10
4.34789e-10
-1.84881e-10
7.79302e-10
5.54338e-10
-1.83157e-10
7.40961e-10
6.73266e-10
-1.81707e-10
6.70302e-10
7.87033e-10
-1.80523e-10
5.70577e-10
8.91321e-10
-1.79324e-10
4.4699e-10
9.82118e-10
-1.77631e-10
3.06093e-10
1.05594e-09
-1.75831e-10
1.49556e-10
1.10657e-09
-1.73567e-10
1.14143e-09
-1.68381e-10
-1.89784e-10
1.3331e-09
-1.89784e-10
-3.80046e-10
1.26763e-09
-1.91964e-10
-5.50126e-10
1.21365e-09
-1.93217e-10
-6.96442e-10
1.13137e-09
-1.95145e-10
-8.13623e-10
1.02885e-09
-1.97192e-10
-8.96765e-10
9.09954e-10
-1.99799e-10
-9.42649e-10
7.79468e-10
-2.02617e-10
-9.48412e-10
6.44093e-10
-2.06665e-10
-9.1238e-10
5.03047e-10
-2.10343e-10
-8.3608e-10
3.69129e-10
-2.13746e-10
-7.22379e-10
2.46628e-10
-2.16717e-10
-5.76068e-10
1.41852e-10
-2.19173e-10
-4.0403e-10
5.804e-11
-2.21826e-10
-2.12758e-10
1.28694e-12
-2.22763e-10
-1.47036e-11
-2.00436e-11
-2.23662e-10
1.82992e-10
-1.46336e-11
-2.22583e-10
3.71567e-10
1.93254e-11
-2.19786e-10
5.39778e-10
8.78264e-11
-2.17431e-10
6.81956e-10
1.81942e-10
-2.14702e-10
7.91755e-10
3.00169e-10
-2.12586e-10
8.65407e-10
4.37597e-10
-2.10562e-10
9.00406e-10
5.88644e-10
-2.08745e-10
8.95859e-10
7.47209e-10
-2.07108e-10
8.52612e-10
9.06453e-10
-2.05675e-10
7.73048e-10
1.05925e-09
-2.0402e-10
6.60949e-10
1.19858e-09
-2.01867e-10
5.21266e-10
1.31776e-09
-1.99056e-10
3.60805e-10
1.41189e-09
-1.95856e-10
1.84114e-10
1.47568e-09
-1.92722e-10
1.51454e-09
-1.89707e-10
-2.28313e-10
1.75881e-09
-2.28313e-10
-4.40558e-10
1.68598e-09
-2.28917e-10
-6.34226e-10
1.61699e-09
-2.29609e-10
-8.01361e-10
1.51162e-09
-2.31117e-10
-9.35344e-10
1.37926e-09
-2.32897e-10
-1.03041e-09
1.22504e-09
-2.35146e-10
-1.08201e-09
1.05508e-09
-2.3775e-10
-1.08781e-09
8.77723e-10
-2.39861e-10
-1.04678e-09
6.9542e-10
-2.4329e-10
-9.58998e-10
5.20524e-10
-2.46483e-10
-8.27763e-10
3.59976e-10
-2.4914e-10
-6.58248e-10
2.21609e-10
-2.5132e-10
-4.59587e-10
1.12014e-10
-2.52931e-10
-2.38818e-10
3.38409e-11
-2.53113e-10
-7.92262e-12
9.19889e-13
-2.5271e-10
2.22975e-10
1.98498e-12
-2.51039e-10
4.39496e-10
4.57715e-11
-2.50464e-10
6.34402e-10
1.27691e-10
-2.46913e-10
7.99345e-10
2.45943e-10
-2.45547e-10
9.27076e-10
3.96172e-10
-2.43705e-10
1.01387e-09
5.7125e-10
-2.41975e-10
1.0562e-09
7.65363e-10
-2.3998e-10
1.05272e-09
9.70115e-10
-2.3779e-10
1.00403e-09
1.17593e-09
-2.35294e-10
9.12531e-10
1.37273e-09
-2.32221e-10
7.82466e-10
1.55098e-09
-2.28819e-10
6.19122e-10
1.70208e-09
-2.2528e-10
4.29436e-10
1.81972e-09
-2.22111e-10
2.20358e-10
1.89897e-09
-2.19782e-10
1.94557e-09
-2.18328e-10
-2.74272e-10
2.29941e-09
-2.74272e-10
-5.17609e-10
2.21776e-09
-2.72994e-10
-7.4328e-10
2.12981e-09
-2.72994e-10
-9.38257e-10
1.99472e-09
-2.74382e-10
-1.09444e-09
1.82354e-09
-2.75893e-10
-1.20502e-09
1.62329e-09
-2.77808e-10
-1.26475e-09
1.40218e-09
-2.80082e-10
-1.26943e-09
1.16934e-09
-2.82e-10
-1.22033e-09
9.33664e-10
-2.84239e-10
-1.11802e-09
7.07646e-10
-2.8757e-10
-9.63944e-10
4.96722e-10
-2.89818e-10
-7.65502e-10
3.15329e-10
-2.91981e-10
-5.31185e-10
1.70142e-10
-2.93502e-10
-2.74971e-10
7.00545e-11
-2.95528e-10
-3.21067e-12
1.70706e-11
-2.94035e-10
2.66e-10
1.64792e-11
-2.93733e-10
5.19781e-10
7.0714e-11
-2.93129e-10
7.50594e-10
1.69589e-10
-2.91347e-10
9.47277e-10
3.17334e-10
-2.90089e-10
1.09987e-09
5.08204e-10
-2.8858e-10
1.20568e-09
7.2686e-10
-2.85593e-10
1.25887e-09
9.72118e-10
-2.82748e-10
1.25731e-09
1.23053e-09
-2.79213e-10
1.20126e-09
1.48951e-09
-2.75146e-10
1.09326e-09
1.73621e-09
-2.70838e-10
9.37944e-10
1.9588e-09
-2.6664e-10
7.41716e-10
2.14706e-09
-2.62955e-10
5.12703e-10
2.29359e-09
-2.60245e-10
2.60606e-10
2.39339e-09
-2.5938e-10
2.45064e-09
-2.60725e-10
-3.271e-10
2.9679e-09
-3.271e-10
-6.14894e-10
2.87476e-09
-3.2475e-10
-8.8342e-10
2.762e-09
-3.24423e-10
-1.11542e-09
2.58833e-09
-3.25527e-10
-1.30104e-09
2.3675e-09
-3.26947e-10
-1.432e-09
2.10897e-09
-3.29026e-10
-1.50218e-09
1.82364e-09
-3.31571e-10
-1.50779e-09
1.52346e-09
-3.34446e-10
-1.44816e-09
1.22095e-09
-3.37769e-10
-1.32377e-09
9.28981e-10
-3.40611e-10
-1.14073e-09
6.59652e-10
-3.44132e-10
-9.05223e-10
4.25913e-10
-3.47066e-10
-6.27841e-10
2.38525e-10
-3.49424e-10
-3.24508e-10
1.12163e-10
-3.51924e-10
-4.84206e-12
4.04131e-11
-3.52539e-10
3.14164e-10
3.80564e-11
-3.53267e-10
6.17322e-10
1.0559e-10
-3.53681e-10
8.95336e-10
2.26656e-10
-3.53139e-10
1.13282e-09
4.1192e-10
-3.51693e-10
1.31977e-09
6.50201e-10
-3.49171e-10
1.45026e-09
9.21737e-10
-3.45415e-10
1.51692e-09
1.22687e-09
-3.40883e-10
1.51677e-09
1.54728e-09
-3.35538e-10
1.44988e-09
1.86743e-09
-3.29862e-10
1.3193e-09
2.17197e-09
-3.24484e-10
1.13045e-09
2.44747e-09
-3.2006e-10
8.91777e-10
2.68169e-09
-3.17101e-10
6.14042e-10
2.86566e-09
-3.15779e-10
3.10132e-10
2.99285e-09
-3.16143e-10
3.06381e-09
-3.17964e-10
-3.88018e-10
3.77361e-09
-3.88018e-10
-7.37412e-10
3.66733e-09
-3.85892e-10
-1.06227e-09
3.5221e-09
-3.85863e-10
-1.34281e-09
3.30042e-09
-3.87561e-10
-1.56703e-09
3.01862e-09
-3.89713e-10
-1.72492e-09
2.68927e-09
-3.92846e-10
-1.809e-09
2.32655e-09
-3.96824e-10
-1.81483e-09
1.9459e-09
-4.01511e-10
-1.74137e-09
1.56336e-09
-4.06576e-10
-1.59084e-09
1.19485e-09
-4.11631e-10
-1.36961e-09
8.56334e-10
-4.16491e-10
-1.08728e-09
5.63298e-10
-4.20661e-10
-7.56982e-10
3.29902e-10
-4.24245e-10
-3.89989e-10
1.67791e-10
-4.26317e-10
-1.02704e-11
8.71286e-11
-4.30879e-10
3.70718e-10
8.49344e-11
-4.32739e-10
7.41809e-10
1.60914e-10
-4.31439e-10
1.0777e-09
3.18494e-10
-4.32707e-10
1.36494e-09
5.50484e-10
-4.30748e-10
1.59776e-09
8.376e-10
-4.25431e-10
1.75745e-09
1.17701e-09
-4.21047e-10
1.83899e-09
1.55227e-09
-4.14698e-10
1.83864e-09
1.94559e-09
-4.08101e-10
1.75644e-09
2.33841e-09
-4.01589e-10
1.59718e-09
2.71226e-09
-3.96128e-10
1.36653e-09
3.05415e-09
-3.92268e-10
1.07673e-09
3.34597e-09
-3.89989e-10
7.41179e-10
3.57714e-09
-3.88647e-10
3.75599e-10
3.73859e-09
-3.88357e-10
3.82829e-09
-3.89346e-10
-4.62304e-10
4.73289e-09
-4.62304e-10
-8.92189e-10
4.61236e-09
-4.61797e-10
-1.28916e-09
4.42647e-09
-4.62552e-10
-1.6316e-09
4.14681e-09
-4.65294e-10
-1.90499e-09
3.7926e-09
-4.69055e-10
-2.09703e-09
3.37981e-09
-4.74312e-10
-2.1985e-09
2.92604e-09
-4.80718e-10
-2.20417e-09
2.45109e-09
-4.88026e-10
-2.11294e-09
1.9749e-09
-4.95657e-10
-1.92852e-09
1.51778e-09
-5.03034e-10
-1.6592e-09
1.09978e-09
-5.09698e-10
-1.31722e-09
7.40149e-10
-5.15628e-10
-9.17984e-10
4.55886e-10
-5.2073e-10
-4.78464e-10
2.60016e-10
-5.25082e-10
-1.5346e-11
1.60737e-10
-5.27332e-10
4.50369e-10
1.61163e-10
-5.2962e-10
8.97553e-10
2.60135e-10
-5.31428e-10
1.30484e-09
4.5748e-10
-5.2945e-10
1.66109e-09
7.35808e-10
-5.24278e-10
1.9423e-09
1.09173e-09
-5.19308e-10
2.13649e-09
1.50788e-09
-5.12088e-10
2.23487e-09
1.96652e-09
-5.04096e-10
2.23319e-09
2.44743e-09
-4.9653e-10
2.13316e-09
2.92784e-09
-4.89969e-10
1.93701e-09
3.39013e-09
-4.84544e-10
1.65785e-09
3.81149e-09
-4.80452e-10
1.30798e-09
4.17463e-09
-4.77563e-10
9.03389e-10
4.4638e-09
-4.7521e-10
4.61621e-10
4.666e-09
-4.72688e-10
4.77622e-09
-4.69509e-10
-5.56235e-10
5.87535e-09
-5.56235e-10
-1.0863e-09
5.73647e-09
-5.55869e-10
-1.57268e-09
5.50252e-09
-5.58357e-10
-1.99241e-09
5.15601e-09
-5.63393e-10
-2.32685e-09
4.7175e-09
-5.69953e-10
-2.56116e-09
4.20775e-09
-5.78463e-10
-2.68323e-09
3.64636e-09
-5.87635e-10
-2.68762e-09
3.06043e-09
-5.97656e-10
-2.57362e-09
2.47398e-09
-6.07605e-10
-2.34657e-09
1.91284e-09
-6.16806e-10
-2.01718e-09
1.40229e-09
-6.25164e-10
-1.60041e-09
9.65541e-10
-6.32478e-10
-1.11409e-09
6.22195e-10
-6.38802e-10
-5.79401e-10
3.88254e-10
-6.44077e-10
-1.68214e-11
2.69607e-10
-6.47252e-10
5.48882e-10
2.73202e-10
-6.48509e-10
1.09336e-09
3.95811e-10
-6.46988e-10
1.59409e-09
6.34611e-10
-6.42633e-10
2.02385e-09
9.77874e-10
-6.36991e-10
2.36418e-09
1.41264e-09
-6.29381e-10
2.59895e-09
1.92065e-09
-6.20819e-10
2.71767e-09
2.48039e-09
-6.12086e-10
2.71554e-09
3.0679e-09
-6.03709e-10
2.59251e-09
3.65749e-09
-5.96026e-10
2.35718e-09
4.22441e-09
-5.89462e-10
2.02075e-09
4.7439e-09
-5.8444e-10
1.59801e-09
5.19224e-09
-5.7895e-10
1.10718e-09
5.5491e-09
-5.73607e-10
5.68661e-10
5.79737e-09
-5.68689e-10
5.929e-09
-5.63885e-10
-6.7429e-10
7.24381e-09
-6.7429e-10
-1.3284e-09
7.08763e-09
-6.77426e-10
-1.92477e-09
6.79702e-09
-6.82193e-10
-2.43825e-09
6.37173e-09
-6.89399e-10
-2.8463e-09
5.83378e-09
-6.98496e-10
-3.12984e-09
5.20728e-09
-7.08985e-10
-3.2765e-09
4.51921e-09
-7.21166e-10
-3.27846e-09
3.80002e-09
-7.33556e-10
-3.13621e-09
3.08147e-09
-7.45378e-10
-2.85687e-09
2.39573e-09
-7.56251e-10
-2.45382e-09
1.77425e-09
-7.66043e-10
-1.94503e-09
1.2446e-09
-7.74712e-10
-1.3521e-09
8.29547e-10
-7.82008e-10
-6.98584e-10
5.45898e-10
-7.87191e-10
-1.268e-11
4.03472e-10
-7.90164e-10
6.77164e-10
4.07903e-10
-7.90074e-10
1.33971e-09
5.58258e-10
-7.87252e-10
1.9454e-09
8.49163e-10
-7.81503e-10
2.46568e-09
1.2687e-09
-7.73955e-10
2.87689e-09
1.79972e-09
-7.6508e-10
3.16068e-09
2.41996e-09
-7.55421e-10
3.30499e-09
3.1033e-09
-7.45427e-10
3.30379e-09
3.82137e-09
-7.35461e-10
3.15816e-09
4.5419e-09
-7.2504e-10
2.87626e-09
5.2345e-09
-7.1529e-10
2.4698e-09
5.86971e-09
-7.05683e-10
1.95596e-09
6.4173e-09
-6.96478e-10
1.35604e-09
6.85153e-09
-6.87982e-10
6.95543e-10
7.15149e-09
-6.81802e-10
7.30631e-09
-6.78889e-10
-8.22882e-10
8.89878e-09
-8.22882e-10
-1.62595e-09
8.72225e-09
-8.28609e-10
-2.35551e-09
8.36481e-09
-8.35516e-10
-2.98219e-09
7.84548e-09
-8.45257e-10
-3.47853e-09
7.18828e-09
-8.57245e-10
-3.82199e-09
6.42185e-09
-8.70844e-10
-3.99695e-09
5.57959e-09
-8.85357e-10
-3.99597e-09
4.69931e-09
-8.99809e-10
-3.82008e-09
3.82152e-09
-9.14296e-10
-3.47795e-09
2.98488e-09
-9.27673e-10
-2.98554e-09
2.22802e-09
-9.39783e-10
-2.36413e-09
1.58366e-09
-9.5061e-10
-1.63958e-09
1.07835e-09
-9.59523e-10
-8.41902e-10
7.31759e-10
-9.65564e-10
-5.11779e-12
5.56824e-10
-9.68268e-10
8.34322e-10
5.60696e-10
-9.67289e-10
1.63866e-09
7.43614e-10
-9.62997e-10
2.37196e-09
1.09912e-09
-9.56436e-10
3.00118e-09
1.61249e-09
-9.47694e-10
3.49876e-09
2.26215e-09
-9.37463e-10
3.84355e-09
3.02039e-09
-9.26136e-10
4.02141e-09
3.85481e-09
-9.13817e-10
4.02293e-09
4.7329e-09
-9.00673e-10
3.85203e-09
5.60809e-09
-8.85788e-10
3.51228e-09
6.45133e-09
-8.70637e-10
3.01803e-09
7.22257e-09
-8.56162e-10
2.3897e-09
7.88626e-09
-8.43681e-10
1.6544e-09
8.4111e-09
-8.34293e-10
8.44951e-10
8.77206e-09
-8.28701e-10
8.95494e-09
-8.27142e-10
-1.00681e-09
1.09129e-08
-1.00681e-09
-1.98821e-09
1.07064e-08
-1.01458e-09
-2.8785e-09
1.02695e-08
-1.02379e-09
-3.64195e-09
9.63651e-09
-1.03642e-09
-4.24507e-09
8.83451e-09
-1.05139e-09
-4.66077e-09
7.89836e-09
-1.06835e-09
-4.87092e-09
6.86966e-09
-1.08645e-09
-4.86708e-09
5.79536e-09
-1.10512e-09
-4.6528e-09
4.72756e-09
-1.12397e-09
-4.23561e-09
3.70737e-09
-1.14147e-09
-3.63482e-09
2.78542e-09
-1.15796e-09
-2.87593e-09
1.99969e-09
-1.17259e-09
-1.99059e-09
1.38162e-09
-1.18418e-09
-1.01685e-09
9.56033e-10
-1.1916e-09
2.98628e-12
7.39797e-10
-1.19463e-09
1.02375e-09
7.42979e-10
-1.19346e-09
2.00003e-09
9.66692e-10
-1.18875e-09
2.88867e-09
1.40241e-09
-1.18061e-09
3.65141e-09
2.03174e-09
-1.17015e-09
4.25587e-09
2.82724e-09
-1.15736e-09
4.67618e-09
3.75463e-09
-1.14231e-09
4.8946e-09
4.77283e-09
-1.1249e-09
4.9036e-09
5.8387e-09
-1.10546e-09
4.69706e-09
6.90536e-09
-1.08586e-09
4.2838e-09
7.92794e-09
-1.06576e-09
3.68025e-09
8.86125e-09
-1.04745e-09
2.91212e-09
9.66298e-09
-1.03227e-09
2.01355e-09
1.0296e-08
-1.02075e-09
1.02528e-09
1.07316e-08
-1.01357e-09
1.09522e-08
-1.01153e-09
-1.23059e-09
1.33668e-08
-1.23059e-09
-2.42687e-09
1.31146e-08
-1.24003e-09
-3.51187e-09
1.25821e-08
-1.25145e-09
-4.44137e-09
1.18111e-08
-1.26757e-09
-5.17438e-09
1.08342e-08
-1.28731e-09
-5.67908e-09
9.69468e-09
-1.30982e-09
-5.93436e-09
8.44382e-09
-1.33415e-09
-5.93031e-09
7.13865e-09
-1.35946e-09
-5.667e-09
5.83926e-09
-1.38394e-09
-5.16107e-09
4.60568e-09
-1.41029e-09
-4.42796e-09
3.4817e-09
-1.43308e-09
-3.50105e-09
2.52392e-09
-1.45308e-09
-2.41984e-09
1.76776e-09
-1.46811e-09
-1.23171e-09
1.24548e-09
-1.47753e-09
1.04943e-11
9.79773e-10
-1.48144e-09
1.25182e-09
9.83572e-10
-1.48024e-09
2.4379e-09
1.25831e-09
-1.47449e-09
3.51758e-09
1.79268e-09
-1.46439e-09
4.44512e-09
2.56308e-09
-1.45033e-09
5.18127e-09
3.53522e-09
-1.43245e-09
5.69478e-09
4.66586e-09
-1.41079e-09
5.96268e-09
5.90535e-09
-1.38634e-09
5.97202e-09
7.19995e-09
-1.35979e-09
5.7197e-09
8.49431e-09
-1.33317e-09
5.21481e-09
9.733e-09
-1.30777e-09
4.47848e-09
1.08617e-08
-1.28501e-09
3.54294e-09
1.18303e-08
-1.26556e-09
2.44955e-09
1.25955e-08
-1.24999e-09
1.24698e-09
1.31247e-08
-1.23977e-09
1.33936e-08
-1.23629e-09
-1.49994e-09
1.63498e-08
-1.49994e-09
-2.95765e-09
1.60353e-08
-1.51107e-09
-4.27916e-09
1.5388e-08
-1.5266e-09
-5.41074e-09
1.44518e-08
-1.54866e-09
-6.30304e-09
1.3267e-08
-1.5757e-09
-6.91777e-09
1.18865e-08
-1.60664e-09
-7.22939e-09
1.03728e-08
-1.64031e-09
-7.22589e-09
8.79458e-09
-1.67544e-09
-6.90762e-09
7.22247e-09
-1.71106e-09
-6.28637e-09
5.72455e-09
-1.74427e-09
-5.39264e-09
4.3635e-09
-1.77569e-09
-4.26134e-09
3.19682e-09
-1.8018e-09
-2.94224e-09
2.27352e-09
-1.8211e-09
-1.49439e-09
1.63569e-09
-1.83364e-09
1.76247e-11
1.31193e-09
-1.83918e-09
1.52786e-09
1.31758e-09
-1.8382e-09
2.97107e-09
1.65391e-09
-1.8308e-09
4.2856e-09
2.306e-09
-1.81702e-09
5.41542e-09
3.24433e-09
-1.79705e-09
6.31184e-09
4.42632e-09
-1.77087e-09
6.936e-09
5.79929e-09
-1.74018e-09
7.25954e-09
7.30322e-09
-1.70629e-09
7.26671e-09
8.87307e-09
-1.67124e-09
6.95559e-09
1.04418e-08
-1.63687e-09
6.33893e-09
1.19416e-08
-1.60439e-09
5.4433e-09
1.33071e-08
-1.57459e-09
4.30731e-09
1.44785e-08
-1.54814e-09
2.97939e-09
1.54055e-08
-1.52662e-09
1.51716e-09
1.60484e-08
-1.51247e-09
1.63707e-08
-1.50782e-09
-1.82545e-09
1.99714e-08
-1.82545e-09
-3.60029e-09
1.95821e-08
-1.84034e-09
-5.20929e-09
1.87989e-08
-1.86196e-09
-6.58694e-09
1.7667e-08
-1.89215e-09
-7.67342e-09
1.62364e-08
-1.9293e-09
-8.42229e-09
1.45713e-08
-1.97173e-09
-8.80254e-09
1.27464e-08
-2.01756e-09
-8.7987e-09
1.0843e-08
-2.0653e-09
-8.41067e-09
8.94405e-09
-2.11285e-09
-7.65446e-09
7.13042e-09
-2.15773e-09
-6.56263e-09
5.47908e-09
-2.19793e-09
-5.18314e-09
4.06062e-09
-2.23094e-09
-3.57712e-09
2.9378e-09
-2.25671e-09
-1.81534e-09
2.16157e-09
-2.27373e-09
2.44384e-11
1.76837e-09
-2.28214e-09
1.86198e-09
1.77607e-09
-2.28154e-09
3.62047e-09
2.18183e-09
-2.27121e-09
5.22132e-09
2.97277e-09
-2.25185e-09
6.59651e-09
4.10765e-09
-2.22295e-09
7.6861e-09
5.53737e-09
-2.18681e-09
8.44184e-09
7.19861e-09
-2.14515e-09
8.82985e-09
9.01908e-09
-2.10018e-09
8.83265e-09
1.09201e-08
-2.05428e-09
8.4502e-09
1.28196e-08
-2.00914e-09
7.69928e-09
1.46347e-08
-1.96558e-09
6.61177e-09
1.62862e-08
-1.9247e-09
5.23261e-09
1.77028e-08
-1.88865e-09
3.6192e-09
1.88233e-08
-1.86001e-09
1.84234e-09
1.95976e-08
-1.84221e-09
1.99767e-08
-1.83652e-09
-2.22191e-09
2.43737e-08
-2.22191e-09
-4.37907e-09
2.39001e-08
-2.24186e-09
-6.33521e-09
2.29567e-08
-2.27116e-09
-8.01024e-09
2.1594e-08
-2.31184e-09
-9.33156e-09
1.98724e-08
-2.36156e-09
-1.02428e-08
1.78687e-08
-2.41802e-09
-1.07057e-08
1.56716e-08
-2.47902e-09
-1.07008e-08
1.33768e-08
-2.54202e-09
-1.0228e-08
1.10826e-08
-2.60428e-09
-9.30762e-09
8.88661e-09
-2.66277e-09
-7.9795e-09
6.88361e-09
-2.71525e-09
-6.3022e-09
5.16147e-09
-2.75961e-09
-4.35015e-09
3.79855e-09
-2.79454e-09
-2.20896e-09
2.85694e-09
-2.81911e-09
2.88621e-11
2.37905e-09
-2.83196e-09
2.26668e-09
2.38539e-09
-2.8317e-09
4.40563e-09
2.87453e-09
-2.81805e-09
6.35454e-09
3.82477e-09
-2.79043e-09
8.02673e-09
5.19282e-09
-2.7517e-09
9.3488e-09
6.91802e-09
-2.7035e-09
1.02626e-08
8.92494e-09
-2.64836e-09
1.07285e-08
1.11264e-08
-2.58904e-09
1.07273e-08
1.34265e-08
-2.52781e-09
1.026e-08
1.57243e-08
-2.46613e-09
9.34668e-09
1.79186e-08
-2.40615e-09
8.02469e-09
1.99136e-08
-2.35053e-09
6.34808e-09
2.16223e-08
-2.30259e-09
4.38816e-09
2.29695e-08
-2.26585e-09
2.2322e-09
2.38956e-08
-2.24307e-09
2.43466e-08
-2.2359e-09
-2.7042e-09
2.97338e-08
-2.7042e-09
-5.31975e-09
2.91665e-08
-2.72981e-09
-7.69319e-09
2.80336e-08
-2.76808e-09
-9.72605e-09
2.63967e-08
-2.82115e-09
-1.13306e-08
2.43278e-08
-2.88602e-09
-1.24382e-08
2.19181e-08
-2.96006e-09
-1.30019e-08
1.92722e-08
-3.04023e-09
-1.29974e-08
1.65035e-08
-3.12329e-09
-1.24246e-08
1.37301e-08
-3.20557e-09
-1.13082e-08
1.10712e-08
-3.2837e-09
-9.69679e-09
8.64372e-09
-3.3546e-09
-7.66174e-09
6.55696e-09
-3.41557e-09
-5.29195e-09
4.90598e-09
-3.46442e-09
-2.69006e-09
3.76522e-09
-3.49907e-09
3.12894e-11
3.18446e-09
-3.51706e-09
2.75261e-09
3.18847e-09
-3.51655e-09
5.35465e-09
3.7751e-09
-3.49786e-09
7.72277e-09
4.91856e-09
-3.46193e-09
9.75275e-09
6.56778e-09
-3.41107e-09
1.13556e-08
8.65044e-09
-3.34778e-09
1.24618e-08
1.10758e-08
-3.27494e-09
1.30244e-08
1.37375e-08
-3.19511e-09
1.30203e-08
1.65182e-08
-3.11114e-09
1.24503e-08
1.92945e-08
-3.02643e-09
1.13376e-08
2.19432e-08
-2.94466e-09
9.72808e-09
2.43474e-08
-2.87049e-09
7.68996e-09
2.64017e-08
-2.80817e-09
5.31259e-09
2.80174e-08
-2.76071e-09
2.70278e-09
2.91285e-08
-2.7303e-09
2.96822e-08
-2.71777e-09
-3.28682e-09
3.62624e-08
-3.28682e-09
-6.45037e-09
3.55857e-08
-3.31775e-09
-9.32439e-09
3.4227e-08
-3.36629e-09
-1.17881e-08
3.22627e-08
-3.43454e-09
-1.37354e-08
2.97779e-08
-3.51909e-09
-1.50826e-08
2.68803e-08
-3.61668e-09
-1.57713e-08
2.36936e-08
-3.72331e-09
-1.57709e-08
2.03533e-08
-3.83477e-09
-1.50808e-08
1.70025e-08
-3.94595e-09
-1.37306e-08
1.37877e-08
-4.05237e-09
-1.17794e-08
1.08525e-08
-4.14964e-09
-9.31202e-09
8.33038e-09
-4.23395e-09
-6.43545e-09
6.33561e-09
-4.30159e-09
-3.27451e-09
4.95669e-09
-4.3486e-09
3.23567e-11
4.2535e-09
-4.3723e-09
3.33897e-09
4.25619e-09
-4.37135e-09
6.49892e-09
4.96319e-09
-4.34662e-09
9.373e-09
6.34322e-09
-4.29956e-09
1.18353e-08
8.33517e-09
-4.23239e-09
1.37789e-08
1.08518e-08
-4.14787e-09
1.51199e-08
1.37829e-08
-4.0491e-09
1.5801e-08
1.69985e-08
-3.93988e-09
1.5793e-08
2.03553e-08
-3.82488e-09
1.50956e-08
2.37026e-08
-3.7095e-09
1.37381e-08
2.68916e-08
-3.60007e-09
1.1779e-08
2.97818e-08
-3.50238e-09
9.30562e-09
3.22485e-08
-3.42058e-09
6.42776e-09
3.41915e-08
-3.3571e-09
3.27389e-09
3.55371e-08
-3.3141e-09
3.62232e-08
-3.29129e-09
-3.98467e-09
4.41984e-08
-3.98467e-09
-7.80414e-09
4.33871e-08
-4.02067e-09
-1.128e-08
4.17597e-08
-4.08262e-09
-1.42642e-08
3.94052e-08
-4.17135e-09
-1.66278e-08
3.64245e-08
-4.28328e-09
-1.82677e-08
3.29442e-08
-4.41383e-09
-1.91112e-08
2.91113e-08
-4.55789e-09
-1.91196e-08
2.50887e-08
-4.70904e-09
-1.82911e-08
2.10502e-08
-4.86025e-09
-1.66609e-08
1.71751e-08
-5.00541e-09
-1.42994e-08
1.36381e-08
-5.13837e-09
-1.13083e-08
1.05996e-08
-5.25334e-09
-7.81732e-09
8.19595e-09
-5.3444e-09
-3.97947e-09
6.53377e-09
-5.40679e-09
3.52481e-11
5.68597e-09
-5.43773e-09
4.04779e-09
5.69007e-09
-5.43599e-09
7.88071e-09
6.54474e-09
-5.40295e-09
1.13657e-08
8.21231e-09
-5.34021e-09
1.43509e-08
1.06185e-08
-5.24979e-09
1.67069e-08
1.36569e-08
-5.13497e-09
1.83313e-08
1.7193e-08
-5.0002e-09
1.91532e-08
2.10679e-08
-4.85128e-09
1.91365e-08
2.51074e-08
-4.69545e-09
1.82814e-08
2.91304e-08
-4.54115e-09
1.66265e-08
3.29588e-08
-4.39619e-09
1.42479e-08
3.64268e-08
-4.26649e-09
1.12533e-08
3.93909e-08
-4.15652e-09
7.77559e-09
4.17354e-08
-4.06924e-09
3.96823e-09
4.33692e-08
-4.00902e-09
4.42011e-08
-3.97341e-09
-4.81596e-09
5.38109e-08
-4.81596e-09
-9.42359e-09
5.28348e-08
-4.85977e-09
-1.36244e-08
5.08897e-08
-4.94031e-09
-1.72371e-08
4.80742e-08
-5.0582e-09
-2.01045e-08
4.45074e-08
-5.20805e-09
-2.20997e-08
4.03383e-08
-5.38415e-09
-2.31323e-08
3.57416e-08
-5.57867e-09
-2.31539e-08
3.09132e-08
-5.78237e-09
-2.21609e-08
2.60643e-08
-5.98671e-09
-2.01943e-08
2.14114e-08
-6.18294e-09
-1.73377e-08
1.71646e-08
-6.36245e-09
-1.37139e-08
1.35148e-08
-6.51684e-09
-9.48112e-09
1.06255e-08
-6.63837e-09
-4.82723e-09
8.62606e-09
-6.72125e-09
3.98982e-11
7.60622e-09
-6.76259e-09
4.90339e-09
7.61199e-09
-6.76088e-09
9.54834e-09
8.64313e-09
-6.71731e-09
1.37713e-08
1.06529e-08
-6.63267e-09
1.73877e-08
1.35513e-08
-6.5098e-09
2.02394e-08
1.7208e-08
-6.35352e-09
2.22014e-08
2.14583e-08
-6.17072e-09
2.31874e-08
2.61095e-08
-5.97044e-09
2.31546e-08
3.09519e-08
-5.76299e-09
2.21076e-08
3.57693e-08
-5.55821e-09
2.00978e-08
4.03522e-08
-5.36496e-09
1.72188e-08
4.45084e-08
-5.19051e-09
1.35995e-08
4.80707e-08
-5.04078e-09
9.40008e-09
5.08956e-08
-4.92249e-09
4.80413e-09
5.28589e-08
-4.83967e-09
5.38359e-08
-4.78993e-09
-5.80628e-09
6.54135e-08
-5.80628e-09
-1.13611e-08
6.42428e-08
-5.8627e-09
-1.64326e-08
6.19265e-08
-5.9699e-09
-2.08003e-08
5.85717e-08
-6.12735e-09
-2.42729e-08
5.43183e-08
-6.32826e-09
-2.66952e-08
4.93414e-08
-6.56388e-09
-2.79564e-08
4.38488e-08
-6.82335e-09
-2.79962e-08
3.80762e-08
-7.09573e-09
-2.6808e-08
3.22775e-08
-7.36948e-09
-2.44391e-08
2.67117e-08
-7.63266e-09
-2.09885e-08
2.16285e-08
-7.87368e-09
-1.66051e-08
1.72555e-08
-8.08074e-09
-1.1482e-08
1.37893e-08
-8.24389e-09
-5.84846e-09
1.13876e-08
-8.35604e-09
4.3435e-11
1.0161e-08
-8.41328e-09
5.93212e-09
1.01653e-08
-8.41325e-09
1.15565e-08
1.14013e-08
-8.35488e-09
1.66687e-08
1.38124e-08
-8.24016e-09
2.10429e-08
1.72888e-08
-8.0734e-09
2.44861e-08
2.16714e-08
-7.86255e-09
2.68469e-08
2.67593e-08
-7.61793e-09
2.80235e-08
3.23206e-08
-7.35196e-09
2.79693e-08
3.81044e-08
-7.07692e-09
2.66943e-08
4.38558e-08
-6.80456e-09
2.42622e-08
4.93304e-08
-6.54552e-09
2.07839e-08
5.43033e-08
-6.30983e-09
1.6415e-08
5.85702e-08
-6.10861e-09
1.13486e-08
6.19459e-08
-5.94991e-09
5.80194e-09
6.42721e-08
-5.83824e-09
6.54136e-08
-5.77841e-09
-6.98742e-09
7.9382e-08
-6.98742e-09
-1.36756e-08
7.79916e-08
-7.06236e-09
-1.97866e-08
7.52444e-08
-7.2051e-09
-2.50549e-08
7.12625e-08
-7.41473e-09
-2.92499e-08
6.6209e-08
-7.68102e-09
-3.21838e-08
6.02896e-08
-7.99269e-09
-3.37213e-08
5.37517e-08
-8.33697e-09
-3.37871e-08
4.68771e-08
-8.6997e-09
-3.23698e-08
3.99685e-08
-9.06549e-09
-2.95227e-08
3.33325e-08
-9.41857e-09
-2.53639e-08
2.72649e-08
-9.74199e-09
-2.00736e-08
2.20376e-08
-1.00203e-08
-1.38864e-08
1.78882e-08
-1.02408e-08
-7.0791e-09
1.50089e-08
-1.03939e-08
4.3953e-11
1.35343e-08
-1.04732e-08
7.1648e-09
1.35335e-08
-1.04744e-08
1.39664e-08
1.50074e-08
-1.0396e-08
2.0145e-08
1.78882e-08
-1.02411e-08
2.54242e-08
2.20421e-08
-1.00168e-08
2.95702e-08
2.72753e-08
-9.73492e-09
3.24029e-08
3.33448e-08
-9.40978e-09
3.38047e-08
3.99728e-08
-9.05668e-09
3.37251e-08
4.68622e-08
-8.6908e-09
3.21784e-08
5.37138e-08
-8.32683e-09
2.92398e-08
6.02398e-08
-7.97935e-09
2.5043e-08
6.61688e-08
-7.66456e-09
1.97765e-08
7.12457e-08
-7.39753e-09
1.36698e-08
7.52426e-08
-7.1862e-09
6.98324e-09
7.79847e-08
-7.043e-09
7.93384e-08
-6.97033e-09
-8.39271e-09
9.6165e-08
-8.39271e-09
-1.64273e-08
9.45313e-08
-8.49168e-09
-2.37724e-08
9.12865e-08
-8.6811e-09
-3.01115e-08
8.65785e-08
-8.95681e-09
-3.51676e-08
8.05961e-08
-9.30734e-09
-3.87144e-08
7.35825e-08
-9.71912e-09
-4.05869e-08
6.58314e-08
-1.01762e-08
-4.06904e-08
5.76768e-08
-1.06598e-08
-3.90057e-08
4.94756e-08
-1.11495e-08
-3.55931e-08
4.15888e-08
-1.16224e-08
-3.05934e-08
3.43677e-08
-1.20558e-08
-2.42239e-08
2.81379e-08
-1.24296e-08
-1.67674e-08
2.31872e-08
-1.27273e-08
-8.55695e-09
1.97479e-08
-1.29355e-08
3.97007e-11
1.7983e-08
-1.30436e-08
8.63717e-09
1.79767e-08
-1.30457e-08
1.68472e-08
1.97311e-08
-1.29402e-08
2.42979e-08
2.31634e-08
-1.27317e-08
3.06542e-08
2.8111e-08
-1.24315e-08
3.56353e-08
3.43391e-08
-1.20558e-08
3.90288e-08
4.15569e-08
-1.16227e-08
4.06985e-08
4.94338e-08
-1.11513e-08
4.05868e-08
5.76189e-08
-1.06617e-08
3.87107e-08
6.57599e-08
-1.01744e-08
3.51621e-08
7.35116e-08
-9.71248e-09
3.01057e-08
8.0541e-08
-9.29724e-09
2.37668e-08
8.65389e-08
-8.94341e-09
1.64203e-08
9.12478e-08
-8.66634e-09
8.3803e-09
9.4488e-08
-8.48092e-09
9.61075e-08
-8.38578e-09
-1.00557e-08
1.16284e-07
-1.00557e-08
-1.96803e-08
1.14378e-07
-1.01852e-08
-2.84864e-08
1.10561e-07
-1.04329e-08
-3.60955e-08
1.05017e-07
-1.07951e-08
-4.2177e-08
9.79655e-08
-1.12574e-08
-4.64579e-08
8.96933e-08
-1.18031e-08
-4.87363e-08
8.05463e-08
-1.24111e-08
-4.88918e-08
7.09161e-08
-1.30563e-08
-4.68952e-08
6.12198e-08
-1.37097e-08
-4.28156e-08
5.18826e-08