/*--------------------------------*- C++ -*----------------------------------*\
| =========                 |                                                 |
| \\      /  F ield         | OpenFOAM: The Open Source CFD Toolbox           |
|  \\    /   O peration     | Version:  2312                                  |
|   \\  /    A nd           | Website:  www.openfoam.com                      |
|    \\/     M anipulation  |                                                 |
\*---------------------------------------------------------------------------*/
FoamFile
{
    version     2.0;
    format      ascii;
    arch        "LSB;label=32;scalar=64";
    class       volVectorField;
    location    "0.14934";
    object      U;
}
// * * * * * * * * * * * * * * * * * * * * * * * * * * * * * * * * * * * * * //

dimensions      [0 1 -1 0 0 0 0];

internalField   nonuniform List<vector> 
90000
(
(-4.97329e-07 1.05769e-06 -4.97329e-07)
(-1.75714e-06 9.29876e-07 -5.43523e-07)
(-3.13944e-06 8.98299e-07 -5.63231e-07)
(-4.27959e-06 8.35218e-07 -5.84041e-07)
(-5.20886e-06 7.56481e-07 -6.04182e-07)
(-5.88815e-06 6.64424e-07 -6.23985e-07)
(-6.2897e-06 5.65215e-07 -6.41626e-07)
(-6.40558e-06 4.67673e-07 -6.56677e-07)
(-6.24545e-06 3.82353e-07 -6.71139e-07)
(-5.81525e-06 2.97594e-07 -6.7497e-07)
(-5.14483e-06 1.98752e-07 -6.83656e-07)
(-4.28417e-06 1.07431e-07 -6.96321e-07)
(-3.26658e-06 3.47454e-08 -7.09233e-07)
(-2.12946e-06 -1.80431e-08 -7.21254e-07)
(-9.15942e-07 -4.7083e-08 -7.29148e-07)
(3.30017e-07 -4.92656e-08 -7.3012e-07)
(1.55732e-06 -2.45995e-08 -7.24094e-07)
(2.70737e-06 2.68806e-08 -7.13408e-07)
(3.72954e-06 1.06929e-07 -6.98209e-07)
(4.58183e-06 2.06056e-07 -6.81036e-07)
(5.216e-06 3.03741e-07 -6.68979e-07)
(5.6022e-06 3.98257e-07 -6.51573e-07)
(5.73477e-06 4.89656e-07 -6.31392e-07)
(5.61353e-06 5.75998e-07 -6.11217e-07)
(5.24705e-06 6.55527e-07 -5.90437e-07)
(4.64862e-06 7.25069e-07 -5.70546e-07)
(3.83986e-06 7.83215e-07 -5.48064e-07)
(2.85246e-06 8.2843e-07 -5.10116e-07)
(1.70652e-06 8.15339e-07 -4.12113e-07)
(5.48751e-07 6.03306e-07 -3.31812e-07)
(-5.40996e-07 2.8141e-06 -5.40996e-07)
(-1.8465e-06 2.56492e-06 -5.77325e-07)
(-3.23698e-06 2.46878e-06 -5.91737e-07)
(-4.39377e-06 2.29072e-06 -6.06743e-07)
(-5.34069e-06 2.06415e-06 -6.21447e-07)
(-6.03357e-06 1.79618e-06 -6.36768e-07)
(-6.44463e-06 1.49935e-06 -6.51642e-07)
(-6.56137e-06 1.18924e-06 -6.64941e-07)
(-6.40888e-06 8.82752e-07 -6.84992e-07)
(-6.00985e-06 6.13093e-07 -7.12119e-07)
(-5.35367e-06 3.51713e-07 -7.23693e-07)
(-4.46345e-06 1.18261e-07 -7.31803e-07)
(-3.39749e-06 -7.45381e-08 -7.3964e-07)
(-2.20594e-06 -2.11548e-07 -7.44909e-07)
(-9.35068e-07 -2.84603e-07 -7.48431e-07)
(3.63088e-07 -2.87199e-07 -7.49589e-07)
(1.63462e-06 -2.15286e-07 -7.48058e-07)
(2.82774e-06 -7.01846e-08 -7.43939e-07)
(3.88925e-06 1.39326e-07 -7.37146e-07)
(4.75978e-06 3.92305e-07 -7.27662e-07)
(5.3999e-06 6.62436e-07 -7.03724e-07)
(5.79668e-06 9.54753e-07 -6.7357e-07)
(5.93951e-06 1.24858e-06 -6.5084e-07)
(5.8191e-06 1.52498e-06 -6.31177e-07)
(5.43578e-06 1.7732e-06 -6.13333e-07)
(4.80431e-06 1.98606e-06 -5.9631e-07)
(3.95026e-06 2.16273e-06 -5.84465e-07)
(2.86906e-06 2.28167e-06 -5.81268e-07)
(1.41071e-06 2.33686e-06 -5.55608e-07)
(2.78171e-07 2.28305e-06 -3.38858e-07)
(-5.85797e-07 4.41286e-06 -5.85797e-07)
(-1.96551e-06 4.12575e-06 -6.21399e-07)
(-3.41341e-06 3.95331e-06 -6.33716e-07)
(-4.6228e-06 3.66245e-06 -6.47508e-07)
(-5.61844e-06 3.29307e-06 -6.61518e-07)
(-6.35843e-06 2.85738e-06 -6.77529e-07)
(-6.81521e-06 2.37221e-06 -6.95206e-07)
(-6.9744e-06 1.85693e-06 -7.1425e-07)
(-6.81637e-06 1.33168e-06 -7.25925e-07)
(-6.37602e-06 8.42898e-07 -7.4885e-07)
(-5.68401e-06 4.30539e-07 -7.66358e-07)
(-4.74727e-06 6.18036e-08 -7.7919e-07)
(-3.61246e-06 -2.33973e-07 -7.89918e-07)
(-2.33364e-06 -4.39468e-07 -7.98672e-07)
(-9.73125e-07 -5.40253e-07 -8.04337e-07)
(4.14393e-07 -5.27344e-07 -8.05798e-07)
(1.77231e-06 -4.00121e-07 -8.03139e-07)
(3.03903e-06 -1.63091e-07 -7.96613e-07)
(4.15608e-06 1.67974e-07 -7.87814e-07)
(5.07229e-06 5.69568e-07 -7.72736e-07)
(5.76703e-06 1.04062e-06 -7.49517e-07)
(6.20959e-06 1.54616e-06 -7.40948e-07)
(6.3592e-06 2.0527e-06 -7.25078e-07)
(6.21139e-06 2.5342e-06 -7.06692e-07)
(5.77657e-06 2.97529e-06 -6.89673e-07)
(5.08093e-06 3.36694e-06 -6.77746e-07)
(4.14344e-06 3.69414e-06 -6.71084e-07)
(2.99916e-06 3.94211e-06 -6.53694e-07)
(1.52887e-06 4.15357e-06 -6.3052e-07)
(3.37703e-07 4.60142e-06 -4.82503e-07)
(-6.61929e-07 6.36243e-06 -6.61929e-07)
(-2.16101e-06 5.97147e-06 -6.95397e-07)
(-3.69723e-06 5.70874e-06 -7.05809e-07)
(-4.99201e-06 5.29019e-06 -7.19187e-07)
(-6.06419e-06 4.76677e-06 -7.32773e-07)
(-6.87032e-06 4.15615e-06 -7.49327e-07)
(-7.37906e-06 3.4829e-06 -7.6823e-07)
(-7.57033e-06 2.77604e-06 -7.89274e-07)
(-7.43078e-06 2.06238e-06 -8.09077e-07)
(-6.94999e-06 1.36352e-06 -8.20219e-07)
(-6.1877e-06 7.35515e-07 -8.4657e-07)
(-5.17671e-06 2.12095e-07 -8.59625e-07)
(-3.93135e-06 -2.02916e-07 -8.69998e-07)
(-2.52617e-06 -4.81721e-07 -8.77945e-07)
(-1.02416e-06 -6.05782e-07 -8.83491e-07)
(5.04867e-07 -5.67615e-07 -8.85594e-07)
(1.99548e-06 -3.70032e-07 -8.82388e-07)
(3.38421e-06 -2.00548e-08 -8.74178e-07)
(4.60412e-06 4.67522e-07 -8.61738e-07)
(5.61595e-06 1.07404e-06 -8.45569e-07)
(6.37216e-06 1.773e-06 -8.36906e-07)
(6.8248e-06 2.50824e-06 -8.21917e-07)
(6.96291e-06 3.24773e-06 -8.07934e-07)
(6.78442e-06 3.96521e-06 -7.95563e-07)
(6.30078e-06 4.63982e-06 -7.85039e-07)
(5.53036e-06 5.25481e-06 -7.75718e-07)
(4.51491e-06 5.7883e-06 -7.65977e-07)
(3.32052e-06 6.23312e-06 -7.58139e-07)
(1.90083e-06 6.56054e-06 -7.51664e-07)
(5.58324e-07 7.05718e-06 -6.98968e-07)
(-7.81731e-07 8.71597e-06 -7.81731e-07)
(-2.45222e-06 8.20549e-06 -8.0801e-07)
(-4.10411e-06 7.84322e-06 -8.1509e-07)
(-5.5193e-06 7.28158e-06 -8.26462e-07)
(-6.69682e-06 6.58373e-06 -8.38643e-07)
(-7.58883e-06 5.77438e-06 -8.54015e-07)
(-8.1585e-06 4.88477e-06 -8.72625e-07)
(-8.3849e-06 3.94909e-06 -8.94811e-07)
(-8.24795e-06 3.00668e-06 -9.13292e-07)
(-7.7459e-06 2.09798e-06 -9.3037e-07)
(-6.89242e-06 1.25081e-06 -9.42057e-07)
(-5.74522e-06 5.41627e-07 -9.61784e-07)
(-4.35885e-06 -1.0654e-08 -9.71997e-07)
(-2.77557e-06 -3.76157e-07 -9.77718e-07)
(-1.0805e-06 -5.28551e-07 -9.82239e-07)
(6.46419e-07 -4.70895e-07 -9.80601e-07)
(2.32965e-06 -2.0343e-07 -9.74171e-07)
(3.89178e-06 2.75649e-07 -9.67099e-07)
(5.26113e-06 9.36262e-07 -9.53823e-07)
(6.37931e-06 1.75819e-06 -9.42569e-07)
(7.19625e-06 2.68879e-06 -9.29835e-07)
(7.67947e-06 3.69234e-06 -9.18581e-07)
(7.81534e-06 4.7251e-06 -9.0913e-07)
(7.60386e-06 5.74498e-06 -9.01192e-07)
(7.05884e-06 6.71456e-06 -8.94224e-07)
(6.20684e-06 7.60064e-06 -8.86275e-07)
(5.09155e-06 8.37778e-06 -8.75821e-07)
(3.77295e-06 9.01672e-06 -8.64338e-07)
(2.27644e-06 9.45433e-06 -8.52602e-07)
(7.42325e-07 9.83651e-06 -8.33225e-07)
(-9.46956e-07 1.16671e-05 -9.46956e-07)
(-2.84842e-06 1.10545e-05 -9.59378e-07)
(-4.6542e-06 1.05775e-05 -9.62841e-07)
(-6.23434e-06 9.84753e-06 -9.71585e-07)
(-7.55274e-06 8.93912e-06 -9.81762e-07)
(-8.55503e-06 7.88592e-06 -9.9509e-07)
(-9.2007e-06 6.72697e-06 -1.00948e-06)
(-9.45925e-06 5.50918e-06 -1.02988e-06)
(-9.30761e-06 4.28666e-06 -1.04688e-06)
(-8.7453e-06 3.10501e-06 -1.06281e-06)
(-7.79465e-06 2.02366e-06 -1.07639e-06)
(-6.49399e-06 1.08542e-06 -1.08772e-06)
(-4.9017e-06 3.61798e-07 -1.10038e-06)
(-3.08466e-06 -1.25143e-07 -1.10462e-06)
(-1.13813e-06 -3.43585e-07 -1.10871e-06)
(8.36854e-07 -2.81767e-07 -1.10279e-06)
(2.76931e-06 6.18753e-08 -1.09155e-06)
(4.55753e-06 6.68817e-07 -1.08415e-06)
(6.11005e-06 1.51524e-06 -1.07176e-06)
(7.37147e-06 2.56911e-06 -1.06019e-06)
(8.28952e-06 3.78437e-06 -1.04923e-06)
(8.83264e-06 5.11492e-06 -1.03974e-06)
(8.98447e-06 6.50442e-06 -1.03136e-06)
(8.74517e-06 7.89358e-06 -1.02294e-06)
(8.131e-06 9.22378e-06 -1.01448e-06)
(7.17274e-06 1.04386e-05 -1.00464e-06)
(5.91411e-06 1.14859e-05 -9.91564e-07)
(4.41408e-06 1.23241e-05 -9.76704e-07)
(2.7164e-06 1.28959e-05 -9.61904e-07)
(9.11911e-07 1.32656e-05 -9.46294e-07)
(-1.14396e-06 1.54492e-05 -1.14396e-06)
(-3.34698e-06 1.47547e-05 -1.14406e-06)
(-5.37661e-06 1.41402e-05 -1.1452e-06)
(-7.17972e-06 1.32017e-05 -1.15267e-06)
(-8.68631e-06 1.20269e-05 -1.16109e-06)
(-9.83233e-06 1.06604e-05 -1.17255e-06)
(-1.05663e-05 9.15372e-06 -1.18613e-06)
(-1.08535e-05 7.56924e-06 -1.19686e-06)
(-1.0677e-05 5.97956e-06 -1.21386e-06)
(-1.00323e-05 4.44375e-06 -1.22776e-06)
(-8.93643e-06 3.02862e-06 -1.24029e-06)
(-7.4319e-06 1.80866e-06 -1.2507e-06)
(-5.59047e-06 8.45872e-07 -1.25869e-06)
(-3.49281e-06 1.93705e-07 -1.26162e-06)
(-1.23414e-06 -1.31482e-07 -1.26121e-06)
(1.07121e-06 -8.25794e-08 -1.25319e-06)
(3.30884e-06 3.32526e-07 -1.25117e-06)
(5.37032e-06 1.07641e-06 -1.23429e-06)
(7.17081e-06 2.14001e-06 -1.22768e-06)
(8.63568e-06 3.4816e-06 -1.21787e-06)
(9.70901e-06 5.04197e-06 -1.20857e-06)
(1.03547e-05 6.76707e-06 -1.19801e-06)
(1.05485e-05 8.58282e-06 -1.18631e-06)
(1.02872e-05 1.04068e-05 -1.17356e-06)
(9.58604e-06 1.21531e-05 -1.15895e-06)
(8.47809e-06 1.3739e-05 -1.14285e-06)
(7.01082e-06 1.50886e-05 -1.12531e-06)
(5.24523e-06 1.61458e-05 -1.10831e-06)
(3.24364e-06 1.68598e-05 -1.09633e-06)
(1.09732e-06 1.72873e-05 -1.09058e-06)
(-1.36858e-06 2.02834e-05 -1.36858e-06)
(-3.95718e-06 1.95086e-05 -1.36198e-06)
(-6.30813e-06 1.87228e-05 -1.36164e-06)
(-8.41005e-06 1.75186e-05 -1.36845e-06)
(-1.01669e-05 1.6e-05 -1.37604e-06)
(-1.15014e-05 1.42271e-05 -1.38614e-06)
(-1.23536e-05 1.22704e-05 -1.39808e-06)
(-1.26758e-05 1.02085e-05 -1.408e-06)
(-1.24535e-05 8.13004e-06 -1.41931e-06)
(-1.16962e-05 6.1234e-06 -1.43668e-06)
(-1.04136e-05 4.27959e-06 -1.44863e-06)
(-8.64989e-06 2.67904e-06 -1.45983e-06)
(-6.48517e-06 1.40128e-06 -1.46736e-06)
(-4.03183e-06 5.21544e-07 -1.47747e-06)
(-1.39119e-06 7.03378e-08 -1.47029e-06)
(1.31366e-06 8.50997e-08 -1.46943e-06)
(3.92915e-06 5.62144e-07 -1.46703e-06)
(6.35356e-06 1.4784e-06 -1.45862e-06)
(8.49222e-06 2.81162e-06 -1.45257e-06)
(1.02397e-05 4.50229e-06 -1.44478e-06)
(1.15326e-05 6.48425e-06 -1.4293e-06)
(1.23279e-05 8.68223e-06 -1.41472e-06)
(1.25856e-05 1.09983e-05 -1.39682e-06)
(1.22971e-05 1.33218e-05 -1.37621e-06)
(1.14767e-05 1.55382e-05 -1.35419e-06)
(1.01598e-05 1.75405e-05 -1.33246e-06)
(8.40128e-06 1.92351e-05 -1.31352e-06)
(6.27401e-06 2.0554e-05 -1.30032e-06)
(3.86505e-06 2.14481e-05 -1.29881e-06)
(1.30309e-06 2.19674e-05 -1.30973e-06)
(-1.62605e-06 2.63285e-05 -1.62605e-06)
(-4.70209e-06 2.54539e-05 -1.61882e-06)
(-7.49697e-06 2.4449e-05 -1.61782e-06)
(-9.99723e-06 2.29037e-05 -1.62458e-06)
(-1.20864e-05 2.09432e-05 -1.63222e-06)
(-1.367e-05 1.86497e-05 -1.64289e-06)
(-1.46761e-05 1.61183e-05 -1.6558e-06)
(-1.50553e-05 1.3454e-05 -1.67062e-06)
(-1.47853e-05 1.07634e-05 -1.68784e-06)
(-1.38649e-05 8.16519e-06 -1.70265e-06)
(-1.23269e-05 5.77772e-06 -1.72127e-06)
(-1.02331e-05 3.70258e-06 -1.73686e-06)
(-7.66749e-06 2.03792e-06 -1.74925e-06)
(-4.76304e-06 8.64553e-07 -1.76236e-06)
(-1.6473e-06 2.72662e-07 -1.76583e-06)
(1.54694e-06 2.5329e-07 -1.76962e-06)
(4.6586e-06 8.14067e-07 -1.77153e-06)
(7.56538e-06 1.96544e-06 -1.76837e-06)
(1.01441e-05 3.63263e-06 -1.76059e-06)
(1.22674e-05 5.73574e-06 -1.7472e-06)
(1.38556e-05 8.22838e-06 -1.72779e-06)
(1.48418e-05 1.09849e-05 -1.70516e-06)
(1.51743e-05 1.38807e-05 -1.67929e-06)
(1.48388e-05 1.67768e-05 -1.65207e-06)
(1.3851e-05 1.95321e-05 -1.62627e-06)
(1.22529e-05 2.20212e-05 -1.60534e-06)
(1.01141e-05 2.41318e-05 -1.5923e-06)
(7.53124e-06 2.57831e-05 -1.58773e-06)
(4.62066e-06 2.69173e-05 -1.59243e-06)
(1.55218e-06 2.75652e-05 -1.60415e-06)
(-1.93446e-06 3.36956e-05 -1.93446e-06)
(-5.62356e-06 3.26968e-05 -1.92719e-06)
(-9.00548e-06 3.14065e-05 -1.92756e-06)
(-1.20295e-05 2.943e-05 -1.93661e-06)
(-1.45543e-05 2.69176e-05 -1.94748e-06)
(-1.64654e-05 2.39795e-05 -1.96307e-06)
(-1.76756e-05 2.07408e-05 -1.98279e-06)
(-1.81254e-05 1.73382e-05 -2.00633e-06)
(-1.77874e-05 1.39141e-05 -2.03231e-06)
(-1.66672e-05 1.06128e-05 -2.05853e-06)
(-1.48077e-05 7.57444e-06 -2.08383e-06)
(-1.22886e-05 4.9407e-06 -2.10562e-06)
(-9.22421e-06 2.8324e-06 -2.12433e-06)
(-5.73665e-06 1.35047e-06 -2.13498e-06)
(-2.00196e-06 5.79857e-07 -2.15786e-06)
(1.80246e-06 5.55679e-07 -2.16677e-06)
(5.56408e-06 1.27654e-06 -2.15928e-06)
(9.10051e-06 2.70913e-06 -2.1651e-06)
(1.2217e-05 4.76413e-06 -2.15513e-06)
(1.48187e-05 7.39148e-06 -2.12744e-06)
(1.67826e-05 1.04788e-05 -2.10489e-06)
(1.7989e-05 1.38851e-05 -2.07301e-06)
(1.83951e-05 1.7455e-05 -2.03992e-06)
(1.79822e-05 2.1021e-05 -2.00895e-06)
(1.67744e-05 2.44238e-05 -1.98387e-06)
(1.48239e-05 2.74994e-05 -1.96677e-06)
(1.22203e-05 3.01279e-05 -1.95806e-06)
(9.09218e-06 3.22035e-05 -1.9546e-06)
(5.58474e-06 3.36471e-05 -1.95205e-06)
(1.88106e-06 3.44574e-05 -1.94621e-06)
(-2.30819e-06 4.25114e-05 -2.30819e-06)
(-6.77137e-06 4.13614e-05 -2.30855e-06)
(-1.09153e-05 3.97099e-05 -2.31271e-06)
(-1.4609e-05 3.72118e-05 -2.32662e-06)
(-1.76891e-05 3.40373e-05 -2.34513e-06)
(-2.00168e-05 3.03308e-05 -2.37144e-06)
(-2.14847e-05 2.62512e-05 -2.40334e-06)
(-2.20207e-05 2.19753e-05 -2.43976e-06)
(-2.15931e-05 1.7683e-05 -2.47819e-06)
(-2.02145e-05 1.3556e-05 -2.51562e-06)
(-1.79449e-05 9.7745e-06 -2.54954e-06)
(-1.48871e-05 6.51131e-06 -2.57974e-06)
(-1.11796e-05 3.91841e-06 -2.60556e-06)
(-6.98468e-06 2.12425e-06 -2.62747e-06)
(-2.47042e-06 1.19096e-06 -2.63847e-06)
(2.17538e-06 1.18359e-06 -2.64989e-06)
(6.74197e-06 2.09216e-06 -2.65926e-06)
(1.10155e-05 3.84343e-06 -2.64813e-06)
(1.48346e-05 6.39037e-06 -2.61965e-06)
(1.80235e-05 9.63535e-06 -2.59365e-06)
(2.04012e-05 1.34171e-05 -2.55845e-06)
(2.18646e-05 1.75869e-05 -2.51978e-06)
(2.23483e-05 2.19581e-05 -2.48238e-06)
(2.18401e-05 2.63342e-05 -2.44929e-06)
(2.03586e-05 3.05158e-05 -2.42201e-06)
(1.79807e-05 3.43203e-05 -2.40145e-06)
(1.48341e-05 3.75941e-05 -2.38681e-06)
(1.10603e-05 4.01964e-05 -2.37356e-06)
(6.82588e-06 4.20154e-05 -2.35951e-06)
(2.31142e-06 4.30155e-05 -2.34016e-06)
(-2.78032e-06 5.30133e-05 -2.78032e-06)
(-8.21356e-06 5.16972e-05 -2.78128e-06)
(-1.33044e-05 4.96029e-05 -2.79356e-06)
(-1.78316e-05 4.64813e-05 -2.81844e-06)
(-2.16037e-05 4.25237e-05 -2.8507e-06)
(-2.44483e-05 3.79114e-05 -2.89328e-06)
(-2.62307e-05 3.28479e-05 -2.93921e-06)
(-2.68633e-05 2.75459e-05 -2.98942e-06)
(-2.63152e-05 2.22343e-05 -3.03925e-06)
(-2.46094e-05 1.71446e-05 -3.08529e-06)
(-2.18261e-05 1.25036e-05 -3.12717e-06)
(-1.8094e-05 8.52298e-06 -3.16388e-06)
(-1.35771e-05 5.38289e-06 -3.19572e-06)
(-8.47058e-06 3.22454e-06 -3.22229e-06)
(-2.98279e-06 2.14112e-06 -3.23806e-06)
(2.66096e-06 2.15954e-06 -3.2438e-06)
(8.21426e-06 3.27183e-06 -3.23515e-06)
(1.34423e-05 5.43129e-06 -3.21263e-06)
(1.80963e-05 8.5646e-06 -3.18456e-06)
(2.19476e-05 1.25182e-05 -3.14715e-06)
(2.48239e-05 1.71374e-05 -3.10483e-06)
(2.65919e-05 2.2227e-05 -3.06143e-06)
(2.71755e-05 2.75676e-05 -3.01946e-06)
(2.65497e-05 3.29257e-05 -2.98025e-06)
(2.47573e-05 3.80609e-05 -2.94511e-06)
(2.18975e-05 4.27642e-05 -2.91077e-06)
(1.81002e-05 4.68217e-05 -2.87996e-06)
(1.35309e-05 5.00521e-05 -2.85119e-06)
(8.37839e-06 5.23043e-05 -2.82686e-06)
(2.84512e-06 5.35137e-05 -2.8053e-06)
(-3.37341e-06 6.55696e-05 -3.37341e-06)
(-1.00155e-05 6.40898e-05 -3.39118e-06)
(-1.62752e-05 6.14687e-05 -3.4142e-06)
(-2.18225e-05 5.76116e-05 -3.44963e-06)
(-2.64319e-05 5.27314e-05 -3.49453e-06)
(-2.98909e-05 4.70482e-05 -3.54685e-06)
(-3.20427e-05 4.08119e-05 -3.60812e-06)
(-3.27861e-05 3.42882e-05 -3.67035e-06)
(-3.20842e-05 2.77643e-05 -3.72953e-06)
(-2.99752e-05 2.15317e-05 -3.78369e-06)
(-2.6562e-05 1.58739e-05 -3.83242e-06)
(-2.20016e-05 1.10439e-05 -3.87564e-06)
(-1.64916e-05 7.25264e-06 -3.912e-06)
(-1.02575e-05 4.65507e-06 -3.93771e-06)
(-3.5584e-06 3.35442e-06 -3.95239e-06)
(3.32338e-06 3.39349e-06 -3.95172e-06)
(1.00887e-05 4.76554e-06 -3.9378e-06)
(1.6432e-05 7.41609e-06 -3.90956e-06)
(2.20633e-05 1.12283e-05 -3.87222e-06)
(2.67216e-05 1.60545e-05 -3.82796e-06)
(3.01974e-05 2.16924e-05 -3.77959e-06)
(3.23386e-05 2.79042e-05 -3.72978e-06)
(3.30548e-05 3.44277e-05 -3.68009e-06)
(3.23208e-05 4.09739e-05 -3.62718e-06)
(3.01828e-05 4.72768e-05 -3.57619e-06)
(2.67401e-05 5.305e-05 -3.52394e-06)
(2.21371e-05 5.80288e-05 -3.47561e-06)
(1.65667e-05 6.19831e-05 -3.43544e-06)
(1.02562e-05 6.47226e-05 -3.40791e-06)
(3.47877e-06 6.61544e-05 -3.39428e-06)
(-4.11663e-06 8.06886e-05 -4.11663e-06)
(-1.2245e-05 7.90248e-05 -4.14742e-06)
(-1.9917e-05 7.57861e-05 -4.18128e-06)
(-2.66976e-05 7.10647e-05 -4.22939e-06)
(-3.23149e-05 6.50906e-05 -4.28884e-06)
(-3.65156e-05 5.81274e-05 -4.35712e-06)
(-3.91087e-05 5.04768e-05 -4.43056e-06)
(-3.99785e-05 4.24804e-05 -4.50339e-06)
(-3.90933e-05 3.45001e-05 -4.57587e-06)
(-3.65019e-05 2.68903e-05 -4.64227e-06)
(-3.23278e-05 2.00009e-05 -4.70244e-06)
(-2.67573e-05 1.41328e-05 -4.75644e-06)
(-2.00259e-05 9.53202e-06 -4.80098e-06)
(-1.24125e-05 6.38098e-06 -4.83133e-06)
(-4.23701e-06 4.79371e-06 -4.845e-06)
(4.1479e-06 4.83581e-06 -4.84006e-06)
(1.23702e-05 6.50207e-06 -4.81843e-06)
(2.00608e-05 9.73234e-06 -4.78548e-06)
(2.6875e-05 1.43937e-05 -4.74215e-06)
(3.25101e-05 2.02934e-05 -4.6916e-06)
(3.67229e-05 2.71816e-05 -4.6354e-06)
(3.93374e-05 3.47645e-05 -4.57376e-06)
(4.02349e-05 4.27184e-05 -4.50763e-06)
(3.93881e-05 5.07167e-05 -4.43276e-06)
(3.68346e-05 5.84037e-05 -4.35622e-06)
(3.26634e-05 6.54345e-05 -4.28318e-06)
(2.70488e-05 7.14879e-05 -4.22064e-06)
(2.02289e-05 7.62801e-05 -4.17333e-06)
(1.24943e-05 7.95824e-05 -4.14528e-06)
(4.22541e-06 8.12719e-05 -4.1373e-06)
(-5.03522e-06 9.90325e-05 -5.03522e-06)
(-1.4974e-05 9.71173e-05 -5.07639e-06)
(-2.43444e-05 9.31467e-05 -5.12192e-06)
(-3.26134e-05 8.73863e-05 -5.18489e-06)
(-3.94492e-05 8.00917e-05 -5.2597e-06)
(-4.45454e-05 7.15802e-05 -5.34526e-06)
(-4.76756e-05 6.22266e-05 -5.4368e-06)
(-4.87066e-05 5.24537e-05 -5.53076e-06)
(-4.7615e-05 4.27085e-05 -5.62504e-06)
(-4.44564e-05 3.34441e-05 -5.71236e-06)
(-3.9365e-05 2.50529e-05 -5.79484e-06)
(-3.25648e-05 1.79042e-05 -5.86818e-06)
(-2.43414e-05 1.22882e-05 -5.92628e-06)
(-1.50429e-05 8.42733e-06 -5.96352e-06)
(-5.07089e-06 6.47089e-06 -5.97861e-06)
(5.13629e-06 6.50542e-06 -5.97262e-06)
(1.51249e-05 8.53754e-06 -5.94924e-06)
(2.44523e-05 1.24916e-05 -5.90924e-06)
(3.27113e-05 1.82024e-05 -5.85782e-06)
(3.95491e-05 2.54253e-05 -5.79442e-06)
(4.46747e-05 3.38478e-05 -5.71895e-06)
(4.78694e-05 4.3108e-05 -5.63102e-06)
(4.90073e-05 5.28067e-05 -5.53267e-06)
(4.80198e-05 6.25375e-05 -5.43403e-06)
(4.49197e-05 7.18663e-05 -5.33309e-06)
(3.98342e-05 8.03851e-05 -5.24136e-06)
(3.29738e-05 8.77078e-05 -5.16566e-06)
(2.46382e-05 9.3494e-05 -5.10843e-06)
(1.5194e-05 9.74764e-05 -5.073e-06)
(5.13024e-06 9.94969e-05 -5.06154e-06)
(-6.15239e-06 0.000121367 -6.15239e-06)
(-1.82837e-05 0.000119073 -6.20397e-06)
(-2.97063e-05 0.000114227 -6.26119e-06)
(-3.97798e-05 0.000107208 -6.34232e-06)
(-4.80958e-05 9.83157e-05 -6.44136e-06)
(-5.42867e-05 8.79395e-05 -6.55469e-06)
(-5.80876e-05 7.65434e-05 -6.67716e-06)
(-5.93436e-05 6.46456e-05 -6.80435e-06)
(-5.80055e-05 5.27868e-05 -6.92725e-06)
(-5.4158e-05 4.15108e-05 -7.05985e-06)
(-4.79614e-05 3.13111e-05 -7.1741e-06)
(-3.96587e-05 2.25984e-05 -7.27426e-06)
(-2.96148e-05 1.57295e-05 -7.34946e-06)
(-1.82639e-05 1.09911e-05 -7.3965e-06)
(-6.10748e-06 8.58147e-06 -7.416e-06)
(6.31446e-06 8.61662e-06 -7.41018e-06)
(1.84551e-05 1.11092e-05 -7.3819e-06)
(2.97873e-05 1.59593e-05 -7.33199e-06)
(3.98265e-05 2.29571e-05 -7.26184e-06)
(4.81478e-05 3.17941e-05 -7.17196e-06)
(5.43985e-05 4.20799e-05 -7.06266e-06)
(5.8307e-05 5.3368e-05 -6.93953e-06)
(5.96936e-05 6.51713e-05 -6.80613e-06)
(5.84782e-05 7.69731e-05 -6.67277e-06)
(5.46908e-05 8.82752e-05 -6.54588e-06)
(4.84829e-05 9.8581e-05 -6.4325e-06)
(4.01212e-05 0.000107429 -6.33561e-06)
(2.99739e-05 0.000114418 -6.25745e-06)
(1.84831e-05 0.000119243 -6.20575e-06)
(6.24043e-06 0.000121693 -6.18643e-06)
(-7.50069e-06 0.000148543 -7.50069e-06)
(-2.22847e-05 0.000145708 -7.56248e-06)
(-3.61987e-05 0.00013981 -7.64052e-06)
(-4.84661e-05 0.000131276 -7.75175e-06)
(-5.85894e-05 0.00012047 -7.88742e-06)
(-6.61271e-05 0.000107873 -8.04293e-06)
(-7.076e-05 9.4053e-05 -8.21233e-06)
(-7.23008e-05 7.96371e-05 -8.38923e-06)
(-7.06915e-05 6.5276e-05 -8.56842e-06)
(-6.59922e-05 5.15934e-05 -8.73502e-06)
(-5.8415e-05 3.91928e-05 -8.89254e-06)
(-4.82868e-05 2.85767e-05 -9.02338e-06)
(-3.60301e-05 2.01881e-05 -9.1197e-06)
(-2.219e-05 1.43902e-05 -9.18219e-06)
(-7.38599e-06 1.1444e-05 -9.20975e-06)
(7.72996e-06 1.1492e-05 -9.20481e-06)
(2.2502e-05 1.45478e-05 -9.1678e-06)
(3.6295e-05 2.04832e-05 -9.09871e-06)
(4.85211e-05 2.90267e-05 -8.99835e-06)
(5.86562e-05 3.9795e-05 -8.86677e-06)
(6.6262e-05 5.23101e-05 -8.71284e-06)
(7.1002e-05 6.60231e-05 -8.54289e-06)
(7.26557e-05 8.03411e-05 -8.36719e-06)
(7.1135e-05 9.46526e-05 -8.19504e-06)
(6.64944e-05 0.000108342 -8.03272e-06)
(5.89306e-05 0.000120809 -7.8838e-06)
(4.87695e-05 0.000131506 -7.75114e-06)
(3.64468e-05 0.000139966 -7.64268e-06)
(2.24852e-05 0.000145825 -7.57182e-06)
(7.59451e-06 0.000148784 -7.54591e-06)
(-9.13226e-06 0.000181556 -9.13226e-06)
(-2.71277e-05 0.000178035 -9.21386e-06)
(-4.40651e-05 0.000170883 -9.3225e-06)
(-5.90013e-05 0.000160546 -9.47425e-06)
(-7.13262e-05 0.000147472 -9.6606e-06)
(-8.05057e-05 0.000132247 -9.87363e-06)
(-8.6153e-05 0.000115558 -1.01039e-05)
(-8.80358e-05 9.81539e-05 -1.03437e-05)
(-8.60763e-05 8.08021e-05 -1.05823e-05)
(-8.03537e-05 6.42474e-05 -1.08072e-05)
(-7.11103e-05 4.91842e-05 -1.10087e-05)
(-5.87488e-05 3.62627e-05 -1.11737e-05)
(-4.38155e-05 2.60408e-05 -1.13025e-05)
(-2.69706e-05 1.89747e-05 -1.13875e-05)
(-8.96117e-06 1.53892e-05 -1.14295e-05)
(9.431e-06 1.5457e-05 -1.14263e-05)
(2.7421e-05 1.91815e-05 -1.13744e-05)
(4.42234e-05 2.63859e-05 -1.12775e-05)
(5.91091e-05 3.67493e-05 -1.11327e-05)
(7.14377e-05 4.98033e-05 -1.09511e-05)
(8.06676e-05 6.49695e-05 -1.0742e-05)
(8.63882e-05 8.15864e-05 -1.05167e-05)
(8.83425e-05 9.89361e-05 -1.02869e-05)
(8.6443e-05 0.000116273 -1.00606e-05)
(8.07737e-05 0.000132844 -9.84265e-06)
(7.15785e-05 0.000147926 -9.63791e-06)
(5.92416e-05 0.000160863 -9.45722e-06)
(4.42751e-05 0.000171099 -9.31333e-06)
(2.73106e-05 0.000178184 -9.22366e-06)
(9.22197e-06 0.000181692 -9.19186e-06)
(-1.11197e-05 0.000221664 -1.11197e-05)
(-3.3007e-05 0.000217347 -1.12266e-05)
(-5.35919e-05 0.000208716 -1.13737e-05)
(-7.17518e-05 0.000196245 -1.15781e-05)
(-8.67384e-05 0.000180488 -1.18276e-05)
(-9.79042e-05 0.000162148 -1.21106e-05)
(-0.000104777 0.000142043 -1.24163e-05)
(-0.000107069 0.000121058 -1.27319e-05)
(-0.00010468 0.000100098 -1.30438e-05)
(-9.77125e-05 8.0055e-05 -1.33369e-05)
(-8.64657e-05 6.17885e-05 -1.35998e-05)
(-7.14327e-05 4.60896e-05 -1.38219e-05)
(-5.32792e-05 3.36638e-05 -1.39967e-05)
(-3.28063e-05 2.5077e-05 -1.41199e-05)
(-1.09059e-05 2.07196e-05 -1.41844e-05)
(1.14797e-05 2.07895e-05 -1.41831e-05)
(3.33723e-05 2.52776e-05 -1.41149e-05)
(5.38188e-05 3.39699e-05 -1.39765e-05)
(7.19309e-05 4.64812e-05 -1.37822e-05)
(8.69076e-05 6.22519e-05 -1.35403e-05)
(9.80908e-05 8.05878e-05 -1.32639e-05)
(0.000104992 0.000100692 -1.29665e-05)
(0.000107316 0.000121694 -1.26595e-05)
(0.000104971 0.000142676 -1.23506e-05)
(9.80654e-05 0.000162719 -1.20502e-05)
(8.68853e-05 0.000180948 -1.17715e-05)
(7.18879e-05 0.000196572 -1.15314e-05)
(5.37002e-05 0.000208908 -1.13472e-05)
(3.31056e-05 0.000217407 -1.12336e-05)
(1.11743e-05 0.000221558 -1.1194e-05)
(-1.35361e-05 0.000270464 -1.35361e-05)
(-4.01244e-05 0.000265256 -1.36721e-05)
(-6.50892e-05 0.000254877 -1.38643e-05)
(-8.7126e-05 0.000239882 -1.41308e-05)
(-0.000105318 0.000220934 -1.4456e-05)
(-0.000118883 0.000198871 -1.48267e-05)
(-0.000127243 0.000174662 -1.52279e-05)
(-0.00013004 0.000149351 -1.56438e-05)
(-0.000127154 0.000124019 -1.60562e-05)
(-0.000118705 9.97504e-05 -1.64477e-05)
(-0.000105061 7.7603e-05 -1.68029e-05)
(-8.68222e-05 5.85618e-05 -1.71085e-05)
(-6.47905e-05 4.34932e-05 -1.73533e-05)
(-3.99239e-05 3.30803e-05 -1.75272e-05)
(-1.33014e-05 2.77855e-05 -1.76176e-05)
(1.39213e-05 2.78365e-05 -1.76151e-05)
(4.055e-05 3.32152e-05 -1.75215e-05)
(6.54093e-05 4.36833e-05 -1.73415e-05)
(8.74074e-05 5.87671e-05 -1.70866e-05)
(0.000105578 7.78024e-05 -1.67691e-05)
(0.000119128 9.99593e-05 -1.64038e-05)
(0.000127475 0.000124271 -1.60038e-05)
(0.000130268 0.000149671 -1.55833e-05)
(0.000127396 0.000175037 -1.51588e-05)
(0.000118979 0.000199248 -1.4749e-05)
(0.000105363 0.00022124 -1.43772e-05)
(8.71193e-05 0.000240052 -1.4065e-05)
(6.50347e-05 0.000254862 -1.38276e-05)
(4.00811e-05 0.000265044 -1.36764e-05)
(1.35307e-05 0.000270069 -1.36092e-05)
(-1.64553e-05 0.000329895 -1.64553e-05)
(-4.86941e-05 0.00032367 -1.66192e-05)
(-7.89031e-05 0.000311215 -1.68625e-05)
(-0.000105598 0.000293213 -1.72047e-05)
(-0.00012766 0.000270449 -1.76282e-05)
(-0.000144138 0.000243917 -1.81167e-05)
(-0.000154321 0.00021476 -1.86508e-05)
(-0.000157765 0.000184221 -1.92092e-05)
(-0.000154312 0.000153606 -1.97661e-05)
(-0.000144107 0.000124243 -2.02993e-05)
(-0.000127594 9.74334e-05 -2.07869e-05)
(-0.000105494 7.4391e-05 -2.12095e-05)
(-7.87651e-05 5.61618e-05 -2.15487e-05)
(-4.85671e-05 4.35617e-05 -2.17846e-05)
(-1.62158e-05 3.71408e-05 -2.19034e-05)
(1.68634e-05 3.71753e-05 -2.18985e-05)
(4.92066e-05 4.36444e-05 -2.17745e-05)
(7.93867e-05 5.62608e-05 -2.15387e-05)
(0.000106078 7.44636e-05 -2.12022e-05)
(0.000128115 9.74565e-05 -2.07788e-05)
(0.000144544 0.000124235 -2.0284e-05)
(0.000154658 0.000153618 -1.97367e-05)
(0.000158024 0.000184302 -1.91603e-05)
(0.000154495 0.000214915 -1.85818e-05)
(0.000144217 0.000244099 -1.80332e-05)
(0.000127628 0.000270567 -1.75435e-05)
(0.000105458 0.000293167 -1.71341e-05)
(7.86925e-05 0.000310955 -1.68172e-05)
(4.85145e-05 0.000323236 -1.66027e-05)
(1.63918e-05 0.00032944 -1.64805e-05)
(-1.99512e-05 0.000402203 -1.99512e-05)
(-5.89554e-05 0.000394758 -2.01411e-05)
(-9.54552e-05 0.000379831 -2.04512e-05)
(-0.000127764 0.00035824 -2.08958e-05)
(-0.000154512 0.000330917 -2.14565e-05)
(-0.000174536 0.000299033 -2.21105e-05)
(-0.000186958 0.00026394 -2.28325e-05)
(-0.000191219 0.000227131 -2.359e-05)
(-0.000187118 0.00019019 -2.43477e-05)
(-0.00017482 0.000154745 -2.50749e-05)
(-0.000154855 0.000122388 -2.57411e-05)
(-0.000128084 9.45869e-05 -2.63172e-05)
(-9.56624e-05 7.25954e-05 -2.67737e-05)
(-5.90048e-05 5.73904e-05 -2.70863e-05)
(-1.97261e-05 4.96367e-05 -2.7241e-05)
(2.04243e-05 4.96725e-05 -2.72321e-05)
(5.96632e-05 5.74815e-05 -2.70665e-05)
(9.62651e-05 7.27185e-05 -2.67524e-05)
(0.000128627 9.47067e-05 -2.62997e-05)
(0.000155343 0.000122479 -2.57245e-05)
(0.000175251 0.000154811 -2.50492e-05)
(0.000187487 0.000190259 -2.43026e-05)
(0.000191514 0.000227235 -2.35215e-05)
(0.000187153 0.000264081 -2.27481e-05)
(0.000174599 0.000299163 -2.20212e-05)
(0.000154424 0.000330948 -2.13713e-05)
(0.000127548 0.000358097 -2.08207e-05)
(9.51755e-05 0.00037953 -2.03838e-05)
(5.8728e-05 0.000394426 -2.00817e-05)
(1.98694e-05 0.000402023 -1.9894e-05)
(-2.41134e-05 0.000489928 -2.41134e-05)
(-7.12102e-05 0.000480985 -2.43443e-05)
(-0.00011528 0.000463125 -2.47474e-05)
(-0.000154359 0.000437279 -2.5338e-05)
(-0.00018677 0.000404546 -2.60889e-05)
(-0.000211092 0.000366304 -2.69716e-05)
(-0.000226237 0.000324161 -2.79468e-05)
(-0.00023151 0.000279912 -2.89677e-05)
(-0.000226652 0.000235481 -2.99915e-05)
(-0.000211849 0.000192846 -3.09745e-05)
(-0.000187726 0.000153932 -3.18739e-05)
(-0.000155313 0.000120494 -3.26473e-05)
(-0.000116016 9.4032e-05 -3.32558e-05)
(-7.15666e-05 7.57265e-05 -3.36705e-05)
(-2.39414e-05 6.63903e-05 -3.38772e-05)
(2.47284e-05 6.64406e-05 -3.38684e-05)
(7.22834e-05 7.58697e-05 -3.36503e-05)
(0.000116639 9.4256e-05 -3.32264e-05)
(0.00015585 0.000120777 -3.26109e-05)
(0.000188201 0.00015425 -3.18279e-05)
(0.000212278 0.000193176 -3.09119e-05)
(0.000227022 0.0002358 -2.99086e-05)
(0.000231789 0.000280202 -2.88692e-05)
(0.000226389 0.000324398 -2.78428e-05)
(0.000211099 0.000366448 -2.6874e-05)
(0.000186645 0.000404562 -2.6e-05)
(0.000154142 0.000437188 -2.52501e-05)
(0.000115036 0.000463033 -2.46573e-05)
(7.10319e-05 0.000481017 -2.42426e-05)
(2.40543e-05 0.000490067 -2.39837e-05)
(-2.90726e-05 0.000595982 -2.90726e-05)
(-8.58511e-05 0.00058524 -2.93686e-05)
(-0.000139016 0.000563936 -2.99051e-05)
(-0.000186226 0.000533088 -3.06939e-05)
(-0.000225442 0.000493992 -3.17007e-05)
(-0.000254928 0.000448268 -3.28819e-05)
(-0.000273352 0.000397827 -3.41824e-05)
(-0.00027986 0.000344829 -3.55473e-05)
(-0.000274116 0.000291598 -3.69188e-05)
(-0.000256325 0.000240512 -3.82372e-05)
(-0.000227218 0.000193868 -3.94443e-05)
(-0.000188034 0.000153759 -4.0481e-05)
(-0.000140485 0.000121984 -4.12975e-05)
(-8.66827e-05 9.99797e-05 -4.18587e-05)
(-2.90329e-05 8.87466e-05 -4.21454e-05)
(2.98902e-05 8.87952e-05 -4.21454e-05)
(8.74735e-05 0.000100131 -4.1853e-05)
(0.000141176 0.000122237 -4.12779e-05)
(0.000188625 0.00015411 -4.04423e-05)
(0.000227725 0.000194303 -3.93861e-05)
(0.000256754 0.000240988 -3.81611e-05)
(0.000274446 0.000292043 -3.68293e-05)
(0.00028006 0.000345166 -3.54513e-05)
(0.000273412 0.000398003 -3.40866e-05)
(0.00025487 0.000448282 -3.27887e-05)
(0.000225306 0.00049392 -3.1608e-05)
(0.000186056 0.000533062 -3.06001e-05)
(0.000138864 0.000564062 -2.98052e-05)
(8.57645e-05 0.000585507 -2.92463e-05)
(2.90494e-05 0.000596104 -2.89345e-05)
(-3.49885e-05 0.000723812 -3.49885e-05)
(-0.000103332 0.000710997 -3.5379e-05)
(-0.000167366 0.000685681 -3.60932e-05)
(-0.000224281 0.000649002 -3.71433e-05)
(-0.000271616 0.000602473 -3.84776e-05)
(-0.000307274 0.000547998 -4.00394e-05)
(-0.00032964 0.000487854 -4.17644e-05)
(-0.000337659 0.000424626 -4.35817e-05)
(-0.0003309 0.000361098 -4.54142e-05)
(-0.000309571 0.000300096 -4.71826e-05)
(-0.00027453 0.000244348 -4.88022e-05)
(-0.000227268 0.00019635 -5.01955e-05)
(-0.00016986 0.000158272 -5.12997e-05)
(-0.000104865 0.000131864 -5.20669e-05)
(-3.51913e-05 0.000118354 -5.24646e-05)
(3.60536e-05 0.00011837 -5.24708e-05)
(0.000105694 0.000131922 -5.20773e-05)
(0.000170619 0.000158384 -5.13007e-05)
(0.000227928 0.000196536 -5.01771e-05)
(0.000275069 0.000244611 -4.87654e-05)
(0.000309973 0.000300394 -4.71374e-05)