/*--------------------------------*- C++ -*----------------------------------*\
| =========                 |                                                 |
| \\      /  F ield         | OpenFOAM: The Open Source CFD Toolbox           |
|  \\    /   O peration     | Version:  2312                                  |
|   \\  /    A nd           | Website:  www.openfoam.com                      |
|    \\/     M anipulation  |                                                 |
\*---------------------------------------------------------------------------*/
FoamFile
{
    version     2.0;
    format      ascii;
    arch        "LSB;label=32;scalar=64";
    class       volScalarField;
    location    "0.602264";
    object      alpha.water;
}
// * * * * * * * * * * * * * * * * * * * * * * * * * * * * * * * * * * * * * //

dimensions      [0 0 0 0 0 0 0];

internalField   nonuniform List<scalar> 
90000
(
1
0.999987
0.99999
0.999992
0.999995
0.999999
1
1.00001
1.00001
1.00001
1.00001
1.00001
1.00001
1.00001
1.00001
1.00001
1.00001
1.00001
1.00001
1.00001
1.00001
1
1
0.999999
1
1
1.00001
1.00001
1.00002
1.00002
0.999987
0.999982
0.999987
0.999992
0.999998
1
1.00001
1.00001
1.00002
1.00002
1.00002
1.00002
1.00002
1.00002
1.00002
1.00002
1.00002
1.00002
1.00001
1.00001
1.00001
1
1
1
1.00001
1.00002
1.00003
1.00005
1.00009
1.00021
0.99999
0.999989
0.999992
0.999996
1
1.00001
1.00001
1.00001
1.00001
1.00001
1.00001
1.00001
1.00001
1.00001
1.00001
1.00001
1.00001
1.00001
1.00001
1.00001
1
1
1
1
1.00001
1.00001
1
0.999978
0.999923
1.00005
0.999994
0.999997
0.999999
1
1
1.00001
1.00001
1.00001
1.00001
1.00001
1.00001
1.00001
1.00001
1.00001
1.00001
1.00001
1.00001
1.00001
1.00001
1.00001
1
1
1
1.00001
1.00001
1.00001
1.00002
1.00003
0.999978
1.00001
0.999999
1.00001
1.00001
1.00001
1.00001
1.00001
1.00001
1.00001
1.00001
1.00001
1.00001
1.00001
1.00001
1.00001
1.00001
1.00001
1.00001
1
1
1
1
1.00001
1.00001
1.00001
1
0.999999
0.999994
1.00001
0.999987
0.999993
1.00001
1.00002
1.00002
1.00001
1.00001
1.00001
1.00001
1.00001
1.00001
1.00001
1.00001
1.00001
1.00001
1.00001
1.00001
1.00001
1.00001
1
1
1
1
1.00001
1.00001
1
1
0.999999
0.999991
0.999991
0.999984
0.999987
1.00001
1.00003
1.00002
1.00002
1.00002
1.00001
1.00001
1.00001
1.00001
1.00001
1.00001
1.00001
1.00001
1.00001
1.00001
1.00001
1.00001
1
1
1
1
1
1
1
0.999999
0.999996
0.999991
0.999989
0.999986
0.999991
1.00002
1.00003
1.00002
1.00002
1.00002
1.00001
1.00001
1.00001
1
1
1.00001
1.00001
1.00001
1.00001
1.00001
1.00001
1.00001
1.00001
1
1
1
1
1
1
0.999998
0.999995
0.999994
0.999994
0.999995
0.999999
1.00002
1.00003
1.00003
1.00002
1.00002
1.00001
1.00001
1
1
0.999999
0.999999
1
1
1
1.00001
1.00001
1.00001
1.00001
1
1
1
1
0.999998
0.999997
0.999996
0.999996
0.999997
0.999999
1
1
1.00002
1.00003
1.00003
1.00002
1.00002
1.00001
1.00001
1
0.999997
0.999993
0.999992
0.999992
0.999995
0.999997
1
1
1
1
1
1
1
0.999999
0.999997
0.999996
0.999996
0.999996
0.999999
1
1
1
1.00002
1.00003
1.00003
1.00003
1.00002
1.00002
1.00001
1
0.999994
0.999989
0.999986
0.999985
0.999987
0.999989
0.999992
0.999995
0.999998
1
1
1
1
1
0.999998
0.999997
0.999997
0.999998
1
1
1
1
1.00002
1.00003
1.00003
1.00003
1.00002
1.00002
1.00001
1
0.999993
0.999987
0.999983
0.999981
0.999981
0.999982
0.999985
0.999988
0.999992
0.999996
0.999999
1
1
1
1
1
1
1
1
1
1
1
1.00002
1.00003
1.00002
1.00002
1.00002
1.00001
1.00001
0.999999
0.999993
0.999988
0.999984
0.999981
0.99998
0.99998
0.999981
0.999985
0.999989
0.999995
1
1.00001
1.00001
1.00001
1.00001
1.00001
1.00001
1.00001
1.00001
1.00001
1.00001
1.00001
1.00002
1.00001
1.00001
1.00001
1
1
0.999998
0.999996
0.999994
0.999992
0.99999
0.999988
0.999986
0.999984
0.999985
0.999988
0.999992
0.999999
1.00001
1.00001
1.00002
1.00002
1.00002
1.00002
1.00002
1.00001
1.00001
1.00001
1.00001
1.00001
1.00001
0.999986
0.999986
0.999985
0.999985
0.999987
0.99999
0.999994
0.999998
1
1
0.999998
0.999996
0.999993
0.999992
0.999993
0.999997
1
1.00001
1.00001
1.00002
1.00002
1.00002
1.00002
1.00002
1.00001
1.00001
1
1
0.999994
0.999989
0.99996
0.999964
0.999966
0.999971
0.999978
0.999987
0.999996
1
1.00001
1.00001
1.00001
1
0.999998
0.999995
0.999995
0.999996
0.999999
1
1.00001
1.00001
1.00001
1.00001
1.00001
1.00001
1
1
0.999995
0.999987
0.999983
0.999974
0.999944
0.999951
0.999957
0.999966
0.999977
0.999988
0.999997
1
1.00001
1.00001
1
0.999999
0.999995
0.999992
0.999991
0.99999
0.999991
0.999993
0.999995
0.999997
0.999998
0.999999
1
0.999999
0.999996
0.999991
0.999985
0.999978
0.999982
0.999966
0.999943
0.999953
0.999961
0.99997
0.99998
0.999989
0.999995
0.999998
0.999999
0.999998
0.999996
0.999993
0.999991
0.99999
0.999988
0.999988
0.999988
0.999988
0.999989
0.99999
0.999991
0.999993
0.999993
0.999992
0.999988
0.999983
0.999979
0.99998
0.999989
0.999968
0.999955
0.999963
0.99997
0.999978
0.999984
0.99999
0.999993
0.999994
0.999994
0.999994
0.999994
0.999995
0.999994
0.999994
0.999992
0.999991
0.99999
0.999989
0.999989
0.999989
0.99999
0.99999
0.999988
0.999984
0.99998
0.999978
0.999979
0.999985
0.99999
0.999976
0.999971
0.999977
0.999982
0.999987
0.999991
0.999994
0.999995
0.999996
0.999997
0.999999
1
1
1
0.999999
0.999997
0.999994
0.999992
0.99999
0.999989
0.999988
0.999987
0.999985
0.999981
0.999978
0.999977
0.99998
0.999984
0.999987
0.999985
0.999985
0.999984
0.999988
0.999992
0.999997
1
1
1
1
1.00001
1.00001
1.00001
1
1
0.999998
0.999995
0.999993
0.999991
0.999989
0.999987
0.999985
0.999983
0.999981
0.99998
0.999981
0.999985
0.999989
0.99999
0.999986
0.999985
0.999993
0.999995
0.999998
1
1.00001
1.00001
1.00001
1.00001
1.00001
1.00001
1.00001
1.00001
1
0.999998
0.999995
0.999993
0.999993
0.999991
0.99999
0.999988
0.999986
0.999985
0.999985
0.999989
0.999994
0.999997
0.999998
0.999994
0.999988
0.999991
0.999998
1
1.00001
1.00001
1.00001
1.00001
1.00001
1.00001
1.00001
1.00001
1.00001
1
0.999997
0.999995
0.999995
0.999996
0.999997
0.999996
0.999993
0.999991
0.999991
0.999993
0.999997
1
1.00001
1.00001
1
0.999996
0.999993
0.999997
1
1.00001
1.00001
1.00001
1.00001
1.00001
1.00001
1.00001
1.00001
1.00001
1
0.999997
0.999995
0.999996
0.999998
1
1
0.999997
0.999994
0.999994
0.999997
1
1.00001
1.00001
1.00001
1.00001
1
1
1
1.00001
1.00001
1.00002
1.00002
1.00001
1.00001
1.00001
1.00001
1
1
0.999999
0.999995
0.999993
0.999994
0.999996
0.999999
1
0.999997
0.999995
0.999994
0.999997
1
1.00001
1.00002
1.00002
1.00002
1.00001
1.00001
1.00002
1.00002
1.00002
1.00001
1.00001
1.00001
1.00001
1
0.999999
0.999997
0.999997
0.999995
0.999992
0.99999
0.999991
0.999994
0.999998
1
0.999999
0.999997
0.999996
0.999998
1
1.00001
1.00001
1.00002
1.00001
1.00001
1.00002
1.00002
1.00002
1.00003
1.00002
1.00001
1.00001
1
0.999996
0.999992
0.99999
0.99999
0.99999
0.999989
0.999989
0.99999
0.999994
0.999999
1
1
1
0.999998
0.999999
1
1.00001
1.00001
1.00001
1
1
1
1.00001
1.00001
1.00002
1.00002
1.00001
1
0.999995
0.999991
0.999987
0.999986
0.999987
0.999987
0.999987
0.999987
0.999989
0.999992
0.999998
1
1
0.999999
0.999996
0.999995
0.999997
0.999999
0.999998
0.999996
0.999992
0.99999
0.99999
0.99999
0.999996
1
1
1
0.999998
0.999996
0.999986
0.999985
0.999985
0.999986
0.999986
0.999986
0.999985
0.999985
0.999988
0.999993
0.999997
0.999998
0.999995
0.999991
0.99999
0.999991
0.999993
0.999992
0.999989
0.999986
0.999983
0.999982
0.999983
0.999986
0.999994
1
0.999999
1
1.00001
0.999991
0.999984
0.999985
0.999986
0.999987
0.999986
0.999984
0.999982
0.999983
0.999987
0.999992
0.999995
0.999994
0.999991
0.999989
0.99999
0.999992
0.999993
0.99999
0.999987
0.999985
0.999982
0.999979
0.999983
0.99999
0.999997
1
1
1.00001
1.00001
0.999991
0.999986
0.999987
0.999988
0.999988
0.999986
0.999983
0.999982
0.999984
0.999988
0.999992
0.999994
0.999993
0.999992
0.999993
0.999996
0.999996
0.999996
0.999994
0.999991
0.999988
0.999983
0.99998
0.999988
0.999994
0.999992
0.999993
1
1.00001
1
0.999992
0.99999
0.999993
0.999994
0.999993
0.999989
0.999984
0.999982
0.999983
0.999987
0.999991
0.999992
0.999993
0.999995
0.999998
1
1
0.999998
0.999997
0.999993
0.999988
0.999984
0.999985
0.999992
0.999992
0.999985
0.999993
1.00001
1
0.999999
0.999995
0.999999
1
1
0.999995
0.999989
0.999982
0.99998
0.999982
0.999986
0.999989
0.999992
0.999996
0.999999
1
1
1
1
0.999997
0.99999
0.999985
0.999986
0.999988
0.999989
0.999984
0.999982
0.999997
1
0.999993
0.999996
1
1.00001
1.00001
1
0.999994
0.999987
0.999983
0.999983
0.999985
0.999988
0.999991
0.999994
0.999997
1
1
1
1
1
0.999995
0.999987
0.999985
0.99999
0.999987
0.99998
0.999981
0.999989
0.999999
0.999994
0.999991
0.999991
1
1.00001
1
1
0.999995
0.999991
0.999989
0.99999
0.999991
0.999991
0.999992
0.999994
0.999997
1
1
1
1
0.999999
0.999995
0.999992
0.999994
1
0.999991
0.999987
0.999999
1.00001
1
0.999996
0.999999
1
1.00001
1.00001
1
1
0.999999
0.999997
0.999996
0.999996
0.999994
0.999992
0.999992
0.999995
0.999997
1
1.00001
1.00001
1.00001
1
1
1
1
1
0.999995
1
1.00001
1.00001
0.999998
0.999999
1
1.00001
1
1.00001
1
1
1
1
1
0.999999
0.999996
0.999994
0.999994
0.999997
1
1.00001
1.00001
1.00001
1.00001
1
1
1.00001
1
1
0.999999
1.00001
1.00001
1
1
1.00001
1.00001
1.00001
1
1
1
1
1
1
1
0.999998
0.999995
0.999995
0.999997
1
1
1
1
1
1
1
1.00001
1.00001
1
1
1
1.00001
1
0.999998
1
1
1.00001
1.00001
1
1
1
1
1
1
0.999998
0.999996
0.999997
1
1
0.999999
1
1
1
1
1
1
1.00001
1
0.999995
1
1
0.999995
0.999994
0.999999
0.999998
1
1
1.00001
1
1.00001
1.00001
1
0.999999
0.999997
0.999998
1
1
1
1
0.999998
1
1
1
1
1
1
1.00001
1
0.999999
1
1
1
1
1.00001
1
1.00001
1.00001
1.00001
1
1.00001
1
1
0.999998
0.999999
1
1
1
0.999999
0.999999
0.999997
1
1
1
1
1.00001
1
1
0.999995
1
1
1
1
1
1
1
1.00001
1.00001
1
1.00001
1.00001
1
1
0.999999
1
1
1
1
0.999997
0.999995
0.999996
1
1
1
0.999995
1
0.999998
1
1
1.00001
1
1
1
1
0.999999
1.00001
1
1
0.999998
1.00001
1.00001
1
0.999999
1
1
1
1
0.999998
0.999995
0.999996
1
1
1
0.999996
0.999999
1.00001
1
1
1
1
1
1
1
0.999999
1
1.00001
1.00001
1.00001
1
1
1
0.999999
1
1
1
1
1
0.999995
0.999997
0.999999
1
1
1
0.999995
1
1
1
0.999997
1
0.999998
0.999995
0.999997
0.999998
0.999999
1
0.999998
1
1
1
1
0.999997
0.999999
1
1
1
0.999996
0.999997
0.999998
1
0.999998
1
0.999997
0.999999
0.999994
1.00001
1
0.999999
0.999995
0.999998
0.999999
1
1
0.999998
0.999995
1
1
1
0.999997
0.999998
0.999999
0.999999
0.999998
0.999999
0.999997
0.999997
0.999997
0.999995
0.999996
0.999999
0.999997
0.999998
0.999994
0.999997
0.999995
0.999998
0.999999
0.999993
0.999998
1
0.999998
1
0.999999
1
0.999999
0.999996
0.999996
0.999995
0.999996
0.999999
0.999996
0.999996
0.999999
1
1
0.999996
0.999997
0.999999
0.999992
0.999998
0.999995
0.999997
0.999995
0.999995
0.999996
0.999999
0.999998
0.999991
0.999993
0.999996
0.999993
0.999993
0.999992
0.999991
0.999998
0.999999
0.999993
1
0.99999
0.999993
0.99999
0.99999
0.999985
0.999978
0.999979
0.999986
0.999985
0.999992
0.999985
0.999991
0.999991
0.999992
0.99999
0.999992
0.999994
0.999999
0.99999
0.999991
0.999996
0.999991
0.999987
0.999985
0.999988
0.999987
0.999987
0.999982
0.999981
0.999992
0.999987
0.999992
0.999998
0.999999
1
1
1
1
1
1
1
1
1
1
1
1
1
1
1
1
1
1
1
1
1
1
1
1
1
1
0.999999
0.999999
0.759138
0.766761
0.782015
0.799521
0.818301
0.838723
0.857999
0.876082
0.892457
0.906851
0.919469
0.930144
0.937737
0.942011
0.944229
0.94424
0.942003
0.937756
0.930156
0.91948
0.906872
0.892474
0.876091
0.858002
0.838733
0.818299
0.799509
0.782024
0.76673
0.759137
0.07541
0.082114
0.0951411
0.113207
0.135857
0.16263
0.193286
0.225794
0.257682
0.287585
0.314448
0.336037
0.353953
0.366374
0.372444
0.372433
0.366369
0.353933
0.336022
0.314429
0.287557
0.257659
0.225774
0.193266
0.162612
0.135843
0.113191
0.0951336
0.0821018
0.0754033
0.00483288
0.00451758
0.00409008
0.00373847
0.00358777
0.00361549
0.00377461
0.00395396
0.00405695
0.00410918
0.00410912
0.0044521
0.00504969
0.00543007
0.00569882
0.00569932
0.00542804
0.00504831
0.00444989
0.00410798
0.00410737
0.00405542
0.00395193
0.00377299
0.00361411
0.00358652
0.00373598
0.00408955
0.004517
0.00483408
0.00147518
0.00131262
0.00104218
0.000832464
0.000718049
0.000687876
0.000708901
0.000734125
0.000741937
0.000737129
0.000738503
0.00075719
0.000763509
0.00076494
0.000771853
0.00077168
0.000764808
0.000763299
0.000756819
0.000738117
0.000736885
0.000741694
0.000734018
0.000708847
0.000687917
0.000718195
0.000831905
0.00104239
0.0013133
0.0014759
0.000373471
0.000332738
0.000235887
0.000168181
0.000129878
0.00011461
0.000115195
0.000120254
0.000128858
0.00013994
0.00014905
0.000159004
0.000165719
0.00016623
0.000167263
0.000167255
0.000166251
0.000165793
0.000159091
0.000149181
0.000140008
0.000128953
0.000120475
0.000115521
0.000114806
0.000130059
0.000168227
0.000236057
0.000333092
0.00037366
7.47581e-05
6.95447e-05
4.55993e-05
2.97346e-05
2.07646e-05
1.65549e-05
1.56776e-05
1.63541e-05
1.76266e-05
2.06928e-05
2.48391e-05
3.03738e-05
3.50565e-05
3.69674e-05
3.77632e-05
3.77724e-05
3.70007e-05
3.51231e-05
3.05467e-05
2.49255e-05
2.0803e-05
1.78344e-05
1.64256e-05
1.57608e-05
1.66057e-05
2.0795e-05
2.97728e-05
4.56806e-05
6.97035e-05
7.47751e-05
1.20089e-05
1.18875e-05
7.36445e-06
4.45465e-06
2.83161e-06
2.02796e-06
1.74772e-06
1.74065e-06
1.79763e-06
2.24515e-06
3.19036e-06
4.54551e-06
6.30686e-06
7.32706e-06
7.99529e-06
8.00027e-06
7.33553e-06
6.32489e-06
4.58614e-06
3.21401e-06
2.26904e-06
1.83169e-06
1.75397e-06
1.75845e-06
2.03651e-06
2.83922e-06
4.46151e-06
7.38943e-06
1.19417e-05
1.20057e-05
1.57307e-06
1.66885e-06
9.84363e-07
5.54324e-07
3.22013e-07
2.06247e-07
1.56936e-07
1.40666e-07
1.35133e-07
1.58995e-07
2.57193e-07
4.69232e-07
7.79032e-07
1.06229e-06
1.31329e-06
1.31474e-06
1.06352e-06
7.80867e-07
4.72632e-07
2.60209e-07
1.61481e-07
1.36218e-07
1.42032e-07
1.58062e-07
2.07115e-07
3.2291e-07
5.55845e-07
9.88756e-07
1.68019e-06
1.57269e-06
1.68331e-07
1.92119e-07
1.08278e-07
5.68641e-08
3.01891e-08
1.72005e-08
1.13743e-08
8.81388e-09
7.83384e-09
8.4358e-09
1.29496e-08
2.71934e-08
5.98715e-08
1.03148e-07
1.5134e-07
1.51434e-07
1.03179e-07
6.00612e-08
2.74393e-08
1.31207e-08
8.54957e-09
7.90632e-09
8.90429e-09
1.14648e-08
1.72706e-08
3.02574e-08
5.71004e-08
1.08895e-07
1.93843e-07
1.68562e-07
1.46837e-08
1.80939e-08
9.75399e-09
4.80319e-09
2.31603e-09
1.17374e-09
6.71298e-10
4.66039e-10
3.98307e-10
3.96366e-10
5.69923e-10
1.12169e-09
2.57496e-09
5.38872e-09
9.51046e-09
9.51467e-09
5.38492e-09
2.58564e-09
1.13223e-09
5.75131e-10
3.99967e-10
4.01395e-10
4.64385e-10
6.75566e-10
1.17761e-09
2.3234e-09
4.81306e-09
9.83179e-09
1.82926e-08
1.47265e-08
1.03889e-09
1.38915e-09
7.1857e-10
3.29471e-10
1.45386e-10
6.84194e-11
4.15048e-11
2.91583e-11
2.31704e-11
2.36666e-11
3.56745e-11
6.69485e-11
1.26841e-10
2.15487e-10
3.6927e-10
3.6997e-10
2.15905e-10
1.27271e-10
6.74064e-11
3.60816e-11
2.38607e-11
2.32382e-11
2.89469e-11
4.02745e-11
6.55155e-11
1.45759e-10
3.31348e-10
7.24877e-10
1.40851e-09
1.04515e-09
5.95474e-11
8.68963e-11
4.31122e-11
2.02676e-11
9.05238e-12
4.04192e-12
2.0877e-12
1.42834e-12
1.29385e-12
2.10268e-12
4.123e-12
6.7175e-12
1.32259e-11
2.30871e-11
3.30063e-11
3.30109e-11
2.31161e-11
1.32652e-11
6.75678e-12
4.18206e-12
2.12945e-12
1.30249e-12
1.41337e-12
2.01215e-12
3.81797e-12
8.63076e-12
1.9984e-11
4.35752e-11
8.82871e-11
6.00139e-11
3.11151e-12
4.88375e-12
2.53781e-12
1.09439e-12
7.36396e-13
4.07387e-13
2.45273e-13
2.35201e-13
3.47208e-13
7.3801e-13
1.5862e-12
3.20171e-12
6.48026e-12
1.04376e-11
1.15727e-11
1.15601e-11
1.04532e-11
6.509e-12
3.22298e-12
1.61823e-12
7.54589e-13
3.54267e-13
2.36576e-13
2.38351e-13
3.82133e-13
6.83807e-13
1.07981e-12
2.56836e-12
4.97498e-12
3.14472e-12
2.14687e-13
3.34165e-13
2.33011e-13
1.0252e-13
4.20153e-14
1.74413e-14
9.478e-15
1.01407e-14
1.9922e-14
5.25532e-14
1.41475e-13
3.90379e-13
8.45361e-13
1.41994e-12
1.99497e-12
1.993e-12
1.42282e-12
8.53017e-13
3.95187e-13
1.44995e-13
5.41116e-14
2.05464e-14
1.02999e-14
9.17441e-15
1.63637e-14
4.00676e-14
1.00843e-13
2.37633e-13
3.39961e-13
2.17159e-13
8.97311e-15
1.67602e-14
9.51061e-15
3.56232e-15
1.20783e-15
4.3299e-16
2.24052e-16
2.70108e-16
5.79978e-16
1.64899e-15
5.49801e-15
1.85936e-14
4.71564e-14
9.56976e-14
1.49299e-13
1.48914e-13
9.59554e-14
4.78066e-14
1.89602e-14
5.66128e-15
1.70915e-15
6.00251e-16
2.7507e-16
2.16369e-16
3.98145e-16
1.14671e-15
3.53125e-15
9.68158e-15
1.71419e-14
9.10962e-15
2.16122e-16
4.62137e-16
2.39235e-16
8.03175e-17
2.66518e-17
8.80145e-18
4.96931e-18
7.47264e-18
1.69916e-17
4.84261e-17
1.59099e-16
5.35859e-16
1.5051e-15
3.46131e-15
5.59237e-15
5.59035e-15
3.47432e-15
1.51985e-15
5.47915e-16
1.64729e-16
5.03657e-17
1.7685e-17
7.63351e-18
4.8373e-18
7.99795e-18
2.46963e-17
8.10657e-17
2.44179e-16
4.77174e-16
2.21347e-16
4.1294e-18
9.7834e-18
4.88184e-18
1.58276e-18
4.71557e-19
1.48488e-19
1.03252e-19
1.90589e-19
4.48801e-19
1.2576e-18
3.94773e-18
1.28484e-17
3.53206e-17
7.96629e-17
1.29833e-16
1.30602e-16
8.05289e-17
3.57613e-17
1.32009e-17
4.1134e-18
1.30548e-18
4.65613e-19
1.96349e-19
1.01571e-19
1.35311e-19
4.39265e-19
1.57235e-18
5.06411e-18
1.01402e-17
4.20482e-18
6.25031e-20
1.71019e-19
8.12185e-20
2.45368e-20
6.72168e-21
2.17459e-21
2.0155e-21
4.33212e-21
1.02585e-20
2.77181e-20
8.37609e-20
2.62229e-19
6.94978e-19
1.53767e-18
2.49068e-18
2.48883e-18
1.54472e-18
7.06815e-19
2.69072e-19
8.66793e-20
2.87528e-20
1.06731e-20
4.52347e-21
2.01707e-21
1.95703e-21
6.29555e-21
2.45e-20
8.48506e-20
1.76452e-19
6.46781e-20
7.52439e-22
2.3263e-21
1.09631e-21
2.99443e-22
8.02884e-23
2.79155e-23
3.6607e-23
8.69118e-23
1.9966e-22
5.10547e-22
1.46119e-21
4.34756e-21
1.12214e-20
2.4371e-20
3.87401e-20
3.86503e-20
2.44794e-20
1.14604e-20
4.47626e-21
1.51093e-21
5.28933e-22
2.06944e-22
9.04789e-23
3.77366e-23
2.55999e-23
7.35881e-23
3.08149e-22
1.14577e-21
2.47389e-21
7.96667e-22
7.48783e-24
2.5648e-23
1.18095e-23
3.08481e-24
7.78011e-25
3.30328e-25
6.19459e-25
1.4989e-24
3.25727e-24
7.77759e-24
2.0907e-23
5.90841e-23
1.45693e-22
3.01805e-22
4.69926e-22
4.73655e-22
3.05983e-22
1.47086e-22
6.00804e-23
2.17419e-23
8.14741e-24
3.40375e-24
1.5597e-24
6.50495e-25
3.21134e-25
7.06518e-25
3.10977e-24
1.23853e-23
2.77994e-23
7.83581e-24
5.61863e-26
2.35411e-25
9.93961e-26
2.51017e-26
6.08925e-27
3.93946e-27
9.35652e-27
2.15649e-26
4.38035e-26
9.77534e-26
2.46088e-25
6.47102e-25
1.49e-24
2.96423e-24
4.6065e-24
4.67472e-24
3.0528e-24
1.52146e-24
6.6031e-25
2.56872e-25
1.03206e-25
4.64284e-26
2.27408e-26
9.8222e-27
3.95976e-27
5.73527e-27
2.54344e-26
1.07864e-25
2.5058e-25
6.15995e-26
3.51551e-28
1.64586e-27
6.87106e-28
1.62494e-28
4.38541e-29
4.55876e-29
1.18321e-28
2.59225e-28
4.96772e-28
1.02221e-27
2.32531e-27
5.47284e-27
1.17437e-26
2.26114e-26
3.43823e-26
3.42909e-26
2.2869e-26
1.22041e-26
5.77148e-27
2.4528e-27
1.07498e-27
5.29356e-28
2.80637e-28
1.27604e-28
4.69994e-29
4.16663e-29
1.70383e-28
7.57619e-28
1.81518e-27
3.9057e-28
1.8997e-30
9.13579e-30
4.05014e-30
9.11494e-31
2.98906e-31
4.66978e-31
1.26131e-30
2.65343e-30
4.69225e-30
8.63131e-30
1.74593e-29
3.72919e-29
7.55958e-29
1.37696e-28
1.99114e-28
1.98941e-28
1.41037e-28
8.13689e-29
4.11717e-29
1.89651e-29
9.19285e-30
5.03325e-30
2.90013e-30
1.3945e-30
5.06869e-31
2.87297e-31
9.40535e-31
4.31927e-30
1.06781e-29
2.02257e-30
7.49688e-33
4.53975e-32
1.82945e-32
4.25751e-33
1.91608e-33
4.42338e-33
1.18427e-32
2.27662e-32
3.55411e-32
5.75425e-32
1.05168e-31
2.07194e-31
3.84472e-31
6.38506e-31
8.83143e-31
9.06598e-31
6.75672e-31
4.0962e-31
2.23852e-31
1.16825e-31
6.47244e-32
3.94381e-32
2.45762e-32
1.26145e-32
4.79062e-33
2.0124e-33
4.49748e-33
2.05445e-32
5.12227e-32
8.58848e-33
2.70695e-35
1.82572e-34
6.74396e-35
1.75738e-35
1.29801e-35
3.66872e-35
9.07905e-35
1.57586e-34
2.22601e-34
3.30003e-34
5.46023e-34
9.29583e-34
1.46721e-33
2.20275e-33
3.01536e-33
3.21342e-33
2.51372e-33
1.64743e-33
1.0209e-33
6.1094e-34
3.77956e-34
2.52477e-34
1.72272e-34
9.71391e-35
3.96749e-35
1.43389e-35
1.9432e-35
8.12842e-35
1.9885e-34
3.04931e-35
9.66701e-38
5.49265e-37
2.4236e-37
7.32535e-38
8.68743e-38
2.44996e-37
5.69548e-37
9.30347e-37
1.22937e-36
1.65654e-36
2.3385e-36
3.31788e-36
4.68701e-36
6.86087e-36
9.22709e-36
9.44933e-36
7.44977e-36
5.38051e-36
3.84976e-36
2.62184e-36
1.81111e-36
1.35436e-36
1.03727e-36
6.47395e-37
2.81598e-37
9.54919e-38
7.82854e-38
2.68839e-37
6.4816e-37
9.58515e-38
2.40208e-40
1.58961e-39
7.61844e-40
3.08284e-40
4.97144e-40
1.44675e-39
3.29483e-39
4.95974e-39
5.80027e-39
6.54511e-39
7.57556e-39
9.52868e-39
1.29111e-38
1.74286e-38
2.01764e-38
1.88782e-38
1.62059e-38
1.42358e-38
1.21338e-38
9.31638e-39
7.19358e-39
6.09657e-39
5.28003e-39
3.6262e-39
1.6689e-39
5.65285e-40
3.21673e-40
8.06688e-40
1.90336e-39
2.76904e-40
6.05525e-43
4.79814e-42
2.15467e-42
1.25786e-42
2.54019e-42
7.61328e-42
1.56907e-41
2.09332e-41
2.12483e-41
2.06998e-41
2.18717e-41
2.63529e-41
3.15446e-41
3.41216e-41
3.35513e-41
3.26992e-41
3.34513e-41
3.37116e-41
3.08693e-41
2.58017e-41
2.3054e-41
2.30787e-41
2.31486e-41
1.74856e-41
8.48768e-42
2.95968e-42
1.38838e-42
2.37586e-42
5.11806e-42
7.37533e-43
1.92371e-45
1.17309e-44
6.4539e-45
5.10498e-45
1.21232e-44
3.21582e-44
5.88007e-44
7.23015e-44
6.60915e-44
5.93831e-44
5.90699e-44
6.16141e-44
5.62594e-44
4.87406e-44
4.69143e-44
5.15749e-44
5.61189e-44
5.68588e-44
5.60293e-44
5.6924e-44
6.43888e-44
7.68943e-44
8.73036e-44
7.01247e-44
3.56658e-44
1.31668e-44
5.82406e-45
7.06808e-45
1.26988e-44
1.8823e-45
4.32159e-48
2.66605e-47
1.85166e-47
1.95143e-47
4.46144e-47
1.07404e-46
1.95281e-46
2.22442e-46
1.8719e-46
1.47788e-46
1.23902e-46
9.97518e-47
7.31045e-47
5.84641e-47
5.92844e-47
6.49243e-47
6.60705e-47
6.85886e-47
8.2837e-47
1.0967e-46
1.51161e-46
2.05037e-46
2.43808e-46
2.16998e-46
1.22387e-46
5.02747e-47
2.25836e-47
2.16665e-47
3.0666e-47
4.82145e-48
1.07102e-50
6.39199e-50
5.16471e-50
5.88691e-50
1.20651e-49
2.96595e-49
5.23227e-49
5.08441e-49
3.915e-49
2.59595e-49
1.84676e-49
1.31856e-49
9.3573e-50
7.43625e-50
6.72859e-50
5.99518e-50
5.62821e-50
6.86879e-50
1.07738e-49
1.75257e-49
2.73148e-49
4.16945e-49
5.33559e-49
5.73301e-49
3.74531e-49
1.68601e-49
7.62966e-50
6.36716e-50
7.24956e-50
1.20817e-50
2.62616e-53
1.33816e-52
1.29998e-52
1.3846e-52
2.94057e-52
6.91602e-52
1.04235e-51
9.20463e-52
6.13299e-52
3.64944e-52
2.4589e-52
1.75337e-52
1.20026e-52
7.95189e-53
5.44728e-53
4.21109e-53
4.59866e-53
7.52329e-53
1.43713e-52
2.58187e-52
4.29085e-52
7.16766e-52
1.08721e-51
1.29528e-51
9.56299e-52
4.4366e-52
2.00448e-52
1.58343e-52
1.60518e-52
2.83849e-53
3.98192e-56
2.79253e-55
2.37659e-55
2.76462e-55
5.93928e-55
1.24439e-54
1.76748e-54
1.53982e-54
9.50419e-55
5.4186e-55
3.5922e-55
2.39251e-55
1.36339e-55
7.20629e-56
4.4495e-56
3.92194e-56
5.32134e-56
9.6113e-56
1.83245e-55
3.24668e-55
5.59997e-55
1.03472e-54
1.82068e-54
2.31424e-54
1.83408e-54
8.65071e-55
4.07429e-55
3.30946e-55
3.31726e-55
6.10359e-56
8.33834e-59
5.13342e-58
3.91833e-58
5.06634e-58
9.23468e-58
1.90861e-57
2.69322e-57
2.26127e-57
1.28226e-57
7.12058e-58
4.46454e-58
2.57686e-58
1.25565e-58
6.46644e-59
4.5632e-59
4.6211e-59
6.166e-59
9.97586e-59
1.8085e-58
3.36522e-58
6.58991e-58
1.40618e-57
2.78226e-57
3.61428e-57
2.92133e-57
1.39567e-57
7.06275e-58
6.09405e-58
6.27618e-58
1.15813e-58
2.23401e-61
6.00104e-61
7.82679e-61
9.38062e-61
1.61091e-60
3.49044e-60
4.17822e-60
3.18597e-60
1.64432e-60
8.67739e-61
4.84868e-61
2.47289e-61
1.18135e-61
6.89316e-62
5.4499e-62
5.37608e-62
6.476e-62
9.90124e-62
1.96069e-61
4.28797e-61
9.61555e-61
2.18399e-60
4.30083e-60
5.29363e-60
4.1122e-60
1.99095e-60
1.0949e-60
9.98157e-61
1.05896e-60
1.93505e-61
1.76482e-64
1.10441e-63
1.60692e-63
1.71993e-63
3.11744e-63
6.16702e-63
6.15328e-63
4.62458e-63
2.32286e-63
1.15739e-63
5.796e-64
2.75314e-64
1.34497e-64
8.17227e-65
6.15169e-65
5.53516e-65
6.58008e-65
1.11223e-64
2.5506e-64
6.13861e-64
1.3818e-63
2.94484e-63
5.49601e-63
6.41763e-63
5.15354e-63
2.71508e-63
1.63615e-63
1.55743e-63
1.67242e-63
2.98459e-64
2.89289e-67
3.22559e-66
2.76253e-66
2.76649e-66
4.57874e-66
7.59471e-66
7.23133e-66
5.7319e-66
2.88569e-66
1.33341e-66
6.06235e-67
2.69962e-67
1.25137e-67
6.88435e-68
4.60456e-68
4.05092e-68
5.43331e-68
1.09421e-67
2.78625e-67
6.71114e-67
1.42832e-66
2.95154e-66
5.88833e-66
7.37468e-66
7.03112e-66
4.1218e-66
2.56638e-66
2.43137e-66
2.53712e-66
4.33811e-67
9.63528e-70
4.70107e-69
3.56184e-69
3.6134e-69
5.45381e-69
8.4649e-69
8.2307e-69
6.42939e-69
2.99449e-69
1.21535e-69
4.94239e-70
2.0414e-70
8.70916e-71
4.31518e-71
2.79135e-71
2.77447e-71
4.51475e-71
1.03467e-70
2.66755e-70
6.14878e-70
1.29561e-69
2.8898e-69
6.69755e-69
9.76507e-69
1.02969e-68
6.16117e-69
3.70907e-69
3.42015e-69
3.53565e-69
5.95127e-70
1.00659e-72
3.37604e-72
3.94679e-72
4.24432e-72
6.5938e-72
1.00241e-71
9.59772e-72
6.7333e-72
2.76408e-72
9.8104e-73
3.74954e-73
1.56036e-73
6.75289e-74
3.45576e-74
2.45427e-74
2.75606e-74
4.73856e-74
1.04065e-73
2.45269e-73
5.35581e-73
1.17482e-72
2.90969e-72
7.42999e-72
1.1477e-71
1.18206e-71
6.80514e-72
4.18222e-72
4.0309e-72
4.58349e-72
8.02313e-73
5.68652e-76
5.81623e-75
5.78346e-75
5.68323e-75
7.69817e-75
1.00439e-74
9.38043e-75
6.11591e-75
2.31979e-75
7.92593e-76
3.21588e-76
1.46953e-76
6.82626e-77
3.68585e-77
2.70696e-77
2.92755e-77
4.4784e-77
8.42361e-77
1.79288e-76
3.95035e-76
9.4504e-76
2.54951e-75
6.64869e-75
9.7587e-75
9.50194e-75
5.5648e-75
3.97774e-75
4.39073e-75
5.85865e-75
1.06281e-75
1.48281e-78
1.3794e-77
8.78236e-78
7.31797e-78
7.75214e-78
9.31484e-78
9.35429e-78
6.16905e-78
2.30507e-78
8.31804e-79
3.70343e-79
1.76168e-79
8.0293e-80
4.13801e-80
2.8064e-80
2.65987e-80
3.48751e-80
5.9016e-80
1.26069e-79
3.07022e-79
8.11405e-79
2.2581e-78
5.61371e-78
7.55945e-78
7.12603e-78
4.62618e-78
3.72891e-78
4.78158e-78
6.97628e-78
1.23701e-78
4.42456e-81
1.36392e-80
9.25209e-81
6.33154e-81
6.88019e-81
1.01841e-80
1.09004e-80
7.10211e-81
2.66864e-81
1.02879e-81
4.64607e-82
2.07119e-82
8.61508e-83
4.12255e-83
2.63772e-83
2.35181e-83
2.98022e-83
5.16568e-83
1.19493e-82
3.16404e-82
8.53889e-82
2.25797e-81
5.13947e-81
6.59656e-81
6.14803e-81
4.29904e-81
3.56909e-81
4.68662e-81
6.67148e-81
1.11375e-81
1.87205e-84
6.4357e-84
7.06047e-84
5.67179e-84
7.64441e-84
1.23649e-83
1.15511e-83
6.39492e-84
2.36687e-84
9.00559e-85
3.69913e-85
1.44637e-85
5.6256e-86
2.7738e-86
1.92353e-86
1.86888e-86
2.55601e-86
4.73818e-86
1.14063e-85
3.02626e-85
7.86117e-85
1.97528e-84
4.39319e-84
5.85547e-84
5.66519e-84
4.09016e-84
3.24293e-84
3.9293e-84
4.93484e-84
7.79958e-85
9.94174e-88
1.11229e-86
9.97943e-87
8.33783e-87
1.22406e-86
1.46304e-86
9.80303e-87
4.26644e-87
1.44653e-87
4.64125e-88
1.49477e-88
4.91934e-89
1.94391e-89
1.1429e-89
9.55717e-90
1.05701e-89
1.54985e-89
2.94129e-89
7.03388e-89
1.83927e-88
4.84895e-88
1.30862e-87
3.30265e-87
5.2742e-87
5.69646e-87
4.16217e-87
3.05242e-87
3.16501e-87
3.29976e-87
5.00425e-88
2.37662e-90
2.27562e-89
1.56932e-89
1.34975e-89
1.63287e-89
1.34195e-89
7.83732e-90
3.21118e-90
9.69675e-91
2.44721e-91
6.23965e-92
1.91532e-92
7.98324e-93
5.04166e-93
4.34502e-93
4.73677e-93
6.73492e-93
1.2497e-92
2.98774e-92
8.21336e-92
2.50149e-91
8.40254e-91
2.69596e-90
5.4216e-90
6.50693e-90
4.69121e-90
3.07148e-90
2.73292e-90
2.41331e-90
3.59571e-91
4.89444e-93
1.79545e-92
1.34904e-92
1.07016e-92
1.21281e-92
1.07018e-92
7.49799e-93
3.15166e-93
8.38927e-94
1.8332e-94
4.44329e-95
1.37164e-95
5.61589e-96
3.13376e-96
2.23013e-96
2.13053e-96
2.91755e-96
5.60048e-96
1.43167e-95
4.34482e-95
1.51657e-94
6.05587e-94
2.31851e-93
5.43639e-93
6.89343e-93
4.86694e-93
2.95585e-93
2.50477e-93
2.14104e-93
3.31431e-94
1.7927e-96
8.288e-96
9.84544e-96
8.61838e-96
1.01609e-95
1.10253e-95
7.98948e-96
2.82725e-96
6.21092e-97
1.27374e-97
3.2286e-98
9.91109e-99
3.53184e-99
1.56326e-99
9.18513e-100
8.61532e-100
1.33518e-99
2.97344e-99
8.42844e-99
2.67372e-98
9.50245e-98
3.85401e-97
1.54907e-96
3.9458e-96
5.27281e-96
4.02096e-96
2.66052e-96
2.47096e-96
2.42409e-96
4.04093e-97
1.24277e-99
1.45612e-98
1.3999e-98
1.13392e-98
1.42972e-98
1.44119e-98
7.2291e-99
1.70329e-99
2.99906e-100
6.04004e-101
1.54902e-101
4.29461e-102
1.22841e-102
4.35985e-103
2.5857e-103
2.92401e-103
5.646e-103
1.50308e-102
4.51195e-102
1.37225e-101
4.46288e-101
1.69116e-100
6.78066e-100
1.95169e-99
3.03253e-99
3.0316e-99
2.48264e-99
2.83179e-99
3.36492e-99
5.87698e-100
2.86842e-102
2.58261e-101
1.83101e-101
1.48474e-101
1.80865e-101
1.48878e-101
4.58351e-102
7.4693e-103
1.25463e-103
2.61075e-104
6.28e-105
1.47824e-105
3.65844e-106
1.2666e-106
7.90253e-107
1.00056e-106
2.19248e-106
6.10019e-106
1.82117e-105
5.26449e-105
1.6337e-104
6.195e-104
2.66417e-103
9.19459e-103
1.96277e-102
2.60226e-102
2.60862e-102
3.55027e-102
4.79132e-102
8.28032e-103
4.81807e-105
2.00046e-104
1.38335e-104
1.22706e-104
1.36547e-104
8.57163e-105
2.28346e-105
4.14525e-106
7.92076e-107
1.56586e-107
3.21079e-108
6.2775e-109
1.35393e-109
4.3841e-110
2.56573e-110
3.00085e-110
5.99347e-110
1.62492e-109
5.17898e-109
1.77058e-108
6.75907e-108
3.04957e-107
1.50137e-106
6.27911e-106
1.65529e-105
2.53556e-105
2.76027e-105
3.98187e-105
5.57093e-105
9.23942e-106
1.69093e-105
1.69093e-105
4.62483e-105
6.82945e-105
4.27072e-105
1.5039e-105
3.24527e-106
5.40421e-107
8.97262e-108
1.53093e-108
2.59503e-109
5.19574e-110
1.4851e-110
6.79519e-111
3.76404e-111
6.53223e-114
1.05765e-113
2.20436e-113
1.84711e-110
1.02143e-109
5.84155e-109
3.22469e-108
1.80399e-107
1.04451e-106
4.74927e-106
1.33393e-105
2.2075e-105
1.62329e-105
7.30243e-106
7.31323e-106
0.999987
0.999981
0.999986
0.999991
0.999998
1
1.00001
1.00002
1.00002
1.00002
1.00002
1.00002
1.00002
1.00002
1.00002
1.00002
1.00002
1.00002
1.00002
1.00001
1.00001
1
1
1
1.00001
1.00001
1.00002
1.00002
0.999982
0.999855
0.999982
0.999981
0.999987
0.999994
1
1.00001
1.00002
1.00002
1.00002
1.00002
1.00002
1.00002
1.00002
1.00002
1.00002
1.00002
1.00002
1.00002
1.00002
1.00001
1.00001
1
1
1
1.00001
1.00002
1.00003
1.00004
1.00004
1.00003
0.999989
0.99999
0.999994
0.999999
1
1.00001
1.00001
1.00002
1.00002
1.00002
1.00002
1.00002
1.00002
1.00002
1.00002
1.00002
1.00001
1.00001
1.00001
1.00001
1.00001
1
1
1.00001
1.00001
1.00002
1.00004
1.00005
0.999989
1.00001
0.999997
1
1
1.00001
1.00001
1.00001
1.00001
1.00001
1.00001
1.00002
1.00002
1.00002
1.00002
1.00002
1.00001
1.00001
1.00001
1.00001
1.00001
1.00001
1.00001
1.00001
1.00001
1.00001
1
0.999998