/*--------------------------------*- C++ -*----------------------------------*\
| =========                 |                                                 |
| \\      /  F ield         | OpenFOAM: The Open Source CFD Toolbox           |
|  \\    /   O peration     | Version:  2312                                  |
|   \\  /    A nd           | Website:  www.openfoam.com                      |
|    \\/     M anipulation  |                                                 |
\*---------------------------------------------------------------------------*/
FoamFile
{
    version     2.0;
    format      ascii;
    arch        "LSB;label=32;scalar=64";
    class       surfaceScalarField;
    location    "0.602264";
    object      alphaPhi0.water;
}
// * * * * * * * * * * * * * * * * * * * * * * * * * * * * * * * * * * * * * //

dimensions      [0 3 -1 0 0 0 0];

oriented        oriented;

internalField   nonuniform List<scalar> 
263100
(
-7.37029e-11
1.47407e-10
-7.37029e-11
-9.12927e-10
1.15179e-09
-3.11216e-10
-1.4735e-09
9.31152e-10
-3.55186e-10
-1.81909e-09
8.03905e-10
-4.25519e-10
-1.95466e-09
6.55685e-10
-4.64528e-10
-1.87513e-09
4.62839e-10
-4.64594e-10
-1.61576e-09
2.70829e-10
-4.38528e-10
-1.25257e-09
1.21507e-10
-3.9441e-10
-8.96889e-10
5.57441e-11
-3.42278e-10
-6.07971e-10
4.9882e-11
-3.11437e-10
-4.07715e-10
9.39232e-11
-3.26406e-10
-2.75939e-10
1.55848e-10
-3.9119e-10
-1.529e-10
1.8674e-10
-4.88183e-10
2.44606e-11
1.64307e-10
-5.8938e-10
2.97493e-10
9.24765e-11
-6.68521e-10
6.74665e-10
-1.77704e-11
-6.9714e-10
1.09282e-09
-1.14997e-10
-6.51349e-10
1.43689e-09
-1.50992e-10
-5.27124e-10
1.60004e-09
-9.29946e-11
-3.68625e-10
1.49067e-09
7.21323e-11
-2.10327e-10
1.07949e-09
3.16599e-10
-9.4938e-11
3.66736e-10
6.09162e-10
-2.98591e-11
-5.61422e-10
8.50685e-10
-1.06939e-11
-1.54115e-09
9.63508e-10
-4.45563e-11
-2.297e-09
8.30204e-10
-1.29645e-10
-2.63515e-09
4.39502e-10
-1.72694e-10
-2.57937e-09
-8.9505e-11
-6.94918e-11
-2.58023e-09
-4.65536e-10
3.26271e-10
-2.98453e-09
-1.01411e-09
1.24992e-09
-8.77265e-09
5.61041e-09
-2.80908e-10
7.53553e-10
-2.80908e-10
-6.34442e-10
1.74908e-09
-2.77292e-10
-8.72906e-10
1.43829e-09
-2.68228e-10
-1.05232e-09
1.23787e-09
-2.21216e-10
-1.15586e-09
9.93798e-10
-1.67125e-10
-1.18265e-09
7.07037e-10
-1.26438e-10
-1.1392e-09
4.25138e-10
-1.05473e-10
-1.05989e-09
2.16675e-10
-1.10783e-10
-9.3067e-10
6.795e-11
-1.38199e-10
-7.6558e-10
-2.52692e-12
-1.97689e-10
-5.5483e-10
-4.64337e-11
-2.61941e-10
-3.05366e-10
-7.91758e-11
-3.17895e-10
-2.78482e-11
-1.41211e-10
-3.56012e-10
2.54075e-10
-2.34917e-10
-3.70033e-10
5.16329e-10
-3.47373e-10
-3.58499e-10
7.09919e-10
-4.29755e-10
-3.28936e-10
8.18911e-10
-4.34059e-10
-3.11102e-10
8.50122e-10
-3.12886e-10
-3.32368e-10
7.92787e-10
-5.12418e-11
-3.67216e-10
6.58007e-10
3.30165e-10
-4.16372e-10
4.88348e-10
7.44553e-10
-4.65953e-10
3.00073e-10
1.11178e-09
-4.53364e-10
1.56331e-10
1.30794e-09
-4.10326e-10
1.11774e-10
1.23963e-09
-3.17437e-10
1.90212e-10
8.07828e-10
-1.60645e-10
4.74604e-10
5.77756e-11
-4.66704e-11
9.32929e-10
-6.96595e-10
-3.97972e-11
1.00129e-09
-4.68998e-10
-2.84575e-10
-1.28207e-09
1.50482e-09
-4.58886e-10
-1.04324e-08
2.43034e-10
-1.74944e-10
1.0757e-09
-1.74944e-10
-1.52777e-10
1.59426e-09
-9.82357e-11
-1.72601e-10
1.30934e-09
-4.36428e-11
-2.53419e-10
1.12891e-09
2.20858e-11
-3.99257e-10
9.40793e-10
6.08804e-11
-5.90099e-10
7.20412e-10
6.61819e-11
-7.97995e-10
5.06569e-10
3.08695e-11
-9.54284e-10
3.12604e-10
-3.51914e-11
-1.01969e-09
1.49348e-10
-1.27617e-10
-9.34915e-10
-7.53807e-12
-2.20161e-10
-7.01615e-10
-1.61213e-10
-2.94158e-10
-3.48943e-10
-3.17905e-10
-3.23796e-10
3.98897e-11
-4.61541e-10
-3.04443e-10
3.74681e-10
-5.60441e-10
-2.57813e-10
5.72044e-10
-5.86944e-10
-2.02871e-10
6.01315e-10
-5.0183e-10
-1.83128e-10
4.74905e-10
-2.93728e-10
-2.08095e-10
2.71303e-10
8.79954e-12
-2.72725e-10
9.64853e-11
3.89846e-10
-3.79033e-10
7.24667e-11
7.9557e-10
-5.1477e-10
2.58606e-10
1.12952e-09
-6.11116e-10
6.46464e-10
1.34333e-09
-6.33884e-10
1.19429e-09
1.34162e-09
-5.78462e-10
1.78502e-09
1.07101e-09
-4.08144e-10
2.23489e-09
5.84626e-10
-2.05341e-10
2.41775e-09
-8.92956e-11
-5.78894e-12
2.63457e-09
-1.0027e-09
1.35289e-10
3.84233e-09
-1.16442e-09
-4.37608e-10
2.41558e-09
4.06139e-09
-1.01206e-09
-4.71744e-09
-3.11697e-09
-5.00411e-11
1.01095e-09
-5.00411e-11
1.7975e-10
8.41e-10
8.23381e-11
2.97278e-10
6.80201e-10
1.17683e-10
2.70704e-10
6.25417e-10
1.5801e-10
1.13158e-10
5.86099e-10
1.70045e-10
-1.67048e-10
5.54274e-10
1.384e-10
-4.98832e-10
5.0155e-10
6.37671e-11
-8.05889e-10
4.20735e-10
-3.98207e-11
-9.85623e-10
2.74684e-10
-1.49698e-10
-9.82459e-10
7.02274e-11
-2.47791e-10
-7.92052e-10
-1.68677e-10
-3.07828e-10
-4.59827e-10
-4.03551e-10
-3.23919e-10
-9.14215e-11
-5.58761e-10
-2.9673e-10
2.20527e-10
-5.99852e-10
-2.45638e-10
3.89782e-10
-4.74839e-10
-2.06764e-10
3.84522e-10
-1.88464e-10
-1.9646e-10
2.53286e-10
1.88523e-10
-2.17835e-10
8.30311e-11
5.94996e-10
-2.78925e-10
8.8543e-12
9.53923e-10
-3.65186e-10
1.33273e-10
1.20332e-09
-4.30348e-10
5.25275e-10
1.3097e-09
-4.95264e-10
1.17507e-09
1.25357e-09
-5.00198e-10
1.95019e-09
1.06698e-09
-4.41164e-10
2.66371e-09
7.99468e-10
-3.60999e-10
3.09152e-09
5.63274e-10
-2.80448e-10
2.92314e-09
4.40572e-10
-1.70412e-10
2.05193e-09
1.04133e-10
3.28915e-11
1.85898e-09
-7.73017e-10
1.48585e-10
2.306e-09
3.97997e-09
4.67368e-11
-1.63068e-10
-1.85152e-09
5.74535e-11
6.02148e-10
5.74535e-11
4.28446e-10
-2.46804e-10
1.76966e-10
6.13102e-10
-1.89984e-10
1.96403e-10
6.34827e-10
-7.96594e-11
2.14772e-10
4.83849e-10
1.05051e-10
1.91758e-10
2.02598e-10
3.13229e-10
1.19391e-10
-1.5561e-10
4.73518e-10
3.09052e-11
-4.95806e-10
5.32913e-10
-6.72369e-11
-7.44795e-10
4.61858e-10
-1.58658e-10
-8.51694e-10
2.71337e-10
-2.24751e-10
-8.07104e-10
2.85621e-11
-2.69863e-10
-6.39209e-10
-2.0711e-10
-2.83533e-10
-4.05259e-10
-3.31606e-10
-2.74777e-10
-1.82753e-10
-2.84069e-10
-2.61397e-10
-1.66752e-11
-5.2653e-11
-2.47388e-10
8.19704e-11
3.26334e-10
-2.44078e-10
1.33253e-10
7.52015e-10
-2.5626e-10
1.95441e-10
1.1076e-09
-2.6353e-10
3.36077e-10
1.30946e-09
-2.58574e-10
6.26079e-10
1.30803e-09
-2.41339e-10
1.08681e-09
1.15231e-09
-2.25973e-10
1.67713e-09
9.0022e-10
-2.0959e-10
2.27116e-09
6.86088e-10
-1.96688e-10
2.69338e-09
6.46334e-10
-2.19623e-10
2.85974e-09
8.32974e-10
-3.14287e-10
2.68708e-09
1.33186e-09
-4.99073e-10
1.70247e-09
2.08827e-09
-6.77271e-10
2.63906e-10
1.64215e-09
-5.70545e-10
7.99541e-10
4.38364e-09
-4.90885e-10
2.61726e-09
-1.63348e-09
7.50227e-11
1.16796e-10
7.50227e-11
4.93701e-10
-1.29424e-09
1.82528e-10
6.9145e-10
-9.74015e-10
1.81226e-10
7.62007e-10
-6.97314e-10
1.57472e-10
6.98208e-10
-2.99173e-10
9.66324e-11
5.16621e-10
1.27786e-10
2.22991e-11
2.57585e-10
4.85208e-10
-5.64039e-11
-2.9429e-11
6.93208e-10
-1.16225e-10
-3.07941e-10
7.35324e-10
-1.54198e-10
-5.42604e-10
6.26157e-10
-1.74079e-10
-7.06606e-10
4.37956e-10
-1.78898e-10
-8.00412e-10
2.67073e-10
-1.89937e-10
-8.05859e-10
1.84187e-10
-2.07487e-10
-7.10144e-10
2.41404e-10
-2.3328e-10
-5.22961e-10
4.46517e-10
-2.54188e-10
-2.52565e-10
7.41614e-10
-2.57855e-10
7.2253e-11
1.03427e-09
-2.32104e-10
4.31361e-10
1.20014e-09
-1.69179e-10
8.17216e-10
1.18396e-09
-9.35801e-11
1.21774e-09
9.71072e-10
-1.44387e-11
1.59699e-09
6.87637e-10
3.66976e-11
1.89243e-09
4.31565e-10
6.41967e-11
2.05406e-09
4.05576e-10
-3.26287e-12
1.99048e-09
7.16964e-10
-9.61771e-11
1.68153e-09
1.3544e-09
-2.34459e-10
1.28191e-09
2.25219e-09
-4.62083e-10
8.05851e-10
3.5072e-09
-8.15026e-10
-3.34374e-10
3.95088e-09
-1.00599e-09
-1.52112e-10
5.38889e-09
-1.03909e-09
3.84582e-09
-1.36004e-09
2.57123e-12
-1.38128e-10
2.57123e-12
3.62604e-10
-1.89363e-09
6.39543e-11
5.50526e-10
-1.35671e-09
3.39556e-11
6.85675e-10
-9.55124e-10
-3.75834e-11
7.6516e-10
-4.35401e-10
-1.08555e-10
7.77813e-10
1.09247e-10
-1.61338e-10
7.08337e-10
5.85963e-10
-1.87695e-10
5.37852e-10
9.21528e-10
-1.82959e-10
2.69609e-10
1.0832e-09
-1.49462e-10
-8.44536e-11
1.09854e-09
-1.11269e-10
-4.81031e-10
1.01904e-09
-8.75113e-11
-8.44605e-10
9.00517e-10
-8.32891e-11
-1.09591e-09
7.93551e-10
-9.78996e-11
-1.15311e-09
7.4123e-10
-1.39472e-10
-9.76634e-10
7.51825e-10
-1.76202e-10
-5.89938e-10
7.83856e-10
-1.64436e-10
-5.86967e-11
7.9725e-10
-1.09077e-10
5.21e-10
7.16722e-10
-1.62422e-11
1.08106e-09
5.08748e-10
8.15616e-11
1.50634e-09
2.44435e-10
1.63936e-10
1.72284e-09
1.46452e-11
2.40289e-10
1.70759e-09
-3.3113e-11
2.18795e-10
1.49706e-09
2.27009e-10
1.1704e-10
1.10475e-09
8.98099e-10
-4.63887e-11
5.54709e-10
1.92012e-09
-2.48745e-10
1.19815e-11
3.06533e-09
-4.87253e-10
-2.58093e-10
4.342e-09
-7.89269e-10
-7.08681e-10
5.0319e-09
-8.9396e-10
-4.30325e-10
5.65732e-09
-8.7469e-10
3.91086e-09
-8.82146e-10
-2.12168e-10
2.23777e-10
-2.12168e-10
6.73108e-11
-1.81597e-09
-1.90869e-10
2.51434e-10
-1.13596e-09
-2.63481e-10
4.69877e-10
-7.16805e-10
-3.3983e-10
7.20627e-10
-2.16507e-10
-3.90735e-10
9.56954e-10
3.07574e-10
-3.9701e-10
1.10738e-09
7.87152e-10
-3.47056e-10
1.08921e-09
1.1834e-09
-2.55651e-10
8.55581e-10
1.46358e-09
-1.554e-10
4.28411e-10
1.60679e-09
-6.94021e-11
-1.22449e-10
1.62828e-09
-1.75021e-11
-6.90701e-10
1.52894e-09
7.55409e-12
-1.13758e-09
1.31863e-09
2.64473e-12
-1.35189e-09
1.03364e-09
-6.16699e-12
-1.27585e-09
7.1747e-10
-3.59193e-12
-9.20571e-10
4.06855e-10
4.29179e-12
-3.63057e-10
1.00686e-10
5.2837e-11
2.68571e-10
-1.89825e-10
1.17858e-10
8.32037e-10
-4.5723e-10
1.8322e-10
1.211e-09
-6.56613e-10
2.56378e-10
1.3428e-09
-6.75028e-10
2.63265e-10
1.20444e-09
-4.1737e-10
2.1227e-10
8.32822e-10
1.69421e-10
1.07073e-10
3.44914e-10
1.0744e-09
-2.98125e-11
-1.21023e-10
2.20413e-09
-1.96588e-10
-5.42968e-10
3.37554e-09
-3.26839e-10
-6.29585e-10
4.34565e-09
-4.35179e-10
-6.25531e-10
4.86235e-09
-4.37222e-10
-2.2869e-10
5.00536e-09
-4.12537e-10
3.34853e-09
-2.59951e-10
-4.97126e-10
1.36734e-09
-4.97126e-10
-2.88536e-10
-1.07088e-09
-5.16e-10
-1.22653e-10
-3.5386e-10
-5.74233e-10
1.80322e-10
-7.459e-11
-6.222e-10
5.60712e-10
2.82451e-10
-6.23343e-10
9.66376e-10
6.48958e-10
-5.6438e-10
1.27744e-09
1.04513e-09
-4.55545e-10
1.3916e-09
1.43381e-09
-3.09261e-10
1.23957e-09
1.78586e-09
-1.60228e-10
8.46349e-10
2.02822e-09
-5.32773e-11
2.89732e-10
2.10554e-09
2.38413e-11
-3.22221e-10
1.96352e-09
9.00623e-11
-8.57582e-10
1.60057e-09
1.29299e-10
-1.20304e-09
1.06316e-09
1.50286e-10
-1.32338e-09
4.58788e-10
1.71689e-10
-1.18539e-09
-1.48811e-10
1.75768e-10
-8.44624e-10
-6.82488e-10
1.80161e-10
-4.00485e-10
-1.08665e-09
1.8836e-10
3.65904e-11
-1.32626e-09
1.82398e-10
3.6513e-10
-1.35293e-09
1.42429e-10
5.36201e-10
-1.12752e-09
7.77794e-11
5.22388e-10
-6.14666e-10
1.31118e-11
3.3884e-10
1.70566e-10
-3.72745e-11
7.47418e-11
1.14589e-09
-8.14855e-11
-1.69888e-10
2.1943e-09
-1.03829e-10
-3.39552e-10
3.14348e-09
-5.81459e-11
-3.25188e-10
3.81367e-09
-4.00099e-11
-1.63616e-10
4.07189e-09
4.09502e-12
9.56555e-11
4.03333e-09
7.62394e-11
2.8596e-09
1.25656e-10
-6.8636e-10
3.03759e-09
-6.8636e-10
-5.83792e-10
5.29528e-11
-6.88728e-10
-4.6481e-10
6.92903e-10
-7.13222e-10
-1.98447e-10
7.54119e-10
-7.05711e-10
1.90227e-10
8.44167e-10
-6.3535e-10
6.05408e-10
9.98843e-10
-5.28569e-10
9.44369e-10
1.26531e-09
-3.99014e-10
1.13445e-09
1.60078e-09
-2.68265e-10
1.11823e-09
1.97791e-09
-1.53857e-10
9.08463e-10
2.25172e-09
-5.61617e-11
5.45528e-10
2.3511e-09
1.11555e-11
9.23052e-11
2.15671e-09
9.15226e-11
-3.7614e-10
1.67399e-09
1.70485e-10
-7.97566e-10
9.9085e-10
2.27272e-10
-1.14117e-09
2.65012e-10
2.52068e-10
-1.3425e-09
-4.59224e-10
2.37229e-10
-1.38921e-09
-1.05108e-09
1.82157e-10
-1.26938e-09
-1.44762e-09
7.32673e-11
-1.01761e-09
-1.61723e-09
-5.32896e-11
-7.09508e-10
-1.51649e-09
-1.69609e-10
-3.89956e-10
-1.17414e-09
-2.56287e-10
-1.00582e-10
-5.79793e-10
-3.03968e-10
1.11163e-10
2.34806e-10
-2.93512e-10
2.18548e-10
1.17235e-09
-2.23413e-10
2.64907e-10
2.08224e-09
-1.13494e-10
3.11892e-10
2.86521e-09
-3.21746e-11
4.07667e-10
3.34336e-09
5.65114e-11
4.75488e-10
3.53746e-09
1.42117e-10
4.51703e-10
3.59123e-09
1.86452e-10
3.02859e-09
1.66186e-10
-5.87962e-10
4.54354e-09
-5.87962e-10
-6.97243e-10
1.16572e-09
-5.51325e-10
-7.7479e-10
1.64502e-09
-4.989e-10
-7.06972e-10
1.45812e-09
-4.4632e-10
-5.37616e-10
1.30805e-09
-3.58284e-10
-3.25846e-10
1.2824e-09
-2.69969e-10
-1.1008e-10
1.43388e-09
-2.0806e-10
8.48321e-11
1.70959e-09
-1.78628e-10
2.67541e-10
2.03336e-09
-1.69491e-10
3.93367e-10
2.28071e-09
-1.4894e-10
4.3046e-10
2.34122e-09
-8.7634e-11
3.28576e-10
2.16184e-09
-2.58842e-11
6.96289e-11
1.73012e-09
3.32848e-11
-3.377e-10
1.13699e-09
7.18828e-11
-8.45385e-10
5.34074e-10
6.50362e-11
-1.3577e-09
-6.16322e-11
-6.3889e-12
-1.75311e-09
-5.75682e-10
-1.19742e-10
-1.93683e-09
-9.28882e-10
-2.80387e-10
-1.84488e-09
-1.10637e-09
-4.60949e-10
-1.50115e-09
-1.06756e-09
-5.89508e-10
-9.8943e-10
-8.10306e-10
-6.48856e-10
-4.23637e-10
-3.14824e-10
-6.19702e-10
1.07959e-10
4.04375e-10
-5.35675e-10
5.50905e-10
1.24827e-09
-4.11844e-10
8.80838e-10
2.07893e-09
-2.7109e-10
1.08537e-09
2.80427e-09
-1.1546e-10
1.16876e-09
3.31728e-09
-2.38102e-11
1.0581e-09
3.67407e-09
4.07433e-11
7.26205e-10
3.95626e-09
7.33549e-11
3.78198e-09
1.10135e-10
-1.23145e-10
5.04226e-09
-1.23145e-10
-7.18723e-10
2.10855e-09
-1.0023e-10
-1.16482e-09
2.34924e-09
-5.06607e-11
-1.51776e-09
2.03809e-09
-3.32378e-11
-1.78729e-09
1.75222e-09
1.57096e-11
-1.92726e-09
1.61486e-09
-1.36069e-12
-1.89451e-09
1.65701e-09
-6.78345e-11
-1.66853e-09
1.83089e-09
-1.73909e-10
-1.22758e-09
2.02324e-09
-2.88286e-10
-6.52363e-10
2.15654e-09
-3.54155e-10
-1.01934e-10
2.18836e-09
-3.53455e-10
2.49299e-10
2.09143e-09
-2.83833e-10
3.02571e-10
1.88335e-09
-2.36703e-10
2.17239e-11
1.6291e-09
-2.37696e-10
-4.83784e-10
1.32219e-09
-2.7089e-10
-1.10272e-09
1.01732e-09
-3.81999e-10
-1.67699e-09
6.8548e-10
-5.29169e-10
-1.9849e-09
3.07185e-10
-6.96053e-10
-1.94459e-09
-2.85829e-11
-8.33602e-10
-1.58766e-09
-2.30658e-10
-8.87787e-10
-1.00556e-09
-2.31349e-10
-8.62552e-10
-3.22835e-10
4.0927e-11
-7.65445e-10
3.5196e-10
6.02121e-10
-6.27169e-10
9.33836e-10
1.38463e-09
-4.88508e-10
1.38154e-09
2.24021e-09
-3.75766e-10
1.67171e-09
3.02972e-09
-2.62894e-10
1.72757e-09
3.68854e-09
-1.52537e-10
1.50754e-09
4.22267e-09
-5.15074e-11
1.02361e-09
4.63277e-09
4.59357e-11
4.71085e-09
2.24819e-10
4.15134e-10
4.32678e-09
4.15134e-10
-8.08277e-10
3.00768e-09
3.43354e-10
-1.76896e-09
2.96087e-09
3.78191e-10
-2.65873e-09
2.67685e-09
3.10332e-10
-3.40365e-09
2.41125e-09
1.90063e-10
-3.88271e-09
2.24493e-09
-2.82739e-13
-3.99673e-09
2.12186e-09
-1.65575e-10
-3.64289e-09
2.03979e-09
-3.65096e-10
-2.88602e-09
1.98048e-09
-5.29209e-10
-1.86219e-09
1.89496e-09
-6.10118e-10
-8.37542e-10
1.89107e-09
-6.15766e-10
-5.30136e-11
1.9735e-09
-5.87886e-10
3.23951e-10
2.12364e-09
-5.50472e-10
2.99907e-10
2.30152e-09
-5.66426e-10
-4.7476e-11
2.41495e-09
-6.24692e-10
-5.26199e-10
2.37672e-09
-7.09606e-10
-9.55166e-10
2.12743e-09
-7.95738e-10
-1.15795e-09
1.6304e-09
-8.74395e-10
-1.09159e-09
1.04006e-09
-8.82399e-10
-7.77429e-10
5.17357e-10
-8.19777e-10
-3.1017e-10
2.42873e-10
-7.12843e-10
2.29876e-10
3.23561e-10
-5.969e-10
7.61171e-10
8.04689e-10
-4.91703e-10
1.2534e-09
1.57369e-09
-4.0613e-10
1.68387e-09
2.44737e-09
-3.26896e-10
1.98205e-09
3.28971e-09
-2.30674e-10
2.04963e-09
4.02587e-09
-1.00895e-10
1.81333e-09
4.63461e-09
5.28039e-11
1.25568e-09
5.08326e-09
2.18435e-10
5.55212e-09
3.98374e-10
7.82447e-10
2.73915e-09
7.82447e-10
-1.13906e-09
4.35194e-09
4.213e-10
-2.61842e-09
4.04558e-09
2.90606e-10
-3.88292e-09
3.80105e-09
9.76922e-11
-4.91281e-09
3.55488e-09
-8.41155e-11
-5.54298e-09
3.23918e-09
-2.68104e-10
-5.64161e-09
2.83746e-09
-4.75553e-10
-5.12646e-09
2.35306e-09
-6.70483e-10
-4.08793e-09
1.84873e-09
-7.60056e-10
-2.79121e-09
1.47293e-09
-7.57239e-10
-1.50715e-09
1.41055e-09
-7.18447e-10
-4.70839e-10
1.69024e-09
-6.8906e-10
1.91374e-10
2.21476e-09
-6.90876e-10
5.0228e-10
2.79616e-09
-7.25792e-10
5.39744e-10
3.23175e-09
-7.47527e-10
4.5374e-10
3.37033e-09
-7.77169e-10
3.72799e-10
3.12143e-09
-7.72182e-10
3.67716e-10
2.46751e-09
-6.9561e-10
4.60185e-10
1.64631e-09
-5.73244e-10
6.07104e-10
9.35747e-10
-4.42643e-10
7.91022e-10
5.43502e-10
-3.4352e-10
9.63185e-10
5.98201e-10
-2.62662e-10
1.16288e-09
1.06126e-09
-2.14437e-10
1.44655e-09
1.80374e-09
-2.21232e-10
1.76334e-09
2.635e-09
-1.93535e-10
2.00473e-09
3.43075e-09
-1.03981e-10
2.01579e-09
4.1881e-09
1.95921e-11
1.72196e-09
4.83246e-09
1.7107e-10
1.06777e-09
5.41308e-09
2.96839e-10
6.40984e-09
1.67982e-10
3.71923e-10
1.87634e-09
3.71923e-10
-1.80988e-09
6.39654e-09
-1.09548e-10
-3.4785e-09
5.78187e-09
-2.41792e-10
-4.81767e-09
5.4608e-09
-4.25359e-10
-5.80854e-09
5.10737e-09
-5.94944e-10
-6.30996e-09
4.49852e-09
-7.33229e-10
-6.23103e-09
3.61984e-09
-8.03148e-10
-5.52816e-09
2.55203e-09
-8.37471e-10
-4.44191e-09
1.55401e-09
-7.41583e-10
-3.18402e-09
9.24311e-10
-6.81827e-10
-1.96458e-09
8.28241e-10
-6.2675e-10
-9.19131e-10
1.26924e-09
-6.16793e-10
-8.46308e-11
2.05536e-09
-6.55141e-10
5.68847e-10
2.90214e-09
-7.19411e-10
1.08329e-09
3.50563e-09
-7.31333e-10
1.51792e-09
3.68915e-09
-6.9064e-10
1.86376e-09
3.39851e-09
-5.64889e-10
2.09821e-09
2.69465e-09
-4.0896e-10
2.17654e-09
1.89095e-09
-2.61171e-10
2.09652e-09
1.2624e-09
-1.49598e-10
1.88708e-09
1.01133e-09
-1.00426e-10
1.66377e-09
1.18726e-09
-1.36683e-10
1.55408e-09
1.67589e-09
-2.20618e-10
1.61546e-09
2.31051e-09
-2.69682e-10
1.76387e-09
2.97718e-09
-2.31238e-10
1.82463e-09
3.69266e-09
-1.46976e-10
1.61803e-09
4.54611e-09
-7.34115e-11
1.12344e-09
5.40538e-09
-6.63228e-11
3.69899e-10
6.39895e-09
-2.09674e-10
7.46502e-09
-5.65556e-10
-3.9806e-10
2.51207e-09
-3.9806e-10
-2.45473e-09
9.06418e-09
-8.70129e-10
-3.89905e-09
8.02486e-09
-9.86874e-10
-4.97792e-09
7.52041e-09
-1.11182e-09
-5.64898e-09
6.82852e-09
-1.12929e-09
-5.84965e-09
5.70964e-09
-1.05287e-09
-5.54923e-09
4.2292e-09
-9.34423e-10
-4.88917e-09
2.63713e-09
-7.67403e-10
-4.04757e-09
1.31564e-09
-6.28902e-10
-3.18414e-09
5.81183e-10
-5.4462e-10
-2.35057e-09
5.10896e-10
-5.27234e-10
-1.51797e-09
1.03843e-09
-5.87717e-10
-6.18163e-10
1.89282e-09
-6.93768e-10
3.7415e-10
2.75294e-09
-7.76376e-10
1.38185e-09
3.35654e-09
-7.81897e-10
2.29048e-09
3.53485e-09
-6.79386e-10
3.00686e-09
3.27609e-09
-5.21086e-10
3.38865e-09
2.75609e-09
-3.5688e-10
3.41714e-09
2.23395e-09
-2.44834e-10
3.13801e-09
1.95631e-09
-2.23632e-10
2.69208e-09
1.99338e-09
-2.75282e-10
2.28158e-09
2.28122e-09
-3.76321e-10
2.02016e-09
2.68843e-09
-4.45749e-10
1.90232e-09
3.1245e-09
-4.46713e-10
1.76856e-09
3.66483e-09
-3.95707e-10
1.43488e-09
4.45865e-09
-3.61775e-10
8.67886e-10
5.56919e-09
-4.24536e-10
1.43364e-10
6.83358e-09
-6.31194e-10
-3.82882e-10
8.08661e-09
-9.76371e-10
8.43553e-09
-1.09697e-09
-1.31465e-09
4.98649e-09
-1.31465e-09
-2.74012e-09
1.18714e-08
-1.60368e-09
-3.70455e-09
1.03658e-08
-1.54466e-09
-4.33492e-09
9.53594e-09
-1.51806e-09
-4.57584e-09
8.32345e-09
-1.35806e-09
-4.46234e-09
6.65796e-09
-1.14497e-09
-4.15073e-09
4.74499e-09
-8.94542e-10
-3.80527e-09
2.92606e-09
-6.83563e-10
-3.47776e-09
1.5512e-09
-5.8494e-10
-3.16683e-09
8.57183e-10
-5.68749e-10
-2.7584e-09
8.21848e-10
-6.51845e-10
-2.12198e-09
1.32224e-09
-8.04047e-10
-1.15112e-09
2.01708e-09
-9.435e-10
8.45212e-11
2.67757e-09
-9.94537e-10
1.42457e-09
3.1134e-09
-9.36664e-10
2.65378e-09
3.25454e-09
-8.01067e-10
3.57082e-09
3.14424e-09
-6.3827e-10
4.02749e-09
2.97813e-09
-5.07754e-10
4.0453e-09
2.87912e-09
-4.43925e-10
3.75288e-09
2.98733e-09
-4.66149e-10
3.32336e-09
3.26435e-09
-5.39567e-10
2.93828e-09
3.53023e-09
-5.80644e-10
2.61672e-09
3.78671e-09
-5.63791e-10
2.26398e-09
4.0971e-09
-5.05927e-10
1.71573e-09
4.72293e-09
-4.82116e-10
9.41193e-10
5.79046e-09
-5.61813e-10
1.14344e-10
7.18439e-09
-7.50737e-10
-5.20195e-10
8.64207e-09
-1.03701e-09
-6.31653e-10
9.5157e-09
-1.0896e-09
8.78749e-09
-8.20105e-10
-1.87999e-09
8.62248e-09
-1.87999e-09
-2.54622e-09
1.41098e-08
-1.74484e-09
-3.03284e-09
1.234e-08
-1.6311e-09
-3.2719e-09
1.11731e-08
-1.5276e-09
-3.25516e-09
9.51825e-09
-1.32717e-09
-3.0998e-09
7.52616e-09
-1.12017e-09
-2.98335e-09
5.49201e-09
-9.29304e-10
-3.03649e-09
3.7458e-09
-7.84562e-10
-3.20052e-09
2.53118e-09
-7.68797e-10
-3.31362e-09
1.93189e-09
-8.3944e-10
-3.17336e-09
1.83689e-09
-9.62677e-10
-2.5627e-09
2.04792e-09
-1.09421e-09
-1.50248e-09
2.33884e-09
-1.12288e-09
-1.17537e-10
2.59411e-09
-1.0579e-09
1.3561e-09
2.77704e-09
-9.28482e-10
2.67191e-09
2.88005e-09
-7.6538e-10
3.62859e-09
2.96933e-09
-6.18233e-10
4.16076e-09
3.15789e-09
-5.36133e-10
4.27843e-09
3.4977e-09
-5.37426e-10
4.16383e-09
3.86216e-09
-5.53633e-10
3.91943e-09
4.24164e-09
-5.56199e-10
3.63051e-09
4.44994e-09
-5.24359e-10
3.2111e-09
4.67354e-09
-4.4916e-10
2.54311e-09
5.14742e-09
-4.32435e-10
1.63725e-09
6.08758e-09
-5.25582e-10
6.78199e-10
7.42631e-09
-7.01538e-10
-2.82687e-11
8.87045e-09
-9.29265e-10
-2.65092e-10
9.85145e-09
-8.68467e-10
-9.25433e-11
1.00054e-08
-5.87851e-10
8.96402e-09
-3.34281e-10
-1.84126e-09
1.22112e-08
-1.84126e-09
-2.04359e-09
1.57668e-08
-1.59258e-09
-2.33625e-09
1.40181e-08
-1.51536e-09
-2.45132e-09
1.25783e-08
-1.41927e-09
-2.43838e-09
1.06697e-08
-1.2833e-09
-2.43226e-09
8.57813e-09
-1.14867e-09
-2.57376e-09
6.62364e-09
-1.02835e-09
-2.90108e-09
5.07652e-09
-9.65457e-10
-3.29886e-09
4.02985e-09
-9.72257e-10
-3.5257e-09
3.39216e-09
-1.01692e-09
-3.36226e-09
3.01378e-09
-1.05979e-09
-2.69964e-09
2.71079e-09
-1.0209e-09
-1.62342e-09
2.47884e-09
-9.31708e-10
-2.8807e-10
2.29336e-09
-8.02792e-10
1.09396e-09
2.22327e-09
-6.59285e-10
2.32863e-09
2.32457e-09
-5.60461e-10
3.30356e-09
2.61851e-09
-5.31981e-10
3.9535e-09
3.12503e-09
-5.35441e-10
4.31697e-09
3.76314e-09
-5.62275e-10
4.44502e-09
4.33921e-09
-5.7735e-10
4.41398e-09
4.78024e-09
-5.44362e-10
4.14835e-09
5.12671e-09
-5.16807e-10
3.56006e-09
5.64746e-09
-5.31297e-10
2.68306e-09
6.54266e-09
-6.51996e-10
1.76117e-09
7.79989e-09
-8.65344e-10
1.05251e-09
9.11639e-09
-9.84768e-10
7.3895e-10
1.0085e-08
-8.68006e-10
7.32599e-10
1.04695e-08
-6.16574e-10
6.14322e-10
1.04159e-08
-4.0253e-10
9.85517e-09
-4.4149e-10
-1.65027e-09
1.54333e-08
-1.65027e-09
-1.76249e-09
1.72249e-08
-1.45026e-09
-2.05813e-09
1.56218e-08
-1.41563e-09
-2.20726e-09
1.39554e-08
-1.33627e-09
-2.29618e-09
1.18862e-08
-1.22079e-09
-2.45481e-09
9.7868e-09
-1.10412e-09
-2.77564e-09
7.96747e-09
-1.0109e-09
-3.2072e-09
6.56253e-09
-9.55605e-10
-3.57279e-09
5.51168e-09
-9.26464e-10
-3.68837e-09
4.65298e-09
-8.82367e-10
-3.41553e-09
3.84685e-09
-8.08012e-10
-2.75696e-09
3.0415e-09
-7.03255e-10
-1.80923e-09
2.35984e-09
-5.94662e-10
-6.68458e-10
1.8569e-09
-5.41355e-10
5.21932e-10
1.66827e-09
-5.38213e-10
1.67662e-09
1.81849e-09
-5.96516e-10
2.7143e-09
2.30556e-09
-6.98957e-10
3.56701e-09
3.07076e-09
-7.97206e-10
4.21275e-09
3.94613e-09
-8.67865e-10
4.6014e-09
4.75955e-09
-9.07056e-10
4.68647e-09
5.47342e-09
-9.34483e-10
4.38402e-09
6.24335e-09
-9.97427e-10
3.77142e-09
7.25426e-09
-1.15418e-09
3.05265e-09
8.49941e-09
-1.33408e-09
2.45937e-09
9.71772e-09
-1.35249e-09
2.16013e-09
1.06385e-08
-1.22034e-09
2.06015e-09
1.11506e-08
-9.91663e-10
1.76256e-09
1.14755e-08
-8.05753e-10
9.43871e-10
1.19121e-08
-8.25436e-10
1.1768e-08
-1.03775e-09
-1.5392e-09
1.84501e-08
-1.5392e-09
-1.76603e-09
1.88071e-08
-1.38592e-09
-2.15427e-09
1.73081e-08
-1.33208e-09
-2.42675e-09
1.54168e-08
-1.21897e-09
-2.69388e-09
1.32239e-08
-1.08317e-09
-3.03827e-09
1.11321e-08
-9.75688e-10
-3.47989e-09
9.37939e-09
-8.86745e-10
-3.91123e-09
7.97472e-09
-8.27327e-10
-4.16618e-09
6.76927e-09
-7.85403e-10
-4.13517e-09
5.5972e-09
-7.20131e-10
-3.80724e-09
4.39942e-09
-6.26165e-10
-3.22408e-09
3.23987e-09
-5.64725e-10
-2.41422e-09
2.28444e-09
-5.75898e-10
-1.42061e-09
1.64128e-09
-6.75212e-10
-2.70192e-10
1.42596e-09
-8.41794e-10
9.83963e-10
1.63118e-09
-1.01667e-09
2.22663e-09
2.25638e-09
-1.15394e-09
3.34513e-09
3.23625e-09
-1.26872e-09
4.22801e-09
4.38252e-09
-1.34835e-09
4.78051e-09
5.54799e-09
-1.42004e-09
4.93487e-09
6.72993e-09
-1.51834e-09
4.73164e-09
8.00755e-09
-1.65664e-09
4.35568e-09
9.34976e-09
-1.77157e-09
4.03803e-09
1.05686e-08
-1.76068e-09
3.86246e-09
1.14958e-08
-1.60225e-09
3.68569e-09
1.21436e-08
-1.35875e-09
3.23938e-09
1.27134e-08
-1.19419e-09
2.33701e-09
1.34786e-08
-1.19912e-09
1.11292e-09
1.44843e-08
-1.39843e-09
1.44106e-08
-1.48846e-09
-1.55258e-09
2.15451e-08
-1.55258e-09
-1.93196e-09
2.06654e-08
-1.3768e-09
-2.4545e-09
1.9173e-08
-1.24675e-09
-2.9559e-09
1.70908e-08
-1.0776e-09
-3.53061e-09
1.48309e-08
-9.34665e-10
-4.18617e-09
1.27434e-08
-8.44576e-10
-4.82011e-09
1.09523e-08
-8.01693e-10
-5.26278e-09
9.37559e-09
-7.90125e-10
-5.40341e-09
7.89449e-09
-7.95151e-10
-5.24157e-09
6.4106e-09
-7.8633e-10
-4.83092e-09
4.94496e-09
-7.92793e-10
-4.21567e-09
3.60747e-09
-8.5956e-10
-3.38205e-09
2.535e-09
-9.97324e-10
-2.27349e-09
1.77074e-09
-1.16783e-09
-8.88122e-10
1.44484e-09
-1.32865e-09
6.59621e-10
1.61511e-09
-1.44222e-09
2.18394e-09
2.33109e-09
-1.50768e-09
3.52372e-09
3.52695e-09
-1.56063e-09
4.56345e-09
5.0078e-09
-1.63161e-09
5.24025e-09
6.60981e-09
-1.73365e-09
5.56099e-09
8.27125e-09
-1.85893e-09
5.65138e-09
9.88623e-09
-1.94536e-09
5.67414e-09
1.12775e-08
-1.90977e-09
5.67064e-09
1.2322e-08
-1.72052e-09
5.51161e-09
1.31287e-08
-1.48186e-09
4.96737e-09
1.40081e-08
-1.36224e-09
3.96501e-09
1.51024e-08
-1.42897e-09
2.65826e-09
1.64089e-08
-1.62564e-09
1.36133e-09
1.75636e-08
-1.72757e-09
1.74566e-08
-1.64209e-09
-1.59129e-09
2.48093e-08
-1.59129e-09
-2.17488e-09
2.28077e-08
-1.32244e-09
-2.98039e-09
2.13185e-08
-1.13113e-09
-3.90782e-09
1.91745e-08
-9.7189e-10
-4.98912e-09
1.69266e-08
-8.57582e-10
-6.07802e-09
1.48072e-08
-8.38439e-10
-6.93376e-09
1.28847e-08
-9.49966e-10
-7.36765e-09
1.10151e-08
-1.08373e-09
-7.37774e-09
9.18351e-09
-1.16655e-09
-7.04556e-09
7.39537e-09
-1.22423e-09
-6.45834e-09
5.7186e-09
-1.29426e-09
-5.61187e-09
4.21204e-09
-1.40435e-09
-4.42487e-09
2.92505e-09
-1.53183e-09
-2.88354e-09
1.91256e-09
-1.61807e-09
-1.05757e-09
1.36631e-09
-1.65341e-09
8.43293e-10
1.47509e-09
-1.64884e-09
2.61734e-09
2.29715e-09
-1.63497e-09
4.13446e-09
3.76383e-09
-1.67652e-09
5.34347e-09
5.63498e-09
-1.78723e-09
6.25541e-09
7.65713e-09
-1.92077e-09
6.91132e-09
9.64536e-09
-1.98425e-09
7.38816e-09
1.13708e-08
-1.91111e-09
7.66635e-09
1.27532e-08
-1.72096e-09
7.59714e-09
1.39108e-08
-1.51935e-09
6.99873e-09
1.51474e-08
-1.4364e-09
5.88313e-09
1.66289e-08
-1.49575e-09
4.44798e-09
1.83238e-08
-1.7243e-09
2.99633e-09
1.98582e-08
-1.89915e-09
1.67877e-09
2.083e-08
-1.86838e-09
2.08356e-08
-1.69575e-09
-1.61298e-09
2.8198e-08
-1.61298e-09
-2.6438e-09
2.54308e-08
-1.32229e-09
-4.00072e-09
2.40192e-08
-1.12916e-09
-5.58321e-09
2.19472e-08
-1.02296e-09
-7.24833e-09
1.97917e-08
-1.07546e-09
-8.69427e-09
1.76309e-08
-1.28219e-09
-9.65714e-09
1.54155e-08
-1.4876e-09
-1.00457e-08
1.3112e-08
-1.63675e-09
-9.90399e-09
1.08227e-08
-1.71924e-09
-9.3457e-09
8.66738e-09
-1.78106e-09
-8.41854e-09
6.69393e-09
-1.86165e-09
-7.0877e-09
4.87608e-09
-1.9487e-09
-5.31096e-09
3.20531e-09
-1.98932e-09
-3.16929e-09
1.82971e-09
-1.96323e-09
-8.53149e-10
1.05767e-09
-1.89601e-09
1.38136e-09
1.17268e-09
-1.83045e-09
3.39987e-09
2.20858e-09
-1.86125e-09
5.17625e-09
3.99208e-09
-1.97244e-09
6.73375e-09
6.19614e-09
-2.1054e-09
8.07361e-09
8.48304e-09
-2.15068e-09
9.16564e-09
1.0625e-08
-2.05271e-09
9.90656e-09
1.24957e-08
-1.86201e-09
1.01044e-08
1.42138e-08
-1.68446e-09
9.58268e-09
1.60188e-08
-1.6238e-09
8.43364e-09
1.79624e-08
-1.66989e-09
6.87845e-09
2.00739e-08
-1.83214e-09
5.15732e-09
2.21609e-08
-2.01972e-09
3.54918e-09
2.36519e-08
-2.10412e-09
2.10063e-09
2.43099e-08
-2.00048e-09
2.46277e-08
-1.68784e-09
-1.76748e-09
3.18987e-08
-1.76748e-09
-3.65122e-09
2.90031e-08
-1.51972e-09
-5.78689e-09
2.77187e-08
-1.45104e-09
-8.05814e-09
2.58884e-08
-1.5906e-09
-1.01866e-08
2.38007e-08
-1.81441e-09
-1.18484e-08
2.14015e-08
-2.0374e-09
-1.28305e-08
1.86776e-08
-2.19493e-09
-1.31221e-08
1.57731e-08
-2.27456e-09
-1.28172e-08
1.2929e-08
-2.316e-09
-1.19798e-08
1.02951e-08
-2.37529e-09
-1.05902e-08
7.8461e-09
-2.45319e-09
-8.62263e-09
5.49354e-09
-2.48744e-09
-6.13433e-09
3.27301e-09
-2.44496e-09
-3.34828e-09
1.51223e-09
-2.35483e-09
-5.66784e-10
6.12726e-10
-2.2445e-09
2.05291e-09
8.41714e-10
-2.24123e-09
4.4814e-09
2.11783e-09
-2.33798e-09
6.77603e-09
4.11857e-09
-2.4474e-09
8.93326e-09
6.47147e-09
-2.45472e-09
1.08331e-08
8.91628e-09
-2.33695e-09
1.22618e-08
1.1337e-08
-2.13896e-09
1.29961e-08
1.37194e-08
-1.97254e-09
1.28537e-08
1.61652e-08
-1.83713e-09
1.18503e-08
1.88895e-08
-1.87555e-09
1.0274e-08
2.16356e-08
-2.06227e-09
8.41426e-09
2.42081e-08
-2.22136e-09
6.43229e-09
2.64809e-08
-2.31343e-09
4.53571e-09
2.78545e-08
-2.31402e-09
2.76471e-09
2.82491e-08
-2.16279e-09
2.92207e-08
-1.76585e-09
-2.24194e-09
3.64673e-08
-2.24194e-09
-5.29312e-09
3.42828e-08
-2.21059e-09
-8.31274e-09
3.31263e-08
-2.38243e-09
-1.11784e-08
3.13813e-08
-2.60258e-09
-1.35865e-08
2.90882e-08
-2.81297e-09
-1.53072e-08
2.61784e-08
-2.94416e-09
-1.62666e-08
2.27567e-08
-2.97704e-09
-1.6519e-08
1.91431e-08
-2.97068e-09
-1.60979e-08
1.56267e-08
-2.99038e-09
-1.49492e-08
1.23061e-08
-3.05767e-09
-1.30163e-08
9.09092e-09
-3.09533e-09
-1.03206e-08
5.92751e-09
-3.05619e-09
-7.09703e-09
3.07244e-09
-2.95838e-09
-3.69121e-09
9.9104e-10
-2.84303e-09
-3.5781e-10
7.80628e-11
-2.79855e-09
2.85389e-09
4.18294e-10
-2.83307e-09
6.00521e-09
1.79702e-09
-2.89899e-09
9.1064e-09
3.85771e-09
-2.89705e-09
1.20023e-08
6.31758e-09
-2.76266e-09
1.44114e-08
9.05765e-09
-2.53771e-09
1.59768e-08
1.21217e-08
-2.32287e-09
1.65003e-08
1.54657e-08
-2.23637e-09
1.60391e-08
1.89535e-08
-2.27129e-09
1.47395e-08
2.26824e-08
-2.39897e-09
1.28481e-08
2.62424e-08
-2.60952e-09
1.06861e-08
2.9179e-08
-2.74966e-09
8.43865e-09
3.14554e-08
-2.72221e-09
6.0777e-09
3.27984e-08
-2.55815e-09
3.46514e-09
3.33638e-08
-2.38686e-09
3.53017e-08
-2.41631e-09
-3.25765e-09
4.2972e-08
-3.25765e-09
-7.47604e-09
4.18794e-08
-3.44631e-09
-1.12995e-08
4.05945e-08
-3.67115e-09
-1.46138e-08
3.85823e-08
-3.85063e-09
-1.72209e-08
3.573e-08
-3.93418e-09
-1.90341e-08
3.20371e-08
-3.90582e-09
-2.00906e-08
2.77801e-08
-3.8305e-09
-2.04093e-08
2.33505e-08
-3.79462e-09
-1.98785e-08
1.89597e-08
-3.83061e-09
-1.835e-08
1.46351e-08
-3.87653e-09
-1.57614e-08
1.03143e-08