/*--------------------------------*- C++ -*----------------------------------*\
| =========                 |                                                 |
| \\      /  F ield         | OpenFOAM: The Open Source CFD Toolbox           |
|  \\    /   O peration     | Version:  2312                                  |
|   \\  /    A nd           | Website:  www.openfoam.com                      |
|    \\/     M anipulation  |                                                 |
\*---------------------------------------------------------------------------*/
FoamFile
{
    version     2.0;
    format      ascii;
    arch        "LSB;label=32;scalar=64";
    class       volScalarField;
    location    "0.602264";
    object      epsilon;
}
// * * * * * * * * * * * * * * * * * * * * * * * * * * * * * * * * * * * * * //

dimensions      [0 2 -3 0 0 0 0];

internalField   nonuniform List<scalar> 
90000
(
1.23494e-05
1.23501e-05
1.23503e-05
1.23504e-05
1.23505e-05
1.23505e-05
1.23504e-05
1.23504e-05
1.23503e-05
1.23503e-05
1.23503e-05
1.23503e-05
1.23504e-05
1.23504e-05
1.23504e-05
1.23504e-05
1.23505e-05
1.23507e-05
1.23507e-05
1.23506e-05
1.23505e-05
1.23502e-05
1.23502e-05
1.23504e-05
1.23507e-05
1.23508e-05
1.23508e-05
1.23506e-05
1.23504e-05
1.23503e-05
1.235e-05
1.23717e-05
1.23726e-05
1.23726e-05
1.23726e-05
1.23726e-05
1.23727e-05
1.23727e-05
1.23728e-05
1.23728e-05
1.23729e-05
1.23729e-05
1.23729e-05
1.23729e-05
1.2373e-05
1.2373e-05
1.23729e-05
1.23729e-05
1.23728e-05
1.23727e-05
1.23727e-05
1.23726e-05
1.23726e-05
1.23726e-05
1.23724e-05
1.23722e-05
1.23723e-05
1.23727e-05
1.23718e-05
1.23525e-05
1.23503e-05
1.2373e-05
1.23739e-05
1.23739e-05
1.23739e-05
1.23738e-05
1.23739e-05
1.23739e-05
1.2374e-05
1.2374e-05
1.2374e-05
1.23739e-05
1.23739e-05
1.23739e-05
1.23739e-05
1.23738e-05
1.23738e-05
1.23737e-05
1.23738e-05
1.23739e-05
1.2374e-05
1.2374e-05
1.2374e-05
1.2374e-05
1.23741e-05
1.23743e-05
1.23744e-05
1.23743e-05
1.2373e-05
1.23517e-05
1.23506e-05
1.23733e-05
1.23743e-05
1.23743e-05
1.23743e-05
1.23743e-05
1.23742e-05
1.23742e-05
1.23742e-05
1.23742e-05
1.23741e-05
1.2374e-05
1.23739e-05
1.23738e-05
1.23738e-05
1.23737e-05
1.23737e-05
1.23738e-05
1.2374e-05
1.23741e-05
1.23742e-05
1.23742e-05
1.23743e-05
1.23746e-05
1.23748e-05
1.23749e-05
1.23748e-05
1.23746e-05
1.23734e-05
1.23508e-05
1.23509e-05
1.23736e-05
1.23746e-05
1.23747e-05
1.23747e-05
1.23746e-05
1.23745e-05
1.23744e-05
1.23743e-05
1.23742e-05
1.23741e-05
1.2374e-05
1.23738e-05
1.23736e-05
1.23735e-05
1.23735e-05
1.23737e-05
1.23738e-05
1.2374e-05
1.23741e-05
1.23742e-05
1.23743e-05
1.23746e-05
1.23748e-05
1.2375e-05
1.2375e-05
1.23747e-05
1.23743e-05
1.23736e-05
1.23509e-05
1.23511e-05
1.23739e-05
1.23749e-05
1.23749e-05
1.23749e-05
1.23748e-05
1.23748e-05
1.23746e-05
1.23744e-05
1.23742e-05
1.2374e-05
1.23738e-05
1.23737e-05
1.23736e-05
1.23735e-05
1.23735e-05
1.23736e-05
1.23737e-05
1.23739e-05
1.2374e-05
1.23742e-05
1.23745e-05
1.23747e-05
1.23748e-05
1.23747e-05
1.23747e-05
1.23748e-05
1.23748e-05
1.23742e-05
1.23513e-05
1.23514e-05
1.23741e-05
1.2375e-05
1.2375e-05
1.2375e-05
1.23749e-05
1.23749e-05
1.23747e-05
1.23745e-05
1.23742e-05
1.23739e-05
1.23737e-05
1.23736e-05
1.23736e-05
1.23735e-05
1.23735e-05
1.23735e-05
1.23736e-05
1.23738e-05
1.23741e-05
1.23744e-05
1.23746e-05
1.23747e-05
1.23746e-05
1.23747e-05
1.23749e-05
1.23752e-05
1.23754e-05
1.23745e-05
1.23516e-05
1.23516e-05
1.23743e-05
1.23751e-05
1.23751e-05
1.2375e-05
1.2375e-05
1.23749e-05
1.23748e-05
1.23746e-05
1.23743e-05
1.2374e-05
1.23737e-05
1.23736e-05
1.23736e-05
1.23736e-05
1.23736e-05
1.23736e-05
1.23736e-05
1.2374e-05
1.23743e-05
1.23746e-05
1.23747e-05
1.23747e-05
1.23747e-05
1.2375e-05
1.23753e-05
1.23756e-05
1.23757e-05
1.23748e-05
1.2352e-05
1.23518e-05
1.23743e-05
1.23752e-05
1.23751e-05
1.2375e-05
1.2375e-05
1.23749e-05
1.23749e-05
1.23747e-05
1.23745e-05
1.23742e-05
1.2374e-05
1.23738e-05
1.23737e-05
1.23737e-05
1.23738e-05
1.2374e-05
1.23742e-05
1.23744e-05
1.23746e-05
1.23747e-05
1.23747e-05
1.23747e-05
1.23749e-05
1.23752e-05
1.23756e-05
1.23758e-05
1.2376e-05
1.2375e-05
1.23524e-05
1.2352e-05
1.23745e-05
1.23753e-05
1.23753e-05
1.23752e-05
1.23751e-05
1.2375e-05
1.23749e-05
1.23749e-05
1.23747e-05
1.23745e-05
1.23743e-05
1.23741e-05
1.23739e-05
1.23739e-05
1.23741e-05
1.23745e-05
1.23747e-05
1.23749e-05
1.2375e-05
1.23749e-05
1.23749e-05
1.23749e-05
1.23751e-05
1.23754e-05
1.23757e-05
1.2376e-05
1.23762e-05
1.23752e-05
1.23527e-05
1.23523e-05
1.23747e-05
1.23756e-05
1.23755e-05
1.23754e-05
1.23753e-05
1.23751e-05
1.2375e-05
1.2375e-05
1.23749e-05
1.23748e-05
1.23747e-05
1.23744e-05
1.23742e-05
1.2374e-05
1.23743e-05
1.23747e-05
1.2375e-05
1.23752e-05
1.23752e-05
1.23751e-05
1.2375e-05
1.23751e-05
1.23753e-05
1.23756e-05
1.23759e-05
1.23762e-05
1.23764e-05
1.23755e-05
1.23529e-05
1.23528e-05
1.23751e-05
1.23761e-05
1.2376e-05
1.23759e-05
1.23757e-05
1.23756e-05
1.23754e-05
1.23752e-05
1.23751e-05
1.2375e-05
1.23749e-05
1.23747e-05
1.23744e-05
1.23741e-05
1.23742e-05
1.23746e-05
1.23749e-05
1.23751e-05
1.23751e-05
1.23751e-05
1.23751e-05
1.23752e-05
1.23755e-05
1.23758e-05
1.23761e-05
1.23764e-05
1.23765e-05
1.23756e-05
1.23531e-05
1.23534e-05
1.23758e-05
1.23768e-05
1.23767e-05
1.23766e-05
1.23765e-05
1.23763e-05
1.2376e-05
1.23757e-05
1.23754e-05
1.23752e-05
1.2375e-05
1.23748e-05
1.23746e-05
1.23742e-05
1.23741e-05
1.23743e-05
1.23745e-05
1.23747e-05
1.23748e-05
1.2375e-05
1.23752e-05
1.23755e-05
1.23758e-05
1.23761e-05
1.23764e-05
1.23766e-05
1.23767e-05
1.23757e-05
1.23533e-05
1.23542e-05
1.23767e-05
1.23776e-05
1.23775e-05
1.23774e-05
1.23773e-05
1.23771e-05
1.23767e-05
1.23763e-05
1.23758e-05
1.23754e-05
1.23751e-05
1.23749e-05
1.23746e-05
1.23744e-05
1.23743e-05
1.23743e-05
1.23744e-05
1.23745e-05
1.23748e-05
1.23752e-05
1.23756e-05
1.2376e-05
1.23763e-05
1.23766e-05
1.23768e-05
1.2377e-05
1.2377e-05
1.2376e-05
1.23539e-05
1.23552e-05
1.23775e-05
1.23785e-05
1.23784e-05
1.23782e-05
1.2378e-05
1.23776e-05
1.23772e-05
1.23767e-05
1.23762e-05
1.23757e-05
1.23752e-05
1.23748e-05
1.23746e-05
1.23745e-05
1.23744e-05
1.23745e-05
1.23746e-05
1.23749e-05
1.23753e-05
1.23758e-05
1.23763e-05
1.23767e-05
1.23771e-05
1.23773e-05
1.23775e-05
1.23776e-05
1.23777e-05
1.23768e-05
1.23548e-05
1.23563e-05
1.23786e-05
1.23795e-05
1.23793e-05
1.2379e-05
1.23786e-05
1.23781e-05
1.23776e-05
1.23771e-05
1.23766e-05
1.2376e-05
1.23754e-05
1.23749e-05
1.23747e-05
1.23745e-05
1.23745e-05
1.23747e-05
1.2375e-05
1.23755e-05
1.23761e-05
1.23767e-05
1.23772e-05
1.23776e-05
1.23779e-05
1.23782e-05
1.23784e-05
1.23786e-05
1.23788e-05
1.23781e-05
1.2356e-05
1.23576e-05
1.23798e-05
1.23806e-05
1.23803e-05
1.23799e-05
1.23794e-05
1.23788e-05
1.23783e-05
1.23778e-05
1.23772e-05
1.23766e-05
1.23758e-05
1.23752e-05
1.23748e-05
1.23746e-05
1.23746e-05
1.2375e-05
1.23756e-05
1.23762e-05
1.23769e-05
1.23776e-05
1.23781e-05
1.23786e-05
1.2379e-05
1.23793e-05
1.23796e-05
1.238e-05
1.23804e-05
1.23796e-05
1.23574e-05
1.23591e-05
1.23813e-05
1.2382e-05
1.23816e-05
1.23812e-05
1.23806e-05
1.238e-05
1.23794e-05
1.23788e-05
1.23781e-05
1.23773e-05
1.23765e-05
1.23757e-05
1.2375e-05
1.23746e-05
1.23747e-05
1.23753e-05
1.23761e-05
1.23769e-05
1.23778e-05
1.23785e-05
1.23792e-05
1.23797e-05
1.23802e-05
1.23807e-05
1.23812e-05
1.23817e-05
1.23821e-05
1.23812e-05
1.2359e-05
1.23609e-05
1.23829e-05
1.23837e-05
1.23833e-05
1.23829e-05
1.23823e-05
1.23817e-05
1.2381e-05
1.23802e-05
1.23793e-05
1.23783e-05
1.23773e-05
1.23763e-05
1.23754e-05
1.23747e-05
1.23748e-05
1.23756e-05
1.23766e-05
1.23777e-05
1.23787e-05
1.23796e-05
1.23803e-05
1.2381e-05
1.23817e-05
1.23824e-05
1.23831e-05
1.23836e-05
1.23839e-05
1.23829e-05
1.23607e-05
1.23631e-05
1.23851e-05
1.23858e-05
1.23855e-05
1.2385e-05
1.23844e-05
1.23837e-05
1.23828e-05
1.23818e-05
1.23807e-05
1.23795e-05
1.23783e-05
1.2377e-05
1.23758e-05
1.23749e-05
1.2375e-05
1.2376e-05
1.23773e-05
1.23786e-05
1.23797e-05
1.23808e-05
1.23817e-05
1.23827e-05
1.23837e-05
1.23845e-05
1.23852e-05
1.23857e-05
1.23859e-05
1.2385e-05
1.23629e-05
1.2366e-05
1.23877e-05
1.23885e-05
1.23881e-05
1.23876e-05
1.2387e-05
1.23861e-05
1.23851e-05
1.23839e-05
1.23825e-05
1.2381e-05
1.23795e-05
1.23779e-05
1.23764e-05
1.23753e-05
1.23754e-05
1.23766e-05
1.23782e-05
1.23797e-05
1.23811e-05
1.23824e-05
1.23837e-05
1.23849e-05
1.23861e-05
1.23871e-05
1.23878e-05
1.23883e-05
1.23886e-05
1.23877e-05
1.23657e-05
1.23694e-05
1.23911e-05
1.23919e-05
1.23915e-05
1.23909e-05
1.23901e-05
1.2389e-05
1.23878e-05
1.23863e-05
1.23847e-05
1.23829e-05
1.2381e-05
1.23791e-05
1.23773e-05
1.2376e-05
1.23761e-05
1.23775e-05
1.23793e-05
1.23811e-05
1.23829e-05
1.23845e-05
1.23862e-05
1.23877e-05
1.23891e-05
1.23902e-05
1.2391e-05
1.23916e-05
1.2392e-05
1.23913e-05
1.23695e-05
1.23737e-05
1.23954e-05
1.23961e-05
1.23956e-05
1.23949e-05
1.23939e-05
1.23926e-05
1.2391e-05
1.23892e-05
1.23872e-05
1.23851e-05
1.23828e-05
1.23806e-05
1.23784e-05
1.23769e-05
1.2377e-05
1.23786e-05
1.23808e-05
1.2383e-05
1.23852e-05
1.23873e-05
1.23893e-05
1.23911e-05
1.23927e-05
1.2394e-05
1.2395e-05
1.23958e-05
1.23964e-05
1.23958e-05
1.23742e-05
1.2379e-05
1.24007e-05
1.24014e-05
1.24007e-05
1.23998e-05
1.23985e-05
1.23969e-05
1.2395e-05
1.23928e-05
1.23904e-05
1.23878e-05
1.23851e-05
1.23824e-05
1.23799e-05
1.23781e-05
1.23782e-05
1.23801e-05
1.23826e-05
1.23853e-05
1.2388e-05
1.23906e-05
1.2393e-05
1.23952e-05
1.2397e-05
1.23985e-05
1.23998e-05
1.24009e-05
1.24017e-05
1.24013e-05
1.23796e-05
1.23855e-05
1.24073e-05
1.24078e-05
1.24069e-05
1.24057e-05
1.24041e-05
1.24021e-05
1.23997e-05
1.23971e-05
1.23943e-05
1.23912e-05
1.23881e-05
1.23849e-05
1.23819e-05
1.23796e-05
1.23797e-05
1.23819e-05
1.2385e-05
1.23882e-05
1.23915e-05
1.23946e-05
1.23975e-05
1.24e-05
1.24022e-05
1.2404e-05
1.24056e-05
1.2407e-05
1.24081e-05
1.24077e-05
1.2386e-05
1.23935e-05
1.24152e-05
1.24155e-05
1.24144e-05
1.24129e-05
1.24109e-05
1.24085e-05
1.24057e-05
1.24026e-05
1.23992e-05
1.23955e-05
1.23918e-05
1.23879e-05
1.23843e-05
1.23816e-05
1.23816e-05
1.23842e-05
1.23879e-05
1.23918e-05
1.23957e-05
1.23994e-05
1.24028e-05
1.24058e-05
1.24084e-05
1.24108e-05
1.24128e-05
1.24144e-05
1.24157e-05
1.24153e-05
1.23937e-05
1.24031e-05
1.24246e-05
1.24247e-05
1.24234e-05
1.24216e-05
1.24192e-05
1.24163e-05
1.2413e-05
1.24093e-05
1.24052e-05
1.24009e-05
1.23963e-05
1.23916e-05
1.23873e-05
1.23841e-05
1.23841e-05
1.23872e-05
1.23915e-05
1.23962e-05
1.2401e-05
1.24054e-05
1.24095e-05
1.2413e-05
1.24162e-05
1.24191e-05
1.24215e-05
1.24234e-05
1.24248e-05
1.24245e-05
1.24031e-05
1.24146e-05
1.24359e-05
1.24359e-05
1.24343e-05
1.24321e-05
1.24293e-05
1.24259e-05
1.24219e-05
1.24175e-05
1.24126e-05
1.24074e-05
1.24019e-05
1.23963e-05
1.23911e-05
1.23875e-05
1.23874e-05
1.23911e-05
1.23962e-05
1.24019e-05
1.24076e-05
1.24129e-05
1.24177e-05
1.2422e-05
1.24259e-05
1.24293e-05
1.24321e-05
1.24342e-05
1.24357e-05
1.24357e-05
1.24144e-05
1.24284e-05
1.24495e-05
1.24493e-05
1.24473e-05
1.24447e-05
1.24414e-05
1.24374e-05
1.24328e-05
1.24275e-05
1.24217e-05
1.24154e-05
1.24089e-05
1.24022e-05
1.23962e-05
1.23919e-05
1.23919e-05
1.23962e-05
1.24023e-05
1.2409e-05
1.24157e-05
1.2422e-05
1.24278e-05
1.2433e-05
1.24376e-05
1.24416e-05
1.24448e-05
1.24472e-05
1.2449e-05
1.24492e-05
1.24282e-05
1.2445e-05
1.24658e-05
1.24653e-05
1.2463e-05
1.24599e-05
1.24561e-05
1.24514e-05
1.24459e-05
1.24398e-05
1.24329e-05
1.24255e-05
1.24176e-05
1.24098e-05
1.24027e-05
1.23978e-05
1.23978e-05
1.24027e-05
1.24099e-05
1.24178e-05
1.24256e-05
1.24331e-05
1.244e-05
1.24463e-05
1.24518e-05
1.24565e-05
1.24602e-05
1.24632e-05
1.24653e-05
1.24657e-05
1.24451e-05
1.24649e-05
1.24853e-05
1.24846e-05
1.24819e-05
1.24783e-05
1.24738e-05
1.24684e-05
1.2462e-05
1.24548e-05
1.24467e-05
1.24378e-05
1.24286e-05
1.24193e-05
1.2411e-05
1.24054e-05
1.24054e-05
1.2411e-05
1.24193e-05
1.24285e-05
1.24378e-05
1.24467e-05
1.24549e-05
1.24624e-05
1.24689e-05
1.24743e-05
1.24788e-05
1.24823e-05
1.2485e-05
1.24857e-05
1.24655e-05
1.24886e-05
1.25088e-05
1.25078e-05
1.25047e-05
1.25006e-05
1.24953e-05
1.2489e-05
1.24815e-05
1.2473e-05
1.24634e-05
1.2453e-05
1.24421e-05
1.24312e-05
1.24216e-05
1.24151e-05
1.24151e-05
1.24216e-05
1.24311e-05
1.24418e-05
1.24527e-05
1.24632e-05
1.24729e-05
1.24816e-05
1.24891e-05
1.24955e-05
1.25009e-05
1.25051e-05
1.25083e-05
1.25096e-05
1.24894e-05
1.2517e-05
1.25369e-05
1.25356e-05
1.25321e-05
1.25272e-05
1.25212e-05
1.25138e-05
1.25051e-05
1.24951e-05
1.24839e-05
1.24716e-05
1.24588e-05
1.24461e-05
1.2435e-05
1.24277e-05
1.24277e-05
1.2435e-05
1.2446e-05
1.24584e-05
1.24711e-05
1.24833e-05
1.24946e-05
1.25046e-05
1.25134e-05
1.25209e-05
1.25272e-05
1.25322e-05
1.2536e-05
1.25375e-05
1.25176e-05
1.25508e-05
1.25703e-05
1.25686e-05
1.25646e-05
1.25591e-05
1.25521e-05
1.25435e-05
1.25335e-05
1.25219e-05
1.25088e-05
1.24945e-05
1.24797e-05
1.24651e-05
1.24525e-05
1.24442e-05
1.24442e-05
1.24524e-05
1.24649e-05
1.24792e-05
1.24939e-05
1.25081e-05
1.25211e-05
1.25327e-05
1.25429e-05
1.25516e-05
1.25588e-05
1.25644e-05
1.25687e-05
1.25703e-05
1.25509e-05
1.25907e-05
1.26096e-05
1.26077e-05
1.26031e-05
1.25969e-05
1.25889e-05
1.25792e-05
1.25676e-05
1.25543e-05
1.25393e-05
1.2523e-05
1.2506e-05
1.24895e-05
1.24752e-05
1.24659e-05
1.24659e-05
1.24751e-05
1.24893e-05
1.25058e-05
1.25227e-05
1.25389e-05
1.25538e-05
1.25672e-05
1.25788e-05
1.25885e-05
1.25966e-05
1.26028e-05
1.26073e-05
1.2609e-05
1.25902e-05
1.26377e-05
1.26559e-05
1.26536e-05
1.26486e-05
1.26416e-05
1.26328e-05
1.26219e-05
1.26089e-05
1.25939e-05
1.2577e-05
1.25586e-05
1.25394e-05
1.25207e-05
1.25047e-05
1.24944e-05
1.24945e-05
1.25048e-05
1.2521e-05
1.25396e-05
1.25587e-05
1.25771e-05
1.2594e-05
1.26091e-05
1.2622e-05
1.26329e-05
1.26418e-05
1.26484e-05
1.2653e-05
1.26548e-05
1.26367e-05
1.26925e-05
1.27099e-05
1.27074e-05
1.2702e-05
1.26946e-05
1.2685e-05
1.26732e-05
1.26589e-05
1.26423e-05
1.26234e-05
1.26028e-05
1.25813e-05
1.25606e-05
1.25429e-05
1.25316e-05
1.25317e-05
1.25432e-05
1.25611e-05
1.25819e-05
1.26032e-05
1.26239e-05
1.26427e-05
1.26596e-05
1.26738e-05
1.26857e-05
1.26953e-05
1.27023e-05
1.2707e-05
1.27091e-05
1.26918e-05
1.27562e-05
1.27728e-05
1.27702e-05
1.27648e-05
1.27572e-05
1.27472e-05
1.27346e-05
1.27192e-05
1.2701e-05
1.26804e-05
1.26578e-05
1.26342e-05
1.26114e-05
1.25919e-05
1.25794e-05
1.25794e-05
1.25918e-05
1.26115e-05
1.26343e-05
1.2658e-05
1.2681e-05
1.27016e-05
1.27199e-05
1.27353e-05
1.2748e-05
1.2758e-05
1.27653e-05
1.27703e-05
1.27726e-05
1.27563e-05
1.28298e-05
1.28455e-05
1.28432e-05
1.2838e-05
1.28306e-05
1.28205e-05
1.28074e-05
1.27913e-05
1.27721e-05
1.275e-05
1.27257e-05
1.27002e-05
1.26752e-05
1.26537e-05
1.264e-05
1.26399e-05
1.26534e-05
1.26747e-05
1.26997e-05
1.27253e-05
1.27501e-05
1.27721e-05
1.27916e-05
1.28079e-05
1.28209e-05
1.2831e-05
1.28384e-05
1.28435e-05
1.28459e-05
1.28305e-05
1.29141e-05
1.2929e-05
1.29273e-05
1.29229e-05
1.2916e-05
1.29064e-05
1.28936e-05
1.28774e-05
1.28578e-05
1.28349e-05
1.28091e-05
1.27818e-05
1.2755e-05
1.2732e-05
1.27173e-05
1.27172e-05
1.27315e-05
1.27542e-05
1.27809e-05
1.2808e-05
1.28342e-05
1.28571e-05
1.28773e-05
1.28936e-05
1.29063e-05
1.2916e-05
1.2923e-05
1.29276e-05
1.29298e-05
1.2915e-05
1.301e-05
1.30245e-05
1.30238e-05
1.30205e-05
1.30151e-05
1.3007e-05
1.29955e-05
1.29802e-05
1.29609e-05
1.29378e-05
1.29115e-05
1.28834e-05
1.28555e-05
1.28313e-05
1.28157e-05
1.28155e-05
1.28307e-05
1.28547e-05
1.28826e-05
1.29106e-05
1.29369e-05
1.29598e-05
1.29794e-05
1.29949e-05
1.30065e-05
1.30149e-05
1.30205e-05
1.30239e-05
1.30254e-05
1.30108e-05
1.31192e-05
1.31339e-05
1.3134e-05
1.31328e-05
1.31298e-05
1.31245e-05
1.31154e-05
1.31021e-05
1.30846e-05
1.30628e-05
1.30374e-05
1.30094e-05
1.29813e-05
1.29566e-05
1.29409e-05
1.29409e-05
1.29567e-05
1.29811e-05
1.3009e-05
1.30366e-05
1.30621e-05
1.30837e-05
1.31013e-05
1.31145e-05
1.31236e-05
1.31294e-05
1.31325e-05
1.31342e-05
1.31347e-05
1.31197e-05
1.32434e-05
1.32581e-05
1.32598e-05
1.32614e-05
1.32619e-05
1.32604e-05
1.32557e-05
1.32466e-05
1.32329e-05
1.32143e-05
1.31915e-05
1.31653e-05
1.31386e-05
1.31149e-05
1.30995e-05
1.30993e-05
1.31148e-05
1.31387e-05
1.31655e-05
1.31915e-05
1.32142e-05
1.32327e-05
1.32462e-05
1.32551e-05
1.32598e-05
1.32613e-05
1.32611e-05
1.32604e-05
1.32587e-05
1.32437e-05
1.3382e-05
1.33973e-05
1.34021e-05
1.34079e-05
1.34136e-05
1.34179e-05
1.34199e-05
1.34176e-05
1.34105e-05
1.33978e-05
1.33805e-05
1.33587e-05
1.33351e-05
1.3313e-05
1.32987e-05
1.32986e-05
1.33133e-05
1.33354e-05
1.33591e-05
1.33811e-05
1.33983e-05
1.34105e-05
1.34175e-05
1.34194e-05
1.34175e-05
1.34131e-05
1.34077e-05
1.34025e-05
1.33975e-05
1.33821e-05
1.35337e-05
1.3551e-05
1.35607e-05
1.35734e-05
1.35877e-05
1.36009e-05
1.36124e-05
1.36204e-05
1.36235e-05
1.36214e-05
1.36135e-05
1.35998e-05
1.35825e-05
1.35656e-05
1.35546e-05
1.35545e-05
1.35656e-05
1.35828e-05
1.35999e-05
1.36136e-05
1.36218e-05
1.36237e-05
1.36205e-05
1.3612e-05
1.36005e-05
1.35874e-05
1.35737e-05
1.35612e-05
1.35508e-05
1.35334e-05
1.36985e-05
1.3722e-05
1.37397e-05
1.37629e-05
1.37903e-05
1.38182e-05
1.38463e-05
1.38719e-05
1.38935e-05
1.39134e-05
1.39287e-05
1.39409e-05
1.39561e-05
1.39706e-05
1.3989e-05
1.3989e-05
1.39706e-05
1.39559e-05
1.39411e-05
1.3929e-05
1.39137e-05
1.38935e-05
1.38721e-05
1.3846e-05
1.38177e-05
1.37902e-05
1.37632e-05
1.37397e-05
1.37219e-05
1.36989e-05
1.39017e-05
1.39366e-05
1.39683e-05
1.40114e-05
1.40624e-05
1.41239e-05
1.4193e-05
1.4276e-05
1.43709e-05
1.45031e-05
1.46802e-05
1.49171e-05
1.5247e-05
1.56334e-05
1.6041e-05
1.60404e-05
1.56339e-05
1.52475e-05
1.49182e-05
1.46819e-05
1.45045e-05
1.43718e-05
1.42763e-05
1.41929e-05
1.41239e-05
1.40625e-05
1.40114e-05
1.39676e-05
1.39358e-05
1.39019e-05
1.42014e-05
1.4262e-05
1.43454e-05
1.44613e-05
1.46117e-05
1.48313e-05
1.51417e-05
1.56138e-05
1.62931e-05
1.73943e-05
1.91661e-05
2.18618e-05
2.54747e-05
2.99047e-05
3.46495e-05
3.46459e-05
2.99074e-05
2.5487e-05
2.18825e-05
1.91871e-05
1.7409e-05
1.63028e-05
1.56197e-05
1.51442e-05
1.48313e-05
1.46105e-05
1.44596e-05
1.43441e-05
1.426e-05
1.41984e-05
1.48029e-05
1.49672e-05
1.53419e-05
1.58709e-05
1.66652e-05
1.79417e-05
2.00745e-05
2.35692e-05
2.93032e-05
3.83693e-05
5.43905e-05
8.0551e-05
0.000116825
0.000159005
0.00020312
0.000203126
0.000159053
0.000117019
8.08062e-05
5.46017e-05
3.8505e-05
2.93855e-05
2.36192e-05
2.01001e-05
1.79501e-05
1.66624e-05
1.58641e-05
1.53346e-05
1.49533e-05
1.47866e-05
1.73746e-05
1.80681e-05
2.02074e-05
2.30608e-05
2.78272e-05
3.59199e-05
5.11226e-05
7.83863e-05
0.000125714
0.000200243
0.000336486
0.000558235
0.000853283
0.00117523
0.00146852
0.00146883
0.00117606
0.000855346
0.000560699
0.000338484
0.000201452
0.000126451
7.88098e-05
5.1353e-05
3.60361e-05
2.78539e-05
2.30524e-05
2.01866e-05
1.80111e-05
1.73094e-05
3.83167e-05
5.47607e-05
8.24079e-05
0.000131715
0.000218634
0.000368289
0.000632761
0.0010574
0.00169359
0.00259882
0.00382626
0.00523026
0.00665032
0.00789843
0.00882579
0.00882831
0.00790537
0.00666345
0.00524821
0.00384449
0.0026132
0.00170366
0.00106389
0.000636636
0.00037056
0.000219914
0.000132337
8.25816e-05
5.4721e-05
3.81589e-05
8.03955e-05
0.000112773
0.000186739
0.000308716
0.00050741
0.000835666
0.00130605
0.00198023
0.00293386
0.00425085
0.00597027
0.00797819
0.00987758
0.0113308
0.0124247
0.0124325
0.0113409
0.00990015
0.00800996
0.00600293
0.00427802
0.00295431
0.0019937
0.00131495
0.000841612
0.000510552
0.000310324
0.00018742
0.000112682
8.00555e-05
0.000114416
0.000145915
0.000245818
0.000433774
0.000730281
0.00114624
0.00169169
0.00239809
0.0033456
0.00461087
0.00624404
0.00812304
0.00993306
0.0113307
0.0124093
0.0124164
0.011341
0.00995685
0.0081634
0.00628981
0.0046497
0.00337544
0.00241838
0.001705
0.00115642
0.000737493
0.000437939
0.000247167
0.000146329
0.000114471
0.000126675
0.0001475
0.00021552
0.000372056
0.000687253
0.0011731
0.0018097
0.00257731
0.00348702
0.00456462
0.00592324
0.00752412
0.00910083
0.0102985
0.0112428
0.0112561
0.010322
0.00913374
0.00756616
0.00596533
0.00460079
0.00351851
0.0026019
0.00182607
0.00118414
0.00069558
0.000377232
0.000216543
0.000147176
0.000127393
0.00012184
0.000134378
0.000168915
0.000251446
0.000434712
0.00080868
0.00142156
0.00224542
0.00319862
0.00425026
0.00546279
0.00671077
0.00793346
0.00881126
0.00946476
0.00947454
0.00882994
0.00796303
0.0067468
0.00549911
0.0042823
0.00322727
0.00227064
0.00143969
0.000819194
0.000439643
0.000254193
0.00016984
0.000133855
0.000122115
0.000115422
0.000122147
0.000136971
0.000170453
0.000242314
0.000393794
0.000709103
0.00129728
0.00214089
0.00322095
0.0045235
0.00584857
0.00702727
0.00778341
0.0082589
0.00826545
0.007796
0.00705096
0.00588031
0.00455509
0.00324696
0.00216228
0.00131388
0.000719518
0.000399194
0.000244932
0.000171605
0.000137523
0.000122098
0.000115178
0.000107259
0.000110985
0.000116839
0.000129268
0.000152802
0.000199196
0.00029736
0.000505081
0.000896154
0.00160533
0.00272914
0.00414409
0.0055263
0.00655408
0.00722013
0.00722382
0.00655975
0.00554121
0.00416559
0.00274992
0.00162143
0.000907129
0.000511728
0.000300949
0.000201067
0.000153978
0.000129737
0.000117119
0.00011116
0.000107312
9.97585e-05
0.000101441
0.000104045
0.000109187
0.00011732
0.000131285
0.000156922
0.000208652
0.000312189
0.000532384
0.00102042
0.00193109
0.00311747
0.00428819
0.00522224
0.00522479
0.00428935
0.00312388
0.00194085
0.00102801
0.000536935
0.000314884
0.000210038
0.000157786
0.00013184
0.000117859
0.000109446
0.000104095
0.000101536
9.98941e-05
9.28892e-05
9.32656e-05
9.44245e-05
9.72493e-05
0.000101149
0.000106467
0.000114246
0.000126691
0.000149271
0.000195993
0.000307219
0.000573531
0.0010772
0.00178449
0.00253476
0.00253706
0.00178616
0.00108067
0.000576878
0.000309312
0.000197172
0.00015003
0.000127201
0.000114422
0.000106718
0.000101507
9.76085e-05
9.46233e-05
9.32415e-05
9.2878e-05
8.58689e-05
8.54499e-05
8.6371e-05
8.81439e-05
9.06428e-05
9.35476e-05
9.704e-05
0.000101273
0.000107264
0.000117091
0.000137625
0.00018602
0.000288445
0.000476825
0.000733838
0.000733823
0.000476179
0.000288424
0.000186049
0.000137676
0.000117052
0.000107215
0.000101334
9.70484e-05
9.36266e-05
9.0842e-05
8.83484e-05
8.64324e-05
8.55497e-05
8.58947e-05
7.88154e-05
7.7863e-05
7.8339e-05
7.97174e-05
8.13301e-05
8.32329e-05
8.53094e-05
8.74686e-05
8.97701e-05
9.25044e-05
9.66868e-05
0.000104663
0.000120299
0.000149276
0.000191889
0.000191726
0.000149241
0.00012057
0.000104863
9.68363e-05
9.25676e-05
8.98931e-05
8.76368e-05
8.54527e-05
8.3403e-05
8.1527e-05
7.97583e-05
7.84636e-05
7.79574e-05
7.8715e-05
7.13255e-05
7.05725e-05
7.07173e-05
7.15474e-05
7.26665e-05
7.39521e-05
7.52109e-05
7.6419e-05
7.74976e-05
7.84258e-05
7.92728e-05
8.04522e-05
8.26434e-05
8.63821e-05
9.15603e-05
9.15204e-05
8.64988e-05
8.29038e-05
8.06468e-05
7.93318e-05
7.83678e-05
7.75041e-05
7.64931e-05
7.52628e-05
7.4069e-05
7.28108e-05
7.16126e-05
7.07258e-05
7.05262e-05
7.15146e-05
6.4494e-05
6.31241e-05
6.31358e-05
6.38188e-05
6.44826e-05
6.52273e-05
6.59305e-05
6.65082e-05
6.68458e-05
6.68606e-05
6.66708e-05
6.65161e-05
6.64599e-05
6.65701e-05
6.68999e-05
6.69029e-05
6.66131e-05
6.65094e-05
6.65943e-05
6.67747e-05
6.68908e-05
6.68325e-05
6.65165e-05
6.59356e-05
6.52847e-05
6.45852e-05
6.39153e-05
6.33345e-05
6.33042e-05
6.44031e-05
5.74586e-05
5.63132e-05
5.62573e-05
5.65573e-05
5.69572e-05
5.73238e-05
5.75976e-05
5.76388e-05
5.74246e-05
5.69837e-05
5.63804e-05
5.5664e-05
5.49029e-05
5.43329e-05
5.40494e-05
5.40776e-05
5.4428e-05
5.49871e-05
5.56994e-05
5.64329e-05
5.70253e-05
5.74003e-05
5.75521e-05
5.75559e-05
5.73984e-05
5.70622e-05
5.66654e-05
5.63473e-05
5.64747e-05
5.75792e-05
5.1112e-05
5.00572e-05
4.99449e-05
5.0016e-05
5.01846e-05
5.02555e-05
5.01857e-05
4.99172e-05
4.94145e-05
4.86768e-05
4.77568e-05
4.67538e-05
4.57851e-05
4.50177e-05
4.45584e-05
4.45554e-05
4.50327e-05
4.5805e-05
4.67728e-05
4.78053e-05
4.87252e-05
4.94453e-05
4.99311e-05
5.02008e-05
5.02843e-05
5.02369e-05
5.01054e-05
4.99816e-05
5.01732e-05
5.12214e-05
4.54391e-05
4.44147e-05
4.41402e-05
4.41923e-05
4.41782e-05
4.40603e-05
4.37474e-05
4.3266e-05
4.26048e-05
4.17205e-05
4.06788e-05
3.959e-05
3.8558e-05
3.7711e-05
3.71756e-05
3.71492e-05
3.7679e-05
3.85794e-05
3.96769e-05
4.08043e-05
4.1823e-05
4.26758e-05
4.3357e-05
4.38415e-05
4.41224e-05
4.42373e-05
4.42393e-05
4.42352e-05
4.44841e-05
4.54835e-05
4.02912e-05
3.94014e-05
3.91578e-05
3.90809e-05
3.89274e-05
3.86765e-05
3.83018e-05
3.77758e-05
3.70157e-05
3.60281e-05
3.49601e-05
3.38939e-05
3.28743e-05
3.20096e-05
3.14663e-05
3.14649e-05
3.20122e-05
3.2895e-05
3.39443e-05
3.50492e-05
3.61147e-05
3.70542e-05
3.78135e-05
3.83638e-05
3.87233e-05
3.89488e-05
3.90915e-05
3.92141e-05
3.94961e-05
4.04124e-05
3.59958e-05
3.49434e-05
3.47806e-05
3.46586e-05
3.4486e-05
3.4193e-05
3.37505e-05
3.31128e-05
3.22879e-05
3.13661e-05
3.04033e-05
2.93842e-05
2.83649e-05
2.7506e-05
2.69937e-05
2.70114e-05
2.75278e-05
2.8346e-05
2.93314e-05
3.03978e-05
3.14425e-05
3.23689e-05
3.31241e-05
3.37071e-05
3.41497e-05
3.4487e-05
3.473e-05
3.48961e-05
3.51406e-05
3.59512e-05
3.19214e-05
3.1285e-05
3.10841e-05
3.09445e-05
3.06998e-05
3.03477e-05
2.9869e-05
2.92455e-05
2.85077e-05
2.76789e-05
2.67434e-05
2.57356e-05
2.47827e-05
2.40321e-05
2.36029e-05
2.36209e-05
2.4071e-05
2.48075e-05
2.57186e-05
2.67157e-05
2.76952e-05
2.85693e-05
2.92946e-05
2.98824e-05
3.03596e-05
3.07334e-05
3.09901e-05
3.11495e-05
3.13644e-05
3.2093e-05
2.87479e-05
2.81933e-05
2.79579e-05
2.77426e-05
2.74677e-05
2.71321e-05
2.66817e-05
2.61232e-05
2.54566e-05
2.46594e-05
2.37593e-05
2.28467e-05
2.20275e-05
2.13803e-05
2.09876e-05
2.09778e-05
2.13726e-05
2.20522e-05
2.28997e-05
2.38096e-05
2.46888e-05
2.54781e-05
2.61546e-05
2.6724e-05
2.71925e-05
2.7552e-05
2.77976e-05
2.7961e-05
2.81682e-05
2.88131e-05
2.61185e-05
2.54473e-05
2.52793e-05
2.50764e-05
2.48471e-05
2.45329e-05
2.41165e-05
2.36093e-05
2.29797e-05
2.22312e-05
2.14312e-05
2.06474e-05
1.99324e-05
1.93435e-05
1.8975e-05
1.89611e-05
1.93263e-05
1.99512e-05
2.07134e-05
2.15108e-05
2.22759e-05
2.29785e-05
2.36026e-05
2.41359e-05
2.45685e-05
2.48973e-05
2.51301e-05
2.52955e-05
2.54863e-05
2.60393e-05
2.36036e-05
2.31921e-05
2.30181e-05
2.28809e-05
2.26924e-05
2.23878e-05
2.20096e-05
2.15416e-05
2.09638e-05
2.03136e-05
1.9638e-05
1.89602e-05
1.83133e-05
1.77695e-05
1.74353e-05
1.74298e-05
1.77617e-05
1.8314e-05
1.89764e-05
1.96664e-05
2.03362e-05
2.09637e-05
2.15282e-05
2.20086e-05
2.23938e-05
2.26876e-05
2.29031e-05
2.30621e-05
2.32343e-05
2.37072e-05
2.16887e-05
2.13265e-05
2.11762e-05
2.10592e-05
2.08524e-05
2.05709e-05
2.02387e-05
1.98227e-05
1.93333e-05
1.87954e-05
1.82146e-05
1.76018e-05
1.70073e-05
1.65182e-05
1.62305e-05
1.6238e-05
1.6535e-05
1.70138e-05
1.75858e-05
1.81875e-05
1.87792e-05
1.9336e-05
1.98346e-05
2.02557e-05
2.05928e-05
2.08539e-05
2.10535e-05
2.12071e-05
2.1363e-05
2.17617e-05
2.01286e-05
1.97105e-05
1.96369e-05
1.95171e-05
1.93238e-05
1.9099e-05
1.88098e-05
1.84491e-05
1.80378e-05
1.75737e-05
1.70534e-05
1.6506e-05
1.5992e-05
1.55824e-05
1.5345e-05
1.53573e-05
1.56102e-05
1.60129e-05
1.64994e-05
1.70206e-05
1.75402e-05
1.8029e-05
1.84635e-05
1.88293e-05
1.91246e-05
1.93584e-05
1.95417e-05
1.96829e-05
1.98141e-05
2.01356e-05
1.8665e-05
1.84458e-05
1.83622e-05
1.82444e-05
1.80976e-05
1.79074e-05
1.76441e-05
1.73313e-05
1.6975e-05
1.65636e-05
1.61081e-05
1.56468e-05
1.5222e-05
1.4876e-05
1.46628e-05
1.46619e-05
1.48719e-05
1.52171e-05
1.56421e-05
1.61017e-05
1.65585e-05
1.6983e-05
1.73566e-05
1.76715e-05
1.79293e-05
1.81361e-05
1.82968e-05
1.84152e-05
1.85172e-05
1.87716e-05
1.75979e-05
1.74513e-05
1.73366e-05
1.72263e-05
1.70983e-05
1.69113e-05
1.66768e-05
1.64112e-05
1.6104e-05
1.5751e-05
1.53716e-05
1.49913e-05
1.46306e-05
1.432e-05
1.41186e-05
1.41107e-05
1.42983e-05
1.4611e-05
1.49896e-05
1.53895e-05
1.57775e-05
1.61326e-05
1.64454e-05
1.67137e-05
1.69376e-05
1.71175e-05
1.72541e-05
1.73508e-05
1.74315e-05
1.76372e-05
1.67592e-05
1.65383e-05
1.64595e-05
1.63671e-05
1.62451e-05
1.60809e-05
1.58921e-05
1.56733e-05
1.54148e-05
1.51225e-05
1.48097e-05
1.4487e-05
1.41696e-05
1.38914e-05
1.37128e-05
1.371e-05
1.38827e-05
1.41598e-05
1.44835e-05
1.48156e-05
1.51339e-05
1.54273e-05
1.56916e-05
1.59234e-05
1.61183e-05
1.62731e-05
1.63882e-05
1.64695e-05
1.65375e-05
1.67042e-05
1.59163e-05
1.57632e-05
1.57119e-05
1.56421e-05
1.55422e-05
1.54185e-05
1.52679e-05
1.50819e-05
1.4863e-05
1.46181e-05
1.43506e-05
1.40674e-05
1.3789e-05
1.3551e-05
1.34029e-05
1.34037e-05
1.35541e-05
1.37904e-05
1.40612e-05
1.43381e-05
1.46071e-05
1.486e-05
1.50901e-05
1.52901e-05
1.54547e-05
1.55826e-05
1.56776e-05
1.57467e-05
1.58046e-05
1.59359e-05
1.52524e-05
1.5189e-05
1.51327e-05
1.50756e-05
1.49963e-05
1.48931e-05
1.47577e-05
1.45933e-05
1.44068e-05
1.41991e-05
1.39694e-05
1.37268e-05
1.34927e-05
1.32961e-05
1.31739e-05
1.31717e-05
1.32949e-05
1.34937e-05
1.37235e-05
1.39627e-05
1.4198e-05
1.44182e-05
1.46136e-05
1.47777e-05
1.49082e-05
1.50091e-05
1.5087e-05
1.51474e-05
1.51981e-05
1.53003e-05
1.47837e-05
1.47027e-05
1.46587e-05
1.46077e-05
1.45376e-05
1.44421e-05
1.43241e-05
1.41884e-05
1.4036e-05
1.38649e-05
1.36765e-05
1.34797e-05
1.32897e-05
1.31259e-05
1.30175e-05
1.30089e-05
1.3106e-05
1.327e-05
1.34656e-05
1.36721e-05
1.3874e-05
1.40583e-05
1.42163e-05
1.43446e-05
1.4446e-05
1.45271e-05
1.45947e-05
1.46509e-05
1.46971e-05
1.47762e-05
1.4344e-05
1.42571e-05
1.42363e-05
1.41944e-05
1.41335e-05
1.40563e-05
1.39675e-05
1.38638e-05
1.37417e-05
1.36022e-05
1.34499e-05
1.3292e-05
1.31362e-05
1.29946e-05
1.28949e-05
1.28824e-05
1.29584e-05
1.30921e-05
1.32577e-05
1.34335e-05
1.36023e-05
1.37532e-05
1.38801e-05
1.39825e-05
1.40659e-05
1.41365e-05
1.41979e-05
1.42489e-05
1.42879e-05
1.4344e-05
1.39486e-05
1.39151e-05
1.39001e-05
1.38667e-05
1.38175e-05
1.37604e-05
1.36928e-05
1.36082e-05
1.35047e-05
1.33864e-05
1.32598e-05
1.31288e-05
1.29967e-05
1.28735e-05
1.27842e-05
1.27725e-05
1.28397e-05
1.29533e-05
1.30936e-05
1.32415e-05
1.33816e-05
1.35056e-05
1.36104e-05
1.36969e-05
1.37694e-05
1.38317e-05
1.38839e-05
1.39239e-05
1.39503e-05
1.39826e-05
1.36687e-05
1.36651e-05