/*--------------------------------*- C++ -*----------------------------------*\
| =========                 |                                                 |
| \\      /  F ield         | OpenFOAM: The Open Source CFD Toolbox           |
|  \\    /   O peration     | Version:  2312                                  |
|   \\  /    A nd           | Website:  www.openfoam.com                      |
|    \\/     M anipulation  |                                                 |
\*---------------------------------------------------------------------------*/
FoamFile
{
    version     2.0;
    format      ascii;
    arch        "LSB;label=32;scalar=64";
    class       volScalarField;
    location    "0.602264";
    object      k;
}
// * * * * * * * * * * * * * * * * * * * * * * * * * * * * * * * * * * * * * //

dimensions      [0 2 -2 0 0 0 0];

internalField   nonuniform List<scalar> 
90000
(
2.8476e-05
2.84772e-05
2.84775e-05
2.84777e-05
2.84778e-05
2.84778e-05
2.84778e-05
2.84777e-05
2.84776e-05
2.84775e-05
2.84775e-05
2.84775e-05
2.84776e-05
2.84776e-05
2.84776e-05
2.84777e-05
2.84779e-05
2.84781e-05
2.84782e-05
2.84781e-05
2.84778e-05
2.84774e-05
2.84773e-05
2.84777e-05
2.84782e-05
2.84785e-05
2.84784e-05
2.84782e-05
2.84779e-05
2.84778e-05
2.84771e-05
2.85127e-05
2.85142e-05
2.85142e-05
2.85142e-05
2.85142e-05
2.85143e-05
2.85143e-05
2.85144e-05
2.85145e-05
2.85146e-05
2.85146e-05
2.85146e-05
2.85147e-05
2.85147e-05
2.85147e-05
2.85147e-05
2.85146e-05
2.85144e-05
2.85143e-05
2.85143e-05
2.85143e-05
2.85142e-05
2.85141e-05
2.85139e-05
2.85136e-05
2.85137e-05
2.85143e-05
2.85128e-05
2.84815e-05
2.84775e-05
2.85148e-05
2.85164e-05
2.85164e-05
2.85163e-05
2.85162e-05
2.85162e-05
2.85163e-05
2.85164e-05
2.85165e-05
2.85165e-05
2.85164e-05
2.85163e-05
2.85163e-05
2.85163e-05
2.85162e-05
2.85161e-05
2.8516e-05
2.85162e-05
2.85164e-05
2.85165e-05
2.85166e-05
2.85166e-05
2.85166e-05
2.85168e-05
2.8517e-05
2.85171e-05
2.85172e-05
2.85151e-05
2.84801e-05
2.8478e-05
2.85153e-05
2.8517e-05
2.8517e-05
2.8517e-05
2.85169e-05
2.85168e-05
2.85167e-05
2.85168e-05
2.85167e-05
2.85166e-05
2.85165e-05
2.85163e-05
2.85162e-05
2.85161e-05
2.85159e-05
2.8516e-05
2.85162e-05
2.85165e-05
2.85167e-05
2.85168e-05
2.85169e-05
2.85171e-05
2.85175e-05
2.85179e-05
2.85181e-05
2.85179e-05
2.85176e-05
2.85157e-05
2.84783e-05
2.84784e-05
2.85157e-05
2.85175e-05
2.85176e-05
2.85175e-05
2.85175e-05
2.85173e-05
2.85172e-05
2.8517e-05
2.85168e-05
2.85166e-05
2.85164e-05
2.85162e-05
2.85159e-05
2.85157e-05
2.85157e-05
2.8516e-05
2.85163e-05
2.85165e-05
2.85167e-05
2.85168e-05
2.8517e-05
2.85174e-05
2.85179e-05
2.85181e-05
2.85181e-05
2.85178e-05
2.8517e-05
2.8516e-05
2.84785e-05
2.84788e-05
2.85161e-05
2.85178e-05
2.85179e-05
2.85179e-05
2.85178e-05
2.85177e-05
2.85175e-05
2.85172e-05
2.85168e-05
2.85165e-05
2.85162e-05
2.8516e-05
2.85158e-05
2.85157e-05
2.85157e-05
2.85159e-05
2.85161e-05
2.85163e-05
2.85165e-05
2.85169e-05
2.85173e-05
2.85176e-05
2.85178e-05
2.85177e-05
2.85176e-05
2.85178e-05
2.85179e-05
2.85169e-05
2.84792e-05
2.84792e-05
2.85165e-05
2.8518e-05
2.8518e-05
2.8518e-05
2.8518e-05
2.85179e-05
2.85177e-05
2.85173e-05
2.85168e-05
2.85163e-05
2.8516e-05
2.85159e-05
2.85158e-05
2.85158e-05
2.85158e-05
2.85158e-05
2.85159e-05
2.85162e-05
2.85167e-05
2.85172e-05
2.85175e-05
2.85176e-05
2.85175e-05
2.85176e-05
2.8518e-05
2.85186e-05
2.85189e-05
2.85175e-05
2.84797e-05
2.84795e-05
2.85167e-05
2.85181e-05
2.85181e-05
2.8518e-05
2.8518e-05
2.8518e-05
2.85178e-05
2.85175e-05
2.8517e-05
2.85165e-05
2.85161e-05
2.85159e-05
2.85159e-05
2.85159e-05
2.85159e-05
2.85158e-05
2.85159e-05
2.85165e-05
2.8517e-05
2.85174e-05
2.85175e-05
2.85175e-05
2.85176e-05
2.85181e-05
2.85187e-05
2.85192e-05
2.85195e-05
2.85178e-05
2.84803e-05
2.84798e-05
2.85168e-05
2.85183e-05
2.85182e-05
2.85181e-05
2.85181e-05
2.8518e-05
2.85179e-05
2.85177e-05
2.85174e-05
2.85169e-05
2.85165e-05
2.85162e-05
2.8516e-05
2.85161e-05
2.85162e-05
2.85164e-05
2.85167e-05
2.85171e-05
2.85174e-05
2.85175e-05
2.85175e-05
2.85176e-05
2.8518e-05
2.85185e-05
2.85191e-05
2.85196e-05
2.85198e-05
2.85181e-05
2.84809e-05
2.84802e-05
2.8517e-05
2.85186e-05
2.85185e-05
2.85183e-05
2.85182e-05
2.85181e-05
2.8518e-05
2.85179e-05
2.85177e-05
2.85175e-05
2.85171e-05
2.85167e-05
2.85164e-05
2.85163e-05
2.85167e-05
2.85172e-05
2.85177e-05
2.85179e-05
2.8518e-05
2.85179e-05
2.85178e-05
2.85179e-05
2.85183e-05
2.85188e-05
2.85194e-05
2.85198e-05
2.85201e-05
2.85185e-05
2.84814e-05
2.84808e-05
2.85174e-05
2.8519e-05
2.85189e-05
2.85187e-05
2.85185e-05
2.85183e-05
2.85182e-05
2.85181e-05
2.8518e-05
2.85179e-05
2.85176e-05
2.85173e-05
2.85168e-05
2.85165e-05
2.85169e-05
2.85176e-05
2.85181e-05
2.85184e-05
2.85184e-05
2.85183e-05
2.85181e-05
2.85182e-05
2.85185e-05
2.8519e-05
2.85196e-05
2.85201e-05
2.85204e-05
2.85188e-05
2.84818e-05
2.84816e-05
2.85181e-05
2.85197e-05
2.85196e-05
2.85195e-05
2.85193e-05
2.8519e-05
2.85187e-05
2.85184e-05
2.85183e-05
2.85182e-05
2.8518e-05
2.85177e-05
2.85172e-05
2.85166e-05
2.85168e-05
2.85174e-05
2.85179e-05
2.85183e-05
2.85183e-05
2.85183e-05
2.85182e-05
2.85184e-05
2.85189e-05
2.85194e-05
2.852e-05
2.85204e-05
2.85206e-05
2.8519e-05
2.8482e-05
2.84825e-05
2.85192e-05
2.85208e-05
2.85208e-05
2.85207e-05
2.85205e-05
2.85203e-05
2.85199e-05
2.85194e-05
2.85188e-05
2.85184e-05
2.85182e-05
2.85179e-05
2.85175e-05
2.8517e-05
2.85168e-05
2.85171e-05
2.85174e-05
2.85176e-05
2.85178e-05
2.8518e-05
2.85183e-05
2.85188e-05
2.85194e-05
2.85199e-05
2.85204e-05
2.85208e-05
2.85209e-05
2.85192e-05
2.84825e-05
2.84837e-05
2.85206e-05
2.85221e-05
2.85221e-05
2.8522e-05
2.85219e-05
2.85215e-05
2.8521e-05
2.85203e-05
2.85195e-05
2.85188e-05
2.85183e-05
2.85179e-05
2.85177e-05
2.85173e-05
2.85171e-05
2.85171e-05
2.85172e-05
2.85173e-05
2.85177e-05
2.85183e-05
2.8519e-05
2.85196e-05
2.85202e-05
2.85206e-05
2.8521e-05
2.85213e-05
2.85214e-05
2.85198e-05
2.84834e-05
2.84851e-05
2.8522e-05
2.85236e-05
2.85236e-05
2.85234e-05
2.8523e-05
2.85225e-05
2.85218e-05
2.8521e-05
2.85201e-05
2.85192e-05
2.85184e-05
2.85179e-05
2.85177e-05
2.85175e-05
2.85174e-05
2.85174e-05
2.85176e-05
2.85179e-05
2.85186e-05
2.85194e-05
2.85201e-05
2.85207e-05
2.85213e-05
2.85217e-05
2.8522e-05
2.85222e-05
2.85224e-05
2.8521e-05
2.84848e-05
2.84868e-05
2.85238e-05
2.85254e-05
2.85251e-05
2.85247e-05
2.8524e-05
2.85233e-05
2.85224e-05
2.85216e-05
2.85207e-05
2.85197e-05
2.85187e-05
2.8518e-05
2.85177e-05
2.85175e-05
2.85176e-05
2.85178e-05
2.85183e-05
2.8519e-05
2.85199e-05
2.85207e-05
2.85215e-05
2.85221e-05
2.85227e-05
2.85231e-05
2.85234e-05
2.85238e-05
2.85242e-05
2.85231e-05
2.84868e-05
2.84889e-05
2.8526e-05
2.85273e-05
2.85268e-05
2.85261e-05
2.85252e-05
2.85243e-05
2.85233e-05
2.85225e-05
2.85216e-05
2.85206e-05
2.85194e-05
2.85185e-05
2.85179e-05
2.85176e-05
2.85177e-05
2.85183e-05
2.85192e-05
2.85202e-05
2.85212e-05
2.85222e-05
2.8523e-05
2.85237e-05
2.85243e-05
2.85248e-05
2.85254e-05
2.85261e-05
2.85268e-05
2.85255e-05
2.8489e-05
2.84914e-05
2.85284e-05
2.85295e-05
2.85289e-05
2.85281e-05
2.85271e-05
2.85261e-05
2.8525e-05
2.8524e-05
2.85229e-05
2.85217e-05
2.85205e-05
2.85193e-05
2.85182e-05
2.85176e-05
2.85178e-05
2.85187e-05
2.852e-05
2.85213e-05
2.85226e-05
2.85237e-05
2.85247e-05
2.85255e-05
2.85262e-05
2.8527e-05
2.85279e-05
2.85288e-05
2.85295e-05
2.8528e-05
2.84913e-05
2.84944e-05
2.85311e-05
2.85323e-05
2.85316e-05
2.85308e-05
2.85298e-05
2.85287e-05
2.85275e-05
2.85262e-05
2.85248e-05
2.85233e-05
2.85217e-05
2.85202e-05
2.85187e-05
2.85177e-05
2.85178e-05
2.85191e-05
2.85208e-05
2.85225e-05
2.8524e-05
2.85254e-05
2.85265e-05
2.85276e-05
2.85286e-05
2.85298e-05
2.85309e-05
2.85318e-05
2.85323e-05
2.85306e-05
2.84941e-05
2.84982e-05
2.85344e-05
2.85356e-05
2.8535e-05
2.85341e-05
2.85331e-05
2.85318e-05
2.85304e-05
2.85288e-05
2.85271e-05
2.85252e-05
2.85232e-05
2.85212e-05
2.85193e-05
2.85179e-05
2.8518e-05
2.85197e-05
2.85217e-05
2.85238e-05
2.85256e-05
2.85273e-05
2.85288e-05
2.85303e-05
2.85318e-05
2.85332e-05
2.85344e-05
2.85351e-05
2.85355e-05
2.85339e-05
2.84975e-05
2.85027e-05
2.85386e-05
2.85398e-05
2.85391e-05
2.85382e-05
2.8537e-05
2.85356e-05
2.8534e-05
2.85321e-05
2.85299e-05
2.85276e-05
2.85251e-05
2.85226e-05
2.85203e-05
2.85185e-05
2.85187e-05
2.85206e-05
2.85231e-05
2.85255e-05
2.85277e-05
2.85298e-05
2.85318e-05
2.85338e-05
2.85357e-05
2.85373e-05
2.85384e-05
2.85392e-05
2.85396e-05
2.85382e-05
2.8502e-05
2.85082e-05
2.85439e-05
2.85451e-05
2.85443e-05
2.85432e-05
2.85419e-05
2.85402e-05
2.85382e-05
2.85359e-05
2.85333e-05
2.85304e-05
2.85274e-05
2.85245e-05
2.85217e-05
2.85196e-05
2.85197e-05
2.8522e-05
2.85248e-05
2.85277e-05
2.85305e-05
2.85332e-05
2.85358e-05
2.85383e-05
2.85404e-05
2.85421e-05
2.85434e-05
2.85444e-05
2.85451e-05
2.85438e-05
2.8508e-05
2.8515e-05
2.85505e-05
2.85517e-05
2.85508e-05
2.85495e-05
2.85478e-05
2.85458e-05
2.85433e-05
2.85405e-05
2.85373e-05
2.85339e-05
2.85304e-05
2.85268e-05
2.85235e-05
2.8521e-05
2.85211e-05
2.85237e-05
2.85271e-05
2.85306e-05
2.85341e-05
2.85375e-05
2.85407e-05
2.85436e-05
2.85461e-05
2.8548e-05
2.85496e-05
2.85509e-05
2.85519e-05
2.8551e-05
2.85153e-05
2.85233e-05
2.85587e-05
2.85598e-05
2.85587e-05
2.85571e-05
2.85551e-05
2.85525e-05
2.85495e-05
2.85461e-05
2.85423e-05
2.85382e-05
2.8534e-05
2.85298e-05
2.85258e-05
2.85228e-05
2.85228e-05
2.85259e-05
2.853e-05
2.85343e-05
2.85386e-05
2.85427e-05
2.85465e-05
2.85499e-05
2.85528e-05
2.85552e-05
2.85572e-05
2.85589e-05
2.85603e-05
2.85595e-05
2.85238e-05
2.85335e-05
2.85689e-05
2.85698e-05
2.85684e-05
2.85665e-05
2.85639e-05
2.85608e-05
2.85571e-05
2.8553e-05
2.85484e-05
2.85437e-05
2.85387e-05
2.85336e-05
2.85288e-05
2.85252e-05
2.85252e-05
2.85288e-05
2.85336e-05
2.85388e-05
2.8544e-05
2.85489e-05
2.85535e-05
2.85575e-05
2.85609e-05
2.85638e-05
2.85664e-05
2.85685e-05
2.85702e-05
2.85695e-05
2.85338e-05
2.8546e-05
2.85813e-05
2.85819e-05
2.85802e-05
2.85778e-05
2.85747e-05
2.85709e-05
2.85665e-05
2.85616e-05
2.85562e-05
2.85505e-05
2.85445e-05
2.85383e-05
2.85325e-05
2.85282e-05
2.85282e-05
2.85324e-05
2.85382e-05
2.85444e-05
2.85507e-05
2.85566e-05
2.85619e-05
2.85666e-05
2.85708e-05
2.85744e-05
2.85776e-05
2.85802e-05
2.85821e-05
2.85814e-05
2.8546e-05
2.8561e-05
2.85962e-05
2.85966e-05
2.85945e-05
2.85916e-05
2.85878e-05
2.85833e-05
2.85781e-05
2.85722e-05
2.85658e-05
2.85589e-05
2.85516e-05
2.85442e-05
2.85372e-05
2.85322e-05
2.85321e-05
2.85371e-05
2.8544e-05
2.85515e-05
2.8559e-05
2.8566e-05
2.85724e-05
2.85781e-05
2.85831e-05
2.85876e-05
2.85914e-05
2.85944e-05
2.85964e-05
2.85959e-05
2.85608e-05
2.85792e-05
2.86141e-05
2.86142e-05
2.86117e-05
2.86082e-05
2.86038e-05
2.85985e-05
2.85922e-05
2.85852e-05
2.85775e-05
2.85692e-05
2.85604e-05
2.85516e-05
2.85433e-05
2.85374e-05
2.85374e-05
2.85433e-05
2.85516e-05
2.85606e-05
2.85695e-05
2.85779e-05
2.85855e-05
2.85923e-05
2.85984e-05
2.86038e-05
2.86082e-05
2.86114e-05
2.86137e-05
2.86135e-05
2.85787e-05
2.86011e-05
2.86357e-05
2.86355e-05
2.86325e-05
2.86283e-05
2.86231e-05
2.86168e-05
2.86095e-05
2.86012e-05
2.8592e-05
2.8582e-05
2.85715e-05
2.8561e-05
2.85514e-05
2.85445e-05
2.85445e-05
2.85514e-05
2.85612e-05
2.85719e-05
2.85825e-05
2.85925e-05
2.86016e-05
2.86099e-05
2.86172e-05
2.86235e-05
2.86285e-05
2.86322e-05
2.8635e-05
2.8635e-05
2.86006e-05
2.86275e-05
2.86616e-05
2.8661e-05
2.86574e-05
2.86526e-05
2.86464e-05
2.86391e-05
2.86305e-05
2.86207e-05
2.86098e-05
2.8598e-05
2.85856e-05
2.85731e-05
2.85618e-05
2.85539e-05
2.85539e-05
2.85618e-05
2.85733e-05
2.85859e-05
2.85984e-05
2.86102e-05
2.86213e-05
2.86313e-05
2.864e-05
2.86472e-05
2.86531e-05
2.86576e-05
2.8661e-05
2.86614e-05
2.86276e-05
2.86591e-05
2.86927e-05
2.86917e-05
2.86875e-05
2.86819e-05
2.86748e-05
2.86662e-05
2.86561e-05
2.86446e-05
2.86317e-05
2.86177e-05
2.8603e-05
2.85883e-05
2.8575e-05
2.85658e-05
2.85658e-05
2.8575e-05
2.85883e-05
2.8603e-05
2.86178e-05
2.86319e-05
2.86451e-05
2.8657e-05
2.86672e-05
2.86757e-05
2.86828e-05
2.86883e-05
2.86924e-05
2.86935e-05
2.86602e-05
2.86971e-05
2.87302e-05
2.87287e-05
2.87239e-05
2.87173e-05
2.8709e-05
2.8699e-05
2.86871e-05
2.86736e-05
2.86583e-05
2.86417e-05
2.86243e-05
2.8607e-05
2.85915e-05
2.8581e-05
2.8581e-05
2.85915e-05
2.86069e-05
2.8624e-05
2.86413e-05
2.86581e-05
2.86736e-05
2.86875e-05
2.86994e-05
2.87096e-05
2.87182e-05
2.87249e-05
2.87299e-05
2.87317e-05
2.86987e-05
2.87424e-05
2.87751e-05
2.87731e-05
2.87675e-05
2.87598e-05
2.87502e-05
2.87384e-05
2.87246e-05
2.87086e-05
2.86907e-05
2.86711e-05
2.86506e-05
2.86303e-05
2.86124e-05
2.86004e-05
2.86004e-05
2.86124e-05
2.863e-05
2.86499e-05
2.86702e-05
2.86898e-05
2.87079e-05
2.8724e-05
2.87381e-05
2.87501e-05
2.87602e-05
2.87681e-05
2.87743e-05
2.87767e-05
2.8744e-05
2.87964e-05
2.88285e-05
2.8826e-05
2.88195e-05
2.88107e-05
2.87995e-05
2.87858e-05
2.87696e-05
2.87509e-05
2.87299e-05
2.87071e-05
2.86832e-05
2.86598e-05
2.86393e-05
2.86256e-05
2.86256e-05
2.86391e-05
2.86593e-05
2.86823e-05
2.8706e-05
2.87287e-05
2.87495e-05
2.87683e-05
2.87848e-05
2.87988e-05
2.88104e-05
2.88196e-05
2.88266e-05
2.88293e-05
2.87974e-05
2.88604e-05
2.88916e-05
2.88885e-05
2.88811e-05
2.8871e-05
2.88582e-05
2.88424e-05
2.88237e-05
2.88022e-05
2.8778e-05
2.87517e-05
2.87243e-05
2.86976e-05
2.86743e-05
2.86588e-05
2.86587e-05
2.8674e-05
2.86972e-05
2.87237e-05
2.87509e-05
2.8777e-05
2.88009e-05
2.88226e-05
2.88414e-05
2.88573e-05
2.88705e-05
2.88807e-05
2.88882e-05
2.88911e-05
2.88601e-05
2.89356e-05
2.89657e-05
2.89621e-05
2.89539e-05
2.89425e-05
2.8928e-05
2.89102e-05
2.88891e-05
2.88647e-05
2.88372e-05
2.88074e-05
2.87763e-05
2.8746e-05
2.87197e-05
2.87024e-05
2.87024e-05
2.87199e-05
2.87462e-05
2.87764e-05
2.88073e-05
2.8837e-05
2.88642e-05
2.88888e-05
2.89099e-05
2.89276e-05
2.89423e-05
2.89534e-05
2.89611e-05
2.89642e-05
2.89344e-05
2.90236e-05
2.90523e-05
2.90483e-05
2.90394e-05
2.9027e-05
2.90111e-05
2.89916e-05
2.89682e-05
2.89409e-05
2.89102e-05
2.88767e-05
2.88418e-05
2.8808e-05
2.87787e-05
2.87595e-05
2.87597e-05
2.87792e-05
2.88087e-05
2.88425e-05
2.88772e-05
2.89108e-05
2.89413e-05
2.89688e-05
2.89922e-05
2.90117e-05
2.90277e-05
2.90395e-05
2.90475e-05
2.90508e-05
2.90224e-05
2.9126e-05
2.91531e-05
2.91489e-05
2.91396e-05
2.91268e-05
2.911e-05
2.90889e-05
2.90634e-05
2.90336e-05
2.89997e-05
2.89628e-05
2.89243e-05
2.88869e-05
2.88545e-05
2.88329e-05
2.8833e-05
2.88545e-05
2.88871e-05
2.89247e-05
2.89633e-05
2.90008e-05
2.90345e-05
2.90645e-05
2.90901e-05
2.91112e-05
2.9128e-05
2.91403e-05
2.91488e-05
2.91523e-05
2.91257e-05
2.92443e-05
2.92698e-05
2.92658e-05
2.92568e-05
2.9244e-05
2.92267e-05
2.92047e-05
2.91776e-05
2.91457e-05
2.91093e-05
2.90692e-05
2.90272e-05
2.8986e-05
2.89501e-05
2.89261e-05
2.8926e-05
2.89496e-05
2.89854e-05
2.90266e-05
2.90688e-05
2.91096e-05
2.91459e-05
2.91784e-05
2.92057e-05
2.92276e-05
2.92448e-05
2.92575e-05
2.92661e-05
2.927e-05
2.92451e-05
2.93803e-05
2.94042e-05
2.94011e-05
2.93929e-05
2.93808e-05
2.93639e-05
2.93418e-05
2.93142e-05
2.92811e-05
2.92428e-05
2.91999e-05
2.91545e-05
2.91098e-05
2.90708e-05
2.90448e-05
2.90446e-05
2.907e-05
2.91086e-05
2.91531e-05
2.91983e-05
2.92418e-05
2.92801e-05
2.93141e-05
2.93419e-05
2.93638e-05
2.93808e-05
2.93931e-05
2.94013e-05
2.9405e-05
2.93816e-05
2.95356e-05
2.95584e-05
2.95566e-05
2.95501e-05
2.95397e-05
2.95247e-05
2.9504e-05
2.94771e-05
2.94439e-05
2.94046e-05
2.93601e-05
2.93126e-05
2.92653e-05
2.92236e-05
2.91957e-05
2.91954e-05
2.92227e-05
2.9264e-05
2.93113e-05
2.93586e-05
2.94032e-05
2.94421e-05
2.9476e-05
2.9503e-05
2.95237e-05
2.95392e-05
2.95498e-05
2.95566e-05
2.95595e-05
2.95369e-05
2.97129e-05
2.97352e-05
2.97347e-05
2.97308e-05
2.97237e-05
2.97122e-05
2.96947e-05
2.96703e-05
2.96388e-05
2.96007e-05
2.95567e-05
2.95085e-05
2.94598e-05
2.94164e-05
2.93876e-05
2.93877e-05
2.94165e-05
2.94594e-05
2.95077e-05
2.95555e-05
2.95996e-05
2.96377e-05
2.96691e-05
2.96934e-05
2.9711e-05
2.97231e-05
2.97304e-05
2.97349e-05
2.97363e-05
2.97137e-05
2.99149e-05
2.99362e-05
2.99383e-05
2.99384e-05
2.99359e-05
2.99298e-05
2.99181e-05
2.98991e-05
2.98726e-05
2.98382e-05
2.97969e-05
2.97502e-05
2.97026e-05
2.96596e-05
2.96308e-05
2.96304e-05
2.96594e-05
2.97027e-05
2.97505e-05
2.9797e-05
2.9838e-05
2.98723e-05
2.98986e-05
2.99173e-05
2.9929e-05
2.99352e-05
2.9938e-05
2.99391e-05
2.99372e-05
2.99153e-05
3.01413e-05
3.01626e-05
3.01692e-05
3.01755e-05
3.01805e-05
3.01825e-05
3.01799e-05
3.01703e-05
3.01523e-05
3.01255e-05
3.00912e-05
3.00498e-05
3.00055e-05
2.99639e-05
2.99361e-05
2.99359e-05
2.99642e-05
3.00057e-05
3.00502e-05
3.00919e-05
3.01259e-05
3.0152e-05
3.01696e-05
3.01789e-05
3.01817e-05
3.01797e-05
3.0175e-05
3.01696e-05
3.01629e-05
3.01416e-05
3.0391e-05
3.0414e-05
3.04281e-05
3.04442e-05
3.04615e-05
3.04761e-05
3.04869e-05
3.04915e-05
3.04878e-05
3.04753e-05
3.04535e-05
3.04229e-05
3.03869e-05
3.03518e-05
3.03286e-05
3.03285e-05
3.03519e-05
3.03872e-05
3.04232e-05
3.04537e-05
3.04758e-05
3.04878e-05
3.04915e-05
3.04863e-05
3.04754e-05
3.04609e-05
3.04443e-05
3.04286e-05
3.04139e-05
3.0391e-05
3.0666e-05
3.06965e-05
3.07225e-05
3.07535e-05
3.07899e-05
3.08256e-05
3.08607e-05
3.08904e-05
3.09129e-05
3.09321e-05
3.09433e-05
3.09494e-05
3.09598e-05
3.09701e-05
3.099e-05
3.099e-05
3.09703e-05
3.09598e-05
3.09499e-05
3.09439e-05
3.09325e-05
3.09129e-05
3.08908e-05
3.08603e-05
3.08252e-05
3.07897e-05
3.0754e-05
3.07227e-05
3.06967e-05
3.06663e-05
3.09999e-05
3.10462e-05
3.10942e-05
3.11547e-05
3.12257e-05
3.13107e-05
3.14058e-05
3.15195e-05
3.16489e-05
3.18302e-05
3.20747e-05
3.24025e-05
3.28599e-05
3.33954e-05
3.39598e-05
3.3959e-05
3.3396e-05
3.28605e-05
3.24039e-05
3.2077e-05
3.18321e-05
3.16501e-05
3.15199e-05
3.14053e-05
3.13104e-05
3.12252e-05
3.11547e-05
3.10934e-05
3.10453e-05
3.09998e-05
3.14727e-05
3.15543e-05
3.16769e-05
3.18411e-05
3.20555e-05
3.23675e-05
3.28082e-05
3.34696e-05
3.44182e-05
3.59243e-05
3.82916e-05
4.17636e-05
4.62089e-05
5.1378e-05
5.66253e-05
5.66221e-05
5.13814e-05
4.62237e-05
4.17896e-05
3.83189e-05
3.59443e-05
3.44315e-05
3.34778e-05
3.28115e-05
3.23676e-05
3.20537e-05
3.18393e-05
3.16746e-05
3.15514e-05
3.14688e-05
3.23621e-05
3.25894e-05
3.31175e-05
3.38545e-05
3.49565e-05
3.66936e-05
3.95153e-05
4.39168e-05
5.07187e-05
6.07225e-05
7.6624e-05
9.96423e-05
0.000127913
0.000157496
0.000185389
0.000185395
0.000157532
0.000128055
9.98509e-05
7.68203e-05
6.08647e-05
5.08129e-05
4.39777e-05
3.95483e-05
3.67052e-05
3.49533e-05
3.38457e-05
3.31074e-05
3.25713e-05
3.23393e-05
3.57322e-05
3.68482e-05
3.97086e-05
4.34165e-05
4.93011e-05
5.8698e-05
7.44868e-05
9.92018e-05
0.000135982
0.000187011
0.000265298
0.000372787
0.000496101
0.000615249
0.000711986
0.000712102
0.000615557
0.000496887
0.000373858
0.000266332
0.000187765
0.000136512
9.95571e-05
7.47089e-05
5.88238e-05
4.93371e-05
4.34085e-05
3.96849e-05
3.67777e-05
3.56472e-05
6.26135e-05
8.29941e-05
0.000110013
0.000152837
0.000216279
0.000306103
0.000432627
0.000598437
0.000805309
0.00105528
0.00134448
0.00163757
0.00190694
0.00212691
0.0022803
0.00228075
0.00212811
0.00190931
0.00164099
0.00134832
0.00105883
0.000808274
0.000600757
0.000434321
0.000307295
0.00021709
0.000153327
0.000110219
8.29759e-05
6.24795e-05
9.84829e-05
0.000127919
0.000180801
0.000253163
0.000352349
0.000488421
0.000659674
0.000871395
0.00112961
0.00143852
0.00178866
0.00214269
0.00244351
0.00266234
0.00281568
0.00281665
0.00266381
0.00244692
0.00214793
0.00179485
0.00144436
0.00113451
0.00087517
0.000662543
0.000490581
0.000353802
0.000254092
0.000181213
0.000127945
9.82383e-05
0.000131021
0.000158344
0.000224212
0.000323312
0.000451609
0.000603204
0.000774613
0.000970586
0.00120506
0.00148396
0.00180345
0.00212978
0.00241963
0.00263084
0.00278592
0.00278732
0.00263314
0.00242399
0.00213661
0.00181152
0.00149162
0.00121156
0.000975678
0.000778573
0.000606399
0.000454049
0.000325084
0.000224956
0.000158481
0.000131111
0.000153661
0.000171306
0.000217539
0.000304573
0.000446197
0.000621216
0.000814397
0.00101786
0.00123352
0.00146556
0.00173148
0.00201565
0.00227419
0.00246125
0.00260279
0.00260429
0.00246436
0.00227965
0.00202284
0.00173924
0.00147293
0.00124026
0.00102379
0.000819191
0.000625
0.000449432
0.000307059
0.000218336
0.000171281
0.000154024
0.000154105
0.000165675
0.000191358
0.000244577
0.000342021
0.000501464
0.00071164
0.000942008
0.00117148
0.00139849
0.00163558
0.00186405
0.00207536
0.00222008
0.00232568
0.00232726
0.00222328
0.0020806
0.00187094
0.00164289
0.00140571
0.00117825
0.000948269
0.000716982
0.000505511
0.000344465
0.000246181
0.000191955
0.000165549
0.000154325
0.000146311
0.000153683
0.000165459
0.000190719
0.000239034
0.000324823
0.000467027
0.00068014
0.000924086
0.00118634
0.00146295
0.00171658
0.00192152
0.00204654
0.00212381
0.00212496
0.00204877
0.00192553
0.00172231
0.00146952
0.00119244
0.000929651
0.000685462
0.000471176
0.000327615
0.000240712
0.000191563
0.000165783
0.000153619
0.000146347
0.000136218
0.000140632
0.000145044
0.000155012
0.00017361
0.000207156
0.000268436
0.000376006
0.00053709
0.000773544
0.00107887
0.00139828
0.0016702
0.00185215
0.00196333
0.00196428
0.00185378
0.00167358
0.00140347
0.00108464
0.000778816
0.000541423
0.000379268
0.000270531
0.000208435
0.000174489
0.00015546
0.000145357
0.000140808
0.00013626
0.000126573
0.000128885
0.000130506
0.000134332
0.00014079
0.000151803
0.000171249
0.000207151
0.000269322
0.000380432
0.000579916
0.000876422
0.00118542
0.00144197
0.00162341
0.00162415
0.00144273
0.00118738
0.000879567
0.000582958
0.000382693
0.000270958
0.000208185
0.00017192
0.00015225
0.000141219
0.000134609
0.00013069
0.000129106
0.000126652
0.00011818
0.000119268
0.000119822
0.000121655
0.000124344
0.000128138
0.000133893
0.000143321
0.000159849
0.000191862
0.000260389
0.000398281
0.000607991
0.000842115
0.00104848
0.00104903
0.000842411
0.000608868
0.000399462
0.000261313
0.000192459
0.000160293
0.000143642
0.000133995
0.000128265
0.000124528
0.00012186
0.00011996
0.000119317
0.000118261
0.000110504
0.000110727
0.000111088
0.000112128
0.00011363
0.000115409
0.00011762
0.000120419
0.000124581
0.000131731
0.000147001
0.000181807
0.000248896
0.000354377
0.00047437
0.000474523
0.000354367
0.000249173
0.00018205
0.000147194
0.000131822
0.000124653
0.00012057
0.000117727
0.000115559
0.000113836
0.000112296
0.000111154
0.00011081
0.000110569
0.000103174
0.000102706
0.000102842
0.00010365
0.000104614
0.000105746
0.000106966
0.000108206
0.000109518
0.000111168
0.000114065
0.00012025
0.000132905
0.000155971
0.000187768
0.000187705
0.000155988
0.000133135
0.000120424
0.000114186
0.000111202
0.000109579
0.000108311
0.000107081
0.000105912
0.000104813
0.000103727
0.000102959
0.000102805
0.000103054
9.55696e-05
9.51376e-05
9.50819e-05
9.55584e-05
9.62507e-05
9.70217e-05
9.77266e-05
9.83344e-05
9.87855e-05
9.90921e-05
9.93571e-05
9.99775e-05
0.000101594
0.000104757
0.000109384
0.000109349
0.000104833
0.000101763
0.000100071
9.93291e-05
9.89599e-05
9.86981e-05
9.83138e-05
9.77262e-05
9.71143e-05
9.63903e-05
9.56475e-05
9.51151e-05
9.51407e-05
9.57104e-05
8.85961e-05
8.76388e-05
8.74692e-05
8.7884e-05
8.82507e-05
8.86518e-05
8.89709e-05
8.91395e-05
8.90807e-05
8.87405e-05
8.82317e-05
8.77739e-05
8.74475e-05
8.73371e-05
8.7535e-05
8.75422e-05
8.73879e-05
8.75064e-05
8.78539e-05
8.83344e-05
8.87883e-05
8.91007e-05
8.91823e-05
8.90115e-05
8.87414e-05
8.83801e-05
8.79913e-05
8.76483e-05
8.77807e-05
8.85621e-05
8.16028e-05
8.0712e-05
8.05033e-05
8.06314e-05
8.08188e-05
8.09424e-05
8.09462e-05
8.07234e-05
8.02629e-05
7.95958e-05
7.87881e-05
7.78859e-05
7.69537e-05
7.62133e-05
7.57854e-05
7.58161e-05
7.6316e-05
7.70571e-05
7.79572e-05
7.88888e-05
7.96998e-05
8.03143e-05
8.07164e-05
8.09619e-05
8.10361e-05
8.09201e-05
8.07161e-05
8.05605e-05
8.08091e-05
8.16905e-05
7.51119e-05
7.42002e-05
7.39781e-05
7.39287e-05
7.39542e-05
7.38539e-05
7.36023e-05
7.31531e-05
7.24765e-05
7.15769e-05
7.0502e-05
6.93432e-05
6.82142e-05
6.72788e-05
6.66756e-05
6.6674e-05
6.72877e-05
6.82249e-05
6.93575e-05
7.05553e-05
7.16428e-05
7.25334e-05
7.31923e-05
7.36354e-05
7.38871e-05
7.39931e-05
7.39962e-05
7.39911e-05
7.4284e-05
7.51864e-05
6.91212e-05
6.81732e-05
6.78181e-05
6.77766e-05
6.76507e-05
6.74078e-05
6.69622e-05
6.63385e-05
6.55281e-05
6.44913e-05
6.32896e-05
6.20332e-05
6.08266e-05
5.98128e-05
5.91507e-05
5.91204e-05
5.97649e-05
6.08235e-05
6.20948e-05
6.33955e-05
6.45827e-05
6.55975e-05
6.64339e-05
6.70652e-05
6.74831e-05
6.77215e-05
6.78308e-05
6.7919e-05
6.82535e-05
6.91701e-05
6.35668e-05
6.27059e-05
6.23808e-05
6.22259e-05
6.19813e-05
6.16267e-05
6.11311e-05
6.04687e-05
5.95563e-05
5.83971e-05
5.71424e-05
5.58823e-05
5.46683e-05
5.36248e-05
5.29532e-05
5.29482e-05
5.36172e-05
5.46769e-05
5.59234e-05
5.72281e-05
5.84848e-05
5.96001e-05
6.05184e-05
6.12105e-05
6.16948e-05
6.20274e-05
6.2258e-05
6.24543e-05
6.2813e-05
6.37032e-05
5.87962e-05
5.77265e-05
5.74872e-05
5.72966e-05
5.70478e-05
5.66577e-05
5.60967e-05
5.53146e-05
5.43162e-05
5.31983e-05
5.20254e-05
5.07841e-05
4.95399e-05
4.84778e-05
4.78285e-05
4.78475e-05
4.85028e-05
4.95227e-05
5.07349e-05
5.20319e-05
5.32938e-05
5.44136e-05
5.53355e-05
5.60607e-05
5.66233e-05
5.70593e-05
5.73806e-05
5.76105e-05
5.79254e-05
5.87558e-05
5.4173e-05
5.3486e-05
5.32187e-05
5.30239e-05
5.27061e-05
5.22587e-05
5.1658e-05
5.08813e-05
4.99613e-05
4.8925e-05
4.77557e-05
4.6493e-05
4.52886e-05
4.43249e-05
4.37584e-05
4.378e-05
4.43774e-05
4.53313e-05
4.64913e-05
4.77422e-05
4.89587e-05
5.00397e-05
5.09388e-05
5.16711e-05
5.22682e-05
5.27388e-05
5.30688e-05
5.32843e-05
5.35633e-05
5.43476e-05
5.04172e-05
4.97871e-05
4.94874e-05
4.92143e-05
4.88661e-05
4.84389e-05
4.78668e-05
4.71564e-05
4.63068e-05
4.52899e-05
4.41371e-05
4.2957e-05
4.18835e-05
4.10219e-05
4.04868e-05
4.0475e-05
4.10179e-05
4.1925e-05
4.30352e-05
4.421e-05
4.53331e-05
4.6335e-05
4.71907e-05
4.79097e-05
4.8501e-05
4.8957e-05
4.92735e-05
4.94897e-05
4.97585e-05
5.0485e-05
4.7205e-05
4.64141e-05
4.61931e-05
4.59336e-05
4.56387e-05
4.52336e-05
4.46967e-05
4.40405e-05
4.32244e-05
4.22501e-05
4.11989e-05
4.01562e-05
3.91921e-05
3.83866e-05
3.78716e-05
3.78544e-05
3.83679e-05
3.92215e-05
4.02453e-05
4.1303e-05
4.23075e-05
4.32227e-05
4.40304e-05
4.47177e-05
4.52746e-05
4.56994e-05
4.6003e-05
4.62217e-05
4.64725e-05
4.71217e-05
4.4077e-05
4.3566e-05
4.33394e-05
4.31568e-05
4.29068e-05
4.2508e-05
4.20116e-05
4.13951e-05
4.06314e-05
3.97656e-05
3.88562e-05
3.7933e-05
3.70413e-05
3.62808e-05
3.5802e-05
3.57964e-05
3.62725e-05
3.70434e-05
3.79542e-05
3.88918e-05
3.97929e-05
4.06301e-05
4.13778e-05
4.20117e-05
4.25196e-05
4.29081e-05
4.31946e-05
4.34079e-05
4.36382e-05
4.42143e-05
4.1621e-05
4.11595e-05
4.09596e-05
4.07992e-05
4.05218e-05
4.01455e-05
3.96988e-05
3.91383e-05
3.84762e-05
3.77431e-05
3.69448e-05
3.60943e-05
3.52595e-05
3.45616e-05
3.41388e-05
3.41521e-05
3.4586e-05
3.52678e-05
3.60708e-05
3.69061e-05
3.77196e-05
3.84788e-05
3.91543e-05
3.9723e-05
4.01782e-05
4.05316e-05
4.08021e-05
4.10111e-05
4.12229e-05
4.17245e-05
3.95724e-05
3.90356e-05
3.89289e-05
3.87624e-05
3.84982e-05
3.81886e-05
3.77903e-05
3.72938e-05
3.67253e-05
3.60802e-05
3.53522e-05
3.4579e-05
3.38441e-05
3.32486e-05
3.28935e-05
3.29137e-05
3.32889e-05
3.38728e-05
3.45688e-05
3.53061e-05
3.60339e-05
3.67132e-05
3.73138e-05
3.78182e-05
3.82252e-05
3.85476e-05
3.88003e-05
3.8995e-05
3.91767e-05
3.95926e-05
3.76203e-05
3.73315e-05
3.72116e-05
3.70461e-05
3.68393e-05
3.65713e-05
3.62027e-05
3.5764e-05
3.52624e-05
3.46805e-05
3.40324e-05
3.33696e-05
3.2752e-05
3.22421e-05
3.1922e-05
3.19232e-05
3.22384e-05
3.27462e-05
3.33633e-05
3.40234e-05
3.46735e-05
3.52733e-05
3.57988e-05
3.62407e-05
3.66021e-05
3.68917e-05
3.71166e-05
3.72829e-05
3.74268e-05
3.7764e-05
3.61588e-05
3.59611e-05
3.58002e-05
3.5643e-05
3.54596e-05
3.51937e-05
3.48604e-05
3.44814e-05
3.40417e-05
3.35345e-05
3.29861e-05
3.24318e-05
3.1901e-05
3.14393e-05
3.1137e-05
3.11273e-05
3.14106e-05
3.18751e-05
3.2431e-05
3.30126e-05
3.35726e-05
3.40821e-05
3.45292e-05
3.49114e-05
3.52298e-05
3.54854e-05
3.56793e-05
3.58173e-05
3.59331e-05
3.62109e-05
3.4982e-05
3.46841e-05
3.45695e-05
3.4436e-05
3.42598e-05
3.40235e-05
3.37506e-05
3.34335e-05
3.30583e-05
3.26327e-05
3.21748e-05
3.16993e-05
3.12283e-05
3.08121e-05
3.05429e-05
3.05403e-05
3.0802e-05
3.12169e-05
3.16967e-05
3.21854e-05
3.26508e-05
3.30777e-05
3.34605e-05
3.37949e-05
3.40756e-05
3.42982e-05
3.44639e-05
3.45813e-05
3.46796e-05
3.4908e-05
3.37873e-05
3.35794e-05
3.35018e-05
3.33994e-05
3.32535e-05
3.30725e-05
3.28517e-05
3.25794e-05
3.22583e-05
3.1898e-05
3.15027e-05
3.10821e-05
3.0666e-05
3.03075e-05
3.00825e-05
3.00848e-05
3.03143e-05
3.06707e-05
3.10758e-05
3.14873e-05
3.18847e-05
3.22565e-05
3.25931e-05
3.28848e-05
3.31244e-05
3.33107e-05
3.34491e-05
3.35498e-05
3.36341e-05
3.3816e-05
3.2831e-05
3.27437e-05
3.26603e-05
3.25757e-05
3.24583e-05
3.23058e-05
3.21062e-05
3.18638e-05
3.1588e-05
3.128e-05
3.09382e-05
3.05754e-05
3.02235e-05
2.99256e-05
2.97384e-05
2.97359e-05
2.99251e-05
3.02267e-05
3.05729e-05
3.09308e-05
3.12809e-05
3.1607e-05
3.18954e-05
3.21371e-05
3.23292e-05
3.24779e-05
3.25927e-05
3.26816e-05
3.2756e-05
3.28986e-05
3.21409e-05
3.20274e-05
3.19626e-05
3.18864e-05
3.17824e-05
3.16408e-05
3.14657e-05
3.1264e-05
3.10371e-05
3.07817e-05
3.04997e-05
3.0204e-05
2.9917e-05
2.9668e-05
2.95012e-05
2.94888e-05
2.96389e-05
2.98887e-05
3.01846e-05
3.0495e-05
3.0797e-05
3.10719e-05
3.13069e-05
3.14977e-05
3.16487e-05
3.17695e-05
3.187e-05
3.19531e-05
3.20212e-05
3.21318e-05
3.14886e-05
3.13677e-05
3.13358e-05
3.12729e-05
3.11821e-05
3.10669e-05
3.09342e-05
3.07789e-05
3.0596e-05
3.03867e-05
3.01578e-05
2.99197e-05
2.96838e-05
2.94686e-05
2.93162e-05
2.92977e-05
2.94148e-05
2.96186e-05
2.98696e-05
3.01347e-05
3.03885e-05
3.06146e-05
3.08048e-05
3.09583e-05
3.10833e-05
3.11891e-05
3.12809e-05
3.13568e-05
3.14144e-05
3.14925e-05
3.09009e-05
3.08566e-05
3.08329e-05
3.07828e-05
3.0709e-05
3.06231e-05
3.05214e-05
3.03941e-05
3.02386e-05
3.00607e-05
2.98699e-05
2.96723e-05
2.94724e-05
2.92859e-05
2.91506e-05
2.91328e-05
2.9235e-05
2.94077e-05
2.96203e-05
2.98436e-05
3.00547e-05
3.02413e-05
3.0399e-05
3.05293e-05