/*--------------------------------*- C++ -*----------------------------------*\
| =========                 |                                                 |
| \\      /  F ield         | OpenFOAM: The Open Source CFD Toolbox           |
|  \\    /   O peration     | Version:  2312                                  |
|   \\  /    A nd           | Website:  www.openfoam.com                      |
|    \\/     M anipulation  |                                                 |
\*---------------------------------------------------------------------------*/
FoamFile
{
    version     2.0;
    format      ascii;
    arch        "LSB;label=32;scalar=64";
    class       volScalarField;
    location    "0.602264";
    object      nut;
}
// * * * * * * * * * * * * * * * * * * * * * * * * * * * * * * * * * * * * * //

dimensions      [0 2 -1 0 0 0 0];

internalField   nonuniform List<scalar> 
90000
(
5.90956e-06
5.90971e-06
5.90976e-06
5.90978e-06
5.9098e-06
5.9098e-06
5.90979e-06
5.90978e-06
5.90976e-06
5.90975e-06
5.90974e-06
5.90974e-06
5.90975e-06
5.90975e-06
5.90975e-06
5.90976e-06
5.90979e-06
5.90982e-06
5.90984e-06
5.90983e-06
5.90979e-06
5.90974e-06
5.90972e-06
5.90978e-06
5.90985e-06
5.90989e-06
5.90988e-06
5.90986e-06
5.90984e-06
5.90988e-06
5.90969e-06
5.9141e-06
5.9143e-06
5.9143e-06
5.9143e-06
5.9143e-06
5.9143e-06
5.91431e-06
5.91432e-06
5.91432e-06
5.91433e-06
5.91433e-06
5.91433e-06
5.91434e-06
5.91434e-06
5.91435e-06
5.91434e-06
5.91434e-06
5.91432e-06
5.91431e-06
5.91431e-06
5.91431e-06
5.91431e-06
5.9143e-06
5.91427e-06
5.91422e-06
5.91424e-06
5.91432e-06
5.91409e-06
5.91036e-06
5.90975e-06
5.91438e-06
5.91458e-06
5.91458e-06
5.91456e-06
5.91455e-06
5.91455e-06
5.91456e-06
5.91458e-06
5.91458e-06
5.91458e-06
5.91456e-06
5.91455e-06
5.91456e-06
5.91456e-06
5.91456e-06
5.91454e-06
5.91453e-06
5.91455e-06
5.91458e-06
5.9146e-06
5.91462e-06
5.91462e-06
5.91463e-06
5.91465e-06
5.91467e-06
5.91469e-06
5.91471e-06
5.91449e-06
5.91017e-06
5.90981e-06
5.91442e-06
5.91464e-06
5.91465e-06
5.91464e-06
5.91462e-06
5.91461e-06
5.91461e-06
5.91461e-06
5.91461e-06
5.9146e-06
5.91457e-06
5.91455e-06
5.91454e-06
5.91454e-06
5.91453e-06
5.91453e-06
5.91456e-06
5.9146e-06
5.91463e-06
5.91464e-06
5.91465e-06
5.91467e-06
5.91473e-06
5.91478e-06
5.9148e-06
5.91477e-06
5.91473e-06
5.91454e-06
5.90987e-06
5.90986e-06
5.91445e-06
5.91469e-06
5.9147e-06
5.9147e-06
5.91469e-06
5.91467e-06
5.91465e-06
5.91464e-06
5.91462e-06
5.9146e-06
5.91457e-06
5.91454e-06
5.91451e-06
5.91449e-06
5.91451e-06
5.91454e-06
5.91458e-06
5.91461e-06
5.91462e-06
5.91463e-06
5.91466e-06
5.91471e-06
5.91477e-06
5.9148e-06
5.9148e-06
5.91476e-06
5.91463e-06
5.91455e-06
5.90987e-06
5.9099e-06
5.91448e-06
5.91472e-06
5.91473e-06
5.91474e-06
5.91473e-06
5.91472e-06
5.9147e-06
5.91466e-06
5.91462e-06
5.91458e-06
5.91455e-06
5.91453e-06
5.91451e-06
5.91451e-06
5.91451e-06
5.91454e-06
5.91456e-06
5.91458e-06
5.91461e-06
5.91464e-06
5.91468e-06
5.91472e-06
5.91474e-06
5.91474e-06
5.91474e-06
5.91477e-06
5.91478e-06
5.91466e-06
5.90997e-06
5.90993e-06
5.91451e-06
5.91473e-06
5.91474e-06
5.91475e-06
5.91475e-06
5.91475e-06
5.91473e-06
5.91469e-06
5.91463e-06
5.91458e-06
5.91454e-06
5.91453e-06
5.91453e-06
5.91453e-06
5.91452e-06
5.91452e-06
5.91453e-06
5.91456e-06
5.91462e-06
5.91467e-06
5.9147e-06
5.91471e-06
5.9147e-06
5.91472e-06
5.91479e-06
5.91488e-06
5.91492e-06
5.91474e-06
5.91004e-06
5.90996e-06
5.91454e-06
5.91474e-06
5.91474e-06
5.91475e-06
5.91476e-06
5.91476e-06
5.91475e-06
5.91472e-06
5.91467e-06
5.91461e-06
5.91455e-06
5.91454e-06
5.91454e-06
5.91454e-06
5.91453e-06
5.91452e-06
5.91452e-06
5.91457e-06
5.91464e-06
5.91468e-06
5.9147e-06
5.91469e-06
5.91471e-06
5.91479e-06
5.91487e-06
5.91496e-06
5.91499e-06
5.91478e-06
5.9101e-06
5.91e-06
5.91456e-06
5.91477e-06
5.91477e-06
5.91476e-06
5.91477e-06
5.91478e-06
5.91477e-06
5.91475e-06
5.91471e-06
5.91466e-06
5.91461e-06
5.91457e-06
5.91456e-06
5.91456e-06
5.91457e-06
5.91458e-06
5.91461e-06
5.91464e-06
5.91467e-06
5.91468e-06
5.91468e-06
5.9147e-06
5.91476e-06
5.91484e-06
5.91492e-06
5.91499e-06
5.91502e-06
5.91479e-06
5.91016e-06
5.91007e-06
5.91459e-06
5.91481e-06
5.9148e-06
5.91479e-06
5.91478e-06
5.91478e-06
5.91478e-06
5.91478e-06
5.91476e-06
5.91473e-06
5.91469e-06
5.91463e-06
5.91459e-06
5.91457e-06
5.91461e-06
5.91467e-06
5.91472e-06
5.91474e-06
5.91474e-06
5.91473e-06
5.91471e-06
5.91474e-06
5.9148e-06
5.91487e-06
5.91495e-06
5.91501e-06
5.91504e-06
5.91482e-06
5.91022e-06
5.91016e-06
5.91463e-06
5.91486e-06
5.91485e-06
5.91483e-06
5.91481e-06
5.91479e-06
5.91479e-06
5.91479e-06
5.91479e-06
5.91478e-06
5.91475e-06
5.91469e-06
5.91463e-06
5.91459e-06
5.91463e-06
5.91471e-06
5.91477e-06
5.91481e-06
5.91481e-06
5.91479e-06
5.91476e-06
5.91477e-06
5.91483e-06
5.9149e-06
5.91497e-06
5.91503e-06
5.91507e-06
5.91485e-06
5.91026e-06
5.91026e-06
5.91471e-06
5.91494e-06
5.91494e-06
5.91492e-06
5.91491e-06
5.91488e-06
5.91486e-06
5.91484e-06
5.91482e-06
5.9148e-06
5.91478e-06
5.91474e-06
5.91468e-06
5.91461e-06
5.91462e-06
5.91469e-06
5.91476e-06
5.9148e-06
5.9148e-06
5.91479e-06
5.91477e-06
5.91479e-06
5.91486e-06
5.91494e-06
5.91501e-06
5.91507e-06
5.9151e-06
5.91488e-06
5.9103e-06
5.91035e-06
5.91484e-06
5.91507e-06
5.91507e-06
5.91507e-06
5.91507e-06
5.91505e-06
5.91501e-06
5.91496e-06
5.91489e-06
5.91484e-06
5.9148e-06
5.91477e-06
5.91473e-06
5.91468e-06
5.91465e-06
5.91468e-06
5.91471e-06
5.91472e-06
5.91473e-06
5.91474e-06
5.91477e-06
5.91483e-06
5.91491e-06
5.91499e-06
5.91506e-06
5.91511e-06
5.91513e-06
5.91491e-06
5.91036e-06
5.91045e-06
5.915e-06
5.91523e-06
5.91524e-06
5.91525e-06
5.91525e-06
5.91522e-06
5.91517e-06
5.91508e-06
5.91497e-06
5.91488e-06
5.91481e-06
5.91478e-06
5.91476e-06
5.91474e-06
5.91472e-06
5.91471e-06
5.9147e-06
5.9147e-06
5.91472e-06
5.91478e-06
5.91485e-06
5.91492e-06
5.91499e-06
5.91506e-06
5.91512e-06
5.91516e-06
5.91519e-06
5.91497e-06
5.91047e-06
5.91056e-06
5.91519e-06
5.91542e-06
5.91543e-06
5.91543e-06
5.9154e-06
5.91535e-06
5.91526e-06
5.91515e-06
5.91503e-06
5.91491e-06
5.91482e-06
5.91478e-06
5.91477e-06
5.91477e-06
5.91476e-06
5.91476e-06
5.91476e-06
5.91479e-06
5.91485e-06
5.91492e-06
5.91498e-06
5.91505e-06
5.91511e-06
5.91517e-06
5.91522e-06
5.91526e-06
5.91529e-06
5.91511e-06
5.91064e-06
5.91072e-06
5.91544e-06
5.91565e-06
5.91563e-06
5.91559e-06
5.91552e-06
5.91542e-06
5.91531e-06
5.91519e-06
5.91508e-06
5.91497e-06
5.91486e-06
5.91479e-06
5.91477e-06
5.91477e-06
5.91478e-06
5.91481e-06
5.91486e-06
5.91492e-06
5.915e-06
5.91508e-06
5.91515e-06
5.91521e-06
5.91527e-06
5.91532e-06
5.91537e-06
5.91543e-06
5.9155e-06
5.91536e-06
5.91086e-06
5.91098e-06
5.91574e-06
5.91591e-06
5.91585e-06
5.91576e-06
5.91564e-06
5.91551e-06
5.91538e-06
5.91527e-06
5.91517e-06
5.91506e-06
5.91494e-06
5.91485e-06
5.91479e-06
5.91477e-06
5.91479e-06
5.91486e-06
5.91495e-06
5.91506e-06
5.91515e-06
5.91525e-06
5.91533e-06
5.9154e-06
5.91546e-06
5.91552e-06
5.91559e-06
5.91569e-06
5.9158e-06
5.91564e-06
5.9111e-06
5.91131e-06
5.91604e-06
5.91618e-06
5.9161e-06
5.91598e-06
5.91584e-06
5.91569e-06
5.91554e-06
5.91542e-06
5.91531e-06
5.91519e-06
5.91506e-06
5.91493e-06
5.91482e-06
5.91476e-06
5.91479e-06
5.9149e-06
5.91504e-06
5.91518e-06
5.91531e-06
5.91543e-06
5.91552e-06
5.9156e-06
5.91568e-06
5.91577e-06
5.91589e-06
5.91601e-06
5.91611e-06
5.91591e-06
5.91134e-06
5.91171e-06
5.91636e-06
5.9165e-06
5.91641e-06
5.91628e-06
5.91613e-06
5.91597e-06
5.91581e-06
5.91566e-06
5.91552e-06
5.91536e-06
5.9152e-06
5.91502e-06
5.91486e-06
5.91475e-06
5.91477e-06
5.91492e-06
5.91511e-06
5.9153e-06
5.91547e-06
5.91561e-06
5.91573e-06
5.91584e-06
5.91596e-06
5.91609e-06
5.91624e-06
5.91635e-06
5.91641e-06
5.91619e-06
5.91164e-06
5.91217e-06
5.91674e-06
5.91688e-06
5.91678e-06
5.91664e-06
5.91648e-06
5.91631e-06
5.91614e-06
5.91596e-06
5.91577e-06
5.91557e-06
5.91535e-06
5.91512e-06
5.91491e-06
5.91475e-06
5.91477e-06
5.91496e-06
5.9152e-06
5.91543e-06
5.91564e-06
5.91582e-06
5.91598e-06
5.91615e-06
5.91632e-06
5.91649e-06
5.91663e-06
5.91672e-06
5.91676e-06
5.91654e-06
5.91203e-06
5.9127e-06
5.91719e-06
5.91734e-06
5.91723e-06
5.91708e-06
5.91691e-06
5.91673e-06
5.91653e-06
5.91632e-06
5.91608e-06
5.91582e-06
5.91554e-06
5.91527e-06
5.91501e-06
5.91481e-06
5.91482e-06
5.91504e-06
5.91533e-06
5.9156e-06
5.91586e-06
5.9161e-06
5.91633e-06
5.91655e-06
5.91677e-06
5.91695e-06
5.91708e-06
5.91717e-06
5.91722e-06
5.91703e-06
5.91254e-06
5.91334e-06
5.91776e-06
5.91791e-06
5.91778e-06
5.91762e-06
5.91744e-06
5.91723e-06
5.917e-06
5.91674e-06
5.91645e-06
5.91613e-06
5.9158e-06
5.91547e-06
5.91516e-06
5.91493e-06
5.91493e-06
5.91518e-06
5.91551e-06
5.91584e-06
5.91617e-06
5.91648e-06
5.91677e-06
5.91705e-06
5.9173e-06
5.91749e-06
5.91763e-06
5.91774e-06
5.91783e-06
5.91767e-06
5.9132e-06
5.9141e-06
5.91847e-06
5.91861e-06
5.91848e-06
5.91829e-06
5.91808e-06
5.91785e-06
5.91757e-06
5.91726e-06
5.9169e-06
5.91652e-06
5.91613e-06
5.91574e-06
5.91537e-06
5.91508e-06
5.91506e-06
5.91535e-06
5.91574e-06
5.91615e-06
5.91656e-06
5.91695e-06
5.91731e-06
5.91764e-06
5.91791e-06
5.91813e-06
5.91831e-06
5.91847e-06
5.9186e-06
5.91846e-06
5.91402e-06
5.91502e-06
5.91935e-06
5.91949e-06
5.91933e-06
5.91913e-06
5.91889e-06
5.9186e-06
5.91827e-06
5.91789e-06
5.91746e-06
5.91701e-06
5.91654e-06
5.91607e-06
5.91561e-06
5.91526e-06
5.91524e-06
5.91559e-06
5.91606e-06
5.91655e-06
5.91705e-06
5.91752e-06
5.91795e-06
5.91833e-06
5.91865e-06
5.91892e-06
5.91915e-06
5.91935e-06
5.91951e-06
5.91939e-06
5.91496e-06
5.91613e-06
5.92044e-06
5.92057e-06
5.9204e-06
5.92017e-06
5.91988e-06
5.91954e-06
5.91913e-06
5.91866e-06
5.91816e-06
5.91762e-06
5.91706e-06
5.91648e-06
5.91593e-06
5.9155e-06
5.91548e-06
5.9159e-06
5.91646e-06
5.91705e-06
5.91765e-06
5.91821e-06
5.91872e-06
5.91916e-06
5.91954e-06
5.91987e-06
5.92016e-06
5.92042e-06
5.9206e-06
5.92048e-06
5.91606e-06
5.91749e-06
5.92179e-06
5.9219e-06
5.92171e-06
5.92145e-06
5.9211e-06
5.92068e-06
5.92019e-06
5.91963e-06
5.91904e-06
5.91839e-06
5.9177e-06
5.917e-06
5.91633e-06
5.91582e-06
5.9158e-06
5.9163e-06
5.91697e-06
5.91768e-06
5.91839e-06
5.91906e-06
5.91966e-06
5.92018e-06
5.92064e-06
5.92105e-06
5.92141e-06
5.9217e-06
5.9219e-06
5.92177e-06
5.9174e-06
5.91915e-06
5.92345e-06
5.92355e-06
5.92333e-06
5.92301e-06
5.92259e-06
5.92208e-06
5.9215e-06
5.92084e-06
5.92012e-06
5.91933e-06
5.9185e-06
5.91764e-06
5.91684e-06
5.91624e-06
5.91623e-06
5.91683e-06
5.91763e-06
5.91849e-06
5.91934e-06
5.92013e-06
5.92085e-06
5.92148e-06
5.92204e-06
5.92254e-06
5.92296e-06
5.92328e-06
5.92348e-06
5.92337e-06
5.91906e-06
5.92119e-06
5.9255e-06
5.92557e-06
5.9253e-06
5.92491e-06
5.92441e-06
5.9238e-06
5.92311e-06
5.92232e-06
5.92145e-06
5.9205e-06
5.91949e-06
5.91848e-06
5.91753e-06
5.91684e-06
5.91684e-06
5.91754e-06
5.9185e-06
5.91954e-06
5.92055e-06
5.92149e-06
5.92235e-06
5.92312e-06
5.9238e-06
5.9244e-06
5.92487e-06
5.9252e-06
5.92545e-06
5.92538e-06
5.92109e-06
5.92369e-06
5.92797e-06
5.928e-06
5.92767e-06
5.9272e-06
5.92661e-06
5.9259e-06
5.92508e-06
5.92415e-06
5.92311e-06
5.92196e-06
5.92077e-06
5.91957e-06
5.91846e-06
5.91765e-06
5.91765e-06
5.91848e-06
5.91962e-06
5.92085e-06
5.92206e-06
5.92318e-06
5.92422e-06
5.92516e-06
5.92598e-06
5.92667e-06
5.9272e-06
5.92759e-06
5.92789e-06
5.92785e-06
5.92359e-06
5.92672e-06
5.93095e-06
5.93093e-06
5.93053e-06
5.92998e-06
5.9293e-06
5.92847e-06
5.92751e-06
5.9264e-06
5.92515e-06
5.9238e-06
5.92238e-06
5.92097e-06
5.91967e-06
5.91871e-06
5.91871e-06
5.91968e-06
5.92102e-06
5.92246e-06
5.9239e-06
5.92525e-06
5.92651e-06
5.92765e-06
5.92862e-06
5.92943e-06
5.93006e-06
5.93055e-06
5.93092e-06
5.9309e-06
5.9267e-06
5.93037e-06
5.93455e-06
5.93447e-06
5.934e-06
5.93336e-06
5.93256e-06
5.93159e-06
5.93046e-06
5.92914e-06
5.92766e-06
5.92606e-06
5.92439e-06
5.92271e-06
5.92116e-06
5.92004e-06
5.92004e-06
5.92116e-06
5.92272e-06
5.92442e-06
5.92612e-06
5.92774e-06
5.92926e-06
5.93063e-06
5.93178e-06
5.93274e-06
5.93353e-06
5.93414e-06
5.93459e-06
5.93464e-06
5.93051e-06
5.93476e-06
5.93889e-06
5.93875e-06
5.9382e-06
5.93745e-06
5.93651e-06
5.93537e-06
5.93402e-06
5.93246e-06
5.93071e-06
5.9288e-06
5.9268e-06
5.92481e-06
5.92299e-06
5.92168e-06
5.92168e-06
5.92297e-06
5.92478e-06
5.92677e-06
5.92878e-06
5.93072e-06
5.93253e-06
5.93414e-06
5.93551e-06
5.93668e-06
5.93767e-06
5.93842e-06
5.93898e-06
5.93914e-06
5.93504e-06
5.94003e-06
5.9441e-06
5.94391e-06
5.94325e-06
5.94238e-06
5.94127e-06
5.93992e-06
5.93831e-06
5.93645e-06
5.93436e-06
5.93209e-06
5.92971e-06
5.92736e-06
5.92523e-06
5.92373e-06
5.92372e-06
5.92521e-06
5.9273e-06
5.92962e-06
5.93199e-06
5.93428e-06
5.93639e-06
5.93829e-06
5.93993e-06
5.94135e-06
5.94255e-06
5.94347e-06
5.94418e-06
5.94445e-06
5.94039e-06
5.94632e-06
5.95034e-06
5.95007e-06
5.94931e-06
5.94828e-06
5.94697e-06
5.94536e-06
5.94344e-06
5.94123e-06
5.93876e-06
5.93608e-06
5.93328e-06
5.93053e-06
5.92806e-06
5.92632e-06
5.92631e-06
5.92801e-06
5.93043e-06
5.93314e-06
5.93591e-06
5.93859e-06
5.94104e-06
5.94327e-06
5.94524e-06
5.94692e-06
5.94833e-06
5.94943e-06
5.95029e-06
5.95063e-06
5.94664e-06
5.9538e-06
5.95774e-06
5.95741e-06
5.95653e-06
5.95532e-06
5.95377e-06
5.95186e-06
5.94961e-06
5.94702e-06
5.94414e-06
5.94101e-06
5.93775e-06
5.93456e-06
5.93171e-06
5.9297e-06
5.92969e-06
5.93165e-06
5.93446e-06
5.93761e-06
5.94083e-06
5.94392e-06
5.94676e-06
5.94936e-06
5.95165e-06
5.95358e-06
5.95522e-06
5.95651e-06
5.95748e-06
5.95785e-06
5.95396e-06
5.96265e-06
5.96648e-06
5.96606e-06
5.96505e-06
5.96365e-06
5.96185e-06
5.95965e-06
5.95705e-06
5.95408e-06
5.95076e-06
5.94716e-06
5.94341e-06
5.93974e-06
5.93648e-06
5.93418e-06
5.93419e-06
5.93648e-06
5.93973e-06
5.94336e-06
5.94705e-06
5.9506e-06
5.95386e-06
5.95685e-06
5.95944e-06
5.96164e-06
5.96351e-06
5.96495e-06
5.96598e-06
5.96636e-06
5.9626e-06
5.97306e-06
5.97671e-06
5.97621e-06
5.97507e-06
5.97349e-06
5.97146e-06
5.96899e-06
5.96606e-06
5.9627e-06
5.95893e-06
5.95483e-06
5.95059e-06
5.94643e-06
5.94275e-06
5.94014e-06
5.94017e-06
5.9428e-06
5.94651e-06
5.95065e-06
5.95484e-06
5.95891e-06
5.96263e-06
5.96601e-06
5.96893e-06
5.9714e-06
5.97346e-06
5.97501e-06
5.97609e-06
5.97646e-06
5.97289e-06
5.98523e-06
5.98862e-06
5.98808e-06
5.98683e-06
5.98511e-06
5.9829e-06
5.98018e-06
5.97693e-06
5.97317e-06
5.96896e-06
5.96439e-06
5.95965e-06
5.955e-06
5.95085e-06
5.94788e-06
5.94789e-06
5.95086e-06
5.95505e-06
5.95973e-06
5.96449e-06
5.9691e-06
5.97328e-06
5.97705e-06
5.98031e-06
5.98304e-06
5.98525e-06
5.9869e-06
5.98802e-06
5.98841e-06
5.98509e-06
5.99937e-06
6.00248e-06
6.00194e-06
6.00066e-06
5.99886e-06
5.99651e-06
5.99356e-06
5.99002e-06
5.98591e-06
5.98128e-06
5.97624e-06
5.97097e-06
5.96574e-06
5.96106e-06
5.95769e-06
5.95768e-06
5.96102e-06
5.96572e-06
5.97096e-06
5.97626e-06
5.98139e-06
5.986e-06
5.99017e-06
5.99375e-06
5.99668e-06
5.99901e-06
6.00076e-06
6.00193e-06
6.00238e-06
5.99937e-06
6.01574e-06
6.01858e-06
6.01812e-06
6.01687e-06
6.01506e-06
6.01264e-06
6.00955e-06
6.00579e-06
6.00137e-06
5.99636e-06
5.99082e-06
5.98498e-06
5.97915e-06
5.9739e-06
5.97014e-06
5.97012e-06
5.97382e-06
5.97903e-06
5.98482e-06
5.99066e-06
5.99627e-06
6.0013e-06
6.0058e-06
6.00959e-06
6.01264e-06
6.01506e-06
6.01686e-06
6.01808e-06
6.01858e-06
6.01589e-06
6.0347e-06
6.03727e-06
6.03692e-06
6.03576e-06
6.03401e-06
6.03163e-06
6.02852e-06
6.02465e-06
6.02001e-06
6.01468e-06
6.00873e-06
6.00238e-06
5.99597e-06
5.99017e-06
5.98602e-06
5.986e-06
5.99007e-06
5.99582e-06
6.00218e-06
6.00851e-06
6.01449e-06
6.01983e-06
6.02452e-06
6.0284e-06
6.03148e-06
6.0339e-06
6.03565e-06
6.03684e-06
6.03733e-06
6.0349e-06
6.05655e-06
6.05885e-06
6.05861e-06
6.0576e-06
6.05604e-06
6.05385e-06
6.05088e-06
6.04704e-06
6.04234e-06
6.03686e-06
6.03065e-06
6.02392e-06
6.01705e-06
6.01075e-06
6.00632e-06
6.00634e-06
6.01077e-06
6.017e-06
6.0238e-06
6.03051e-06
6.03675e-06
6.04226e-06
6.04697e-06
6.05078e-06
6.05375e-06
6.05598e-06
6.05753e-06
6.05861e-06
6.05895e-06
6.05667e-06
6.0816e-06
6.08352e-06
6.08356e-06
6.08287e-06
6.08166e-06
6.07985e-06
6.07725e-06
6.07373e-06
6.06922e-06
6.06375e-06
6.05747e-06
6.05052e-06
6.04341e-06
6.03681e-06
6.03219e-06
6.03214e-06
6.03679e-06
6.0434e-06
6.05053e-06
6.05747e-06
6.06373e-06
6.06919e-06
6.07367e-06
6.07718e-06
6.07982e-06
6.08164e-06
6.08286e-06
6.08364e-06
6.08363e-06
6.08164e-06
6.11007e-06
6.11169e-06
6.11222e-06
6.11209e-06
6.11155e-06
6.11036e-06
6.10844e-06
6.10554e-06
6.10155e-06
6.09646e-06
6.09046e-06
6.08362e-06
6.07643e-06
6.06962e-06
6.06491e-06
6.06486e-06
6.0696e-06
6.07638e-06
6.08359e-06
6.09046e-06
6.0964e-06
6.10141e-06
6.10535e-06
6.10825e-06
6.11023e-06
6.1114e-06
6.11197e-06
6.11217e-06
6.11172e-06
6.11015e-06
6.14209e-06
6.14356e-06
6.14486e-06
6.14555e-06
6.14609e-06
6.14602e-06
6.14519e-06
6.14342e-06
6.1405e-06
6.13646e-06
6.13125e-06
6.12509e-06
6.11833e-06
6.11183e-06
6.10746e-06
6.10743e-06
6.11184e-06
6.11835e-06
6.12512e-06
6.13128e-06
6.13649e-06
6.14047e-06
6.14337e-06
6.1451e-06
6.14594e-06
6.14596e-06
6.14547e-06
6.14479e-06
6.14357e-06
6.14221e-06
6.17849e-06
6.18021e-06
6.18269e-06
6.18474e-06
6.18707e-06
6.18893e-06
6.1904e-06
6.19089e-06
6.19027e-06
6.1891e-06
6.18678e-06
6.18381e-06
6.18124e-06
6.17895e-06
6.17873e-06
6.17874e-06
6.17903e-06
6.18131e-06
6.18392e-06
6.18687e-06
6.18915e-06
6.19029e-06
6.19094e-06
6.19039e-06
6.18894e-06
6.18706e-06
6.18482e-06
6.18277e-06
6.18032e-06
6.17847e-06
6.22149e-06
6.22446e-06
6.22957e-06
6.23457e-06
6.24031e-06
6.24703e-06
6.25443e-06
6.26317e-06
6.273e-06
6.28723e-06
6.3072e-06
6.33455e-06
6.37368e-06
6.42039e-06
6.47055e-06
6.47047e-06
6.42041e-06
6.37368e-06
6.33464e-06
6.30737e-06
6.28737e-06
6.27309e-06
6.26319e-06
6.25429e-06
6.24693e-06
6.2401e-06
6.2346e-06
6.22956e-06
6.2245e-06
6.22137e-06
6.27739e-06
6.28316e-06
6.29526e-06
6.30975e-06
6.3292e-06
6.35743e-06
6.39783e-06
6.45707e-06
6.54358e-06
6.67748e-06
6.88516e-06
7.18049e-06
7.54371e-06
7.94434e-06
8.32848e-06
8.3284e-06
7.94467e-06
7.54491e-06
7.18263e-06
6.88747e-06
6.67925e-06
6.54475e-06
6.45779e-06
6.39806e-06
6.35746e-06
6.32896e-06
6.30975e-06
6.29495e-06
6.28293e-06
6.27718e-06
6.36749e-06
6.38637e-06
6.43398e-06
6.49943e-06
6.59913e-06
6.75396e-06
7.00047e-06
7.36477e-06
7.90068e-06
8.64885e-06
9.71514e-06
1.10933e-05
1.26048e-05
1.40401e-05
1.52285e-05
1.52291e-05
1.40423e-05
1.26119e-05
1.11046e-05
9.7272e-06
8.65877e-06
7.90783e-06
7.3696e-06
7.00322e-06
6.75508e-06
6.59905e-06
6.49882e-06
6.43309e-06
6.38523e-06
6.36555e-06
6.61371e-06
6.76338e-06
7.02262e-06
7.35662e-06
7.86116e-06
8.63286e-06
9.76762e-06
1.12991e-05
1.3238e-05
1.57188e-05
1.88253e-05
2.24051e-05
2.59591e-05
2.89882e-05
3.10675e-05
3.10709e-05
2.89968e-05
2.59786e-05
2.2435e-05
1.88604e-05
1.57507e-05
1.32636e-05
1.1319e-05
9.78187e-06
8.64192e-06
7.86508e-06
7.35657e-06
7.02149e-06
6.75881e-06
6.60712e-06
9.20855e-06
1.13205e-05
1.32178e-05
1.5961e-05
1.92555e-05
2.28975e-05
2.66214e-05
3.04817e-05
3.44635e-05
3.85658e-05
4.25185e-05
4.61444e-05
4.92125e-05
5.15467e-05
5.30242e-05
5.30299e-05
5.15597e-05
4.92376e-05
4.61788e-05
4.25591e-05
3.86119e-05
3.45125e-05
3.05312e-05
2.66669e-05
2.29347e-05
1.92872e-05
1.59883e-05
1.32395e-05
1.13238e-05
9.20709e-06
1.08576e-05
1.3059e-05
1.57548e-05
1.86845e-05
2.20206e-05
2.5692e-05
2.99876e-05
3.4511e-05
3.91438e-05
4.38127e-05
4.82284e-05
5.17913e-05
5.44025e-05
5.62999e-05
5.74277e-05
5.74315e-05
5.63122e-05
5.44302e-05
5.18385e-05
4.82988e-05
4.38887e-05
3.92104e-05
3.45754e-05
3.00443e-05
2.57366e-05
2.2066e-05
1.87244e-05
1.5769e-05
1.30748e-05
1.08496e-05
1.35032e-05
1.54648e-05
1.84054e-05
2.16881e-05
2.51349e-05
2.85691e-05
3.19221e-05
3.53545e-05
3.90648e-05
4.29836e-05
4.68799e-05
5.02568e-05
5.30467e-05
5.49762e-05
5.62903e-05
5.63146e-05
5.50223e-05
5.31105e-05
5.03292e-05
4.69559e-05
4.30659e-05
3.91382e-05
3.54268e-05
3.19976e-05
2.86183e-05
2.51588e-05
2.17181e-05
1.84266e-05
1.54478e-05
1.35152e-05
1.67757e-05
1.79058e-05
1.9762e-05
2.24398e-05
2.60724e-05
2.96069e-05
3.29844e-05
3.61786e-05
3.92715e-05
4.23494e-05
4.5553e-05
4.85977e-05
5.11464e-05
5.29392e-05
5.42305e-05
5.42292e-05
5.29524e-05
5.1207e-05
4.86734e-05
4.56378e-05
4.24402e-05
3.93465e-05
3.62557e-05
3.30747e-05
2.96893e-05
2.6135e-05
2.24946e-05
1.9813e-05
1.79401e-05
1.67599e-05
1.75423e-05
1.83837e-05
1.95104e-05
2.14105e-05
2.42185e-05
2.79863e-05
3.20625e-05
3.55675e-05
3.86144e-05
4.1414e-05
4.40727e-05
4.65999e-05
4.88615e-05
5.03435e-05
5.14319e-05
5.14488e-05
5.03817e-05
4.89261e-05
4.66942e-05
4.41743e-05
4.15293e-05
3.87152e-05
3.56416e-05
3.21358e-05
2.80748e-05
2.42903e-05
2.1458e-05
1.95254e-05
1.84273e-05
1.75527e-05
1.6692e-05
1.74025e-05
1.79885e-05
1.92055e-05
2.12219e-05
2.41138e-05
2.76833e-05
3.20925e-05
3.58983e-05
3.93257e-05
4.25823e-05
4.53443e-05
4.72872e-05
4.843e-05
4.91532e-05
4.91673e-05
4.84573e-05
4.73254e-05
4.54008e-05
4.26675e-05
3.94131e-05
3.59725e-05
3.2185e-05
2.77694e-05
2.41984e-05
2.12909e-05
1.92458e-05
1.79866e-05
1.73949e-05
1.67356e-05
1.55696e-05
1.60379e-05
1.62052e-05
1.67294e-05
1.77527e-05
1.93891e-05
2.18093e-05
2.51925e-05
2.89703e-05
3.35466e-05
3.83841e-05
4.24624e-05
4.54303e-05
4.71065e-05
4.8049e-05
4.80708e-05
4.71488e-05
4.54917e-05
4.2557e-05
3.8503e-05
3.36677e-05
2.90835e-05
2.52985e-05
2.18869e-05
1.94466e-05
1.77958e-05
1.67655e-05
1.62362e-05
1.60528e-05
1.55716e-05
1.44536e-05
1.47379e-05
1.47327e-05
1.48741e-05
1.52061e-05
1.57975e-05
1.68196e-05
1.85095e-05
2.09106e-05
2.44664e-05
2.96615e-05
3.57986e-05
4.05683e-05
4.36397e-05
4.54195e-05
4.54387e-05
4.36738e-05
4.06189e-05
3.58747e-05
2.97521e-05
2.45484e-05
2.09843e-05
1.85712e-05
1.68589e-05
1.58236e-05
1.52288e-05
1.49002e-05
1.47672e-05
1.47745e-05
1.44521e-05
1.35321e-05
1.37268e-05
1.36846e-05
1.36967e-05
1.37573e-05
1.38797e-05
1.41226e-05
1.45919e-05
1.54059e-05
1.69037e-05
1.98627e-05
2.48922e-05
3.08844e-05
3.57661e-05
3.90324e-05
3.90376e-05
3.57578e-05
3.08742e-05
2.48949e-05
1.98686e-05
1.69073e-05
1.54131e-05
1.45987e-05
1.41224e-05
1.38745e-05
1.37493e-05
1.36923e-05
1.36873e-05
1.37417e-05
1.35523e-05
1.27987e-05
1.29134e-05
1.2859e-05
1.28374e-05
1.28201e-05
1.28142e-05
1.28308e-05
1.28868e-05
1.30224e-05
1.33381e-05
1.41314e-05
1.59921e-05
1.93292e-05
2.37036e-05
2.75979e-05
2.76163e-05
2.37344e-05
1.93738e-05
1.60323e-05
1.41632e-05
1.3361e-05
1.30435e-05
1.29113e-05
1.2853e-05
1.28366e-05
1.28386e-05
1.2846e-05
1.28651e-05
1.29176e-05
1.28098e-05
1.21555e-05
1.21929e-05
1.21509e-05
1.21291e-05
1.21106e-05
1.20913e-05
1.20708e-05
1.20474e-05
1.20249e-05
1.20237e-05
1.2111e-05
1.24343e-05
1.32148e-05
1.46669e-05
1.65362e-05
1.65392e-05
1.46736e-05
1.32308e-05
1.24464e-05
1.21179e-05
1.20229e-05
1.20218e-05
1.20475e-05
1.20766e-05
1.21047e-05
1.21276e-05
1.2141e-05
1.21591e-05
1.22015e-05
1.21427e-05
1.15249e-05
1.15428e-05
1.15057e-05
1.14865e-05
1.1474e-05
1.14559e-05
1.14284e-05
1.13881e-05
1.13329e-05
1.12684e-05
1.12077e-05
1.11817e-05
1.12402e-05
1.14337e-05
1.17609e-05
1.17585e-05
1.14347e-05
1.1242e-05
1.11757e-05
1.1193e-05
1.12466e-05
1.13119e-05
1.13723e-05
1.14205e-05
1.14597e-05
1.14845e-05
1.14974e-05
1.15123e-05
1.15511e-05
1.15283e-05
1.09535e-05
1.09507e-05
1.09063e-05
1.08921e-05
1.08702e-05
1.0844e-05
1.08057e-05
1.07525e-05
1.0684e-05
1.06002e-05
1.05089e-05
1.04243e-05
1.03556e-05
1.03124e-05
1.03082e-05
1.03094e-05
1.03178e-05
1.03619e-05
1.0431e-05
1.0517e-05
1.06069e-05
1.0691e-05
1.07615e-05
1.08147e-05
1.08563e-05
1.08847e-05
1.09023e-05
1.09166e-05
1.09549e-05
1.09605e-05
1.04303e-05
1.04114e-05
1.03679e-05
1.03457e-05
1.03209e-05
1.02863e-05
1.02384e-05
1.01748e-05
1.00966e-05
1.00063e-05
9.90914e-06
9.80814e-06
9.70748e-06
9.62144e-06
9.56363e-06
9.56638e-06
9.63055e-06
9.71867e-06
9.81984e-06
9.92524e-06
1.00251e-05
1.01138e-05
1.01884e-05
1.02498e-05
1.02967e-05
1.03278e-05
1.03477e-05
1.03661e-05
1.04066e-05
1.04309e-05
9.93429e-06
9.89888e-06
9.86183e-06
9.83466e-06
9.80839e-06
9.76801e-06
9.71506e-06
9.64845e-06
9.56716e-06
9.47255e-06
9.36721e-06
9.25621e-06
9.14678e-06
9.04932e-06
8.97939e-06
8.97955e-06
9.0487e-06
9.14567e-06
9.25626e-06
9.37184e-06
9.48057e-06
9.57621e-06
9.65612e-06
9.72088e-06
9.77119e-06
9.80849e-06
9.83505e-06
9.85804e-06
9.89833e-06
9.93276e-06
9.46315e-06
9.41768e-06
9.37777e-06
9.35524e-06
9.32352e-06
9.28144e-06
9.22465e-06
9.15434e-06
9.07067e-06
8.97211e-06
8.86215e-06
8.74793e-06
8.63603e-06
8.53814e-06
8.47042e-06
8.46774e-06
8.53168e-06
8.63036e-06
8.7461e-06
8.86449e-06
8.97551e-06
9.07478e-06
9.16142e-06
9.2332e-06
9.2891e-06
9.33053e-06
9.36027e-06
9.38549e-06
9.42514e-06
9.46728e-06
9.02593e-06
8.98147e-06
8.94389e-06
8.91703e-06
8.88194e-06
8.83758e-06
8.78108e-06
8.71144e-06
8.62408e-06
8.5189e-06
8.40596e-06
8.29221e-06
8.18196e-06
8.08526e-06
8.02012e-06
8.01897e-06
8.08231e-06
8.17937e-06
8.29206e-06
8.40975e-06
8.52401e-06
8.62779e-06
8.71705e-06
8.78965e-06
8.84644e-06
8.89027e-06
8.9238e-06
8.9521e-06
8.99059e-06
9.03753e-06
8.6435e-06
8.58279e-06
8.55163e-06
8.5249e-06
8.49332e-06
8.44935e-06
8.39146e-06
8.31622e-06
8.2236e-06
8.12039e-06
8.01223e-06
7.89921e-06
7.78702e-06
7.68956e-06
7.627e-06
7.62803e-06
7.6914e-06
7.7868e-06
7.89812e-06
8.01566e-06
8.12979e-06
8.23245e-06
8.31968e-06
8.39149e-06
8.44979e-06
8.49651e-06
8.53232e-06
8.55991e-06
8.59353e-06
8.64234e-06
8.2742e-06
8.22977e-06
8.20033e-06
8.17714e-06
8.14382e-06
8.09903e-06
8.04078e-06
7.9671e-06
7.88038e-06
7.78317e-06
7.67495e-06
7.55935e-06
7.44855e-06
7.35778e-06
7.30128e-06
7.30293e-06
7.36328e-06
7.45516e-06
7.56377e-06
7.67857e-06
7.78928e-06
7.88811e-06
7.97171e-06
8.04123e-06
8.09882e-06
8.14502e-06
8.17898e-06
8.20334e-06
8.23266e-06
8.28311e-06
7.95782e-06
7.9128e-06
7.88364e-06
7.85739e-06
7.82413e-06
7.78303e-06
7.72855e-06
7.66122e-06
7.5811e-06
7.48625e-06
7.3793e-06
7.26922e-06
7.16741e-06
7.08369e-06
7.02922e-06
7.0284e-06
7.0849e-06
7.17361e-06
7.27882e-06
7.38808e-06
7.4916e-06
7.58391e-06
7.66317e-06
7.73016e-06
7.78567e-06
7.82924e-06
7.8607e-06
7.8835e-06
7.91074e-06
7.96119e-06
7.67837e-06
7.61906e-06
7.59681e-06
7.57248e-06
7.54454e-06
7.50612e-06
7.45554e-06
7.39373e-06
7.3174e-06
7.22663e-06
7.12801e-06
7.02881e-06
6.93553e-06
6.85593e-06
6.80281e-06
6.80163e-06
6.85533e-06
6.93938e-06
7.03756e-06
7.13752e-06
7.23174e-06
7.3172e-06
7.39245e-06
7.45654e-06
7.50884e-06
7.54938e-06
7.57915e-06
7.60137e-06
7.62652e-06
7.67459e-06
7.4078e-06
7.36544e-06
7.34411e-06
7.32601e-06
7.30155e-06
7.26393e-06
7.21718e-06
7.15916e-06
7.08758e-06
7.00602e-06
6.91936e-06
6.8302e-06
6.74292e-06
6.66687e-06
6.61647e-06
6.6165e-06
6.66674e-06
6.74343e-06
6.83201e-06
6.92203e-06
7.00785e-06
7.08711e-06
7.15766e-06
7.21756e-06
7.26596e-06
7.30353e-06
7.33174e-06
7.35329e-06
7.37644e-06
7.42142e-06
7.18843e-06
7.1493e-06
7.13025e-06
7.11385e-06
7.08704e-06
7.05121e-06
7.00834e-06
6.95481e-06
6.89162e-06
6.82127e-06
6.74418e-06
6.66136e-06
6.579e-06
6.50831e-06
6.46262e-06
6.46463e-06
6.51086e-06
6.57956e-06
6.65875e-06
6.74012e-06
6.81867e-06
6.89158e-06
6.95631e-06
7.01099e-06
7.05518e-06
7.08991e-06
7.11678e-06
7.13777e-06
7.15908e-06
7.19998e-06
7.00189e-06
6.9577e-06
6.94565e-06
6.92866e-06
6.90286e-06
6.87225e-06
6.83315e-06
6.78488e-06
6.72961e-06
6.6668e-06
6.59576e-06
6.51969e-06
6.44621e-06
6.38491e-06
6.34595e-06
6.34862e-06
6.389e-06
6.44875e-06
6.51842e-06
6.59126e-06
6.66242e-06
6.72847e-06
6.78685e-06
6.83611e-06
6.87622e-06
6.90825e-06
6.93344e-06
6.95299e-06
6.97144e-06
7.00659e-06
6.8243e-06
6.79979e-06
6.78696e-06
6.77011e-06
6.74908e-06
6.72188e-06
6.68535e-06
6.64207e-06
6.59257e-06
6.53523e-06
6.47117e-06
6.40498e-06
6.3423e-06
6.28929e-06
6.25472e-06
6.25552e-06
6.28958e-06
6.34209e-06
6.40451e-06
6.47033e-06
6.53454e-06
6.59356e-06
6.6453e-06
6.68902e-06
6.72498e-06
6.75393e-06
6.77649e-06
6.79334e-06
6.80822e-06
6.83752e-06
6.68667e-06
6.66933e-06
6.65349e-06
6.63742e-06
6.61847e-06
6.59165e-06
6.55834e-06
6.52035e-06
6.47634e-06
6.42568e-06
6.37066e-06
6.31456e-06
6.2602e-06
6.2122e-06
6.18024e-06
6.17985e-06
6.21028e-06
6.25843e-06
6.31499e-06
6.37348e-06
6.42944e-06
6.48024e-06
6.52485e-06
6.56306e-06
6.59495e-06
6.62064e-06
6.64025e-06
6.65441e-06
6.66648e-06
6.691e-06
6.57172e-06
6.54653e-06
6.5345e-06
6.52072e-06
6.50265e-06
6.47872e-06
6.45096e-06
6.41867e-06
6.38067e-06
6.3376e-06
6.29111e-06
6.24258e-06
6.19415e-06
6.15091e-06
6.12262e-06
6.12281e-06
6.15075e-06
6.19387e-06
6.24307e-06
6.29275e-06
6.33985e-06
6.38296e-06
6.42154e-06
6.45522e-06
6.48349e-06
6.50601e-06
6.52289e-06
6.53498e-06
6.54517e-06
6.56548e-06
6.45517e-06
6.4379e-06
6.42909e-06
6.41839e-06
6.40331e-06
6.38459e-06
6.36179e-06
6.33388e-06
6.30114e-06
6.26438e-06
6.22398e-06
6.18088e-06
6.13796e-06
6.10059e-06
6.07674e-06
6.07733e-06
6.10193e-06
6.1392e-06
6.18107e-06
6.2233e-06
6.26387e-06
6.30168e-06
6.3358e-06
6.36535e-06
6.38966e-06
6.40866e-06
6.42289e-06
6.43329e-06
6.44198e-06
6.45818e-06
6.36023e-06
6.35285e-06
6.34404e-06
6.3351e-06
6.32283e-06
6.30696e-06
6.2864e-06
6.26157e-06
6.23332e-06
6.20175e-06
6.16671e-06
6.12943e-06
6.09302e-06
6.06183e-06
6.04177e-06
6.04173e-06
6.06218e-06
6.0939e-06
6.12985e-06
6.16675e-06
6.20261e-06
6.23589e-06
6.26529e-06
6.28996e-06
6.30969e-06
6.32506e-06
6.33698e-06
6.34618e-06
6.35381e-06
6.36643e-06
6.28888e-06
6.279e-06
6.27235e-06
6.26429e-06
6.25347e-06
6.23885e-06
6.22086e-06
6.20013e-06
6.17678e-06
6.15051e-06
6.12152e-06
6.09103e-06
6.06127e-06
6.03515e-06
6.0172e-06
6.0161e-06
6.03249e-06
6.05879e-06
6.08957e-06
6.1216e-06
6.15262e-06
6.18079e-06
6.20491e-06
6.2246e-06
6.24032e-06
6.25295e-06
6.26342e-06
6.272e-06
6.27893e-06
6.28856e-06
6.22128e-06
6.2112e-06
6.20762e-06
6.20101e-06
6.19163e-06
6.17971e-06
6.16596e-06
6.14988e-06
6.13099e-06
6.10944e-06
6.08585e-06
6.06129e-06
6.0369e-06
6.01447e-06
5.99845e-06
5.9967e-06
6.00928e-06
6.03061e-06
6.05663e-06
6.08397e-06
6.11007e-06
6.13335e-06
6.15301e-06
6.16895e-06
6.18203e-06
6.1931e-06
6.20263e-06
6.21045e-06
6.21629e-06
6.22282e-06
6.16105e-06
6.1582e-06
6.15537e-06
6.15016e-06
6.1425e-06
6.13353e-06
6.12292e-06
6.10971e-06
6.0937e-06
6.07541e-06
6.05585e-06
6.03558e-06
6.01509e-06
5.99602e-06
5.98225e-06
5.98045e-06