/*--------------------------------*- C++ -*----------------------------------*\
| =========                 |                                                 |
| \\      /  F ield         | OpenFOAM: The Open Source CFD Toolbox           |
|  \\    /   O peration     | Version:  2312                                  |
|   \\  /    A nd           | Website:  www.openfoam.com                      |
|    \\/     M anipulation  |                                                 |
\*---------------------------------------------------------------------------*/
FoamFile
{
    version     2.0;
    format      ascii;
    arch        "LSB;label=32;scalar=64";
    class       volScalarField;
    location    "0.602264";
    object      p;
}
// * * * * * * * * * * * * * * * * * * * * * * * * * * * * * * * * * * * * * //

dimensions      [1 -1 -2 0 0 0 0];

internalField   nonuniform List<scalar> 
90000
(
4847.51
4847.51
4847.51
4847.51
4847.51
4847.51
4847.51
4847.51
4847.51
4847.51
4847.51
4847.51
4847.51
4847.51
4847.51
4847.51
4847.51
4847.51
4847.51
4847.51
4847.51
4847.51
4847.51
4847.51
4847.51
4847.51
4847.52
4847.52
4847.52
4847.52
4749.41
4749.41
4749.41
4749.41
4749.41
4749.41
4749.41
4749.41
4749.41
4749.41
4749.41
4749.41
4749.41
4749.41
4749.41
4749.41
4749.41
4749.41
4749.41
4749.41
4749.41
4749.41
4749.41
4749.41
4749.41
4749.41
4749.41
4749.41
4749.41
4749.42
4651.31
4651.31
4651.31
4651.31
4651.31
4651.31
4651.31
4651.31
4651.31
4651.31
4651.31
4651.31
4651.31
4651.31
4651.31
4651.31
4651.31
4651.31
4651.31
4651.31
4651.31
4651.31
4651.31
4651.31
4651.31
4651.31
4651.31
4651.31
4651.31
4651.31
4553.21
4553.21
4553.21
4553.21
4553.21
4553.21
4553.21
4553.21
4553.21
4553.21
4553.21
4553.21
4553.21
4553.21
4553.21
4553.21
4553.21
4553.21
4553.21
4553.21
4553.21
4553.21
4553.21
4553.21
4553.21
4553.21
4553.21
4553.21
4553.21
4553.21
4455.11
4455.11
4455.11
4455.11
4455.11
4455.11
4455.11
4455.11
4455.11
4455.11
4455.11
4455.1
4455.1
4455.1
4455.1
4455.1
4455.1
4455.11
4455.11
4455.11
4455.11
4455.11
4455.11
4455.11
4455.11
4455.11
4455.11
4455.11
4455.11
4455.11
4357.01
4357.01
4357.01
4357.01
4357.01
4357.01
4357.01
4357
4357
4357
4357
4357
4357
4357
4357
4357
4357
4357
4357
4357
4357
4357.01
4357.01
4357.01
4357.01
4357.01
4357.01
4357.01
4357.01
4357.01
4258.91
4258.91
4258.91
4258.91
4258.91
4258.9
4258.9
4258.9
4258.9
4258.9
4258.9
4258.9
4258.9
4258.9
4258.9
4258.9
4258.9
4258.9
4258.9
4258.9
4258.9
4258.9
4258.9
4258.9
4258.9
4258.91
4258.91
4258.91
4258.91
4258.91
4160.81
4160.81
4160.81
4160.8
4160.8
4160.8
4160.8
4160.8
4160.8
4160.8
4160.8
4160.8
4160.8
4160.8
4160.8
4160.8
4160.8
4160.8
4160.8
4160.8
4160.8
4160.8
4160.8
4160.8
4160.8
4160.8
4160.81
4160.81
4160.81
4160.81
4062.7
4062.7
4062.7
4062.7
4062.7
4062.7
4062.7
4062.7
4062.7
4062.69
4062.69
4062.69
4062.69
4062.69
4062.69
4062.69
4062.69
4062.69
4062.7
4062.7
4062.7
4062.7
4062.7
4062.7
4062.7
4062.7
4062.7
4062.7
4062.7
4062.7
3964.6
3964.6
3964.6
3964.6
3964.6
3964.6
3964.6
3964.59
3964.59
3964.59
3964.59
3964.59
3964.59
3964.59
3964.59
3964.59
3964.59
3964.59
3964.59
3964.59
3964.6
3964.6
3964.6
3964.6
3964.6
3964.6
3964.6
3964.6
3964.6
3964.6
3866.5
3866.5
3866.5
3866.5
3866.5
3866.49
3866.49
3866.49
3866.49
3866.49
3866.49
3866.49
3866.49
3866.49
3866.49
3866.49
3866.49
3866.49
3866.49
3866.49
3866.49
3866.49
3866.5
3866.5
3866.5
3866.5
3866.5
3866.5
3866.5
3866.5
3768.4
3768.39
3768.39
3768.39
3768.39
3768.39
3768.39
3768.39
3768.39
3768.39
3768.39
3768.39
3768.38
3768.38
3768.38
3768.38
3768.38
3768.38
3768.39
3768.39
3768.39
3768.39
3768.39
3768.4
3768.4
3768.4
3768.4
3768.4
3768.4
3768.4
3670.29
3670.29
3670.29
3670.29
3670.29
3670.29
3670.29
3670.29
3670.29
3670.29
3670.28
3670.28
3670.28
3670.28
3670.28
3670.28
3670.28
3670.28
3670.28
3670.28
3670.29
3670.29
3670.29
3670.29
3670.3
3670.3
3670.3
3670.3
3670.3
3670.3
3572.19
3572.19
3572.19
3572.19
3572.19
3572.19
3572.19
3572.19
3572.19
3572.18
3572.18
3572.18
3572.18
3572.18
3572.18
3572.18
3572.18
3572.18
3572.18
3572.18
3572.18
3572.19
3572.19
3572.19
3572.19
3572.2
3572.2
3572.2
3572.2
3572.2
3474.09
3474.09
3474.09
3474.09
3474.09
3474.09
3474.09
3474.09
3474.08
3474.08
3474.08
3474.08
3474.08
3474.07
3474.07
3474.07
3474.07
3474.07
3474.07
3474.08
3474.08
3474.08
3474.09
3474.09
3474.09
3474.09
3474.1
3474.1
3474.1
3474.1
3376
3376
3376
3375.99
3375.99
3375.99
3375.99
3375.99
3375.98
3375.98
3375.98
3375.97
3375.97
3375.97
3375.97
3375.97
3375.97
3375.97
3375.97
3375.97
3375.98
3375.98
3375.98
3375.99
3375.99
3375.99
3376
3376
3376
3376
3277.9
3277.9
3277.9
3277.9
3277.9
3277.89
3277.89
3277.89
3277.88
3277.88
3277.87
3277.87
3277.87
3277.87
3277.86
3277.86
3277.86
3277.87
3277.87
3277.87
3277.87
3277.88
3277.88
3277.89
3277.89
3277.9
3277.9
3277.9
3277.91
3277.91
3179.81
3179.81
3179.81
3179.81
3179.8
3179.8
3179.79
3179.79
3179.78
3179.78
3179.77
3179.77
3179.76
3179.76
3179.76
3179.76
3179.76
3179.76
3179.77
3179.77
3179.77
3179.78
3179.78
3179.79
3179.8
3179.8
3179.8
3179.81
3179.81
3179.81
3081.72
3081.72
3081.72
3081.72
3081.71
3081.7
3081.7
3081.69
3081.68
3081.68
3081.67
3081.67
3081.66
3081.66
3081.66
3081.66
3081.66
3081.66
3081.66
3081.67
3081.67
3081.68
3081.69
3081.69
3081.7
3081.71
3081.71
3081.72
3081.72
3081.72
2983.64
2983.63
2983.63
2983.63
2983.62
2983.61
2983.6
2983.59
2983.59
2983.58
2983.57
2983.56
2983.56
2983.56
2983.55
2983.55
2983.56
2983.56
2983.56
2983.57
2983.58
2983.58
2983.59
2983.6
2983.61
2983.62
2983.62
2983.63
2983.63
2983.63
2885.55
2885.55
2885.54
2885.54
2885.53
2885.52
2885.51
2885.5
2885.49
2885.48
2885.47
2885.46
2885.46
2885.45
2885.45
2885.45
2885.45
2885.46
2885.46
2885.47
2885.48
2885.49
2885.5
2885.51
2885.52
2885.53
2885.54
2885.54
2885.55
2885.55
2787.47
2787.47
2787.46
2787.45
2787.44
2787.43
2787.42
2787.41
2787.39
2787.38
2787.37
2787.36
2787.36
2787.35
2787.35
2787.35
2787.35
2787.36
2787.37
2787.37
2787.39
2787.4
2787.41
2787.42
2787.43
2787.44
2787.45
2787.46
2787.46
2787.47
2689.39
2689.39
2689.38
2689.37
2689.36
2689.35
2689.33
2689.32
2689.3
2689.29
2689.28
2689.27
2689.26
2689.25
2689.25
2689.25
2689.25
2689.26
2689.27
2689.28
2689.29
2689.31
2689.32
2689.34
2689.35
2689.36
2689.37
2689.38
2689.39
2689.39
2591.32
2591.31
2591.31
2591.3
2591.28
2591.27
2591.25
2591.23
2591.21
2591.2
2591.18
2591.17
2591.16
2591.15
2591.15
2591.15
2591.15
2591.16
2591.17
2591.19
2591.2
2591.22
2591.24
2591.25
2591.27
2591.29
2591.3
2591.31
2591.32
2591.32
2493.25
2493.25
2493.24
2493.23
2493.21
2493.19
2493.17
2493.15
2493.13
2493.11
2493.09
2493.08
2493.07
2493.06
2493.05
2493.05
2493.06
2493.07
2493.08
2493.1
2493.11
2493.13
2493.15
2493.18
2493.2
2493.21
2493.23
2493.24
2493.25
2493.25
2395.19
2395.19
2395.18
2395.16
2395.15
2395.12
2395.1
2395.08
2395.05
2395.03
2395.01
2394.99
2394.97
2394.96
2394.96
2394.96
2394.96
2394.97
2394.99
2395.01
2395.03
2395.05
2395.08
2395.1
2395.13
2395.15
2395.17
2395.18
2395.19
2395.2
2297.15
2297.14
2297.13
2297.11
2297.09
2297.06
2297.04
2297.01
2296.98
2296.95
2296.92
2296.9
2296.88
2296.87
2296.86
2296.86
2296.87
2296.88
2296.9
2296.92
2296.95
2296.98
2297.01
2297.04
2297.07
2297.09
2297.12
2297.13
2297.14
2297.15
2199.11
2199.1
2199.09
2199.07
2199.04
2199.01
2198.98
2198.95
2198.91
2198.88
2198.85
2198.82
2198.8
2198.78
2198.78
2198.78
2198.78
2198.8
2198.82
2198.84
2198.88
2198.91
2198.95
2198.98
2199.02
2199.05
2199.07
2199.09
2199.11
2199.12
2101.09
2101.08
2101.06
2101.04
2101.01
2100.97
2100.94
2100.89
2100.85
2100.81
2100.78
2100.74
2100.72
2100.7
2100.69
2100.69
2100.7
2100.72
2100.74
2100.77
2100.81
2100.85
2100.89
2100.93
2100.98
2101.01
2101.04
2101.07
2101.09
2101.09
2003.08
2003.07
2003.05
2003.03
2002.99
2002.95
2002.9
2002.85
2002.81
2002.76
2002.72
2002.68
2002.65
2002.63
2002.62
2002.62
2002.63
2002.65
2002.68
2002.71
2002.76
2002.8
2002.85
2002.9
2002.95
2002.99
2003.03
2003.05
2003.07
2003.08
1905.09
1905.08
1905.06
1905.03
1904.99
1904.94
1904.89
1904.83
1904.77
1904.72
1904.67
1904.63
1904.59
1904.57
1904.56
1904.55
1904.57
1904.59
1904.62
1904.66
1904.71
1904.77
1904.82
1904.88
1904.93
1904.98
1905.02
1905.06
1905.08
1905.09
1807.12
1807.11
1807.08
1807.05
1807
1806.95
1806.89
1806.82
1806.76
1806.7
1806.64
1806.59
1806.55
1806.52
1806.51
1806.51
1806.52
1806.55
1806.59
1806.64
1806.69
1806.75
1806.82
1806.88
1806.94
1806.99
1807.04
1807.08
1807.1
1807.11
1709.17
1709.16
1709.13
1709.09
1709.04
1708.98
1708.91
1708.84
1708.77
1708.7
1708.64
1708.58
1708.54
1708.5
1708.49
1708.49
1708.5
1708.53
1708.58
1708.63
1708.69
1708.76
1708.83
1708.9
1708.97
1709.03
1709.08
1709.12
1709.14
1709.16
1611.24
1611.23
1611.2
1611.16
1611.1
1611.04
1610.97
1610.89
1610.81
1610.73
1610.66
1610.6
1610.55
1610.52
1610.5
1610.5
1610.52
1610.55
1610.6
1610.66
1610.73
1610.81
1610.88
1610.96
1611.03
1611.09
1611.15
1611.19
1611.21
1611.23
1513.34
1513.33
1513.3
1513.25
1513.2
1513.13
1513.05
1512.97
1512.89
1512.81
1512.73
1512.67
1512.61
1512.58
1512.56
1512.56
1512.58
1512.62
1512.67
1512.74
1512.81
1512.89
1512.97
1513.05
1513.13
1513.19
1513.24
1513.28
1513.31
1513.33
1415.47
1415.45
1415.43
1415.38
1415.33
1415.26
1415.19
1415.1
1415.02
1414.93
1414.86
1414.79
1414.73
1414.69
1414.67
1414.67
1414.69
1414.73
1414.79
1414.86
1414.94
1415.02
1415.11
1415.19
1415.26
1415.32
1415.37
1415.41
1415.44
1415.45
1317.62
1317.61
1317.58
1317.55
1317.5
1317.44
1317.37
1317.29
1317.2
1317.12
1317.04
1316.97
1316.91
1316.87
1316.85
1316.85
1316.87
1316.91
1316.97
1317.04
1317.12
1317.21
1317.29
1317.37
1317.43
1317.49
1317.54
1317.58
1317.6
1317.61
1219.8
1219.79
1219.77
1219.75
1219.71
1219.66
1219.6
1219.54
1219.46
1219.39
1219.31
1219.24
1219.18
1219.14
1219.12
1219.12
1219.14
1219.18
1219.24
1219.31
1219.38
1219.46
1219.53
1219.6
1219.66
1219.71
1219.74
1219.77
1219.79
1219.8
1122
1122
1121.99
1121.98
1121.96
1121.94
1121.9
1121.86
1121.8
1121.74
1121.68
1121.62
1121.57
1121.53
1121.51
1121.51
1121.53
1121.57
1121.62
1121.68
1121.74
1121.8
1121.85
1121.9
1121.93
1121.96
1121.98
1121.99
1121.99
1122
1024.2
1024.21
1024.23
1024.24
1024.26
1024.27
1024.28
1024.27
1024.25
1024.21
1024.17
1024.13
1024.09
1024.06
1024.05
1024.05
1024.06
1024.09
1024.13
1024.17
1024.21
1024.24
1024.26
1024.27
1024.27
1024.26
1024.24
1024.22
1024.21
1024.2
926.391
926.414
926.46
926.522
926.592
926.663
926.726
926.776
926.809
926.824
926.825
926.815
926.8
926.786
926.778
926.778
926.786
926.8
926.814
926.824
926.822
926.805
926.771
926.721
926.657
926.587
926.517
926.456
926.411
926.387
828.528
828.576
828.668
828.795
828.946
829.105
829.26
829.4
829.517
829.608
829.672
829.713
829.737
829.748
829.752
829.752
829.748
829.737
829.714
829.672
829.607
829.514
829.396
829.255
829.099
828.94
828.791
828.664
828.573
828.525
730.566
730.649
730.809
731.032
731.299
731.588
731.878
732.151
732.394
732.598
732.758
732.876
732.957
733.007
733.031
733.031
733.008
732.959
732.878
732.759
732.598
732.393
732.149
731.874
731.583
731.294
731.028
730.806
730.646
730.563
632.431
632.564
632.822
633.182
633.615
634.09
634.575
635.04
635.465
635.831
636.131
636.362
636.529
636.636
636.688
636.688
636.637
636.531
636.365
636.133
635.833
635.466
635.041
634.574
634.088
633.612
633.179
632.819
632.561
632.426
534.016
534.221
534.617
535.172
535.842
536.579
537.338
538.074
538.753
539.35
539.848
540.24
540.528
540.716
540.808
540.808
540.716
540.529
540.242
539.849
539.351
538.754
538.074
537.337
536.578
535.84
535.17
534.615
534.217
534.011
435.173
435.481
436.072
436.9
437.9
439.004
440.141
441.252
442.284
443.199
443.971
444.587
445.045
445.346
445.495
445.495
445.346
445.045
444.588
443.972
443.199
442.284
441.251
440.141
439.003
437.899
436.898
436.069
435.477
435.17
335.697
336.151
337.018
338.227
339.684
341.29
342.946
344.567
346.079
347.43
348.577
349.497
350.186
350.644
350.872
350.872
350.645
350.187
349.497
348.577
347.43
346.079
344.567
342.947
341.291
339.685
338.226
337.016
336.147
335.694
235.289
235.949
237.215
238.956
241.031
243.317
245.669
247.976
250.127
252.062
253.716
255.048
256.053
256.726
257.062
257.062
256.725
256.053
255.048
253.716
252.062
250.127
247.976
245.669
243.317
241.031
238.954
237.214
235.947
235.286
133.593
134.552
136.412
138.893
141.805
145.014
148.306
151.528
154.544
157.241
159.565
161.469
162.913
163.875
164.357
164.357
163.875
162.913
161.468
159.565
157.241
154.544
151.528
148.306
145.013
141.804
138.891
136.411
134.549
133.591
41.789
42.7475
44.6155
47.1244
50.1089
53.4584
56.9899
60.5108
63.8475
66.8658
69.5031
71.6771
73.3724
74.5221
75.102
75.1017
74.5217
73.3722
71.6768
69.5023
66.865
63.8468
60.51
56.989
53.4575
50.1079
47.1232
44.6142
42.7445
41.7885
-0.323311
-0.111856
0.398406
1.19601
2.24981
3.52541
5.00174
6.57792
8.12879
9.58388
10.8882
11.9717
12.884
13.5205
13.8389
13.8383
13.52
12.8829
11.9707
10.8873
9.58263
8.12774
6.57689
5.00081
3.52473
2.24937
1.19523
0.398037
-0.112046
-0.323652
-4.5675
-4.6325
-4.71351
-4.77687
-4.81243
-4.8304
-4.83779
-4.84097
-4.84504
-4.85103
-4.85586
-4.8495
-4.83595
-4.82426
-4.81546
-4.81545
-4.8243
-4.836
-4.84958
-4.85593
-4.85107
-4.84498
-4.84088
-4.83767
-4.83018
-4.81221
-4.77676
-4.71325
-4.63227
-4.56726
-5.03917
-5.06449
-5.09086
-5.11463
-5.13191
-5.14502
-5.15516
-5.16367
-5.17044
-5.17608
-5.18041
-5.18467
-5.18913
-5.19202
-5.19359
-5.19361
-5.19204
-5.18916
-5.18468
-5.18039
-5.17601
-5.17031
-5.16351
-5.15499
-5.14478
-5.13159
-5.11436
-5.09074
-5.06429
-5.03922
-5.23641
-5.24517
-5.25329
-5.26152
-5.26895
-5.27617
-5.28332
-5.2897
-5.29479
-5.29875
-5.30212
-5.30496
-5.30711
-5.30854
-5.30933
-5.30933
-5.30853
-5.30711
-5.30496
-5.30211
-5.2987
-5.29466
-5.28953
-5.28314
-5.27598
-5.26871
-5.26125
-5.25321
-5.24521
-5.23641
-5.35503
-5.35812
-5.3626
-5.36717
-5.37163
-5.3762
-5.38084
-5.38519
-5.38904
-5.39238
-5.3953
-5.39774
-5.39932
-5.4002
-5.40055
-5.40057
-5.40022
-5.39933
-5.39776
-5.3953
-5.39236
-5.38895
-5.38502
-5.38062
-5.376
-5.37146
-5.36697
-5.36245
-5.35812
-5.35513
-5.45893
-5.46008
-5.46255
-5.46542
-5.46844
-5.47152
-5.47457
-5.47747
-5.48018
-5.48272
-5.48518
-5.48735
-5.48894
-5.48996
-5.49034
-5.49036
-5.49
-5.48896
-5.48734
-5.48517
-5.48269
-5.48011
-5.47734
-5.47437
-5.47129
-5.46822
-5.46525
-5.46243
-5.46001
-5.45903
-5.55852
-5.55894
-5.56024
-5.56203
-5.56408
-5.56619
-5.56822
-5.5701
-5.57185
-5.5735
-5.57511
-5.57669
-5.57808
-5.57912
-5.57961
-5.57964
-5.57919
-5.57814
-5.57672
-5.57511
-5.57348
-5.5718
-5.57
-5.56805
-5.56596
-5.56384
-5.56187
-5.56021
-5.55897
-5.55855
-5.65603
-5.65625
-5.65708
-5.65828
-5.65966
-5.66108
-5.66244
-5.66369
-5.66481
-5.66578
-5.66662
-5.66739
-5.6681
-5.66874
-5.66913
-5.66916
-5.6688
-5.66815
-5.6674
-5.6666
-5.66574
-5.66475
-5.66359
-5.66227
-5.66083
-5.65939
-5.65807
-5.65701
-5.65628
-5.65605
-5.75307
-5.75329
-5.75384
-5.75463
-5.75549
-5.75636
-5.75722
-5.758
-5.75869
-5.75925
-5.75964
-5.75991
-5.76008
-5.76023
-5.76031
-5.76032
-5.76024
-5.76005
-5.75984
-5.75953
-5.75911
-5.75855
-5.75785
-5.75702
-5.7561
-5.75518
-5.75435
-5.75368
-5.75324
-5.75312
-5.8501
-5.85018
-5.8505
-5.85093
-5.8514
-5.85188
-5.85235
-5.85277
-5.8531
-5.85333
-5.85346
-5.8535
-5.85348
-5.85346
-5.85344
-5.85347
-5.85353
-5.85357
-5.85358
-5.85351
-5.85335
-5.85308
-5.85272
-5.85227
-5.85176
-5.85123
-5.85074
-5.85035
-5.85009
-5.85002
-5.9469
-5.9469
-5.94709
-5.94733
-5.94759
-5.94784
-5.94806
-5.9482
-5.94826
-5.94825
-5.94819
-5.94811
-5.94802
-5.94795
-5.9479
-5.94792
-5.94799
-5.94805
-5.94811
-5.94817
-5.94818
-5.94813
-5.94804
-5.94789
-5.94768
-5.94744
-5.94719
-5.94697
-5.94682
-5.94678
-6.04361
-6.04364
-6.04372
-6.04383
-6.04392
-6.04399
-6.04401
-6.04394
-6.04382
-6.04366
-6.04349
-6.04334
-6.04319
-6.04307
-6.04299
-6.04297
-6.04301
-6.04308
-6.04319
-6.04333
-6.04349
-6.04364
-6.04375
-6.04382
-6.04383
-6.04377
-6.04368
-6.04358
-6.04351
-6.0435
-6.14047
-6.14049
-6.14046
-6.14042
-6.14036
-6.14025
-6.14008
-6.13986
-6.13962
-6.13937
-6.13915
-6.13895
-6.13878
-6.13863
-6.13854
-6.13853
-6.1386
-6.13873
-6.13891
-6.13914
-6.1394
-6.13966
-6.13989
-6.14008
-6.1402
-6.14026
-6.14028
-6.14027
-6.14027
-6.1403
-6.23748
-6.23742
-6.23733
-6.23721
-6.23704
-6.23681
-6.23653
-6.23623
-6.23593
-6.23565
-6.2354
-6.23517
-6.23497
-6.23481
-6.2347
-6.23469
-6.23478
-6.23496
-6.23519
-6.23547
-6.23577
-6.23606
-6.23633
-6.23657
-6.23677
-6.23691
-6.23702
-6.23709
-6.23716
-6.23721
-6.33446
-6.33438
-6.33427
-6.3341
-6.33387
-6.33359
-6.33329
-6.33297
-6.33266
-6.33236
-6.33208
-6.33183
-6.33161
-6.33143
-6.33131
-6.33129
-6.33136
-6.33154
-6.33178
-6.33206
-6.33237
-6.33268
-6.33298
-6.33326
-6.33352
-6.33374
-6.33392
-6.33406
-6.33417
-6.33423
-6.4315
-6.43144
-6.43129
-6.43107
-6.4308
-6.43051
-6.4302
-6.42989
-6.42957
-6.42926
-6.42896
-6.42869
-6.42846
-6.42829
-6.42819
-6.42816
-6.42823
-6.42839
-6.42862
-6.4289
-6.42922
-6.42954
-6.42987
-6.43019
-6.43048
-6.43075
-6.43098
-6.43115
-6.43127
-6.43133
-6.52871
-6.52865
-6.52848
-6.52823
-6.52795
-6.52765
-6.52734
-6.52703
-6.52671
-6.52638
-6.52607
-6.52578
-6.52556
-6.52541
-6.52533
-6.52533
-6.52542
-6.52558
-6.5258
-6.52607
-6.52638
-6.5267
-6.52703
-6.52735
-6.52766
-6.52793
-6.52816
-6.52834
-6.52846
-6.52851
-6.62605
-6.62598
-6.6258
-6.62558
-6.62532
-6.62505
-6.62476
-6.62445
-6.62413
-6.6238
-6.62349
-6.62321
-6.62299
-6.62285
-6.62279
-6.62281
-6.62291
-6.62307
-6.62329
-6.62354
-6.62383
-6.62413
-6.62443
-6.62473
-6.625
-6.62525
-6.62547
-6.62563
-6.62574
-6.62579
-6.72341
-6.72333
-6.7232
-6.72304
-6.72284
-6.72261
-6.72236
-6.72208
-6.72178
-6.72147
-6.72117
-6.72091
-6.7207
-6.72056
-6.72051
-6.72053
-6.72062
-6.72077
-6.72097
-6.7212
-6.72145
-6.72172
-6.72198
-6.72224
-6.72248
-6.7227
-6.72289
-6.72303
-6.72314
-6.72319
-6.82081
-6.82074
-6.82066
-6.82055
-6.8204
-6.82022
-6.82001
-6.81977
-6.8195
-6.81924
-6.81898
-6.81874
-6.81855
-6.81842
-6.81836
-6.81837
-6.81844
-6.81856
-6.81873
-6.81894
-6.81916
-6.81939
-6.81963
-6.81985
-6.82007
-6.82026
-6.82042
-6.82056
-6.82065
-6.8207
-6.9183
-6.91826
-6.9182
-6.91812
-6.918
-6.91785
-6.91767
-6.91746
-6.91724
-6.91702
-6.91681
-6.91661
-6.91645
-6.91633
-6.91627
-6.91626
-6.91631
-6.9164
-6.91655
-6.91672
-6.91692
-6.91713
-6.91734
-6.91754
-6.91774
-6.91791
-6.91806
-6.91818
-6.91827
-6.91831
-7.01594
-7.01591
-7.01586
-7.01578
-7.01567
-7.01553
-7.01537
-7.0152
-7.01501
-7.01483
-7.01466
-7.0145
-7.01437
-7.01427
-7.01421
-7.0142
-7.01423
-7.0143
-7.01442
-7.01457
-7.01474
-7.01493
-7.01512
-7.01531
-7.01549
-7.01565
-7.01579
-7.01589
-7.01597
-7.01601
-7.11371
-7.11369
-7.11363
-7.11355
-7.11344
-7.11331
-7.11316
-7.113
-7.11285
-7.1127
-7.11256
-7.11244
-7.11233
-7.11226
-7.11221
-7.11219
-7.11221
-7.11227
-7.11237
-7.11249
-7.11264
-7.1128
-7.11298
-7.11315
-7.11331
-7.11345
-7.11358
-7.11368
-7.11374
-7.11377
-7.21157
-7.21155
-7.21149
-7.21141
-7.2113
-7.21118
-7.21104
-7.21091
-7.21077
-7.21064
-7.21053
-7.21043
-7.21035
-7.21029
-7.21025
-7.21024
-7.21026
-7.21031
-7.21039
-7.21049
-7.21061
-7.21075
-7.2109
-7.21105
-7.21119
-7.21132
-7.21143
-7.21151
-7.21157
-7.2116
-7.30947
-7.30945
-7.3094
-7.30932
-7.30923
-7.30912
-7.309
-7.30888
-7.30877
-7.30866
-7.30856
-7.30848
-7.30841
-7.30837
-7.30834
-7.30834
-7.30836
-7.3084
-7.30846
-7.30854
-7.30865
-7.30876
-7.30888
-7.30901
-7.30912
-7.30923
-7.30932
-7.30939
-7.30944
-7.30947
-7.4074
-7.40738
-7.40734
-7.40727
-7.40719
-7.4071
-7.407
-7.4069
-7.4068
-7.40671
-7.40663
-7.40656
-7.40651
-7.40647
-7.40645
-7.40645
-7.40646
-7.4065
-7.40655
-7.40662
-7.40671
-7.4068
-7.4069
-7.407
-7.40709
-7.40718
-7.40726
-7.40732
-7.40735
-7.40737
-7.50534
-7.50532
-7.50529
-7.50524
-7.50517
-7.5051
-7.50502
-7.50493
-7.50485
-7.50477
-7.5047
-7.50465
-7.5046
-7.50457
-7.50456
-7.50456
-7.50457
-7.5046
-7.50465
-7.50471
-7.50477
-7.50485
-7.50493
-7.50501
-7.50509
-7.50516
-7.50522
-7.50527
-7.5053
-7.50531
-7.6033
-7.60328
-7.60326
-7.60321
-7.60316
-7.6031
-7.60304
-7.60297
-7.6029
-7.60283
-7.60278
-7.60273
-7.60269
-7.60266
-7.60265
-7.60265
-7.60267
-7.60269
-7.60273
-7.60278
-7.60284
-7.6029
-7.60297
-7.60303
-7.6031
-7.60315
-7.6032
-7.60324
-7.60327
-7.60328
-7.70127
-7.70126
-7.70124
-7.7012
-7.70116
-7.70111
-7.70106
-7.701
-7.70094
-7.70089
-7.70084
-7.7008
-7.70077
-7.70074
-7.70073
-7.70073
-7.70075
-7.70077
-7.70081
-7.70085
-7.7009
-7.70095
-7.701
-7.70106
-7.70111
-7.70116
-7.7012
-7.70123
-7.70125
-7.70126
-7.79926
-7.79925
-7.79923
-7.7992
-7.79917
-7.79913
-7.79908
-7.79904
-7.79899
-7.79894
-7.7989
-7.79886
-7.79884
-7.79882
-7.79881
-7.79881
-7.79882
-7.79884
-7.79887
-7.79891
-7.79895
-7.799
-7.79904
-7.79909
-7.79914
-7.79918
-7.79921
-7.79924
-7.79925
-7.79926
-7.89726
-7.89725
-7.89724
-7.89722
-7.89719
-7.89715
-7.89711
-7.89707
-7.89703
-7.89699
-7.89696
-7.89693
-7.8969
-7.89689
-7.89688
-7.89688
-7.89689
-7.89691
-7.89694
-7.89697
-7.897
-7.89704
-7.89708
-7.89713
-7.89716
-7.8972
-7.89723
-7.89725
-7.89727
-7.89727
-7.99528
-7.99527
-7.99526
-7.99524
-7.99521
-7.99518
-7.99515
-7.99512
-7.99508
-7.99505
-7.99502
-7.99499
-7.99497
-7.99496
-7.99495
-7.99495
-7.99496
-7.99498
-7.995
-7.99503
-7.99506
-7.9951
-7.99513
-7.99517
-7.9952
-7.99523
-7.99525
-7.99528
-7.99529
-7.9953
-8.09331
-8.0933
-8.09329
-8.09327
-8.09325
-8.09323
-8.0932
-8.09317
-8.09314
-8.09311
-8.09308
-8.09306
-8.09305
-8.09303
-8.09303
-8.09303
-8.09304
-8.09305
-8.09307
-8.09309
-8.09312
-8.09315
-8.09318
-8.09321
-8.09324
-8.09327
-8.09329
-8.09331
-8.09332
-8.09333
-8.19135
-8.19134
-8.19133
-8.19132
-8.1913
-8.19128
-8.19125
-8.19123
-8.1912
-8.19118
-8.19116
-8.19114
-8.19112
-8.19111
-8.19111
-8.19111
-8.19112
-8.19113
-8.19115
-8.19117
-8.19119
-8.19122
-8.19124
-8.19127
-8.1913
-8.19132
-8.19134
-8.19135
-8.19136
-8.19137
-8.2894
-8.2894
-8.28939
-8.28937
-8.28936
-8.28934
-8.28932
-8.2893
-8.28928
-8.28926
-8.28924
-8.28922
-8.28921
-8.2892
-8.2892
-8.2892
-8.2892
-8.28922
-8.28923
-8.28925
-8.28927
-8.28929
-8.28931
-8.28934
-8.28936
-8.28938
-8.28939
-8.28941
-8.28942
-8.28942
-8.38746
-8.38746
-8.38745
-8.38744
-8.38743
-8.38741
-8.38739
-8.38737
-8.38736
-8.38734
-8.38732
-8.38731
-8.3873
-8.38729
-8.38729
-8.38729
-8.3873
-8.38731
-8.38732
-8.38733
-8.38735
-8.38737
-8.38739
-8.38741
-8.38743
-8.38745
-8.38746
-8.38747
-8.38748
-8.38748
-8.48553
-8.48553
-8.48552
-8.48551
-8.4855
-8.48549
-8.48547
-8.48546
-8.48544
-8.48543
-8.48542
-8.48541
-8.4854
-8.48539
-8.48539
-8.48539
-8.4854
-8.4854
-8.48541
-8.48543
-8.48544
-8.48546
-8.48547
-8.48549
-8.48551
-8.48552
-8.48553
-8.48554
-8.48555
-8.48555
-8.58361
-8.58361
-8.5836
-8.5836
-8.58359
-8.58358
-8.58356
-8.58355
-8.58354
-8.58353
-8.58351
-8.58351
-8.5835
-8.58349
-8.58349
-8.58349
-8.5835
-8.5835
-8.58351
-8.58352
-8.58354
-8.58355
-8.58357
-8.58358
-8.58359
-8.58361
-8.58362
-8.58363
-8.58363
-8.58363
-8.6817
-8.6817
-8.68169
-8.68169
-8.68168
-8.68167
-8.68166
-8.68165
-8.68164
-8.68163
-8.68162
-8.68161
-8.6816
-8.6816
-8.6816
-8.6816
-8.6816
-8.68161
-8.68162
-8.68163
-8.68164
-8.68165
-8.68166
-8.68167
-8.68169
-8.6817
-8.68171
-8.68171
-8.68172
-8.68172
-8.7798
-8.77979
-8.77979
-8.77978
-8.77978
-8.77977
-8.77976
-8.77975
-8.77974
-8.77973
-8.77972
-8.77972
-8.77971
-8.77971
-8.77971
-8.77971
-8.77971
-8.77972
-8.77972
-8.77973
-8.77974
-8.77975
-8.77976
-8.77977
-8.77978
-8.77979
-8.7798
-8.77981
-8.77981
-8.77982
-8.8779
-8.87789
-8.87789
-8.87789
-8.87788
-8.87787
-8.87786
-8.87786
-8.87785
-8.87784
-8.87783
-8.87783
-8.87782
-8.87782
-8.87782
-8.87782
-8.87782
-8.87783
-8.87783
-8.87784
-8.87785
-8.87786
-8.87787
-8.87788
-8.87789
-8.8779
-8.8779
-8.87791
-8.87791
-8.87792
-8.976
-8.976
-8.976
-8.97599
-8.97599
-8.97598
-8.97597
-8.97597
-8.97596
-8.97595
-8.97594
-8.97594
-8.97594
-8.97593
-8.97593
-8.97593
-8.97594
-8.97594
-8.97595
-8.97595
-8.97596
-8.97597
-8.97598
-8.97599
-8.97599
-8.976
-8.97601
-8.97601
-8.97602
-8.97602
-9.07411
-9.07411
-9.07411
-9.0741
-9.0741
-9.07409
-9.07409
-9.07408
-9.07407
-9.07407
-9.07406
-9.07406
-9.07405
-9.07405
-9.07405
-9.07405
-9.07405
-9.07406
-9.07406
-9.07407
-9.07408
-9.07408
-9.07409
-9.0741
-9.07411
-9.07411
-9.07412
-9.07412
-9.07413
-9.07413
-9.17222
-9.17222
-9.17222
-9.17222
-9.17221
-9.17221
-9.1722
-9.1722
-9.17219
-9.17219
-9.17218
-9.17218
-9.17217
-9.17217
-9.17217
-9.17217
-9.17217
-9.17218
-9.17218
-9.17219
-9.17219
-9.1722
-9.17221
-9.17221
-9.17222
-9.17223
-9.17223
-9.17223
-9.17224
-9.17224
-9.27034
-9.27034
-9.27033
-9.27033
-9.27033
-9.27032
-9.27032
-9.27032
-9.27031
-9.27031
-9.2703
-9.2703
-9.2703
-9.27029
-9.27029
-9.27029
-9.2703
-9.2703
-9.2703
-9.27031
-9.27031
-9.27032
-9.27032
-9.27033
-9.27034
-9.27034
-9.27034
-9.27035
-9.27035
-9.27035
-9.36845
-9.36845
-9.36845
-9.36845
-9.36845
-9.36844
-9.36844
-9.36844
-9.36843
-9.36843
-9.36843
-9.36842
-9.36842
-9.36842
-9.36842
-9.36842
-9.36842
-9.36842
-9.36843
-9.36843
-9.36843
-9.36844
-9.36844
-9.36845
-9.36845
-9.36846
-9.36846
-9.36846
-9.36847
-9.36847
-9.46657
-9.46657
-9.46657
-9.46657
-9.46657
-9.46657
-9.46656
-9.46656
-9.46656
-9.46655
-9.46655
-9.46655
-9.46655
-9.46655
-9.46655
-9.46655
-9.46655
-9.46655
-9.46655
-9.46655
-9.46656
-9.46656
-9.46657
-9.46657
-9.46657
-9.46658
-9.46658
-9.46658
-9.46658
-9.46658
-9.56469
-9.56469
-9.56469
-9.56469
-9.56469
-9.56469
-9.56469
-9.56468
-9.56468
-9.56468
-9.56468
-9.56468
-9.56468
-9.56467
-9.56467
-9.56467
-9.56468
-9.56468
-9.56468
-9.56468
-9.56468
-9.56469
-9.56469
-9.56469
-9.56469
-9.5647
-9.5647
-9.5647
-9.5647
-9.5647
-9.66282
-9.66282
-9.66282
-9.66281
-9.66281
-9.66281
-9.66281
-9.66281
-9.66281
-9.66281
-9.66281
-9.66281
-9.6628
-9.6628
-9.6628
-9.6628
-9.6628
-9.66281
-9.66281
-9.66281
-9.66281
-9.66281
-9.66281
-9.66281
-9.66282
-9.66282
-9.66282
-9.66282
-9.66282
-9.66282
-9.76094
-9.76094
-9.76094
-9.76094
-9.76094
-9.76094
-9.76094
-9.76094
-9.76094
-9.76094
-9.76094
-9.76093
-9.76093
-9.76093
-9.76093
-9.76093
-9.76093
-9.76093
-9.76093
-9.76094
-9.76094
-9.76094
-9.76094
-9.76094
-9.76094
-9.76094
-9.76094
-9.76094
-9.76094
-9.76094
4847.51
4847.51
4847.51
4847.51
4847.51
4847.51
4847.51
4847.51
4847.51
4847.51
4847.51
4847.51
4847.51
4847.51
4847.51
4847.51
4847.51
4847.51
4847.51
4847.51
4847.51
4847.51
4847.51
4847.51
4847.51
4847.51
4847.52
4847.52
4847.52
4847.52
4749.41
4749.41
4749.41
4749.41
4749.41
4749.41
4749.41
4749.41
4749.41
4749.41
4749.41
4749.41
4749.41
4749.41
4749.41
4749.41
4749.41
4749.41
4749.41
4749.41
4749.41
4749.41
4749.41
4749.41
4749.41
4749.41
4749.41
4749.41
4749.41
4749.42
4651.31
4651.31
4651.31
4651.31
4651.31
4651.31
4651.31
4651.31
4651.31
4651.31
4651.31
4651.31
4651.31
4651.31
4651.31
4651.31
4651.31
4651.31
4651.31
4651.31
4651.31
4651.31
4651.31
4651.31
4651.31
4651.31
4651.31
4651.31
4651.31
4651.31
4553.21
4553.21
4553.21
4553.21
4553.21
4553.21
4553.21
4553.21
4553.21
4553.21
4553.21
4553.21
4553.21
4553.21
4553.21
4553.21
4553.21
4553.21
4553.21
4553.21
4553.21
4553.21
4553.21
4553.21
4553.21
4553.21
4553.21
4553.21
4553.21
4553.21
4455.11
4455.11
4455.11
4455.11
4455.11
4455.11
4455.11
4455.11
4455.11
4455.11
4455.11
4455.1
4455.1
4455.1
4455.1
4455.1
4455.1
4455.1
4455.11
4455.11
4455.11
4455.11
4455.11
4455.11
4455.11
4455.11
4455.11
4455.11
4455.11
4455.11
4357.01
4357.01
4357.01
4357.01
4357.01
4357.01
4357.01
4357
4357
4357
4357
4357
4357
4357
4357
4357
4357
4357
4357
4357
4357
4357
4357.01
4357.01
4357.01
4357.01
4357.01
4357.01
4357.01
4357.01
4258.91
4258.91
4258.91
4258.91
4258.91
4258.9
4258.9
4258.9
4258.9
4258.9
4258.9
4258.9
4258.9
4258.9
4258.9
4258.9
4258.9
4258.9
4258.9
4258.9
4258.9
4258.9
4258.9
4258.9
4258.9
4258.91
4258.91
4258.91
4258.91
4258.91
4160.81
4160.81
4160.81
4160.8
4160.8
4160.8
4160.8
4160.8
4160.8
4160.8
4160.8
4160.8
4160.8
4160.8
4160.8
4160.8
4160.8
4160.8
4160.8
4160.8
4160.8
4160.8
4160.8
4160.8
4160.8
4160.8
4160.81
4160.81
4160.81
4160.81
4062.7
4062.7
4062.7
4062.7
4062.7
4062.7
4062.7
4062.7
4062.7
4062.69
4062.69
4062.69
4062.69
4062.69
4062.69
4062.69
4062.69
4062.69
4062.7
4062.7
4062.7
4062.7
4062.7
4062.7
4062.7
4062.7
4062.7
4062.7
4062.7
4062.7
3964.6
3964.6
3964.6
3964.6
3964.6
3964.6
3964.6
3964.59
3964.59
3964.59
3964.59
3964.59
3964.59
3964.59
3964.59
3964.59
3964.59
3964.59
3964.59
3964.59
3964.6
3964.6
3964.6
3964.6
3964.6
3964.6
3964.6
3964.6
3964.6
3964.6
3866.5
3866.5
3866.5
3866.5
3866.5
3866.49
3866.49
3866.49
3866.49
3866.49
3866.49
3866.49
3866.49
3866.49
3866.49
3866.49
3866.49
3866.49
3866.49
3866.49
3866.49
3866.49
3866.5
3866.5
3866.5
3866.5
3866.5
3866.5
3866.5
3866.5
3768.39
3768.39
3768.39
3768.39
3768.39
3768.39
3768.39
3768.39
3768.39
3768.39
3768.39
3768.38
3768.38
3768.38
3768.38
3768.38
3768.38
3768.38
3768.39
3768.39
3768.39
3768.39
3768.39
3768.4
3768.4
3768.4
3768.4
3768.4
3768.4
3768.4
3670.29
3670.29
3670.29
3670.29
3670.29
3670.29
3670.29
3670.29
3670.29
3670.29
3670.28
3670.28
3670.28
3670.28
3670.28
3670.28
3670.28
3670.28
3670.28
3670.28
3670.29
3670.29
3670.29
3670.29
3670.29
3670.3
3670.3
3670.3
3670.3
3670.3
3572.19
3572.19
3572.19
3572.19
3572.19
3572.19
3572.19
3572.19
3572.18
3572.18
3572.18
3572.18
3572.18
3572.18
3572.18
3572.18
3572.18
3572.18
3572.18
3572.18
3572.18
3572.19
3572.19
3572.19
3572.19
3572.19
3572.2
3572.2
3572.2
3572.2
3474.09
3474.09
3474.09
3474.09
3474.09
3474.09
3474.09
3474.09
3474.08
3474.08
3474.08
3474.08
3474.07
3474.07
3474.07
3474.07
3474.07
3474.07
3474.07
3474.08
3474.08
3474.08
3474.08
3474.09
3474.09
3474.09
3474.1
3474.1
3474.1
3474.1
3376
3376
3376
3375.99
3375.99
3375.99
3375.99
3375.98
3375.98
3375.98
3375.98
3375.97
3375.97
3375.97
3375.97
3375.97
3375.97
3375.97
3375.97
3375.97
3375.97
3375.98
3375.98
3375.99
3375.99
3375.99
3376
3376
3376
3376
3277.9
3277.9
3277.9
3277.9
3277.9
3277.89
3277.89
3277.88
3277.88
3277.88
3277.87
3277.87
3277.87
3277.86
3277.86
3277.86
3277.86
3277.86
3277.87
3277.87
3277.87
3277.88
3277.88
3277.89
3277.89
3277.9
3277.9
3277.9
3277.9
3277.91
3179.81
3179.81
3179.81
3179.81
3179.8
3179.8
3179.79
3179.79
3179.78
3179.77
3179.77
3179.77
3179.76
3179.76
3179.76
3179.76
3179.76
3179.76
3179.76
3179.77
3179.77
3179.78
3179.78
3179.79
3179.79
3179.8
3179.8
3179.81