/*--------------------------------*- C++ -*----------------------------------*\
| =========                 |                                                 |
| \\      /  F ield         | OpenFOAM: The Open Source CFD Toolbox           |
|  \\    /   O peration     | Version:  2312                                  |
|   \\  /    A nd           | Website:  www.openfoam.com                      |
|    \\/     M anipulation  |                                                 |
\*---------------------------------------------------------------------------*/
FoamFile
{
    version     2.0;
    format      ascii;
    arch        "LSB;label=32;scalar=64";
    class       volScalarField;
    location    "0.602264";
    object      p_rgh;
}
// * * * * * * * * * * * * * * * * * * * * * * * * * * * * * * * * * * * * * //

dimensions      [1 -1 -2 0 0 0 0];

internalField   nonuniform List<scalar> 
90000
(
4896.56
4896.56
4896.56
4896.56
4896.56
4896.56
4896.56
4896.56
4896.56
4896.56
4896.56
4896.56
4896.56
4896.56
4896.56
4896.56
4896.56
4896.56
4896.56
4896.56
4896.56
4896.56
4896.56
4896.56
4896.56
4896.56
4896.57
4896.57
4896.57
4896.57
4896.56
4896.56
4896.56
4896.56
4896.56
4896.56
4896.56
4896.57
4896.57
4896.57
4896.56
4896.56
4896.56
4896.56
4896.56
4896.56
4896.56
4896.56
4896.56
4896.56
4896.56
4896.56
4896.56
4896.56
4896.56
4896.57
4896.57
4896.57
4896.58
4896.6
4896.56
4896.56
4896.56
4896.56
4896.56
4896.56
4896.56
4896.56
4896.56
4896.56
4896.56
4896.56
4896.56
4896.56
4896.56
4896.56
4896.56
4896.56
4896.56
4896.56
4896.56
4896.56
4896.56
4896.56
4896.56
4896.56
4896.56
4896.56
4896.54
4896.57
4896.56
4896.56
4896.56
4896.56
4896.56
4896.56
4896.56
4896.56
4896.56
4896.56
4896.56
4896.56
4896.56
4896.56
4896.56
4896.56
4896.56
4896.56
4896.56
4896.56
4896.56
4896.56
4896.56
4896.56
4896.56
4896.56
4896.57
4896.57
4896.55
4896.56
4896.56
4896.57
4896.57
4896.57
4896.56
4896.56
4896.56
4896.56
4896.56
4896.56
4896.56
4896.56
4896.56
4896.56
4896.56
4896.56
4896.56
4896.56
4896.56
4896.56
4896.56
4896.56
4896.56
4896.56
4896.56
4896.56
4896.56
4896.56
4896.55
4896.55
4896.56
4896.57
4896.57
4896.57
4896.57
4896.56
4896.56
4896.56
4896.56
4896.56
4896.56
4896.56
4896.56
4896.56
4896.56
4896.56
4896.56
4896.55
4896.56
4896.56
4896.56
4896.56
4896.56
4896.56
4896.56
4896.56
4896.55
4896.55
4896.55
4896.55
4896.57
4896.58
4896.57
4896.57
4896.57
4896.56
4896.56
4896.56
4896.56
4896.56
4896.56
4896.56
4896.56
4896.56
4896.56
4896.55
4896.55
4896.55
4896.55
4896.55
4896.55
4896.56
4896.56
4896.56
4896.55
4896.55
4896.55
4896.55
4896.55
4896.55
4896.57
4896.58
4896.57
4896.57
4896.57
4896.56
4896.56
4896.55
4896.55
4896.55
4896.55
4896.55
4896.55
4896.55
4896.55
4896.55
4896.55
4896.55
4896.55
4896.55
4896.55
4896.55
4896.55
4896.55
4896.55
4896.55
4896.55
4896.55
4896.55
4896.56
4896.57
4896.58
4896.57
4896.57
4896.56
4896.56
4896.55
4896.55
4896.55
4896.54
4896.54
4896.54
4896.54
4896.55
4896.55
4896.55
4896.55
4896.55
4896.55
4896.55
4896.55
4896.55
4896.55
4896.55
4896.55
4896.55
4896.55
4896.55
4896.56
4896.56
4896.57
4896.58
4896.57
4896.57
4896.57
4896.56
4896.55
4896.55
4896.54
4896.54
4896.53
4896.53
4896.53
4896.54
4896.54
4896.54
4896.54
4896.54
4896.55
4896.55
4896.55
4896.55
4896.55
4896.55
4896.55
4896.55
4896.55
4896.55
4896.56
4896.56
4896.57
4896.58
4896.58
4896.57
4896.57
4896.56
4896.55
4896.54
4896.54
4896.53
4896.52
4896.52
4896.52
4896.52
4896.53
4896.53
4896.53
4896.54
4896.54
4896.54
4896.54
4896.54
4896.54
4896.54
4896.55
4896.55
4896.55
4896.55
4896.55
4896.55
4896.57
4896.58
4896.58
4896.57
4896.57
4896.56
4896.55
4896.54
4896.53
4896.52
4896.52
4896.51
4896.51
4896.51
4896.52
4896.52
4896.52
4896.53
4896.54
4896.54
4896.54
4896.55
4896.55
4896.55
4896.55
4896.55
4896.55
4896.55
4896.55
4896.55
4896.57
4896.58
4896.57
4896.57
4896.56
4896.55
4896.55
4896.54
4896.53
4896.52
4896.51
4896.51
4896.51
4896.51
4896.51
4896.51
4896.52
4896.53
4896.53
4896.54
4896.55
4896.55
4896.56
4896.56
4896.56
4896.56
4896.56
4896.56
4896.56
4896.56
4896.56
4896.56
4896.55
4896.55
4896.54
4896.54
4896.53
4896.53
4896.53
4896.52
4896.52
4896.51
4896.51
4896.51
4896.51
4896.51
4896.52
4896.53
4896.54
4896.55
4896.55
4896.56
4896.56
4896.57
4896.57
4896.56
4896.56
4896.56
4896.56
4896.56
4896.55
4896.52
4896.52
4896.52
4896.52
4896.52
4896.52
4896.53
4896.53
4896.53
4896.53
4896.52
4896.52
4896.51
4896.51
4896.51
4896.52
4896.53
4896.54
4896.55
4896.55
4896.56
4896.56
4896.56
4896.56
4896.56
4896.56
4896.55
4896.55
4896.54
4896.53
4896.49
4896.49
4896.49
4896.5
4896.51
4896.52
4896.53
4896.54
4896.54
4896.54
4896.53
4896.52
4896.52
4896.51
4896.51
4896.51
4896.52
4896.52
4896.53
4896.54
4896.54
4896.55
4896.55
4896.55
4896.55
4896.55
4896.54
4896.53
4896.53
4896.51
4896.46
4896.47
4896.48
4896.49
4896.51
4896.52
4896.53
4896.54
4896.54
4896.53
4896.52
4896.51
4896.51
4896.5
4896.5
4896.5
4896.5
4896.51
4896.51
4896.52
4896.52
4896.53
4896.54
4896.54
4896.54
4896.54
4896.53
4896.52
4896.53
4896.5
4896.47
4896.48
4896.49
4896.5
4896.51
4896.52
4896.53
4896.53
4896.52
4896.52
4896.51
4896.5
4896.5
4896.49
4896.49
4896.49
4896.49
4896.5
4896.5
4896.51
4896.51
4896.52
4896.53
4896.53
4896.53
4896.53
4896.52
4896.53
4896.54
4896.51
4896.49
4896.5
4896.51
4896.52
4896.53
4896.53
4896.53
4896.52
4896.51
4896.51
4896.5
4896.5
4896.5
4896.5
4896.49
4896.49
4896.49
4896.49
4896.5
4896.51
4896.51
4896.52
4896.52
4896.52
4896.52
4896.52
4896.53
4896.54
4896.55
4896.54
4896.53
4896.54
4896.54
4896.54
4896.54
4896.54
4896.54
4896.53
4896.52
4896.52
4896.51
4896.51
4896.51
4896.5
4896.5
4896.49
4896.49
4896.5
4896.5
4896.5
4896.51
4896.51
4896.51
4896.52
4896.52
4896.53
4896.55
4896.56
4896.55
4896.57
4896.57
4896.57
4896.57
4896.57
4896.57
4896.57
4896.56
4896.55
4896.54
4896.53
4896.53
4896.52
4896.51
4896.5
4896.49
4896.49
4896.49
4896.49
4896.49
4896.5
4896.51
4896.51
4896.52
4896.53
4896.55
4896.56
4896.57
4896.57
4896.57
4896.6
4896.6
4896.61
4896.61
4896.61
4896.6
4896.59
4896.58
4896.57
4896.55
4896.54
4896.52
4896.51
4896.5
4896.49
4896.49
4896.49
4896.49
4896.49
4896.5
4896.51
4896.51
4896.53
4896.55
4896.57
4896.59
4896.6
4896.6
4896.59
4896.6
4896.64
4896.64
4896.64
4896.64
4896.64
4896.63
4896.61
4896.6
4896.58
4896.56
4896.54
4896.52
4896.5
4896.49
4896.49
4896.49
4896.5
4896.5
4896.5
4896.51
4896.52
4896.54
4896.56
4896.59
4896.61
4896.62
4896.63
4896.62
4896.62
4896.63
4896.67
4896.69
4896.68
4896.68
4896.67
4896.65
4896.63
4896.61
4896.58
4896.56
4896.54
4896.51
4896.5
4896.49
4896.5
4896.5
4896.5
4896.51
4896.51
4896.52
4896.54
4896.57
4896.61
4896.63
4896.65
4896.66
4896.66
4896.66
4896.68
4896.69
4896.72
4896.73
4896.72
4896.71
4896.69
4896.66
4896.64
4896.61
4896.59
4896.56
4896.53
4896.51
4896.5
4896.5
4896.5
4896.5
4896.5
4896.5
4896.52
4896.54
4896.57
4896.61
4896.64
4896.67
4896.68
4896.7
4896.71
4896.73
4896.75
4896.75
4896.77
4896.77
4896.76
4896.73
4896.7
4896.67
4896.64
4896.62
4896.59
4896.56
4896.53
4896.51
4896.51
4896.51
4896.51
4896.51
4896.5
4896.51
4896.53
4896.57
4896.6
4896.64
4896.67
4896.69
4896.71
4896.74
4896.76
4896.79
4896.81
4896.8
4896.82
4896.81
4896.78
4896.75
4896.72
4896.69
4896.66
4896.63
4896.6
4896.57
4896.55
4896.54
4896.53
4896.53
4896.52
4896.51
4896.52
4896.53
4896.56
4896.59
4896.62
4896.64
4896.67
4896.69
4896.72
4896.76
4896.79
4896.82
4896.84
4896.81
4896.87
4896.84
4896.82
4896.79
4896.76
4896.73
4896.7
4896.66
4896.63
4896.6
4896.58
4896.56
4896.55
4896.54
4896.52
4896.51
4896.52
4896.54
4896.57
4896.59
4896.61
4896.64
4896.67
4896.7
4896.74
4896.78
4896.83
4896.85
4896.86
4896.86
4896.93
4896.89
4896.87
4896.85
4896.82
4896.79
4896.75
4896.7
4896.66
4896.63
4896.61
4896.59
4896.56
4896.54
4896.52
4896.51
4896.53
4896.55
4896.57
4896.59
4896.62
4896.65
4896.69
4896.74
4896.79
4896.85
4896.9
4896.92
4896.94
4896.97
4897.01
4896.97
4896.96
4896.93
4896.9
4896.86
4896.81
4896.75
4896.71
4896.67
4896.64
4896.61
4896.58
4896.55
4896.54
4896.54
4896.55
4896.58
4896.6
4896.62
4896.66
4896.7
4896.74
4896.8
4896.87
4896.93
4896.98
4897
4897.05
4897.07
4897.11
4897.09
4897.07
4897.04
4897
4896.95
4896.88
4896.82
4896.77
4896.73
4896.7
4896.66
4896.62
4896.59
4896.59
4896.59
4896.61
4896.63
4896.65
4896.69
4896.73
4896.77
4896.82
4896.89
4896.96
4897.01
4897.05
4897.11
4897.15
4897.15
4897.24
4897.23
4897.21
4897.18
4897.13
4897.06
4896.99
4896.92
4896.86
4896.81
4896.76
4896.72
4896.68
4896.66
4896.65
4896.66
4896.67
4896.69
4896.73
4896.76
4896.8
4896.85
4896.92
4897.01
4897.06
4897.1
4897.17
4897.24
4897.26
4897.26
4897.4
4897.4
4897.38
4897.34
4897.27
4897.19
4897.11
4897.03
4896.96
4896.9
4896.85
4896.81
4896.77
4896.75
4896.74
4896.75
4896.76
4896.78
4896.82
4896.85
4896.9
4896.97
4897.05
4897.12
4897.17
4897.22
4897.32
4897.38
4897.37
4897.4
4897.59
4897.6
4897.57
4897.51
4897.43
4897.35
4897.26
4897.18
4897.11
4897.05
4896.98
4896.93
4896.9
4896.87
4896.86
4896.86
4896.88
4896.9
4896.94
4896.97
4897.03
4897.13
4897.19
4897.24
4897.32
4897.41
4897.49
4897.52
4897.54
4897.55
4897.81
4897.81
4897.76
4897.7
4897.63
4897.55
4897.47
4897.39
4897.31
4897.23
4897.16
4897.1
4897.05
4897.03
4897.02
4897.02
4897.04
4897.06
4897.1
4897.16
4897.24
4897.34
4897.39
4897.46
4897.57
4897.66
4897.7
4897.72
4897.76
4897.79
4898.04
4898.03
4897.99
4897.94
4897.87
4897.8
4897.72
4897.64
4897.55
4897.46
4897.38
4897.32
4897.27
4897.24
4897.24
4897.25
4897.26
4897.29
4897.34
4897.42
4897.5
4897.59
4897.64
4897.74
4897.86
4897.9
4897.92
4897.96
4898
4898.04
4898.29
4898.28
4898.25
4898.2
4898.15
4898.09
4898.02
4897.93
4897.84
4897.75
4897.67
4897.61
4897.57
4897.54
4897.54
4897.54
4897.55
4897.57
4897.64
4897.73
4897.79
4897.86
4897.94
4898.05
4898.13
4898.15
4898.19
4898.25
4898.3
4898.29
4898.57
4898.56
4898.53
4898.5
4898.47
4898.42
4898.36
4898.28
4898.19
4898.12
4898.05
4897.99
4897.95
4897.91
4897.89
4897.89
4897.9
4897.94
4898.02
4898.1
4898.14
4898.22
4898.3
4898.37
4898.41
4898.45
4898.5
4898.53
4898.57
4898.57
4898.86
4898.86
4898.85
4898.84
4898.83
4898.79
4898.75
4898.69
4898.64
4898.59
4898.53
4898.47
4898.42
4898.39
4898.37
4898.37
4898.39
4898.43
4898.49
4898.54
4898.57
4898.65
4898.71
4898.73
4898.76
4898.81
4898.82
4898.84
4898.85
4898.87
4899.16
4899.18
4899.2
4899.2
4899.21
4899.21
4899.22
4899.22
4899.2
4899.17
4899.13
4899.07
4899.05
4899.03
4899.02
4899.01
4899.03
4899.06
4899.11
4899.12
4899.15
4899.21
4899.23
4899.22
4899.24
4899.24
4899.2
4899.2
4899.21
4899.18
4899.46
4899.5
4899.53
4899.57
4899.63
4899.71
4899.78
4899.84
4899.87
4899.87
4899.87
4899.85
4899.86
4899.85
4899.84
4899.84
4899.86
4899.85
4899.87
4899.86
4899.88
4899.87
4899.84
4899.78
4899.72
4899.64
4899.58
4899.54
4899.5
4899.46
4899.7
4899.76
4899.83
4899.94
4900.09
4900.26
4900.42
4900.56
4900.67
4900.74
4900.8
4900.84
4900.9
4900.91
4900.91
4900.88
4900.9
4900.88
4900.88
4900.82
4900.78
4900.68
4900.55
4900.41
4900.25
4900.09
4899.96
4899.83
4899.73
4899.67
4899.84
4899.92
4900.06
4900.28
4900.55
4900.85
4901.14
4901.4
4901.63
4901.83
4901.99
4902.12
4902.22
4902.26
4902.26
4902.28
4902.28
4902.22
4902.13
4902.01
4901.85
4901.65
4901.41
4901.13
4900.83
4900.56
4900.3
4900.08
4899.94
4899.81
4899.8
4899.92
4900.17
4900.54
4900.98
4901.45
4901.94
4902.39
4902.79
4903.17
4903.47
4903.72
4903.88
4903.99
4904.02
4904.05
4903.99
4903.89
4903.7
4903.49
4903.17
4902.79
4902.38
4901.91
4901.43
4900.97
4900.52
4900.19
4899.92
4899.78
4899.47
4899.66
4900.06
4900.63
4901.3
4902.03
4902.77
4903.51
4904.2
4904.8
4905.29
4905.7
4905.96
4906.16
4906.23
4906.29
4906.18
4905.98
4905.67
4905.29
4904.79
4904.21
4903.53
4902.78
4902.01
4901.3
4900.64
4900.08
4899.66
4899.45
4898.72
4899.03
4899.61
4900.45
4901.44
4902.54
4903.68
4904.78
4905.82
4906.75
4907.51
4908.13
4908.57
4908.88
4909.02
4909.04
4908.89
4908.56
4908.13
4907.53
4906.74
4905.83
4904.8
4903.69
4902.55
4901.43
4900.43
4899.6
4899.01
4898.71
4897.33
4897.78
4898.66
4899.89
4901.34
4902.92
4904.58
4906.21
4907.69
4909.07
4910.2
4911.13
4911.81
4912.27
4912.5
4912.52
4912.29
4911.8
4911.12
4910.21
4909.05
4907.69
4906.18
4904.56
4902.93
4901.33
4899.85
4898.67
4897.75
4897.31
4894.99
4895.65
4896.9
4898.6
4900.68
4903
4905.35
4907.69
4909.81
4911.77
4913.42
4914.76
4915.76
4916.44
4916.78
4916.81
4916.43
4915.76
4914.78
4913.43
4911.75
4909.81
4907.67
4905.36
4903.01
4900.7
4898.62
4896.93
4895.64
4895
4891.43
4892.4
4894.26
4896.76
4899.65
4902.86
4906.16
4909.38
4912.39
4915.09
4917.42
4919.32
4920.76
4921.73
4922.21
4922.21
4921.73
4920.76
4919.32
4917.42
4915.09
4912.39
4909.38
4906.16
4902.86
4899.65
4896.74
4894.26
4892.39
4891.44
3729.29
3767.24
3843.1
3930.53
4024.62
4127.04
4224.08
4315.32
4398.1
4470.94
4534.79
4588.75
4627.28
4649.16
4660.5
4660.55
4649.12
4627.37
4588.81
4534.84
4471.04
4398.18
4315.37
4224.09
4127.09
4024.61
3930.47
3843.14
3767.08
3729.29
377.842
411.232
476.215
566.421
679.572
813.351
966.548
1129.01
1288.37
1437.83
1572.08
1680
1769.58
1831.69
1862.06
1862
1831.67
1769.49
1679.93
1571.98
1437.69
1288.26
1128.91
966.446
813.26
679.505
566.34
476.178
411.172
377.809
24.8767
23.2203
20.9817
19.1437
18.3476
18.4695
19.2652
20.1672
20.6829
20.9406
20.9354
22.6728
25.7025
27.634
28.9992
29.0017
27.6237
25.6955
22.6616
20.9296
20.9314
20.6752
20.1571
19.2572
18.4628
18.3414
19.1313
20.9793
23.2176
24.883
7.70105
6.83934
5.42152
4.31873
3.71277
3.54442
3.64245
3.76373
3.79715
3.76678
3.76951
3.8614
3.88945
3.89393
3.92792
3.92702
3.89322
3.88834
3.85948
3.76754
3.76559
3.79603
3.76334
3.64235
3.54487
3.71385
4.31613
5.4227
6.84302
7.7047
1.97008
1.74776
1.23184
0.868618
0.660362
0.573093
0.569012
0.58915
0.629177
0.683321
0.727709
0.777063
0.81012
0.811372
0.815995
0.815959
0.81149
0.810507
0.77752
0.72841
0.683725
0.629806
0.590483
0.570899
0.574312
0.661551
0.869132
1.23281
1.74957
1.97108
0.390708
0.359772
0.2274
0.138093
0.0857218
0.0586679
0.0493471
0.0486084
0.051552
0.0645916
0.08382
0.110938
0.134371
0.143694
0.147593
0.147628
0.14385
0.134714
0.111847
0.0842758
0.0652048
0.0527526
0.0491641
0.0500087
0.0591436
0.0860621
0.1385
0.227987
0.36062
0.390702
0.0509333
0.0491262
0.0220571
0.00336012
-0.00848732
-0.015943
-0.0205157
-0.0234518
-0.0258512
-0.0259619
-0.0232814
-0.0180726
-0.0100887
-0.00555688
-0.00230448
-0.00229598
-0.00554759
-0.0100064
-0.0178484
-0.0231421
-0.0257975
-0.0255942
-0.0232498
-0.0202508
-0.015659
-0.00822927
0.00357081
0.0223079
0.0494913
0.0508232
-0.00715887
-0.00704667
-0.0121381
-0.0163153
-0.0196435
-0.0224006
-0.0247047
-0.0266685
-0.0284533
-0.0299676
-0.0310314
-0.0314406
-0.0311211
-0.0305881
-0.0296907
-0.0297138
-0.0306488
-0.0311678
-0.0314524
-0.0310194
-0.0299313
-0.0283993
-0.0265684
-0.0245203
-0.0221585
-0.0193974
-0.0161413
-0.0120896
-0.0070185
-0.00718992
-0.0143332
-0.0144125
-0.0157234
-0.01721
-0.0187389
-0.0202319
-0.021627
-0.0228897
-0.0240143
-0.0249857
-0.025802
-0.0264915
-0.0270142
-0.0274043
-0.0275275
-0.0275542
-0.0274636
-0.0270574
-0.0264948
-0.0257747
-0.0249415
-0.0239557
-0.0227939
-0.0214544
-0.0199854
-0.0184669
-0.0170022
-0.01565
-0.0144374
-0.0143478
-0.0141329
-0.0143377
-0.0149387
-0.0157481
-0.016626
-0.0175081
-0.0183624
-0.0191517
-0.0198393
-0.0203928
-0.020788
-0.0210506
-0.0212131
-0.0213466
-0.0214072
-0.0214161
-0.0213549
-0.0211856
-0.0209793
-0.0206805
-0.0202607
-0.0196999
-0.0189999
-0.0181655
-0.0172465
-0.0163171
-0.01547
-0.0147738
-0.0142842
-0.0141818
-0.0131441
-0.013225
-0.0135412
-0.0139763
-0.01445
-0.0149344
-0.0154019
-0.015817
-0.0161495
-0.0163794
-0.0165051
-0.0165453
-0.0165293
-0.0165041
-0.0164855
-0.0165192
-0.0165837
-0.0166173
-0.0166253
-0.0165632
-0.0163965
-0.0161299
-0.015772
-0.0153228
-0.0148109
-0.0142801
-0.0137923
-0.013395
-0.0131342
-0.0130655
-0.0118483
-0.0118531
-0.0120397
-0.0122757
-0.0125374
-0.0127897
-0.0130054
-0.0131512
-0.0132131
-0.0132022
-0.013144
-0.0130622
-0.0129746
-0.0129012
-0.0128546
-0.0128727
-0.0129371
-0.0129983
-0.013064
-0.0131178
-0.0131268
-0.0130827
-0.012989
-0.0128372
-0.0126319
-0.0123876
-0.0121376
-0.0119175
-0.011768
-0.0117268
-0.0104606
-0.010492
-0.0105749
-0.0106764
-0.0107735
-0.0108432
-0.0108556
-0.010793
-0.0106675
-0.010509
-0.0103446
-0.0101877
-0.010044
-0.00992305
-0.00984166
-0.00982327
-0.00985974
-0.0099279
-0.0100356
-0.0101826
-0.010341
-0.010485
-0.0106008
-0.0106687
-0.0106768
-0.0106246
-0.0105309
-0.0104286
-0.0103574
-0.0103492
-0.00922413
-0.00923851
-0.00920752
-0.00917054
-0.00910758
-0.00900043
-0.00883122
-0.00861076
-0.00836555
-0.00812317
-0.00790156
-0.00770449
-0.00752942
-0.00738344
-0.00729006
-0.00727733
-0.00734632
-0.00747707
-0.00766057
-0.00789311
-0.00815321
-0.00841044
-0.00864172
-0.00882584
-0.00894995
-0.00901267
-0.00902674
-0.00901853
-0.0090189
-0.00904744
-0.00812774
-0.00807462
-0.00798214
-0.00785596
-0.00768649
-0.00745836
-0.00718303
-0.00688399
-0.00658362
-0.00630093
-0.00604659
-0.00582062
-0.00562055
-0.00545513
-0.00535029
-0.00533862
-0.00542936
-0.00560509
-0.00584078
-0.00611793
-0.00641607
-0.00671123
-0.00698494
-0.00722282
-0.00741581
-0.00756225
-0.00766768
-0.00774461
-0.00780689
-0.00786109
-0.00701131
-0.00693416
-0.0068199
-0.00664819
-0.00641768
-0.00614001
-0.00583652
-0.0055219
-0.00520928
-0.00491031
-0.00463263
-0.00438073
-0.00415972
-0.00398052
-0.00386384
-0.00383648
-0.00391327
-0.00408549
-0.00432737
-0.00461281
-0.00492015
-0.00523109
-0.00553259
-0.00581472
-0.00606909
-0.00628938
-0.00647109
-0.00661269
-0.00671506
-0.0067779
-0.00594894
-0.00588926
-0.00574348
-0.00552457
-0.00525459
-0.00496058
-0.00465372
-0.00433981
-0.00402419
-0.0037124
-0.00341386
-0.00314287
-0.00291468
-0.00274206
-0.00263688
-0.00261325
-0.00268194
-0.00284087
-0.00307267
-0.00335446
-0.00366598
-0.00399113
-0.00431785
-0.00463579
-0.00493398
-0.00520101
-0.00542591
-0.00559993
-0.00571804
-0.00577822
-0.00505951
-0.00500391
-0.00482663
-0.00457954
-0.00429816
-0.00400099
-0.0036942
-0.00337982
-0.00305741
-0.00273124
-0.00241614
-0.00213489
-0.00190986
-0.00175592
-0.00167935
-0.00168233
-0.00176569
-0.00192534
-0.00214986
-0.00242293
-0.00272831
-0.00305154
-0.00338022
-0.00370288
-0.0040074
-0.00428102
-0.0045114
-0.00468833
-0.00480556
-0.00486115
-0.00429724
-0.0042254
-0.00405264
-0.00382825
-0.00357433
-0.00329999
-0.00301001
-0.00270409
-0.00238249
-0.00205373
-0.00173655
-0.00145606
-0.00123684
-0.0010959
-0.00103914
-0.00106336
-0.00116133
-0.00132353
-0.00153886
-0.00179478
-0.00207828
-0.00237707
-0.00267978
-0.00297575
-0.00325424
-0.00350435
-0.0037156
-0.00387913
-0.00398903
-0.00404273
-0.00356419
-0.00348479
-0.00335347
-0.00318692
-0.00298842
-0.00276124
-0.002507
-0.00222701
-0.00192707
-0.00161932
-0.00132179
-0.00105682
-0.000847217
-0.000710653
-0.000655246
-0.000678656
-0.000771981
-0.000923173
-0.00112
-0.00135062
-0.00160338
-0.00186752
-0.00213316
-0.00239134
-0.00263359
-0.00285161
-0.00303743
-0.00318388
-0.00328539
-0.00333822
-0.00285963
-0.00279204
-0.00270877
-0.002597
-0.00245149
-0.00227114
-0.00205721
-0.00181528
-0.00155468
-0.00128732
-0.00102781
-0.000793501
-0.000602834
-0.000471431
-0.000408737
-0.000415961
-0.000487842
-0.000614552
-0.000784724
-0.000986744
-0.00120939
-0.00144238
-0.00167655
-0.00190381
-0.00211692
-0.00230913
-0.00247401
-0.00260556
-0.00269859
-0.00274882
-0.00225305
-0.00220596
-0.00215137
-0.00206813
-0.00195118
-0.00179969
-0.00161768
-0.00141295
-0.00119475
-0.000972992
-0.00075866
-0.000563957
-0.00040153
-0.000282996
-0.000217167
-0.000208401
-0.000255989
-0.000354667
-0.000496073
-0.000670242
-0.000866734
-0.00107553
-0.00128741
-0.00149408
-0.00168817
-0.00186308
-0.00201289
-0.00213228
-0.00221658
-0.0022618
-0.0017901
-0.00176
-0.00171141
-0.00163251
-0.00152228
-0.00138332
-0.00122169
-0.00104516
-0.00086188
-0.000680041
-0.000507619
-0.000352289
-0.000221526
-0.000122635
-6.25137e-05
-4.64758e-05
-7.67972e-05
-0.000152074
-0.000267471
-0.000415712
-0.000588153
-0.00077556
-0.000968736
-0.00115892
-0.00133811
-0.00149929
-0.00163648
-0.00174473
-0.00181996
-0.00185895
-0.00146005
-0.00143785
-0.00138495
-0.00130177
-0.00119131
-0.00105879
-0.000910818
-0.000754739
-0.000597915
-0.000447132
-0.000308073
-0.000185311
-8.28784e-05
-5.02247e-06
4.35587e-05
5.83832e-05
3.66208e-05
-2.22545e-05
-0.000116081
-0.00024038
-0.000388725
-0.00055331
-0.00072559
-0.000896903
-0.00105908
-0.00120494
-0.00132853
-0.00142513
-0.00149118
-0.00152419
-0.00121836
-0.0011977
-0.00114227
-0.00105865
-0.000952016
-0.000828322
-0.000694087
-0.000556086
-0.000420774
-0.000293712
-0.000179206
-8.04039e-05
1.63731e-07
5.99472e-05
9.61083e-05
0.000105777
8.70799e-05
3.9044e-05
-3.76068e-05
-0.000140336
-0.00026465
-0.00040438
-0.000552239
-0.000700488
-0.000841638
-0.000968982
-0.00107691
-0.00116103
-0.00121806
-0.00124592
-0.00102272
-0.00100236
-0.00095007
-0.000873302
-0.000777444
-0.000667989
-0.000550682
-0.000431282
-0.000315186
-0.00020712
-0.00011087
-2.92729e-05
3.55223e-05
8.17354e-05
0.000107845
0.000112509
9.479e-05
5.41392e-05
-9.13823e-06
-9.33978e-05
-0.000195415
-0.000310466
-0.00043278
-0.000556079
-0.000674151
-0.000781269
-0.000872472
-0.000943708
-0.000991929
-0.00101526
-0.000849443
-0.000830553
-0.000785519
-0.00072063
-0.000640111
-0.000548303
-0.000449747
-0.000349028
-0.000250661
-0.000158875
-7.7281e-05
-8.72629e-06
4.46983e-05
8.15342e-05
0.000100887
0.000102239
8.52947e-05
5.00464e-05
-2.97271e-06
-7.23022e-05
-0.000155373
-0.000248568
-0.000347517
-0.000447456
-0.000543564
-0.000631227
-0.000706253
-0.00076507
-0.000804936
-0.000824178
-0.000690393
-0.000674588
-0.000638218
-0.000586303
-0.000521536
-0.000447021
-0.000366196
-0.000282706
-0.000200384
-0.00012299
-5.38765e-05
4.21185e-06
4.92097e-05
7.97089e-05
9.48974e-05
9.45229e-05
7.86088e-05
4.76007e-05
2.41962e-06
-5.53664e-05
-0.000123516
-0.000199191
-0.000279098
-0.000359674
-0.000437243
-0.000508164
-0.000569012
-0.000616804
-0.00064923
-0.000664857
-0.000546875
-0.000533758
-0.000505448
-0.000464554
-0.00041292
-0.000352848
-0.000286947
-0.000218169
-0.000149717
-8.47821e-05
-2.62982e-05
2.31803e-05
6.15917e-05
8.74652e-05
9.99535e-05
9.87742e-05
8.41311e-05
5.67118e-05
1.77041e-05
-3.12669e-05
-8.81957e-05
-0.000150758
-0.000216367
-0.000282239
-0.000345471
-0.000403157
-0.000452558
-0.0004913
-0.000517546
-0.000530125
-0.000419674
-0.000408926
-0.000386542
-0.000353715
-0.000311952
-0.000262974
-0.000208826
-0.000151919
-9.48582e-05
-4.02593e-05
9.34857e-06
5.16109e-05
8.45196e-05
0.000106597
0.000116996
0.000115448
0.000102226
7.8071e-05
4.41811e-05
2.07646e-06
-4.64662e-05
-9.94472e-05
-0.000154671
-0.000209789
-0.000262383
-0.000310085
-0.000350726
-0.000382468
-0.000403899
-0.000414073
-0.000308039
-0.000299346
-0.00028083
-0.000253758
-0.00021922
-0.000178512
-0.000133335
-8.56834e-05
-3.7665e-05
8.55704e-06
5.07781e-05
8.68632e-05
0.000114973
0.000133737
0.000142396
0.000140678
0.000128878
0.000107756
7.82378e-05
4.1666e-05
-3.93947e-07
-4.61383e-05
-9.35888e-05
-0.000140666
-0.000185295
-0.000225536
-0.000259661
-0.000286231
-0.000304136
-0.000312578
-0.000210876
-0.000204133
-0.000188232
-0.00016533
-0.000136032
-0.000101468
-6.31453e-05
-2.27236e-05
1.8066e-05
5.73915e-05
9.33349e-05
0.000124032
0.00014794
0.000163912
0.000171162
0.000169436
0.000159018
0.00014059
0.000114886
8.29485e-05
4.62257e-05
6.38072e-06
-3.48006e-05
-7.54844e-05
-0.000113917
-0.000148482
-0.000177767
-0.000200596
-0.000216009
-0.000223291
-0.000128566
-0.000122153
-0.000108536
-8.86372e-05
-6.32308e-05
-3.3448e-05
-6.05924e-07
3.39136e-05
6.86642e-05
0.000102081
0.000132554
0.000158556
0.000178824
0.000192477
0.000198496
0.000197011
0.000187844
0.000171935
0.000149559
0.000121663
8.96393e-05
5.49781e-05
1.92372e-05
-1.60383e-05
-4.93793e-05
-7.94348e-05
-0.000104996
-0.000125005
-0.000138573
-0.00014505
-5.84419e-05
-5.2377e-05
-4.04466e-05
-2.29902e-05
-8.94027e-07
2.47648e-05
5.28923e-05
8.23416e-05
0.000111898
0.000140176
0.000165901
0.000187841
0.000204961
0.000216373
0.000221846
0.000220746
0.000213247
0.000199038
0.000179309
0.000155007
0.000127245
9.72832e-05
6.64108e-05
3.58896e-05
6.9263e-06
-1.93229e-05
-4.17696e-05
-5.94229e-05
-7.14482e-05
-7.72691e-05
8.12071e-07
6.26014e-06
1.68253e-05
3.19945e-05
5.1017e-05
7.29093e-05
9.68657e-05
0.000121918
0.000146977
0.000170895
0.00019263
0.000211204
0.000225733
0.000235482
0.000240008
0.000238981
0.000232193
0.000219933
0.000202818
0.000181822
0.000157913
0.000132163
0.000105616
7.92884e-05
5.41878e-05
3.13275e-05
1.16944e-05
-3.80199e-06
-1.44114e-05
-1.96203e-05
4.92388e-05
5.38607e-05
6.3095e-05
7.60756e-05
9.22605e-05
0.00011098
0.000131432
0.000152781
0.000174034
0.000194214
0.000212663
0.000228276
0.000240474
0.000248662
0.000252326
0.000251182
0.000245157
0.000234535
0.000219876
0.000201936
0.000181437
0.00015939
0.00013662
0.000113954
9.22766e-05
7.24927e-05
5.54711e-05
4.20009e-05
3.27131e-05
2.80973e-05
8.71901e-05
9.14063e-05
9.92207e-05
0.000110254
0.000124047
0.000140005
0.000157412
0.000175528
0.000193547
0.0002107
0.000225938
0.000239017
0.000249234
0.000256043
0.000258993
0.000257828
0.000252562
0.00024345
0.000230951
0.000215641
0.000198215
0.000179248
0.000159681
0.000140181
0.000121529
0.000104504
8.9871e-05
7.82749e-05
7.0216e-05
6.61592e-05
0.000115843
0.000119447
0.000126206
0.000135799
0.000147685
0.000161187
0.000175818
0.000190999
0.000206036
0.00022027
0.00023319
0.000244153
0.000252688
0.0002583
0.000260635
0.000259511
0.000254974
0.000247222
0.0002366
0.00022357
0.000208662
0.000192461
0.000175524
0.000158635
0.00014262
0.000128024
0.000115497
0.000105551
9.85867e-05
9.50145e-05
0.000136138
0.000139198
0.000145001
0.000153303
0.000163583
0.000174941
0.000187311
0.000200042
0.000212655
0.00022471
0.00023564
0.000244871
0.000251974
0.00025653
0.000258311
0.0002572
0.000253264
0.000246625
0.000237537
0.000226352
0.000213502
0.00019949
0.000184888
0.000170372
0.000156476
0.000143896
0.000133115
0.000124541
0.000118496
0.000115344
0.000148598
0.000151288
0.000156063
0.000162696
0.000171051
0.000181199
0.000192094
0.000203132
0.000214077
0.000224467
0.000233817
0.000241662
0.000247615
0.000251374
0.00025275
0.000251603
0.000248116
0.000242322
0.000234431
0.000224731
0.000213571
0.000201379
0.000188687
0.000176024
0.000163938
0.000152966
0.000143572
0.000136101
0.000130814
0.000128045
0.000154203
0.000156259
0.000160157
0.000165791
0.000172995
0.000181593
0.000191021
0.000200856
0.000210574
0.000219749
0.000227985
0.000234838
0.000239937
0.000243053
0.000244086
0.000242866
0.000239714
0.000234578
0.000227637
0.000219135
0.000209332
0.000198619
0.00018744
0.000176302
0.00016566
0.000156008
0.000147746
0.000141191
0.000136568
0.00013407
0.000153763
0.000155166
0.000158424
0.000163297
0.00016959
0.00017703
0.000185316
0.00019407
0.000202786
0.000211023
0.000218331
0.000224314
0.000228701
0.000231311
0.000232074
0.000230905
0.000228026
0.000223437
0.000217298
0.000209773
0.000201111
0.000191633
0.000181727
0.000171839
0.000162416
0.000153868
0.000146543
0.000140741
0.000136676
0.000134493
0.000148259
0.000149458
0.000152351
0.000156667
0.000162211
0.000168733
0.000176003
0.000183682
0.000191353
0.000198619
0.000205052
0.000210278
0.000214051
0.000216264
0.000216869
0.000215856
0.000213284
0.000209241
0.000203809
0.000197131
0.000189418
0.000180988
0.000172183
0.000163398
0.000155021
0.000147423
0.000140927
0.000135811
0.000132273
0.000130383
0.000139296
0.000140506
0.000143116
0.000146878
0.000151648
0.000157247
0.000163483
0.000170092
0.000176714
0.000182974
0.000188519
0.000193052
0.000196376
0.000198362
0.000198962
0.000198145
0.000195933
0.000192362
0.000187525
0.000181565
0.000174697
0.000167201
0.000159392
0.000151614
0.000144209
0.000137501
0.000131786
0.000127316
0.000124273
0.000122677
0.000127722
0.000128932
0.000131126
0.000134224
0.000138136
0.000142772
0.000147964
0.000153507
0.000159064
0.000164338
0.000169061
0.00017301
0.000176001
0.00017789
0.000178569
0.000177977
0.000176105
0.000172988
0.000168708
0.00016341
0.00015732
0.000150704
0.000143842
0.000137044
0.000130608
0.000124788
0.00011985
0.000116015
0.000113431
0.000112121
0.000113518
0.000114586
0.000116277
0.000118689
0.000121788
0.000125533
0.000129743
0.000134238
0.000138761
0.000143116
0.000147109
0.000150552
0.000153258
0.000155053
0.000155803
0.000155416
0.000153854
0.000151156
0.0001474
0.000142753
0.000137454
0.000131733
0.000125848
0.00012007
0.00011462
0.00010972
0.000105583
0.000102364
0.000100194
9.91924e-05
9.65165e-05
9.73202e-05
9.85154e-05
0.000100399
0.000102904
0.000105903
0.000109264
0.000112789
0.000116376
0.000119892
0.000123184
0.000126105
0.000128464
0.000130071
0.000130788
0.000130506
0.000129209
0.000126912
0.000123728
0.000119806
0.000115353
0.000110584
0.000105722
0.000101001
9.65818e-05
9.26288e-05
8.9289e-05
8.66852e-05
8.49187e-05
8.42047e-05
7.69742e-05
7.75497e-05
7.83888e-05
7.99396e-05
8.1991e-05
8.4422e-05
8.70385e-05
8.97412e-05
9.24747e-05
9.51726e-05
9.775e-05
0.000100069
0.000101966
0.000103253
0.000103835
0.000103583
0.00010254
0.000100681
9.81311e-05
9.50098e-05
9.14699e-05
8.77222e-05
8.39331e-05
8.02714e-05
7.68701e-05
7.38401e-05
7.12874e-05
6.92807e-05
6.79107e-05
6.74159e-05
5.57525e-05
5.61703e-05
5.68854e-05
5.81448e-05
5.97509e-05
6.15928e-05
6.34739e-05
6.53842e-05
6.73061e-05
6.92076e-05
7.10379e-05
7.26998e-05
7.40741e-05
7.50368e-05
7.54325e-05
7.52478e-05
7.44602e-05
7.30815e-05
7.12067e-05
6.89334e-05
6.63773e-05
6.36716e-05
6.09424e-05
5.83226e-05
5.58907e-05
5.37291e-05
5.19043e-05
5.04603e-05
4.94585e-05
4.91623e-05
3.39381e-05
3.42448e-05
3.47744e-05
3.56446e-05
3.66879e-05
3.78017e-05
3.88638e-05
4.00016e-05
4.11323e-05
4.2265e-05
4.33611e-05
4.43811e-05
4.52525e-05
4.58606e-05
4.61461e-05
4.60428e-05
4.55709e-05
4.47312e-05
4.35801e-05
4.21711e-05
4.05913e-05
3.88884e-05
3.7194e-05
3.55474e-05
3.40257e-05
3.26677e-05
3.15189e-05
3.06057e-05
2.99377e-05
2.9862e-05
1.19403e-05
1.2069e-05
1.23048e-05
1.26307e-05
1.29887e-05
1.33184e-05
1.35969e-05
1.39581e-05
1.42399e-05
1.45368e-05
1.48419e-05
1.5164e-05
1.54745e-05
1.57328e-05
1.59088e-05
1.59608e-05
1.59014e-05
1.5687e-05
1.53404e-05
1.48703e-05