/*--------------------------------*- C++ -*----------------------------------*\
| =========                 |                                                 |
| \\      /  F ield         | OpenFOAM: The Open Source CFD Toolbox           |
|  \\    /   O peration     | Version:  2312                                  |
|   \\  /    A nd           | Website:  www.openfoam.com                      |
|    \\/     M anipulation  |                                                 |
\*---------------------------------------------------------------------------*/
FoamFile
{
    version     2.0;
    format      ascii;
    arch        "LSB;label=32;scalar=64";
    class       surfaceScalarField;
    location    "0.602264";
    object      phi;
}
// * * * * * * * * * * * * * * * * * * * * * * * * * * * * * * * * * * * * * //

dimensions      [0 3 -1 0 0 0 0];

oriented        oriented;

internalField   nonuniform List<scalar> 
263100
(
-1.82404e-11
3.64746e-11
-1.82404e-11
-7.66452e-10
1.02219e-09
-2.43253e-10
-1.2484e-09
7.82844e-10
-2.75794e-10
-1.54382e-09
6.56799e-10
-3.36783e-10
-1.66973e-09
5.18727e-10
-3.68321e-10
-1.62133e-09
3.42921e-10
-3.6693e-10
-1.42426e-09
1.74142e-10
-3.46941e-10
-1.13923e-09
5.48494e-11
-3.15728e-10
-8.6009e-10
2.74187e-11
-2.82684e-10
-6.32139e-10
7.07634e-11
-2.75144e-10
-4.67447e-10
1.69446e-10
-3.10909e-10
-3.43242e-10
2.89572e-10
-3.90979e-10
-2.02172e-10
3.77134e-10
-4.95709e-10
1.22573e-11
4.03402e-10
-5.95457e-10
3.33029e-10
3.66778e-10
-6.65221e-10
7.59648e-10
2.75536e-10
-6.79782e-10
1.21842e-09
1.79915e-10
-6.16119e-10
1.58573e-09
1.28104e-10
-4.72535e-10
1.75079e-09
1.56714e-10
-2.98494e-10
1.62295e-09
2.85243e-10
-1.33712e-10
1.17621e-09
4.92813e-10
-2.19482e-11
4.17682e-10
7.53897e-10
2.92302e-11
-5.56503e-10
9.744e-10
2.49384e-11
-1.57524e-09
1.08176e-09
-3.72566e-11
-2.35244e-09
9.56166e-10
-1.52552e-10
-2.68728e-09
5.84007e-10
-2.22139e-10
-2.60504e-09
8.0895e-11
-1.35586e-10
-2.56833e-09
-2.66972e-10
2.58201e-10
-2.93964e-09
-8.00948e-10
1.20041e-09
-8.51839e-09
5.60696e-09
-2.88906e-10
6.45119e-10
-2.88906e-10
-5.06994e-10
1.55474e-09
-2.64472e-10
-6.57119e-10
1.22563e-09
-2.47604e-10
-7.79984e-10
1.01717e-09
-1.92911e-10
-8.62958e-10
7.78286e-10
-1.32137e-10
-9.04301e-10
5.15311e-10
-8.67673e-11
-9.01402e-10
2.78801e-10
-6.35747e-11
-8.74711e-10
1.40065e-10
-6.82926e-11
-7.99188e-10
8.97106e-11
-9.46672e-11
-6.79297e-10
1.40617e-10
-1.47321e-10
-4.99218e-10
2.34465e-10
-2.03298e-10
-2.64075e-10
3.44091e-10
-2.48337e-10
1.2937e-11
4.13807e-10
-2.72666e-10
3.04549e-10
4.24297e-10
-2.71601e-10
5.80693e-10
3.7775e-10
-2.4613e-10
7.85811e-10
3.15947e-10
-2.04251e-10
8.99985e-10
2.85282e-10
-1.77775e-10
9.29674e-10
3.38883e-10
-1.98081e-10
8.64429e-10
5.05434e-10
-2.4039e-10
7.14628e-10
7.80921e-10
-3.02025e-10
5.24173e-10
1.09626e-09
-3.68282e-10
3.15281e-10
1.38492e-09
-3.76432e-10
1.52962e-10
1.53713e-09
-3.53615e-10
9.65617e-11
1.46452e-09
-2.78435e-10
1.74028e-10
1.06336e-09
-1.35696e-10
4.736e-10
3.63616e-10
-2.93258e-11
9.6182e-10
-3.3274e-10
-2.40678e-11
1.04559e-09
-3.32031e-11
-2.66626e-10
-1.2221e-09
1.94502e-09
-4.27205e-10
-9.9802e-09
2.8179e-10
-2.29885e-10
1.12993e-09
-2.29885e-10
-4.65465e-11
1.54833e-09
-1.32336e-10
2.72891e-11
1.25754e-09
-6.56733e-11
1.30833e-11
1.06343e-09
7.71943e-12
-9.07155e-11
8.67363e-10
5.44328e-11
-2.62143e-10
6.56473e-10
6.99115e-11
-4.70767e-10
4.79775e-10
4.7153e-11
-6.40955e-10
3.53011e-10
-3.5909e-12
-7.26361e-10
2.91679e-10
-7.78354e-11
-6.64598e-10
2.67136e-10
-1.50087e-10
-4.58665e-10
2.65472e-10
-1.99113e-10
-1.38599e-10
2.63854e-10
-2.02361e-10
2.13736e-10
2.60036e-10
-1.61385e-10
5.05112e-10
2.6644e-10
-9.6445e-11
6.52896e-10
2.96841e-10
-2.97553e-11
6.31167e-10
3.82348e-10
-7.39265e-12
4.58515e-10
5.34677e-10
-3.91801e-11
2.19631e-10
7.3463e-10
-1.18887e-10
2.51982e-11
9.83726e-10
-2.4535e-10
-1.59844e-12
1.24935e-09
-4.02457e-10
1.98931e-10
1.45609e-09
-5.20386e-10
6.12605e-10
1.57326e-09
-5.61137e-10
1.19057e-09
1.51672e-09
-5.15747e-10
1.81172e-09
1.23547e-09
-3.49416e-10
2.28529e-09
7.7574e-10
-1.42525e-10
2.48312e-09
1.48555e-10
6.12568e-11
2.69021e-09
-7.10211e-10
2.14886e-10
3.89685e-09
-8.25886e-10
-3.69124e-10
2.44553e-09
4.38933e-09
-9.47928e-10
-4.42772e-09
-3.06971e-09
-1.21186e-10
1.39662e-09
-1.21186e-10
2.71632e-10
1.16016e-09
3.91299e-11
4.80348e-10
1.00499e-09
8.32619e-11
5.26924e-10
9.25567e-10
1.30534e-10
4.26888e-10
8.56557e-10
1.50114e-10
1.92822e-10
8.01244e-10
1.28544e-10
-1.02763e-10
7.42495e-10
7.19202e-11
-3.83574e-10
6.83195e-10
-1.06418e-11
-5.49758e-10
5.89878e-10
-9.35989e-11
-5.51497e-10
4.67141e-10
-1.60257e-10
-3.87385e-10
3.29413e-10
-1.90312e-10
-1.0691e-10
1.97611e-10
-1.76778e-10
1.83862e-10
1.31777e-10
-1.25307e-10
3.96082e-10
1.50425e-10
-5.91066e-11
4.5394e-10
2.93e-10
-1.69347e-11
3.40182e-10
5.48827e-10
-1.55892e-11
1.1877e-10
8.50168e-10
-5.67795e-11
-1.11157e-10
1.14715e-09
-1.4497e-10
-2.07763e-10
1.37832e-09
-2.59846e-10
-6.78996e-11
1.4994e-09
-3.51099e-10
3.72042e-10
1.4921e-09
-4.36343e-10
1.0882e-09
1.34809e-09
-4.50544e-10
1.93368e-09
1.10602e-09
-3.93575e-10
2.70663e-09
8.13392e-10
-3.09057e-10
3.17042e-09
5.75073e-10
-2.20845e-10
2.99996e-09
4.64307e-10
-1.02612e-10
2.10721e-09
1.29444e-10
9.61257e-11
1.88855e-09
-7.68673e-10
2.04758e-10
2.27147e-09
3.96323e-09
8.67456e-11
-2.57525e-10
-1.86279e-09
1.27238e-11
1.39507e-09
1.27238e-11
5.08731e-10
5.53086e-10
1.54598e-10
7.6189e-10
6.12815e-10
1.7825e-10
8.4757e-10
6.80802e-10
1.9825e-10
7.61194e-10
8.02204e-10
1.79828e-10
5.44094e-10
9.39765e-10
1.17614e-10
2.48926e-10
1.03464e-09
4.18434e-11
-3.70726e-11
1.04334e-09
-3.56385e-11
-2.49059e-10
9.41136e-10
-1.01016e-10
-3.4676e-10
7.41058e-10
-1.38276e-10
-3.28561e-10
5.02556e-10
-1.53588e-10
-2.29955e-10
2.76108e-10
-1.39556e-10
-1.0402e-10
1.57846e-10
-1.14655e-10
-1.79752e-11
1.97822e-10
-9.61939e-11
8.08082e-13
4.02826e-10
-9.13982e-11
-3.8445e-11
7.34654e-10
-1.09333e-10
-9.73276e-11
1.09525e-09
-1.488e-10
-1.03667e-10
1.37543e-09
-1.84197e-10
1.78392e-11
1.49995e-09
-2.04871e-10
3.36685e-10
1.42785e-09
-2.0837e-10
8.62575e-10
1.21031e-09
-2.04443e-10
1.5367e-09
9.07042e-10
-1.92725e-10
2.21159e-09
6.48996e-10
-1.76975e-10
2.69681e-09
5.67298e-10
-1.97843e-10
2.89709e-09
7.08874e-10
-2.92499e-10
2.72155e-09
1.15779e-09
-4.76063e-10
1.71268e-09
1.85559e-09
-6.75114e-10
2.29786e-10
1.34672e-09
-5.90105e-10
7.23199e-10
4.04622e-09
-5.33818e-10
2.20414e-09
-1.7032e-09
8.57385e-11
1.24737e-09
8.57385e-11
5.58882e-10
-7.64961e-11
2.0022e-10
7.87783e-10
2.27059e-10
1.9623e-10
8.96978e-10
4.43803e-10
1.67101e-10
8.85677e-10
7.48789e-10
1.03796e-10
7.70596e-10
1.06317e-09
3.05845e-11
5.86249e-10
1.29945e-09
-4.18225e-11
3.67314e-10
1.38951e-09
-8.89685e-11
1.37528e-10
1.31832e-09
-1.09366e-10
-8.0951e-11
1.10668e-09
-1.09353e-10
-2.70875e-10
8.2621e-10
-9.60735e-11
-4.36416e-10
5.73426e-10
-9.42679e-11
-5.542e-10
4.1898e-10
-1.05979e-10
-5.94588e-10
4.15774e-10
-1.40239e-10
-5.521e-10
5.71016e-10
-1.73317e-10
-4.15122e-10
8.28927e-10
-1.93759e-10
-1.93598e-10
1.09878e-09
-1.87299e-10
1.05002e-10
1.25742e-09
-1.42436e-10
4.77219e-10
1.24794e-09
-8.15624e-11
9.04331e-10
1.04789e-09
-7.92924e-12
1.33915e-09
7.75085e-10
4.02191e-11
1.70085e-09
5.17708e-10
6.79641e-11
1.9226e-09
4.68504e-10
-5.43482e-13
1.90053e-09
7.28625e-10
-9.82611e-11
1.61038e-09
1.28832e-09
-2.4801e-10
1.21025e-09
2.0903e-09
-4.90807e-10
7.24053e-10
3.24764e-09
-8.6399e-10
-4.20927e-10
3.60869e-09
-1.0749e-09
-2.25226e-10
5.00598e-09
-1.11316e-09
3.43663e-09
-1.4225e-09
6.99719e-11
1.1313e-09
6.99719e-11
4.00647e-10
-4.81965e-10
1.19035e-10
5.78891e-10
9.73944e-12
7.87329e-11
7.23514e-10
3.43879e-10
-5.21837e-12
8.36864e-10
7.61269e-10
-8.67365e-11
9.04808e-10
1.18026e-09
-1.4624e-10
9.0189e-10
1.51527e-09
-1.74445e-10
7.9481e-10
1.70028e-09
-1.65634e-10
5.73092e-10
1.7039e-09
-1.25986e-10
2.37574e-10
1.56069e-09
-8.07841e-11
-1.77095e-10
1.33054e-09
-5.20773e-11
-5.95903e-10
1.07686e-09
-4.71496e-11
-9.32601e-10
8.58543e-10
-6.54534e-11
-1.09337e-09
7.26422e-10
-1.12432e-10
-1.0232e-09
6.95572e-10
-1.57134e-10
-7.31113e-10
7.27824e-10
-1.53155e-10
-2.72555e-10
7.79835e-10
-1.01448e-10
2.62113e-10
7.68935e-10
-7.62576e-12
8.04098e-10
6.50028e-10
9.49134e-11
1.23352e-09
4.7567e-10
1.82224e-10
1.4676e-09
3.18435e-10
2.6242e-10
1.47344e-09
3.11286e-10
2.40803e-10
1.281e-09
5.6797e-10
1.33522e-10
9.00915e-10
1.1912e-09
-4.16225e-11
3.59627e-10
2.13125e-09
-2.60436e-10
-1.68597e-10
3.1771e-09
-5.17017e-10
-4.07139e-10
4.35804e-09
-8.29961e-10
-7.99007e-10
4.98108e-09
-9.3826e-10
-4.4223e-10
5.5997e-09
-9.07962e-10
3.90523e-09
-8.75484e-10
-1.11479e-10
1.37838e-09
-1.11479e-10
7.28019e-11
-5.05009e-10
-1.16688e-10
2.1849e-10
1.12607e-10
-2.08707e-10
4.24675e-10
4.76705e-10
-2.9951e-10
6.89106e-10
8.99064e-10
-3.63237e-10
9.59661e-10
1.32632e-09
-3.78002e-10
1.15459e-09
1.69091e-09
-3.32284e-10
1.18275e-09
1.95326e-09
-2.43204e-10
9.86518e-10
2.08276e-09
-1.44837e-10
5.76713e-10
2.06931e-09
-6.11549e-11
2.12306e-11
1.93724e-09
-1.36759e-11
-5.71374e-10
1.70116e-09
5.74943e-12
-1.05656e-09
1.38545e-09
-4.28203e-12
-1.31607e-09
1.03888e-09
-1.54281e-11
-1.28594e-09
7.12925e-10
-9.78221e-12
-9.73707e-10
4.45686e-10
7.85763e-12
-4.54645e-10
2.29554e-10
6.9497e-11
1.42184e-10
5.93419e-11
1.5138e-10
6.71024e-10
-7.23703e-11
2.325e-10
1.0168e-09
-1.46919e-10
3.16074e-10
1.11618e-09
-6.88946e-11
3.27533e-10
9.47632e-10
2.43614e-10
2.76108e-10
5.52255e-10
8.40734e-10
1.62824e-10
5.31192e-11
1.71711e-09
1.38247e-11
-4.02908e-10
2.79267e-09
-1.64374e-10
-7.86703e-10
3.90368e-09
-3.01345e-10
-8.04687e-10
4.83004e-09
-4.12118e-10
-7.03906e-10
5.32859e-09
-4.05933e-10
-1.90281e-10
5.48163e-09
-3.52903e-10
3.89759e-09
-1.47497e-10
-3.98192e-10
2.19904e-09
-3.98192e-10
-3.04414e-10
-1.05562e-10
-4.48777e-10
-1.84386e-10
5.58248e-10
-5.25992e-10
9.66781e-11
8.17104e-10
-5.82293e-10
4.74231e-10
1.15031e-09
-5.90136e-10
8.90971e-10
1.4826e-09
-5.34712e-10
1.22096e-09
1.82699e-09
-4.28057e-10
1.3557e-09
2.1411e-09
-2.84787e-10
1.22161e-09
2.39585e-09
-1.41365e-10
8.42732e-10
2.5266e-09
-4.0878e-11
2.97833e-10
2.49108e-09
2.84551e-11
-3.01966e-10
2.24997e-09
8.82936e-11
-8.22778e-10
1.81788e-09
1.25701e-10
-1.15234e-09
1.2541e-09
1.51719e-10
-1.26028e-09
6.72614e-10
1.85715e-10
-1.12015e-09
1.34424e-10
2.08761e-10
-7.94466e-10
-2.93994e-10
2.35756e-10
-3.87334e-10
-5.74748e-10
2.65144e-10
-5.33967e-12
-6.89811e-10
2.73929e-10
2.55219e-10
-6.11417e-10
2.42706e-10
3.52533e-10
-3.0788e-10
1.80707e-10
2.7097e-10
2.52571e-10
1.11912e-10
3.80736e-11
1.05753e-09
5.57414e-11
-2.47642e-10
2.03473e-09
8.16163e-12
-4.78833e-10
3.0783e-09
-1.38903e-11
-5.95555e-10
4.02439e-09
3.70483e-11
-4.92679e-10
4.69956e-09
6.91111e-11
-2.1951e-10
4.9641e-09
1.33218e-10
1.50224e-10
4.92774e-09
2.26302e-10
3.77446e-09
3.07936e-10
-6.17778e-10
3.45877e-09
-6.17778e-10
-5.9818e-10
5.66997e-10
-6.48445e-10
-5.07937e-10
1.18166e-09
-6.74637e-10
-2.56876e-10
1.26887e-09
-6.64354e-10
1.21518e-10
1.39958e-09
-5.89569e-10
5.27574e-10
1.59229e-09
-4.77904e-10
8.5701e-10
1.88087e-09
-3.45735e-10
1.03827e-09
2.21366e-09
-2.16365e-10
1.01801e-09
2.56132e-09
-1.07951e-10
8.16061e-10
2.78485e-09
-1.91471e-11
4.77049e-10
2.82573e-09
4.13733e-11
6.55159e-11
2.58051e-09
1.17891e-10
-3.47552e-10
2.06969e-09
1.98124e-10
-7.08876e-10
1.38909e-09
2.6318e-10
-1.00145e-09
6.99366e-10
3.02634e-10
-1.17543e-09
3.91006e-11
3.06196e-10
-1.23057e-09
-4.7206e-10
2.70322e-10
-1.15243e-09
-7.89068e-10
1.73619e-10
-9.70428e-10
-8.9087e-10
5.68241e-11
-7.50004e-10
-7.37086e-10
-5.66864e-11
-5.21371e-10
-3.54791e-10
-1.43401e-10
-3.12468e-10
2.73226e-10
-1.90983e-10
-1.5854e-10
1.12057e-09
-1.78064e-10
-7.6323e-11
2.09314e-09
-1.01302e-10
-1.76701e-11
3.03956e-09
1.9841e-11
7.78559e-11
3.85364e-09
1.15408e-10
2.48448e-10
4.34887e-09
2.20632e-10
4.03749e-10
4.53249e-09
3.17088e-10
4.63321e-10
4.54159e-09
3.67676e-10
3.93013e-09
3.41501e-10
-5.57127e-10
4.59683e-09
-5.57127e-10
-6.83008e-10
1.26055e-09
-5.25299e-10
-7.51852e-10
1.7545e-09
-4.65982e-10
-6.81676e-10
1.63427e-09
-3.98088e-10
-5.23879e-10
1.57367e-09
-2.9461e-10
-3.38508e-10
1.63842e-09
-1.94435e-10
-1.59143e-10
1.86541e-09
-1.2712e-10
-8.31568e-13
2.19144e-09
-9.94003e-11
1.56942e-10
2.53778e-09
-9.77822e-11
2.80127e-10
2.78511e-09
-8.7104e-11
3.44008e-10
2.83379e-09
-3.57344e-11
2.98253e-10
2.64374e-09
1.86071e-11
1.11839e-10
2.2098e-09
8.23154e-11
-2.19618e-10
1.63043e-09
1.26048e-10
-6.66864e-10
1.05464e-09
1.27821e-10
-1.14944e-09
4.91526e-10
6.60376e-11
-1.55183e-09
6.1461e-12
-3.96958e-11
-1.77789e-09
-3.3001e-10
-1.96562e-10
-1.7544e-09
-5.01585e-10
-3.75993e-10
-1.49408e-09
-4.56891e-10
-5.03478e-10
-1.06733e-09
-1.84511e-10
-5.59761e-10
-5.76091e-10
3.42539e-10
-5.23041e-10
-9.92997e-11
1.10849e-09
-4.26876e-10
3.1355e-10
2.00617e-09
-2.8771e-10
6.39248e-10
2.88354e-09
-1.31207e-10
8.62804e-10
3.63234e-09
3.64758e-11
9.84707e-10
4.13316e-09
1.32772e-10
9.25237e-10
4.44002e-09
1.91149e-10
6.57101e-10
4.64266e-09
2.06693e-10
4.39961e-09
2.20307e-10
-1.22645e-10
4.86525e-09
-1.22645e-10
-6.5395e-10
1.91581e-09
-8.33042e-11
-1.05218e-09
2.19929e-09
-9.80904e-12
-1.38378e-09
1.97457e-09
2.75761e-11
-1.66302e-09
1.7955e-09
9.35638e-11
-1.84214e-09
1.7656e-09
8.78719e-11
-1.86709e-09
1.90116e-09
2.48339e-11
-1.69954e-09
2.14587e-09
-8.64887e-11
-1.29979e-09
2.38594e-09
-2.12658e-10
-7.3682e-10
2.54893e-09
-2.91644e-10
-1.6607e-10
2.59917e-09
-3.01073e-10
2.33915e-10
2.5172e-09
-2.38498e-10
3.5473e-10
2.32528e-09
-2.01423e-10
1.395e-10
2.08548e-09
-2.0501e-10
-3.17339e-10
1.78474e-09
-2.38512e-10
-9.13467e-10
1.47284e-09
-3.50412e-10
-1.49416e-09
1.12062e-09
-4.98839e-10
-1.8341e-09
7.12029e-10
-6.66928e-10
-1.84196e-09
3.46738e-10
-8.05096e-10
-1.54613e-09
1.34995e-10
-8.52192e-10
-1.0301e-09
1.4985e-10
-8.14688e-10
-4.10469e-10
4.59404e-10
-7.00568e-10
2.08619e-10
1.06846e-09
-5.42869e-10
7.45477e-10
1.89248e-09
-3.86768e-10
1.16201e-09
2.76661e-09
-2.63056e-10
1.43779e-09
3.54234e-09
-1.49084e-10
1.49913e-09
4.15779e-09
-4.899e-11
1.30944e-09
4.6342e-09
3.2768e-11
8.90111e-10
4.99319e-09
1.06364e-10
5.0537e-09
2.66778e-10
4.09764e-10
4.06801e-09
4.09764e-10
-6.87398e-10
2.68221e-09
3.69464e-10
-1.57302e-09
2.69333e-09
4.26778e-10
-2.43093e-09
2.48915e-09
3.7802e-10
-3.1867e-09
2.31486e-09
2.71054e-10
-3.71219e-09
2.2402e-09
8.52573e-11
-3.89228e-09
2.19993e-09
-8.45465e-11
-3.60536e-09
2.1884e-09
-2.95443e-10
-2.89784e-09
2.18554e-09
-4.73232e-10
-1.89563e-09
2.15041e-09
-5.69873e-10
-8.62674e-10
2.18967e-09
-5.89664e-10
-4.69981e-11
2.3084e-09
-5.73125e-10
3.72354e-10
2.48415e-09
-5.44511e-10
3.88556e-10
2.67137e-09
-5.6838e-10
7.1582e-11
2.77224e-09
-6.36826e-10
-3.90188e-10
2.69962e-09
-7.31317e-10
-8.16983e-10
2.40457e-09
-8.23462e-10
-1.03167e-09
1.86279e-09
-9.02385e-10
-9.91509e-10
1.24372e-09
-9.03492e-10
-7.1522e-10
7.18398e-10
-8.26033e-10
-2.97253e-10
4.63411e-10
-6.97793e-10
1.83793e-10
5.7119e-10
-5.58949e-10
6.51349e-10
1.0692e-09
-4.34274e-10
1.08156e-09
1.8337e-09
-3.3732e-10
1.46067e-09
2.67967e-09
-2.57951e-10
1.72745e-09
3.48169e-09
-1.71736e-10
1.79315e-09
4.18453e-09
-5.78083e-11
1.59408e-09
4.7864e-09
8.16412e-11
1.11741e-09
5.26428e-09
2.40295e-10
5.77314e-09
4.26266e-10
7.88495e-10
2.51237e-09
7.88495e-10
-9.78158e-10
4.02377e-09
4.61465e-10
-2.37381e-09
3.77365e-09
3.48431e-10
-3.60369e-09
3.5854e-09
1.66272e-10
-4.64383e-09
3.39993e-09
-1.22762e-11
-5.31893e-09
3.14839e-09
-2.00569e-10
-5.4801e-09
2.81247e-09
-4.18886e-10
-5.02447e-09
2.39291e-09
-6.27604e-10
-4.0333e-09
1.95654e-09
-7.29509e-10
-2.7634e-09
1.65319e-09
-7.39993e-10
-1.48653e-09
1.65906e-09
-7.13445e-10
-4.44109e-10
1.99388e-09
-6.95038e-10
2.30666e-10
2.55042e-09
-7.0816e-10
5.56329e-10
3.13339e-09
-7.54734e-10
6.08588e-10
3.54037e-09
-7.87417e-10
5.35605e-10
3.62974e-09
-8.24255e-10
4.63493e-10
3.33132e-09
-8.21959e-10
4.61331e-10
2.63721e-09
-7.39841e-10
5.44283e-10
1.79639e-09
-6.03465e-10
6.64075e-10
1.08391e-09
-4.53344e-10
8.00811e-10
6.92303e-10
-3.33772e-10
9.08594e-10
7.32489e-10
-2.37278e-10
1.0382e-09
1.15607e-09
-1.8471e-10
1.25627e-09
1.83972e-09
-1.92339e-10
1.52612e-09
2.61423e-09
-1.72609e-10
1.75173e-09
3.38009e-09
-9.21242e-11
1.78743e-09
4.15347e-09
2.71926e-11
1.55919e-09
4.86066e-09
1.8559e-10
9.93254e-10
5.52715e-09
3.34382e-10
6.55579e-09
2.3616e-10
4.00568e-10
1.73132e-09
4.00568e-10
-1.63447e-09
6.14594e-09
-5.36314e-11
-3.2256e-09
5.57375e-09
-1.78521e-10
-4.53044e-09
5.2816e-09
-3.61155e-10
-5.52424e-09
4.96023e-09
-5.36075e-10
-6.05607e-09
4.39312e-09
-6.82265e-10
-6.01977e-09
3.56887e-09
-7.61684e-10
-5.36057e-09
2.57053e-09
-8.05426e-10
-4.31362e-09
1.66161e-09
-7.20192e-10
-3.08596e-09
1.12322e-09
-6.65638e-10
-1.89255e-09
1.11255e-09
-6.14579e-10
-8.68379e-10
1.61304e-09
-6.10816e-10
-5.08403e-11
2.42368e-09
-6.58144e-10
5.9218e-10
3.25595e-09
-7.32752e-10
1.10529e-09
3.81389e-09
-7.53721e-10
1.54706e-09
3.93689e-09
-7.16151e-10
1.90776e-09
3.59128e-09
-5.88216e-10
2.15178e-09
2.84768e-09
-4.22483e-10
2.22142e-09
2.01831e-09
-2.6002e-10
2.10817e-09
1.36266e-09
-1.34398e-10
1.84262e-09
1.06561e-09
-7.70945e-11
1.54945e-09
1.16975e-09
-1.13843e-10
1.37187e-09
1.56988e-09
-2.06349e-10
1.38493e-09
2.1247e-09
-2.68463e-10
1.52012e-09
2.74934e-09
-2.41005e-10
1.60951e-09
3.47713e-09
-1.57512e-10
1.46807e-09
4.39141e-09
-6.80666e-11
1.05442e-09
5.33069e-09
-2.84455e-11
3.61866e-10
6.38242e-09
-1.35195e-10
7.41588e-09
-4.75974e-10
-3.48637e-10
2.44693e-09
-3.48637e-10
-2.28824e-09
8.92023e-09
-8.04195e-10
-3.66682e-09
7.90528e-09
-9.25283e-10
-4.70907e-09
7.40622e-09
-1.05455e-09
-5.3677e-09
6.72638e-09
-1.07913e-09
-5.57214e-09
5.63658e-09
-1.00992e-09
-5.28669e-09
4.2097e-09
-8.96339e-10
-4.65191e-09
2.69724e-09
-7.30781e-10
-3.84114e-09
1.47247e-09
-5.90185e-10
-3.01913e-09
8.36465e-10
-5.03315e-10
-2.23369e-09
8.47073e-10
-4.87496e-10
-1.4514e-09
1.41569e-09
-5.52008e-10
-5.96842e-10
2.26825e-09
-6.65779e-10
3.63998e-10
3.08651e-09
-7.5765e-10
1.35945e-09
3.62346e-09
-7.71031e-10
2.27337e-09
3.72781e-09
-6.70886e-10
2.99886e-09
3.40746e-09
-5.08018e-10
3.38041e-09
2.83609e-09
-3.3682e-10
3.38863e-09
2.26107e-09
-2.18549e-10
3.06569e-09
1.91342e-09
-1.96234e-10
2.55852e-09
1.85818e-09
-2.54781e-10
2.08458e-09
2.04392e-09
-3.70615e-10
1.77736e-09
2.36475e-09
-4.59032e-10
1.64899e-09
2.75608e-09
-4.75379e-10
1.54817e-09
3.30481e-09
-4.28e-10
1.28435e-09
4.14742e-09
-3.80816e-10
8.01269e-10
5.31421e-09
-4.14926e-10
1.39334e-10
6.60714e-09
-5.9041e-10
-3.75306e-10
7.84687e-09
-9.26573e-10
8.12967e-09
-1.07071e-09
-1.25926e-09
4.98185e-09
-1.25926e-09
-2.59508e-09
1.18328e-08
-1.54859e-09
-3.50296e-09
1.03325e-08
-1.49386e-09
-4.08846e-09
9.49004e-09
-1.47226e-09
-4.29428e-09
8.27692e-09
-1.3178e-09
-4.15671e-09
6.63339e-09
-1.10626e-09
-3.83639e-09
4.77147e-09
-8.5273e-10
-3.50029e-09
3.02727e-09
-6.35595e-10
-3.20501e-09
1.73798e-09
-5.29162e-10
-2.95129e-09
1.1242e-09
-5.08806e-10
-2.61735e-09
1.13988e-09
-5.93049e-10
-2.059e-09
1.64421e-09
-7.52157e-10
-1.15771e-09
2.30619e-09
-9.03523e-10
3.07155e-11
2.90032e-09
-9.65704e-10
1.34794e-09
3.25851e-09
-9.15195e-10
2.57187e-09
3.32596e-09
-7.8485e-10
3.48839e-09
3.14998e-09
-6.22099e-10
3.93425e-09
2.91796e-09
-4.91498e-10
3.92212e-09
2.73929e-09
-4.30961e-10
3.58276e-09
2.74951e-09
-4.63043e-10
3.10129e-09
2.92445e-09
-5.52809e-10
2.67799e-09
3.11e-09
-6.12652e-10
2.34933e-09
3.33191e-09
-6.10278e-10
2.02829e-09
3.65938e-09
-5.55948e-10
1.54452e-09
4.33479e-09
-5.21666e-10
8.46381e-10
5.44892e-09
-5.80394e-10
7.70509e-11
6.85545e-09
-7.50294e-10
-5.40256e-10
8.28361e-09
-1.03882e-09
-6.71837e-10
9.11333e-09
-1.11584e-09
8.35729e-09
-8.84508e-10
-1.8332e-09
8.6631e-09
-1.8332e-09
-2.43503e-09
1.41635e-08
-1.70149e-09
-2.86449e-09
1.23799e-08
-1.59338e-09
-3.04526e-09
1.11928e-08
-1.49666e-09
-2.97161e-09
9.52848e-09
-1.29877e-09
-2.76815e-09
7.54712e-09
-1.08917e-09
-2.62415e-09
5.54845e-09
-8.91276e-10
-2.6837e-09
3.85667e-09
-7.38403e-10
-2.89264e-09
2.69765e-09
-7.1756e-10
-3.08393e-09
2.13909e-09
-7.885e-10
-3.04048e-09
2.04965e-09
-9.16224e-10
-2.52982e-09
2.23204e-09
-1.0596e-09
-1.55207e-09
2.46941e-09
-1.10033e-09
-2.22377e-10
2.65943e-09
-1.04683e-09
1.22249e-09
2.78026e-09
-9.23846e-10
2.52537e-09
2.82921e-09
-7.63166e-10
3.47098e-09
2.86384e-09
-6.16923e-10
3.98209e-09
2.98533e-09
-5.3699e-10
4.06699e-09
3.24019e-09
-5.45922e-10
3.91553e-09
3.51381e-09
-5.75112e-10
3.64611e-09
3.82165e-09
-5.92574e-10
3.35834e-09
4.00189e-09
-5.71674e-10
2.97127e-09
4.2451e-09
-4.96517e-10
2.35936e-09
4.766e-09
-4.67864e-10
1.51452e-09
5.74727e-09
-5.43329e-10
5.98045e-10
7.09322e-09
-7.05908e-10
-9.9644e-11
8.51444e-09
-9.41742e-10
-3.51675e-10
9.46517e-09
-9.11985e-10
-1.72135e-10
9.61461e-09
-6.64498e-10
8.60132e-09
-4.03228e-10
-1.8077e-09
1.22927e-08
-1.8077e-09
-1.95528e-09
1.59027e-08
-1.56282e-09
-2.19008e-09
1.41325e-08
-1.49238e-09
-2.23889e-09
1.26687e-08
-1.4007e-09
-2.15692e-09
1.07393e-08
-1.26512e-09
-2.09265e-09
8.63941e-09
-1.12684e-09
-2.20311e-09
6.69129e-09
-1.00034e-09
-2.53961e-09
5.15932e-09
-9.31546e-10
-2.99282e-09
4.12451e-09
-9.36352e-10
-3.31055e-09
3.48162e-09
-9.84395e-10
-3.2585e-09
3.07724e-09
-1.03633e-09
-2.6997e-09
2.72966e-09
-1.01032e-09
-1.70654e-09
2.45462e-09
-9.29853e-10
-4.25323e-10
2.23408e-09
-8.05657e-10
9.25326e-10
2.14146e-09
-6.60719e-10
2.13902e-09
2.22321e-09
-5.56372e-10
3.09078e-09
2.48592e-09
-5.23082e-10
3.71169e-09
2.94123e-09
-5.27354e-10
4.04621e-09
3.5133e-09
-5.60216e-10
4.15761e-09
4.03168e-09
-5.84537e-10
4.13574e-09
4.44602e-09
-5.60945e-10
3.9058e-09
4.80036e-09
-5.30453e-10
3.37016e-09
5.34849e-09
-5.33298e-10
2.54403e-09
6.2639e-09
-6.40962e-10
1.65142e-09
7.51838e-09
-8.51398e-10
9.44818e-10
8.80703e-09
-9.83892e-10
6.15269e-10
9.75111e-09
-8.87287e-10
6.13555e-10
1.01412e-08
-6.56779e-10
5.60892e-10
1.01175e-08
-4.33942e-10
9.60707e-09
-4.32073e-10
-1.62091e-09
1.55494e-08
-1.62091e-09
-1.68657e-09
1.74264e-08
-1.42454e-09
-1.92697e-09
1.57964e-08
-1.39432e-09
-2.00944e-09
1.40997e-08
-1.31835e-09
-2.02839e-09
1.1994e-08
-1.20371e-09
-2.13026e-09
9.86122e-09
-1.08532e-09
-2.42583e-09
8.01389e-09
-9.89308e-10
-2.87588e-09
6.58322e-09
-9.32608e-10
-3.30318e-09
5.50268e-09
-9.05876e-10
-3.51169e-09
4.60776e-09
-8.68493e-10
-3.34042e-09
3.76068e-09
-8.0183e-10
-2.77559e-09
2.92616e-09
-7.04974e-10
-1.89805e-09
2.23236e-09
-5.95999e-10
-8.05825e-10
1.73736e-09
-5.3419e-10
3.49738e-10
1.56667e-09
-5.18208e-10
1.47208e-09
1.72798e-09
-5.64016e-10
2.47398e-09
2.20523e-09
-6.58388e-10
3.29255e-09
2.93956e-09
-7.55253e-10
3.91698e-09
3.77885e-09
-8.30436e-10
4.30871e-09
4.57088e-09
-8.74351e-10
4.42408e-09
5.28495e-09
-9.013e-10
4.16916e-09
6.06546e-09
-9.61318e-10
3.60182e-09
7.07567e-09
-1.1156e-09
2.91151e-09
8.29349e-09
-1.30009e-09
2.32099e-09
9.47454e-09
-1.33188e-09
2.0156e-09
1.03626e-08
-1.22163e-09
1.92588e-09
1.08742e-08
-1.00895e-09
1.68142e-09
1.12209e-08
-8.13619e-10
9.42007e-10
1.168e-08
-8.03571e-10
1.1564e-08
-9.99794e-10
-1.50275e-09
1.85724e-08
-1.50275e-09
-1.69509e-09
1.90133e-08
-1.35118e-09
-2.03795e-09
1.74791e-08
-1.30209e-09
-2.25333e-09
1.55479e-08
-1.19404e-09
-2.4604e-09
1.33048e-08
-1.0626e-09
-2.75825e-09
1.11614e-08
-9.58052e-10
-3.18269e-09
9.35767e-09
-8.71266e-10
-3.63547e-09
7.9021e-09
-8.13812e-10
-3.94606e-09
6.64663e-09
-7.76545e-10
-3.99235e-09
5.43733e-09
-7.21744e-10
-3.74448e-09
4.21073e-09
-6.32079e-10
-3.2316e-09
3.04968e-09
-5.66492e-10
-2.47686e-09
2.11721e-09
-5.66167e-10
-1.52812e-09
1.51486e-09
-6.50089e-10
-4.21799e-10
1.33864e-09
-8.00054e-10
7.83144e-10
1.56505e-09
-9.62384e-10
1.97689e-09
2.18493e-09
-1.09337e-09
3.05776e-09
3.14693e-09
-1.2089e-09
3.92642e-09
4.27964e-09
-1.29205e-09
4.49233e-09
5.4445e-09
-1.36514e-09
4.68058e-09
6.62917e-09
-1.46203e-09
4.51568e-09
7.8968e-09
-1.60095e-09
4.16762e-09
9.20835e-09
-1.72504e-09
3.865e-09
1.03812e-08
-1.73226e-09
3.69875e-09
1.128e-08
-1.5931e-09
3.5396e-09
1.19229e-08
-1.36101e-09
3.13362e-09
1.25079e-08
-1.19214e-09
2.28762e-09
1.32805e-08
-1.18228e-09
1.09595e-09
1.4276e-08
-1.37654e-09
1.41736e-08
-1.49066e-09
-1.50717e-09
2.16097e-08
-1.50717e-09
-1.86943e-09
2.0773e-08
-1.33684e-09
-2.35956e-09
1.92375e-08
-1.21532e-09
-2.81699e-09
1.71139e-08
-1.05443e-09
-3.34427e-09
1.48076e-08
-9.18627e-10
-3.96414e-09
1.26781e-08
-8.36652e-10
-4.58502e-09
1.08459e-08
-8.03102e-10
-5.04372e-09
9.22497e-09
-7.95485e-10
-5.22506e-09
7.70547e-09
-8.04034e-10
-5.11664e-09
6.19901e-09
-7.91723e-10
-4.76024e-09
4.73077e-09
-7.93461e-10
-4.19332e-09
3.41978e-09
-8.49482e-10
-3.40731e-09
2.3953e-09
-9.72389e-10
-2.35082e-09
1.68134e-09
-1.12766e-09
-1.02564e-09
1.38799e-09
-1.27614e-09
4.58299e-10
1.56705e-09
-1.38524e-09
1.92661e-09
2.27116e-09
-1.4527e-09
3.2298e-09
3.45585e-09
-1.51047e-09
4.26082e-09
4.9336e-09
-1.58483e-09
4.95037e-09
6.53945e-09
-1.68701e-09
5.29385e-09
8.19253e-09
-1.81331e-09
5.40738e-09
9.77892e-09
-1.90748e-09
5.45221e-09
1.11305e-08
-1.88536e-09
5.47373e-09
1.21419e-08
-1.70763e-09
5.34956e-09
1.29388e-08
-1.46668e-09
4.84381e-09
1.38262e-08
-1.33542e-09
3.8762e-09
1.49252e-08
-1.39355e-09
2.59072e-09
1.62162e-08
-1.59999e-09
1.30156e-09
1.73432e-08
-1.73139e-09
1.71748e-08
-1.65847e-09
-1.55539e-09
2.47536e-08
-1.55539e-09
-2.12878e-09
2.27309e-08
-1.29741e-09
-2.90563e-09
2.12085e-08
-1.1172e-09
-3.79572e-09
1.90509e-08
-9.68961e-10
-4.83577e-09
1.67916e-08
-8.63249e-10
-5.89662e-09
1.46636e-08
-8.4093e-10
-6.7424e-09
1.27301e-08
-9.51002e-10
-7.1854e-09
1.08427e-08
-1.08325e-09
-7.21675e-09
8.99592e-09
-1.1632e-09
-6.91199e-09
7.2082e-09
-1.2136e-09
-6.35875e-09
5.5544e-09
-1.27215e-09
-5.55451e-09
4.09249e-09
-1.36773e-09
-4.42076e-09
2.85766e-09
-1.48265e-09
-2.9486e-09
1.88616e-09
-1.55968e-09
-1.20151e-09
1.35723e-09
-1.59564e-09
6.26434e-10
1.4609e-09
-1.59841e-09
2.34499e-09
2.27301e-09
-1.59533e-09
3.83193e-09
3.73721e-09
-1.64253e-09
5.03383e-09
5.61159e-09
-1.75431e-09
5.95091e-09
7.63403e-09
-1.88732e-09
6.61652e-09
9.60599e-09
-1.95736e-09
7.11054e-09
1.12967e-08
-1.89415e-09
7.42177e-09
1.26415e-08
-1.70951e-09
7.39942e-09
1.37739e-08
-1.50203e-09
6.84717e-09
1.49979e-08
-1.40431e-09
5.76362e-09
1.64612e-08
-1.45467e-09
4.3454e-09
1.81246e-08
-1.69118e-09
2.90417e-09
1.96297e-08
-1.88758e-09
1.62717e-09
2.05724e-08
-1.86986e-09
2.05552e-08
-1.67897e-09
-1.60945e-09
2.80215e-08
-1.60945e-09
-2.6059e-09
2.51811e-08
-1.32968e-09
-3.92148e-09
2.37751e-08
-1.1404e-09
-5.46195e-09
2.17266e-08
-1.02432e-09
-7.09076e-09
1.96022e-08
-1.06867e-09
-8.5147e-09
1.74717e-08
-1.26905e-09
-9.47102e-09
1.52727e-08
-1.46861e-09
-9.86446e-09
1.29706e-08
-1.61378e-09
-9.73405e-09
1.06803e-08
-1.69113e-09
-9.19236e-09
8.53748e-09
-1.74427e-09
-8.29251e-09
6.59784e-09
-1.81371e-09
-7.0058e-09
4.8291e-09
-1.89076e-09
-5.29786e-09
3.20994e-09
-1.92483e-09
-3.24241e-09
1.86859e-09
-1.8999e-09
-1.01482e-09
1.11197e-09
-1.84185e-09
1.14807e-09
1.22836e-09
-1.78749e-09
3.11882e-09
2.27081e-09
-1.82336e-09
4.87248e-09
4.06953e-09
-1.93836e-09
6.4189e-09
6.28379e-09
-2.0686e-09
7.75129e-09
8.57189e-09
-2.1184e-09
8.84404e-09
1.06951e-08
-2.02918e-09
9.60388e-09
1.25352e-08
-1.8457e-09
9.84181e-09
1.42234e-08
-1.66749e-09
9.36452e-09
1.6001e-08
-1.59834e-09
8.24771e-09
1.79101e-08
-1.64653e-09
6.71823e-09
1.99629e-08
-1.82787e-09
5.03472e-09
2.19824e-08
-2.03406e-09
3.48478e-09
2.34344e-08
-2.11654e-09
2.1047e-09
2.40845e-08
-1.99377e-09
2.44628e-08
-1.67848e-09
-1.79733e-09
3.16873e-08
-1.79733e-09
-3.59552e-09
2.86815e-08
-1.53291e-09
-5.66508e-09
2.74412e-08
-1.44484e-09
-7.88731e-09
2.56704e-08
-1.57028e-09
-9.99133e-09
2.36392e-08
-1.78114e-09
-1.16495e-08
2.12791e-08
-1.99703e-09
-1.26394e-08
1.857e-08
-2.15465e-09
-1.294e-08
1.56632e-08
-2.23862e-09
-1.26412e-08
1.28183e-08
-2.28328e-09
-1.18122e-08
1.0203e-08
-2.34135e-09
-1.04447e-08
7.79788e-09
-2.4149e-09
-8.52566e-09
5.50381e-09
-2.44192e-09
-6.11241e-09
3.3428e-09
-2.39498e-09
-3.41529e-09
1.62876e-09
-2.30673e-09
-7.18874e-10
7.66785e-10
-2.20047e-09
1.83333e-09
1.0273e-09
-2.19902e-09
4.21937e-09
2.33467e-09
-2.29486e-09
6.4831e-09
4.36678e-09
-2.40137e-09
8.61369e-09
6.73076e-09
-2.41215e-09
1.04947e-08
9.16416e-09
-2.30158e-09
1.19202e-08
1.1559e-08
-2.11095e-09
1.26713e-08
1.39163e-08
-1.94659e-09
1.25542e-08
1.6338e-08
-1.80496e-09
1.15685e-08
1.90306e-08
-1.84602e-09
1.00092e-08
2.17299e-08
-2.0596e-09
8.19844e-09
2.423e-08
-2.25331e-09
6.31254e-09
2.64279e-08
-2.35336e-09
4.51826e-09
2.77695e-08
-2.33088e-09
2.7853e-09
2.81953e-08
-2.16364e-09
2.92251e-08
-1.78494e-09
-2.26822e-09
3.63218e-08
-2.26822e-09
-5.19127e-09
3.4023e-08
-2.20052e-09
-8.13639e-09
3.29336e-08
-2.35152e-09
-1.09636e-08
3.12455e-08
-2.55435e-09
-1.3368e-08
2.89958e-08
-2.76046e-09
-1.51069e-08
2.61073e-08
-2.90019e-09
-1.60866e-08
2.26852e-08
-2.94978e-09
-1.63461e-08
1.90648e-08
-2.96047e-09
-1.59181e-08
1.5557e-08
-2.99044e-09
-1.4761e-08
1.22746e-08
-3.0584e-09
-1.28361e-08
9.12247e-09
-3.08586e-09
-1.01786e-08
6.03736e-09
-3.03418e-09
-7.02255e-09
3.26283e-09
-2.92564e-09
-3.70126e-09
1.25502e-09
-2.80269e-09
-4.52896e-10
4.08027e-10
-2.74841e-09
2.68132e-09
8.09517e-10
-2.77613e-09
5.76493e-09
2.23675e-09
-2.84296e-09
8.80728e-09
4.31909e-09
-2.84612e-09
1.16592e-08
6.76053e-09
-2.7242e-09
1.40462e-08
9.4585e-09
-2.51211e-09
1.56121e-08
1.24781e-08
-2.30102e-09
1.61459e-08
1.57936e-08
-2.2103e-09
1.56855e-08
1.92624e-08
-2.24613e-09
1.43813e-08
2.29563e-08
-2.38766e-09
1.25186e-08
2.646e-08
-2.61817e-09
1.04494e-08
2.93273e-08
-2.76339e-09
8.32122e-09
3.1556e-08
-2.72025e-09
6.03457e-09
3.29089e-08
-2.55977e-09
3.45265e-09
3.34985e-08
-2.41663e-09
3.54018e-08
-2.45144e-09
-3.26029e-09
4.29688e-08
-3.26029e-09
-7.34269e-09
4.17799e-08
-3.41296e-09
-1.10997e-08
4.05479e-08
-3.62227e-09
-1.43949e-08
3.857e-08
-3.79938e-09
-1.70171e-08
3.57381e-08
-3.89638e-09
-1.88572e-08
3.20517e-08
-3.88929e-09
-1.99263e-08
2.77939e-08
-3.8353e-09
-2.02314e-08
2.33747e-08
-3.81313e-09
-1.96676e-08
1.90196e-08
-3.84884e-09
-1.81051e-08
1.47574e-08
-3.88267e-09
-1.55052e-08
1.0518e-08
-3.84793e-09
-1.20723e-08
6.4712e-09
-3.7339e-09
-8.19384e-09
3.08961e-09
-3.58624e-09
-4.21686e-09