/*--------------------------------*- C++ -*----------------------------------*\
| =========                 |                                                 |
| \\      /  F ield         | OpenFOAM: The Open Source CFD Toolbox           |
|  \\    /   O peration     | Version:  2312                                  |
|   \\  /    A nd           | Website:  www.openfoam.com                      |
|    \\/     M anipulation  |                                                 |
\*---------------------------------------------------------------------------*/
FoamFile
{
    version     2.0;
    format      ascii;
    arch        "LSB;label=32;scalar=64";
    class       volVectorField;
    location    "0.602264";
    object      U;
}
// * * * * * * * * * * * * * * * * * * * * * * * * * * * * * * * * * * * * * //

dimensions      [0 1 -1 0 0 0 0];

internalField   nonuniform List<vector> 
90000
(
(1.82535e-06 -1.04024e-06 1.82535e-06)
(-2.76383e-06 5.56248e-06 -2.33406e-07)
(-1.08e-05 4.22623e-06 -6.8624e-07)
(-1.40215e-05 3.5301e-06 -1.36424e-06)
(-1.61708e-05 2.83455e-06 -1.8053e-06)
(-1.65484e-05 1.88759e-06 -2.09972e-06)
(-1.52805e-05 9.20776e-07 -2.28287e-06)
(-1.28293e-05 2.71275e-07 -2.28798e-06)
(-9.95339e-06 5.76428e-08 -2.14428e-06)
(-7.37264e-06 3.68931e-07 -2.03859e-06)
(-5.43634e-06 1.00004e-06 -2.1289e-06)
(-4.04726e-06 1.7603e-06 -2.47795e-06)
(-2.7839e-06 2.35316e-06 -3.00135e-06)
(-1.12419e-06 2.58376e-06 -3.52245e-06)
(1.52205e-06 2.40156e-06 -3.87934e-06)
(5.38383e-06 1.84927e-06 -3.91204e-06)
(9.92048e-06 1.11268e-06 -3.46252e-06)
(1.41257e-05 5.38946e-07 -2.47775e-06)
(1.68855e-05 4.7579e-07 -1.33779e-06)
(1.71436e-05 1.09913e-06 -1.76667e-07)
(1.43134e-05 2.29854e-06 6.69548e-07)
(8.32377e-06 3.8454e-06 7.81827e-07)
(-5.09125e-07 5.17418e-06 2.77302e-07)
(-1.07432e-05 6.08404e-06 -8.47015e-07)
(-1.99336e-05 5.78835e-06 -2.49345e-06)
(-2.56287e-05 4.18638e-06 -4.10028e-06)
(-2.67893e-05 1.69993e-06 -4.68605e-06)
(-2.61273e-05 -1.95586e-06 -1.49632e-06)
(-2.94481e-05 -8.80286e-06 1.05887e-05)
(-1.65351e-05 -4.72393e-05 4.10626e-05)
(-1.51444e-06 2.58406e-06 -1.51444e-06)
(-4.03206e-06 1.35208e-05 -1.40666e-06)
(-5.83194e-06 1.05218e-05 -1.33295e-06)
(-7.19539e-06 8.75608e-06 -1.0475e-06)
(-8.23082e-06 6.78527e-06 -7.34444e-07)
(-8.85486e-06 4.4282e-06 -5.21717e-07)
(-9.04767e-06 2.20484e-06 -4.22071e-07)
(-8.89633e-06 6.96086e-07 -4.85675e-07)
(-8.38846e-06 3.18024e-07 -6.91287e-07)
(-7.41852e-06 9.5181e-07 -1.02309e-06)
(-5.92273e-06 2.19318e-06 -1.33807e-06)
(-3.84565e-06 3.54769e-06 -1.53571e-06)
(-1.27886e-06 4.48338e-06 -1.57529e-06)
(1.58359e-06 4.6822e-06 -1.45971e-06)
(4.46118e-06 4.15843e-06 -1.20107e-06)
(6.89524e-06 3.12709e-06 -8.87262e-07)
(8.48982e-06 2.14884e-06 -6.43987e-07)
(9.20532e-06 1.90479e-06 -7.7211e-07)
(9.04097e-06 2.85599e-06 -1.06583e-06)
(7.93649e-06 5.02214e-06 -1.52886e-06)
(6.19624e-06 7.9398e-06 -2.05599e-06)
(4.16026e-06 1.1045e-05 -2.22951e-06)
(2.19266e-06 1.32105e-05 -2.17715e-06)
(1.04706e-06 1.37212e-05 -1.76296e-06)
(1.14332e-06 1.11936e-05 -8.89872e-07)
(2.94424e-06 5.55632e-06 -5.25815e-07)
(6.97892e-06 -3.98307e-07 -1.63004e-06)
(1.44477e-05 -7.64675e-07 -4.89412e-06)
(-2.42669e-06 5.21485e-07 -5.5617e-06)
(-1.2093e-05 -0.000101106 -9.51109e-07)
(-1.70346e-06 9.37885e-06 -1.70346e-06)
(-1.63715e-06 1.61144e-05 -1.09863e-06)
(2.00756e-07 1.28998e-05 -6.54169e-07)
(2.77719e-07 1.07689e-05 -1.60537e-07)
(-2.87703e-07 8.43579e-06 2.51679e-07)
(-1.71304e-06 5.90878e-06 4.42415e-07)
(-3.66566e-06 3.72551e-06 3.62914e-07)
(-5.61208e-06 2.23781e-06 5.69826e-08)
(-6.95078e-06 1.72029e-06 -4.26793e-07)
(-7.11134e-06 1.94293e-06 -8.83064e-07)
(-5.74849e-06 2.54819e-06 -1.19332e-06)
(-3.03709e-06 3.14635e-06 -1.18356e-06)
(4.36443e-07 3.46837e-06 -8.60557e-07)
(3.7438e-06 3.46747e-06 -3.55146e-07)
(5.971e-06 3.23804e-06 1.82023e-07)
(6.59247e-06 3.15356e-06 4.87558e-07)
(5.54348e-06 3.62146e-06 3.11014e-07)
(3.38231e-06 5.03105e-06 -2.72376e-07)
(1.03448e-06 7.33939e-06 -1.18703e-06)
(-2.21221e-07 1.03099e-05 -2.19575e-06)
(5.71232e-07 1.31645e-05 -3.0098e-06)
(3.66362e-06 1.53809e-05 -3.28367e-06)
(8.81768e-06 1.59435e-05 -2.9043e-06)
(1.50107e-05 1.40581e-05 -1.72743e-06)
(2.06363e-05 9.34794e-06 3.93176e-07)
(2.40783e-05 1.4226e-06 3.34754e-06)
(2.55882e-05 -6.59494e-06 4.7735e-06)
(3.43707e-05 -3.40074e-06 2.64905e-07)
(3.3398e-05 3.31416e-05 -4.51147e-06)
(1.22662e-05 -7.55135e-05 -1.93242e-05)
(-1.45889e-06 1.30063e-05 -1.45889e-06)
(3.79173e-07 1.40248e-05 -4.6831e-07)
(4.26071e-06 1.17214e-05 4.90411e-08)
(5.23874e-06 1.02583e-05 5.99159e-07)
(4.98961e-06 8.85325e-06 8.90703e-07)
(3.21718e-06 7.49058e-06 9.58075e-07)
(5.08254e-07 6.24553e-06 6.98642e-07)
(-2.50154e-06 5.24564e-06 2.3487e-07)
(-4.8138e-06 4.4046e-06 -2.58425e-07)
(-5.68362e-06 3.64236e-06 -6.9531e-07)
(-4.82864e-06 2.89429e-06 -9.22572e-07)
(-2.5083e-06 2.1881e-06 -8.64199e-07)
(5.0992e-07 1.74571e-06 -5.39834e-07)
(3.11669e-06 1.8565e-06 -9.94061e-08)
(4.45853e-06 2.73585e-06 2.08253e-07)
(4.16205e-06 4.44537e-06 2.55845e-07)
(2.3683e-06 6.80194e-06 -2.42448e-08)
(-1.17324e-07 9.49924e-06 -6.34341e-07)
(-2.02981e-06 1.20298e-05 -1.40569e-06)
(-1.9629e-06 1.40736e-05 -2.00957e-06)
(9.64508e-07 1.51315e-05 -2.50885e-06)
(6.96896e-06 1.50296e-05 -2.50786e-06)
(1.50576e-05 1.33818e-05 -2.01045e-06)
(2.3331e-05 1.02976e-05 -1.03559e-06)
(2.9754e-05 6.42928e-06 4.15439e-07)
(3.14484e-05 1.88004e-06 2.72684e-06)
(2.58092e-05 -5.34955e-06 5.74844e-06)
(1.97193e-05 -1.13958e-05 7.00116e-06)
(2.22967e-05 4.3346e-05 4.37063e-06)
(1.31476e-05 -2.00622e-05 -9.68749e-06)
(-8.91691e-07 1.43006e-05 -8.91691e-07)
(2.00266e-06 8.74461e-06 4.24737e-07)
(6.7564e-06 8.24973e-06 8.06084e-07)
(8.16684e-06 8.17988e-06 1.11656e-06)
(8.18482e-06 8.45679e-06 1.20584e-06)
(6.61793e-06 8.85223e-06 1.09823e-06)
(3.97189e-06 8.99165e-06 7.54822e-07)
(9.83492e-07 8.64177e-06 3.47516e-07)
(-1.57776e-06 7.62285e-06 -4.10661e-08)
(-3.10772e-06 5.9166e-06 -3.3477e-07)
(-3.44045e-06 3.8574e-06 -4.88411e-07)
(-2.81099e-06 2.0034e-06 -4.83772e-07)
(-1.65136e-06 1.00092e-06 -4.347e-07)
(-5.15284e-07 1.32567e-06 -4.24953e-07)
(5.00065e-08 3.23171e-06 -4.93231e-07)
(-1.07503e-07 6.33783e-06 -6.66378e-07)
(-7.00381e-07 9.8769e-06 -9.53624e-07)
(-1.20584e-06 1.29424e-05 -1.18507e-06)
(-7.55285e-07 1.48077e-05 -1.30721e-06)
(1.46953e-06 1.50474e-05 -1.2705e-06)
(5.80651e-06 1.38193e-05 -1.10524e-06)
(1.19411e-05 1.14369e-05 -7.74642e-07)
(1.88082e-05 8.57792e-06 -2.47059e-07)
(2.47242e-05 6.32084e-06 1.36273e-07)
(2.82701e-05 5.63613e-06 -1.17673e-07)
(2.86198e-05 7.50646e-06 -1.01046e-06)
(2.29919e-05 8.55104e-06 -1.97224e-06)
(6.52001e-06 6.67243e-08 -7.58812e-07)
(2.73685e-06 3.95835e-05 -1.38537e-06)
(5.24321e-06 1.26049e-05 -8.93267e-06)
(-1.57499e-07 1.33143e-05 -1.57499e-07)
(2.84913e-06 2.19375e-06 9.58591e-07)
(6.99272e-06 4.00867e-06 1.07663e-06)
(8.49218e-06 5.53457e-06 1.06841e-06)
(8.97853e-06 7.73997e-06 9.06434e-07)
(8.32724e-06 9.99981e-06 6.43257e-07)
(6.80829e-06 1.1649e-05 3.35833e-07)
(4.77761e-06 1.2136e-05 1.37074e-07)
(2.52441e-06 1.12064e-05 3.78453e-08)
(2.77902e-07 9.02411e-06 -7.97842e-09)
(-1.76512e-06 6.21644e-06 -3.53992e-08)
(-3.551e-06 3.67156e-06 -2.04688e-07)
(-4.99193e-06 2.3295e-06 -5.16003e-07)
(-5.80802e-06 2.69505e-06 -8.98443e-07)
(-5.81416e-06 4.81124e-06 -1.30375e-06)
(-4.9249e-06 8.0731e-06 -1.60106e-06)
(-3.15593e-06 1.14512e-05 -1.65621e-06)
(-5.69707e-07 1.37339e-05 -1.35003e-06)
(2.83511e-06 1.42418e-05 -8.18519e-07)
(6.89557e-06 1.27801e-05 -9.53912e-08)
(1.125e-05 1.00891e-05 5.9665e-07)
(1.52921e-05 6.98147e-06 1.22555e-06)
(1.82831e-05 5.06901e-06 1.35054e-06)
(1.93354e-05 5.76986e-06 9.28436e-07)
(1.77449e-05 9.34489e-06 -1.55289e-08)
(1.41887e-05 1.60393e-05 -1.81755e-06)
(1.04134e-05 2.59117e-05 -4.31865e-06)
(2.73468e-07 2.55302e-05 -5.57264e-06)
(-5.37973e-06 4.56829e-05 -5.96917e-06)
(-1.39017e-06 2.91677e-05 -8.04398e-06)
(-2.99972e-08 1.1554e-05 -2.99972e-08)
(2.0824e-06 -3.41986e-06 5.10692e-07)
(5.02195e-06 6.63098e-07 3.62955e-07)
(6.48284e-06 3.61927e-06 7.93575e-09)
(7.7724e-06 7.40596e-06 -3.4839e-07)
(8.72545e-06 1.11742e-05 -6.07103e-07)
(9.09317e-06 1.40538e-05 -6.64492e-07)
(8.61885e-06 1.54273e-05 -4.97088e-07)
(7.01612e-06 1.50354e-05 -1.35121e-07)
(4.18901e-06 1.3159e-05 2.12588e-07)
(3.56142e-07 1.05102e-05 3.52533e-07)
(-3.88972e-06 7.86502e-06 1.86149e-07)
(-7.78018e-06 6.06029e-06 -2.7975e-07)
(-1.03484e-05 5.59957e-06 -9.23574e-07)
(-1.07947e-05 6.49071e-06 -1.45791e-06)
(-8.95417e-06 8.224e-06 -1.65544e-06)
(-5.18301e-06 9.95999e-06 -1.43596e-06)
(-1.3503e-07 1.06851e-05 -8.06575e-07)
(5.4003e-06 9.95711e-06 1.12179e-07)
(1.03592e-05 7.87944e-06 9.90232e-07)
(1.37517e-05 5.33458e-06 1.83108e-06)
(1.4947e-05 3.73261e-06 2.13774e-06)
(1.39415e-05 4.75729e-06 1.8282e-06)
(1.10174e-05 9.33119e-06 7.49292e-07)
(6.3353e-06 1.70844e-05 -8.85805e-07)
(3.27517e-07 2.66758e-05 -2.67068e-06)
(-3.23783e-06 3.88459e-05 -4.80186e-06)
(-6.33527e-06 4.42526e-05 -5.42372e-06)
(-6.98097e-06 5.40435e-05 -5.64181e-06)
(-2.50373e-06 3.73544e-05 -5.69763e-06)
(-8.73783e-07 1.17527e-05 -8.73783e-07)
(-3.8382e-07 -5.8385e-06 -8.91146e-07)
(1.48143e-06 -9.92792e-08 -1.41559e-06)
(3.05237e-06 3.63998e-06 -1.93604e-06)
(5.4871e-06 8.13612e-06 -2.24822e-06)
(8.2524e-06 1.25026e-05 -2.24239e-06)
(1.06619e-05 1.60639e-05 -1.85007e-06)
(1.18613e-05 1.83081e-05 -1.20438e-06)
(1.10776e-05 1.89876e-05 -4.41195e-07)
(8.05199e-06 1.81922e-05 2.98176e-07)
(3.12005e-06 1.63492e-05 7.5763e-07)
(-2.78866e-06 1.39276e-05 7.2368e-07)
(-8.3458e-06 1.13334e-05 3.46938e-07)
(-1.21692e-05 9.06201e-06 -8.17964e-08)
(-1.32903e-05 7.4053e-06 -4.61182e-07)
(-1.15161e-05 6.24855e-06 -6.13265e-07)
(-7.28928e-06 5.33986e-06 -3.05444e-07)
(-1.53037e-06 4.34476e-06 3.55294e-07)
(4.30532e-06 3.02808e-06 1.18062e-06)
(8.72428e-06 1.62238e-06 1.83934e-06)
(1.10024e-05 9.84762e-07 2.14419e-06)
(1.06463e-05 2.433e-06 1.99906e-06)
(7.64898e-06 6.94717e-06 1.35248e-06)
(3.02072e-06 1.46413e-05 3.09211e-07)
(-1.88685e-06 2.51859e-05 -9.90531e-07)
(-6.29192e-06 3.61636e-05 -2.14174e-06)
(-8.27544e-06 4.68197e-05 -3.13668e-06)
(-8.0224e-06 5.26632e-05 -3.32812e-06)
(-4.30365e-06 5.62299e-05 -3.23501e-06)
(-4.19514e-07 3.93764e-05 -1.74311e-06)
(-2.72509e-06 1.68821e-05 -2.72509e-06)
(-4.10793e-06 -3.83621e-06 -3.05023e-06)
(-2.49361e-06 2.72696e-06 -3.58167e-06)
(-7.00318e-07 6.20159e-06 -3.93554e-06)
(2.71671e-06 1.01968e-05 -3.94676e-06)
(6.83955e-06 1.41134e-05 -3.52003e-06)
(1.06802e-05 1.76695e-05 -2.72194e-06)
(1.30947e-05 2.05837e-05 -1.67852e-06)
(1.31289e-05 2.25631e-05 -6.39715e-07)
(1.05329e-05 2.32236e-05 2.83344e-07)
(5.8089e-06 2.23582e-05 9.72831e-07)
(-8.68294e-08 1.99894e-05 1.32192e-06)
(-5.83903e-06 1.62717e-05 1.39217e-06)
(-1.01429e-05 1.17288e-05 1.32785e-06)
(-1.22887e-05 7.10412e-06 1.27998e-06)
(-1.20568e-05 2.90626e-06 1.28306e-06)
(-9.64398e-06 -4.8969e-07 1.3869e-06)
(-5.87574e-06 -2.8395e-06 1.54497e-06)
(-1.82707e-06 -4.13177e-06 1.6195e-06)
(1.42908e-06 -4.11712e-06 1.43374e-06)
(3.21245e-06 -2.09571e-06 1.0279e-06)
(3.25835e-06 2.41545e-06 5.33704e-07)
(1.60797e-06 9.62132e-06 -9.8362e-08)
(-1.06683e-06 1.91218e-05 -6.40952e-07)
(-3.75555e-06 3.00139e-05 -9.33326e-07)
(-5.62273e-06 4.0342e-05 -9.47424e-07)
(-5.65413e-06 4.81445e-05 -1.05256e-06)
(-4.03027e-06 5.19178e-05 -5.07524e-07)
(1.67549e-07 5.2298e-05 3.54279e-07)
(1.68428e-06 3.8471e-05 1.28582e-06)
(-4.14144e-06 2.78206e-05 -4.14144e-06)
(-6.84976e-06 2.03481e-06 -4.38477e-06)
(-5.53901e-06 8.49883e-06 -4.64395e-06)
(-4.08605e-06 1.0442e-05 -4.63911e-06)
(-7.25812e-07 1.28045e-05 -4.17309e-06)
(3.29248e-06 1.54856e-05 -3.40729e-06)
(7.05932e-06 1.86252e-05 -2.4318e-06)
(9.65658e-06 2.20349e-05 -1.44123e-06)
(1.04537e-05 2.50051e-05 -5.72457e-07)
(9.30919e-06 2.69726e-05 2.54825e-07)
(6.54427e-06 2.6941e-05 9.23456e-07)
(2.71407e-06 2.44287e-05 1.50732e-06)
(-1.44878e-06 1.96099e-05 2.05179e-06)
(-5.33694e-06 1.326e-05 2.41945e-06)
(-8.60519e-06 6.41997e-06 2.60199e-06)
(-1.09305e-05 2.60324e-07 2.54693e-06)
(-1.20791e-05 -4.58085e-06 2.23584e-06)
(-1.197e-05 -7.59671e-06 1.49851e-06)
(-1.06563e-05 -8.58888e-06 4.97279e-07)
(-8.62591e-06 -7.20731e-06 -5.2545e-07)
(-6.33438e-06 -3.55591e-06 -1.41169e-06)
(-4.09879e-06 2.59994e-06 -2.03764e-06)
(-2.27761e-06 1.10223e-05 -2.24919e-06)
(-1.12741e-06 2.09196e-05 -1.97682e-06)
(-4.69405e-07 3.08668e-05 -1.58699e-06)
(2.67255e-07 3.97034e-05 -9.22781e-07)
(1.61159e-06 4.53419e-05 -3.31092e-08)
(3.24846e-06 4.74199e-05 8.87547e-07)
(4.95501e-06 4.71485e-05 1.44542e-06)
(2.99787e-06 3.8336e-05 1.48881e-06)
(-3.62547e-06 4.0801e-05 -3.62547e-06)
(-6.84046e-06 9.21355e-06 -3.47909e-06)
(-7.18651e-06 1.47951e-05 -3.22582e-06)
(-7.32766e-06 1.4588e-05 -2.84792e-06)
(-6.03347e-06 1.49084e-05 -2.17566e-06)
(-4.29384e-06 1.61878e-05 -1.49029e-06)
(-2.44263e-06 1.8771e-05 -9.63875e-07)
(-7.66142e-07 2.22475e-05 -6.76921e-07)
(7.88551e-07 2.56794e-05 -5.44579e-07)
(2.2262e-06 2.82333e-05 -4.03813e-07)
(3.20493e-06 2.87031e-05 7.72824e-08)
(3.33496e-06 2.6361e-05 6.39748e-07)
(2.30383e-06 2.14204e-05 1.39072e-06)
(-2.34838e-07 1.48258e-05 1.94997e-06)
(-4.28486e-06 7.68945e-06 2.10246e-06)
(-9.07023e-06 1.40534e-06 1.73492e-06)
(-1.357e-05 -3.44617e-06 7.32175e-07)
(-1.68008e-05 -6.58954e-06 -6.69375e-07)
(-1.78604e-05 -7.70179e-06 -2.14358e-06)
(-1.64094e-05 -6.40529e-06 -3.42053e-06)
(-1.29003e-05 -2.96225e-06 -4.2621e-06)
(-8.23675e-06 3.02493e-06 -4.48928e-06)
(-3.27239e-06 1.1179e-05 -4.26574e-06)
(1.21269e-06 2.05108e-05 -3.6506e-06)
(4.84554e-06 2.96498e-05 -2.77291e-06)
(7.59896e-06 3.73589e-05 -1.82095e-06)
(9.35862e-06 4.22728e-05 -8.89952e-07)
(9.64505e-06 4.4628e-05 -1.87133e-07)
(8.40889e-06 4.56375e-05 6.80697e-08)
(3.81902e-06 4.12364e-05 2.99882e-07)
(-3.07607e-07 4.87948e-05 -3.07607e-07)
(-3.59074e-06 1.59318e-05 -3.10704e-08)
(-8.56186e-06 1.98741e-05 6.54909e-07)
(-1.21777e-05 1.80383e-05 9.33158e-07)
(-1.52368e-05 1.67621e-05 1.35891e-06)
(-1.75773e-05 1.6882e-05 1.17258e-06)
(-1.87022e-05 1.87274e-05 4.83863e-07)
(-1.80314e-05 2.16753e-05 -3.72202e-07)
(-1.51317e-05 2.47206e-05 -1.26512e-06)
(-1.02393e-05 2.68877e-05 -1.76462e-06)
(-4.38205e-06 2.74421e-05 -1.7264e-06)
(7.75969e-07 2.59709e-05 -1.16389e-06)
(3.62045e-06 2.262e-05 -7.28411e-07)
(3.11502e-06 1.81954e-05 -4.60104e-07)
(-4.95272e-07 1.3225e-05 -4.66021e-07)
(-6.04109e-06 8.64619e-06 -1.16953e-06)
(-1.21515e-05 4.61625e-06 -2.30522e-06)
(-1.68933e-05 1.23847e-06 -3.49997e-06)
(-1.8667e-05 -1.14641e-06 -4.6984e-06)
(-1.71644e-05 -1.82199e-06 -5.4286e-06)
(-1.30107e-05 -3.03777e-07 -5.74014e-06)
(-7.20594e-06 3.97237e-06 -5.4834e-06)
(-9.34097e-07 1.08468e-05 -4.80313e-06)
(4.87205e-06 1.94032e-05 -4.00441e-06)
(9.67084e-06 2.81956e-05 -3.27703e-06)
(1.31233e-05 3.57653e-05 -2.46755e-06)
(1.48798e-05 4.13411e-05 -1.72445e-06)
(1.42263e-05 4.52461e-05 -1.11579e-06)
(1.15727e-05 4.80685e-05 -4.94107e-07)
(5.06413e-06 4.69694e-05 8.41048e-07)
(4.97194e-06 4.61568e-05 4.97194e-06)
(7.52402e-07 2.28047e-05 4.74513e-06)
(-1.19914e-05 2.42568e-05 5.06021e-06)
(-1.99939e-05 2.20479e-05 4.56304e-06)
(-2.81641e-05 2.02046e-05 3.6967e-06)
(-3.46692e-05 1.969e-05 2.22311e-06)
(-3.82889e-05 2.0248e-05 3.29597e-07)
(-3.79099e-05 2.15192e-05 -1.46642e-06)
(-3.2848e-05 2.29118e-05 -2.77831e-06)
(-2.4035e-05 2.36177e-05 -3.54583e-06)
(-1.36461e-05 2.40549e-05 -3.66345e-06)
(-4.12385e-06 2.42015e-05 -3.3818e-06)
(2.45416e-06 2.40197e-05 -2.90107e-06)
(4.58874e-06 2.36483e-05 -2.86147e-06)
(2.74176e-06 2.25875e-05 -3.17537e-06)
(-1.42794e-06 2.05987e-05 -3.68108e-06)
(-6.21026e-06 1.74143e-05 -4.22459e-06)
(-9.52555e-06 1.29529e-05 -4.86196e-06)
(-1.04027e-05 8.12218e-06 -5.11062e-06)
(-8.76299e-06 4.50112e-06 -4.95899e-06)
(-5.1618e-06 3.08975e-06 -4.4903e-06)
(-5.72639e-07 5.09646e-06 -3.84353e-06)
(4.18597e-06 1.0605e-05 -3.17559e-06)
(8.66269e-06 1.857e-05 -2.64109e-06)
(1.27152e-05 2.72276e-05 -2.21422e-06)
(1.59917e-05 3.51311e-05 -1.65766e-06)
(1.77576e-05 4.17311e-05 -8.83764e-07)
(1.71139e-05 4.71188e-05 1.78998e-07)
(1.43334e-05 5.12864e-05 1.24459e-06)
(6.3999e-06 5.41399e-05 2.77355e-06)
(9.01072e-06 3.31877e-05 9.01072e-06)
(2.40375e-06 3.29297e-05 6.85562e-06)
(-1.83219e-05 3.17578e-05 6.12619e-06)
(-2.98976e-05 2.98285e-05 4.86043e-06)
(-4.13469e-05 2.80636e-05 2.96315e-06)
(-5.0147e-05 2.65719e-05 6.25954e-07)
(-5.45793e-05 2.4867e-05 -1.57851e-06)
(-5.30274e-05 2.28148e-05 -3.23399e-06)
(-4.55095e-05 2.07527e-05 -4.26024e-06)
(-3.40035e-05 1.90517e-05 -4.56481e-06)
(-2.10696e-05 1.92891e-05 -4.404e-06)
(-9.25426e-06 2.15239e-05 -4.12098e-06)
(-3.31813e-07 2.52576e-05 -3.98341e-06)
(4.60283e-06 2.91675e-05 -4.05724e-06)
(6.03492e-06 3.1877e-05 -4.12558e-06)
(5.71069e-06 3.21419e-05 -4.29994e-06)
(4.89454e-06 2.92919e-05 -4.26448e-06)
(4.50827e-06 2.3187e-05 -3.84011e-06)
(4.9614e-06 1.58061e-05 -3.02369e-06)
(6.02496e-06 9.40587e-06 -2.14996e-06)
(7.32228e-06 5.72485e-06 -1.25826e-06)
(8.526e-06 6.24083e-06 -5.58604e-07)
(9.65635e-06 1.09119e-05 -3.03914e-07)
(1.13582e-05 1.82553e-05 -5.16417e-07)
(1.38488e-05 2.64466e-05 -4.70889e-07)
(1.64332e-05 3.43399e-05 7.376e-08)
(1.78464e-05 4.1657e-05 1.11843e-06)
(1.69876e-05 4.815e-05 2.43205e-06)
(1.32941e-05 5.37888e-05 3.52332e-06)
(5.42658e-06 6.17029e-05 3.003e-06)
(7.75779e-06 1.93272e-05 7.75779e-06)
(-2.27846e-06 5.01524e-05 4.10685e-06)
(-2.6056e-05 4.6044e-05 2.75394e-06)
(-3.88651e-05 4.38497e-05 8.68505e-07)
(-5.04559e-05 4.15128e-05 -9.80345e-07)
(-5.81998e-05 3.75635e-05 -2.64075e-06)
(-6.07509e-05 3.19228e-05 -3.71345e-06)
(-5.72061e-05 2.48667e-05 -4.18577e-06)
(-4.84889e-05 1.80608e-05 -3.94809e-06)
(-3.69193e-05 1.3765e-05 -3.83765e-06)
(-2.46911e-05 1.36729e-05 -3.50318e-06)
(-1.35712e-05 1.79112e-05 -3.37837e-06)
(-4.33726e-06 2.4968e-05 -3.53795e-06)
(2.89051e-06 3.21944e-05 -3.88292e-06)
(8.53953e-06 3.72532e-05 -3.92889e-06)
(1.32558e-05 3.84938e-05 -3.66557e-06)
(1.72855e-05 3.52272e-05 -2.8726e-06)
(2.03669e-05 2.80205e-05 -1.59525e-06)
(2.20099e-05 1.94435e-05 -1.8711e-07)
(2.17874e-05 1.21175e-05 1.03754e-06)
(1.97823e-05 8.41699e-06 1.68539e-06)
(1.68615e-05 9.02803e-06 1.52168e-06)
(1.44126e-05 1.33211e-05 8.10154e-07)
(1.36004e-05 1.96373e-05 3.31685e-07)
(1.44468e-05 2.66422e-05 4.70069e-07)
(1.57215e-05 3.40644e-05 1.12657e-06)
(1.55928e-05 4.20394e-05 1.78817e-06)
(1.2948e-05 5.04754e-05 2.13492e-06)
(6.95369e-06 5.92279e-05 1.34113e-06)
(1.48374e-06 7.00026e-05 -1.45994e-06)
(1.53899e-06 1.76386e-05 1.53899e-06)
(-1.10048e-05 7.504e-05 -2.17682e-06)
(-3.09249e-05 6.70652e-05 -3.33006e-06)
(-4.20865e-05 6.33109e-05 -4.61049e-06)
(-5.07144e-05 5.84894e-05 -5.16043e-06)
(-5.50708e-05 5.02721e-05 -5.00272e-06)
(-5.45065e-05 3.90109e-05 -4.49679e-06)
(-4.97741e-05 2.63154e-05 -3.7461e-06)
(-4.237e-05 1.54068e-05 -2.93383e-06)
(-3.41407e-05 9.0558e-06 -2.4465e-06)
(-2.61781e-05 8.96575e-06 -2.35881e-06)
(-1.84019e-05 1.46923e-05 -2.73315e-06)
(-1.02909e-05 2.34382e-05 -3.40657e-06)
(-1.27185e-06 3.19229e-05 -3.94031e-06)
(8.55889e-06 3.75521e-05 -3.99281e-06)
(1.82149e-05 3.87376e-05 -3.3985e-06)
(2.65225e-05 3.52916e-05 -2.2412e-06)
(3.22703e-05 2.86003e-05 -7.42874e-07)
(3.41871e-05 2.12653e-05 4.27903e-07)
(3.2393e-05 1.59457e-05 1.06795e-06)
(2.81081e-05 1.42025e-05 7.91703e-07)
(2.30045e-05 1.57886e-05 3.94073e-08)
(1.90438e-05 1.95016e-05 -5.84601e-07)
(1.70005e-05 2.42317e-05 -7.13931e-07)
(1.5996e-05 2.99851e-05 -3.64496e-07)
(1.43077e-05 3.76389e-05 -6.54255e-09)
(1.05933e-05 4.74861e-05 -2.93767e-07)
(4.82132e-06 5.92743e-05 -1.67549e-06)
(-2.86474e-06 7.11169e-05 -4.24235e-06)
(-3.71956e-06 7.80317e-05 -5.43715e-06)
(-6.1362e-06 3.521e-05 -6.1362e-06)
(-1.92716e-05 0.000103967 -7.85751e-06)
(-3.07666e-05 9.13837e-05 -7.62541e-06)
(-3.81238e-05 8.47013e-05 -7.73001e-06)
(-4.2115e-05 7.52559e-05 -6.90058e-06)
(-4.23882e-05 6.15301e-05 -5.7523e-06)
(-3.99591e-05 4.49464e-05 -4.3603e-06)
(-3.65944e-05 2.84185e-05 -3.06338e-06)
(-3.34105e-05 1.54916e-05 -2.24691e-06)
(-3.07075e-05 8.65939e-06 -2.02224e-06)
(-2.78821e-05 8.89901e-06 -2.55921e-06)
(-2.35489e-05 1.46538e-05 -3.75366e-06)
(-1.64637e-05 2.2836e-05 -4.74205e-06)
(-5.97803e-06 3.01526e-05 -5.21464e-06)
(6.83954e-06 3.46076e-05 -4.93831e-06)
(1.97325e-05 3.54297e-05 -3.99148e-06)
(3.06136e-05 3.29156e-05 -3.02151e-06)
(3.7516e-05 2.8774e-05 -1.91212e-06)
(3.9547e-05 2.48838e-05 -1.27604e-06)
(3.75885e-05 2.31796e-05 -1.26766e-06)
(3.33547e-05 2.38768e-05 -1.76772e-06)
(2.86615e-05 2.58824e-05 -2.11176e-06)
(2.49348e-05 2.85006e-05 -2.03901e-06)
(2.18797e-05 3.19713e-05 -1.59013e-06)
(1.79436e-05 3.79487e-05 -1.31008e-06)
(1.20135e-05 4.76256e-05 -1.77523e-06)
(4.55571e-06 6.04922e-05 -3.22723e-06)
(-2.67036e-06 7.46583e-05 -5.21462e-06)
(-7.53921e-06 8.52631e-05 -5.94707e-06)
(-4.6952e-06 8.27063e-05 -5.10375e-06)
(-1.05395e-05 6.79219e-05 -1.05395e-05)
(-2.24911e-05 0.00013048 -9.5867e-06)
(-2.6444e-05 0.000113917 -8.98383e-06)
(-2.96886e-05 0.000103749 -8.58092e-06)
(-3.01717e-05 8.92829e-05 -7.38417e-06)
(-2.86684e-05 7.10169e-05 -6.02169e-06)
(-2.67982e-05 5.15251e-05 -4.57313e-06)
(-2.6326e-05 3.41356e-05 -3.58807e-06)
(-2.773e-05 2.16621e-05 -3.27265e-06)
(-2.98828e-05 1.56767e-05 -3.65529e-06)
(-3.0838e-05 1.55121e-05 -4.59923e-06)
(-2.82158e-05 1.91069e-05 -5.48493e-06)
(-2.07977e-05 2.39514e-05 -6.00966e-06)
(-9.13489e-06 2.80176e-05 -5.84474e-06)
(4.98223e-06 3.03412e-05 -5.06402e-06)
(1.89462e-05 3.08736e-05 -4.05309e-06)
(3.04584e-05 3.01649e-05 -3.11482e-06)
(3.77035e-05 2.96124e-05 -2.52149e-06)
(4.03861e-05 3.00021e-05 -2.48648e-06)
(3.99276e-05 3.17291e-05 -2.63094e-06)
(3.77546e-05 3.39308e-05 -2.64835e-06)
(3.49329e-05 3.57573e-05 -2.43678e-06)
(3.16425e-05 3.78903e-05 -1.92126e-06)
(2.67359e-05 4.20055e-05 -1.63786e-06)
(1.94028e-05 5.02368e-05 -2.10842e-06)
(1.04572e-05 6.268e-05 -3.35755e-06)
(2.15196e-06 7.71321e-05 -4.87395e-06)
(-2.80479e-06 8.92407e-05 -4.99638e-06)
(-2.94669e-06 9.411e-05 -3.94528e-06)
(-9.8765e-07 8.4595e-05 -2.29527e-06)
(-1.1207e-05 0.000105063 -1.1207e-05)
(-2.05536e-05 0.000150819 -9.56687e-06)
(-2.04567e-05 0.000132893 -9.08219e-06)
(-2.22462e-05 0.000119602 -8.51232e-06)
(-2.19669e-05 0.00010154 -7.51283e-06)
(-2.11179e-05 8.10179e-05 -6.36516e-06)
(-2.12576e-05 6.1149e-05 -5.37003e-06)
(-2.34941e-05 4.49385e-05 -4.78297e-06)
(-2.75552e-05 3.39742e-05 -4.73606e-06)
(-3.16143e-05 2.80949e-05 -5.02082e-06)
(-3.32081e-05 2.57128e-05 -5.41428e-06)
(-3.02237e-05 2.51407e-05 -5.41957e-06)
(-2.23833e-05 2.47536e-05 -5.0939e-06)
(-1.08422e-05 2.45687e-05 -4.46364e-06)
(2.54731e-06 2.46412e-05 -3.70004e-06)
(1.55631e-05 2.52525e-05 -2.98742e-06)
(2.64516e-05 2.67342e-05 -2.61868e-06)
(3.41834e-05 2.97139e-05 -2.58564e-06)
(3.88619e-05 3.38919e-05 -2.73893e-06)
(4.10357e-05 3.81428e-05 -2.84103e-06)
(4.1472e-05 4.14354e-05 -2.66639e-06)
(4.03375e-05 4.39376e-05 -2.43076e-06)
(3.65493e-05 4.75568e-05 -2.32994e-06)
(2.96013e-05 5.47789e-05 -2.96362e-06)
(2.08803e-05 6.62947e-05 -4.24849e-06)
(1.27223e-05 7.97204e-05 -5.21377e-06)
(7.19901e-06 9.1688e-05 -4.94867e-06)
(5.70163e-06 9.83113e-05 -3.67769e-06)
(6.31256e-06 9.83495e-05 -2.20466e-06)
(3.23283e-06 9.03696e-05 -2.05015e-06)
(-1.0222e-05 0.000139592 -1.0222e-05)
(-1.82382e-05 0.000166993 -8.76976e-06)
(-1.77516e-05 0.000149942 -8.53316e-06)
(-1.97302e-05 0.000134106 -8.04229e-06)
(-2.01146e-05 0.000113858 -7.29237e-06)
(-2.06048e-05 9.26186e-05 -6.37755e-06)
(-2.25435e-05 7.3594e-05 -5.56452e-06)
(-2.63344e-05 5.87857e-05 -5.05218e-06)
(-3.08512e-05 4.82735e-05 -4.82143e-06)
(-3.41798e-05 4.06826e-05 -4.62388e-06)
(-3.45483e-05 3.44128e-05 -4.30522e-06)
(-3.10755e-05 2.87576e-05 -3.8002e-06)
(-2.3817e-05 2.34691e-05 -3.18946e-06)
(-1.36711e-05 1.97323e-05 -2.68678e-06)
(-2.2492e-06 1.8188e-05 -2.53804e-06)
(9.19645e-06 1.94045e-05 -2.75818e-06)
(1.98194e-05 2.32717e-05 -3.24761e-06)
(2.88885e-05 2.93487e-05 -3.81668e-06)
(3.6087e-05 3.64446e-05 -4.26448e-06)
(4.12425e-05 4.29722e-05 -4.44763e-06)
(4.38509e-05 4.85101e-05 -4.4722e-06)
(4.31063e-05 5.40811e-05 -4.77205e-06)
(3.88909e-05 6.17296e-05 -5.61774e-06)
(3.24893e-05 7.25674e-05 -6.72844e-06)
(2.59858e-05 8.5135e-05 -7.11148e-06)
(2.14707e-05 9.60922e-05 -6.83533e-06)
(1.95991e-05 0.000103247 -5.64824e-06)
(1.81664e-05 0.000106246 -4.1583e-06)
(1.36162e-05 0.000107904 -3.9598e-06)
(5.06931e-06 0.00010539 -4.95816e-06)
(-9.32028e-06 0.000170964 -9.32028e-06)
(-1.75825e-05 0.000182497 -8.25132e-06)
(-1.84878e-05 0.000166682 -7.93706e-06)
(-2.14383e-05 0.000148493 -7.242e-06)
(-2.34391e-05 0.000126668 -6.32182e-06)
(-2.58882e-05 0.000105223 -5.37242e-06)
(-2.95043e-05 8.69611e-05 -4.64128e-06)
(-3.39794e-05 7.25773e-05 -4.17535e-06)
(-3.79097e-05 6.09386e-05 -3.90272e-06)
(-3.97742e-05 5.04177e-05 -3.57472e-06)
(-3.87954e-05 3.99913e-05 -3.07187e-06)
(-3.499e-05 2.9992e-05 -2.70448e-06)
(-2.86319e-05 2.14743e-05 -2.68277e-06)
(-2.00886e-05 1.57499e-05 -3.10731e-06)
(-9.79598e-06 1.37974e-05 -3.90586e-06)
(1.78886e-06 1.59078e-05 -4.76752e-06)
(1.38087e-05 2.1738e-05 -5.55888e-06)
(2.51968e-05 3.03398e-05 -6.17128e-06)
(3.49719e-05 4.01926e-05 -6.62836e-06)
(4.21889e-05 4.99523e-05 -7.01147e-06)
(4.59751e-05 5.94472e-05 -7.52602e-06)
(4.60274e-05 6.97424e-05 -8.36229e-06)
(4.3359e-05 8.15236e-05 -9.26132e-06)
(4.00273e-05 9.36187e-05 -9.62673e-06)
(3.76701e-05 0.000104058 -9.14803e-06)
(3.61215e-05 0.000111584 -7.82761e-06)
(3.34518e-05 0.000116787 -6.41428e-06)
(2.72918e-05 0.000121841 -6.01838e-06)
(1.70456e-05 0.000129328 -7.01587e-06)
(5.49429e-06 0.000128742 -7.72222e-06)
(-8.92759e-06 0.000201277 -8.92759e-06)
(-1.81587e-05 0.000199266 -7.73066e-06)
(-2.09888e-05 0.000183898 -6.9272e-06)
(-2.57699e-05 0.000163519 -5.84845e-06)
(-3.06169e-05 0.000140657 -4.88867e-06)
(-3.63474e-05 0.000119229 -4.23678e-06)
(-4.26229e-05 0.000101056 -3.93661e-06)
(-4.81166e-05 8.5723e-05 -3.84996e-06)
(-5.13744e-05 7.18718e-05 -3.87596e-06)
(-5.17478e-05 5.82586e-05 -3.79365e-06)
(-4.94127e-05 4.46908e-05 -3.76963e-06)
(-4.47937e-05 3.21749e-05 -4.04417e-06)
(-3.81027e-05 2.20612e-05 -4.70042e-06)
(-2.89206e-05 1.54976e-05 -5.53812e-06)
(-1.69722e-05 1.30629e-05 -6.35868e-06)
(-2.89105e-06 1.53139e-05 -6.98056e-06)
(1.19237e-05 2.21966e-05 -7.38526e-06)
(2.58141e-05 3.29752e-05 -7.73192e-06)
(3.75145e-05 4.60285e-05 -8.15537e-06)
(4.61307e-05 5.99253e-05 -8.76044e-06)
(5.12601e-05 7.42156e-05 -9.5822e-06)
(5.34742e-05 8.86047e-05 -1.03422e-05)
(5.42093e-05 0.000102019 -1.05569e-05)
(5.45346e-05 0.000112959 -9.93717e-06)
(5.40812e-05 0.000121322 -8.52182e-06)
(5.10283e-05 0.000128764 -7.36556e-06)
(4.37061e-05 0.000137026 -7.38094e-06)
(3.23798e-05 0.000147458 -8.48142e-06)
(1.9466e-05 0.000158628 -9.44987e-06)
(6.48077e-06 0.000156996 -9.13535e-06)
(-8.56496e-06 0.000232256 -8.56496e-06)
(-1.9124e-05 0.000217857 -7.0136e-06)
(-2.4954e-05 0.00020247 -5.84368e-06)
(-3.32874e-05 0.00018091 -4.84756e-06)
(-4.29317e-05 0.000157961 -4.15879e-06)
(-5.35264e-05 0.000136612 -3.95247e-06)
(-6.31809e-05 0.000117718 -4.5029e-06)
(-6.96884e-05 0.000100343 -5.21637e-06)
(-7.20507e-05 8.35325e-05 -5.64535e-06)
(-7.06454e-05 6.70342e-05 -5.90843e-06)
(-6.63362e-05 5.13706e-05 -6.20751e-06)
(-5.95774e-05 3.74439e-05 -6.70729e-06)
(-4.99404e-05 2.60097e-05 -7.2998e-06)
(-3.69287e-05 1.77407e-05 -7.76465e-06)
(-2.08066e-05 1.35043e-05 -7.99987e-06)
(-2.89087e-06 1.49732e-05 -8.04964e-06)
(1.48753e-05 2.26798e-05 -8.06591e-06)
(3.0915e-05 3.59613e-05 -8.34004e-06)
(4.43546e-05 5.2786e-05 -8.98268e-06)
(5.49318e-05 7.10614e-05 -9.81899e-06)
(6.28158e-05 8.92643e-05 -1.04263e-05)
(6.85897e-05 0.000105709 -1.04469e-05)
(7.26244e-05 0.000119168 -9.64623e-06)
(7.41176e-05 0.000129758 -8.43432e-06)
(7.12983e-05 0.000139564 -7.51415e-06)
(6.31182e-05 0.00015135 -7.59876e-06)
(5.05388e-05 0.000165238 -8.91722e-06)
(3.61514e-05 0.000179399 -1.03324e-05)
(2.27037e-05 0.000190099 -1.0529e-05)
(8.20213e-06 0.000188878 -9.28492e-06)
(-8.32841e-06 0.000264389 -8.32841e-06)
(-2.12672e-05 0.000239744 -6.66326e-06)
(-3.23238e-05 0.000224983 -5.51606e-06)
(-4.66354e-05 0.000203797 -4.76045e-06)
(-6.25742e-05 0.000181801 -4.82927e-06)
(-7.79882e-05 0.000160516 -5.93407e-06)
(-8.99904e-05 0.000139826 -7.06641e-06)
(-9.67515e-05 0.000119054 -7.88756e-06)
(-9.80154e-05 9.83824e-05 -8.31922e-06)
(-9.46055e-05 7.87181e-05 -8.60452e-06)
(-8.73973e-05 6.07576e-05 -8.96628e-06)
(-7.65033e-05 4.46315e-05 -9.38656e-06)
(-6.15955e-05 3.03974e-05 -9.59495e-06)
(-4.27655e-05 1.88292e-05 -9.5039e-06)
(-2.12833e-05 1.23039e-05 -9.22125e-06)
(6.93042e-07 1.32662e-05 -8.95537e-06)
(2.13526e-05 2.26472e-05 -9.15809e-06)
(3.99396e-05 3.90603e-05 -9.8016e-06)
(5.64192e-05 5.96296e-05 -1.05802e-05)
(7.08114e-05 8.13409e-05 -1.10175e-05)
(8.29497e-05 0.000101801 -1.0868e-05)
(9.22462e-05 0.000119399 -9.96372e-06)
(9.72857e-05 0.000134444 -8.70436e-06)
(9.61113e-05 0.000148778 -8.1532e-06)
(8.81128e-05 0.000164303 -8.30531e-06)
(7.48121e-05 0.00018207 -9.29565e-06)
(5.86346e-05 0.00020063 -1.06035e-05)
(4.23952e-05 0.00021558 -1.14291e-05)
(2.82174e-05 0.000223606 -1.0856e-05)
(1.0856e-05 0.000225248 -8.71323e-06)
(-8.86985e-06 0.000298919 -8.86985e-06)
(-2.67821e-05 0.000269221 -7.32522e-06)
(-4.59765e-05 0.000255912 -6.61622e-06)
(-6.74999e-05 0.000236769 -7.20986e-06)
(-8.92637e-05 0.000216029 -8.37778e-06)
(-0.000108195 0.000193668 -9.62276e-06)
(-0.000121459 0.000169188 -1.0539e-05)
(-0.000127856 0.00014316 -1.10263e-05)
(-0.000127814 0.000117466 -1.12813e-05)
(-0.000122174 9.3682e-05 -1.16002e-05)
(-0.000111234 7.20099e-05 -1.20083e-05)
(-9.48439e-05 5.17763e-05 -1.21903e-05)
(-7.31957e-05 3.28732e-05 -1.19786e-05)
(-4.76011e-05 1.7527e-05 -1.15359e-05)
(-2.06137e-05 9.34161e-06 -1.09948e-05)
(5.59263e-06 1.11196e-05 -1.09874e-05)
(3.02307e-05 2.30037e-05 -1.15064e-05)
(5.343e-05 4.22958e-05 -1.21119e-05)
(7.54015e-05 6.53078e-05 -1.22533e-05)
(9.54978e-05 8.89512e-05 -1.18166e-05)
(0.000112081 0.000111466 -1.08829e-05)
(0.00012301 0.00013235 -9.71824e-06)
(0.000126198 0.000152787 -8.8899e-06)
(0.00012063 0.000174988 -9.05471e-06)
(0.000107815 0.000198137 -1.01269e-05)
(9.08747e-05 0.000221022 -1.11874e-05)