/*--------------------------------*- C++ -*----------------------------------*\
| =========                 |                                                 |
| \\      /  F ield         | OpenFOAM: The Open Source CFD Toolbox           |
|  \\    /   O peration     | Version:  2312                                  |
|   \\  /    A nd           | Website:  www.openfoam.com                      |
|    \\/     M anipulation  |                                                 |
\*---------------------------------------------------------------------------*/
FoamFile
{
    version     2.0;
    format      ascii;
    arch        "LSB;label=32;scalar=64";
    class       volScalarField;
    location    "0.822131";
    object      alpha.water;
}
// * * * * * * * * * * * * * * * * * * * * * * * * * * * * * * * * * * * * * //

dimensions      [0 0 0 0 0 0 0];

internalField   nonuniform List<scalar> 
90000
(
1
1.00003
1.00003
1.00003
1.00002
1.00002
1.00002
1.00001
1.00001
1.00001
1
0.999998
0.999997
0.999999
1
1.00001
1.00002
1.00002
1.00003
1.00003
1.00002
1.00002
1.00001
1.00001
1.00001
1.00001
1.00002
1.00003
1.00003
1.00004
1.00003
1.00005
1.00004
1.00004
1.00004
1.00003
1.00003
1.00002
1.00001
1.00001
1
0.999999
1
1.00001
1.00002
1.00003
1.00003
1.00004
1.00004
1.00003
1.00003
1.00002
1.00001
1.00001
1.00002
1.00003
1.00004
1.00003
0.999956
0.999709
1.00002
1.00003
1.00003
1.00003
1.00002
1.00002
1.00002
1.00002
1.00002
1.00001
1.00001
1.00001
1.00001
1.00001
1.00001
1.00001
1.00001
1.00001
1.00001
1.00001
1.00001
1.00001
1.00001
1.00001
1.00002
1.00004
1.00007
1.00014
1.00026
0.999991
1.00002
1.00001
1.00001
1.00001
1.00001
1.00002
1.00002
1.00002
1.00002
1.00002
1.00002
1.00002
1.00001
1.00001
1
0.999999
0.999994
0.999992
0.999991
0.999992
0.999995
1
1.00001
1.00001
1.00002
1.00002
1
0.999985
1.0001
1.00001
1
0.999995
0.999997
1
1.00001
1.00001
1.00002
1.00002
1.00003
1.00003
1.00003
1.00003
1.00002
1.00001
0.999999
0.999988
0.99998
0.999976
0.999977
0.999982
0.999989
0.999996
1
1.00001
1.00001
1.00002
1.00002
0.999985
1.00001
0.999981
0.999994
0.999982
0.999986
0.999991
0.999997
1
1.00001
1.00002
1.00003
1.00003
1.00003
1.00003
1.00002
1.00001
0.999998
0.999987
0.999979
0.999976
0.999978
0.999983
0.999991
0.999998
1
1
0.999998
0.999991
0.999989
0.999968
0.999963
0.999956
0.999987
0.999976
0.99998
0.999984
0.99999
0.999996
1
1.00001
1.00002
1.00002
1.00002
1.00002
1.00002
1.00001
1
0.999997
0.999992
0.99999
0.999991
0.999995
0.999999
1
1
0.999999
0.999993
0.999981
0.99997
0.999958
0.999952
0.999964
0.999984
0.999979
0.999981
0.999983
0.999986
0.99999
0.999995
0.999999
1
1.00001
1.00001
1.00001
1.00002
1.00002
1.00002
1.00001
1.00001
1.00001
1.00001
1.00001
1.00001
1.00001
1
0.999998
0.999991
0.999982
0.999974
0.999972
0.999978
0.999996
0.999986
0.999992
0.999992
0.999992
0.999992
0.999993
0.999993
0.999993
0.999994
0.999997
1
1.00001
1.00001
1.00002
1.00003
1.00003
1.00004
1.00003
1.00003
1.00002
1.00002
1.00001
1
0.999995
0.99999
0.999987
0.999988
0.999996
1.00001
1.00002
0.999996
1.00002
1.00002
1.00001
1.00001
1.00001
1
0.999998
0.999994
0.999994
0.999997
1
1.00002
1.00003
1.00004
1.00004
1.00005
1.00004
1.00003
1.00002
1.00001
1
0.999995
0.99999
0.999988
0.99999
0.999997
1.00001
1.00001
1
1.00001
1.00005
1.00005
1.00004
1.00004
1.00003
1.00002
1.00001
0.999999
0.999994
0.999995
1
1.00001
1.00002
1.00003
1.00003
1.00003
1.00003
1.00002
1.00001
1
0.999995
0.99999
0.999989
0.99999
0.999994
0.999999
1
0.999994
0.999982
1.00003
1.00008
1.00007
1.00006
1.00005
1.00004
1.00002
1.00001
0.999996
0.999988
0.999984
0.999985
0.999989
0.999993
0.999997
0.999999
0.999999
0.999997
0.999995
0.999994
0.999994
0.999995
0.999996
0.999998
1
1
1
0.999994
0.999983
0.999985
1.00005
1.00007
1.00006
1.00006
1.00004
1.00003
1.00001
0.999995
0.999983
0.999974
0.999969
0.999966
0.999964
0.999963
0.999963
0.999964
0.999968
0.999974
0.999982
0.999991
1
1.00001
1.00001
1.00001
1.00001
1.00001
1
0.999995
0.999995
1.00001
1.00004
1.00004
1.00003
1.00002
1.00001
0.999994
0.999984
0.999976
0.999971
0.999967
0.999963
0.999959
0.999954
0.999951
0.999949
0.999953
0.999961
0.999974
0.999989
1
1.00001
1.00002
1.00002
1.00002
1.00001
1.00001
0.999999
0.999998
1.00001
1.00001
1.00002
0.999982
0.999977
0.99997
0.999966
0.999964
0.999966
0.999971
0.999976
0.999979
0.999978
0.999973
0.999966
0.999961
0.99996
0.999964
0.999975
0.999989
1
1.00002
1.00002
1.00002
1.00002
1.00001
1
0.999997
0.999993
0.999993
0.999993
0.999979
0.999982
0.999932
0.999936
0.999938
0.999945
0.999955
0.999969
0.999983
0.999993
0.999998
0.999996
0.99999
0.999982
0.999975
0.999973
0.999977
0.999985
0.999994
1
1.00001
1.00001
1.00001
1
1
1
0.999996
0.999994
0.99999
0.999978
0.999971
0.999954
0.99991
0.999922
0.999932
0.999946
0.999963
0.999979
0.999993
1
1
0.999999
0.999991
0.999983
0.999977
0.999975
0.999976
0.999979
0.999981
0.999983
0.999984
0.999985
0.999989
0.999994
0.999999
1
1
1
0.999993
0.999984
0.999999
0.999946
0.999916
0.999931
0.999942
0.999956
0.99997
0.999982
0.99999
0.999994
0.999993
0.999989
0.999984
0.999981
0.999979
0.999978
0.999976
0.999974
0.999971
0.999969
0.99997
0.999976
0.999984
0.999992
0.999997
0.999997
0.999994
0.999992
0.999989
0.999997
1.00001
0.999953
0.999935
0.999946
0.999954
0.999964
0.999973
0.999981
0.999986
0.999989
0.99999
0.999992
0.999995
0.999997
0.999998
0.999996
0.99999
0.999984
0.999978
0.999976
0.999979
0.999985
0.99999
0.999991
0.999986
0.999978
0.999973
0.999972
0.999976
0.999985
0.999978
0.999965
0.999955
0.999963
0.99997
0.999978
0.999986
0.999993
0.999998
1
1.00001
1.00002
1.00002
1.00002
1.00002
1.00001
1
0.999993
0.999988
0.999987
0.99999
0.999992
0.999989
0.99998
0.99997
0.999965
0.999967
0.99997
0.999972
0.999967
0.999955
0.999977
0.999977
0.999984
0.999992
1
1.00001
1.00002
1.00002
1.00002
1.00003
1.00003
1.00003
1.00002
1.00001
1
0.999992
0.999987
0.999987
0.999989
0.999989
0.999984
0.999975
0.999967
0.999967
0.999976
0.999987
0.99999
0.999984
0.999972
0.999979
0.99999
1
1.00001
1.00002
1.00002
1.00003
1.00003
1.00003
1.00002
1.00002
1.00001
1.00001
0.999996
0.999988
0.999983
0.999984
0.999988
0.999991
0.999991
0.999985
0.999976
0.99997
0.999973
0.999987
1
1.00001
1
0.999993
0.999989
0.999999
1
1.00002
1.00002
1.00002
1.00003
1.00003
1.00002
1.00001
1.00001
1
0.999994
0.999987
0.999983
0.999984
0.999991
1
1.00001
1.00001
1
0.999992
0.999986
0.99999
1
1.00002
1.00002
1.00001
0.999998
0.999994
0.999994
0.999994
1.00001
1.00002
1.00002
1.00002
1.00002
1.00002
1.00001
1.00001
1
0.999997
0.999992
0.999989
0.999992
1
1.00001
1.00002
1.00002
1.00001
1
0.999997
1
1.00002
1.00003
1.00004
1.00002
1.00001
1.00001
1.00001
1.00001
1.00001
1.00001
1.00002
1.00002
1.00002
1.00001
1.00001
1.00001
1.00001
1
0.999997
0.999991
0.999989
0.999993
1
1.00001
1.00001
1
0.999992
0.99999
0.999998
1.00001
1.00003
1.00003
1.00003
1.00002
1.00002
1.00003
1.00003
1.00004
1.00005
1.00001
1.00001
1.00001
1.00001
1.00001
1
1
0.999997
0.999991
0.999984
0.99998
0.999981
0.999987
0.999993
0.999996
0.999993
0.999987
0.999987
0.999996
1.00001
1.00002
1.00002
1.00001
1
1.00001
1.00002
1.00003
1.00004
1.00005
1.00003
1.00001
1
1
0.999995
0.99999
0.999988
0.999985
0.999982
0.999979
0.999977
0.999979
0.999986
0.999996
1
1
0.999999
1
1.00001
1.00002
1.00002
1.00002
1
0.999993
0.999995
1.00001
1.00002
1.00002
1.00002
1.00003
0.99999
1
0.999988
0.999984
0.99998
0.999978
0.999979
0.99998
0.99998
0.999981
0.999985
0.999992
1
1.00001
1.00001
1
1
1
1.00001
1.00001
1
0.999987
0.999981
0.999989
1
1.00001
1.00001
1.00001
1
0.999996
1.00001
0.999991
0.99998
0.999981
0.999981
0.999982
0.999983
0.999983
0.999982
0.999983
0.999988
0.999994
0.999999
0.999998
0.999994
0.999989
0.99999
0.999993
0.999992
0.999985
0.999973
0.999967
0.999973
0.99999
0.999994
0.99999
0.999997
1
0.99999
1
1.00003
0.999988
0.999989
0.999991
0.999989
0.999986
0.999981
0.999976
0.999974
0.999977
0.999984
0.99999
0.999993
0.999992
0.999989
0.99999
0.999994
0.999995
0.999989
0.99998
0.999977
0.999982
0.999984
0.999988
0.999983
0.999977
0.999992
0.999999
0.999997
1.00002
1.00001
0.999996
0.999999
0.999995
0.999988
0.99998
0.999975
0.999972
0.999975
0.999982
0.999991
0.999997
0.999998
0.999997
0.999997
0.999999
1
0.999998
0.99999
0.999986
0.99999
0.999997
0.999983
0.999975
0.99998
0.999983
0.999993
1
1.00001
1
0.999991
1
0.999998
0.999993
0.999988
0.999986
0.999984
0.999984
0.999986
0.99999
0.999993
0.999994
0.999993
0.999992
0.999995
0.999996
0.999994
0.999991
0.99999
0.999991
0.999989
0.99999
0.999969
0.999967
0.999988
0.999987
0.999983
0.999995
0.999996
0.999977
0.999998
0.999999
1
1
1
0.999998
0.999993
0.999987
0.999982
0.999982
0.999983
0.999985
0.999988
0.999993
0.999998
1
0.999996
0.999996
0.999999
0.999999
0.99998
0.999978
0.999971
0.999979
0.999997
0.999982
0.999976
0.999995
0.999988
0.999996
1
1
1.00001
1.00001
1.00001
0.999996
0.999987
0.99998
0.999979
0.999982
0.999987
0.999993
0.999999
1
1
1.00001
1
0.999999
0.999997
0.999996
0.999971
0.999981
0.999992
0.999992
0.99999
0.999979
0.99999
1
1
1.00001
1.00001
1.00001
1.00001
1.00001
0.999999
0.999993
0.999989
0.999989
0.99999
0.999992
0.999994
0.999996
0.999998
0.999998
0.999993
0.999996
0.999999
0.999999
0.999991
0.999998
0.999984
1.00001
1.00001
0.999991
0.999986
0.999997
1.00001
1.00001
1
0.999996
1
1.00001
1.00001
1.00001
1
1
0.999999
0.999996
0.999993
0.999991
0.99999
0.99999
0.999993
0.999998
0.999996
1
1.00001
1.00001
0.999997
1.00001
1.00001
1.00002
1.00001
0.999985
1
1.00002
1.00001
0.999997
0.999993
1.00001
1.00001
1
1.00001
1.00001
1.00001
1
0.999997
0.999995
0.999995
0.999995
0.999996
0.999996
0.999997
1.00001
1.00001
1.00001
1.00001
1.00001
0.999998
1.00002
1.00001
1.00001
0.999994
0.999991
1.00002
1.00002
0.99999
0.999994
1.00001
1.00002
1.00001
1.00001
1.00001
1
0.999999
0.999999
1
1
1
0.999996
0.999996
0.999999
0.999996
1.00001
1.00001
1.00001
1.00001
1.00001
1.00001
1.00002
1.00001
0.999996
0.999998
1.00001
1.00002
0.999989
0.999986
1.00001
1.00002
0.999998
1.00001
1.00001
1
1
1
1.00001
1
0.999999
0.999994
0.999992
0.999994
1
0.999999
1.00001
1.00001
1
1.00001
1
1.00001
1.00002
0.999998
0.999992
1.00001
1.00001
0.999993
0.999983
1.00001
1.00002
0.999994
1
1.00002
0.999999
1
1.00001
1.00001
1
0.999996
0.999995
1
1
0.999997
1.00001
0.999997
1.00001
1.00002
0.999992
1.00001
1.00001
0.999997
1.00001
0.999998
1
1.00001
1
0.999991
1.00001
1.00002
1
0.999999
1.00003
1.00002
1
1.00001
1.00001
1
1
1
1
0.999999
1.00001
0.999999
1.00002
0.999998
0.999996
1.00002
0.999996
1.00001
1.00002
1
0.999999
1
1.00001
1.00001
1
1.00001
1.00002
1
0.999997
1.00002
1.00003
1
1.00001
1.00001
1
1
1
1
1
0.999996
1.00001
0.999985
1
1.00001
0.999988
1.00001
1.00001
0.999982
0.999999
1.00001
1
1
1.00001
1
1.00001
1.00001
0.999998
0.999991
1.00001
1
1.00001
0.999995
1
1
1
1.00001
1
0.999997
1.00001
0.999996
1.00002
0.999999
0.999993
1.00001
1.00001
0.999974
1.00001
1.00001
0.999998
1.00001
1.00001
1.00001
1.00001
1.00001
1.00001
0.999999
0.999993
1.00001
1.00001
1
1.00002
1.00001
1
1
1
1.00001
1.00001
0.999995
1.00001
1
0.999996
1.00001
0.999998
0.999978
1.00004
1.00001
0.999985
1.00001
1.00002
1.00001
1
1.00001
1
0.999999
0.999997
0.999996
1
1.00001
1
1.00002
0.999998
1.00001
1
1.00001
0.999997
0.999995
1.00002
1.00001
0.999993
1
1
0.999993
1.00002
1
0.999984
0.999998
1.00001
1.00001
1
1
0.999993
1
1
1
1
1
1
0.999997
1
1
1
0.999986
0.999998
1
0.999992
0.999991
1
0.999999
0.999999
1
1
0.999999
0.999991
0.999998
1.00001
0.999996
0.999996
1
1
0.999998
1
1
1
0.999998
0.999999
1
0.999997
0.999996
1
1
1
0.999989
0.999962
0.999977
0.999967
0.999971
0.999988
0.999994
0.999993
1
0.999999
0.999999
1
1
0.999998
0.999997
0.999996
0.999998
1
0.999997
1
1
1
0.999998
0.999998
0.999997
0.999991
0.999988
0.999985
0.999972
0.999971
0.999957
0.999572
0.999685
0.999704
0.999746
0.999883
0.999924
0.999897
0.999972
0.999977
0.999981
0.999996
0.999996
0.999986
0.999987
0.999981
0.999984
0.999987
0.999985
0.999988
0.999998
0.999982
0.999977
0.999975
0.999902
0.999919
0.999889
0.999762
0.999699
0.999677
0.999582
0.996369
0.997293
0.997309
0.997555
0.998799
0.999013
0.998428
0.999551
0.999726
0.999461
0.999824
0.999831
0.999839
0.999877
0.999879
0.999882
0.999874
0.999839
0.999824
0.999828
0.999462
0.999726
0.999554
0.998433
0.999009
0.9988
0.997576
0.997293
0.997289
0.996381
0.825368
0.859592
0.829301
0.804092
0.847428
0.818774
0.713781
0.817301
0.790778
0.694101
0.763764
0.726752
0.714
0.713008
0.707867
0.707972
0.712854
0.714272
0.726549
0.763788
0.694279
0.790946
0.816797
0.713854
0.819192
0.846994
0.804967
0.829468
0.859574
0.825248
0.190942
0.25528
0.180981
0.145728
0.254704
0.158623
0.0691705
0.183096
0.116019
0.0382513
0.101159
0.0554836
0.0496487
0.052594
0.0488045
0.0489501
0.0523935
0.0499346
0.0552649
0.101115
0.0382937
0.116403
0.182494
0.069053
0.159804
0.251923
0.146646
0.181216
0.255182
0.190892
0.00016716
0.000130675
0.000117455
8.6781e-05
0.000170302
0.000443344
0.000921144
0.000112941
0.000144669
0.000228846
2.2841e-05
6.67719e-06
4.48167e-06
1.19308e-05
1.79335e-05
1.79605e-05
1.19688e-05
4.5791e-06
6.67892e-06
2.28235e-05
0.000230715
0.000144195
0.000112967
0.000902734
0.000440438
0.000170348
8.70214e-05
0.000117464
0.000130434
0.000166784
0.000118007
0.000140551
0.000106137
4.76461e-05
5.54678e-05
0.000384978
5.73892e-05
2.52836e-05
2.1299e-05
1.79565e-05
4.69522e-05
0.0001665
0.000151281
8.12978e-05
9.82803e-05
9.82609e-05
8.11616e-05
0.000150878
0.000166472
4.67226e-05
1.82213e-05
2.16169e-05
2.51088e-05
5.66081e-05
0.000392269
5.26919e-05
4.77495e-05
0.000106143
0.000140522
0.000116967
0.000102166
0.000144129
0.000121595
4.29385e-05
2.49044e-05
3.47421e-05
3.18111e-05
1.37892e-05
1.61335e-05
1.256e-05
1.34439e-05
1.96036e-05
2.20605e-05
4.74934e-05
3.35657e-05
3.36563e-05
4.74974e-05
2.2054e-05
1.9659e-05
1.34503e-05
1.24271e-05
1.64526e-05
1.39038e-05
3.20669e-05
3.43675e-05
2.4801e-05
4.30715e-05
0.000121845
0.000144949
0.000101445
1.9724e-06
3.44142e-06
8.40187e-06
8.76958e-06
3.81407e-06
2.77195e-06
2.27343e-06
2.07644e-06
2.18269e-06
4.80382e-06
6.22574e-06
7.79651e-06
1.42641e-05
1.10192e-05
1.17658e-05
1.17702e-05
1.10803e-05
1.43743e-05
7.87487e-06
6.30358e-06
4.86556e-06
2.23692e-06
2.13021e-06
2.33775e-06
2.79309e-06
3.80278e-06
8.75581e-06
8.54919e-06
3.86919e-06
2.04402e-06
1.47909e-06
2.62718e-06
2.33259e-06
1.33517e-06
7.20516e-07
4.14389e-07
3.25469e-07
2.56139e-07
2.9407e-07
7.10755e-07
1.66923e-06
3.17791e-06
5.8948e-06
8.43384e-06
1.11998e-05
1.12089e-05
8.43386e-06
5.92276e-06
3.20719e-06
1.68866e-06
7.22303e-07
3.02695e-07
2.62411e-07
3.33574e-07
4.17457e-07
7.21069e-07
1.33776e-06
2.33572e-06
2.57226e-06
1.46019e-06
2.30347e-07
3.05e-07
2.30875e-07
1.42424e-07
8.29856e-08
4.94957e-08
2.63694e-08
1.35691e-08
1.02273e-08
7.78026e-09
4.976e-08
1.1487e-07
8.01712e-08
1.03011e-06
2.42859e-06
2.41052e-06
1.0118e-06
8.03961e-08
1.13423e-07
4.98484e-08
8.52914e-09
1.0358e-08
1.36873e-08
2.63237e-08
4.89544e-08
8.24803e-08
1.43778e-07
2.31576e-07
3.10076e-07
2.33548e-07
2.07057e-08
4.79584e-08
2.59451e-08
1.43574e-08
7.41361e-09
3.23624e-09
1.41568e-09
8.10853e-10
8.67362e-10
6.18645e-10
1.99069e-10
1.80749e-09
7.82325e-09
2.28066e-08
4.77621e-08
4.76753e-08
2.27192e-08
7.85303e-09
1.79935e-09
1.98911e-10
6.011e-10
8.74285e-10
8.05303e-10
1.38211e-09
3.12507e-09
7.46486e-09
1.42222e-08
2.61263e-08
4.81323e-08
2.06741e-08
1.99687e-09
4.29973e-09
2.46949e-09
1.19455e-09
5.7186e-10
3.00379e-10
1.61033e-10
1.30764e-10
9.18932e-11
6.29894e-11
3.92457e-11
7.34655e-11
3.73317e-10
1.6987e-09
4.56648e-09
4.56401e-09
1.69031e-09
3.73176e-10
7.35375e-11
3.8754e-11
6.27265e-11
9.17093e-11
1.25846e-10
1.44879e-10
2.75737e-10
5.66769e-10
1.21114e-09
2.51872e-09
4.38825e-09
1.97293e-09
2.65875e-10
4.88893e-10
2.9492e-10
1.49758e-10
7.43347e-11
3.86867e-11
2.42434e-11
1.39458e-11
8.98514e-12
1.24921e-11
1.99535e-11
2.37139e-11
2.69167e-11
6.31468e-11
2.0733e-10
2.06972e-10
6.2826e-11
2.69161e-11
2.39711e-11
2.0141e-11
1.25159e-11
8.85277e-12
1.35243e-11
2.2207e-11
3.30883e-11
6.9073e-11
1.50476e-10
2.95937e-10
4.91062e-10
2.69043e-10
3.21127e-11
6.00051e-11
3.35159e-11
1.64594e-11
9.03636e-12
3.67971e-12
1.65307e-12
1.20984e-12
1.06138e-12
1.66771e-12
3.25537e-12
5.64114e-12
1.09363e-11
1.31949e-11
1.64687e-11
1.6421e-11
1.32148e-11
1.09344e-11
5.66618e-12
3.29823e-12
1.69079e-12
1.06258e-12
1.1595e-12
1.43344e-12
3.28772e-12
8.25858e-12
1.56375e-11
3.38754e-11
6.08407e-11
3.23224e-11
3.60919e-12
6.23507e-12
3.61343e-12
1.40599e-12
9.33068e-13
4.80431e-13
2.343e-13
1.90503e-13
2.61941e-13
5.3913e-13
1.16454e-12
2.43053e-12
4.96709e-12
8.04863e-12
9.04459e-12
9.03067e-12
8.05515e-12
4.97597e-12
2.44174e-12
1.18438e-12
5.50577e-13
2.66813e-13
1.90166e-13
2.21388e-13
4.34432e-13
8.40421e-13
1.38098e-12
3.65933e-12
6.31134e-12
3.62417e-12
2.74488e-13
4.45735e-13
3.8841e-13
1.58919e-13
5.70306e-14
2.04102e-14
8.974e-15
8.2177e-15
1.48232e-14
3.7424e-14
9.96418e-14
2.74757e-13
5.9833e-13
1.02749e-12
1.4566e-12
1.45473e-12
1.02746e-12
6.0327e-13
2.77807e-13
1.01947e-13
3.84886e-14
1.52516e-14
8.32786e-15
8.55782e-15
1.85276e-14
5.3277e-14
1.57454e-13
3.9305e-13
4.51221e-13
2.77308e-13
1.23061e-14
2.78824e-14
1.59834e-14
5.42079e-15
1.53538e-15
4.59366e-16
2.00455e-16
2.18456e-16
4.41458e-16
1.21901e-15
4.00248e-15
1.33594e-14
3.38024e-14
6.8837e-14
1.07311e-13
1.06991e-13
6.87458e-14
3.41651e-14
1.35758e-14
4.10442e-15
1.25934e-15
4.5599e-16
2.21504e-16
1.90162e-16
4.10934e-16
1.43001e-15
5.34881e-15
1.6386e-14
2.84982e-14
1.24422e-14
2.75742e-16
7.386e-16
3.58015e-16
1.06857e-16
3.05107e-17
8.79136e-18
4.35375e-18
6.09013e-18
1.33429e-17
3.73006e-17
1.20819e-16
4.01641e-16
1.12016e-15
2.56089e-15
4.11343e-15
4.1146e-15
2.56457e-15
1.12931e-15
4.10231e-16
1.24933e-16
3.87504e-17
1.38795e-17
6.20608e-18
4.17675e-18
7.76785e-18
2.79057e-17
1.0704e-16
3.66739e-16
7.57258e-16
2.80043e-16
4.71945e-18
1.35825e-17
6.57941e-18
1.8817e-18
5.04867e-19
1.43233e-19
9.01411e-20
1.58528e-19
3.64928e-19
1.00766e-18
3.1299e-18
1.00818e-17
2.74886e-17
6.15245e-17
9.97168e-17
1.0032e-16
6.20094e-17
2.77388e-17
1.03159e-17
3.24796e-18
1.04356e-18
3.78396e-19
1.63012e-19
8.78381e-20
1.27227e-19
4.60998e-19
1.87106e-18
6.72744e-18
1.39998e-17
4.79333e-18
6.60416e-20
2.13296e-19
9.80915e-20
2.7104e-20
6.82168e-21
2.04496e-21
1.76873e-21
3.67888e-21
8.59725e-21
2.29862e-20
6.89985e-20
2.1425e-19
5.63884e-19
1.23893e-18
1.99469e-18
1.9934e-18
1.24166e-18
5.72502e-19
2.19688e-19
7.1366e-20
2.38468e-20
8.94509e-21
3.83761e-21
1.76152e-21
1.81459e-21
6.29916e-21
2.69368e-20
1.02076e-19
2.19506e-19
6.81598e-20
7.51371e-22
2.70261e-21
1.22094e-21
3.1448e-22
7.86577e-23
2.61245e-23
3.25487e-23
7.56142e-23
1.72223e-22
4.37545e-22
1.24737e-21
3.68839e-21
9.45993e-21
2.04305e-20
3.23294e-20
3.22634e-20
2.04768e-20
9.63295e-21
3.78503e-21
1.28545e-21
4.52484e-22
1.78458e-22
7.87567e-23
3.35026e-23
2.35528e-23
7.13466e-23
3.18834e-22
1.26758e-21
2.82139e-21
7.92086e-22
7.20597e-24
2.72794e-23
1.25049e-23
3.07863e-24
7.49499e-25
3.05898e-25
5.57728e-25
1.33192e-24
2.87787e-24
6.84558e-24
1.83728e-23
5.17283e-23
1.26964e-22
2.61747e-22
4.05814e-22
4.08658e-22
2.64352e-22
1.27902e-22
5.25895e-23
1.9113e-23
7.17666e-24
3.00826e-24
1.38688e-24
5.85934e-25
2.95292e-25
6.73425e-25
3.09278e-24
1.29271e-23
2.9633e-23
7.50537e-24
5.29972e-26
2.41384e-25
9.99744e-26
2.4449e-26
5.83101e-27
3.65036e-27
8.56343e-27
1.95557e-26
3.94877e-26
8.79132e-26
2.21415e-25
5.81489e-25
1.33573e-24
2.64561e-24
4.09447e-24
4.15573e-24
2.72148e-24
1.36385e-24
5.93485e-25
2.31008e-25
9.28279e-26
4.18608e-26
2.0617e-26
8.98967e-27
3.66888e-27
5.46389e-27
2.47435e-26
1.08123e-25
2.54109e-25
5.79163e-26
3.2658e-28
1.63859e-27
6.70721e-28
1.57094e-28
4.21378e-29
4.26928e-29
1.09938e-28
2.38601e-28
4.55478e-28
9.38287e-28
2.1401e-27
5.03872e-27
1.07875e-26
2.06694e-26
3.13147e-26
3.12517e-26
2.08838e-26
1.11831e-26
5.29763e-27
2.2536e-27
9.87851e-28
4.86704e-28
2.58737e-28
1.1845e-28
4.3938e-29
3.98416e-29
1.63914e-28
7.4031e-28
1.78493e-27
3.65959e-28
1.81294e-30
8.7768e-30
3.92609e-30
8.73394e-31
2.85667e-31
4.41084e-31
1.18249e-30
2.46972e-30
4.36479e-30
8.04645e-30
1.6312e-29
3.48529e-29
7.05232e-29
1.28095e-28
1.85083e-28
1.85145e-28
1.31368e-28
7.59835e-29
3.84998e-29
1.77314e-29
8.58037e-30
4.69151e-30
2.70706e-30
1.30998e-30
4.79007e-31
2.74803e-31
9.04844e-31
4.18099e-30
1.03481e-29
1.90509e-30
7.03452e-33
4.38705e-32
1.76192e-32
4.10883e-33
1.84158e-33
4.21938e-33
1.12365e-32
2.14839e-32
3.35121e-32
5.43047e-32
9.94401e-32
1.96138e-31
3.64006e-31
6.03974e-31
8.34807e-31
8.56499e-31
6.38017e-31
3.87655e-31
2.12121e-31
1.1064e-31
6.11835e-32
3.72291e-32
2.3225e-32
1.1986e-32
4.57051e-33
1.9295e-33
4.34349e-33
1.98255e-32
4.94187e-32
8.16062e-33
2.55408e-35
1.77234e-34
6.49757e-35
1.70764e-35
1.24651e-35
3.51907e-35
8.68257e-35
1.50007e-34
2.11718e-34
3.14408e-34
5.21794e-34
8.9054e-34
1.40768e-33
2.11145e-33
2.88482e-33
3.07027e-33
2.40254e-33
1.57922e-33
9.79579e-34
5.85362e-34
3.61183e-34
2.40783e-34
1.64381e-34
9.31065e-35
3.81549e-35
1.37942e-35
1.88737e-35
7.86041e-35
1.92294e-34
2.92367e-35
9.49376e-38
5.27828e-37
2.3488e-37
7.09779e-38
8.35459e-38
2.36289e-37
5.47872e-37
8.90964e-37
1.17703e-36
1.58967e-36
2.25098e-36
3.20273e-36
4.53183e-36
6.62524e-36
8.89479e-36
9.11202e-36
7.19503e-36
5.20652e-36
3.72275e-36
2.52936e-36
1.74273e-36
1.30134e-36
9.97478e-37
6.25215e-37
2.72752e-37
9.2394e-38
7.63318e-38
2.61174e-37
6.30079e-37
9.26208e-38
2.30667e-40
1.53823e-39
7.41499e-40
2.99516e-40
4.82754e-40
1.40784e-39
3.19162e-39
4.78186e-39
5.59497e-39
6.32617e-39
7.34207e-39
9.25945e-39
1.25566e-38
1.69249e-38
1.9591e-38
1.83495e-38
1.57655e-38
1.38532e-38
1.17931e-38
9.04198e-39
6.96854e-39
5.9007e-39
5.11191e-39
3.52442e-39
1.62622e-39
5.50133e-40
3.13923e-40
7.88102e-40
1.86032e-39
2.69187e-40
5.77583e-43
4.73077e-42
2.10151e-42
1.22536e-42
2.48057e-42
7.42743e-42
1.5248e-41
2.0274e-41
2.06077e-41
2.01152e-41
2.13072e-41
2.57277e-41
3.08068e-41
3.33181e-41
3.27891e-41
3.19795e-41
3.27076e-41
3.29537e-41
3.01672e-41
2.5192e-41
2.24602e-41
2.24597e-41
2.25156e-41
1.708e-41
8.31249e-42
2.896e-42
1.35815e-42
2.33167e-42
5.02254e-42
7.2052e-43
1.91677e-45
1.15041e-44
6.29723e-45
4.97734e-45
1.18439e-44
3.14254e-44
5.73839e-44
7.042e-44
6.43635e-44
5.79377e-44
5.77215e-44
6.03013e-44
5.51224e-44
4.7813e-44
4.60602e-44
5.06454e-44
5.50885e-44
5.5827e-44
5.49966e-44
5.57987e-44
6.29777e-44
7.51068e-44
8.53071e-44
6.87647e-44
3.51009e-44
1.29458e-44
5.7154e-45
6.95609e-45
1.25009e-44
1.84594e-45
4.25687e-48
2.59385e-47
1.81365e-47
1.91122e-47
4.38259e-47
1.05825e-46
1.91791e-46
2.17861e-46
1.82982e-46
1.44644e-46
1.21506e-46
9.79989e-47
7.19423e-47
5.75986e-47
5.84256e-47
6.39759e-47
6.51063e-47
6.76194e-47
8.15602e-47
1.07802e-46
1.4835e-46
2.0106e-46
2.39373e-46
2.13501e-46
1.209e-46
4.96125e-47
2.22381e-47
2.13711e-47
3.02466e-47
4.74005e-48
1.03606e-50
6.30182e-50
5.09573e-50
5.80599e-50
1.19261e-49
2.93448e-49
5.13816e-49
4.98546e-49
3.83287e-49
2.54733e-49
1.81709e-49
1.30001e-49
9.23735e-50
7.34213e-50
6.64701e-50
5.92642e-50
5.56565e-50
6.79093e-50
1.06362e-49
1.72759e-49
2.6893e-49
4.10237e-49
5.258e-49
5.65371e-49
3.70909e-49
1.66868e-49
7.53873e-50
6.29167e-50
7.16505e-50
1.19071e-50
2.60344e-53
1.33162e-52
1.28447e-52
1.36639e-52
2.90247e-52
6.81257e-52
1.02329e-51
9.04006e-52
6.02545e-52
3.5948e-52
2.42759e-52
1.73317e-52
1.18706e-52
7.86924e-53
5.39844e-53
4.17706e-53
4.5616e-53
7.45547e-53
1.42234e-52
2.55225e-52
4.23775e-52
7.07379e-52
1.07408e-51
1.28065e-51
9.48078e-52
4.40128e-52
1.9853e-52
1.56727e-52
1.58865e-52
2.80438e-53
4.01424e-56
2.74578e-55
2.34012e-55
2.72284e-55
5.855e-55
1.22865e-54
1.74518e-54
1.52166e-54
9.39136e-55
5.36253e-55
3.55877e-55
2.37155e-55
1.35275e-55
7.16121e-56
4.42831e-56
3.90347e-56
5.29047e-56
9.54672e-56
1.81856e-55
3.21951e-55
5.54763e-55
1.02383e-54
1.80221e-54
2.29227e-54
1.81969e-54
8.59319e-55
4.04099e-55
3.28094e-55
3.28884e-55
6.04445e-56
8.2178e-59
5.04903e-58
3.87312e-58
5.01141e-58
9.16224e-58
1.89931e-57
2.67582e-57
2.24284e-57
1.27013e-57
7.05955e-58
4.42998e-58
2.55994e-58
1.2499e-58
6.4473e-59
4.55264e-59
4.60795e-59
6.14283e-59
9.93417e-59
1.7997e-58
3.3446e-58
6.53951e-58
1.39366e-57
2.75865e-57
3.58733e-57
2.90354e-57
1.38907e-57
7.02069e-58
6.05741e-58
6.23792e-58
1.14914e-58
2.20258e-61
5.98016e-61
7.80015e-61
9.34716e-61
1.60964e-60
3.48073e-60
4.15047e-60
3.15594e-60
1.62839e-60
8.60517e-61
4.81443e-61
2.45902e-61
1.17651e-61
6.86913e-62
5.43306e-62
5.36032e-62
6.45649e-62
9.86925e-62
1.95244e-61
4.26388e-61
9.55057e-61
2.16776e-60
4.2729e-60
5.26727e-60
4.09896e-60
1.98666e-60
1.09143e-60
9.94858e-61
1.05449e-60
1.92364e-61
1.76728e-64
1.10824e-63
1.60115e-63
1.71252e-63
3.10731e-63
6.12111e-63
6.10097e-63
4.58379e-63
2.30553e-63
1.15027e-63
5.76462e-64
2.7399e-64
1.33955e-64
8.14298e-65
6.13439e-65
5.52477e-65
6.57026e-65
1.10983e-64
2.54146e-64
6.10866e-64
1.37411e-63
2.92821e-63
5.47178e-63
6.40031e-63
5.14644e-63
2.71231e-63
1.63261e-63
1.55363e-63
1.66681e-63
2.97311e-64
2.93792e-67
3.20304e-66
2.74615e-66
2.75321e-66
4.55877e-66
7.5507e-66
7.19964e-66
5.71431e-66
2.8782e-66
1.32883e-66
6.03672e-67
2.6884e-67
1.24715e-67
6.86877e-68
4.6007e-68
4.05163e-68
5.43029e-68
1.09168e-67
2.77563e-67
6.68037e-67
1.42146e-66
2.93706e-66
5.86244e-66
7.35218e-66
7.01078e-66
4.11543e-66
2.56008e-66
2.42545e-66
2.53035e-66
4.33527e-67
9.58081e-70
4.68726e-69
3.56292e-69
3.61287e-69
5.45522e-69
8.46798e-69
8.25021e-69
6.43188e-69
2.98426e-69
1.20856e-69
4.91214e-70
2.03009e-70
8.6686e-71
4.29735e-71
2.77949e-71
2.76073e-71
4.48756e-71
1.02798e-70
2.65021e-70
6.11172e-70
1.28841e-69
2.87358e-69
6.66133e-69
9.72501e-69
1.02598e-68
6.15412e-69
3.70357e-69
3.41785e-69
3.53699e-69
5.97504e-70
1.01011e-72
3.41519e-72
3.97272e-72
4.25933e-72
6.61671e-72
1.00582e-71
9.61944e-72
6.71426e-72
2.74705e-72
9.74553e-73
3.7277e-73
1.5525e-73
6.7206e-74
3.43788e-74
2.44069e-74
2.74017e-74
4.70849e-74
1.03403e-73
2.4384e-73
5.33146e-73
1.17055e-72
2.89907e-72
7.40415e-72
1.14539e-71
1.18077e-71
6.82226e-72
4.19196e-72
4.04518e-72
4.60339e-72
8.0824e-73
5.7761e-76
5.84634e-75
5.80528e-75
5.68649e-75
7.70469e-75
1.00477e-74
9.36756e-75
6.09105e-75
2.30991e-75
7.90533e-76
3.21153e-76
1.46711e-76
6.80824e-77
3.67316e-77
2.69707e-77
2.91692e-77
4.46144e-77
8.39634e-77
1.7891e-76
3.94792e-76
9.44858e-76
2.54741e-75
6.64409e-75
9.7693e-75
9.52386e-75
5.59796e-75
3.99747e-75
4.41451e-75
5.8877e-75
1.06959e-75
1.49348e-78
1.3836e-77
8.78345e-78
7.30891e-78
7.7541e-78
9.31643e-78
9.35211e-78
6.16723e-78
2.30926e-78
8.34902e-79
3.71526e-79
1.76403e-79
8.02875e-80
4.13599e-80
2.80561e-80
2.66047e-80
3.48751e-80
5.90162e-80
1.26037e-79
3.06778e-79
8.10104e-79
2.25337e-78
5.60518e-78
7.56387e-78
7.13942e-78
4.64571e-78
3.73962e-78
4.79184e-78
6.99027e-78
1.242e-78
4.43033e-81
1.36776e-80
9.26097e-81
6.35376e-81
6.91382e-81
1.02251e-80
1.09464e-80
7.13858e-81
2.68561e-81
1.03485e-81
4.66608e-82
2.0776e-82
8.64058e-83
4.13696e-83
2.64789e-83
2.3603e-83
2.98724e-83
5.1703e-83
1.19441e-82
3.15999e-82
8.52391e-82
2.25384e-81
5.13307e-81
6.60052e-81
6.15818e-81
4.3116e-81
3.5739e-81
4.6895e-81
6.67581e-81
1.11616e-81
1.89566e-84
6.47947e-84
7.10857e-84
5.71359e-84
7.70315e-84
1.24504e-83
1.16502e-83
6.46114e-84
2.39118e-84
9.09165e-85
3.73475e-85
1.46215e-85
5.69649e-86
2.80966e-86
1.94537e-86
1.88528e-86
2.5706e-86
4.75382e-86
1.14258e-85
3.02893e-85
7.86678e-85
1.97747e-84
4.40303e-84
5.88069e-84
5.69097e-84
4.10806e-84
3.25028e-84
3.93372e-84
4.9383e-84
7.80607e-85
1.0066e-87
1.11774e-86
1.00453e-86
8.39151e-87
1.23053e-86
1.47274e-86
9.90615e-87
4.32778e-87
1.46983e-87
4.73502e-88
1.53886e-88
5.12576e-89
2.03576e-89
1.18817e-89
9.83468e-90
1.07948e-89
1.5738e-89
2.97559e-89
7.09937e-89
1.85465e-88
4.88849e-88
1.31931e-87
3.33116e-87
5.31937e-87
5.73368e-87
4.18226e-87
3.06006e-87
3.17062e-87
3.30327e-87
5.00739e-88
2.39526e-90
2.29108e-89
1.5821e-89
1.35759e-89
1.64135e-89
1.35341e-89
7.92971e-90
3.25942e-90
9.88182e-91
2.52216e-91
6.57874e-92
2.06464e-92
8.61926e-93
5.36643e-93
4.56792e-93
4.94344e-93
6.97983e-93
1.28716e-92
3.06039e-92
8.37825e-92
2.54248e-91
8.51062e-91
2.72281e-90
5.45995e-90
6.53468e-90
4.7037e-90
3.07666e-90
2.73687e-90
2.41578e-90
3.60098e-91
4.93437e-93
1.82161e-92
1.36448e-92
1.08215e-92
1.22688e-92
1.08493e-92
7.60471e-93
3.20476e-93
8.56957e-94
1.88952e-94
4.63015e-95
1.44458e-95
5.97186e-96
3.35284e-96
2.39673e-96
2.2913e-96
3.10764e-96
5.88339e-96
1.48275e-95
4.44751e-95
1.53887e-94
6.10735e-94
2.32978e-93
5.45066e-93
6.90237e-93
4.87205e-93
2.95862e-93
2.50733e-93
2.14415e-93
3.32835e-94
1.84546e-96
8.45151e-96
9.97228e-96
8.73834e-96
1.0314e-95
1.11998e-95
8.12539e-96
2.89308e-96
6.39502e-97
1.31654e-97
3.35705e-98
1.05286e-98
3.8711e-99
1.77044e-99
1.0711e-99
1.00392e-99
1.49711e-99
3.197e-99
8.78496e-99
2.73243e-98
9.60126e-98
3.87175e-97
1.55279e-96
3.95326e-96
5.28369e-96
4.03147e-96
2.66826e-96
2.47899e-96
2.43291e-96
4.06933e-97
1.27074e-99
1.46452e-98
1.41134e-98
1.14614e-98
1.44482e-98
1.45811e-98
7.3551e-99
1.76233e-99
3.16356e-100
6.48155e-101
1.72482e-101
5.21495e-102
1.71781e-102
7.20759e-103
4.57314e-103
4.64411e-103
7.46446e-103
1.73002e-102
4.83717e-102
1.42015e-101
4.5381e-101
1.70566e-100
6.82097e-100
1.96233e-99
3.05056e-99
3.04765e-99
2.49579e-99
2.84477e-99
3.37868e-99
5.91833e-100
2.89165e-102
2.60112e-101
1.85226e-101
1.50303e-101
1.82927e-101
1.50697e-101
4.6947e-102
7.96501e-103
1.42324e-103
3.23754e-104
9.27317e-105
3.05884e-105
1.1726e-105
5.71246e-106
3.69722e-106
3.3343e-106
4.48025e-106
8.76614e-106
2.18404e-105
5.78465e-105
1.71611e-104
6.35698e-104
2.70605e-103
9.29318e-103
1.97786e-102
2.617e-102
2.62109e-102
3.56477e-102
4.80881e-102
8.32268e-103
4.83338e-105
2.03547e-104
1.41308e-104
1.25e-104
1.38978e-104
8.78056e-105
2.40475e-105
4.71372e-106
1.01304e-106
2.3692e-107
6.92846e-108
2.6854e-108
1.21509e-108
6.20959e-109
3.85332e-109
3.00882e-109
3.02365e-109
3.95042e-109
8.21997e-109
2.23604e-108
7.66492e-108
3.21858e-107
1.5385e-106
6.3499e-106
1.66548e-105
2.54727e-105
2.77217e-105
3.99643e-105
5.58179e-105
9.27108e-106
1.71872e-105
1.71872e-105