/*--------------------------------*- C++ -*----------------------------------*\
| =========                 |                                                 |
| \\      /  F ield         | OpenFOAM: The Open Source CFD Toolbox           |
|  \\    /   O peration     | Version:  2312                                  |
|   \\  /    A nd           | Website:  www.openfoam.com                      |
|    \\/     M anipulation  |                                                 |
\*---------------------------------------------------------------------------*/
FoamFile
{
    version     2.0;
    format      ascii;
    arch        "LSB;label=32;scalar=64";
    class       surfaceScalarField;
    location    "0.822131";
    object      alphaPhi0.water;
}
// * * * * * * * * * * * * * * * * * * * * * * * * * * * * * * * * * * * * * //

dimensions      [0 3 -1 0 0 0 0];

oriented        oriented;

internalField   nonuniform List<scalar> 
263100
(
-4.68684e-10
9.37338e-10
-4.68684e-10
-9.1194e-10
1.11915e-09
-7.02043e-10
-1.52742e-09
1.24606e-09
-6.53286e-10
-1.80229e-09
1.00462e-09
-7.41368e-10
-1.81365e-09
7.32288e-10
-7.10984e-10
-1.53937e-09
3.87853e-10
-6.23311e-10
-1.05802e-09
6.68191e-11
-4.79017e-10
-5.2191e-10
-1.28164e-10
-3.12659e-10
-9.53935e-11
-1.34347e-10
-1.78023e-10
1.50456e-10
6.42849e-12
-1.27004e-10
2.18348e-10
2.55881e-10
-1.94622e-10
1.97241e-10
5.04562e-10
-3.58268e-10
2.11492e-10
6.74587e-10
-5.77944e-10
3.73524e-10
7.0038e-10
-7.79465e-10
7.47403e-10
5.87222e-10
-9.21635e-10
1.30128e-09
3.8006e-10
-9.51412e-10
1.91116e-09
1.4126e-10
-8.31671e-10
2.34876e-09
4.21284e-12
-5.79117e-10
2.39523e-09
5.94194e-11
-2.78831e-10
1.91067e-09
2.91849e-10
1.82794e-11
8.61188e-10
7.16695e-10
1.9676e-10
-6.93534e-10
1.22594e-09
2.65212e-10
-2.5095e-09
1.6195e-09
2.21337e-10
-4.2812e-09
1.78231e-09
9.44179e-11
-5.50213e-09
1.47022e-09
-9.13945e-11
-5.67613e-09
6.82278e-10
-3.27521e-10
-4.74081e-09
-3.02302e-10
-4.43813e-10
-2.59322e-09
-1.38283e-09
-5.59924e-10
7.65269e-10
-1.07132e-09
-2.05281e-09
4.0201e-09
-2.99593e-09
-2.367e-10
1.38387e-09
-2.367e-10
-5.49829e-10
1.60601e-09
-2.0575e-10
-6.14784e-10
1.4918e-09
-1.96494e-10
-6.57075e-10
1.18892e-09
-1.24811e-10
-6.16818e-10
7.7449e-10
-2.0753e-11
-5.20368e-10
3.29176e-10
7.07998e-11
-4.10539e-10
4.41932e-12
1.01426e-10
-2.95819e-10
-1.5242e-10
8.69922e-11
-1.58183e-10
-1.12849e-10
3.46449e-11
-1.38276e-12
9.01068e-11
-4.13228e-11
2.26467e-10
3.46607e-10
-1.2504e-10
5.26702e-10
5.39993e-10
-1.619e-10
8.77554e-10
5.96087e-10
-1.37612e-10
1.22682e-09
4.83132e-10
-5.91505e-11
1.51363e-09
2.43002e-10
4.73873e-11
1.61161e-09
8.83977e-12
1.69078e-10
1.51101e-09
-1.98891e-10
2.48638e-10
1.20624e-09
-1.68641e-10
2.25233e-10
7.81389e-10
7.01029e-11
1.48628e-10
2.14743e-10
6.14629e-10
2.22472e-11
-3.74017e-10
1.27629e-09
-9.73882e-11
-8.87602e-10
1.89973e-09
-1.63096e-10
-1.23799e-09
2.25007e-09
-1.63038e-10
-1.31033e-09
2.08285e-09
-2.24243e-11
-1.08635e-09
1.26599e-09
2.3448e-10
-7.08819e-10
-6.99307e-11
6.48385e-10
-2.87682e-10
-1.81542e-09
1.35908e-09
2.87777e-10
-3.91207e-09
2.10368e-09
2.55511e-09
-6.09211e-09
2.40314e-09
1.66923e-09
2.87639e-09
-4.09354e-11
1.44131e-09
-4.09354e-11
2.37806e-10
1.25898e-09
6.09652e-11
5.16818e-10
1.08104e-09
1.33512e-10
6.73588e-10
8.36113e-10
2.19061e-10
6.71334e-10
5.44331e-10
2.7911e-10
5.0667e-10
2.67828e-10
2.92194e-10
2.46866e-10
9.29166e-11
2.49458e-10
-6.29589e-13
4.41259e-11
1.34618e-10
-1.07551e-10
9.97767e-11
-1.88346e-11
5.03902e-12
1.94718e-10
-1.25777e-10
3.3871e-10
2.71263e-10
-1.60838e-10
8.32709e-10
2.52991e-10
-1.06187e-10
1.34005e-09
1.59555e-10
2.35585e-11
1.6494e-09
3.57436e-11
2.09795e-10
1.63965e-09
-1.00432e-10
3.83782e-10
1.27923e-09
-1.22648e-10
4.66123e-10
6.39086e-10
-4.68156e-11
3.99892e-10
-8.67372e-11
2.19161e-10
1.94561e-10
-7.46574e-10
5.87704e-10
-3.58914e-11
-1.06036e-09
1.06241e-09
-3.16347e-10
-9.07309e-10
1.52314e-09
-5.54266e-10
-2.77825e-10
1.81117e-09
-6.43132e-10
7.2399e-10
1.77867e-09
-5.71455e-10
1.89012e-09
1.28011e-09
-3.48897e-10
2.9667e-09
3.74134e-10
-1.24069e-10
3.70017e-09
-7.53581e-10
6.80406e-11
3.37785e-09
-1.77528e-09
5.45149e-10
2.43365e-09
-3.05284e-09
7.54512e-10
1.64973e-09
-6.0076e-09
2.0924e-09
1.66379e-09
1.27642e-09
1.41961e-10
1.14313e-09
1.41961e-10
8.97716e-10
2.24655e-10
3.39585e-10
1.45513e-09
1.75952e-10
4.06831e-10
1.74945e-09
1.08678e-10
4.9443e-10
1.73373e-09
8.90304e-11
5.23856e-10
1.42868e-09
1.25565e-10
4.80016e-10
9.62078e-10
2.03444e-10
3.61352e-10
4.98171e-10
2.9012e-10
1.96448e-10
1.89467e-10
3.26975e-10
4.2558e-11
1.27898e-10
2.73866e-10
-5.92488e-11
3.15057e-10
1.37094e-10
-8.25383e-11
6.38045e-10
-6.16039e-11
-1.60467e-11
9.30893e-10
-2.15497e-10
9.80791e-11
1.01519e-09
-2.47244e-10
2.31281e-10
8.0718e-10
-1.18064e-10
2.6161e-10
3.24328e-10
1.72533e-10
2.10072e-10
-3.22314e-10
5.4849e-10
4.29476e-11
-9.29984e-10
9.33052e-10
-1.58983e-10
-1.2566e-09
1.23254e-09
-4.21024e-10
-1.10809e-09
1.35571e-09
-5.88656e-10
-3.84572e-10
1.31183e-09
-6.84623e-10
8.2095e-10
1.12392e-09
-6.89378e-10
2.3027e-09
7.36699e-10
-5.82658e-10
3.69019e-09
2.28208e-10
-4.33663e-10
4.56237e-09
-2.79455e-10
-2.77618e-10
4.8414e-09
-7.81094e-10
-3.23601e-10
4.82422e-09
-1.08295e-09
-8.8323e-10
3.10356e-09
-3.07826e-10
-1.38998e-09
-7.29409e-10
-1.15372e-09
-7.06756e-10
1.78084e-09
-1.02002e-09
3.02851e-10
5.70043e-10
3.02851e-10
1.41584e-09
-1.27255e-09
5.72466e-10
2.14813e-09
-1.02698e-09
6.3383e-10
2.54482e-09
-8.35118e-10
6.80278e-10
2.57035e-09
-5.15935e-10
6.58951e-10
2.28128e-09
-1.34181e-10
5.5734e-10
1.77784e-09
2.22088e-10
4.1677e-10
1.21367e-09
4.51986e-10
2.65391e-10
7.24819e-10
4.90376e-10
1.38468e-10
3.67918e-10
3.43805e-10
7.53758e-11
1.15377e-10
1.15225e-10
6.4897e-11
-5.6997e-11
-1.47397e-10
7.42937e-11
-2.20619e-10
-2.50158e-10
5.78488e-11
-4.26607e-10
-1.28704e-10
8.62832e-13
-6.83708e-10
2.32664e-10
-1.24932e-10
-9.36045e-10
7.23087e-10
-2.83581e-10
-1.10327e-09
1.19352e-09
-4.37841e-10
-1.10448e-09
1.48803e-09
-5.17071e-10
-8.42757e-10
1.49653e-09
-5.20677e-10
-2.32332e-10
1.20784e-09
-5.05899e-10
6.92851e-10
7.61635e-10
-4.62521e-10
1.86207e-09
2.44214e-10
-3.95739e-10
3.01491e-09
-1.42145e-10
-3.62623e-10
3.87967e-09
-3.11559e-10
-3.65601e-10
4.13575e-09
-9.90125e-11
-4.11883e-10
3.65428e-09
2.74489e-10
-4.7555e-10
2.68296e-09
8.31058e-10
-8.24579e-10
1.3948e-09
2.27564e-09
-1.39864e-09
-1.15009e-09
3.18925e-09
-1.68063e-09
3.18272e-09
-2.47851e-09
4.1491e-10
-1.38719e-10
4.1491e-10
1.63069e-09
-2.82215e-09
6.65505e-10
2.3892e-09
-2.20385e-09
6.89722e-10
2.85609e-09
-1.74354e-09
6.44653e-10
3.03005e-09
-1.12047e-09
5.3622e-10
2.92704e-09
-4.37043e-10
3.9646e-10
2.59026e-09
1.49161e-10
2.82453e-10
2.07667e-09
5.33177e-10
1.98452e-10
1.42253e-09
6.70349e-10
1.55485e-10
6.64744e-10
5.88494e-10
1.38917e-10
-1.36182e-10
3.9773e-10
1.22346e-10
-9.3236e-10
2.21614e-10
4.53775e-11
-1.60569e-09
1.82121e-10
-8.97223e-11
-2.02473e-09
3.27099e-10
-2.83094e-10
-2.12636e-09
6.43458e-10
-4.47423e-10
-1.89344e-09
1.00614e-09
-5.39887e-10
-1.3893e-09
1.29549e-09
-5.32035e-10
-6.91992e-10
1.32805e-09
-4.0215e-10
9.94007e-11
1.08642e-09
-2.31193e-10
9.08609e-10
5.96287e-10
-7.08183e-11
1.66354e-09
3.89928e-11
5.63614e-11
2.23145e-09
-3.8231e-10
1.21478e-10
2.56429e-09
-4.69683e-10
6.04525e-11
2.57143e-09
-6.97482e-11
-1.58407e-10
2.21358e-09
8.58828e-10
-4.87893e-10
1.30936e-09
2.20842e-09
-9.00104e-10
6.45734e-12
3.67558e-09
-1.34567e-09
-5.94732e-10
5.05035e-09
-2.00419e-09
-1.45275e-09
6.50592e-09
-2.17498e-09
4.32394e-09
-2.2844e-09
3.27887e-10
-5.80453e-10
3.27887e-10
1.40714e-09
-3.96022e-09
4.72546e-10
2.11284e-09
-2.97451e-09
3.88217e-10
2.68723e-09
-2.33107e-09
2.45367e-10
3.10582e-09
-1.51752e-09
9.66998e-11
3.33735e-09
-6.6535e-10
-1.11596e-11
3.31412e-09
1.01882e-10
-6.46869e-11
2.94858e-09
6.83338e-10
-3.91469e-11
2.2071e-09
1.01287e-09
4.07453e-11
1.12274e-09
1.13623e-09
9.82511e-11
-1.78122e-10
1.13168e-09
8.13137e-11
-1.46792e-09
1.0437e-09
-2.18976e-11
-2.4872e-09
9.29909e-10
-1.70583e-10
-2.99615e-09
8.21259e-10
-3.26897e-10
-2.92191e-09
7.75664e-10
-4.05098e-10
-2.32616e-09
7.20486e-10
-3.46045e-10
-1.37267e-09
6.34575e-10
-1.77541e-10
-2.63789e-10
4.25414e-10
1.81687e-11
7.51361e-10
6.81762e-11
2.78108e-10
1.44542e-09
-3.42487e-10
5.13931e-10
1.74537e-09
-7.03249e-10
6.69012e-10
1.66337e-09
-7.95001e-10
6.68121e-10
1.25547e-09
-4.23684e-10
4.91612e-10
5.90054e-10
4.97287e-10
2.0312e-10
-1.92122e-10
1.91122e-09
-1.76818e-10
-9.4034e-10
3.66736e-09
-6.26886e-10
-1.56634e-09
5.47906e-09
-1.04859e-09
-1.67385e-09
6.66146e-09
-1.30685e-09
-1.0151e-09
7.36372e-09
-1.23026e-09
4.41382e-09
-8.81511e-10
2.05044e-11
-3.633e-10
2.05044e-11
8.37542e-10
-4.40611e-09
1.5137e-11
1.48149e-09
-3.176e-09
-1.4552e-10
2.20252e-09
-2.48331e-09
-3.47606e-10
2.93055e-09
-1.64884e-09
-4.59884e-10
3.52914e-09
-7.49468e-10
-4.67865e-10
3.83071e-09
1.22939e-10
-3.70702e-10
3.66677e-09
9.24028e-10
-2.22886e-10
2.95433e-09
1.5654e-09
-8.36922e-11
1.74268e-09
1.98705e-09
2.92989e-11
2.41373e-10
2.16828e-09
6.92112e-11
-1.22388e-09
2.06067e-09
2.94476e-11
-2.34089e-09
1.68503e-09
-2.63319e-11
-2.91659e-09
1.12778e-09
-3.11197e-11
-2.85072e-09
5.21574e-10
2.21697e-11
-2.25223e-09
-5.25758e-11
1.6423e-10
-1.3326e-09
-5.41773e-10
3.90779e-10
-3.99433e-10
-9.11079e-10
6.40391e-10
3.12128e-10
-1.24165e-09
8.79126e-10
6.66117e-10
-1.47254e-09
1.04105e-09
6.39694e-10
-1.50134e-09
1.02785e-09
2.76221e-10
-1.2075e-09
8.91556e-10
-3.39343e-10
-4.91983e-10
7.03675e-10
-1.06749e-09
6.73307e-10
4.86061e-10
-1.72951e-09
2.17659e-09
2.77511e-10
-2.12073e-09
3.80084e-09
1.23634e-10
-2.04785e-09
5.24235e-09
5.57519e-11
-1.48492e-09
5.918e-09
1.18053e-10
-3.05894e-10
5.81389e-09
3.06924e-10
3.2013e-09
7.14979e-10
-5.08226e-10
8.83307e-10
-5.08226e-10
1.68107e-10
-4.21901e-09
-5.9635e-10
8.04769e-10
-2.85389e-09
-7.38306e-10
1.65419e-09
-2.31492e-09
-8.20116e-10
2.5722e-09
-1.59938e-09
-7.88857e-10
3.39748e-09
-7.75032e-10
-6.45017e-10
3.91318e-09
1.53996e-10
-4.2965e-10
3.91978e-09
1.17275e-09
-1.94679e-10
3.38742e-09
2.09329e-09
-8.16952e-12
2.38221e-09
2.7662e-09
1.33804e-10
1.11533e-09
3.04078e-09
2.32655e-10
-1.47346e-10
2.79667e-09
3.23161e-10
-1.1637e-09
2.06806e-09
4.27765e-10
-1.79506e-09
1.01365e-09
5.79359e-10
-2.05471e-09
-8.14698e-11
7.6704e-10
-2.01773e-09
-1.0604e-09
9.57705e-10
-1.81843e-09
-1.81223e-09
1.13067e-09
-1.59245e-09
-2.25749e-09
1.22543e-09
-1.39845e-09
-2.48323e-09
1.16185e-09
-1.28537e-09
-2.48437e-09
9.85729e-10
-1.29014e-09
-2.25307e-09
7.85005e-10
-1.43608e-09
-1.73732e-09
6.23561e-10
-1.64849e-09
-9.22404e-10
4.99615e-10
-1.87565e-09
1.8318e-10
4.87774e-10
-2.03269e-09
1.52289e-09
5.21721e-10
-1.91813e-09
2.762e-09
6.12251e-10
-1.3756e-09
3.61931e-09
7.5289e-10
-5.12645e-10
3.69506e-09
9.90588e-10
3.00039e-10
3.28143e-09
1.25369e-09
1.68031e-09
1.32081e-09
-7.21117e-10
2.47599e-09
-7.21117e-10
-2.20346e-10
-3.85407e-09
-7.63105e-10
3.35532e-10
-2.53257e-09
-7.57908e-10
1.09498e-09
-2.23231e-09
-6.86419e-10
1.92042e-09
-1.72861e-09
-4.97661e-10
2.64184e-09
-1.00029e-09
-2.6384e-10
3.09999e-09
-4.06974e-11
-1.94289e-11
3.24272e-09
1.10975e-09
1.47949e-10
3.0535e-09
2.2054e-09
2.63239e-10
2.60076e-09
2.98746e-09
3.60558e-10
1.96863e-09
3.25856e-09
4.83365e-10
1.266e-09
2.83946e-09
6.76148e-10
5.3022e-10
1.86396e-09
9.14935e-10
-2.36181e-10
5.78643e-10
1.14502e-09
-1.12285e-09
-6.32446e-10
1.35462e-09
-2.02378e-09
-1.69732e-09
1.43e-09
-2.8493e-09
-2.43727e-09
1.32063e-09
-3.43685e-09
-2.84664e-09
1.03236e-09
-3.70267e-09
-3.02642e-09
6.61474e-10
-3.63946e-09
-3.0165e-09
3.2759e-10
-3.30044e-09
-2.81858e-09
9.21118e-11
-2.81001e-09
-2.38573e-09
2.1839e-11
-2.32087e-09
-1.64008e-09
7.95955e-11
-1.89208e-09
-6.18542e-10
2.04599e-10
-1.4443e-09
5.0188e-10
3.83149e-10
-8.67169e-10
1.38027e-09
5.86607e-10
-1.35364e-10
1.77685e-09
8.30943e-10
4.32049e-10
1.71233e-09
1.03809e-09
5.66854e-10
1.62576e-09
1.06404e-09
1.12611e-09
8.13015e-10
-2.31141e-10
2.98606e-09
-2.31141e-10
-1.65351e-10
-3.82545e-09
-1.86225e-10
1.96496e-11
-2.7161e-09
-3.01191e-11
2.87243e-10
-2.61101e-09
1.45945e-10
5.61747e-10
-2.29437e-09
3.93267e-10
7.92158e-10
-1.6299e-09
5.58669e-10
9.98318e-10
-6.35589e-10
5.87331e-10
1.24804e-09
5.48697e-10
5.28774e-10
1.58147e-09
1.65376e-09
4.36935e-10
1.96431e-09
2.4055e-09
4.05405e-10
2.25388e-09
2.64153e-09
5.07858e-10
2.27979e-09
2.261e-09
6.89651e-10
1.85017e-09
1.43447e-09
9.29047e-10
8.58832e-10
4.49812e-10
1.0968e-09
-6.41312e-10
-3.47807e-10
1.08023e-09
-2.3656e-09
-1.09306e-09
8.74431e-10
-3.95605e-09
-1.64928e-09
4.75469e-10
-5.04989e-09
-2.1009e-09
-7.0862e-12
-5.47928e-09
-2.54328e-09
-3.75133e-10
-5.20862e-09
-2.88434e-09
-6.39459e-10
-4.40945e-09
-3.05674e-09
-6.8857e-10
-3.38429e-09
-2.86925e-09
-5.64477e-10
-2.37667e-09
-2.26249e-09
-3.25847e-10
-1.48041e-09
-1.33968e-09
-6.36866e-11
-5.9609e-10
-3.70219e-10
1.13359e-10
1.95704e-10
3.6466e-10
3.19166e-10
7.48535e-10
7.61127e-10
4.87926e-10
8.53002e-10
1.06728e-09
5.06467e-10
5.85974e-10
1.52821e-09
3.64027e-10
1.55149e-09
3.38649e-10
9.33572e-10
1.04257e-09
9.33572e-10
4.54669e-11
-4.23371e-09
9.71732e-10
-5.73802e-10
-3.55759e-09
1.21033e-09
-1.19662e-09
-3.42942e-09
1.24267e-09
-1.77489e-09
-3.0987e-09
1.24172e-09
-2.18173e-09
-2.37591e-09
1.07234e-09
-2.22696e-09
-1.38138e-09
7.73078e-10
-1.77558e-09
-2.59612e-10
4.04782e-10
-7.92466e-10
6.73359e-10
1.11565e-10
5.13185e-10
1.32012e-09
-4.81518e-11
1.76579e-09
1.61515e-09
-2.17665e-11
2.46926e-09
1.63031e-09
1.19442e-10
2.32131e-09
1.50833e-09
1.97218e-10
1.2619e-09
1.37556e-09
1.34916e-10
-4.10952e-10
1.23299e-09
-5.63604e-11
-2.42243e-09
1.01219e-09
-3.78506e-10
-4.23665e-09
5.98413e-10
-7.98212e-10
-5.32427e-09
-2.32609e-10
-1.14152e-09
-5.60015e-09
-1.23679e-09
-1.30411e-09
-5.10485e-09
-2.23424e-09
-1.27455e-09
-4.1411e-09
-2.92401e-09
-1.06361e-09
-3.01615e-09
-3.07096e-09
-7.4524e-10
-1.90499e-09
-2.67166e-09
-4.15947e-10
-8.85755e-10
-1.88102e-09
-1.29493e-10
7.4616e-11
-1.02041e-09
5.0262e-11
8.2724e-10
-2.96881e-10
2.39323e-10
1.17756e-09
3.61603e-10
3.44032e-10
1.09561e-09
1.11247e-09
3.48778e-10
8.45751e-10
1.79242e-09
3.74895e-10
2.02095e-09
7.30728e-10
2.11621e-09
-3.41755e-09
2.11621e-09
-2.48911e-11
-4.52491e-09
1.87629e-09
-1.70341e-09
-4.18864e-09
1.8204e-09
-3.30376e-09
-3.86504e-09
1.57967e-09
-4.70447e-09
-3.30542e-09
1.20134e-09
-5.6079e-09
-2.49457e-09
6.90602e-10
-5.69785e-09
-1.65577e-09
1.35488e-10
-4.84189e-09
-8.68667e-10
-3.4767e-10
-3.16307e-09
-3.03612e-10
-6.62784e-10
-1.04299e-09
1.28647e-10
-7.62696e-10
8.77652e-10
6.62846e-10
-7.18835e-10
2.05311e-09
1.37644e-09
-6.5637e-10
2.18828e-09
2.25693e-09
-6.78016e-10
1.35561e-09
3.15813e-09
-8.61441e-10
-9.80719e-11
3.78322e-09
-1.14393e-09
-1.72303e-09
3.86334e-09
-1.38034e-09
-3.03018e-09
3.22902e-09
-1.5186e-09
-3.72017e-09
1.86056e-09
-1.56285e-09
-3.73867e-09
1.01395e-10
-1.38583e-09
-3.35758e-09
-1.51535e-09
-1.04917e-09
-2.78411e-09
-2.66426e-09
-6.74568e-10
-2.09643e-09
-3.16792e-09
-3.509e-10
-1.35639e-09
-3.02069e-09
-1.00916e-10
-5.39034e-10
-2.4839e-09
9.55347e-11
3.12064e-10
-1.82685e-09
2.5811e-10
9.79059e-10
-1.10079e-09
4.22497e-10
1.30286e-09
-2.35344e-10
5.6202e-10
1.33633e-09
6.47818e-10
7.44893e-10
1.13302e-09
1.21612e-09
1.05943e-09
1.84702e-09
1.3563e-09
2.46249e-09
-8.70882e-09
2.46249e-09
-8.44189e-10
-3.46254e-09
1.57641e-09
-3.32276e-09
-3.5763e-09
1.26592e-09
-5.44495e-09
-3.04933e-09
7.43427e-10
-7.07888e-09
-2.33499e-09
1.66333e-10
-7.89785e-09
-1.66045e-09
-4.08327e-10
-7.70495e-09
-1.30511e-09
-7.94264e-10
-6.37976e-09
-1.2462e-09
-1.02888e-09
-4.21841e-09
-1.29799e-09
-1.07612e-09
-1.81906e-09
-1.04337e-09
-9.9362e-10
2.21948e-10
-2.10769e-10
-8.49337e-10
1.49491e-09
1.23124e-09
-7.98376e-10
1.87319e-09
3.03056e-09
-8.75963e-10
1.53538e-09
4.71931e-09
-1.03626e-09
8.10134e-10
5.76635e-09
-1.15587e-09
8.3924e-11
5.87191e-09
-1.23002e-09
-4.59815e-10
4.93137e-09
-1.11107e-09
-7.88141e-10
3.06764e-09
-8.06162e-10
-1.01887e-09
8.60671e-10
-4.28594e-10
-1.19856e-09
-1.12869e-09
-9.85455e-11
-1.37022e-09
-2.57348e-09
1.76676e-10
-1.48341e-09
-3.29145e-09
3.12191e-10
-1.29534e-09
-3.46952e-09
3.21511e-10
-7.72938e-10
-3.23575e-09
2.83513e-10
-8.55943e-11
-2.78422e-09
3.2366e-10
5.16102e-10
-2.07443e-09
4.34436e-10
9.21125e-10
-1.16764e-09
5.99311e-10
1.06539e-09
-3.71955e-10
9.06405e-10
7.16903e-10
2.93631e-10
1.15858e-09
1.52439e-09
8.1024e-10
1.37326e-09
-1.18617e-08
1.37326e-09
-2.1218e-09
-7.94812e-10
2.69173e-10
-4.52467e-09
-1.46013e-09
-1.96847e-10
-6.33306e-09
-1.04838e-09
-6.20479e-10
-7.52427e-09
-5.7508e-10
-9.14795e-10
-7.82108e-09
-5.72342e-10
-1.02468e-09
-7.06415e-09
-1.1141e-09
-1.04467e-09
-5.38915e-09
-1.97237e-09
-9.02663e-10
-3.35216e-09
-2.56541e-09
-5.9833e-10
-1.41238e-09
-2.39755e-09
-3.3024e-10
8.1727e-11
-1.25743e-09
-1.60349e-10
1.0195e-09
7.22923e-10
-1.56827e-10
1.5005e-09
3.09078e-09
-3.06515e-10
1.75633e-09
5.13806e-09
-4.73163e-10
1.91636e-09
6.28246e-09
-4.84881e-10
2.05668e-09
6.23892e-09
-3.05675e-10
2.10046e-09
5.06377e-09
3.33801e-11
1.85925e-09
3.05178e-09
4.43138e-10
1.21435e-09
8.34559e-10
7.88093e-10
2.52445e-10
-1.09329e-09
9.42311e-10
-7.87094e-10
-2.48868e-09
8.71183e-10
-1.5455e-09
-3.30239e-09
6.199e-10
-1.79246e-09
-3.73959e-09
3.44329e-10
-1.55119e-09
-3.82268e-09
1.79582e-10
-1.06148e-09
-3.56102e-09
1.40862e-10
-5.91662e-10
-2.85367e-09
1.81183e-10
-2.95531e-10
-1.87647e-09
2.7151e-10
-3.07781e-10
-9.07276e-10
3.35024e-10
-6.80916e-10
3.17919e-10
7.48819e-11
1.20804e-09
-4.78801e-10
-3.78419e-10
-1.14033e-08
-3.78419e-10
-2.80394e-09
2.55795e-09
-1.19913e-09
-4.30712e-09
1.07351e-09
-1.24139e-09
-5.18698e-09
1.02815e-09
-1.35535e-09
-5.3828e-09
7.52274e-10
-1.22704e-09
-4.82198e-09
-2.04363e-10
-9.52446e-10
-3.71356e-09
-1.64542e-09
-5.30056e-10
-2.3981e-09
-3.13653e-09
-4.89569e-11
-1.2007e-09
-3.9761e-09
3.43785e-10
-3.77617e-10
-3.68124e-09
5.90479e-10
9.01345e-11
-2.1943e-09
5.81847e-10
4.4899e-10
1.0146e-10
3.64072e-10
9.89028e-10
2.54637e-09
1.22227e-10
1.75352e-09
4.51107e-09
3.15543e-11
2.63575e-09
5.50966e-09
1.29206e-10
3.33815e-09
5.40086e-09
4.262e-10
3.56424e-09
4.31393e-09
8.10286e-10
3.06125e-09
2.66454e-09
1.10031e-09
1.8883e-09
9.25308e-10
1.16204e-09
3.91641e-10
-6.532e-10
9.98127e-10
-1.00996e-09
-1.95113e-09
7.04533e-10
-1.9377e-09
-2.9932e-09
4.11145e-10
-2.33057e-09
-3.80035e-09
2.34978e-10
-2.34606e-09
-4.22745e-09
2.0004e-10
-2.24188e-09
-4.10219e-09
2.10595e-10
-2.15519e-09
-3.38362e-09
2.00239e-10
-2.15438e-09
-2.2621e-09
1.10971e-10
-2.27206e-09
-8.84227e-10
-1.86308e-10
-2.01044e-09
5.09097e-10
-6.1773e-10
-2.1142e-10
-5.77777e-10
-1.59754e-09
-8.31064e-09
-1.59754e-09
-2.30212e-09
5.09201e-09
-1.82385e-09
-2.47449e-09
2.85151e-09
-1.58145e-09
-2.10784e-09
2.09788e-09
-1.39313e-09
-1.27356e-09
9.15812e-10
-9.3796e-10
-2.20854e-10
-8.32808e-10
-3.55918e-10
7.45664e-10
-2.77716e-09
2.25997e-10
1.24762e-09
-4.28053e-09
6.75296e-10
1.18586e-09
-4.83066e-09
9.08507e-10
6.77253e-10
-4.06897e-09
8.52016e-10
1.63461e-10
-2.27621e-09
5.44713e-10
1.11903e-10
-8.35553e-12
1.54028e-10
6.41106e-10
2.1263e-09
-2.03247e-11
1.64492e-09
3.69852e-09
2.27137e-11
2.73362e-09
4.49717e-09
2.47692e-10
3.43345e-09
4.50674e-09
5.67351e-10
3.43053e-09
3.8532e-09
8.02326e-10
2.63718e-09
2.8166e-09
8.77665e-10
1.33261e-09
1.55411e-09
7.87772e-10
-7.7431e-11
1.39087e-10
6.30258e-10
-1.26576e-09
-1.26607e-09
4.57516e-10
-2.07572e-09
-2.72931e-09
4.62282e-10
-2.59042e-09
-3.99478e-09
5.75271e-10
-3.01453e-09
-4.71506e-09
7.05844e-10
-3.45503e-09
-4.67802e-09
7.34055e-10
-3.82245e-09
-3.99527e-09
6.37751e-10
-3.95247e-09
-2.90656e-09
4.14467e-10
-3.60692e-09
-1.66646e-09
1.39325e-10
-2.23421e-09
-1.26606e-09
2.19058e-10
-3.38103e-09
6.76971e-10
-1.76534e-09
-4.73106e-09
-1.76534e-09
-7.76725e-10
5.5899e-09
-1.36578e-09
3.8077e-10
2.87985e-09
-1.0832e-09
1.65093e-09
1.7123e-09
-7.90456e-10
2.94492e-09
1.15225e-11
-3.09345e-10
4.05431e-09
-1.98054e-09
9.2447e-11
4.52119e-09
-3.68242e-09
4.50222e-10
4.11379e-09
-4.5572e-09
6.44191e-10
2.99354e-09
-4.37644e-09
5.83091e-10
1.67183e-09
-3.19804e-09
3.58199e-10
7.08885e-10
-1.47574e-09
1.13529e-10
4.5793e-10
2.76311e-10
1.68504e-11
8.61683e-10
1.81637e-09
9.00626e-11
1.6484e-09
2.89903e-09
3.22427e-10
2.34819e-09
3.54719e-09
6.34595e-10
2.59873e-09
3.77672e-09
8.65131e-10
2.25941e-09
3.57621e-09
9.41758e-10
1.42343e-09
2.97522e-09
9.20987e-10
3.51632e-10
1.96659e-09
8.39238e-10
-6.799e-10
4.87936e-10
8.26073e-10
-1.5586e-09
-1.17668e-09
8.9485e-10
-2.32584e-09
-2.97564e-09
1.0419e-09
-3.16543e-09
-4.42154e-09
1.17199e-09
-4.06857e-09
-5.18368e-09
1.14542e-09
-4.81802e-09
-5.21245e-09
9.60964e-10
-5.10966e-09
-4.80531e-09
7.36092e-10
-4.74083e-09
-4.25068e-09
6.19572e-10
-3.52756e-09
-3.98676e-09
7.83088e-10
-1.53833e-09
-4.81049e-09
1.15388e-09
-6.75294e-09
1.29832e-09
-1.03688e-09
-2.57441e-09
-1.03688e-09
1.21563e-09
3.88167e-09
-4.53442e-10
2.93006e-09
1.63622e-09
-3.94707e-10
4.63841e-09
2.49354e-10
-1.74092e-10
6.14796e-09
-1.54411e-09
1.06976e-10
7.04013e-09
-3.19917e-09
3.6373e-10
7.02416e-09
-4.22745e-09
5.62919e-10
6.14254e-09
-4.34024e-09
6.32287e-10
4.69998e-09
-3.58685e-09
6.07045e-10
3.22282e-09
-2.32867e-09
5.86417e-10
2.1305e-09
-9.90733e-10
6.52108e-10
1.61141e-09
8.84551e-11
8.43715e-10
1.5086e-09
1.02691e-09
1.11557e-09
1.51303e-09
1.75518e-09
1.41227e-09
1.38015e-09
2.36154e-09
1.58972e-09
1.00659e-09
2.78387e-09
1.59895e-09
4.28539e-10
2.87623e-09
1.4692e-09
-2.49883e-10
2.4922e-09
1.33835e-09
-9.57392e-10
1.56063e-09
1.30112e-09
-1.73733e-09
1.29573e-10
1.324e-09
-2.5954e-09
-1.60255e-09
1.41106e-09
-3.68537e-09
-3.26377e-09
1.3846e-09
-4.91255e-09
-4.4446e-09
1.12184e-09
-5.93206e-09
-5.03302e-09
6.52885e-10
-6.29507e-09
-5.36681e-09
2.79828e-10
-5.85738e-09
-5.67923e-09
2.12303e-10
-4.59877e-09
-6.07976e-09
3.52708e-10
-2.72318e-09
-6.73883e-09
5.99155e-10
-1.19313e-09
-7.48781e-09
7.15922e-10
-8.5187e-09
2.77127e-10
-8.90035e-11
-2.35142e-09
-8.90035e-11
2.67855e-09
9.18867e-10
2.30505e-10
4.85722e-09
-8.38493e-10
3.41349e-10
6.88154e-09
-2.25149e-09
5.28555e-10
8.43858e-09
-3.83375e-09
7.78323e-10
9.22857e-09
-4.9977e-09
1.03327e-09
9.09858e-09
-5.33408e-09
1.23395e-09
8.16363e-09
-4.81217e-09
1.38571e-09
6.79596e-09
-3.74246e-09
1.50586e-09
5.35958e-09
-2.53997e-09
1.65886e-09
4.10126e-09
-1.58493e-09
1.90535e-09
2.96759e-09
-9.115e-10
2.21971e-09
1.86329e-09
-2.30444e-10
2.45363e-09
7.69887e-10
5.0079e-10
2.41571e-09
-2.59744e-10
1.24992e-09
2.17424e-09
-1.12459e-09
1.83651e-09
1.83108e-09
-1.75448e-09
2.02088e-09
1.53154e-09
-2.27745e-09
1.74294e-09
1.37644e-09
-2.85469e-09
9.60714e-10
1.325e-09
-3.70174e-09
-2.13693e-10
1.32028e-09
-4.89971e-09
-1.54988e-09
1.18979e-09
-6.2805e-09
-2.73551e-09
7.95311e-10
-7.39828e-09
-3.74787e-09
3.1556e-10
-7.79976e-09
-4.74979e-09
3.76973e-11
-7.23045e-09
-6.021e-09
5.30773e-11
-5.88897e-09
-7.24379e-09
2.0134e-10
-4.11129e-09
-8.33919e-09
4.14051e-10
-2.46863e-09
-9.02953e-09
4.97792e-10
-1.47508e-09
-8.8327e-09
2.03819e-10
-9.95409e-09
6.23586e-11
7.79205e-10
-3.8959e-09
7.79205e-10
3.9985e-09
-3.44543e-09
1.14781e-09
6.49983e-09
-4.64118e-09
1.31667e-09
8.68006e-09
-6.01701e-09
1.59193e-09
1.02358e-08
-7.28921e-09
1.88122e-09
1.09476e-08
-7.88371e-09
2.12363e-09
1.07899e-08
-7.53633e-09
2.28525e-09
9.9455e-09
-6.49825e-09
2.45196e-09
8.69076e-09
-5.13598e-09
2.58618e-09
7.20275e-09
-3.84373e-09
2.75412e-09
5.50652e-09
-2.84114e-09
2.928e-09
3.54998e-09
-1.89532e-09
2.90466e-09
1.46782e-09
-8.61213e-10
2.64507e-09
-4.82336e-10
1.70338e-10
2.18219e-09
-2.01019e-09
1.05828e-09
1.62142e-09
-2.97788e-09
1.48137e-09
1.27157e-09
-3.60337e-09
1.54411e-09
1.12853e-09
-4.19859e-09
1.34743e-09
1.08072e-09
-5.09519e-09
8.84546e-10
1.06856e-09
-6.35541e-09
1.84322e-10
9.02238e-10
-7.75248e-09
-7.51195e-10
5.72171e-10
-8.89799e-09
-1.89626e-09
2.71827e-10
-9.24451e-09
-3.50529e-09
1.35852e-10
-8.61454e-09
-5.58843e-09
3.18804e-10
-7.29578e-09
-7.93401e-09
7.16673e-10
-5.70491e-09
-9.87589e-09
1.10298e-09
-4.22923e-09
-1.10983e-08
1.27127e-09
-2.96307e-09
-1.14058e-08
1.09062e-09
-1.57637e-09
-1.09142e-08
8.01056e-10
-1.239e-08
9.66694e-10
1.85843e-09
-7.61401e-09
1.85843e-09
5.30783e-09
-9.20594e-09
2.26013e-09
8.08754e-09
-9.97431e-09
2.49273e-09
1.02933e-08
-1.10901e-08
2.77093e-09
1.16622e-08
-1.18268e-08
3.03236e-09
1.21079e-08
-1.16483e-08
3.15674e-09
1.18029e-08
-1.05472e-08
3.15502e-09
1.09722e-08
-8.87135e-09
3.07127e-09
9.75855e-09
-7.00049e-09
2.98511e-09
8.10815e-09
-5.17482e-09
2.91729e-09
5.94799e-09
-3.48354e-09
2.74144e-09
3.40455e-09
-1.84115e-09
2.40823e-09
8.15885e-10
-2.94636e-10
1.91903e-09
-1.33252e-09
7.14137e-10
1.50397e-09
-2.84346e-09
1.16584e-09
1.3418e-09
-3.84936e-09
1.19859e-09
1.28761e-09
-4.74585e-09
1.10802e-09
1.37577e-09
-5.93169e-09
1.13983e-09
1.43167e-09
-7.4598e-09
1.08508e-09
1.31522e-09
-9.05204e-09
7.10153e-10
1.00877e-09
-1.02697e-08
-2.63341e-10
6.947e-10
-1.06507e-08
-2.04785e-09
5.98583e-10
-1.00754e-08
-4.77746e-09
8.70193e-10
-8.80505e-09
-8.09983e-09
1.43683e-09
-7.52065e-09
-1.10402e-08
1.95016e-09
-6.43411e-09
-1.30151e-08
2.1078e-09
-5.28659e-09
-1.41267e-08
1.92412e-09
-3.80589e-09
-1.44555e-08
1.6744e-09
-1.75111e-09
-1.45044e-08
1.69157e-09
-1.58032e-08
1.69168e-09
2.96732e-09
-1.35855e-08
2.96732e-09
6.62287e-09
-1.63529e-08
3.35412e-09
9.54058e-09
-1.66801e-08
3.63313e-09
1.15659e-08
-1.71683e-08
3.86246e-09
1.25721e-08
-1.69256e-08
3.88058e-09
1.26949e-08
-1.56939e-08
3.71812e-09
1.22557e-08
-1.36649e-08
3.38941e-09
1.14735e-08
-1.1297e-08
3.09249e-09
1.02726e-08
-8.76844e-09
2.89749e-09
8.51735e-09
-6.21168e-09
2.73939e-09
6.17034e-09
-3.71161e-09
2.51579e-09
3.51095e-09
-1.50653e-09
2.25138e-09
1.05508e-09
4.93907e-11
2.03861e-09
-9.06379e-10
6.59986e-10
1.96573e-09
-2.4458e-09
6.11926e-10
2.07568e-09
-3.88514e-09
3.48868e-10
2.28288e-09
-5.60808e-09
2.98707e-10
2.49614e-09
-7.65792e-09
6.43185e-10
2.45241e-09
-9.72101e-09
9.60538e-10
2.05785e-09
-1.12693e-08
4.56287e-10
1.71226e-09
-1.19587e-08
-1.17815e-09
1.63265e-09
-1.16366e-08
-4.12287e-09
1.90525e-09
-1.07122e-08
-7.90313e-09
2.38844e-09
-9.87124e-09
-1.16701e-08
2.84548e-09
-9.32679e-09
-1.44548e-08
2.9106e-09
-8.52798e-09
-1.62865e-08
2.52923e-09
-7.14848e-09
-1.75343e-08
2.1514e-09
-4.92766e-09
-1.85881e-08
2.0846e-09
-2.2523e-09
-1.9252e-08
2.23744e-09
-2.0392e-08
2.54225e-09
3.99272e-09
-2.16575e-08
3.99272e-09
7.77903e-09
-2.46945e-08
4.3613e-09
1.06959e-08
-2.43833e-08
4.592e-09
1.24988e-08
-2.37607e-08
4.58261e-09
1.32433e-08
-2.2208e-08
4.33616e-09
1.32735e-08
-1.98248e-08
3.92676e-09
1.29445e-08
-1.70551e-08
3.58569e-09
1.22426e-08
-1.40535e-08
3.36007e-09
1.10641e-08
-1.09029e-08
3.23062e-09
9.27113e-09
-7.61413e-09
3.11106e-09
6.987e-09
-4.45583e-09
2.93977e-09
4.56519e-09
-1.95436e-09
2.79215e-09
2.37583e-09
-6.10221e-10
2.80095e-09
4.59672e-10
-4.16084e-10
2.97449e-09
-1.43655e-09
-8.08435e-10
3.30241e-09
-3.79996e-09
-9.02174e-10
3.56343e-09
-6.57918e-09
-4.92589e-10
3.46217e-09
-9.31657e-09
2.11982e-10
3.03113e-09
-1.13961e-08
2.25967e-10
2.7198e-09
-1.25489e-08
-1.10497e-09
2.72894e-09
-1.27292e-08
-3.96358e-09
3.08394e-09
-1.2411e-08
-7.97387e-09
3.6618e-09
-1.22895e-08
-1.21286e-08
4.14107e-09
-1.24671e-08
-1.5618e-08
4.05929e-09
-1.22756e-08
-1.83197e-08
3.59662e-09
-1.11817e-08
-2.05669e-08
3.19158e-09
-9.14033e-09
-2.24982e-08
2.98259e-09
-6.15137e-09
-2.44976e-08
2.9907e-09
-2.35756e-09
-2.62376e-08
3.31903e-09
-2.7085e-08
4.47408e-09
4.94844e-09
-3.16616e-08
4.94844e-09
8.69571e-09
-3.38873e-08
5.24859e-09
1.16027e-08
-3.27199e-08
5.24332e-09
1.33658e-08
-3.0691e-08
4.9801e-09
1.41893e-08
-2.78248e-08
4.61758e-09
1.44617e-08
-2.45026e-08
4.25034e-09
1.43338e-08
-2.10427e-08
3.97882e-09
1.37423e-08
-1.7418e-08
3.82722e-09
1.2514e-08
-1.35059e-08
3.70415e-09
1.06809e-08
-9.41848e-09
3.52102e-09
8.52889e-09
-5.69254e-09
3.30754e-09
6.37682e-09
-3.0882e-09
3.2615e-09
4.33599e-09
-1.95397e-09
3.41445e-09
2.10874e-09
-1.82358e-09
3.68465e-09
-7.17048e-10
-1.87005e-09
3.90965e-09
-4.12166e-09
-1.37878e-09
3.85015e-09
-7.56818e-09
-6.20623e-10
3.51253e-09
-1.03468e-08
-3.37018e-10
3.29469e-09
-1.20927e-08
-1.40693e-09
3.42521e-09
-1.28766e-08
-4.1252e-09
3.91342e-09
-1.32947e-08
-8.06969e-09
4.60429e-09
-1.39454e-08
-1.24862e-08
5.11155e-09
-1.49472e-08
-1.64315e-08
5.12112e-09
-1.56583e-08
-1.97688e-08
4.65083e-09
-1.51937e-08
-2.32589e-08
4.31093e-09
-1.34249e-08
-2.68286e-08
4.37641e-09
-1.07465e-08
-2.9629e-08
4.34606e-09
-7.08308e-09
-3.26078e-08
4.34796e-09
-2.29769e-09
-3.60482e-08
4.93266e-09
-3.53981e-08
5.73308e-09
5.78465e-09
-4.33324e-08
5.78465e-09
9.39889e-09
-4.34615e-08
5.76067e-09
1.23834e-08
-4.13549e-08
5.46065e-09
1.45021e-08
-3.80753e-08
5.08244e-09
1.58875e-08
-3.40726e-08
4.69769e-09
1.66961e-08
-2.98648e-08
4.40993e-09
1.68808e-08
-2.56159e-08
4.25958e-09
1.62818e-08
-2.10879e-08
4.15035e-09
1.48897e-08
-1.61797e-08
3.96904e-09
1.2982e-08
-1.13e-08
3.73945e-09
1.09072e-08
-7.28343e-09
3.6858e-09
8.84936e-09
-4.76519e-09
3.82128e-09
6.53435e-09
-3.6258e-09
4.10122e-09
3.49969e-09
-3.10807e-09
4.4073e-09
-3.74469e-10
-2.44825e-09
4.48116e-09
-4.50359e-09
-1.57109e-09
4.30556e-09
-8.13278e-09
-1.16246e-09
4.1626e-09
-1.07317e-08
-2.01099e-09
4.31315e-09
-1.24022e-08
-4.43885e-09
4.77419e-09
-1.3695e-08
-8.20389e-09
5.39784e-09
-1.52605e-08
-1.23356e-08
5.73416e-09
-1.70991e-08
-1.6448e-08
5.5705e-09
-1.85216e-08
-2.0477e-08
5.2034e-09
-1.88285e-08
-2.45662e-08
4.92235e-09
-1.77151e-08
-2.93508e-08
4.83651e-09
-1.53586e-08
-3.44044e-08
5.05968e-09
-1.20591e-08
-3.84103e-08
5.34711e-09
-7.95409e-09
-4.23818e-08
5.5098e-09
-3.43038e-09
-4.64208e-08
5.52716e-09
-4.34559e-08
4.31522e-09
6.0508e-09
-5.5544e-08
6.0508e-09
1.00398e-08
-5.33927e-08
5.72446e-09
1.36191e-08
-5.04246e-08
5.29984e-09
1.65882e-08
-4.61143e-08
4.91323e-09
1.89099e-08
-4.12096e-08
4.70146e-09
2.04304e-08
-3.61453e-08
4.68102e-09
2.0875e-08
-3.08586e-08
4.74036e-09
2.01697e-08
-2.51477e-08
4.72494e-09
1.85958e-08
-1.92329e-08
4.61706e-09
1.66134e-08
-1.38485e-08
4.56959e-09
1.4519e-08
-9.78208e-09
4.67911e-09
1.21628e-08
-7.2986e-09
4.99322e-09
9.0017e-09
-5.75885e-09
5.36845e-09
4.81605e-09