/*--------------------------------*- C++ -*----------------------------------*\
| =========                 |                                                 |
| \\      /  F ield         | OpenFOAM: The Open Source CFD Toolbox           |
|  \\    /   O peration     | Version:  2312                                  |
|   \\  /    A nd           | Website:  www.openfoam.com                      |
|    \\/     M anipulation  |                                                 |
\*---------------------------------------------------------------------------*/
FoamFile
{
    version     2.0;
    format      ascii;
    arch        "LSB;label=32;scalar=64";
    class       volScalarField;
    location    "0.822131";
    object      epsilon;
}
// * * * * * * * * * * * * * * * * * * * * * * * * * * * * * * * * * * * * * //

dimensions      [0 2 -3 0 0 0 0];

internalField   nonuniform List<scalar> 
90000
(
1.08787e-05
1.08798e-05
1.08803e-05
1.08805e-05
1.08807e-05
1.08807e-05
1.08806e-05
1.08805e-05
1.08803e-05
1.08802e-05
1.08801e-05
1.08801e-05
1.08802e-05
1.08802e-05
1.08803e-05
1.08804e-05
1.08807e-05
1.0881e-05
1.08811e-05
1.0881e-05
1.08807e-05
1.08803e-05
1.08802e-05
1.08808e-05
1.08815e-05
1.08819e-05
1.08819e-05
1.08816e-05
1.08817e-05
1.08824e-05
1.08796e-05
1.09123e-05
1.09141e-05
1.09141e-05
1.09141e-05
1.0914e-05
1.0914e-05
1.09141e-05
1.09141e-05
1.09142e-05
1.09142e-05
1.09143e-05
1.09143e-05
1.09144e-05
1.09145e-05
1.09145e-05
1.09145e-05
1.09145e-05
1.09144e-05
1.09143e-05
1.09143e-05
1.09144e-05
1.09145e-05
1.09145e-05
1.09142e-05
1.09138e-05
1.0914e-05
1.09146e-05
1.09124e-05
1.08854e-05
1.08803e-05
1.09147e-05
1.09166e-05
1.09165e-05
1.09164e-05
1.09163e-05
1.09162e-05
1.09162e-05
1.09163e-05
1.09164e-05
1.09163e-05
1.09163e-05
1.09164e-05
1.09165e-05
1.09165e-05
1.09164e-05
1.09162e-05
1.09162e-05
1.09164e-05
1.09167e-05
1.09169e-05
1.0917e-05
1.09171e-05
1.09172e-05
1.09173e-05
1.09176e-05
1.09179e-05
1.09184e-05
1.09168e-05
1.08845e-05
1.08807e-05
1.0915e-05
1.0917e-05
1.09171e-05
1.09171e-05
1.0917e-05
1.09168e-05
1.09167e-05
1.09166e-05
1.09166e-05
1.09165e-05
1.09164e-05
1.09163e-05
1.09163e-05
1.09163e-05
1.09162e-05
1.09162e-05
1.09165e-05
1.09168e-05
1.0917e-05
1.09171e-05
1.09172e-05
1.09174e-05
1.09179e-05
1.09183e-05
1.09184e-05
1.09182e-05
1.09178e-05
1.09165e-05
1.08816e-05
1.0881e-05
1.09151e-05
1.09174e-05
1.09176e-05
1.09177e-05
1.09176e-05
1.09174e-05
1.09171e-05
1.09169e-05
1.09167e-05
1.09165e-05
1.09163e-05
1.09162e-05
1.0916e-05
1.0916e-05
1.09161e-05
1.09164e-05
1.09167e-05
1.09169e-05
1.09169e-05
1.09169e-05
1.09171e-05
1.09175e-05
1.0918e-05
1.09183e-05
1.09184e-05
1.0918e-05
1.09168e-05
1.09162e-05
1.0881e-05
1.08811e-05
1.09156e-05
1.09178e-05
1.09179e-05
1.09179e-05
1.09179e-05
1.09177e-05
1.09175e-05
1.09172e-05
1.09168e-05
1.09165e-05
1.09163e-05
1.09162e-05
1.09162e-05
1.09162e-05
1.09163e-05
1.09165e-05
1.09166e-05
1.09167e-05
1.09167e-05
1.09169e-05
1.09172e-05
1.09174e-05
1.09176e-05
1.09175e-05
1.09176e-05
1.09181e-05
1.0918e-05
1.09172e-05
1.08818e-05
1.08812e-05
1.09161e-05
1.0918e-05
1.0918e-05
1.0918e-05
1.0918e-05
1.09179e-05
1.09178e-05
1.09175e-05
1.09171e-05
1.09166e-05
1.09163e-05
1.09163e-05
1.09165e-05
1.09165e-05
1.09165e-05
1.09164e-05
1.09164e-05
1.09165e-05
1.09168e-05
1.09171e-05
1.09172e-05
1.09172e-05
1.09171e-05
1.09173e-05
1.0918e-05
1.0919e-05
1.09194e-05
1.09179e-05
1.08824e-05
1.08815e-05
1.09165e-05
1.09181e-05
1.0918e-05
1.0918e-05
1.0918e-05
1.09181e-05
1.09181e-05
1.09179e-05
1.09175e-05
1.0917e-05
1.09167e-05
1.09166e-05
1.09166e-05
1.09167e-05
1.09166e-05
1.09165e-05
1.09164e-05
1.09166e-05
1.09169e-05
1.09172e-05
1.09172e-05
1.09171e-05
1.09173e-05
1.0918e-05
1.09188e-05
1.09195e-05
1.09199e-05
1.09179e-05
1.08827e-05
1.08816e-05
1.09167e-05
1.09183e-05
1.09181e-05
1.0918e-05
1.0918e-05
1.09182e-05
1.09182e-05
1.09182e-05
1.0918e-05
1.09176e-05
1.09172e-05
1.09169e-05
1.09167e-05
1.09167e-05
1.09169e-05
1.0917e-05
1.09172e-05
1.09173e-05
1.09175e-05
1.09175e-05
1.09174e-05
1.09174e-05
1.09178e-05
1.09185e-05
1.09192e-05
1.09197e-05
1.09198e-05
1.09177e-05
1.08829e-05
1.08819e-05
1.09168e-05
1.09184e-05
1.09182e-05
1.0918e-05
1.0918e-05
1.09181e-05
1.09182e-05
1.09183e-05
1.09183e-05
1.09182e-05
1.09178e-05
1.09173e-05
1.09169e-05
1.09167e-05
1.09172e-05
1.09177e-05
1.09181e-05
1.09183e-05
1.09183e-05
1.09181e-05
1.09179e-05
1.09179e-05
1.09181e-05
1.09185e-05
1.09191e-05
1.09195e-05
1.09196e-05
1.09175e-05
1.0883e-05
1.08825e-05
1.09169e-05
1.09185e-05
1.09184e-05
1.09182e-05
1.09179e-05
1.09178e-05
1.09179e-05
1.09181e-05
1.09183e-05
1.09184e-05
1.09182e-05
1.09178e-05
1.09172e-05
1.09167e-05
1.09172e-05
1.09179e-05
1.09185e-05
1.09188e-05
1.09189e-05
1.09187e-05
1.09184e-05
1.09182e-05
1.09182e-05
1.09185e-05
1.09188e-05
1.09192e-05
1.09193e-05
1.09173e-05
1.0883e-05
1.0883e-05
1.09172e-05
1.0919e-05
1.0919e-05
1.09188e-05
1.09186e-05
1.09184e-05
1.09181e-05
1.09181e-05
1.09182e-05
1.09183e-05
1.09183e-05
1.0918e-05
1.09176e-05
1.09169e-05
1.0917e-05
1.09177e-05
1.09184e-05
1.09188e-05
1.09189e-05
1.09187e-05
1.09185e-05
1.09183e-05
1.09183e-05
1.09185e-05
1.09187e-05
1.09191e-05
1.09192e-05
1.09173e-05
1.08831e-05
1.08837e-05
1.09179e-05
1.09198e-05
1.09199e-05
1.092e-05
1.092e-05
1.09198e-05
1.09195e-05
1.09191e-05
1.09185e-05
1.09182e-05
1.09183e-05
1.09183e-05
1.09181e-05
1.09177e-05
1.09176e-05
1.09177e-05
1.09179e-05
1.09181e-05
1.09182e-05
1.09183e-05
1.09184e-05
1.09185e-05
1.09187e-05
1.09188e-05
1.0919e-05
1.09192e-05
1.09193e-05
1.09174e-05
1.08835e-05
1.08849e-05
1.09186e-05
1.09206e-05
1.09208e-05
1.09211e-05
1.09212e-05
1.09212e-05
1.09207e-05
1.092e-05
1.0919e-05
1.09182e-05
1.09182e-05
1.09184e-05
1.09185e-05
1.09185e-05
1.09183e-05
1.09181e-05
1.09178e-05
1.09175e-05
1.09177e-05
1.09182e-05
1.09187e-05
1.09191e-05
1.09193e-05
1.09194e-05
1.09196e-05
1.09197e-05
1.09198e-05
1.09178e-05
1.08842e-05
1.08865e-05
1.09191e-05
1.09215e-05
1.09218e-05
1.0922e-05
1.09221e-05
1.09218e-05
1.09212e-05
1.09203e-05
1.09193e-05
1.09184e-05
1.09181e-05
1.09183e-05
1.09187e-05
1.09189e-05
1.09189e-05
1.09187e-05
1.09183e-05
1.0918e-05
1.09182e-05
1.09189e-05
1.09195e-05
1.092e-05
1.09203e-05
1.09204e-05
1.09205e-05
1.09206e-05
1.09207e-05
1.09188e-05
1.08852e-05
1.08877e-05
1.09202e-05
1.09226e-05
1.09228e-05
1.09227e-05
1.09223e-05
1.09217e-05
1.09211e-05
1.09205e-05
1.09199e-05
1.0919e-05
1.09183e-05
1.09183e-05
1.09187e-05
1.0919e-05
1.09191e-05
1.09191e-05
1.0919e-05
1.09189e-05
1.09191e-05
1.09197e-05
1.09204e-05
1.09209e-05
1.09213e-05
1.09216e-05
1.09217e-05
1.09219e-05
1.09222e-05
1.09206e-05
1.08866e-05
1.08887e-05
1.09224e-05
1.09239e-05
1.09236e-05
1.0923e-05
1.09224e-05
1.0922e-05
1.09217e-05
1.09213e-05
1.09207e-05
1.09197e-05
1.09187e-05
1.09185e-05
1.09187e-05
1.09188e-05
1.0919e-05
1.09192e-05
1.09194e-05
1.09195e-05
1.09197e-05
1.09204e-05
1.09212e-05
1.09218e-05
1.09224e-05
1.09228e-05
1.09232e-05
1.09237e-05
1.09241e-05
1.09222e-05
1.08879e-05
1.08897e-05
1.09242e-05
1.09253e-05
1.0925e-05
1.09245e-05
1.09241e-05
1.09237e-05
1.09232e-05
1.09225e-05
1.09216e-05
1.09205e-05
1.09194e-05
1.09189e-05
1.09186e-05
1.09185e-05
1.09186e-05
1.09191e-05
1.09195e-05
1.09199e-05
1.09204e-05
1.09213e-05
1.09221e-05
1.09229e-05
1.09237e-05
1.09243e-05
1.0925e-05
1.09255e-05
1.09257e-05
1.09235e-05
1.08895e-05
1.08913e-05
1.09256e-05
1.09272e-05
1.0927e-05
1.09267e-05
1.09264e-05
1.09258e-05
1.0925e-05
1.0924e-05
1.09227e-05
1.09214e-05
1.09203e-05
1.09193e-05
1.09186e-05
1.09181e-05
1.09182e-05
1.09188e-05
1.09196e-05
1.09205e-05
1.09214e-05
1.09224e-05
1.09234e-05
1.09244e-05
1.09253e-05
1.09262e-05
1.0927e-05
1.09273e-05
1.09273e-05
1.09252e-05
1.08915e-05
1.08936e-05
1.09274e-05
1.09295e-05
1.09294e-05
1.09292e-05
1.09288e-05
1.09281e-05
1.09271e-05
1.09258e-05
1.09243e-05
1.09229e-05
1.09215e-05
1.09201e-05
1.09188e-05
1.09179e-05
1.0918e-05
1.0919e-05
1.09202e-05
1.09215e-05
1.09227e-05
1.0924e-05
1.09252e-05
1.09264e-05
1.09276e-05
1.09285e-05
1.09291e-05
1.09294e-05
1.09295e-05
1.09275e-05
1.08939e-05
1.08966e-05
1.09301e-05
1.09322e-05
1.09322e-05
1.0932e-05
1.09315e-05
1.09306e-05
1.09294e-05
1.0928e-05
1.09264e-05
1.09247e-05
1.09229e-05
1.09211e-05
1.09194e-05
1.09183e-05
1.09185e-05
1.09198e-05
1.09214e-05
1.0923e-05
1.09246e-05
1.09261e-05
1.09275e-05
1.09289e-05
1.09301e-05
1.09311e-05
1.09317e-05
1.09321e-05
1.09323e-05
1.09304e-05
1.08969e-05
1.09002e-05
1.09336e-05
1.09358e-05
1.09357e-05
1.09353e-05
1.09346e-05
1.09335e-05
1.09321e-05
1.09305e-05
1.09286e-05
1.09266e-05
1.09244e-05
1.09223e-05
1.09203e-05
1.09192e-05
1.09195e-05
1.0921e-05
1.09229e-05
1.09248e-05
1.09268e-05
1.09286e-05
1.09303e-05
1.09318e-05
1.09331e-05
1.09341e-05
1.0935e-05
1.09356e-05
1.0936e-05
1.09342e-05
1.09009e-05
1.09048e-05
1.09382e-05
1.09403e-05
1.09401e-05
1.09395e-05
1.09385e-05
1.09371e-05
1.09353e-05
1.09333e-05
1.09312e-05
1.09288e-05
1.09262e-05
1.09237e-05
1.09215e-05
1.09202e-05
1.09205e-05
1.09223e-05
1.09246e-05
1.0927e-05
1.09293e-05
1.09315e-05
1.09334e-05
1.09352e-05
1.09367e-05
1.09381e-05
1.09393e-05
1.09401e-05
1.09407e-05
1.0939e-05
1.0906e-05
1.09107e-05
1.09442e-05
1.09461e-05
1.09457e-05
1.09447e-05
1.09432e-05
1.09414e-05
1.09393e-05
1.09369e-05
1.09343e-05
1.09314e-05
1.09285e-05
1.09256e-05
1.09231e-05
1.09214e-05
1.09217e-05
1.09238e-05
1.09266e-05
1.09294e-05
1.09322e-05
1.09348e-05
1.09371e-05
1.09394e-05
1.09414e-05
1.09431e-05
1.09446e-05
1.09457e-05
1.09466e-05
1.09452e-05
1.09123e-05
1.09182e-05
1.09516e-05
1.09533e-05
1.09524e-05
1.0951e-05
1.09491e-05
1.09469e-05
1.09443e-05
1.09414e-05
1.09382e-05
1.09348e-05
1.09314e-05
1.09281e-05
1.09252e-05
1.09231e-05
1.09232e-05
1.09256e-05
1.09288e-05
1.09322e-05
1.09355e-05
1.09387e-05
1.09417e-05
1.09445e-05
1.0947e-05
1.09491e-05
1.0951e-05
1.09525e-05
1.09537e-05
1.09526e-05
1.09196e-05
1.09275e-05
1.09607e-05
1.09619e-05
1.09606e-05
1.09588e-05
1.09565e-05
1.09538e-05
1.09507e-05
1.09472e-05
1.09433e-05
1.09393e-05
1.09353e-05
1.09314e-05
1.09278e-05
1.09252e-05
1.09251e-05
1.09278e-05
1.09315e-05
1.09356e-05
1.09397e-05
1.09437e-05
1.09474e-05
1.09508e-05
1.09537e-05
1.09564e-05
1.09587e-05
1.09606e-05
1.09621e-05
1.09612e-05
1.09279e-05
1.09386e-05
1.09713e-05
1.09723e-05
1.09707e-05
1.09684e-05
1.09657e-05
1.09625e-05
1.09587e-05
1.09545e-05
1.09499e-05
1.09451e-05
1.09404e-05
1.09357e-05
1.09312e-05
1.09279e-05
1.09277e-05
1.09307e-05
1.09352e-05
1.09402e-05
1.09452e-05
1.09501e-05
1.09545e-05
1.09586e-05
1.09622e-05
1.09654e-05
1.09682e-05
1.09705e-05
1.09722e-05
1.0971e-05
1.09379e-05
1.09517e-05
1.09838e-05
1.09846e-05
1.09826e-05
1.098e-05
1.09768e-05
1.0973e-05
1.09685e-05
1.09635e-05
1.09581e-05
1.09525e-05
1.09468e-05
1.09411e-05
1.09356e-05
1.09316e-05
1.09313e-05
1.0935e-05
1.09404e-05
1.09464e-05
1.09525e-05
1.09582e-05
1.09636e-05
1.09684e-05
1.09728e-05
1.09767e-05
1.098e-05
1.09826e-05
1.09841e-05
1.09828e-05
1.09504e-05
1.09672e-05
1.09986e-05
1.09991e-05
1.09969e-05
1.09938e-05
1.099e-05
1.09855e-05
1.09802e-05
1.09743e-05
1.09681e-05
1.09616e-05
1.09548e-05
1.09478e-05
1.09413e-05
1.09365e-05
1.09364e-05
1.09409e-05
1.09474e-05
1.09546e-05
1.09617e-05
1.09685e-05
1.09749e-05
1.09807e-05
1.0986e-05
1.09905e-05
1.09943e-05
1.09971e-05
1.09986e-05
1.09977e-05
1.0966e-05
1.09854e-05
1.10162e-05
1.10165e-05
1.10139e-05
1.10103e-05
1.10058e-05
1.10005e-05
1.09943e-05
1.09876e-05
1.09804e-05
1.09726e-05
1.09644e-05
1.09561e-05
1.09484e-05
1.0943e-05
1.0943e-05
1.09484e-05
1.09561e-05
1.09646e-05
1.09731e-05
1.09812e-05
1.09886e-05
1.09956e-05
1.10018e-05
1.10071e-05
1.10113e-05
1.10144e-05
1.10165e-05
1.10162e-05
1.0985e-05
1.10071e-05
1.10375e-05
1.10375e-05
1.10345e-05
1.10303e-05
1.10251e-05
1.10189e-05
1.10118e-05
1.1004e-05
1.09954e-05
1.09862e-05
1.09763e-05
1.09663e-05
1.09573e-05
1.09512e-05
1.09514e-05
1.09576e-05
1.09667e-05
1.09767e-05
1.09867e-05
1.09963e-05
1.10051e-05
1.10132e-05
1.10205e-05
1.10265e-05
1.10313e-05
1.10354e-05
1.10386e-05
1.10387e-05
1.10079e-05
1.10334e-05
1.10635e-05
1.10633e-05
1.10598e-05
1.10551e-05
1.1049e-05
1.10418e-05
1.10335e-05
1.10243e-05
1.1014e-05
1.10029e-05
1.0991e-05
1.09792e-05
1.09687e-05
1.09618e-05
1.09619e-05
1.0969e-05
1.09796e-05
1.09913e-05
1.10031e-05
1.10144e-05
1.10248e-05
1.10341e-05
1.10426e-05
1.10497e-05
1.10555e-05
1.10609e-05
1.10651e-05
1.10657e-05
1.10353e-05
1.10653e-05
1.10954e-05
1.10949e-05
1.10909e-05
1.10853e-05
1.10782e-05
1.10698e-05
1.106e-05
1.1049e-05
1.10368e-05
1.10235e-05
1.10095e-05
1.09957e-05
1.09836e-05
1.09755e-05
1.09755e-05
1.09836e-05
1.09956e-05
1.10092e-05
1.10229e-05
1.10361e-05
1.10484e-05
1.10593e-05
1.10692e-05
1.10776e-05
1.1085e-05
1.10917e-05
1.10966e-05
1.10976e-05
1.10677e-05
1.11039e-05
1.11339e-05
1.11328e-05
1.11281e-05
1.11215e-05
1.11131e-05
1.11031e-05
1.10916e-05
1.10787e-05
1.10643e-05
1.10486e-05
1.10324e-05
1.10166e-05
1.10027e-05
1.09935e-05
1.09935e-05
1.10026e-05
1.10162e-05
1.10317e-05
1.10474e-05
1.10627e-05
1.10772e-05
1.109e-05
1.11016e-05
1.11119e-05
1.11208e-05
1.11284e-05
1.11338e-05
1.11351e-05
1.11057e-05
1.115e-05
1.11792e-05
1.11775e-05
1.11719e-05
1.11641e-05
1.11544e-05
1.11428e-05
1.11294e-05
1.11143e-05
1.10975e-05
1.10795e-05
1.10609e-05
1.10429e-05
1.10271e-05
1.10168e-05
1.1017e-05
1.10273e-05
1.10428e-05
1.10605e-05
1.10786e-05
1.10963e-05
1.11131e-05
1.1128e-05
1.11416e-05
1.11539e-05
1.1164e-05
1.11719e-05
1.11775e-05
1.11791e-05
1.11506e-05
1.12044e-05
1.12325e-05
1.123e-05
1.12236e-05
1.12148e-05
1.12038e-05
1.11907e-05
1.11754e-05
1.11581e-05
1.1139e-05
1.11184e-05
1.10972e-05
1.10768e-05
1.1059e-05
1.10475e-05
1.10478e-05
1.10597e-05
1.10773e-05
1.10977e-05
1.11186e-05
1.11388e-05
1.1158e-05
1.1175e-05
1.11907e-05
1.12045e-05
1.12153e-05
1.12235e-05
1.12294e-05
1.12314e-05
1.12042e-05
1.12686e-05
1.12956e-05
1.12927e-05
1.12856e-05
1.12761e-05
1.12641e-05
1.12495e-05
1.12325e-05
1.12129e-05
1.11913e-05
1.11681e-05
1.11443e-05
1.11213e-05
1.11013e-05
1.10883e-05
1.10885e-05
1.11018e-05
1.11217e-05
1.11451e-05
1.11689e-05
1.11918e-05
1.12134e-05
1.12327e-05
1.12501e-05
1.12648e-05
1.12762e-05
1.12852e-05
1.12919e-05
1.12948e-05
1.12689e-05
1.13452e-05
1.13711e-05
1.13679e-05
1.13603e-05
1.135e-05
1.13369e-05
1.1321e-05
1.1302e-05
1.12804e-05
1.12565e-05
1.12308e-05
1.12043e-05
1.11787e-05
1.11565e-05
1.11418e-05
1.11417e-05
1.11563e-05
1.11785e-05
1.12047e-05
1.12314e-05
1.1257e-05
1.12809e-05
1.13024e-05
1.13211e-05
1.13367e-05
1.13493e-05
1.13596e-05
1.13675e-05
1.13712e-05
1.13464e-05
1.14357e-05
1.14603e-05
1.14566e-05
1.14486e-05
1.14375e-05
1.14233e-05
1.1406e-05
1.13855e-05
1.13621e-05
1.13362e-05
1.13083e-05
1.12791e-05
1.12509e-05
1.12266e-05
1.12105e-05
1.12102e-05
1.12263e-05
1.12507e-05
1.12795e-05
1.13084e-05
1.13364e-05
1.13626e-05
1.13859e-05
1.14058e-05
1.14227e-05
1.14367e-05
1.14481e-05
1.14567e-05
1.14605e-05
1.14365e-05
1.15417e-05
1.15645e-05
1.15604e-05
1.1552e-05
1.15406e-05
1.15258e-05
1.15079e-05
1.14868e-05
1.14622e-05
1.14346e-05
1.14046e-05
1.1373e-05
1.13424e-05
1.13159e-05
1.12986e-05
1.12983e-05
1.13159e-05
1.13423e-05
1.13733e-05
1.14043e-05
1.14346e-05
1.14624e-05
1.1487e-05
1.1508e-05
1.15259e-05
1.15406e-05
1.15523e-05
1.15605e-05
1.15639e-05
1.15408e-05
1.16648e-05
1.16863e-05
1.16825e-05
1.16746e-05
1.16637e-05
1.16495e-05
1.16319e-05
1.1611e-05
1.1586e-05
1.15572e-05
1.15259e-05
1.14928e-05
1.14604e-05
1.14319e-05
1.14132e-05
1.14129e-05
1.14319e-05
1.14601e-05
1.1493e-05
1.15255e-05
1.15573e-05
1.15856e-05
1.16106e-05
1.16321e-05
1.165e-05
1.16642e-05
1.16749e-05
1.16821e-05
1.16855e-05
1.16638e-05
1.18087e-05
1.18303e-05
1.18269e-05
1.18202e-05
1.18106e-05
1.17978e-05
1.17811e-05
1.17611e-05
1.17373e-05
1.1709e-05
1.16779e-05
1.16446e-05
1.16117e-05
1.1582e-05
1.15625e-05
1.15626e-05
1.15825e-05
1.16116e-05
1.1645e-05
1.16779e-05
1.17094e-05
1.17371e-05
1.17611e-05
1.17816e-05
1.17977e-05
1.18102e-05
1.18196e-05
1.18263e-05
1.18302e-05
1.18093e-05
1.19782e-05
1.19993e-05
1.19967e-05
1.19914e-05
1.19836e-05
1.19736e-05
1.19597e-05
1.19426e-05
1.19221e-05
1.18969e-05
1.18683e-05
1.18366e-05
1.18048e-05
1.17758e-05
1.17563e-05
1.17565e-05
1.1776e-05
1.18048e-05
1.1837e-05
1.18688e-05
1.18975e-05
1.19223e-05
1.19434e-05
1.19604e-05
1.19733e-05
1.19833e-05
1.1991e-05
1.1997e-05
1.19997e-05
1.19782e-05
1.2178e-05
1.21974e-05
1.21963e-05
1.21937e-05
1.21897e-05
1.21849e-05
1.2177e-05
1.21657e-05
1.21512e-05
1.21326e-05
1.21106e-05
1.20846e-05
1.20573e-05
1.20325e-05
1.20159e-05
1.20166e-05
1.20329e-05
1.20577e-05
1.20846e-05
1.21111e-05
1.21332e-05
1.21511e-05
1.21662e-05
1.21767e-05
1.21842e-05
1.21903e-05
1.21943e-05
1.21975e-05
1.2197e-05
1.21761e-05
1.2415e-05
1.24338e-05
1.2436e-05
1.2438e-05
1.24391e-05
1.24416e-05
1.24434e-05
1.24436e-05
1.24432e-05
1.24419e-05
1.24427e-05
1.24453e-05
1.24516e-05
1.24647e-05
1.24822e-05
1.24831e-05
1.24653e-05
1.24523e-05
1.24452e-05
1.24436e-05
1.24431e-05
1.24435e-05
1.24442e-05
1.24428e-05
1.24409e-05
1.24398e-05
1.24379e-05
1.24361e-05
1.24334e-05
1.24142e-05
1.26986e-05
1.27246e-05
1.27315e-05
1.27424e-05
1.27538e-05
1.27726e-05
1.28007e-05
1.28371e-05
1.28983e-05
1.29962e-05
1.31674e-05
1.3431e-05
1.37834e-05
1.41985e-05
1.45888e-05
1.45913e-05
1.41997e-05
1.37832e-05
1.3432e-05
1.317e-05
1.29972e-05
1.28987e-05
1.28379e-05
1.28003e-05
1.27724e-05
1.27545e-05
1.27417e-05
1.27305e-05
1.27246e-05
1.2699e-05
1.30757e-05
1.31289e-05
1.31577e-05
1.32028e-05
1.32643e-05
1.33634e-05
1.35469e-05
1.38253e-05
1.43723e-05
1.53271e-05
1.70678e-05
1.98371e-05
2.34596e-05
2.76872e-05
3.16016e-05
3.1614e-05
2.76927e-05
2.34689e-05
1.98576e-05
1.70848e-05
1.53351e-05
1.43783e-05
1.38284e-05
1.35474e-05
1.33646e-05
1.32638e-05
1.32026e-05
1.31587e-05
1.31266e-05
1.30737e-05
1.37358e-05
1.3931e-05
1.41342e-05
1.44144e-05
1.48331e-05
1.55447e-05
1.7024e-05
1.92145e-05
2.38281e-05
3.21796e-05
4.72581e-05
7.16827e-05
0.000103342
0.00013882
0.000170195
0.000170254
0.000138882
0.000103486
7.18675e-05
4.73932e-05
3.22661e-05
2.38805e-05
1.92407e-05
1.70362e-05
1.5552e-05
1.48343e-05
1.44141e-05
1.41365e-05
1.39238e-05
1.37305e-05
1.56398e-05
1.67646e-05
1.83117e-05
2.0494e-05
2.37889e-05
2.98599e-05
4.31186e-05
6.10186e-05
9.83117e-05
0.000167891
0.000271438
0.000430151
0.00061808
0.000802123
0.000946442
0.000946722
0.00080265
0.000619095
0.000431406
0.000272468
0.000168566
9.87071e-05
6.12648e-05
4.32287e-05
2.99115e-05
2.38262e-05
2.04993e-05
1.83135e-05
1.67505e-05
1.56277e-05
2.34927e-05
3.09323e-05
4.29289e-05
6.20971e-05
9.23313e-05
0.000149237
0.000272174
0.000400561
0.000642809
0.00102586
0.00143818
0.00198711
0.00254616
0.00302966
0.0033675
0.00336836
0.00303192
0.00255001
0.001992
0.00144279
0.00102969
0.000645455
0.000402387
0.000273141
0.00014978
9.27064e-05
6.22212e-05
4.30106e-05
3.09192e-05
2.34578e-05
5.63134e-05
0.000103676
0.000187841
0.000333075
0.000575726
0.000940716
0.00142122
0.00194476
0.00265799
0.00344644
0.0041563
0.00496861
0.00569547
0.00627474
0.00666318
0.00666442
0.00627928
0.00570306
0.00497819
0.00416894
0.00345699
0.00266552
0.00195328
0.00142659
0.000943606
0.000577844
0.00033464
0.000188556
0.000103874
5.6321e-05
9.23027e-05
0.000130544
0.000220869
0.000351148
0.00048839
0.000833811
0.00177054
0.002464
0.00330018
0.00435334
0.00517042
0.00605345
0.00691514
0.00758391
0.00804062
0.00804045
0.00759059
0.00692663
0.00606552
0.00518886
0.00437057
0.00331298
0.00247548
0.00177836
0.000838457
0.000490531
0.000353009
0.000221332
0.000130669
9.24779e-05
0.000176993
0.000217765
0.000373543
0.000611563
0.000913544
0.00133635
0.00187032
0.00248372
0.00323478
0.00426692
0.00517598
0.00621241
0.00739619
0.00835585
0.00895692
0.00895556
0.00836675
0.00741355
0.00622637
0.0052003
0.00428331
0.00324279
0.00250123
0.00188044
0.00133421
0.000916905
0.000615219
0.000374587
0.000219581
0.000177336
0.000217417
0.000254919
0.000396757
0.00068792
0.0010973
0.00153575
0.00189825
0.00228159
0.00275876
0.00335028
0.00421688
0.00513783
0.00593112
0.00647461
0.00694266
0.00694579
0.00648599
0.00595016
0.00516547
0.00423785
0.00336503
0.00277536
0.00229524
0.00190462
0.00153571
0.00110762
0.000697913
0.000399067
0.000255507
0.000217574
0.000237028
0.000265189
0.000356954
0.000547648
0.000837919
0.00121199
0.00159371
0.0019371
0.00229862
0.00266638
0.00309527
0.00359891
0.00409847
0.00449524
0.00477336
0.00478183
0.00450329
0.00411676
0.00361413
0.00311078
0.00267795
0.00230424
0.00195304
0.00160016
0.00122155
0.000851753
0.000554715
0.000358822
0.000267565
0.000240589
0.000210789
0.000222883
0.000252403
0.00031351
0.000429178
0.000615807
0.000888129
0.00127756
0.00171923
0.00218989
0.00267361
0.00309335
0.00343966
0.00363493
0.00373313
0.00374173
0.00364158
0.00344854
0.0031063
0.00268073
0.00219666
0.00172531
0.00128558
0.000893898
0.000621027
0.000434685
0.000317126
0.000251488
0.000222023
0.000211628
0.000174353
0.000180666
0.000185361
0.000199039
0.000228278
0.00028083
0.000371934
0.000538997
0.000811067
0.00124707
0.0018829
0.00261399
0.00316833
0.00348179
0.00363253
0.00363595
0.00348695
0.0031702
0.00262095
0.00189403
0.00125397
0.000816465
0.000546181
0.000376218
0.000282443
0.000231691
0.000201101
0.000185832
0.000180148
0.00017508
0.000143619
0.000143269
0.00014262
0.000146569
0.000154326
0.000168226
0.000192753
0.000237795
0.000320411
0.000487507
0.000833845
0.00146503
0.00225349
0.00286259
0.00324166
0.0032433
0.00286723
0.00225647
0.00146941
0.000839797
0.00049124
0.000322651
0.000238754
0.000193609
0.000168782
0.000154584
0.000147041
0.000143766
0.000143911
0.000143695
0.000120344
0.000116572
0.000116034
0.000116253
0.000118022
0.000121647
0.000128778
0.000140471
0.000159846
0.000198982
0.000293689
0.000513935
0.000944043
0.00154958
0.00208451
0.00208548
0.00155175
0.000946892
0.000515538
0.000294628
0.000199483
0.000160412
0.000140734
0.000129241
0.000122364
0.000118317
0.000116272
0.000115826
0.000117189
0.000120186
0.000101878
9.81475e-05
9.76632e-05
9.75962e-05
9.82528e-05
0.000100003
0.00010266
0.000106192
0.000111323
0.000120141
0.000138439
0.000182211
0.000276007
0.000452164
0.00068915
0.000688951
0.000451305
0.000276054
0.000182595
0.000139004
0.000120619
0.000111589
0.00010603
0.000102222
9.98181e-05
9.84451e-05
9.77719e-05
9.7553e-05
9.85016e-05
0.000102436
8.82547e-05
8.44141e-05
8.3434e-05
8.36233e-05
8.41862e-05
8.52896e-05
8.66882e-05
8.83382e-05
9.04215e-05
9.29295e-05
9.66044e-05
0.000103649
0.000117699
0.000143844
0.000180035
0.000180222
0.000144265
0.000118292
0.000104118
9.69405e-05
9.32078e-05
9.06527e-05
8.84943e-05
8.67346e-05
8.53754e-05
8.44843e-05
8.38668e-05
8.35397e-05
8.41217e-05
8.82292e-05
7.60895e-05
7.25641e-05
7.19242e-05
7.23695e-05
7.31959e-05
7.40559e-05
7.4976e-05
7.59754e-05
7.69963e-05
7.78933e-05
7.86309e-05
7.94833e-05
8.10848e-05
8.41463e-05
8.8497e-05
8.85791e-05
8.43781e-05
8.13501e-05
7.96013e-05
7.854e-05
7.77306e-05
7.68639e-05
7.59222e-05
7.49279e-05
7.3899e-05
7.29714e-05
7.23505e-05
7.21003e-05
7.27077e-05
7.65713e-05
6.66072e-05
6.27667e-05
6.26295e-05
6.31342e-05
6.36163e-05
6.40409e-05
6.44777e-05
6.4959e-05
6.53079e-05
6.54774e-05
6.54695e-05
6.53286e-05
6.51292e-05
6.50161e-05
6.51042e-05
6.51018e-05
6.50152e-05
6.51397e-05
6.53988e-05
6.56075e-05
6.56804e-05
6.55197e-05
6.50735e-05
6.43881e-05
6.37358e-05
6.31503e-05
6.28194e-05
6.27241e-05
6.33325e-05
6.68295e-05
5.80699e-05
5.48936e-05
5.47414e-05
5.50057e-05
5.5123e-05
5.52884e-05
5.54479e-05
5.55016e-05
5.54394e-05
5.52414e-05
5.48501e-05
5.43161e-05
5.37065e-05
5.31493e-05
5.27825e-05
5.27952e-05
5.3197e-05
5.37807e-05
5.44444e-05
5.50655e-05
5.55134e-05
5.56832e-05
5.56231e-05
5.54539e-05
5.52479e-05
5.50493e-05
5.48889e-05
5.48203e-05
5.52977e-05
5.84712e-05
5.0785e-05
4.82438e-05
4.79112e-05
4.79024e-05
4.80227e-05
4.81209e-05
4.80845e-05
4.78979e-05
4.75338e-05
4.69741e-05
4.62836e-05
4.55179e-05
4.47329e-05
4.40389e-05
4.35702e-05
4.35776e-05
4.40703e-05
4.47917e-05
4.55948e-05
4.6368e-05
4.70297e-05
4.7558e-05
4.78917e-05
4.80709e-05
4.814e-05
4.81092e-05
4.80298e-05
4.7954e-05
4.83104e-05
5.10492e-05
4.47401e-05
4.22732e-05
4.1858e-05
4.18788e-05
4.1985e-05
4.19405e-05
4.17267e-05
4.13425e-05
4.07655e-05
4.00285e-05
3.92038e-05
3.83594e-05
3.75244e-05
3.67814e-05
3.62795e-05
3.62633e-05
3.67555e-05
3.75275e-05
3.84171e-05
3.93116e-05
4.01423e-05
4.086e-05
4.14295e-05
4.17843e-05
4.19492e-05
4.1987e-05
4.19433e-05
4.19178e-05
4.22599e-05
4.46177e-05
3.92523e-05
3.71051e-05
3.67719e-05
3.68066e-05
3.67512e-05
3.65743e-05
3.62537e-05
3.57571e-05
3.50649e-05
3.42272e-05
3.33707e-05
3.25331e-05
3.17169e-05
3.0988e-05
3.05164e-05
3.05221e-05
3.10001e-05
3.17445e-05
3.26214e-05
3.3554e-05
3.44574e-05
3.52514e-05
3.58799e-05
3.63072e-05
3.65442e-05
3.66678e-05
3.67325e-05
3.67908e-05
3.71358e-05
3.91957e-05
3.46885e-05
3.27635e-05
3.25567e-05
3.25171e-05
3.23949e-05
3.21375e-05
3.17289e-05
3.11551e-05
3.04317e-05
2.96386e-05
2.88284e-05
2.79928e-05
2.71611e-05
2.6458e-05
2.60355e-05
2.60552e-05
2.649e-05
2.71713e-05
2.80038e-05
2.89153e-05
2.98107e-05
3.05994e-05
3.12308e-05
3.16972e-05
3.20295e-05
3.22575e-05
3.24117e-05
3.25267e-05
3.2843e-05
3.46576e-05
3.06466e-05
2.9177e-05
2.90042e-05
2.88969e-05
2.86882e-05
2.8366e-05
2.79444e-05
2.74114e-05
2.67778e-05
2.6065e-05
2.52689e-05
2.44148e-05
2.36057e-05
2.29669e-05
2.25914e-05
2.25968e-05
2.29784e-05
2.36062e-05
2.43913e-05
2.52488e-05
2.60823e-05
2.68202e-05
2.74301e-05
2.79208e-05
2.83123e-05
2.86124e-05
2.88147e-05
2.89503e-05
2.9229e-05
3.07836e-05
2.73818e-05
2.62351e-05
2.59797e-05
2.57821e-05
2.55034e-05
2.5182e-05
2.47891e-05
2.43155e-05
2.37504e-05
2.30785e-05
2.23098e-05
2.15139e-05
2.07879e-05
2.02038e-05
1.98411e-05
1.98219e-05
2.01695e-05
2.07676e-05
2.15083e-05
2.22999e-05
2.30598e-05
2.37414e-05
2.43312e-05
2.48316e-05
2.52465e-05
2.5568e-05
2.57914e-05
2.59439e-05
2.61973e-05
2.74776e-05
2.47153e-05
2.36905e-05
2.3398e-05
2.31661e-05
2.29053e-05
2.26053e-05
2.22342e-05
2.17937e-05
2.12595e-05
2.06236e-05
1.99271e-05
1.92267e-05
1.85787e-05
1.80383e-05
1.76949e-05
1.76778e-05
1.80082e-05
1.85708e-05
1.92537e-05
1.99671e-05
2.06487e-05
2.12756e-05
2.18365e-05
2.23215e-05
2.27202e-05
2.30272e-05
2.32459e-05
2.34003e-05
2.36227e-05
2.46636e-05
2.23377e-05
2.14944e-05
2.12296e-05
2.1047e-05
2.08434e-05
2.0559e-05
2.021e-05
1.97888e-05
1.92839e-05
1.87079e-05
1.80987e-05
1.74826e-05
1.68957e-05
1.64018e-05
1.60955e-05
1.60929e-05
1.63994e-05
1.69047e-05
1.75086e-05
1.81368e-05
1.8743e-05
1.93102e-05
1.98218e-05
2.02637e-05
2.06213e-05
2.08955e-05
2.10954e-05
2.12409e-05
2.14378e-05
2.22913e-05
2.03926e-05
1.96221e-05
1.9447e-05
1.93162e-05
1.91251e-05
1.88653e-05
1.85562e-05
1.81758e-05
1.77278e-05
1.72278e-05
1.66891e-05
1.61287e-05
1.55911e-05
1.51494e-05
1.48873e-05
1.48989e-05
1.51752e-05
1.56158e-05
1.61397e-05
1.66886e-05
1.72261e-05
1.77307e-05
1.81835e-05
1.85697e-05
1.88807e-05
1.91214e-05
1.93031e-05
1.94418e-05
1.96162e-05
2.03141e-05
1.86963e-05
1.80227e-05
1.79288e-05
1.78224e-05
1.76583e-05
1.74582e-05
1.72e-05
1.68711e-05
1.64846e-05
1.60465e-05
1.55611e-05
1.50565e-05
1.45839e-05
1.42073e-05
1.39887e-05
1.40049e-05
1.42427e-05
1.46162e-05
1.50648e-05
1.55416e-05
1.60155e-05
1.64604e-05
1.68567e-05
1.71901e-05
1.74597e-05
1.76721e-05
1.78369e-05
1.79642e-05
1.81114e-05
1.86701e-05
1.71952e-05
1.67607e-05
1.66668e-05
1.65767e-05
1.64607e-05
1.63032e-05
1.6075e-05
1.57888e-05
1.54552e-05
1.50706e-05
1.46453e-05
1.42128e-05
1.38127e-05
1.349e-05
1.32962e-05
1.33013e-05
1.34988e-05
1.38185e-05
1.42084e-05
1.4627e-05
1.50431e-05
1.54303e-05
1.5772e-05
1.60607e-05
1.62967e-05
1.64852e-05
1.66314e-05
1.67409e-05
1.68594e-05
1.73009e-05
1.60966e-05
1.5773e-05
1.56715e-05
1.55943e-05
1.54951e-05
1.53383e-05
1.5127e-05
1.48793e-05
1.45933e-05
1.42661e-05
1.39116e-05
1.3552e-05
1.32117e-05
1.29241e-05
1.27432e-05
1.27387e-05
1.29092e-05
1.31921e-05
1.35346e-05
1.38977e-05
1.4253e-05
1.45825e-05
1.48743e-05
1.51251e-05
1.53341e-05
1.55017e-05
1.56292e-05
1.57217e-05
1.58178e-05
1.6167e-05
1.52273e-05
1.49177e-05
1.48512e-05
1.47804e-05
1.4675e-05
1.4524e-05
1.43434e-05
1.41365e-05
1.38972e-05
1.36271e-05
1.3335e-05
1.30322e-05
1.27376e-05
1.24828e-05
1.23205e-05
1.23151e-05
1.24658e-05
1.27127e-05
1.30066e-05
1.33144e-05
1.36132e-05
1.38916e-05
1.41431e-05
1.43628e-05
1.45467e-05
1.46928e-05
1.48021e-05
1.48809e-05
1.49606e-05
1.52344e-05
1.441e-05
1.42107e-05
1.4159e-05
1.40919e-05
1.39949e-05
1.38725e-05
1.3728e-05
1.35561e-05
1.3355e-05
1.31279e-05
1.28786e-05
1.26166e-05
1.23606e-05
1.21419e-05
1.20037e-05
1.19982e-05
1.21277e-05
1.23404e-05
1.25909e-05
1.28524e-05
1.31089e-05
1.33494e-05
1.3567e-05
1.37553e-05
1.39102e-05
1.40315e-05
1.41224e-05
1.41898e-05
1.42567e-05
1.44674e-05
1.37792e-05
1.3672e-05
1.36068e-05
1.35473e-05
1.34692e-05
1.33711e-05
1.32481e-05
1.30986e-05
1.29252e-05
1.27295e-05
1.25144e-05
1.22894e-05
1.20727e-05
1.18889e-05
1.17715e-05
1.17638e-05
1.18719e-05
1.20538e-05
1.22694e-05
1.24954e-05
1.27173e-05
1.29238e-05
1.31063e-05
1.326e-05
1.33839e-05
1.34814e-05
1.35579e-05
1.36182e-05
1.36764e-05
1.38374e-05
1.33232e-05
1.32041e-05
1.31509e-05
1.31047e-05
1.30405e-05
1.29549e-05
1.28477e-05
1.27199e-05
1.25726e-05
1.24072e-05
1.22281e-05
1.20432e-05
1.18646e-05
1.17089e-05
1.16037e-05
1.15918e-05
1.16807e-05
1.18345e-05
1.20189e-05
1.22129e-05
1.24015e-05
1.25734e-05
1.27216e-05
1.2844e-05
1.29433e-05
1.30248e-05
1.30932e-05
1.31499e-05
1.32014e-05
1.33223e-05
1.28941e-05
1.27815e-05
1.27607e-05
1.27253e-05
1.26689e-05
1.25962e-05
1.25092e-05
1.24058e-05
1.22849e-05
1.21496e-05
1.20043e-05
1.18545e-05
1.17061e-05
1.15704e-05
1.14741e-05
1.14605e-05
1.15341e-05
1.1663e-05
1.182e-05
1.19849e-05
1.21428e-05
1.22844e-05
1.24054e-05
1.2506e-05
1.25898e-05
1.26614e-05
1.27231e-05
1.27735e-05
1.28148e-05
1.28987e-05
1.2511e-05
1.24679e-05
1.24575e-05
1.2423e-05
1.2372e-05
1.23122e-05
1.22422e-05
1.21575e-05
1.20583e-05
1.19477e-05
1.18293e-05
1.17052e-05
1.15784e-05
1.14596e-05
1.13737e-05
1.13617e-05
1.14275e-05
1.1538e-05
1.16714e-05
1.18103e-05
1.19421e-05
1.20595e-05
1.216e-05
1.22447e-05
1.23166e-05
1.23779e-05
1.24282e-05
1.24661e-05