/*--------------------------------*- C++ -*----------------------------------*\
| =========                 |                                                 |
| \\      /  F ield         | OpenFOAM: The Open Source CFD Toolbox           |
|  \\    /   O peration     | Version:  2312                                  |
|   \\  /    A nd           | Website:  www.openfoam.com                      |
|    \\/     M anipulation  |                                                 |
\*---------------------------------------------------------------------------*/
FoamFile
{
    version     2.0;
    format      ascii;
    arch        "LSB;label=32;scalar=64";
    class       volScalarField;
    location    "0.822131";
    object      k;
}
// * * * * * * * * * * * * * * * * * * * * * * * * * * * * * * * * * * * * * //

dimensions      [0 2 -2 0 0 0 0];

internalField   nonuniform List<scalar> 
90000
(
2.59831e-05
2.59853e-05
2.59862e-05
2.59866e-05
2.59869e-05
2.59869e-05
2.59867e-05
2.59864e-05
2.59861e-05
2.59858e-05
2.59857e-05
2.59857e-05
2.59857e-05
2.59857e-05
2.59858e-05
2.59861e-05
2.59867e-05
2.59872e-05
2.59876e-05
2.59875e-05
2.5987e-05
2.59862e-05
2.59861e-05
2.59873e-05
2.59885e-05
2.59891e-05
2.5989e-05
2.59884e-05
2.59883e-05
2.59891e-05
2.5985e-05
2.6042e-05
2.60453e-05
2.60452e-05
2.60451e-05
2.6045e-05
2.60451e-05
2.60451e-05
2.60452e-05
2.60451e-05
2.6045e-05
2.60451e-05
2.60452e-05
2.60453e-05
2.60455e-05
2.60456e-05
2.60458e-05
2.60458e-05
2.60457e-05
2.60456e-05
2.60458e-05
2.6046e-05
2.60461e-05
2.6046e-05
2.60454e-05
2.60446e-05
2.60449e-05
2.60461e-05
2.60428e-05
2.5996e-05
2.59861e-05
2.6046e-05
2.60494e-05
2.60493e-05
2.60491e-05
2.60489e-05
2.60489e-05
2.60489e-05
2.6049e-05
2.60491e-05
2.6049e-05
2.60489e-05
2.6049e-05
2.60492e-05
2.60494e-05
2.60493e-05
2.6049e-05
2.60488e-05
2.60492e-05
2.60498e-05
2.60502e-05
2.60504e-05
2.60505e-05
2.60505e-05
2.60508e-05
2.60512e-05
2.60516e-05
2.60521e-05
2.60487e-05
2.59931e-05
2.59866e-05
2.60462e-05
2.605e-05
2.60502e-05
2.60502e-05
2.60501e-05
2.60498e-05
2.60496e-05
2.60495e-05
2.60494e-05
2.60493e-05
2.60492e-05
2.60492e-05
2.60492e-05
2.60492e-05
2.6049e-05
2.6049e-05
2.60495e-05
2.60501e-05
2.60504e-05
2.60504e-05
2.60503e-05
2.60508e-05
2.60516e-05
2.60524e-05
2.60528e-05
2.60526e-05
2.60522e-05
2.60488e-05
2.59883e-05
2.59869e-05
2.60463e-05
2.60506e-05
2.6051e-05
2.60511e-05
2.60509e-05
2.60506e-05
2.60502e-05
2.60499e-05
2.60496e-05
2.60494e-05
2.60493e-05
2.60491e-05
2.60489e-05
2.60488e-05
2.60491e-05
2.60495e-05
2.60499e-05
2.60501e-05
2.605e-05
2.60498e-05
2.60501e-05
2.60509e-05
2.60518e-05
2.60525e-05
2.60527e-05
2.60522e-05
2.60504e-05
2.60487e-05
2.59877e-05
2.5987e-05
2.60472e-05
2.60512e-05
2.60515e-05
2.60515e-05
2.60514e-05
2.60512e-05
2.60509e-05
2.60504e-05
2.60499e-05
2.60494e-05
2.60492e-05
2.60494e-05
2.60495e-05
2.60495e-05
2.60496e-05
2.60497e-05
2.60497e-05
2.60496e-05
2.60495e-05
2.60497e-05
2.60502e-05
2.60507e-05
2.60511e-05
2.60512e-05
2.60514e-05
2.60523e-05
2.60525e-05
2.60509e-05
2.59891e-05
2.59873e-05
2.60484e-05
2.60518e-05
2.60518e-05
2.60517e-05
2.60517e-05
2.60517e-05
2.60514e-05
2.6051e-05
2.60503e-05
2.60496e-05
2.60494e-05
2.60496e-05
2.60499e-05
2.605e-05
2.60498e-05
2.60494e-05
2.60491e-05
2.6049e-05
2.60494e-05
2.60499e-05
2.60502e-05
2.60503e-05
2.60501e-05
2.60506e-05
2.60521e-05
2.60539e-05
2.60547e-05
2.60519e-05
2.59898e-05
2.59879e-05
2.60494e-05
2.60523e-05
2.60521e-05
2.6052e-05
2.6052e-05
2.60521e-05
2.60521e-05
2.60517e-05
2.60511e-05
2.60503e-05
2.60498e-05
2.60498e-05
2.605e-05
2.60501e-05
2.60498e-05
2.60494e-05
2.6049e-05
2.60492e-05
2.60497e-05
2.60501e-05
2.60502e-05
2.605e-05
2.60504e-05
2.60517e-05
2.60531e-05
2.60545e-05
2.6055e-05
2.60513e-05
2.59897e-05
2.59883e-05
2.60502e-05
2.6053e-05
2.60526e-05
2.60523e-05
2.60523e-05
2.60524e-05
2.60525e-05
2.60524e-05
2.6052e-05
2.60514e-05
2.60507e-05
2.60501e-05
2.60498e-05
2.60498e-05
2.605e-05
2.60502e-05
2.60503e-05
2.60506e-05
2.60507e-05
2.60508e-05
2.60507e-05
2.60508e-05
2.60513e-05
2.60524e-05
2.60534e-05
2.60542e-05
2.60543e-05
2.60503e-05
2.59895e-05
2.59889e-05
2.60506e-05
2.60534e-05
2.6053e-05
2.60526e-05
2.60523e-05
2.60523e-05
2.60525e-05
2.60526e-05
2.60526e-05
2.60522e-05
2.60515e-05
2.60505e-05
2.60497e-05
2.60496e-05
2.60503e-05
2.60512e-05
2.6052e-05
2.60524e-05
2.60525e-05
2.60524e-05
2.6052e-05
2.60518e-05
2.6052e-05
2.60524e-05
2.60531e-05
2.60535e-05
2.60535e-05
2.60496e-05
2.59896e-05
2.599e-05
2.60507e-05
2.60536e-05
2.60533e-05
2.60527e-05
2.60521e-05
2.60517e-05
2.60517e-05
2.60521e-05
2.60524e-05
2.60524e-05
2.6052e-05
2.60511e-05
2.605e-05
2.60494e-05
2.60503e-05
2.60517e-05
2.60529e-05
2.60539e-05
2.60542e-05
2.6054e-05
2.60534e-05
2.60528e-05
2.60524e-05
2.60525e-05
2.60528e-05
2.60532e-05
2.60534e-05
2.60497e-05
2.59901e-05
2.59907e-05
2.60509e-05
2.60541e-05
2.60539e-05
2.60536e-05
2.60532e-05
2.60526e-05
2.60521e-05
2.60518e-05
2.60519e-05
2.6052e-05
2.6052e-05
2.60515e-05
2.60506e-05
2.60496e-05
2.605e-05
2.60516e-05
2.60531e-05
2.60542e-05
2.60546e-05
2.60544e-05
2.60538e-05
2.60533e-05
2.60529e-05
2.60528e-05
2.6053e-05
2.60536e-05
2.60538e-05
2.60502e-05
2.59908e-05
2.59918e-05
2.60515e-05
2.60549e-05
2.60551e-05
2.60552e-05
2.60553e-05
2.60551e-05
2.60546e-05
2.60537e-05
2.60525e-05
2.60518e-05
2.60519e-05
2.60519e-05
2.60516e-05
2.60511e-05
2.60511e-05
2.60517e-05
2.60524e-05
2.6053e-05
2.60533e-05
2.60535e-05
2.60535e-05
2.60535e-05
2.60534e-05
2.60535e-05
2.60538e-05
2.60541e-05
2.60542e-05
2.60507e-05
2.59915e-05
2.59941e-05
2.60521e-05
2.60559e-05
2.60564e-05
2.6057e-05
2.60574e-05
2.60575e-05
2.60568e-05
2.60554e-05
2.60536e-05
2.6052e-05
2.60518e-05
2.60523e-05
2.60527e-05
2.60528e-05
2.60528e-05
2.60525e-05
2.60519e-05
2.60514e-05
2.60519e-05
2.60527e-05
2.60535e-05
2.6054e-05
2.60544e-05
2.60545e-05
2.60547e-05
2.60549e-05
2.60549e-05
2.60513e-05
2.59923e-05
2.59968e-05
2.60525e-05
2.6057e-05
2.60579e-05
2.60586e-05
2.60589e-05
2.60586e-05
2.60576e-05
2.6056e-05
2.60543e-05
2.60525e-05
2.60518e-05
2.60523e-05
2.60532e-05
2.60538e-05
2.60538e-05
2.60533e-05
2.60524e-05
2.60517e-05
2.60521e-05
2.60533e-05
2.60544e-05
2.60552e-05
2.60558e-05
2.60561e-05
2.60562e-05
2.60562e-05
2.60562e-05
2.60524e-05
2.59935e-05
2.59988e-05
2.60541e-05
2.60588e-05
2.60594e-05
2.60595e-05
2.6059e-05
2.60582e-05
2.60572e-05
2.60563e-05
2.60552e-05
2.60537e-05
2.60522e-05
2.60523e-05
2.60532e-05
2.60538e-05
2.6054e-05
2.60537e-05
2.60532e-05
2.60528e-05
2.6053e-05
2.60542e-05
2.60555e-05
2.60566e-05
2.60575e-05
2.6058e-05
2.60582e-05
2.60584e-05
2.60584e-05
2.60551e-05
2.59957e-05
2.60002e-05
2.60581e-05
2.6061e-05
2.60606e-05
2.60596e-05
2.60588e-05
2.60583e-05
2.60581e-05
2.60576e-05
2.60565e-05
2.60548e-05
2.60529e-05
2.60525e-05
2.60529e-05
2.60532e-05
2.60534e-05
2.60535e-05
2.60534e-05
2.60533e-05
2.60537e-05
2.60551e-05
2.60567e-05
2.60581e-05
2.60593e-05
2.606e-05
2.60606e-05
2.60611e-05
2.60614e-05
2.60576e-05
2.59982e-05
2.60015e-05
2.60612e-05
2.60632e-05
2.60626e-05
2.6062e-05
2.60616e-05
2.60611e-05
2.60604e-05
2.60593e-05
2.60577e-05
2.60558e-05
2.60538e-05
2.60529e-05
2.60526e-05
2.60523e-05
2.60525e-05
2.60529e-05
2.60534e-05
2.60538e-05
2.60548e-05
2.60566e-05
2.60583e-05
2.60599e-05
2.60612e-05
2.60623e-05
2.60631e-05
2.60638e-05
2.60639e-05
2.60599e-05
2.60012e-05
2.60037e-05
2.60632e-05
2.60661e-05
2.6066e-05
2.60657e-05
2.60654e-05
2.60646e-05
2.60634e-05
2.60616e-05
2.60594e-05
2.60572e-05
2.60552e-05
2.60536e-05
2.60523e-05
2.60515e-05
2.60515e-05
2.60525e-05
2.60537e-05
2.60551e-05
2.60568e-05
2.60588e-05
2.60606e-05
2.60623e-05
2.60638e-05
2.60652e-05
2.60662e-05
2.60667e-05
2.60667e-05
2.60631e-05
2.60048e-05
2.60071e-05
2.60658e-05
2.60698e-05
2.607e-05
2.60699e-05
2.60695e-05
2.60685e-05
2.60668e-05
2.60646e-05
2.60622e-05
2.60597e-05
2.60572e-05
2.60548e-05
2.60526e-05
2.60511e-05
2.60512e-05
2.60529e-05
2.60551e-05
2.60573e-05
2.60596e-05
2.60617e-05
2.60637e-05
2.60657e-05
2.60675e-05
2.60689e-05
2.60699e-05
2.60704e-05
2.60708e-05
2.60674e-05
2.6009e-05
2.60119e-05
2.60704e-05
2.60747e-05
2.60749e-05
2.60748e-05
2.60742e-05
2.60728e-05
2.60708e-05
2.60683e-05
2.60656e-05
2.60627e-05
2.60596e-05
2.60565e-05
2.60536e-05
2.60518e-05
2.60524e-05
2.60547e-05
2.60574e-05
2.60601e-05
2.60627e-05
2.60652e-05
2.60675e-05
2.60698e-05
2.60717e-05
2.60733e-05
2.60745e-05
2.60755e-05
2.60761e-05
2.60725e-05
2.60141e-05
2.60182e-05
2.60767e-05
2.60809e-05
2.60811e-05
2.60807e-05
2.60796e-05
2.60778e-05
2.60753e-05
2.60725e-05
2.60693e-05
2.60659e-05
2.60622e-05
2.60584e-05
2.60551e-05
2.60534e-05
2.60541e-05
2.60566e-05
2.60598e-05
2.6063e-05
2.60661e-05
2.6069e-05
2.60717e-05
2.60742e-05
2.60764e-05
2.60784e-05
2.60802e-05
2.60815e-05
2.60821e-05
2.60783e-05
2.60201e-05
2.60262e-05
2.60848e-05
2.60887e-05
2.60886e-05
2.60877e-05
2.6086e-05
2.60835e-05
2.60806e-05
2.60772e-05
2.60735e-05
2.60695e-05
2.60651e-05
2.60608e-05
2.6057e-05
2.6055e-05
2.60556e-05
2.60585e-05
2.60623e-05
2.60662e-05
2.607e-05
2.60734e-05
2.60766e-05
2.60796e-05
2.60825e-05
2.60851e-05
2.60873e-05
2.60887e-05
2.60892e-05
2.60857e-05
2.60282e-05
2.60363e-05
2.60949e-05
2.60985e-05
2.60979e-05
2.60962e-05
2.60937e-05
2.60906e-05
2.60871e-05
2.60831e-05
2.60786e-05
2.60738e-05
2.60687e-05
2.60639e-05
2.60596e-05
2.60568e-05
2.60573e-05
2.60609e-05
2.60655e-05
2.60702e-05
2.60748e-05
2.6079e-05
2.60829e-05
2.60869e-05
2.60906e-05
2.60937e-05
2.60961e-05
2.60977e-05
2.60987e-05
2.60961e-05
2.60393e-05
2.60491e-05
2.61077e-05
2.61107e-05
2.61093e-05
2.61068e-05
2.61035e-05
2.60997e-05
2.60954e-05
2.60905e-05
2.6085e-05
2.60792e-05
2.60734e-05
2.60678e-05
2.60629e-05
2.60594e-05
2.60597e-05
2.60639e-05
2.60693e-05
2.60749e-05
2.60803e-05
2.60856e-05
2.60909e-05
2.60959e-05
2.61004e-05
2.6104e-05
2.61069e-05
2.61091e-05
2.61112e-05
2.61096e-05
2.60526e-05
2.6065e-05
2.61232e-05
2.61255e-05
2.61232e-05
2.61199e-05
2.61159e-05
2.61112e-05
2.61059e-05
2.60998e-05
2.60931e-05
2.60863e-05
2.60795e-05
2.60731e-05
2.60672e-05
2.60629e-05
2.6063e-05
2.60676e-05
2.60739e-05
2.60805e-05
2.60872e-05
2.60939e-05
2.61004e-05
2.61063e-05
2.61114e-05
2.61158e-05
2.61196e-05
2.61229e-05
2.61261e-05
2.61248e-05
2.60664e-05
2.60842e-05
2.61413e-05
2.6143e-05
2.614e-05
2.6136e-05
2.61311e-05
2.61255e-05
2.6119e-05
2.61116e-05
2.61038e-05
2.60958e-05
2.6088e-05
2.60803e-05
2.60731e-05
2.60676e-05
2.60673e-05
2.60725e-05
2.60798e-05
2.60879e-05
2.60962e-05
2.61044e-05
2.6112e-05
2.61189e-05
2.61249e-05
2.61302e-05
2.61352e-05
2.61396e-05
2.61429e-05
2.61406e-05
2.60822e-05
2.61066e-05
2.61623e-05
2.61635e-05
2.61599e-05
2.61552e-05
2.61495e-05
2.61429e-05
2.61352e-05
2.61266e-05
2.61175e-05
2.61083e-05
2.6099e-05
2.60896e-05
2.60805e-05
2.60736e-05
2.6073e-05
2.60791e-05
2.60881e-05
2.6098e-05
2.61082e-05
2.6118e-05
2.6127e-05
2.61352e-05
2.61424e-05
2.61489e-05
2.6155e-05
2.616e-05
2.61624e-05
2.61595e-05
2.61033e-05
2.61326e-05
2.61867e-05
2.61876e-05
2.61835e-05
2.61781e-05
2.61716e-05
2.61638e-05
2.61548e-05
2.61449e-05
2.61345e-05
2.61236e-05
2.61123e-05
2.61007e-05
2.60895e-05
2.60812e-05
2.60808e-05
2.60883e-05
2.60993e-05
2.61115e-05
2.61238e-05
2.61354e-05
2.6146e-05
2.61557e-05
2.61645e-05
2.61723e-05
2.61794e-05
2.61845e-05
2.61865e-05
2.61848e-05
2.61306e-05
2.61629e-05
2.62159e-05
2.62165e-05
2.62119e-05
2.62058e-05
2.61982e-05
2.61891e-05
2.61786e-05
2.61671e-05
2.61549e-05
2.61419e-05
2.6128e-05
2.61138e-05
2.61006e-05
2.60912e-05
2.60911e-05
2.61004e-05
2.61137e-05
2.61283e-05
2.61428e-05
2.61563e-05
2.61688e-05
2.61802e-05
2.61909e-05
2.62003e-05
2.62081e-05
2.62135e-05
2.62169e-05
2.62169e-05
2.6163e-05
2.61992e-05
2.62516e-05
2.62519e-05
2.62467e-05
2.62397e-05
2.62307e-05
2.62199e-05
2.62077e-05
2.61943e-05
2.61797e-05
2.6164e-05
2.61473e-05
2.61303e-05
2.61149e-05
2.61043e-05
2.61046e-05
2.61157e-05
2.61314e-05
2.61485e-05
2.61654e-05
2.61813e-05
2.6196e-05
2.62096e-05
2.62224e-05
2.62332e-05
2.62416e-05
2.62486e-05
2.62543e-05
2.62548e-05
2.6201e-05
2.62435e-05
2.62957e-05
2.62956e-05
2.62896e-05
2.62813e-05
2.62707e-05
2.6258e-05
2.62436e-05
2.62278e-05
2.62104e-05
2.61915e-05
2.61715e-05
2.61515e-05
2.61336e-05
2.61212e-05
2.61215e-05
2.61344e-05
2.61527e-05
2.61726e-05
2.61924e-05
2.62113e-05
2.62288e-05
2.6245e-05
2.62599e-05
2.62721e-05
2.62817e-05
2.62912e-05
2.62989e-05
2.62995e-05
2.6247e-05
2.62976e-05
2.63498e-05
2.63488e-05
2.63418e-05
2.63319e-05
2.63193e-05
2.63045e-05
2.62876e-05
2.62689e-05
2.62482e-05
2.62257e-05
2.6202e-05
2.61785e-05
2.61576e-05
2.61431e-05
2.61433e-05
2.61579e-05
2.61789e-05
2.62019e-05
2.6225e-05
2.62473e-05
2.62683e-05
2.62873e-05
2.63042e-05
2.63185e-05
2.63307e-05
2.63427e-05
2.63516e-05
2.63531e-05
2.63018e-05
2.6363e-05
2.64146e-05
2.64126e-05
2.64042e-05
2.63925e-05
2.63777e-05
2.63603e-05
2.63405e-05
2.63184e-05
2.62939e-05
2.62674e-05
2.62397e-05
2.62125e-05
2.61882e-05
2.61716e-05
2.61718e-05
2.61883e-05
2.62123e-05
2.62384e-05
2.62653e-05
2.62914e-05
2.63163e-05
2.63383e-05
2.63578e-05
2.63756e-05
2.6391e-05
2.64046e-05
2.64142e-05
2.64164e-05
2.63657e-05
2.64411e-05
2.64913e-05
2.64881e-05
2.64781e-05
2.64644e-05
2.64472e-05
2.64269e-05
2.64037e-05
2.63777e-05
2.63491e-05
2.63183e-05
2.62865e-05
2.62552e-05
2.62275e-05
2.62087e-05
2.62091e-05
2.62279e-05
2.62553e-05
2.62855e-05
2.63167e-05
2.63472e-05
2.63762e-05
2.64017e-05
2.64248e-05
2.64465e-05
2.64642e-05
2.64783e-05
2.64882e-05
2.64906e-05
2.64416e-05
2.65336e-05
2.6582e-05
2.65776e-05
2.6566e-05
2.65502e-05
2.65306e-05
2.65074e-05
2.64807e-05
2.64508e-05
2.64179e-05
2.63824e-05
2.63458e-05
2.63101e-05
2.62786e-05
2.62573e-05
2.62581e-05
2.62795e-05
2.63111e-05
2.63462e-05
2.63828e-05
2.6418e-05
2.6451e-05
2.64806e-05
2.65075e-05
2.65322e-05
2.6551e-05
2.65655e-05
2.6576e-05
2.65796e-05
2.65335e-05
2.66435e-05
2.66899e-05
2.66843e-05
2.66712e-05
2.66538e-05
2.66323e-05
2.66065e-05
2.65765e-05
2.65424e-05
2.65047e-05
2.64642e-05
2.64223e-05
2.63818e-05
2.63465e-05
2.63218e-05
2.63227e-05
2.63468e-05
2.63829e-05
2.64236e-05
2.64659e-05
2.65058e-05
2.65431e-05
2.6577e-05
2.66076e-05
2.66341e-05
2.66541e-05
2.66702e-05
2.66826e-05
2.66886e-05
2.66444e-05
2.67748e-05
2.68188e-05
2.68122e-05
2.67982e-05
2.67793e-05
2.67557e-05
2.6727e-05
2.66931e-05
2.66546e-05
2.66122e-05
2.65668e-05
2.652e-05
2.64744e-05
2.6435e-05
2.64064e-05
2.64067e-05
2.6434e-05
2.64747e-05
2.6521e-05
2.65686e-05
2.66132e-05
2.66553e-05
2.66937e-05
2.67271e-05
2.67556e-05
2.67782e-05
2.67972e-05
2.6812e-05
2.68194e-05
2.67766e-05
2.69301e-05
2.69718e-05
2.69643e-05
2.69492e-05
2.69284e-05
2.69019e-05
2.68699e-05
2.68326e-05
2.67904e-05
2.67438e-05
2.66937e-05
2.66417e-05
2.65904e-05
2.65467e-05
2.65147e-05
2.65144e-05
2.65455e-05
2.65908e-05
2.66422e-05
2.66945e-05
2.6744e-05
2.67911e-05
2.68337e-05
2.68699e-05
2.6901e-05
2.69269e-05
2.69483e-05
2.69647e-05
2.69724e-05
2.69312e-05
2.71129e-05
2.71524e-05
2.71436e-05
2.71269e-05
2.71043e-05
2.70758e-05
2.70419e-05
2.70024e-05
2.69569e-05
2.69059e-05
2.68506e-05
2.6794e-05
2.67368e-05
2.66884e-05
2.66537e-05
2.66525e-05
2.66878e-05
2.67377e-05
2.67939e-05
2.68507e-05
2.69058e-05
2.69572e-05
2.70029e-05
2.70421e-05
2.70761e-05
2.71044e-05
2.7127e-05
2.71436e-05
2.71519e-05
2.71121e-05
2.73272e-05
2.73649e-05
2.7355e-05
2.73379e-05
2.73151e-05
2.72865e-05
2.72515e-05
2.72102e-05
2.7162e-05
2.71075e-05
2.70478e-05
2.69879e-05
2.69262e-05
2.68712e-05
2.68342e-05
2.68325e-05
2.6871e-05
2.69259e-05
2.69873e-05
2.7048e-05
2.71075e-05
2.71617e-05
2.72094e-05
2.72514e-05
2.72873e-05
2.73161e-05
2.73388e-05
2.73545e-05
2.73637e-05
2.7326e-05
2.75798e-05
2.76167e-05
2.76061e-05
2.75897e-05
2.75678e-05
2.75393e-05
2.75033e-05
2.7461e-05
2.74123e-05
2.73568e-05
2.72947e-05
2.7231e-05
2.71679e-05
2.71073e-05
2.70664e-05
2.70669e-05
2.71086e-05
2.71662e-05
2.72315e-05
2.72953e-05
2.73568e-05
2.74123e-05
2.74609e-05
2.7504e-05
2.75392e-05
2.75671e-05
2.75893e-05
2.76058e-05
2.76162e-05
2.75805e-05
2.78787e-05
2.79149e-05
2.79039e-05
2.78883e-05
2.78667e-05
2.78391e-05
2.78047e-05
2.77645e-05
2.77173e-05
2.76631e-05
2.76032e-05
2.7537e-05
2.74731e-05
2.74122e-05
2.73666e-05
2.7368e-05
2.74129e-05
2.74721e-05
2.75383e-05
2.76034e-05
2.7664e-05
2.77181e-05
2.77656e-05
2.78063e-05
2.7839e-05
2.78659e-05
2.78876e-05
2.79059e-05
2.79158e-05
2.78777e-05
2.82347e-05
2.82705e-05
2.82596e-05
2.8244e-05
2.82239e-05
2.82012e-05
2.81728e-05
2.81374e-05
2.80948e-05
2.80457e-05
2.79933e-05
2.79327e-05
2.78689e-05
2.78135e-05
2.77699e-05
2.77703e-05
2.78133e-05
2.78709e-05
2.79324e-05
2.7993e-05
2.80478e-05
2.8095e-05
2.81375e-05
2.81721e-05
2.82004e-05
2.82256e-05
2.8245e-05
2.82614e-05
2.82699e-05
2.82305e-05
2.86638e-05
2.87039e-05
2.86917e-05
2.86782e-05
2.86632e-05
2.86472e-05
2.86262e-05
2.86018e-05
2.85787e-05
2.85525e-05
2.85274e-05
2.85105e-05
2.84944e-05
2.84875e-05
2.84926e-05
2.84948e-05
2.8489e-05
2.8494e-05
2.85087e-05
2.85307e-05
2.8554e-05
2.8579e-05
2.86042e-05
2.86249e-05
2.86448e-05
2.86649e-05
2.86792e-05
2.86907e-05
2.87015e-05
2.86621e-05
2.9198e-05
2.92658e-05
2.92526e-05
2.92516e-05
2.92585e-05
2.92528e-05
2.92657e-05
2.93059e-05
2.93742e-05
2.95018e-05
2.97479e-05
3.0115e-05
3.06049e-05
3.11793e-05
3.17175e-05
3.17217e-05
3.11809e-05
3.06052e-05
3.01184e-05
2.97515e-05
2.95026e-05
2.93767e-05
2.93059e-05
2.92658e-05
2.92544e-05
2.92573e-05
2.92503e-05
2.92536e-05
2.92649e-05
2.91939e-05
3.00055e-05
3.02454e-05
3.02468e-05
3.03094e-05
3.05455e-05
3.06155e-05
3.08221e-05
3.14174e-05
3.22265e-05
3.35441e-05
3.61819e-05
3.98738e-05
4.44166e-05
4.94886e-05
5.39568e-05
5.39748e-05
4.94952e-05
4.44299e-05
3.99054e-05
3.62106e-05
3.35593e-05
3.22396e-05
3.14248e-05
3.0824e-05
3.06188e-05
3.05447e-05
3.03105e-05
3.0248e-05
3.02432e-05
3.00008e-05
3.18002e-05
3.31088e-05
3.32101e-05
3.37583e-05
3.62545e-05
3.67197e-05
3.79141e-05
4.39604e-05
4.93641e-05
5.69574e-05
7.56398e-05
9.618e-05
0.00012062
0.000146276
0.000166607
0.000166662
0.000146306
0.000120754
9.63386e-05
7.57877e-05
5.70696e-05
4.94618e-05
4.40031e-05
3.79395e-05
3.67558e-05
3.62376e-05
3.37667e-05
3.32181e-05
3.30969e-05
3.17899e-05
3.70915e-05
4.3989e-05
4.45308e-05
4.80606e-05
6.76866e-05
7.0039e-05
7.22453e-05
0.000124014
0.000144674
0.000162713
0.000257288
0.000309012
0.000383772
0.000458804
0.000506855
0.000507083
0.000458837
0.000384387
0.00030945
0.000257872
0.000163137
0.000145206
0.000124199
7.23759e-05
7.03357e-05
6.75326e-05
4.81275e-05
4.45704e-05
4.39592e-05
3.70645e-05
5.28276e-05
7.93177e-05
8.27409e-05
0.000102999
0.000190526
0.000205065
0.000242807
0.000445455
0.000497814
0.00055676
0.000795905
0.000817674
0.000959939
0.00108169
0.0011501
0.00115067
0.00108163
0.000960163
0.000818203
0.000797408
0.000558081
0.000499756
0.000446445
0.000243393
0.000206675
0.000190001
0.000103346
8.29398e-05
7.9277e-05
5.27767e-05
9.5872e-05
0.000154096
0.000179615
0.000300044
0.000418172
0.000521019
0.00070317
0.000961289
0.00109587
0.00117559
0.00149493
0.00145343
0.00161364
0.00170162
0.00176276
0.00176221
0.00170055
0.00161155
0.00145551
0.00149756
0.00117855
0.00109882
0.00096484
0.000704267
0.000523982
0.000418089
0.000300283
0.000180118
0.000154096
9.58336e-05
0.000134753
0.000202638
0.000219253
0.000307743
0.000484786
0.000600179
0.000834545
0.0011577
0.00133505
0.00142373
0.001753
0.00177999
0.00184074
0.00194661
0.00200492
0.00200564
0.00194806
0.001843
0.00177781
0.00175599
0.00142668
0.00133853
0.0011628
0.000835842
0.000604362
0.000484759
0.000307493
0.000218819
0.000202759
0.000135248
0.000200889
0.000232509
0.000309114
0.000399581
0.000594032
0.000731847
0.000873056
0.00119525
0.00133757
0.00144408
0.00174616
0.00183541
0.00200565
0.00215728
0.00223787
0.00223891
0.00215826
0.00201188
0.00183564
0.00175194
0.00145068
0.00133683
0.00120216
0.000874618
0.000734465
0.000594318
0.000403178
0.000308819
0.000233203
0.000200904
0.000215005
0.000238114
0.000316081
0.000453001
0.000613794
0.000746136
0.000843699
0.000944309
0.00107986
0.0012221
0.00140085
0.00158206
0.00173432
0.00182818
0.00190983
0.00190939
0.00182997
0.00173932
0.00158747
0.00140336
0.00122709
0.00108051
0.000949613
0.000846843
0.000748596
0.000614592
0.000456482
0.000316823
0.000238065
0.000213915
0.000219655
0.000235784
0.000289184
0.000385225
0.000509554
0.000638134
0.000745602
0.000825299
0.000914913
0.000994433
0.00108275
0.00118888
0.00128829
0.00137041
0.00143211
0.00143368
0.00137316
0.00129551
0.00119124
0.00108707
0.00100016
0.000914729
0.000830326
0.000746546
0.000640902
0.000513724
0.000388921
0.000290677
0.000238383
0.000220746
0.000197697
0.000201991
0.000218874
0.000253895
0.000316489
0.000401772
0.00050991
0.000638984
0.000764147
0.000879388
0.000988521
0.00107664
0.00114891
0.00119072
0.00120954
0.00121268
0.00119323
0.00115247
0.00108123
0.000989603
0.000882985
0.000767222
0.000640548
0.000511939
0.000405142
0.000318494
0.000255958
0.000218143
0.000202251
0.000198975
0.000173203
0.000172715
0.000174599
0.000182986
0.00020003
0.00023029
0.000280031
0.000357598
0.000471457
0.000626968
0.000805644
0.000979822
0.00109915
0.00115872
0.00118528
0.00118633
0.00116103
0.00109891
0.000982161
0.000809481
0.000628347
0.000474146
0.000361057
0.000281826
0.00023153
0.000202064
0.000184173
0.000174744
0.000172235
0.000173351
0.000150255
0.000146507
0.000145079
0.000147616
0.000152354
0.000160776
0.000175665
0.000203093
0.000250236
0.00033592
0.000487392
0.000698419
0.000904841
0.00104319
0.00112116
0.00112217
0.0010454
0.000905343
0.000700038
0.000489439
0.000338302
0.000250668
0.000203944
0.000176396
0.000161285
0.000152431
0.000148113
0.000146319
0.000147172
0.000150423
0.000132185
0.000126852
0.000126431
0.000126056
0.000126774
0.000128786
0.000133775
0.000141877
0.000154828
0.000181039
0.000241282
0.000359797
0.000538189
0.000730319
0.000870097
0.000869527
0.000730812
0.000539629
0.000360365
0.000241442
0.00018184
0.000155206
0.000141943
0.00013421
0.000129381
0.000126909
0.000126159
0.000126077
0.000127248
0.000132427
0.000117565
0.000113003
0.000112
0.000111604
0.000112175
0.000112975
0.000114678
0.000117407
0.000121157
0.000127927
0.000141558
0.000174487
0.000239619
0.000341037
0.000449229
0.000448832
0.000340596
0.000239883
0.00017467
0.000142159
0.000128171
0.000121557
0.000117172
0.000114541
0.00011289
0.000112143
0.000111773
0.000112137
0.000112873
0.000117947
0.000106327
0.000101462
0.000100357
0.000100789
0.000100793
0.000101414
0.000102587
0.000103691
0.000105269
0.000107367
0.000110206
0.00011622
0.000128803
0.000151349
0.000180756
0.000180777
0.000151462
0.000129181
0.000116371
0.000110753
0.000107485
0.000105563
0.000103931
0.000102634
0.000101555
0.00010119
0.000100859
0.00010066
0.000101427
0.00010609
9.57158e-05
9.15196e-05
9.10425e-05
9.13191e-05
9.1712e-05
9.23623e-05
9.30645e-05
9.36675e-05
9.4568e-05
9.52943e-05
9.58477e-05
9.66707e-05
9.82981e-05
0.000101183
0.000105457
0.000105515
0.000101378
9.8506e-05
9.67151e-05
9.59248e-05
9.51895e-05
9.44732e-05
9.37586e-05
9.29949e-05
9.22182e-05
9.16269e-05
9.13422e-05
9.1059e-05
9.18954e-05
9.61562e-05
8.71115e-05
8.3204e-05
8.29629e-05
8.31789e-05
8.34995e-05
8.3861e-05
8.41304e-05
8.44765e-05
8.4828e-05
8.49136e-05
8.49143e-05
8.48159e-05
8.45553e-05
8.43928e-05
8.45313e-05
8.45077e-05
8.44598e-05
8.45069e-05
8.48403e-05
8.50731e-05
8.517e-05
8.50435e-05
8.46915e-05
8.40717e-05
8.35674e-05
8.31923e-05
8.30383e-05
8.29638e-05
8.36942e-05
8.75526e-05
7.95861e-05
7.60476e-05
7.56554e-05
7.58495e-05
7.60103e-05
7.60881e-05
7.61284e-05
7.61785e-05
7.61492e-05
7.5943e-05
7.55841e-05
7.5089e-05
7.44292e-05
7.38389e-05
7.3457e-05
7.34425e-05
7.39865e-05
7.45131e-05
7.51863e-05
7.57648e-05
7.62079e-05
7.63923e-05
7.63611e-05
7.61724e-05
7.59916e-05
7.59422e-05
7.58635e-05
7.58274e-05
7.63589e-05
7.99138e-05
7.26923e-05
6.95825e-05
6.92057e-05
6.93383e-05
6.93692e-05
6.93536e-05
6.92921e-05
6.91496e-05
6.8805e-05
6.8219e-05
6.75307e-05
6.6818e-05
6.60524e-05
6.53589e-05
6.48574e-05
6.48167e-05
6.53973e-05
6.60971e-05
6.68808e-05
6.76444e-05
6.83073e-05
6.88334e-05
6.91504e-05
6.93056e-05
6.93819e-05
6.9425e-05
6.93952e-05
6.93595e-05
6.97648e-05
7.29109e-05
6.66993e-05
6.37424e-05
6.34098e-05
6.34198e-05
6.33863e-05
6.3343e-05
6.31493e-05
6.27574e-05
6.21455e-05
6.13831e-05
6.05829e-05
5.97656e-05
5.88797e-05
5.80796e-05
5.75393e-05
5.75275e-05
5.80864e-05
5.88635e-05
5.97572e-05
6.0706e-05
6.15768e-05
6.22848e-05
6.28169e-05
6.31515e-05
6.33576e-05
6.34628e-05
6.34544e-05
6.34413e-05
6.38136e-05
6.65858e-05
6.10379e-05
5.85604e-05
5.81947e-05
5.81056e-05
5.80563e-05
5.7907e-05
5.75423e-05
5.69727e-05
5.6234e-05
5.5387e-05
5.45351e-05
5.36476e-05
5.2708e-05
5.18967e-05
5.14014e-05
5.14277e-05
5.19511e-05
5.27242e-05
5.3657e-05
5.46923e-05
5.56739e-05
5.65e-05
5.71508e-05
5.76062e-05
5.78841e-05
5.8035e-05
5.81048e-05
5.81583e-05
5.85452e-05
6.10449e-05
5.6295e-05
5.39095e-05
5.35779e-05
5.35627e-05
5.34759e-05
5.31623e-05
5.26556e-05
5.20012e-05
5.12568e-05
5.04402e-05
4.95409e-05
4.85571e-05
4.75717e-05
4.67895e-05
4.63257e-05
4.63307e-05
4.68046e-05
4.75757e-05
4.85482e-05
4.96185e-05
5.06338e-05
5.14907e-05
5.21705e-05
5.26742e-05
5.30404e-05
5.32907e-05
5.34613e-05
5.35922e-05
5.39802e-05
5.62464e-05
5.17726e-05
4.98391e-05
4.96546e-05
4.96058e-05
4.93197e-05
4.89098e-05
4.84018e-05
4.78153e-05
4.71578e-05
4.63532e-05
4.53811e-05
4.43412e-05
4.3388e-05
4.26613e-05
4.22087e-05
4.21755e-05
4.2615e-05
4.33819e-05
4.43437e-05
4.5371e-05
4.63406e-05
4.71816e-05
4.78777e-05
4.84376e-05
4.88835e-05
4.92248e-05
4.94626e-05
4.96358e-05
5.00019e-05
5.19828e-05
4.79823e-05
4.64792e-05
4.62567e-05
4.59659e-05
4.55883e-05
4.52073e-05
4.4739e-05
4.42041e-05
4.35689e-05
4.27507e-05
4.17853e-05
4.08051e-05
3.99183e-05
3.91925e-05
3.87109e-05
3.86544e-05
3.90924e-05
3.98669e-05
4.08075e-05
4.17872e-05
4.27142e-05
4.3542e-05
4.42564e-05
4.48499e-05
4.53309e-05
4.57035e-05
4.59741e-05
4.61731e-05
4.65096e-05
4.81799e-05
4.4845e-05
4.35351e-05
4.31214e-05
4.27729e-05
4.24816e-05
4.21263e-05
4.16659e-05
4.11328e-05
4.0486e-05
3.96888e-05
3.88072e-05
3.79183e-05
3.70731e-05
3.63477e-05
3.58751e-05
3.58453e-05
3.62934e-05
3.70465e-05
3.79354e-05
3.88458e-05
3.97151e-05
4.05178e-05
4.12278e-05
4.18202e-05
4.22891e-05
4.26476e-05
4.2914e-05
4.31152e-05
4.34178e-05
4.48265e-05
4.19331e-05
4.08018e-05
4.03682e-05
4.01765e-05
3.99507e-05
3.95792e-05
3.91177e-05
3.85831e-05
3.79595e-05
3.72329e-05
3.64396e-05
3.56124e-05
3.48039e-05
3.41209e-05
3.37044e-05
3.37095e-05
3.41342e-05
3.48184e-05
3.56223e-05
3.64545e-05
3.72622e-05
3.80171e-05
3.8684e-05
3.92379e-05
3.96698e-05
4.00002e-05
4.02521e-05
4.04478e-05
4.07252e-05
4.19167e-05
3.9496e-05
3.83557e-05
3.81454e-05
3.80155e-05
3.77476e-05
3.73824e-05
3.69635e-05
3.64838e-05
3.59284e-05
3.52734e-05
3.45271e-05
3.37348e-05
3.29774e-05
3.23673e-05
3.20162e-05
3.20433e-05
3.24296e-05
3.30364e-05
3.3754e-05
3.45043e-05
3.52394e-05
3.59267e-05
3.65357e-05
3.70452e-05
3.74481e-05
3.77586e-05
3.79957e-05
3.81791e-05
3.84185e-05
3.94062e-05
3.72368e-05
3.63039e-05
3.62023e-05
3.60342e-05
3.57955e-05
3.5517e-05
3.51791e-05
3.47652e-05
3.42553e-05
3.36385e-05
3.29411e-05
3.22266e-05
3.15668e-05
3.1041e-05
3.07317e-05
3.075e-05
3.10825e-05
3.161e-05
3.22444e-05
3.29157e-05
3.35804e-05
3.42041e-05
3.47599e-05
3.52246e-05
3.55936e-05
3.58756e-05
3.60861e-05
3.62431e-05
3.64375e-05
3.72439e-05
3.52354e-05
3.46794e-05
3.44872e-05
3.43447e-05
3.4193e-05
3.39792e-05
3.36837e-05
3.32963e-05
3.28111e-05
3.22481e-05
3.16474e-05
3.10504e-05
3.04872e-05
3.00106e-05
2.97093e-05
2.97057e-05
2.99965e-05
3.04715e-05
3.10436e-05
3.16467e-05
3.22384e-05
3.27863e-05
3.32704e-05
3.36779e-05
3.40048e-05
3.42568e-05
3.44437e-05
3.45805e-05
3.4744e-05
3.54035e-05
3.38082e-05
3.32756e-05
3.30941e-05
3.30149e-05
3.28794e-05
3.26639e-05
3.23792e-05
3.20143e-05
3.15806e-05
3.11108e-05
3.06242e-05
3.01201e-05
2.96123e-05
2.91606e-05
2.88736e-05
2.88719e-05
2.91434e-05
2.95769e-05
3.00839e-05
3.06065e-05
3.11102e-05
3.15766e-05
3.1992e-05
3.23508e-05
3.26481e-05
3.28824e-05
3.30567e-05
3.31826e-05
3.33237e-05
3.3856e-05
3.25383e-05
3.20112e-05
3.1964e-05
3.1886e-05
3.17212e-05
3.1515e-05
3.12616e-05
3.09457e-05
3.05894e-05
3.02119e-05
2.98009e-05
2.93465e-05
2.88805e-05
2.84746e-05
2.82282e-05
2.82353e-05
2.84766e-05
2.8851e-05
2.92845e-05
2.97348e-05
3.01728e-05
3.0583e-05
3.09541e-05
3.12769e-05
3.15446e-05
3.1754e-05
3.19077e-05
3.20174e-05
3.21345e-05
3.25531e-05
3.13081e-05
3.10706e-05
3.10318e-05
3.09032e-05
3.07463e-05
3.05819e-05
3.03702e-05
3.01068e-05
2.9811e-05
2.94817e-05
2.91048e-05
2.86924e-05
2.82893e-05
2.7957e-05
2.77581e-05
2.7759e-05
2.7956e-05
2.82741e-05
2.86536e-05
2.90572e-05
2.94558e-05
2.98242e-05
3.01481e-05
3.04195e-05
3.06368e-05
3.08046e-05
3.09309e-05
3.10261e-05
3.11272e-05
3.14556e-05
3.04689e-05
3.03843e-05
3.02398e-05
3.0102e-05
2.99913e-05
2.9859e-05
2.9673e-05
2.94459e-05
2.91844e-05
2.88804e-05
2.85388e-05
2.81886e-05
2.78677e-05
2.76056e-05
2.74373e-05
2.74232e-05
2.75786e-05
2.78514e-05
2.81883e-05
2.85473e-05
2.88951e-05
2.92061e-05
2.94669e-05
2.96771e-05
2.98452e-05
2.99822e-05
3.0096e-05
3.01908e-05
3.02869e-05
3.05454e-05
2.98719e-05
2.96685e-05
2.95179e-05
2.94425e-05
2.937e-05
2.92483e-05
2.90841e-05
2.8891e-05
2.86625e-05
2.8396e-05
2.81109e-05
2.78337e-05
2.75802e-05
2.73578e-05
2.71981e-05
2.71698e-05
2.72955e-05
2.75288e-05
2.78166e-05
2.8118e-05
2.84021e-05
2.86508e-05
2.88594e-05
2.90338e-05
2.91825e-05
2.93118e-05
2.94241e-05
2.95183e-05
2.9604e-05
2.97955e-05
2.91971e-05
2.89606e-05
2.89191e-05
2.88988e-05
2.8828e-05
2.87102e-05
2.85718e-05
2.84124e-05
2.82207e-05
2.80022e-05
2.77742e-05
2.75503e-05
2.73326e-05
2.7128e-05
2.69766e-05
2.69505e-05
2.70625e-05
2.72624e-05
2.75034e-05
2.77497e-05
2.79804e-05
2.81885e-05
2.83746e-05
2.85391e-05
2.8681e-05
2.8801e-05
2.89008e-05
2.89778e-05
2.90364e-05
2.91599e-05
2.85666e-05
2.84801e-05
2.85034e-05
2.84726e-05
2.83836e-05
2.82752e-05
2.81607e-05
2.80261e-05
2.78659e-05
2.76871e-05
2.74991e-05
2.73049e-05
2.7107e-05
2.69224e-05
2.67929e-05
2.67823e-05
2.68927e-05
2.70669e-05
2.72672e-05
2.74696e-05
2.76643e-05
2.78491e-05
2.80191e-05
2.81674e-05