/*--------------------------------*- C++ -*----------------------------------*\
| =========                 |                                                 |
| \\      /  F ield         | OpenFOAM: The Open Source CFD Toolbox           |
|  \\    /   O peration     | Version:  2312                                  |
|   \\  /    A nd           | Website:  www.openfoam.com                      |
|    \\/     M anipulation  |                                                 |
\*---------------------------------------------------------------------------*/
FoamFile
{
    version     2.0;
    format      ascii;
    arch        "LSB;label=32;scalar=64";
    class       volScalarField;
    location    "0.822131";
    object      nut;
}
// * * * * * * * * * * * * * * * * * * * * * * * * * * * * * * * * * * * * * //

dimensions      [0 2 -1 0 0 0 0];

internalField   nonuniform List<scalar> 
90000
(
5.58527e-06
5.58568e-06
5.58581e-06
5.58587e-06
5.58591e-06
5.58592e-06
5.58589e-06
5.58584e-06
5.58578e-06
5.58572e-06
5.58569e-06
5.58568e-06
5.58567e-06
5.58566e-06
5.58567e-06
5.58572e-06
5.58581e-06
5.58591e-06
5.58599e-06
5.586e-06
5.58594e-06
5.58583e-06
5.58585e-06
5.58603e-06
5.5862e-06
5.58628e-06
5.58623e-06
5.58611e-06
5.586e-06
5.58598e-06
5.58566e-06
5.59335e-06
5.59384e-06
5.59385e-06
5.59383e-06
5.59382e-06
5.59382e-06
5.59382e-06
5.5938e-06
5.59377e-06
5.59372e-06
5.59371e-06
5.59372e-06
5.59373e-06
5.59376e-06
5.59381e-06
5.59385e-06
5.59389e-06
5.59391e-06
5.59392e-06
5.59395e-06
5.594e-06
5.59402e-06
5.59397e-06
5.59386e-06
5.59371e-06
5.59376e-06
5.59395e-06
5.59365e-06
5.58741e-06
5.58577e-06
5.59387e-06
5.59438e-06
5.59437e-06
5.59434e-06
5.59432e-06
5.59433e-06
5.59435e-06
5.59436e-06
5.59435e-06
5.59432e-06
5.59431e-06
5.59433e-06
5.59437e-06
5.5944e-06
5.5944e-06
5.59437e-06
5.59435e-06
5.59441e-06
5.59451e-06
5.59456e-06
5.59457e-06
5.59456e-06
5.59455e-06
5.59457e-06
5.59462e-06
5.59465e-06
5.59462e-06
5.59393e-06
5.58659e-06
5.5858e-06
5.59382e-06
5.5944e-06
5.59444e-06
5.59445e-06
5.59444e-06
5.59441e-06
5.59439e-06
5.59439e-06
5.59439e-06
5.59439e-06
5.59439e-06
5.59441e-06
5.59443e-06
5.59443e-06
5.59441e-06
5.59439e-06
5.59447e-06
5.59454e-06
5.59456e-06
5.59452e-06
5.59448e-06
5.59454e-06
5.59466e-06
5.5948e-06
5.59489e-06
5.59495e-06
5.59493e-06
5.59415e-06
5.58606e-06
5.58577e-06
5.59379e-06
5.59444e-06
5.59451e-06
5.59453e-06
5.59452e-06
5.59449e-06
5.59445e-06
5.59442e-06
5.59441e-06
5.59442e-06
5.59444e-06
5.59445e-06
5.59445e-06
5.59445e-06
5.59447e-06
5.59452e-06
5.59455e-06
5.59453e-06
5.59446e-06
5.59438e-06
5.59441e-06
5.59453e-06
5.59469e-06
5.59481e-06
5.59486e-06
5.59482e-06
5.59466e-06
5.59425e-06
5.5861e-06
5.58575e-06
5.59394e-06
5.59453e-06
5.59458e-06
5.59459e-06
5.59458e-06
5.59456e-06
5.59452e-06
5.59448e-06
5.59443e-06
5.59442e-06
5.59446e-06
5.59453e-06
5.59458e-06
5.5946e-06
5.59459e-06
5.59456e-06
5.59449e-06
5.5944e-06
5.59432e-06
5.59433e-06
5.59441e-06
5.5945e-06
5.59459e-06
5.59466e-06
5.59473e-06
5.59485e-06
5.59497e-06
5.5947e-06
5.5863e-06
5.58582e-06
5.59417e-06
5.59467e-06
5.59467e-06
5.59466e-06
5.59465e-06
5.59464e-06
5.59462e-06
5.59458e-06
5.5945e-06
5.59443e-06
5.59447e-06
5.59458e-06
5.59466e-06
5.59467e-06
5.59461e-06
5.59449e-06
5.59435e-06
5.59427e-06
5.5943e-06
5.59435e-06
5.5944e-06
5.59443e-06
5.59443e-06
5.59451e-06
5.59478e-06
5.59507e-06
5.59523e-06
5.59481e-06
5.58629e-06
5.58594e-06
5.59443e-06
5.59485e-06
5.59481e-06
5.59477e-06
5.59476e-06
5.59476e-06
5.59475e-06
5.59471e-06
5.59463e-06
5.59454e-06
5.5945e-06
5.59456e-06
5.59462e-06
5.59461e-06
5.59454e-06
5.59442e-06
5.59431e-06
5.59428e-06
5.59432e-06
5.59437e-06
5.59439e-06
5.59438e-06
5.59444e-06
5.59463e-06
5.59485e-06
5.59504e-06
5.5951e-06
5.59452e-06
5.5861e-06
5.58605e-06
5.59467e-06
5.59505e-06
5.59498e-06
5.59491e-06
5.59487e-06
5.59487e-06
5.59486e-06
5.59483e-06
5.59478e-06
5.59469e-06
5.59458e-06
5.5945e-06
5.59448e-06
5.59448e-06
5.59448e-06
5.59447e-06
5.59446e-06
5.59447e-06
5.5945e-06
5.59451e-06
5.59451e-06
5.59452e-06
5.59457e-06
5.59467e-06
5.59478e-06
5.59485e-06
5.59481e-06
5.59418e-06
5.58592e-06
5.58616e-06
5.59481e-06
5.59517e-06
5.59509e-06
5.59498e-06
5.5949e-06
5.59486e-06
5.59485e-06
5.59486e-06
5.59484e-06
5.59478e-06
5.59465e-06
5.59447e-06
5.59435e-06
5.59436e-06
5.59447e-06
5.5946e-06
5.59471e-06
5.5948e-06
5.59485e-06
5.59486e-06
5.59482e-06
5.59475e-06
5.59469e-06
5.59467e-06
5.59468e-06
5.59467e-06
5.59461e-06
5.59401e-06
5.58592e-06
5.5863e-06
5.5948e-06
5.59516e-06
5.5951e-06
5.59498e-06
5.59486e-06
5.59475e-06
5.59469e-06
5.59472e-06
5.59476e-06
5.59474e-06
5.59465e-06
5.5945e-06
5.59433e-06
5.59428e-06
5.59444e-06
5.59468e-06
5.59492e-06
5.59513e-06
5.59524e-06
5.59525e-06
5.59515e-06
5.595e-06
5.59484e-06
5.59472e-06
5.59466e-06
5.59467e-06
5.59467e-06
5.59412e-06
5.58612e-06
5.58636e-06
5.59471e-06
5.59513e-06
5.5951e-06
5.59503e-06
5.59494e-06
5.59483e-06
5.59472e-06
5.59463e-06
5.5946e-06
5.59461e-06
5.59459e-06
5.59451e-06
5.59437e-06
5.59426e-06
5.5944e-06
5.59473e-06
5.59505e-06
5.5953e-06
5.59541e-06
5.5954e-06
5.59529e-06
5.59513e-06
5.59498e-06
5.59487e-06
5.59483e-06
5.59487e-06
5.59489e-06
5.59437e-06
5.58636e-06
5.58651e-06
5.59462e-06
5.5951e-06
5.59512e-06
5.59515e-06
5.59517e-06
5.59516e-06
5.59509e-06
5.59494e-06
5.59472e-06
5.59456e-06
5.59457e-06
5.59458e-06
5.59456e-06
5.59454e-06
5.5946e-06
5.59479e-06
5.59499e-06
5.59514e-06
5.59522e-06
5.59523e-06
5.59519e-06
5.59511e-06
5.59504e-06
5.595e-06
5.59501e-06
5.59503e-06
5.59504e-06
5.59453e-06
5.58648e-06
5.58683e-06
5.59451e-06
5.59509e-06
5.59519e-06
5.59532e-06
5.59544e-06
5.5955e-06
5.59543e-06
5.59522e-06
5.59493e-06
5.59465e-06
5.59459e-06
5.59468e-06
5.59479e-06
5.59488e-06
5.59493e-06
5.59492e-06
5.59482e-06
5.59478e-06
5.59486e-06
5.59496e-06
5.59503e-06
5.59507e-06
5.59509e-06
5.59511e-06
5.59512e-06
5.59512e-06
5.59511e-06
5.59455e-06
5.58645e-06
5.58719e-06
5.59439e-06
5.59514e-06
5.59533e-06
5.59552e-06
5.59564e-06
5.59565e-06
5.59553e-06
5.59531e-06
5.59505e-06
5.59477e-06
5.59462e-06
5.59474e-06
5.59493e-06
5.59506e-06
5.59509e-06
5.59499e-06
5.59479e-06
5.59464e-06
5.59469e-06
5.59484e-06
5.59499e-06
5.59512e-06
5.59522e-06
5.59528e-06
5.59528e-06
5.59525e-06
5.59518e-06
5.59454e-06
5.58644e-06
5.58743e-06
5.59452e-06
5.59534e-06
5.59551e-06
5.59559e-06
5.59559e-06
5.59552e-06
5.59543e-06
5.59533e-06
5.59518e-06
5.59495e-06
5.5947e-06
5.59474e-06
5.59493e-06
5.59504e-06
5.59505e-06
5.59494e-06
5.59477e-06
5.59462e-06
5.59463e-06
5.59481e-06
5.59504e-06
5.59526e-06
5.59543e-06
5.59552e-06
5.59552e-06
5.59547e-06
5.59539e-06
5.59478e-06
5.58668e-06
5.58753e-06
5.59513e-06
5.5956e-06
5.59559e-06
5.59548e-06
5.59543e-06
5.59545e-06
5.59549e-06
5.59546e-06
5.59532e-06
5.59507e-06
5.59478e-06
5.59471e-06
5.59483e-06
5.59488e-06
5.59486e-06
5.59477e-06
5.59465e-06
5.59455e-06
5.5946e-06
5.59485e-06
5.59516e-06
5.59544e-06
5.59564e-06
5.59574e-06
5.59577e-06
5.59574e-06
5.59567e-06
5.59503e-06
5.58705e-06
5.58756e-06
5.59553e-06
5.59581e-06
5.59573e-06
5.59571e-06
5.59575e-06
5.59577e-06
5.59574e-06
5.59561e-06
5.59539e-06
5.59511e-06
5.59483e-06
5.5947e-06
5.5947e-06
5.59467e-06
5.59463e-06
5.5946e-06
5.59458e-06
5.59458e-06
5.59472e-06
5.59505e-06
5.59538e-06
5.59565e-06
5.59583e-06
5.59592e-06
5.59597e-06
5.59598e-06
5.59592e-06
5.59533e-06
5.58752e-06
5.58769e-06
5.59569e-06
5.5961e-06
5.59613e-06
5.59618e-06
5.59622e-06
5.59618e-06
5.59605e-06
5.59583e-06
5.59554e-06
5.59524e-06
5.59497e-06
5.59476e-06
5.59461e-06
5.59449e-06
5.59446e-06
5.59453e-06
5.59465e-06
5.59483e-06
5.59509e-06
5.59541e-06
5.5957e-06
5.59593e-06
5.59608e-06
5.59619e-06
5.59626e-06
5.59628e-06
5.59628e-06
5.59584e-06
5.58805e-06
5.588e-06
5.59586e-06
5.59654e-06
5.59665e-06
5.59674e-06
5.59676e-06
5.59667e-06
5.59648e-06
5.5962e-06
5.59587e-06
5.59555e-06
5.59524e-06
5.59492e-06
5.59463e-06
5.59443e-06
5.59445e-06
5.59467e-06
5.59496e-06
5.59527e-06
5.59558e-06
5.59587e-06
5.59612e-06
5.59633e-06
5.5965e-06
5.59664e-06
5.59674e-06
5.59684e-06
5.59695e-06
5.59652e-06
5.58865e-06
5.58855e-06
5.59645e-06
5.59719e-06
5.59733e-06
5.59741e-06
5.59739e-06
5.59725e-06
5.597e-06
5.59667e-06
5.59632e-06
5.59594e-06
5.59554e-06
5.59513e-06
5.59475e-06
5.59455e-06
5.59468e-06
5.59498e-06
5.59534e-06
5.59568e-06
5.596e-06
5.59629e-06
5.59654e-06
5.59678e-06
5.597e-06
5.59721e-06
5.59742e-06
5.59763e-06
5.59777e-06
5.59721e-06
5.58927e-06
5.58935e-06
5.59736e-06
5.59806e-06
5.59817e-06
5.59819e-06
5.59809e-06
5.59786e-06
5.59755e-06
5.59718e-06
5.59677e-06
5.59633e-06
5.59584e-06
5.59533e-06
5.59491e-06
5.59478e-06
5.59491e-06
5.59522e-06
5.5956e-06
5.59597e-06
5.59632e-06
5.59663e-06
5.59692e-06
5.59721e-06
5.59751e-06
5.59784e-06
5.59817e-06
5.59841e-06
5.59845e-06
5.59778e-06
5.58983e-06
5.59041e-06
5.59847e-06
5.59909e-06
5.59914e-06
5.59906e-06
5.59885e-06
5.59854e-06
5.59816e-06
5.59774e-06
5.59727e-06
5.59675e-06
5.59617e-06
5.5956e-06
5.59512e-06
5.59492e-06
5.59503e-06
5.59538e-06
5.59582e-06
5.59627e-06
5.59669e-06
5.59707e-06
5.59743e-06
5.59781e-06
5.59825e-06
5.59867e-06
5.59901e-06
5.59917e-06
5.59911e-06
5.59846e-06
5.5907e-06
5.59175e-06
5.59979e-06
5.60034e-06
5.60029e-06
5.60009e-06
5.59977e-06
5.59938e-06
5.59893e-06
5.59844e-06
5.59787e-06
5.59725e-06
5.59658e-06
5.59594e-06
5.59539e-06
5.59507e-06
5.59515e-06
5.5956e-06
5.59616e-06
5.59673e-06
5.59726e-06
5.59775e-06
5.59825e-06
5.59881e-06
5.59936e-06
5.59982e-06
5.6001e-06
5.6002e-06
5.6002e-06
5.59978e-06
5.59225e-06
5.59341e-06
5.60143e-06
5.6019e-06
5.60173e-06
5.6014e-06
5.60097e-06
5.60048e-06
5.59993e-06
5.5993e-06
5.59858e-06
5.59782e-06
5.59706e-06
5.59635e-06
5.59574e-06
5.59533e-06
5.5954e-06
5.59596e-06
5.59666e-06
5.59734e-06
5.59797e-06
5.59862e-06
5.59933e-06
5.60004e-06
5.60068e-06
5.60115e-06
5.60145e-06
5.60164e-06
5.60192e-06
5.60181e-06
5.5942e-06
5.5955e-06
5.60346e-06
5.60382e-06
5.60351e-06
5.60304e-06
5.60249e-06
5.60186e-06
5.60114e-06
5.60033e-06
5.59945e-06
5.59855e-06
5.59771e-06
5.59695e-06
5.59626e-06
5.59576e-06
5.59581e-06
5.59646e-06
5.59724e-06
5.598e-06
5.59878e-06
5.59962e-06
5.60048e-06
5.60129e-06
5.60198e-06
5.60251e-06
5.60294e-06
5.60339e-06
5.60398e-06
5.6039e-06
5.59586e-06
5.59804e-06
5.60581e-06
5.60606e-06
5.6056e-06
5.605e-06
5.60431e-06
5.60353e-06
5.60266e-06
5.60168e-06
5.60066e-06
5.59967e-06
5.59875e-06
5.59788e-06
5.59704e-06
5.59638e-06
5.59636e-06
5.59703e-06
5.59789e-06
5.59882e-06
5.59981e-06
5.60083e-06
5.60182e-06
5.60271e-06
5.60346e-06
5.60411e-06
5.60476e-06
5.60548e-06
5.60608e-06
5.60566e-06
5.59753e-06
5.60094e-06
5.60841e-06
5.60856e-06
5.608e-06
5.6073e-06
5.60652e-06
5.60562e-06
5.60461e-06
5.6035e-06
5.60237e-06
5.60127e-06
5.60019e-06
5.59908e-06
5.59798e-06
5.59708e-06
5.59698e-06
5.59772e-06
5.59877e-06
5.59997e-06
5.60124e-06
5.60249e-06
5.60365e-06
5.60465e-06
5.60551e-06
5.60634e-06
5.60723e-06
5.60805e-06
5.60835e-06
5.60775e-06
5.60019e-06
5.60418e-06
5.61134e-06
5.61145e-06
5.61084e-06
5.6101e-06
5.60924e-06
5.60823e-06
5.60707e-06
5.60582e-06
5.60452e-06
5.60321e-06
5.60183e-06
5.60038e-06
5.59894e-06
5.59781e-06
5.5977e-06
5.59865e-06
5.60002e-06
5.60159e-06
5.60319e-06
5.60468e-06
5.606e-06
5.60716e-06
5.60822e-06
5.60929e-06
5.61038e-06
5.61114e-06
5.61126e-06
5.61101e-06
5.60392e-06
5.60788e-06
5.61486e-06
5.61498e-06
5.61436e-06
5.61357e-06
5.61259e-06
5.6114e-06
5.61004e-06
5.60857e-06
5.60702e-06
5.60538e-06
5.60363e-06
5.60182e-06
5.60008e-06
5.59878e-06
5.59875e-06
5.59999e-06
5.60174e-06
5.60366e-06
5.60555e-06
5.60723e-06
5.60873e-06
5.61012e-06
5.61149e-06
5.61284e-06
5.61402e-06
5.61475e-06
5.61513e-06
5.6153e-06
5.60808e-06
5.61236e-06
5.61932e-06
5.61943e-06
5.61877e-06
5.61786e-06
5.61667e-06
5.61523e-06
5.61359e-06
5.61184e-06
5.60996e-06
5.60796e-06
5.60583e-06
5.60367e-06
5.60167e-06
5.60021e-06
5.60024e-06
5.6018e-06
5.6039e-06
5.60614e-06
5.6083e-06
5.6102e-06
5.61198e-06
5.61372e-06
5.61547e-06
5.61703e-06
5.61816e-06
5.61908e-06
5.61994e-06
5.62007e-06
5.61272e-06
5.61794e-06
5.62495e-06
5.625e-06
5.62421e-06
5.62307e-06
5.6216e-06
5.61986e-06
5.61793e-06
5.61586e-06
5.61363e-06
5.61123e-06
5.60869e-06
5.60615e-06
5.60381e-06
5.60209e-06
5.60214e-06
5.60399e-06
5.60646e-06
5.609e-06
5.61152e-06
5.6138e-06
5.61602e-06
5.6182e-06
5.62024e-06
5.62188e-06
5.62304e-06
5.62434e-06
5.62552e-06
5.62549e-06
5.61846e-06
5.62485e-06
5.63185e-06
5.63174e-06
5.63075e-06
5.62933e-06
5.62757e-06
5.62553e-06
5.62329e-06
5.62087e-06
5.61823e-06
5.61537e-06
5.61235e-06
5.60932e-06
5.60652e-06
5.60446e-06
5.6045e-06
5.60665e-06
5.60952e-06
5.61241e-06
5.61538e-06
5.61818e-06
5.62092e-06
5.6235e-06
5.6257e-06
5.62753e-06
5.62903e-06
5.63074e-06
5.63205e-06
5.63219e-06
5.62541e-06
5.63322e-06
5.64008e-06
5.63977e-06
5.63855e-06
5.63688e-06
5.63483e-06
5.63247e-06
5.62984e-06
5.62696e-06
5.62381e-06
5.62041e-06
5.61683e-06
5.61323e-06
5.60992e-06
5.6075e-06
5.60756e-06
5.61e-06
5.61333e-06
5.61663e-06
5.62014e-06
5.62352e-06
5.62682e-06
5.62975e-06
5.6322e-06
5.63456e-06
5.63662e-06
5.63857e-06
5.63996e-06
5.64025e-06
5.63347e-06
5.64322e-06
5.64986e-06
5.64939e-06
5.64797e-06
5.64602e-06
5.64361e-06
5.64082e-06
5.63768e-06
5.63425e-06
5.63051e-06
5.62651e-06
5.62232e-06
5.61812e-06
5.61428e-06
5.61147e-06
5.61159e-06
5.61432e-06
5.6182e-06
5.62208e-06
5.62628e-06
5.63033e-06
5.63418e-06
5.63757e-06
5.64051e-06
5.64357e-06
5.64603e-06
5.64798e-06
5.64938e-06
5.64963e-06
5.64315e-06
5.6552e-06
5.66163e-06
5.66098e-06
5.6593e-06
5.657e-06
5.65418e-06
5.65093e-06
5.64728e-06
5.64326e-06
5.63889e-06
5.63418e-06
5.62925e-06
5.62436e-06
5.61994e-06
5.61665e-06
5.61686e-06
5.61996e-06
5.62451e-06
5.62917e-06
5.63424e-06
5.639e-06
5.64341e-06
5.64738e-06
5.65097e-06
5.65454e-06
5.65713e-06
5.65912e-06
5.66061e-06
5.66114e-06
5.65523e-06
5.66964e-06
5.67581e-06
5.67487e-06
5.67287e-06
5.67027e-06
5.66714e-06
5.66349e-06
5.65931e-06
5.65462e-06
5.64946e-06
5.6439e-06
5.63811e-06
5.63246e-06
5.62747e-06
5.62352e-06
5.6238e-06
5.62737e-06
5.63267e-06
5.63823e-06
5.64421e-06
5.64967e-06
5.65471e-06
5.65941e-06
5.66364e-06
5.66752e-06
5.67032e-06
5.67267e-06
5.67458e-06
5.67565e-06
5.66989e-06
5.68699e-06
5.69271e-06
5.69153e-06
5.68936e-06
5.68651e-06
5.68301e-06
5.67881e-06
5.67392e-06
5.66842e-06
5.66242e-06
5.65603e-06
5.64943e-06
5.64293e-06
5.63733e-06
5.63255e-06
5.63277e-06
5.63701e-06
5.64311e-06
5.64964e-06
5.65646e-06
5.66258e-06
5.66847e-06
5.67402e-06
5.67882e-06
5.68306e-06
5.68638e-06
5.68928e-06
5.69166e-06
5.69291e-06
5.68716e-06
5.7076e-06
5.71301e-06
5.71169e-06
5.70932e-06
5.70603e-06
5.70187e-06
5.69696e-06
5.69136e-06
5.68514e-06
5.67833e-06
5.67103e-06
5.66359e-06
5.65593e-06
5.64961e-06
5.64406e-06
5.64406e-06
5.64925e-06
5.65623e-06
5.66364e-06
5.67131e-06
5.67829e-06
5.68521e-06
5.69162e-06
5.697e-06
5.70181e-06
5.70578e-06
5.70915e-06
5.71182e-06
5.71319e-06
5.70771e-06
5.73225e-06
5.73762e-06
5.73594e-06
5.73304e-06
5.72917e-06
5.72444e-06
5.71899e-06
5.71278e-06
5.70575e-06
5.69791e-06
5.68945e-06
5.68123e-06
5.67228e-06
5.66494e-06
5.65892e-06
5.65854e-06
5.66472e-06
5.67271e-06
5.68102e-06
5.68965e-06
5.69786e-06
5.70583e-06
5.71292e-06
5.71902e-06
5.72457e-06
5.72917e-06
5.73298e-06
5.73588e-06
5.73768e-06
5.73237e-06
5.76179e-06
5.76705e-06
5.76479e-06
5.76143e-06
5.75722e-06
5.75214e-06
5.74609e-06
5.739e-06
5.731e-06
5.72227e-06
5.71261e-06
5.70365e-06
5.69364e-06
5.68458e-06
5.67821e-06
5.67765e-06
5.68452e-06
5.69367e-06
5.70331e-06
5.71286e-06
5.72227e-06
5.73111e-06
5.73883e-06
5.74593e-06
5.75225e-06
5.75738e-06
5.76163e-06
5.76475e-06
5.76693e-06
5.76176e-06
5.79722e-06
5.8022e-06
5.79937e-06
5.79582e-06
5.79131e-06
5.78559e-06
5.77862e-06
5.77068e-06
5.76189e-06
5.75247e-06
5.74161e-06
5.73118e-06
5.72086e-06
5.70992e-06
5.70233e-06
5.7025e-06
5.71027e-06
5.72016e-06
5.73124e-06
5.74186e-06
5.75224e-06
5.76201e-06
5.77061e-06
5.77873e-06
5.78559e-06
5.79118e-06
5.79591e-06
5.79956e-06
5.80202e-06
5.79723e-06
5.83977e-06
5.84464e-06
5.84135e-06
5.83741e-06
5.83212e-06
5.82545e-06
5.81778e-06
5.80933e-06
5.79953e-06
5.78909e-06
5.77795e-06
5.76565e-06
5.75441e-06
5.74299e-06
5.73343e-06
5.73391e-06
5.74318e-06
5.75394e-06
5.76602e-06
5.77782e-06
5.78917e-06
5.79978e-06
5.80935e-06
5.81813e-06
5.82556e-06
5.83192e-06
5.83726e-06
5.84199e-06
5.84484e-06
5.83936e-06
5.89156e-06
5.89718e-06
5.89311e-06
5.88791e-06
5.88144e-06
5.87429e-06
5.86625e-06
5.85698e-06
5.84623e-06
5.83472e-06
5.82352e-06
5.81078e-06
5.79737e-06
5.78623e-06
5.77614e-06
5.77596e-06
5.78598e-06
5.79802e-06
5.81068e-06
5.82316e-06
5.83531e-06
5.84633e-06
5.85677e-06
5.86611e-06
5.87431e-06
5.88185e-06
5.88802e-06
5.89326e-06
5.89707e-06
5.89075e-06
5.95611e-06
5.96376e-06
5.95767e-06
5.95108e-06
5.94433e-06
5.9365e-06
5.92696e-06
5.91678e-06
5.90738e-06
5.89719e-06
5.8864e-06
5.87827e-06
5.86862e-06
5.8596e-06
5.85351e-06
5.85398e-06
5.85996e-06
5.86816e-06
5.87756e-06
5.88736e-06
5.89725e-06
5.90734e-06
5.91746e-06
5.9267e-06
5.93582e-06
5.94468e-06
5.95156e-06
5.95715e-06
5.96297e-06
5.95577e-06
6.04218e-06
6.05785e-06
6.0491e-06
6.04353e-06
6.04094e-06
6.02973e-06
6.0218e-06
6.02123e-06
6.02063e-06
6.02731e-06
6.04861e-06
6.07712e-06
6.11603e-06
6.16214e-06
6.20614e-06
6.20673e-06
6.16224e-06
6.11621e-06
6.07806e-06
6.04885e-06
6.02716e-06
6.02148e-06
6.02086e-06
6.02207e-06
6.03048e-06
6.04015e-06
6.04333e-06
6.05001e-06
6.05744e-06
6.0403e-06
6.19699e-06
6.27092e-06
6.25782e-06
6.26226e-06
6.33071e-06
6.31259e-06
6.31142e-06
6.42552e-06
6.50343e-06
6.60716e-06
6.90314e-06
7.21341e-06
7.56855e-06
7.9611e-06
8.29136e-06
8.29365e-06
7.96164e-06
7.57008e-06
7.21739e-06
6.90724e-06
6.60968e-06
6.50599e-06
6.42711e-06
6.31196e-06
6.31337e-06
6.3306e-06
6.2628e-06
6.25783e-06
6.27111e-06
6.19597e-06
6.62597e-06
7.08185e-06
7.02283e-06
7.11556e-06
7.97506e-06
7.80656e-06
7.59945e-06
9.05184e-06
9.20396e-06
9.07322e-06
1.0896e-05
1.16144e-05
1.26707e-05
1.38719e-05
1.46785e-05
1.46832e-05
1.38714e-05
1.26814e-05
1.16228e-05
1.09075e-05
9.08459e-06
9.22015e-06
9.05708e-06
7.60418e-06
7.8182e-06
7.96701e-06
7.11925e-06
7.02505e-06
7.08041e-06
6.62419e-06
7.91697e-06
1.03881e-05
9.74617e-06
1.01437e-05
1.7333e-05
1.47855e-05
1.08942e-05
2.26841e-05
1.9161e-05
1.41926e-05
2.19488e-05
1.99789e-05
2.14459e-05
2.36187e-05
2.44296e-05
2.44444e-05
2.36066e-05
2.14795e-05
1.99773e-05
2.19653e-05
1.42095e-05
1.92248e-05
2.26603e-05
1.09058e-05
1.48853e-05
1.72272e-05
1.01693e-05
9.76258e-06
1.03828e-05
7.91161e-06
1.06913e-05
1.83051e-05
1.43527e-05
1.53759e-05
3.53837e-05
2.53599e-05
1.94948e-05
4.45843e-05
3.46972e-05
2.7195e-05
3.96417e-05
3.02818e-05
3.2572e-05
3.47579e-05
3.53511e-05
3.53775e-05
3.47282e-05
3.2538e-05
3.02465e-05
3.96645e-05
2.72227e-05
3.48251e-05
4.45795e-05
1.95197e-05
2.56664e-05
3.50464e-05
1.54488e-05
1.43944e-05
1.8294e-05
1.06866e-05
1.46898e-05
2.06133e-05
1.54574e-05
2.43259e-05
2.73362e-05
2.59711e-05
3.13113e-05
4.27647e-05
4.06635e-05
3.60897e-05
4.83925e-05
3.82648e-05
4.11461e-05
4.15307e-05
4.1971e-05
4.19367e-05
4.14488e-05
4.09846e-05
3.83001e-05
4.84156e-05
3.61613e-05
4.07674e-05
4.28931e-05
3.12908e-05
2.61869e-05
2.72251e-05
2.42507e-05
1.54851e-05
2.0574e-05
1.4676e-05
1.77054e-05
2.83091e-05
1.95883e-05
2.42733e-05
4.33087e-05
3.88809e-05
3.54027e-05
4.89544e-05
4.8607e-05
4.1906e-05
5.34907e-05
4.71058e-05
4.40985e-05
4.49685e-05
4.49933e-05
4.50265e-05
4.49957e-05
4.41339e-05
4.6897e-05
5.34829e-05
4.1914e-05
4.8672e-05
4.91582e-05
3.53567e-05
3.92063e-05
4.31149e-05
2.41062e-05
1.94701e-05
2.8316e-05
1.7802e-05
2.0521e-05
2.23426e-05
2.30218e-05
2.34969e-05
3.47643e-05
3.60715e-05
3.66784e-05
5.17672e-05
4.97774e-05
4.39854e-05
5.30175e-05
4.88034e-05
4.89492e-05
5.0126e-05
5.03213e-05
5.03761e-05
5.01066e-05
4.91384e-05
4.8706e-05
5.31192e-05
4.42186e-05
4.95996e-05
5.20013e-05
3.66117e-05
3.63881e-05
3.46702e-05
2.37797e-05
2.29138e-05
2.22904e-05
2.04845e-05
1.91357e-05
2.00175e-05
2.26628e-05
2.68474e-05
3.09002e-05
3.26255e-05
3.37493e-05
3.51749e-05
3.8042e-05
4.01212e-05
4.18827e-05
4.38436e-05
4.5642e-05
4.64585e-05
4.72832e-05
4.72402e-05
4.64683e-05
4.57585e-05
4.3908e-05
4.18249e-05
4.02723e-05
3.78599e-05
3.53596e-05
3.38874e-05
3.28419e-05
3.06919e-05
2.68712e-05
2.26376e-05
1.99632e-05
1.89286e-05
1.83201e-05
1.88676e-05
2.10853e-05
2.43877e-05
2.78882e-05
3.0239e-05
3.13941e-05
3.16455e-05
3.27744e-05
3.33789e-05
3.40881e-05
3.53467e-05
3.64457e-05
3.76003e-05
3.86698e-05
3.8686e-05
3.76839e-05
3.66919e-05
3.53374e-05
3.41892e-05
3.36187e-05
3.26814e-05
3.17708e-05
3.13466e-05
3.02633e-05
2.78861e-05
2.45412e-05
2.11926e-05
1.91145e-05
1.82286e-05
1.66876e-05
1.64751e-05
1.70819e-05
1.85054e-05
2.1005e-05
2.35915e-05
2.63484e-05
2.87634e-05
3.05677e-05
3.1782e-05
3.2894e-05
3.37251e-05
3.45385e-05
3.51045e-05
3.52705e-05
3.53721e-05
3.51888e-05
3.46629e-05
3.38716e-05
3.28785e-05
3.19437e-05
3.07055e-05
2.87242e-05
2.63871e-05
2.37874e-05
2.10025e-05
1.85929e-05
1.70298e-05
1.65815e-05
1.6837e-05
1.54855e-05
1.48603e-05
1.48015e-05
1.51404e-05
1.57749e-05
1.69961e-05
1.89753e-05
2.13524e-05
2.46644e-05
2.8369e-05
3.10243e-05
3.30547e-05
3.43186e-05
3.47052e-05
3.48074e-05
3.48367e-05
3.47921e-05
3.42829e-05
3.31245e-05
3.11365e-05
2.83371e-05
2.47816e-05
2.14811e-05
1.90006e-05
1.70815e-05
1.58602e-05
1.51803e-05
1.47886e-05
1.48203e-05
1.54476e-05
1.41478e-05
1.34837e-05
1.32822e-05
1.33804e-05
1.35367e-05
1.38291e-05
1.44082e-05
1.5611e-05
1.75886e-05
2.08321e-05
2.56398e-05
2.9966e-05
3.26987e-05
3.42142e-05
3.48987e-05
3.49441e-05
3.4304e-05
3.26918e-05
3.00153e-05
2.56724e-05
2.0968e-05
1.7527e-05
1.56788e-05
1.44642e-05
1.38708e-05
1.35278e-05
1.34273e-05
1.34025e-05
1.35457e-05
1.41719e-05
1.30672e-05
1.24234e-05
1.23983e-05
1.23018e-05
1.22557e-05
1.2271e-05
1.2507e-05
1.28968e-05
1.3497e-05
1.48243e-05
1.78404e-05
2.26699e-05
2.76134e-05
3.09781e-05
3.26868e-05
3.2629e-05
3.09764e-05
2.76778e-05
2.26708e-05
1.78072e-05
1.49182e-05
1.35152e-05
1.28846e-05
1.25432e-05
1.2312e-05
1.22512e-05
1.23198e-05
1.23511e-05
1.24352e-05
1.31324e-05
1.221e-05
1.17097e-05
1.15598e-05
1.1486e-05
1.15262e-05
1.14867e-05
1.15293e-05
1.16826e-05
1.18673e-05
1.22596e-05
1.30272e-05
1.50381e-05
1.87226e-05
2.315e-05
2.63551e-05
2.63162e-05
2.31341e-05
1.87607e-05
1.50381e-05
1.30846e-05
1.22576e-05
1.19173e-05
1.16536e-05
1.1551e-05
1.14906e-05
1.14972e-05
1.15002e-05
1.16012e-05
1.16406e-05
1.22225e-05
1.1529e-05
1.09757e-05
1.08641e-05
1.0933e-05
1.08607e-05
1.08529e-05
1.09261e-05
1.09541e-05
1.10299e-05
1.11644e-05
1.13151e-05
1.17284e-05
1.26859e-05
1.43321e-05
1.63331e-05
1.632e-05
1.43116e-05
1.26965e-05
1.17059e-05
1.13879e-05
1.11553e-05
1.10634e-05
1.09854e-05
1.09304e-05
1.08721e-05
1.09079e-05
1.09166e-05
1.0916e-05
1.10063e-05
1.14809e-05
1.08364e-05
1.03884e-05
1.03718e-05
1.03707e-05
1.03421e-05
1.03675e-05
1.03965e-05
1.03931e-05
1.04535e-05
1.04924e-05
1.05151e-05
1.05817e-05
1.07249e-05
1.09503e-05
1.13101e-05
1.13121e-05
1.09622e-05
1.07352e-05
1.05757e-05
1.05442e-05
1.04913e-05
1.04505e-05
1.04207e-05
1.03876e-05
1.03571e-05
1.03547e-05
1.03787e-05
1.03503e-05
1.04532e-05
1.08675e-05
1.02535e-05
9.92663e-06
9.8908e-06
9.86291e-06
9.86376e-06
9.88337e-06
9.87959e-06
9.88724e-06
9.91643e-06
9.91074e-06
9.91209e-06
9.91046e-06
9.87981e-06
9.85898e-06
9.87799e-06
9.87284e-06
9.8748e-06
9.86689e-06
9.90552e-06
9.92828e-06
9.93984e-06
9.93466e-06
9.92015e-06
9.87954e-06
9.86127e-06
9.86356e-06
9.87883e-06
9.87609e-06
9.95422e-06
1.03231e-05
9.81671e-06
9.48183e-06
9.41038e-06
9.41327e-06
9.43309e-06
9.42414e-06
9.40699e-06
9.41026e-06
9.41356e-06
9.39622e-06
9.37402e-06
9.34256e-06
9.2833e-06
9.23241e-06
9.20066e-06
9.1948e-06
9.26106e-06
9.29141e-06
9.34473e-06
9.38205e-06
9.41554e-06
9.43229e-06
9.43479e-06
9.41685e-06
9.40715e-06
9.42882e-06
9.43677e-06
9.43959e-06
9.48974e-06
9.82979e-06
9.36448e-06
9.03236e-06
8.99682e-06
9.03298e-06
9.01839e-06
8.99595e-06
8.98679e-06
8.98475e-06
8.96355e-06
8.91649e-06
8.86783e-06
8.82768e-06
8.77795e-06
8.73003e-06
8.68904e-06
8.67668e-06
8.73407e-06
8.77829e-06
8.8294e-06
8.88154e-06
8.92903e-06
8.96638e-06
8.98609e-06
8.99284e-06
8.99972e-06
9.01668e-06
9.02382e-06
9.02878e-06
9.06722e-06
9.37213e-06
8.94929e-06
8.65036e-06
8.64525e-06
8.64367e-06
8.61269e-06
8.61006e-06
8.60132e-06
8.57385e-06
8.52646e-06
8.47172e-06
8.42587e-06
8.38056e-06
8.31497e-06
8.25393e-06
8.21317e-06
8.21346e-06
8.26169e-06
8.30968e-06
8.36563e-06
8.43694e-06
8.50109e-06
8.54492e-06
8.57209e-06
8.59007e-06
8.61225e-06
8.63309e-06
8.63978e-06
8.64147e-06
8.67242e-06
8.94332e-06
8.54234e-06
8.31797e-06
8.28882e-06
8.25567e-06
8.25411e-06
8.25142e-06
8.21984e-06
8.16983e-06
8.1165e-06
8.06654e-06
8.02102e-06
7.96192e-06
7.88325e-06
7.8222e-06
7.79219e-06
7.79871e-06
7.83554e-06
7.88123e-06
7.94316e-06
8.02326e-06
8.09585e-06
8.1501e-06
8.19288e-06
8.22597e-06
8.25169e-06
8.2668e-06
8.27209e-06
8.27422e-06
8.30677e-06
8.55663e-06
8.22235e-06
7.98331e-06
7.93549e-06
7.94064e-06
7.94478e-06
7.91477e-06
7.86458e-06
7.81161e-06
7.76996e-06
7.7257e-06
7.66214e-06
7.58056e-06
7.49883e-06
7.44699e-06
7.41858e-06
7.41458e-06
7.44282e-06
7.49725e-06
7.5748e-06
7.66304e-06
7.74019e-06
7.79808e-06
7.84349e-06
7.87805e-06
7.90508e-06
7.92344e-06
7.93634e-06
7.94705e-06
7.98489e-06
8.21548e-06
7.87153e-06
7.66198e-06
7.65068e-06
7.66401e-06
7.63098e-06
7.58988e-06
7.54521e-06
7.50662e-06
7.47438e-06
7.41898e-06
7.33511e-06
7.24777e-06
7.17738e-06
7.13193e-06
7.09748e-06
7.08463e-06
7.11292e-06
7.17519e-06
7.25556e-06
7.33769e-06
7.41001e-06
7.47009e-06
7.52112e-06
7.56278e-06
7.59614e-06
7.62179e-06
7.64157e-06
7.65912e-06
7.69843e-06
7.9003e-06
7.56731e-06
7.411e-06
7.4124e-06
7.37558e-06
7.33418e-06
7.30414e-06
7.26698e-06
7.23244e-06
7.19323e-06
7.12724e-06
7.04359e-06
6.96548e-06
6.89883e-06
6.84249e-06
6.7974e-06
6.78411e-06
6.81918e-06
6.88783e-06
6.96813e-06
7.04733e-06
7.12085e-06
7.18708e-06
7.24486e-06
7.29054e-06
7.3254e-06
7.35264e-06
7.37555e-06
7.39579e-06
7.43143e-06
7.60317e-06
7.32326e-06
7.20025e-06
7.15238e-06
7.10768e-06
7.09102e-06
7.06543e-06
7.02721e-06
6.98696e-06
6.93903e-06
6.87406e-06
6.80177e-06
6.73029e-06
6.65803e-06
6.59172e-06
6.54607e-06
6.54152e-06
6.58305e-06
6.6513e-06
6.72693e-06
6.80165e-06
6.87483e-06
6.94467e-06
7.00551e-06
7.05165e-06
7.08414e-06
7.10872e-06
7.13009e-06
7.14961e-06
7.18206e-06
7.33255e-06
7.08466e-06
6.97068e-06
6.90843e-06
6.90235e-06
6.89165e-06
6.85762e-06
6.81434e-06
6.77044e-06
6.72494e-06
6.66916e-06
6.60302e-06
6.52888e-06
6.45241e-06
6.3884e-06
6.35201e-06
6.35494e-06
6.39431e-06
6.45433e-06
6.52284e-06
6.59454e-06
6.66716e-06
6.7362e-06
6.79458e-06
6.8381e-06
6.86828e-06
6.89151e-06
6.91243e-06
6.93201e-06
6.96287e-06
7.09386e-06
6.88457e-06
6.74772e-06
6.73403e-06
6.73354e-06
6.70528e-06
6.66674e-06
6.62672e-06
6.59095e-06
6.55333e-06
6.4999e-06
6.42883e-06
6.35036e-06
6.27769e-06
6.22389e-06
6.19681e-06
6.20246e-06
6.23722e-06
6.29018e-06
6.35327e-06
6.42051e-06
6.48803e-06
6.55163e-06
6.60694e-06
6.65121e-06
6.68473e-06
6.71048e-06
6.73107e-06
6.7477e-06
6.77187e-06
6.87978e-06
6.67472e-06
6.58158e-06
6.57906e-06
6.55702e-06
6.53058e-06
6.50302e-06
6.47564e-06
6.44746e-06
6.40648e-06
6.34649e-06
6.27591e-06
6.20794e-06
6.14936e-06
6.10386e-06
6.07627e-06
6.07649e-06
6.10492e-06
6.15255e-06
6.2114e-06
6.2741e-06
6.33687e-06
6.39676e-06
6.451e-06
6.49612e-06
6.53054e-06
6.55469e-06
6.57055e-06
6.5809e-06
6.59765e-06
6.68664e-06
6.49821e-06
6.45791e-06
6.42252e-06
6.40418e-06
6.3925e-06
6.37376e-06
6.35232e-06
6.31951e-06
6.26919e-06
6.21042e-06
6.15488e-06
6.10517e-06
6.05617e-06
6.0087e-06
5.9745e-06
5.97072e-06
5.99914e-06
6.04742e-06
6.10437e-06
6.16232e-06
6.21803e-06
6.26982e-06
6.31644e-06
6.35578e-06
6.38595e-06
6.40679e-06
6.41996e-06
6.42874e-06
6.44406e-06
6.52028e-06
6.39074e-06
6.31802e-06
6.28973e-06
6.29065e-06
6.27909e-06
6.26039e-06
6.23768e-06
6.19938e-06
6.15075e-06
6.10604e-06
6.06733e-06
6.02493e-06
5.9735e-06
5.92157e-06
5.88799e-06
5.88934e-06
5.92141e-06
5.96808e-06
6.01818e-06
6.06635e-06
6.11139e-06
6.15376e-06
6.19283e-06
6.22749e-06
6.25607e-06
6.27757e-06
6.29255e-06
6.30324e-06
6.31834e-06
6.38094e-06
6.2576e-06
6.18222e-06
6.19161e-06
6.19095e-06
6.17112e-06
6.15446e-06
6.13215e-06
6.09677e-06
6.05979e-06
6.02831e-06
5.99391e-06
5.94753e-06
5.89335e-06
5.84584e-06
5.82077e-06
5.82626e-06
5.85466e-06
5.89287e-06
5.93412e-06
5.97655e-06
6.01885e-06
6.05967e-06
6.09723e-06
6.12987e-06
6.15643e-06
6.17639e-06
6.1903e-06
6.19991e-06
6.21207e-06
6.26039e-06
6.12196e-06
6.11402e-06
6.121e-06
6.0993e-06
6.07939e-06
6.0676e-06
6.04689e-06
6.0178e-06
5.98895e-06
5.9587e-06
5.91974e-06
5.87265e-06
5.82702e-06
5.79344e-06
5.77709e-06
5.78009e-06
5.79981e-06
5.83034e-06
5.86873e-06
5.91245e-06
5.95684e-06
5.99675e-06
6.02948e-06
6.0545e-06
6.07291e-06
6.08656e-06
6.09701e-06
6.10549e-06
6.11653e-06
6.15527e-06
6.06361e-06
6.07727e-06
6.04843e-06
6.01978e-06
6.01019e-06
6.00101e-06
5.98153e-06
5.95751e-06
5.93072e-06
5.8971e-06
5.8574e-06
5.81917e-06
5.78952e-06
5.76893e-06
5.75566e-06
5.75352e-06
5.76586e-06
5.79182e-06
5.82849e-06
5.86981e-06
5.90876e-06
5.94019e-06
5.96252e-06
5.9778e-06
5.98976e-06
6.00114e-06
6.01267e-06
6.02381e-06
6.03646e-06
6.06851e-06
6.0278e-06
5.99962e-06
5.96287e-06
5.95339e-06
5.95327e-06
5.94304e-06
5.92553e-06
5.90588e-06
5.88092e-06
5.84903e-06
5.81611e-06
5.78955e-06
5.77011e-06
5.75289e-06
5.73748e-06
5.73145e-06
5.74056e-06
5.76326e-06
5.79409e-06
5.82629e-06
5.85425e-06
5.87574e-06
5.89217e-06
5.90676e-06
5.92167e-06
5.93687e-06
5.95115e-06
5.96352e-06
5.97478e-06
5.99742e-06
5.95023e-06
5.90575e-06
5.89842e-06
5.90655e-06
5.90381e-06
5.88945e-06
5.87337e-06
5.85646e-06
5.83454e-06
5.80851e-06
5.78346e-06
5.76253e-06
5.7437e-06
5.72442e-06
5.70818e-06
5.70392e-06
5.71468e-06
5.73539e-06
5.75967e-06
5.78263e-06
5.8027e-06
5.82145e-06
5.84105e-06
5.86145e-06
5.88049e-06
5.89626e-06
5.90838e-06
5.91649e-06
5.92129e-06
5.9329e-06
5.87041e-06
5.85504e-06
5.86954e-06
5.87312e-06
5.86053e-06
5.8441e-06
5.82998e-06
5.81468e-06
5.79565e-06
5.77448e-06
5.75334e-06
5.73252e-06
5.71159e-06
5.69248e-06