/*--------------------------------*- C++ -*----------------------------------*\
| =========                 |                                                 |
| \\      /  F ield         | OpenFOAM: The Open Source CFD Toolbox           |
|  \\    /   O peration     | Version:  2312                                  |
|   \\  /    A nd           | Website:  www.openfoam.com                      |
|    \\/     M anipulation  |                                                 |
\*---------------------------------------------------------------------------*/
FoamFile
{
    version     2.0;
    format      ascii;
    arch        "LSB;label=32;scalar=64";
    class       volScalarField;
    location    "0.822131";
    object      p;
}
// * * * * * * * * * * * * * * * * * * * * * * * * * * * * * * * * * * * * * //

dimensions      [1 -1 -2 0 0 0 0];

internalField   nonuniform List<scalar> 
90000
(
4849.73
4849.73
4849.73
4849.73
4849.73
4849.73
4849.73
4849.73
4849.73
4849.73
4849.73
4849.72
4849.72
4849.73
4849.73
4849.73
4849.73
4849.73
4849.73
4849.73
4849.73
4849.73
4849.73
4849.73
4849.73
4849.73
4849.73
4849.73
4849.73
4849.73
4751.63
4751.62
4751.62
4751.62
4751.62
4751.62
4751.62
4751.63
4751.63
4751.63
4751.63
4751.63
4751.62
4751.62
4751.62
4751.62
4751.62
4751.62
4751.62
4751.62
4751.62
4751.62
4751.63
4751.63
4751.63
4751.63
4751.63
4751.63
4751.63
4751.63
4653.52
4653.52
4653.52
4653.52
4653.52
4653.52
4653.52
4653.52
4653.52
4653.53
4653.53
4653.53
4653.52
4653.52
4653.52
4653.52
4653.52
4653.52
4653.52
4653.52
4653.52
4653.52
4653.53
4653.53
4653.53
4653.53
4653.53
4653.53
4653.53
4653.53
4555.42
4555.42
4555.42
4555.42
4555.42
4555.42
4555.42
4555.42
4555.42
4555.42
4555.42
4555.42
4555.42
4555.42
4555.42
4555.42
4555.42
4555.42
4555.42
4555.42
4555.42
4555.43
4555.43
4555.43
4555.43
4555.42
4555.42
4555.42
4555.42
4555.42
4457.32
4457.32
4457.32
4457.32
4457.32
4457.32
4457.32
4457.32
4457.32
4457.32
4457.32
4457.32
4457.32
4457.32
4457.32
4457.32
4457.32
4457.32
4457.33
4457.33
4457.33
4457.33
4457.33
4457.33
4457.33
4457.32
4457.32
4457.32
4457.32
4457.32
4359.22
4359.22
4359.22
4359.22
4359.22
4359.22
4359.22
4359.22
4359.22
4359.22
4359.22
4359.22
4359.22
4359.22
4359.23
4359.23
4359.23
4359.23
4359.23
4359.23
4359.23
4359.23
4359.23
4359.23
4359.23
4359.23
4359.22
4359.22
4359.22
4359.23
4261.13
4261.13
4261.13
4261.13
4261.12
4261.12
4261.12
4261.12
4261.12
4261.12
4261.12
4261.12
4261.13
4261.13
4261.13
4261.13
4261.13
4261.13
4261.13
4261.13
4261.13
4261.13
4261.13
4261.13
4261.13
4261.13
4261.13
4261.13
4261.13
4261.13
4163.03
4163.03
4163.03
4163.03
4163.03
4163.03
4163.03
4163.02
4163.02
4163.02
4163.02
4163.03
4163.03
4163.03
4163.03
4163.03
4163.03
4163.03
4163.03
4163.03
4163.03
4163.03
4163.03
4163.03
4163.03
4163.03
4163.03
4163.03
4163.03
4163.03
4064.93
4064.93
4064.93
4064.93
4064.93
4064.93
4064.93
4064.93
4064.93
4064.93
4064.93
4064.93
4064.93
4064.93
4064.93
4064.93
4064.93
4064.93
4064.93
4064.93
4064.93
4064.93
4064.93
4064.93
4064.93
4064.93
4064.93
4064.93
4064.93
4064.93
3966.83
3966.83
3966.83
3966.83
3966.83
3966.83
3966.83
3966.83
3966.83
3966.83
3966.83
3966.83
3966.83
3966.83
3966.83
3966.83
3966.83
3966.83
3966.83
3966.83
3966.83
3966.83
3966.83
3966.83
3966.84
3966.84
3966.84
3966.84
3966.84
3966.83
3868.73
3868.73
3868.73
3868.73
3868.73
3868.73
3868.73
3868.73
3868.73
3868.73
3868.73
3868.73
3868.73
3868.73
3868.73
3868.73
3868.73
3868.73
3868.73
3868.74
3868.74
3868.74
3868.74
3868.74
3868.74
3868.74
3868.74
3868.74
3868.74
3868.74
3770.63
3770.63
3770.63
3770.63
3770.63
3770.63
3770.63
3770.63
3770.63
3770.64
3770.64
3770.64
3770.64
3770.64
3770.64
3770.64
3770.64
3770.64
3770.64
3770.64
3770.64
3770.64
3770.64
3770.64
3770.64
3770.64
3770.64
3770.64
3770.64
3770.64
3672.53
3672.53
3672.53
3672.53
3672.53
3672.53
3672.53
3672.54
3672.54
3672.54
3672.54
3672.54
3672.54
3672.54
3672.54
3672.54
3672.54
3672.54
3672.54
3672.54
3672.54
3672.54
3672.54
3672.54
3672.54
3672.54
3672.54
3672.54
3672.54
3672.54
3574.43
3574.43
3574.43
3574.43
3574.43
3574.44
3574.44
3574.44
3574.44
3574.45
3574.45
3574.45
3574.45
3574.45
3574.45
3574.45
3574.45
3574.45
3574.45
3574.45
3574.45
3574.45
3574.45
3574.44
3574.44
3574.44
3574.44
3574.44
3574.44
3574.44
3476.33
3476.33
3476.33
3476.34
3476.34
3476.34
3476.34
3476.35
3476.35
3476.35
3476.35
3476.36
3476.36
3476.36
3476.36
3476.36
3476.35
3476.35
3476.35
3476.35
3476.35
3476.35
3476.35
3476.35
3476.35
3476.35
3476.34
3476.34
3476.34
3476.34
3378.24
3378.24
3378.24
3378.24
3378.24
3378.25
3378.25
3378.25
3378.25
3378.26
3378.26
3378.26
3378.26
3378.26
3378.26
3378.26
3378.26
3378.26
3378.26
3378.26
3378.25
3378.25
3378.25
3378.25
3378.25
3378.25
3378.25
3378.25
3378.25
3378.25
3280.14
3280.15
3280.15
3280.15
3280.15
3280.15
3280.15
3280.16
3280.16
3280.16
3280.16
3280.16
3280.16
3280.17
3280.17
3280.17
3280.16
3280.16
3280.16
3280.16
3280.16
3280.16
3280.15
3280.15
3280.15
3280.15
3280.15
3280.15
3280.15
3280.15
3182.05
3182.05
3182.05
3182.05
3182.06
3182.06
3182.06
3182.06
3182.06
3182.06
3182.07
3182.07
3182.07
3182.07
3182.07
3182.07
3182.07
3182.07
3182.07
3182.06
3182.06
3182.06
3182.06
3182.05
3182.05
3182.05
3182.05
3182.05
3182.05
3182.05
3083.95
3083.95
3083.95
3083.96
3083.96
3083.96
3083.96
3083.96
3083.96
3083.97
3083.97
3083.97
3083.97
3083.97
3083.97
3083.97
3083.97
3083.97
3083.97
3083.97
3083.96
3083.96
3083.96
3083.95
3083.95
3083.95
3083.95
3083.95
3083.95
3083.94
2985.85
2985.85
2985.85
2985.85
2985.86
2985.86
2985.86
2985.86
2985.86
2985.87
2985.87
2985.87
2985.87
2985.87
2985.87
2985.87
2985.87
2985.87
2985.87
2985.87
2985.86
2985.86
2985.86
2985.86
2985.85
2985.85
2985.85
2985.85
2985.84
2985.84
2887.74
2887.75
2887.75
2887.75
2887.75
2887.75
2887.76
2887.76
2887.76
2887.76
2887.77
2887.77
2887.77
2887.77
2887.77
2887.77
2887.77
2887.77
2887.77
2887.77
2887.76
2887.76
2887.76
2887.75
2887.75
2887.75
2887.74
2887.74
2887.74
2887.74
2789.63
2789.64
2789.64
2789.64
2789.64
2789.64
2789.65
2789.65
2789.65
2789.66
2789.66
2789.66
2789.67
2789.67
2789.67
2789.67
2789.67
2789.67
2789.67
2789.67
2789.66
2789.66
2789.65
2789.65
2789.64
2789.64
2789.64
2789.63
2789.63
2789.63
2691.52
2691.52
2691.52
2691.52
2691.53
2691.53
2691.54
2691.54
2691.55
2691.55
2691.55
2691.56
2691.56
2691.57
2691.57
2691.57
2691.57
2691.57
2691.56
2691.56
2691.56
2691.55
2691.55
2691.54
2691.53
2691.53
2691.52
2691.52
2691.52
2691.52
2593.4
2593.4
2593.41
2593.41
2593.41
2593.42
2593.42
2593.43
2593.44
2593.44
2593.45
2593.45
2593.46
2593.46
2593.46
2593.46
2593.46
2593.46
2593.46
2593.45
2593.45
2593.44
2593.43
2593.43
2593.42
2593.41
2593.41
2593.41
2593.4
2593.4
2495.28
2495.28
2495.29
2495.29
2495.29
2495.3
2495.31
2495.32
2495.32
2495.33
2495.34
2495.34
2495.35
2495.35
2495.35
2495.35
2495.35
2495.35
2495.35
2495.34
2495.33
2495.33
2495.32
2495.31
2495.3
2495.3
2495.29
2495.28
2495.28
2495.28
2397.16
2397.16
2397.16
2397.17
2397.17
2397.18
2397.19
2397.2
2397.21
2397.22
2397.23
2397.23
2397.24
2397.24
2397.24
2397.24
2397.24
2397.24
2397.23
2397.23
2397.22
2397.21
2397.2
2397.19
2397.18
2397.17
2397.17
2397.16
2397.16
2397.15
2299.03
2299.03
2299.04
2299.04
2299.05
2299.06
2299.07
2299.08
2299.09
2299.1
2299.11
2299.12
2299.13
2299.13
2299.13
2299.13
2299.13
2299.12
2299.12
2299.11
2299.1
2299.09
2299.08
2299.07
2299.06
2299.05
2299.04
2299.03
2299.03
2299.03
2200.9
2200.9
2200.91
2200.92
2200.93
2200.94
2200.95
2200.96
2200.97
2200.99
2201
2201
2201.01
2201.01
2201.02
2201.02
2201.01
2201.01
2201
2200.99
2200.98
2200.97
2200.96
2200.95
2200.93
2200.92
2200.91
2200.9
2200.9
2200.9
2102.76
2102.77
2102.77
2102.78
2102.79
2102.81
2102.82
2102.83
2102.85
2102.86
2102.87
2102.88
2102.89
2102.9
2102.9
2102.9
2102.89
2102.89
2102.88
2102.87
2102.86
2102.85
2102.83
2102.82
2102.8
2102.79
2102.78
2102.77
2102.76
2102.76
2004.62
2004.63
2004.63
2004.64
2004.66
2004.67
2004.69
2004.7
2004.72
2004.73
2004.75
2004.76
2004.77
2004.77
2004.78
2004.78
2004.77
2004.76
2004.76
2004.74
2004.73
2004.72
2004.7
2004.68
2004.67
2004.65
2004.64
2004.63
2004.62
2004.62
1906.48
1906.48
1906.49
1906.5
1906.51
1906.53
1906.55
1906.56
1906.58
1906.6
1906.61
1906.63
1906.64
1906.64
1906.65
1906.64
1906.64
1906.63
1906.62
1906.61
1906.59
1906.58
1906.56
1906.54
1906.52
1906.51
1906.49
1906.48
1906.48
1906.47
1808.32
1808.32
1808.33
1808.34
1808.36
1808.38
1808.4
1808.42
1808.44
1808.45
1808.47
1808.48
1808.5
1808.5
1808.51
1808.51
1808.5
1808.49
1808.48
1808.47
1808.45
1808.43
1808.41
1808.39
1808.37
1808.36
1808.34
1808.33
1808.32
1808.32
1710.16
1710.16
1710.17
1710.18
1710.2
1710.22
1710.24
1710.26
1710.28
1710.3
1710.32
1710.33
1710.35
1710.35
1710.36
1710.36
1710.35
1710.34
1710.33
1710.31
1710.3
1710.27
1710.25
1710.23
1710.21
1710.2
1710.18
1710.17
1710.16
1710.16
1611.98
1611.99
1612
1612.01
1612.03
1612.05
1612.07
1612.09
1612.11
1612.13
1612.15
1612.17
1612.18
1612.19
1612.2
1612.19
1612.19
1612.18
1612.17
1612.15
1612.13
1612.11
1612.08
1612.06
1612.04
1612.02
1612.01
1612
1611.99
1611.98
1513.8
1513.8
1513.81
1513.82
1513.84
1513.86
1513.88
1513.91
1513.93
1513.95
1513.97
1513.99
1514
1514.01
1514.02
1514.01
1514.01
1514
1513.98
1513.97
1513.94
1513.92
1513.9
1513.88
1513.86
1513.84
1513.82
1513.81
1513.8
1513.8
1415.6
1415.61
1415.61
1415.63
1415.64
1415.66
1415.68
1415.7
1415.72
1415.75
1415.77
1415.78
1415.8
1415.81
1415.81
1415.81
1415.81
1415.79
1415.78
1415.76
1415.74
1415.72
1415.7
1415.68
1415.66
1415.64
1415.62
1415.61
1415.6
1415.6
1317.4
1317.4
1317.41
1317.42
1317.43
1317.44
1317.46
1317.48
1317.5
1317.52
1317.53
1317.55
1317.56
1317.57
1317.58
1317.57
1317.57
1317.56
1317.55
1317.53
1317.51
1317.49
1317.48
1317.46
1317.44
1317.43
1317.41
1317.4
1317.4
1317.39
1219.18
1219.18
1219.19
1219.19
1219.2
1219.21
1219.22
1219.23
1219.24
1219.26
1219.27
1219.28
1219.29
1219.3
1219.3
1219.3
1219.29
1219.29
1219.28
1219.26
1219.25
1219.24
1219.23
1219.21
1219.2
1219.2
1219.19
1219.18
1219.18
1219.18
1120.96
1120.96
1120.96
1120.96
1120.95
1120.95
1120.95
1120.95
1120.95
1120.95
1120.96
1120.96
1120.96
1120.97
1120.97
1120.97
1120.97
1120.96
1120.96
1120.95
1120.95
1120.95
1120.95
1120.95
1120.95
1120.95
1120.95
1120.95
1120.96
1120.95
1022.74
1022.73
1022.72
1022.71
1022.69
1022.67
1022.65
1022.63
1022.61
1022.59
1022.58
1022.57
1022.57
1022.56
1022.56
1022.56
1022.56
1022.57
1022.57
1022.58
1022.59
1022.61
1022.63
1022.65
1022.67
1022.69
1022.7
1022.72
1022.73
1022.73
924.517
924.507
924.483
924.449
924.407
924.358
924.307
924.256
924.209
924.166
924.13
924.1
924.078
924.063
924.056
924.056
924.063
924.077
924.099
924.128
924.165
924.207
924.256
924.307
924.358
924.406
924.448
924.481
924.503
924.513
826.317
826.298
826.254
826.19
826.11
826.019
825.921
825.823
825.73
825.645
825.571
825.511
825.465
825.434
825.419
825.419
825.434
825.465
825.51
825.57
825.643
825.729
825.823
825.921
826.018
826.11
826.189
826.251
826.295
826.315
728.152
728.119
728.045
727.938
727.802
727.647
727.48
727.312
727.15
727.002
726.873
726.767
726.687
726.632
726.604
726.605
726.631
726.686
726.766
726.872
727.001
727.149
727.312
727.48
727.647
727.802
727.937
728.044
728.118
728.151
630.047
629.994
629.876
629.705
629.49
629.241
628.972
628.701
628.44
628.201
627.991
627.818
627.686
627.596
627.552
627.552
627.596
627.685
627.817
627.99
628.199
628.44
628.702
628.973
629.241
629.49
629.705
629.876
629.993
630.046
532.039
531.958
531.778
531.516
531.185
530.8
530.385
529.967
529.562
529.189
528.865
528.595
528.388
528.25
528.18
528.18
528.249
528.388
528.595
528.864
529.189
529.562
529.968
530.387
530.802
531.186
531.517
531.779
531.96
532.041
434.191
434.071
433.798
433.405
432.909
432.329
431.702
431.077
430.467
429.902
429.415
429.008
428.694
428.484
428.379
428.38
428.484
428.694
429.007
429.415
429.902
430.468
431.079
431.704
432.331
432.913
433.407
433.799
434.073
434.194
336.548
336.376
335.967
335.398
334.683
333.813
332.88
331.99
331.087
330.234
329.534
328.923
328.455
328.148
327.993
327.993
328.147
328.455
328.923
329.535
330.235
331.088
331.992
332.883
333.817
334.685
335.401
335.97
336.378
336.55
239.167
238.951
238.315
237.521
236.603
235.267
233.818
232.742
231.394
229.997
229.116
228.167
227.449
227.015
226.789
226.789
227.015
227.45
228.167
229.117
229.999
231.397
232.745
233.822
235.273
236.604
237.524
238.32
238.953
239.168
142.383
142.526
141.152
139.891
139.398
137.02
133.977
133.813
131.632
128.558
128.235
126.473
125.284
124.749
124.398
124.4
124.746
125.29
126.471
128.236
128.562
131.64
133.813
133.981
137.033
139.385
139.9
141.161
142.531
142.384
54.5556
56.0739
53.0285
51.2468
53.3525
49.1861
44.5821
46.9487
43.7447
38.6205
40.4602
37.4692
36.143
36.0163
35.5972
35.6056
36.0037
36.1617
37.4568
40.4568
38.6281
43.7648
46.9396
44.5855
49.2275
53.2798
51.25
53.0464
56.0742
54.5517
4.58546
7.59346
3.9867
2.60426
5.79776
2.66205
-0.539876
1.6664
0.286879
-2.12951
-0.847474
-2.10944
-2.39782
-2.29853
-2.44822
-2.44274
-2.30614
-2.38697
-2.11758
-0.850409
-2.12445
0.297394
1.67046
-0.536398
2.70714
5.75215
2.61719
3.99929
7.58664
4.58282
-4.99414
-5.02161
-5.00571
-4.99787
-5.12179
-5.0486
-5.06143
-5.18526
-5.05976
-4.98672
-5.06126
-4.98888
-4.97833
-4.97917
-4.97413
-4.97427
-4.97902
-4.97856
-4.98858
-5.06099
-4.98645
-5.06027
-5.18505
-5.05998
-5.04921
-5.11971
-4.9991
-5.00608
-5.02193
-4.99461
-5.11616
-5.11854
-5.1176
-5.1185
-5.13201
-5.12678
-5.11925
-5.13242
-5.12125
-5.1017
-5.10553
-5.09762
-5.0924
-5.09045
-5.08881
-5.08883
-5.09042
-5.09246
-5.09756
-5.10559
-5.10187
-5.1213
-5.13257
-5.11932
-5.12707
-5.1322
-5.11907
-5.11794
-5.11883
-5.11649
-5.2258
-5.22575
-5.2252
-5.22502
-5.22659
-5.22588
-5.21701
-5.21998
-5.21598
-5.20864
-5.20823
-5.20665
-5.20389
-5.20126
-5.20027
-5.20026
-5.20125
-5.20392
-5.20663
-5.20823
-5.20874
-5.21602
-5.22021
-5.21742
-5.22638
-5.22681
-5.22538
-5.22554
-5.22597
-5.22594
-5.32815
-5.32834
-5.32756
-5.32633
-5.32578
-5.32416
-5.32052
-5.31896
-5.31622
-5.31298
-5.31132
-5.30984
-5.30814
-5.30691
-5.30602
-5.30602
-5.30692
-5.30819
-5.30983
-5.31135
-5.31311
-5.31635
-5.31922
-5.32086
-5.32457
-5.32612
-5.32675
-5.32803
-5.32881
-5.32843
-5.42638
-5.42628
-5.42579
-5.42513
-5.4243
-5.42291
-5.42107
-5.41939
-5.41752
-5.41584
-5.4148
-5.41372
-5.41268
-5.41171
-5.41109
-5.4111
-5.41172
-5.4127
-5.41375
-5.41482
-5.41594
-5.41768
-5.41961
-5.42139
-5.42334
-5.42467
-5.42553
-5.42622
-5.42678
-5.42682
-5.5249
-5.52474
-5.52435
-5.52392
-5.52328
-5.5223
-5.52119
-5.51994
-5.5187
-5.51761
-5.5168
-5.51624
-5.51588
-5.51552
-5.51532
-5.51532
-5.51552
-5.51585
-5.51625
-5.51682
-5.51765
-5.51883
-5.52014
-5.52148
-5.52271
-5.52366
-5.52435
-5.52481
-5.52516
-5.52527
-5.62356
-5.62351
-5.62327
-5.62295
-5.62252
-5.62189
-5.62117
-5.62043
-5.61966
-5.61891
-5.61834
-5.61792
-5.61772
-5.61767
-5.61767
-5.61767
-5.61766
-5.6177
-5.61791
-5.61831
-5.61893
-5.61972
-5.62062
-5.62146
-5.62227
-5.62291
-5.62341
-5.62374
-5.62396
-5.62403
-5.72259
-5.72257
-5.72243
-5.72222
-5.72193
-5.72156
-5.72117
-5.72076
-5.72033
-5.71996
-5.71962
-5.71936
-5.71915
-5.71908
-5.71906
-5.71903
-5.71903
-5.7191
-5.71931
-5.71957
-5.71996
-5.72039
-5.72092
-5.72145
-5.72192
-5.72233
-5.72266
-5.72286
-5.72297
-5.72303
-5.82185
-5.82181
-5.8217
-5.82159
-5.82146
-5.82127
-5.82111
-5.82096
-5.82081
-5.82068
-5.82055
-5.82045
-5.82038
-5.82029
-5.82022
-5.8202
-5.82025
-5.82032
-5.82038
-5.82051
-5.82066
-5.82087
-5.82112
-5.82139
-5.82163
-5.82185
-5.822
-5.82213
-5.82216
-5.82219
-5.92115
-5.92109
-5.92106
-5.92106
-5.92101
-5.921
-5.92103
-5.92105
-5.92108
-5.92113
-5.92117
-5.92121
-5.92124
-5.92121
-5.9212
-5.92118
-5.92115
-5.92115
-5.92111
-5.92112
-5.92109
-5.92111
-5.92116
-5.92123
-5.92129
-5.92139
-5.92144
-5.92146
-5.92147
-5.92146
-6.0205
-6.0205
-6.02052
-6.02052
-6.02055
-6.02065
-6.02079
-6.02094
-6.02113
-6.0213
-6.02146
-6.02161
-6.02169
-6.02172
-6.02173
-6.02171
-6.02167
-6.02161
-6.02151
-6.0214
-6.02126
-6.02113
-6.02103
-6.02096
-6.02092
-6.02091
-6.0209
-6.02085
-6.02082
-6.02079
-6.11986
-6.11991
-6.11992
-6.11995
-6.12006
-6.12024
-6.12046
-6.12072
-6.121
-6.12125
-6.12148
-6.12166
-6.12177
-6.12183
-6.12185
-6.12184
-6.1218
-6.12169
-6.12156
-6.12138
-6.12118
-6.12096
-6.12077
-6.1206
-6.12047
-6.12039
-6.12031
-6.12022
-6.12016
-6.12013
-6.21923
-6.21925
-6.21927
-6.21936
-6.21952
-6.21973
-6.22
-6.22031
-6.22063
-6.22092
-6.22118
-6.22139
-6.22152
-6.22159
-6.22162
-6.2216
-6.22156
-6.22145
-6.22129
-6.22109
-6.22085
-6.2206
-6.22035
-6.2201
-6.21991
-6.21977
-6.21965
-6.21955
-6.21948
-6.21945
-6.31852
-6.31852
-6.31859
-6.31872
-6.31888
-6.3191
-6.31938
-6.31972
-6.32005
-6.32035
-6.32062
-6.32084
-6.32099
-6.32107
-6.3211
-6.32109
-6.32104
-6.32092
-6.32076
-6.32056
-6.32031
-6.32003
-6.31974
-6.31945
-6.31922
-6.31905
-6.31892
-6.31882
-6.31876
-6.31873
-6.41771
-6.41773
-6.41784
-6.41797
-6.41812
-6.41836
-6.41865
-6.41898
-6.41932
-6.41963
-6.41989
-6.42009
-6.42022
-6.42029
-6.42032
-6.42032
-6.42027
-6.42016
-6.42001
-6.41981
-6.41957
-6.41927
-6.41895
-6.41866
-6.41843
-6.41825
-6.41812
-6.41803
-6.41796
-6.41793
-6.5168
-6.51686
-6.51696
-6.51707
-6.51726
-6.5175
-6.51778
-6.5181
-6.51843
-6.51872
-6.51896
-6.51912
-6.51922
-6.51928
-6.51931
-6.51931
-6.51926
-6.51916
-6.51903
-6.51885
-6.51863
-6.51835
-6.51805
-6.51778
-6.51755
-6.51737
-6.51723
-6.51714
-6.51707
-6.51704
-6.61585
-6.6159
-6.61598
-6.61611
-6.6163
-6.61652
-6.61677
-6.61706
-6.61736
-6.61762
-6.6178
-6.61793
-6.61802
-6.61809
-6.61811
-6.6181
-6.61805
-6.61798
-6.61788
-6.61774
-6.61754
-6.6173
-6.61704
-6.61679
-6.61656
-6.61638
-6.61624
-6.61614
-6.61608
-6.61605
-6.71482
-6.71486
-6.71495
-6.71509
-6.71525
-6.71544
-6.71567
-6.71592
-6.71616
-6.71635
-6.71649
-6.7166
-6.71669
-6.71677
-6.71679
-6.71678
-6.71674
-6.71669
-6.71661
-6.71649
-6.71632
-6.71612
-6.71591
-6.71568
-6.71548
-6.71529
-6.71515
-6.71505
-6.71499
-6.71496
-6.81371
-6.81375
-6.81385
-6.81397
-6.81412
-6.81429
-6.81448
-6.81467
-6.81485
-6.81499
-6.8151
-6.8152
-6.81529
-6.81535
-6.81538
-6.81537
-6.81535
-6.8153
-6.81523
-6.81512
-6.81499
-6.81484
-6.81466
-6.81447
-6.81428
-6.81411
-6.81397
-6.81388
-6.81382
-6.81379
-6.91252
-6.91256
-6.91264
-6.91275
-6.91289
-6.91303
-6.91317
-6.91331
-6.91344
-6.91356
-6.91365
-6.91373
-6.9138
-6.91385
-6.91388
-6.91388
-6.91386
-6.91382
-6.91375
-6.91365
-6.91355
-6.91343
-6.9133
-6.91315
-6.91299
-6.91283
-6.91271
-6.91263
-6.91258
-6.91256
-7.01126
-7.01131
-7.01137
-7.01146
-7.01155
-7.01163
-7.01172
-7.01182
-7.01193
-7.01202
-7.0121
-7.01217
-7.01222
-7.01227
-7.0123
-7.0123
-7.01228
-7.01223
-7.01216
-7.01209
-7.01201
-7.01193
-7.01184
-7.01173
-7.01161
-7.0115
-7.0114
-7.01133
-7.01129
-7.01126
-7.10997
-7.11001
-7.11006
-7.11009
-7.11011
-7.11014
-7.11018
-7.11025
-7.11033
-7.1104
-7.11046
-7.11052
-7.11057
-7.11062
-7.11064
-7.11065
-7.11062
-7.11058
-7.11053
-7.11047
-7.11042
-7.11036
-7.1103
-7.11024
-7.11017
-7.11009
-7.11002
-7.10996
-7.10991
-7.10988
-7.20861
-7.20866
-7.20866
-7.20863
-7.20861
-7.20859
-7.20861
-7.20864
-7.20868
-7.20873
-7.20878
-7.20884
-7.20889
-7.20894
-7.20896
-7.20896
-7.20894
-7.20891
-7.20888
-7.20883
-7.20879
-7.20875
-7.20872
-7.20868
-7.20864
-7.20859
-7.20853
-7.20848
-7.20843
-7.20839
-7.30714
-7.30717
-7.30713
-7.30709
-7.30705
-7.30702
-7.307
-7.307
-7.30701
-7.30704
-7.3071
-7.30716
-7.3072
-7.30723
-7.30724
-7.30725
-7.30725
-7.30724
-7.30721
-7.30718
-7.30714
-7.3071
-7.30707
-7.30704
-7.30701
-7.30697
-7.30693
-7.30688
-7.30684
-7.30681
-7.40552
-7.4055
-7.40547
-7.40544
-7.4054
-7.40537
-7.40534
-7.40533
-7.40533
-7.40536
-7.40541
-7.40545
-7.40548
-7.4055
-7.40551
-7.40553
-7.40554
-7.40553
-7.4055
-7.40547
-7.40543
-7.40539
-7.40536
-7.40533
-7.4053
-7.40527
-7.40523
-7.4052
-7.40517
-7.40515
-7.50372
-7.50371
-7.5037
-7.50368
-7.50365
-7.50363
-7.50361
-7.5036
-7.5036
-7.50363
-7.50366
-7.50369
-7.50371
-7.50373
-7.50375
-7.50377
-7.50377
-7.50376
-7.50373
-7.50369
-7.50366
-7.50363
-7.5036
-7.50356
-7.50353
-7.5035
-7.50347
-7.50344
-7.50342
-7.50341
-7.60185
-7.60187
-7.60186
-7.60183
-7.60182
-7.60182
-7.60181
-7.60181
-7.60182
-7.60183
-7.60185
-7.60187
-7.6019
-7.60193
-7.60196
-7.60197
-7.60196
-7.60193
-7.6019
-7.60188
-7.60185
-7.60182
-7.60178
-7.60174
-7.6017
-7.60167
-7.60165
-7.60163
-7.60162
-7.60161
-7.69997
-7.69998
-7.69995
-7.69994
-7.69994
-7.69996
-7.69996
-7.69996
-7.69997
-7.69998
-7.69999
-7.70002
-7.70006
-7.7001
-7.70012
-7.70012
-7.7001
-7.70007
-7.70004
-7.70001
-7.69998
-7.69994
-7.6999
-7.69986
-7.69983
-7.69981
-7.6998
-7.69979
-7.69978
-7.69977
-7.79804
-7.79802
-7.79801
-7.79802
-7.79804
-7.79806
-7.79806
-7.79807
-7.79808
-7.79808
-7.7981
-7.79813
-7.79817
-7.7982
-7.79822
-7.79821
-7.7982
-7.79817
-7.79814
-7.7981
-7.79806
-7.79802
-7.79799
-7.79796
-7.79795
-7.79795
-7.79795
-7.79794
-7.79793
-7.79792
-7.89607
-7.89606
-7.89608
-7.89611
-7.89613
-7.89614
-7.89614
-7.89615
-7.89615
-7.89616
-7.89618
-7.8962
-7.89623
-7.89626
-7.89627
-7.89627
-7.89626
-7.89624
-7.89621
-7.89617
-7.89613
-7.8961
-7.89609
-7.89609
-7.8961
-7.8961
-7.8961
-7.89608
-7.89607
-7.89605
-7.99412
-7.99413
-7.99417
-7.9942
-7.99421
-7.99421
-7.99422
-7.99422
-7.99423
-7.99423
-7.99424
-7.99426
-7.99428
-7.9943
-7.99432
-7.99433
-7.99432
-7.99431
-7.99427
-7.99424
-7.99421
-7.9942
-7.99421
-7.99422
-7.99423
-7.99423
-7.99422
-7.9942
-7.99418
-7.99417
-8.09221
-8.09222
-8.09225
-8.09227
-8.09228
-8.09229
-8.0923
-8.0923
-8.0923
-8.09231
-8.09232
-8.09233
-8.09234
-8.09236
-8.09238
-8.09239
-8.09239
-8.09237
-8.09234
-8.09232
-8.09231
-8.09231
-8.09232
-8.09233
-8.09234
-8.09234
-8.09232
-8.09231
-8.0923
-8.0923
-8.19029
-8.1903
-8.19031
-8.19033
-8.19035
-8.19037
-8.19038
-8.19038
-8.19038
-8.19038
-8.19039
-8.1904
-8.19042
-8.19044
-8.19045
-8.19046
-8.19045
-8.19044
-8.19043
-8.19042
-8.19042
-8.19043
-8.19044
-8.19044
-8.19044
-8.19044
-8.19044
-8.19043
-8.19044
-8.19044
-8.28838
-8.28838
-8.28839
-8.28842
-8.28845
-8.28846
-8.28846
-8.28846
-8.28845
-8.28846
-8.28847
-8.28848
-8.2885
-8.28851
-8.28852
-8.28853
-8.28853
-8.28853
-8.28854
-8.28855
-8.28856
-8.28856
-8.28857
-8.28856
-8.28856
-8.28856
-8.28856
-8.28856
-8.28857
-8.28857
-8.38648
-8.38648
-8.3865
-8.38653
-8.38655
-8.38655
-8.38655
-8.38655
-8.38656
-8.38656
-8.38657
-8.38658
-8.38659
-8.3866
-8.38661
-8.38662
-8.38664
-8.38666
-8.38668
-8.3867
-8.38671
-8.38671
-8.3867
-8.38669
-8.38668
-8.38667
-8.38667
-8.38668
-8.38668
-8.38668
-8.48459
-8.4846
-8.48462
-8.48462
-8.48463
-8.48464
-8.48466
-8.48468
-8.4847
-8.48471
-8.48472
-8.48473
-8.48473
-8.48473
-8.48474
-8.48475
-8.48478
-8.48481
-8.48483
-8.48485
-8.48486
-8.48486
-8.48484
-8.48482
-8.4848
-8.48478
-8.48478
-8.48477
-8.48477
-8.48477
-8.58272
-8.58272
-8.58272
-8.58271
-8.58272
-8.58274
-8.58278
-8.58282
-8.58285
-8.58288
-8.58289
-8.58289
-8.58289
-8.58289
-8.5829
-8.58291
-8.58294
-8.58296
-8.58299
-8.58301
-8.58301
-8.583
-8.58298
-8.58295
-8.58293
-8.5829
-8.58289
-8.58287
-8.58286
-8.58286
-8.68085
-8.68084
-8.68082
-8.68082
-8.68084
-8.68088
-8.68092
-8.68097
-8.68101
-8.68103
-8.68105
-8.68106
-8.68106
-8.68107
-8.68107
-8.68109
-8.68111
-8.68113
-8.68115
-8.68116
-8.68116
-8.68115
-8.68113
-8.68111
-8.68108
-8.68105
-8.68102
-8.68099
-8.68098
-8.68097
-8.77898
-8.77897
-8.77896
-8.77898
-8.77901
-8.77905
-8.77908
-8.77912
-8.77915
-8.77919
-8.77921
-8.77923
-8.77924
-8.77925
-8.77926
-8.77927
-8.77929
-8.7793
-8.77932
-8.77933
-8.77933
-8.77932
-8.77931
-8.77928
-8.77925
-8.77921
-8.77917
-8.77913
-8.77911
-8.7791
-8.87712
-8.87711
-8.87713
-8.87716
-8.87719
-8.87722
-8.87725
-8.87728
-8.87732
-8.87736
-8.87739
-8.87742
-8.87744
-8.87745
-8.87746
-8.87747
-8.87748
-8.87749
-8.8775
-8.8775
-8.87751
-8.8775
-8.87748
-8.87745
-8.87741
-8.87737
-8.87732
-8.87728
-8.87725
-8.87724
-8.97527
-8.97527
-8.9753
-8.97534
-8.97537
-8.97539
-8.97542
-8.97546
-8.97551
-8.97555
-8.9756
-8.97563
-8.97565
-8.97567
-8.97567
-8.97568
-8.97568
-8.97569
-8.97569
-8.97569
-8.97568
-8.97566
-8.97564
-8.97561
-8.97557
-8.97552
-8.97548
-8.97545
-8.97542
-8.97542
-9.07345
-9.07346
-9.07349
-9.07351
-9.07353
-9.07356
-9.0736
-9.07366
-9.07371
-9.07377
-9.07381
-9.07384
-9.07387
-9.07388
-9.07389
-9.07389
-9.07389
-9.07389
-9.07388
-9.07386
-9.07385
-9.07382
-9.07379
-9.07376
-9.07372
-9.07369
-9.07365
-9.07363
-9.07362
-9.07362
-9.17166
-9.17167
-9.17168
-9.17169
-9.17171
-9.17175
-9.1718
-9.17186
-9.17192
-9.17197
-9.17201
-9.17204
-9.17206
-9.17208
-9.17209
-9.17209
-9.17209
-9.17208
-9.17206
-9.17204
-9.17201
-9.17198
-9.17194
-9.17191
-9.17189
-9.17186
-9.17185
-9.17184
-9.17184
-9.17185
-9.26987
-9.26988
-9.26987
-9.26989
-9.26991
-9.26996
-9.27001
-9.27005
-9.2701
-9.27014
-9.27017
-9.2702
-9.27023
-9.27025
-9.27027
-9.27027
-9.27027
-9.27025
-9.27023
-9.2702
-9.27016
-9.27013
-9.2701
-9.27008
-9.27006
-9.27006
-9.27006
-9.27006
-9.27007
-9.27008
-9.36806
-9.36805
-9.36806
-9.36808
-9.36812
-9.36816
-9.3682
-9.36823
-9.36826
-9.36829
-9.36832
-9.36834
-9.36837
-9.3684
-9.36842
-9.36843
-9.36842
-9.3684
-9.36837
-9.36834
-9.36831
-9.36827
-9.36825
-9.36824
-9.36824
-9.36824
-9.36826
-9.36827
-9.36828
-9.36829
-9.46622
-9.46621
-9.46623
-9.46627
-9.46631
-9.46635
-9.46637
-9.46639
-9.46641
-9.46643
-9.46645
-9.46648
-9.46651
-9.46654
-9.46656
-9.46656
-9.46655
-9.46653
-9.4665
-9.46647
-9.46644
-9.46641
-9.4664
-9.46639
-9.4664
-9.46642
-9.46644
-9.46645
-9.46647
-9.46647
-9.56439
-9.56438
-9.56441
-9.56445
-9.56448
-9.56451
-9.56453
-9.56454
-9.56455
-9.56457
-9.56459
-9.56462
-9.56465
-9.56467
-9.56469
-9.56469
-9.56468
-9.56465
-9.56463
-9.5646
-9.56457
-9.56455
-9.56454
-9.56455
-9.56456
-9.56458
-9.5646
-9.56461
-9.56463
-9.56463
-9.66259
-9.66259
-9.66261
-9.66264
-9.66267
-9.66268
-9.66269
-9.6627
-9.66272
-9.66273
-9.66275
-9.66277
-9.66279
-9.66281
-9.66281
-9.66281
-9.6628
-9.66278
-9.66276
-9.66274
-9.66272
-9.66271
-9.66271
-9.66271
-9.66272
-9.66274
-9.66275
-9.66277
-9.66277
-9.66278
-9.76085
-9.76085
-9.76086
-9.76087
-9.76088
-9.76089
-9.76089
-9.76089
-9.7609
-9.76091
-9.76092
-9.76092
-9.76093
-9.76094
-9.76094
-9.76094
-9.76093
-9.76092
-9.76091
-9.76091
-9.7609
-9.7609
-9.7609
-9.7609
-9.7609
-9.76091
-9.76092
-9.76092
-9.76092
-9.76093
4849.73
4849.73
4849.73
4849.73
4849.73
4849.73
4849.73
4849.73
4849.73
4849.73
4849.73
4849.72
4849.73
4849.73
4849.73
4849.73
4849.73
4849.73
4849.73
4849.73
4849.73
4849.73
4849.73
4849.73
4849.73
4849.73
4849.73
4849.73
4849.74
4849.74
4751.62
4751.62
4751.62
4751.62
4751.62
4751.62
4751.62
4751.63
4751.63
4751.63
4751.63
4751.63
4751.62
4751.62
4751.62
4751.62
4751.62
4751.62
4751.62
4751.62
4751.62
4751.62
4751.63
4751.63
4751.63
4751.63
4751.63
4751.63
4751.63
4751.63
4653.52
4653.52
4653.52
4653.52
4653.52
4653.52
4653.52
4653.52
4653.53
4653.53
4653.53
4653.53
4653.52
4653.52
4653.52
4653.52
4653.52
4653.52
4653.52
4653.52
4653.52
4653.52
4653.53
4653.53
4653.53
4653.53
4653.53
4653.52
4653.53
4653.52
4555.42
4555.42
4555.42
4555.42
4555.42
4555.42
4555.42
4555.42
4555.42
4555.43
4555.43
4555.42
4555.42
4555.42
4555.42
4555.42
4555.42
4555.42
4555.42
4555.42
4555.42
4555.43
4555.43
4555.43
4555.43
4555.42
4555.42
4555.42
4555.42
4555.42
4457.32
4457.32
4457.32
4457.32
4457.32
4457.32
4457.32
4457.32
4457.32
4457.32
4457.32
4457.32
4457.32
4457.32
4457.32
4457.32
4457.32
4457.33
4457.33
4457.33
4457.33
4457.33
4457.33
4457.33
4457.33
4457.32
4457.32
4457.32
4457.32
4457.32
4359.22
4359.22
4359.22
4359.22
4359.22
4359.22
4359.22
4359.22
4359.22
4359.22
4359.22
4359.22
4359.22
4359.22
4359.23
4359.23
4359.23
4359.23
4359.23
4359.23
4359.23
4359.23
4359.23
4359.23
4359.23
4359.23
4359.22
4359.23
4359.23
4359.23
4261.13
4261.13
4261.13
4261.13
4261.12
4261.12
4261.12
4261.12
4261.12
4261.12
4261.12
4261.12
4261.13
4261.13
4261.13
4261.13
4261.13
4261.13
4261.13
4261.13
4261.13
4261.13
4261.13
4261.13
4261.13
4261.13
4261.13
4261.13
4261.13
4261.13
4163.03
4163.03
4163.03
4163.03
4163.03
4163.03
4163.03
4163.02
4163.02
4163.02
4163.02
4163.03
4163.03
4163.03
4163.03
4163.03
4163.03
4163.03
4163.03
4163.03
4163.03
4163.03
4163.03
4163.03
4163.03
4163.03
4163.03
4163.03
4163.03
4163.03
4064.93
4064.93
4064.93
4064.93
4064.93
4064.93
4064.93
4064.93
4064.93
4064.93
4064.93
4064.93
4064.93
4064.93
4064.93
4064.93
4064.93
4064.93
4064.93
4064.93
4064.93
4064.93
4064.93
4064.93
4064.93
4064.93
4064.93
4064.93
4064.93
4064.93
3966.83
3966.83
3966.83
3966.83
3966.83
3966.83
3966.83
3966.83
3966.83
3966.83
3966.83
3966.83
3966.83
3966.83
3966.83
3966.83
3966.83
3966.83
3966.83
3966.83
3966.83
3966.83
3966.83
3966.83
3966.83
3966.84
3966.84
3966.83
3966.83
3966.83
3868.73
3868.73
3868.73
3868.73
3868.73
3868.73
3868.73
3868.73
3868.73
3868.73
3868.73
3868.73
3868.73
3868.73
3868.73
3868.73
3868.73
3868.73
3868.73
3868.73
3868.74
3868.74
3868.74
3868.74
3868.74
3868.74
3868.74
3868.74
3868.74
3868.74
3770.63
3770.63
3770.63
3770.63
3770.63
3770.63
3770.63
3770.63
3770.63
3770.64
3770.64
3770.64
3770.64
3770.64
3770.64
3770.64
3770.64
3770.64
3770.64
3770.64
3770.64
3770.64
3770.64
3770.64
3770.64
3770.64
3770.64
3770.64
3770.64
3770.64
3672.53
3672.53
3672.53
3672.53
3672.53
3672.53
3672.53
3672.54
3672.54
3672.54
3672.54
3672.54
3672.54
3672.54
3672.54
3672.54
3672.54
3672.54
3672.54
3672.54
3672.54
3672.54
3672.54
3672.54
3672.54
3672.54
3672.54
3672.54
3672.54
3672.54
3574.43
3574.43
3574.43
3574.43
3574.43
3574.44
3574.44
3574.44
3574.45
3574.45
3574.45
3574.45
3574.45
3574.45
3574.45
3574.45
3574.45
3574.45
3574.45
3574.45
3574.45
3574.45
3574.45
3574.44
3574.44
3574.44
3574.44
3574.44
3574.44
3574.44
3476.33
3476.33
3476.33
3476.34
3476.34
3476.34
3476.34
3476.35
3476.35
3476.35
3476.35
3476.36
3476.36
3476.36
3476.36
3476.36
3476.36
3476.35
3476.35
3476.35
3476.35
3476.35
3476.35
3476.35
3476.35
3476.35
3476.35
3476.34
3476.34
3476.34
3378.24
3378.24
3378.24
3378.24
3378.25
3378.25
3378.25
3378.25
3378.26
3378.26
3378.26
3378.26
3378.26
3378.26
3378.26
3378.26
3378.26
3378.26
3378.26
3378.26
3378.25
3378.25
3378.25
3378.25
3378.25
3378.25
3378.25
3378.25
3378.25
3378.25
3280.15
3280.15
3280.15
3280.15