/*--------------------------------*- C++ -*----------------------------------*\
| =========                 |                                                 |
| \\      /  F ield         | OpenFOAM: The Open Source CFD Toolbox           |
|  \\    /   O peration     | Version:  2312                                  |
|   \\  /    A nd           | Website:  www.openfoam.com                      |
|    \\/     M anipulation  |                                                 |
\*---------------------------------------------------------------------------*/
FoamFile
{
    version     2.0;
    format      ascii;
    arch        "LSB;label=32;scalar=64";
    class       volScalarField;
    location    "0.822131";
    object      p_rgh;
}
// * * * * * * * * * * * * * * * * * * * * * * * * * * * * * * * * * * * * * //

dimensions      [1 -1 -2 0 0 0 0];

internalField   nonuniform List<scalar> 
90000
(
4898.78
4898.78
4898.78
4898.78
4898.78
4898.78
4898.78
4898.78
4898.78
4898.78
4898.78
4898.77
4898.77
4898.78
4898.78
4898.78
4898.78
4898.78
4898.78
4898.78
4898.78
4898.78
4898.78
4898.78
4898.78
4898.78
4898.78
4898.78
4898.78
4898.78
4898.78
4898.78
4898.78
4898.78
4898.78
4898.78
4898.78
4898.78
4898.78
4898.78
4898.78
4898.78
4898.78
4898.78
4898.78
4898.78
4898.78
4898.78
4898.78
4898.78
4898.78
4898.78
4898.78
4898.78
4898.78
4898.78
4898.79
4898.79
4898.78
4898.74
4898.78
4898.78
4898.78
4898.78
4898.78
4898.78
4898.78
4898.78
4898.78
4898.78
4898.78
4898.78
4898.78
4898.78
4898.78
4898.78
4898.77
4898.77
4898.77
4898.77
4898.78
4898.78
4898.78
4898.78
4898.78
4898.78
4898.79
4898.81
4898.84
4898.78
4898.78
4898.78
4898.78
4898.78
4898.78
4898.78
4898.78
4898.78
4898.78
4898.78
4898.78
4898.78
4898.78
4898.78
4898.77
4898.77
4898.77
4898.77
4898.77
4898.77
4898.77
4898.78
4898.78
4898.78
4898.78
4898.78
4898.77
4898.77
4898.8
4898.78
4898.77
4898.77
4898.77
4898.77
4898.77
4898.78
4898.78
4898.78
4898.79
4898.79
4898.79
4898.79
4898.78
4898.78
4898.77
4898.77
4898.77
4898.76
4898.77
4898.77
4898.77
4898.78
4898.78
4898.78
4898.78
4898.78
4898.78
4898.77
4898.78
4898.76
4898.77
4898.76
4898.77
4898.77
4898.77
4898.78
4898.78
4898.78
4898.79
4898.79
4898.79
4898.79
4898.79
4898.78
4898.77
4898.77
4898.77
4898.77
4898.77
4898.77
4898.77
4898.78
4898.78
4898.78
4898.78
4898.77
4898.77
4898.76
4898.75
4898.75
4898.77
4898.76
4898.76
4898.77
4898.77
4898.77
4898.78
4898.78
4898.78
4898.79
4898.79
4898.79
4898.79
4898.78
4898.78
4898.78
4898.78
4898.78
4898.78
4898.78
4898.78
4898.78
4898.78
4898.78
4898.77
4898.77
4898.76
4898.75
4898.75
4898.76
4898.77
4898.76
4898.76
4898.77
4898.77
4898.77
4898.77
4898.77
4898.78
4898.78
4898.78
4898.79
4898.79
4898.79
4898.79
4898.79
4898.79
4898.79
4898.79
4898.79
4898.79
4898.79
4898.78
4898.78
4898.77
4898.77
4898.76
4898.76
4898.77
4898.78
4898.77
4898.77
4898.77
4898.77
4898.77
4898.77
4898.77
4898.77
4898.77
4898.77
4898.78
4898.78
4898.79
4898.8
4898.81
4898.81
4898.81
4898.81
4898.81
4898.8
4898.8
4898.79
4898.78
4898.78
4898.77
4898.77
4898.77
4898.78
4898.79
4898.8
4898.78
4898.8
4898.8
4898.8
4898.79
4898.79
4898.78
4898.78
4898.77
4898.77
4898.78
4898.78
4898.8
4898.81
4898.82
4898.83
4898.83
4898.82
4898.82
4898.8
4898.79
4898.79
4898.78
4898.78
4898.77
4898.78
4898.78
4898.79
4898.8
4898.79
4898.8
4898.83
4898.83
4898.83
4898.82
4898.81
4898.8
4898.79
4898.78
4898.78
4898.78
4898.78
4898.79
4898.8
4898.81
4898.82
4898.82
4898.81
4898.8
4898.79
4898.79
4898.78
4898.78
4898.78
4898.78
4898.78
4898.79
4898.79
4898.78
4898.77
4898.82
4898.87
4898.86
4898.85
4898.84
4898.83
4898.81
4898.79
4898.78
4898.77
4898.77
4898.77
4898.77
4898.78
4898.78
4898.79
4898.79
4898.78
4898.78
4898.78
4898.78
4898.78
4898.79
4898.79
4898.79
4898.79
4898.79
4898.78
4898.77
4898.77
4898.84
4898.87
4898.86
4898.85
4898.83
4898.82
4898.8
4898.78
4898.77
4898.76
4898.75
4898.75
4898.75
4898.75
4898.75
4898.75
4898.75
4898.76
4898.77
4898.78
4898.79
4898.8
4898.81
4898.81
4898.81
4898.8
4898.79
4898.78
4898.78
4898.8
4898.84
4898.83
4898.82
4898.81
4898.79
4898.78
4898.77
4898.76
4898.76
4898.75
4898.75
4898.75
4898.74
4898.73
4898.73
4898.74
4898.75
4898.76
4898.78
4898.8
4898.82
4898.82
4898.82
4898.82
4898.81
4898.8
4898.79
4898.79
4898.8
4898.8
4898.81
4898.76
4898.75
4898.74
4898.74
4898.74
4898.75
4898.76
4898.77
4898.77
4898.77
4898.77
4898.76
4898.75
4898.75
4898.75
4898.77
4898.79
4898.81
4898.82
4898.83
4898.83
4898.82
4898.81
4898.8
4898.79
4898.78
4898.78
4898.78
4898.76
4898.76
4898.69
4898.69
4898.7
4898.71
4898.73
4898.75
4898.78
4898.79
4898.8
4898.8
4898.79
4898.78
4898.77
4898.77
4898.78
4898.79
4898.8
4898.81
4898.82
4898.82
4898.81
4898.81
4898.8
4898.8
4898.79
4898.79
4898.78
4898.76
4898.75
4898.72
4898.65
4898.67
4898.69
4898.71
4898.74
4898.77
4898.8
4898.81
4898.82
4898.81
4898.8
4898.79
4898.78
4898.78
4898.78
4898.78
4898.78
4898.78
4898.78
4898.78
4898.79
4898.79
4898.8
4898.8
4898.8
4898.8
4898.79
4898.77
4898.8
4898.71
4898.66
4898.68
4898.7
4898.73
4898.75
4898.78
4898.79
4898.8
4898.8
4898.8
4898.79
4898.79
4898.78
4898.78
4898.78
4898.77
4898.77
4898.76
4898.76
4898.77
4898.78
4898.79
4898.8
4898.8
4898.79
4898.78
4898.78
4898.79
4898.82
4898.72
4898.69
4898.71
4898.72
4898.74
4898.76
4898.78
4898.79
4898.79
4898.8
4898.8
4898.81
4898.82
4898.82
4898.82
4898.81
4898.79
4898.78
4898.77
4898.78
4898.79
4898.79
4898.79
4898.78
4898.76
4898.75
4898.75
4898.75
4898.77
4898.76
4898.73
4898.72
4898.73
4898.75
4898.76
4898.78
4898.8
4898.81
4898.82
4898.83
4898.85
4898.86
4898.86
4898.86
4898.85
4898.83
4898.81
4898.8
4898.8
4898.8
4898.8
4898.79
4898.77
4898.75
4898.74
4898.74
4898.74
4898.74
4898.73
4898.71
4898.75
4898.75
4898.77
4898.78
4898.8
4898.82
4898.84
4898.85
4898.86
4898.87
4898.87
4898.87
4898.86
4898.85
4898.82
4898.81
4898.8
4898.8
4898.8
4898.79
4898.78
4898.76
4898.74
4898.74
4898.75
4898.77
4898.77
4898.76
4898.73
4898.75
4898.76
4898.79
4898.8
4898.82
4898.84
4898.85
4898.86
4898.85
4898.85
4898.85
4898.84
4898.82
4898.81
4898.79
4898.79
4898.79
4898.8
4898.8
4898.8
4898.78
4898.76
4898.74
4898.75
4898.77
4898.8
4898.8
4898.79
4898.77
4898.76
4898.78
4898.78
4898.81
4898.82
4898.83
4898.84
4898.84
4898.83
4898.82
4898.81
4898.8
4898.79
4898.78
4898.78
4898.78
4898.8
4898.82
4898.84
4898.84
4898.82
4898.79
4898.77
4898.78
4898.8
4898.83
4898.83
4898.8
4898.77
4898.76
4898.76
4898.76
4898.78
4898.8
4898.8
4898.81
4898.81
4898.8
4898.8
4898.8
4898.79
4898.78
4898.78
4898.78
4898.79
4898.81
4898.84
4898.86
4898.86
4898.84
4898.81
4898.8
4898.8
4898.83
4898.86
4898.86
4898.82
4898.78
4898.77
4898.78
4898.77
4898.78
4898.76
4898.77
4898.77
4898.78
4898.78
4898.78
4898.78
4898.78
4898.78
4898.77
4898.77
4898.77
4898.78
4898.8
4898.82
4898.82
4898.8
4898.78
4898.77
4898.79
4898.82
4898.85
4898.85
4898.82
4898.79
4898.79
4898.8
4898.81
4898.82
4898.85
4898.73
4898.74
4898.74
4898.74
4898.74
4898.74
4898.74
4898.74
4898.74
4898.73
4898.73
4898.74
4898.76
4898.78
4898.78
4898.77
4898.76
4898.76
4898.77
4898.8
4898.82
4898.81
4898.78
4898.75
4898.75
4898.78
4898.79
4898.8
4898.83
4898.77
4898.7
4898.69
4898.69
4898.68
4898.68
4898.68
4898.68
4898.69
4898.69
4898.69
4898.71
4898.74
4898.76
4898.78
4898.79
4898.78
4898.78
4898.79
4898.81
4898.81
4898.79
4898.75
4898.71
4898.71
4898.74
4898.75
4898.74
4898.74
4898.74
4898.65
4898.65
4898.62
4898.62
4898.61
4898.62
4898.63
4898.64
4898.66
4898.67
4898.69
4898.73
4898.76
4898.78
4898.78
4898.77
4898.77
4898.77
4898.78
4898.78
4898.74
4898.7
4898.67
4898.68
4898.69
4898.71
4898.7
4898.68
4898.67
4898.64
4898.66
4898.59
4898.56
4898.57
4898.58
4898.59
4898.61
4898.62
4898.63
4898.65
4898.68
4898.71
4898.73
4898.74
4898.73
4898.72
4898.72
4898.72
4898.72
4898.69
4898.64
4898.62
4898.62
4898.65
4898.65
4898.62
4898.63
4898.63
4898.59
4898.63
4898.68
4898.54
4898.55
4898.56
4898.56
4898.56
4898.56
4898.57
4898.58
4898.6
4898.64
4898.67
4898.69
4898.69
4898.69
4898.7
4898.71
4898.71
4898.68
4898.65
4898.63
4898.63
4898.62
4898.61
4898.58
4898.55
4898.58
4898.59
4898.57
4898.64
4898.59
4898.51
4898.53
4898.52
4898.51
4898.5
4898.5
4898.51
4898.54
4898.58
4898.62
4898.65
4898.67
4898.68
4898.68
4898.69
4898.7
4898.68
4898.65
4898.63
4898.63
4898.64
4898.58
4898.54
4898.53
4898.52
4898.54
4898.55
4898.56
4898.53
4898.5
4898.47
4898.47
4898.46
4898.46
4898.47
4898.48
4898.5
4898.52
4898.56
4898.58
4898.6
4898.61
4898.62
4898.64
4898.64
4898.64
4898.62
4898.61
4898.6
4898.58
4898.57
4898.48
4898.46
4898.5
4898.48
4898.45
4898.48
4898.47
4898.4
4898.46
4898.4
4898.41
4898.42
4898.44
4898.44
4898.45
4898.45
4898.45
4898.47
4898.5
4898.52
4898.55
4898.57
4898.6
4898.61
4898.6
4898.59
4898.59
4898.58
4898.5
4898.48
4898.43
4898.44
4898.47
4898.4
4898.37
4898.41
4898.38
4898.4
4898.42
4898.34
4898.38
4898.38
4898.38
4898.37
4898.35
4898.35
4898.37
4898.4
4898.44
4898.48
4898.52
4898.54
4898.56
4898.56
4898.55
4898.54
4898.52
4898.5
4898.4
4898.42
4898.43
4898.41
4898.38
4898.32
4898.34
4898.37
4898.36
4898.37
4898.35
4898.28
4898.3
4898.28
4898.27
4898.27
4898.28
4898.29
4898.32
4898.35
4898.38
4898.41
4898.43
4898.44
4898.44
4898.45
4898.46
4898.46
4898.42
4898.43
4898.36
4898.41
4898.42
4898.32
4898.28
4898.3
4898.33
4898.3
4898.27
4898.24
4898.26
4898.18
4898.18
4898.18
4898.19
4898.2
4898.21
4898.22
4898.23
4898.24
4898.26
4898.28
4898.31
4898.34
4898.34
4898.37
4898.39
4898.39
4898.34
4898.37
4898.34
4898.37
4898.31
4898.19
4898.23
4898.28
4898.22
4898.16
4898.14
4898.18
4898.17
4898.06
4898.09
4898.1
4898.09
4898.08
4898.08
4898.1
4898.11
4898.13
4898.15
4898.17
4898.19
4898.24
4898.25
4898.27
4898.27
4898.26
4898.2
4898.25
4898.22
4898.19
4898.12
4898.09
4898.18
4898.15
4898.04
4898.04
4898.08
4898.11
4898.07
4897.96
4897.98
4897.95
4897.94
4897.95
4897.97
4897.98
4897.98
4897.98
4897.99
4898.01
4898.02
4898.07
4898.08
4898.09
4898.09
4898.07
4898.06
4898.11
4898.05
4897.99
4897.98
4898.02
4898.03
4897.91
4897.89
4897.98
4898
4897.92
4897.96
4897.83
4897.81
4897.81
4897.82
4897.83
4897.82
4897.79
4897.78
4897.77
4897.78
4897.82
4897.81
4897.84
4897.84
4897.82
4897.85
4897.82
4897.84
4897.89
4897.8
4897.77
4897.84
4897.85
4897.77
4897.73
4897.84
4897.87
4897.78
4897.8
4897.88
4897.68
4897.7
4897.71
4897.69
4897.64
4897.6
4897.58
4897.58
4897.58
4897.53
4897.56
4897.51
4897.56
4897.58
4897.48
4897.55
4897.53
4897.51
4897.56
4897.52
4897.55
4897.61
4897.59
4897.56
4897.66
4897.73
4897.66
4897.66
4897.78
4897.76
4897.58
4897.61
4897.56
4897.5
4897.46
4897.42
4897.36
4897.3
4897.29
4897.21
4897.25
4897.14
4897.11
4897.2
4897.09
4897.13
4897.21
4897.14
4897.14
4897.2
4897.27
4897.29
4897.31
4897.4
4897.48
4897.46
4897.48
4897.62
4897.66
4897.57
4897.5
4897.48
4897.42
4897.36
4897.27
4897.18
4897.09
4896.96
4896.91
4896.73
4896.74
4896.68
4896.57
4896.63
4896.62
4896.49
4896.58
4896.66
4896.67
4896.73
4896.84
4896.9
4897
4897.12
4897.16
4897.22
4897.39
4897.41
4897.48
4897.44
4897.42
4897.39
4897.31
4897.21
4897.05
4896.88
4896.76
4896.54
4896.47
4896.25
4896.09
4896.08
4895.99
4895.78
4895.9
4895.92
4895.87
4895.97
4896.05
4896.15
4896.28
4896.42
4896.59
4896.73
4896.87
4897.07
4897.23
4897.3
4897.44
4897.44
4897.41
4897.34
4897.23
4897.1
4896.88
4896.57
4896.38
4896.05
4895.78
4895.59
4895.33
4895.07
4895.19
4895.01
4894.84
4894.93
4895.01
4895.08
4895.17
4895.37
4895.56
4895.78
4896.04
4896.31
4896.6
4896.87
4897.06
4897.33
4897.33
4897.42
4897.49
4897.44
4897.22
4896.95
4896.7
4896.31
4895.8
4895.42
4895.02
4894.61
4894.42
4894.05
4893.77
4893.69
4893.66
4893.66
4893.72
4893.84
4894.02
4894.32
4894.65
4895.01
4895.42
4895.85
4896.25
4896.62
4896.97
4897.25
4897.41
4897.43
4897.73
4897.62
4897.31
4896.92
4896.46
4895.88
4895.25
4894.63
4894.04
4893.45
4892.92
4892.55
4892.27
4892.01
4891.91
4891.95
4892.05
4892.23
4892.56
4892.98
4893.46
4894.01
4894.63
4895.25
4895.87
4896.44
4896.96
4897.35
4897.62
4897.7
4898.03
4897.92
4897.46
4896.92
4896.28
4895.44
4894.5
4893.64
4892.73
4891.88
4891.18
4890.58
4890.1
4889.79
4889.62
4889.64
4889.8
4890.09
4890.57
4891.18
4891.88
4892.73
4893.63
4894.52
4895.43
4896.28
4896.98
4897.49
4897.89
4898
4896.93
4897.24
4896.69
4896.09
4895.81
4894.66
4893.09
4892.36
4891.04
4889.66
4888.85
4887.9
4887.13
4886.71
4886.45
4886.46
4886.7
4887.13
4887.86
4888.86
4889.67
4891.04
4892.38
4893.12
4894.65
4895.83
4896.17
4896.67
4897.2
4896.97
4882.97
4887.51
4886.21
4886.12
4891.54
4890.18
4884.36
4889.53
4888.18
4883.85
4885.25
4883.52
4882.37
4882.02
4881.67
4881.69
4882
4882.38
4883.48
4885.27
4883.86
4888.19
4889.54
4884.38
4890.17
4891.53
4886.23
4886.14
4887.49
4883.03
4063.35
4230.89
4080.9
3956.83
4169.16
4025.99
3512.05
4016.61
3884.74
3410.63
3750.41
3567.87
3504.68
3499.74
3474.38
3474.9
3498.98
3506.02
3566.87
3750.52
3411.5
3885.58
4014.15
3512.41
4028.06
4166.98
3961.07
4081.73
4230.8
4062.76
954.529
1275.95
904.634
728.78
1271.31
792.658
346.746
912.778
579.431
192.134
504.752
277.438
248.272
262.948
244.044
244.77
261.949
249.698
276.348
504.529
192.349
581.339
909.805
346.168
798.545
1257.5
733.336
905.809
1275.46
954.279
0.901679
0.690071
0.639254
0.492275
0.789889
2.24115
4.63982
0.436918
0.722545
1.22044
0.106168
0.0969733
0.0964415
0.133193
0.168533
0.168524
0.133542
0.0967044
0.0972778
0.106348
1.23013
0.719648
0.437252
4.54835
2.22587
0.792196
0.492256
0.638923
0.688538
0.899314
0.64125
0.754864
0.578742
0.276899
0.303627
2.00422
0.326272
0.147912
0.138588
0.140933
0.286295
0.909293
0.836201
0.478086
0.567102
0.566983
0.477416
0.834072
0.909209
0.285057
0.142127
0.140171
0.146869
0.322184
2.04144
0.28915
0.276857
0.578428
0.754424
0.635566
0.558217
0.778281
0.660688
0.248465
0.152332
0.204622
0.198133
0.10067
0.116957
0.105562
0.110609
0.144483
0.160125
0.296101
0.224067
0.224554
0.296135
0.160064
0.144794
0.110642
0.10477
0.118593
0.10104
0.19906
0.202158
0.151571
0.248796
0.661651
0.782359
0.554297
0.0288339
0.0364958
0.0637608
0.066962
0.0410372
0.0370928
0.0380769
0.038578
0.0418876
0.0591243
0.0683825
0.078253
0.114492
0.0983921
0.10327
0.1033
0.0987088
0.115039
0.0786756
0.0687698
0.0593279
0.0420515
0.0386061
0.038073
0.0368006
0.0406452
0.0664679
0.0640775
0.0383054
0.0289382
0.0262185
0.032555
0.0314444
0.0266788
0.0241651
0.0238945
0.0252539
0.0265494
0.0286257
0.0325748
0.038826
0.048111
0.0639328
0.0787116
0.0943789
0.0944203
0.0787007
0.0640626
0.0482398
0.0389156
0.0325387
0.0285128
0.0263723
0.0249763
0.0234788
0.0238008
0.0262997
0.0310296
0.0317572
0.0256743
0.0190277
0.0196006
0.0195811
0.0195187
0.0198304
0.0206195
0.021604
0.0227833
0.0240081
0.0250826
0.0261246
0.0270462
0.0272169
0.0328306
0.0407765
0.0406778
0.0327325
0.0272403
0.0270284
0.0261095
0.0250449
0.0238734
0.0225877
0.0213193
0.0202092
0.0194484
0.0190924
0.0191249
0.0192035
0.0186736
0.0173052
0.017511
0.0176305
0.0178775
0.0182743
0.0188742
0.0195878
0.0203213
0.0210917
0.0218469
0.0224159
0.0228362
0.0230737
0.0232069
0.0233476
0.02335
0.0232201
0.0230991
0.0228551
0.0224422
0.0218223
0.0210305
0.0201305
0.019296
0.0184976
0.0178802
0.0174233
0.0171527
0.0170632
0.0168405
0.0162699
0.0163091
0.0164341
0.0166367
0.0169205
0.0172955
0.0176814
0.0180894
0.0185177
0.0188951
0.0192259
0.0194911
0.0197051
0.0197803
0.0198194
0.0198433
0.0198268
0.0197529
0.0195431
0.0192839
0.0188891
0.01846
0.0179305
0.0174028
0.0169366
0.016524
0.0161992
0.016001
0.0159099
0.0158301
0.0151001
0.0151395
0.0152546
0.0153603
0.0154869
0.0156759
0.0158416
0.0159871
0.0161428
0.0162685
0.016397
0.0164998
0.0165742
0.0166604
0.0167308
0.01675
0.016703
0.01663
0.0165678
0.0164435
0.0162942
0.0160807
0.0158336
0.0155613
0.0153198
0.015101
0.0149471
0.0148234
0.0147922
0.0147646
0.0139015
0.0139581
0.01399
0.0139861
0.0140354
0.014051
0.0140206
0.0140033
0.0139688
0.0139181
0.0138815
0.0138399
0.0138147
0.0138391
0.0138507
0.0138736
0.0138973
0.0138969
0.0139424
0.0139334
0.0139628
0.0139432
0.0138907
0.013825
0.0137586
0.0136633
0.0136064
0.0135887
0.0135799
0.013591
0.012645
0.0126546
0.0126347
0.0126289
0.0125987
0.0124955
0.0123556
0.0122083
0.0120238
0.0118482
0.0116868
0.0115438
0.0114566
0.0114306
0.0114226
0.0114416
0.0114764
0.0115375
0.0116448
0.0117507
0.0118948
0.0120228
0.0121171
0.0121891
0.0122299
0.0122372
0.012249
0.0123043
0.0123286
0.0123607
0.011386
0.0113416
0.0113336
0.0113004
0.0111906
0.0110068
0.0107851
0.0105301
0.0102544
0.0100034
0.00977217
0.00958603
0.0094779
0.00942347
0.00939913
0.00941441
0.00945359
0.00955586
0.00969237
0.00986664
0.0100741
0.0102852
0.010476
0.0106487
0.0107781
0.0108646
0.0109423
0.0110313
0.0110866
0.0111242
0.0101202
0.0100991
0.0100842
0.00999316
0.00983099
0.00961669
0.00935076
0.00903836
0.00871992
0.00842798
0.0081667
0.00796186
0.0078328
0.00775605
0.00772738
0.00774537
0.00778653
0.00790319
0.00806018
0.00826119
0.00849652
0.00875023
0.0090042
0.00924651
0.00944404
0.00958352
0.00970175
0.0098032
0.00987027
0.00990166
0.00893281
0.00893002
0.00885862
0.00872804
0.00857249
0.0083541
0.00806674
0.00773478
0.00740235
0.00709634
0.00682584
0.00660939
0.00646371
0.0063766
0.00634775
0.00636477
0.00641055
0.0065257
0.00668846
0.0068913
0.00713678
0.00741823
0.00771489
0.00799775
0.00823082
0.00840016
0.00853055
0.00862716
0.00869128
0.00872033
0.00784284
0.00781753
0.00770678
0.00758483
0.00742909
0.0071922
0.0068965
0.00656693
0.00623397
0.00592456
0.00565739
0.00545705
0.00533198
0.00525685
0.00522568
0.00523177
0.00527712
0.00538606
0.00554263
0.00573681
0.00598328
0.00627972
0.006595
0.00688823
0.00712364
0.00729732
0.00742745
0.00752176
0.00758572
0.00761755
0.00685171
0.00678752
0.00668938
0.00657617
0.0063943
0.00615179
0.00586758
0.00555038
0.00522496
0.00492898
0.00469089
0.00452839
0.00443168
0.00436741
0.00433619
0.00434258
0.00439025
0.00448647
0.00462144
0.00479506
0.0050245
0.00530416
0.00559904
0.00587386
0.00610254
0.00628185
0.00641781
0.0065146
0.00657809
0.00660985
0.00589732
0.00584817
0.00577122
0.00563747
0.00545346
0.00523303
0.00497585
0.00468526
0.00438837
0.00413398
0.00394685
0.00382027
0.00373178
0.0036649
0.0036374
0.00365302
0.00369791
0.00376844
0.00386835
0.00401031
0.00420779
0.00445204
0.004713
0.00496432
0.0051861
0.0053692
0.00550964
0.00560792
0.00566938
0.00569982
0.00502612
0.00498811
0.00489744
0.00476108
0.00460093
0.00440529
0.00418136
0.00393439
0.00369277
0.00350047
0.00336102
0.00325028
0.00315564
0.0030843
0.0030586
0.00307356
0.00310728
0.00315772
0.00323806
0.00336028
0.00352648
0.0037268
0.00394416
0.00416503
0.00437451
0.00455717
0.00469971
0.00479772
0.00485692
0.00488655
0.00423579
0.0041961
0.00409665
0.00398156
0.00383134
0.00365595
0.00347238
0.00328023
0.00310049
0.00295986
0.00284833
0.00274762
0.00266051
0.00259896
0.00257477
0.00258089
0.0026034
0.00264558
0.00271887
0.00282579
0.00295974
0.00311488
0.00328842
0.00347776
0.00367014
0.0038445
0.00398159
0.00407487
0.00413033
0.00415646
0.00352794
0.00348566
0.00340839
0.00329991
0.00315889
0.00301956
0.00288287
0.0027408
0.00260607
0.00249443
0.00239966
0.00231555
0.00224714
0.00219773
0.00217112
0.00216793
0.00218681
0.0022315
0.0023043
0.00239833
0.00250335
0.00261844
0.0027502
0.00290247
0.00306475
0.0032156
0.00333578
0.00341856
0.00346802
0.00348941
0.00288872
0.00284485
0.0027848
0.0026899
0.00259782
0.0025168
0.00242994
0.00232738
0.00221993
0.00212543
0.00204725
0.00198189
0.00192737
0.00188221
0.0018523
0.00184683
0.00186961
0.00191829
0.00198592
0.00206225
0.00213941
0.00221964
0.00231143
0.0024198
0.00253811
0.00265127
0.00274557
0.00281549
0.00286199
0.00288567
0.00227556
0.00223991
0.0021934
0.00215596
0.00213641
0.00211323
0.00206957
0.00200015
0.00191995
0.00184817
0.00178764
0.00173202
0.00167944
0.00163407
0.00160544
0.00160226
0.0016252
0.0016675
0.00172082
0.00177794
0.00183368
0.00188802
0.00194507
0.00200927
0.00208081
0.00215522
0.0022262
0.00228851
0.00233801
0.0023693
0.0017354
0.00169294
0.00168963
0.00171606
0.00174278
0.0017554
0.00174368
0.00170994
0.00166738
0.00162195
0.00156956
0.00151043
0.00145515
0.00141497
0.00139493
0.00139444
0.00141011
0.00143767
0.00147393
0.00151575
0.00155822
0.0015971
0.00163209
0.00166755
0.00170919
0.00175982
0.001817
0.00187404
0.00192286
0.00195544
0.00130607
0.00127814
0.00131813
0.00136479
0.0014047
0.00143408
0.0014457
0.00144654
0.00143652
0.00140534
0.00135197
0.00129217
0.00124536
0.00121845
0.00120563
0.0012
0.00120114
0.00121268
0.00123704
0.00127223
0.0013117
0.00134838
0.00137936
0.00140773
0.00143961
0.00147912
0.00152485
0.00157072
0.0016098
0.00163644
0.00103066
0.00104528
0.00108076
0.00111491
0.00115409
0.00118458
0.00120581
0.00122364
0.00122394
0.00119396
0.00114477
0.00109953
0.00107068
0.00105349
0.00103795
0.00102218
0.00101382
0.00102106
0.00104534
0.00108142
0.00112131
0.00115866
0.00119122
0.00122081
0.00125094
0.00128383
0.00131853
0.00135178
0.00138046
0.00140212
0.000927021
0.000939605
0.000947915
0.000974193
0.00100492
0.00102228
0.00103805
0.0010529
0.00104897
0.00102197
0.000987891
0.000961238
0.000941569
0.000921168
0.000898416
0.000881069
0.000878805
0.000894431
0.000922542
0.000955365
0.000988168
0.00102027
0.00105271
0.00108595
0.00111919
0.00115093
0.00117981
0.00120511
0.0012269
0.00124473
0.000895801
0.00087767
0.000887651
0.000916983
0.000930852
0.000931007
0.000935731
0.000940524
0.000933864
0.000917466
0.000898673
0.000877567
0.000849878
0.000817698
0.000791805
0.000783265
0.000794659
0.000819154
0.000847111
0.000873638
0.000900478
0.000931904
0.000969416
0.00100983
0.00104756
0.00107835
0.00110142
0.00111871
0.00113275
0.00114437
0.000877209
0.000868723
0.000896606
0.000914023
0.00090542
0.000893422
0.000888808
0.000885194
0.00087961
0.000872531
0.000858912
0.000831481
0.000791768
0.000753046
0.000731077
0.000732581
0.000752399
0.000780023
0.000808219
0.000836759
0.000869526
0.000908711
0.000951413
0.000990965
0.00102131
0.00104069
0.00105204
0.0010601
0.001068
0.00107546
0.000911164
0.000928072
0.000944988
0.000931543
0.000907762
0.000893567
0.000885179
0.000877709
0.00087301
0.000867934
0.000852373
0.000820931
0.00078098
0.000747623
0.000732301
0.000736499
0.000754464
0.000780196
0.00081139
0.000848268
0.000889588
0.000930533
0.000964265
0.000985825
0.000995248
0.000997592
0.000999781
0.00100636
0.00101701
0.0010272
0.000980839
0.00099341
0.00097477
0.000940706
0.000919819
0.000912047
0.000905753
0.00089958
0.000895793
0.000889733
0.000873963
0.000847715
0.000818235
0.00079437
0.000780953
0.00077872
0.000787652
0.000808559
0.000841258
0.000881569
0.000920951
0.00094982
0.000962562
0.000960751
0.000952285
0.000947064
0.00095171
0.000966286
0.00098477
0.00099878
0.00102651
0.0010166
0.000979633
0.000950909
0.000940095
0.000935304
0.0009299
0.000926022
0.000923697
0.0009183
0.000906452
0.000889292
0.000870087
0.00085128
0.00083495
0.000824945
0.000826817
0.000844264
0.000875063
0.000910221
0.000937868
0.000949492
0.00094455
0.000930539
0.00091862
0.000917572
0.000929506
0.000949456
0.000968584
0.000979139
0.00104278
0.00102642
0.000999644
0.000982702
0.000970559
0.000958467
0.000949795
0.000946769
0.000945701
0.00094178
0.000933416
0.000921309
0.000906013
0.000888218
0.000871056
0.000860644
0.000863067
0.000879722
0.000905087
0.000928955
0.000941972
0.000940705
0.000929164
0.000916049
0.000909665
0.000913628
0.0009256
0.000939344
0.000948553
0.000950241
0.00105835
0.00105211
0.00103767
0.00101864
0.000995808
0.000977279
0.000969403
0.000969649
0.000970721
0.00096758
0.000959216
0.000946399
0.000930257
0.000913091
0.000899161
0.000893253
0.0008976
0.000909708
0.000923188
0.000931242
0.00093052
0.000922703
0.000913004
0.000906753
0.000906345
0.000910309
0.000914823
0.00091644
0.000914285
0.000910363
0.00107428
0.00107381
0.00105629
0.00102832
0.0010023
0.000988675
0.000988012
0.000992873
0.000995409
0.000991908
0.0009823
0.000968189
0.000952065
0.000937148
0.000926428
0.000921137
0.000919608
0.000918163
0.000913403
0.000904553
0.000894034
0.000885928
0.000883281
0.000886112
0.000891337
0.000894693
0.000893366
0.000887766
0.000881371
0.000878505
0.00107423
0.00106898
0.00104568
0.00102047
0.00100382
0.000997662
0.000997355
0.000997056
0.000993636
0.000986749
0.000977243
0.000966319
0.000955336
0.000945344
0.000936198
0.000926059
0.000912312
0.000893858
0.000872377
0.000852522
0.000839777
0.00083759
0.000845381
0.000858658
0.000871204
0.00087813
0.000878155
0.000873906
0.000870175
0.000870921
0.00105695
0.0010474
0.0010338
0.00102557
0.0010188
0.00100817
0.000991756
0.00097199
0.000953209
0.000938675
0.000929297
0.000924131
0.000921188
0.000917688
0.00091021
0.000895638
0.000872894
0.000844428
0.00081608
0.00079507
0.000786982
0.000793273
0.00081068
0.0008328
0.000852964
0.000866924
0.000874099
0.000876907
0.000878724
0.000881657
0.00103101
0.00102683
0.00103399
0.00104038
0.00103252
0.00100696
0.000969279
0.000929169
0.000895216
0.000872034
0.000860085
0.000856823
0.000857861
0.000857888
0.000851888
0.000836816
0.000813108
0.00078503
0.000759479
0.00074326
0.00074059
0.000751638
0.000772889
0.000798916
0.000824589
0.000846639
0.000863976
0.000876883
0.000885742
0.000890249
0.00100103
0.00100865
0.00102564
0.00102852
0.0010096
0.000972861
0.000927324
0.000882071
0.000843593
0.000815252
0.000797664
0.000789125
0.000785957
0.00078329
0.000776522
0.000763055
0.000743429
0.000721187
0.000701571
0.000689492
0.000687986
0.000697583
0.000716685
0.000742552
0.000772206
0.00080291
0.000832058
0.000856879
0.000874366
0.000881878
0.000969209
0.000983781
0.00098754
0.000971305
0.000941168
0.000904843
0.000867126
0.000830153
0.000795272
0.000764282
0.000739181
0.000720968
0.000708703
0.00069966
0.000690521
0.000678895
0.000664319
0.000648296
0.000633627
0.000623452
0.000620485
0.000626609
0.000642717
0.000668596
0.000702749
0.000742193
0.000782444
0.000817974
0.000843179
0.000853899
0.00093359
0.00094282
0.000922861
0.000889768
0.000856357
0.000826417
0.00079745
0.000765873
0.000730737
0.000694428
0.000660995
0.000633781
0.000613906
0.000600162
0.000590064
0.000581133
0.00057183
0.000561963
0.000552639
0.000545954
0.000544649
0.000551549
0.000568924
0.000597656
0.000636521
0.000681864
0.000727934
0.000767892
0.00079533
0.000806068
0.00088176
0.000877624
0.000845853
0.000812465
0.000783954
0.000756769
0.00072504
0.000685895
0.000641091
0.000595564
0.000554739
0.000522289
0.000499259
0.00048449
0.000475663
0.000470358
0.000466813
0.000464282
0.000463142
0.000464756
0.000471396
0.000485437
0.000508696
0.000541531
0.000582197
0.000626729
0.000669535
0.000704537
0.000726589
0.000732956
0.000799532
0.000785327
0.000761903
0.000741743
0.000719687
0.000688485
0.000645177
0.000592397
0.000536375
0.000483861
0.000439739
0.000406102
0.000382664
0.000367826
0.00035971
0.000356807
0.000358159
0.000363352
0.00037244
0.000385858
0.000404295
0.000428379
0.000458086
0.00049241
0.000529102
0.000564823
0.000595684
0.00061809
0.000629614
0.000629702
0.000690365
0.000676726
0.000669848
0.000661119
0.000639839
0.000601765
0.000549945
0.000491679
0.000434671
0.000384371
0.000343153
0.000310993
0.000286797
0.00026958
0.000259028
0.000255416
0.000259174
0.000270441
0.000288802
0.000313252
0.000342213
0.000373937
0.000406244
0.000436926
0.000463841
0.000485143
0.000499591
0.000506812
0.000507435
0.000502912
0.000579193
0.000574433
0.000575169
0.000564547
0.000536694
0.000494364
0.000444809
0.00039527
0.000350275
0.000311164
0.000277177
0.000247104
0.000220587
0.000198638
0.000183333
0.000176987
0.000181243
0.000196397
0.000221136
0.000252722
0.000287465
0.000321415
0.000350959
0.000373411
0.000387384
0.000392946
0.000391541
0.000385688
0.000378432
0.000372443
0.000491557
0.000496024
0.000489896
0.00046626
0.000429477
0.000388123
0.000349441
0.000316489
0.000288307
0.000261896
0.000234533
0.000205376
0.000175986
0.000149809
0.000131041
0.000123312
0.000128611
0.000146703
0.000175102
0.000209563
0.000244938
0.000276131
0.000299078
0.000311415
0.000312866
0.000305223
0.000291933
0.000277363
0.000265833
0.00026047
0.000428796
0.000436802
0.000417617
0.00038147
0.000340467
0.000304653
0.00027816
0.000259172
0.000242585
0.000223322
0.000198711
0.000169378
0.000138805
0.000112022
9.40394e-05
8.84759e-05
9.66713e-05
0.000117403
0.000147174
0.000180947
0.00021313
0.000238646
0.000253882
0.000257277
0.000249588
0.000233681
0.000213929
0.00019531
0.0001823
0.000177812
0.000364121
0.000369228
0.000342568
0.00030427
0.000267514
0.000239927
0.000222175
0.000209889
0.000197121
0.000179458
0.000155669
0.000127787
0.000100084
7.7568e-05
6.45297e-05
6.34893e-05
7.4684e-05
9.60968e-05
0.000123926
0.000153356
0.00017942
0.000198044
0.00020655
0.000204271
0.000192527
0.000174358
0.000153946
0.000135775
0.000123552
0.000119578
0.000262051
0.000261071
0.000238089
0.000209675
0.000184663
0.0001669
0.000155291
0.000145949
0.000134762
0.000119377
9.99246e-05
7.86815e-05
5.91173e-05
4.47397e-05
3.81667e-05
4.05455e-05
5.13723e-05
6.86647e-05
8.93936e-05
0.000110057
0.000127215
0.000138412
0.00014204
0.000138061
0.000127695
0.000113247
9.7818e-05
8.43521e-05
7.53558e-05
7.22228e-05
0.000103979
0.000100264
9.0492e-05
7.96219e-05
7.05042e-05
6.40372e-05
5.94115e-05
5.50915e-05
4.97055e-05
4.26952e-05
3.44493e-05
2.60424e-05
1.88647e-05
1.41531e-05
1.27102e-05
1.47385e-05
1.9829e-05
2.70679e-05
3.5226e-05
4.29714e-05
4.90413e-05
5.26925e-05
5.33714e-05
5.12163e-05
4.67474e-05
4.08921e-05
3.48148e-05
2.96027e-05
2.61172e-05
2.48417e-05
4898.78
4898.78
4898.78
4898.78
4898.78
4898.78
4898.78
4898.78
4898.78
4898.78
4898.77
4898.77
4898.77
4898.78
4898.78
4898.78
4898.78
4898.78
4898.78
4898.78
4898.78
4898.78
4898.78
4898.78
4898.78
4898.78
4898.79
4898.79
4898.8
4898.81
4898.78
4898.78
4898.78
4898.78
4898.78
4898.78
4898.78
4898.78
4898.78
4898.78
4898.78
4898.78
4898.78
4898.78
4898.78
4898.78
4898.78
4898.78
4898.78
4898.78
4898.78
4898.78
4898.78
4898.78
4898.78
4898.79
4898.79
4898.79
4898.79
4898.79
4898.78
4898.78
4898.78
4898.78
4898.78
4898.78
4898.78
4898.78
4898.78
4898.78
4898.78
4898.78
4898.78
4898.78
4898.77
4898.77
4898.77
4898.77
4898.77
4898.77
4898.77
4898.78
4898.78
4898.78
4898.78
4898.78
4898.78
4898.78
4898.81
4898.79
4898.78
4898.77
4898.77
4898.78
4898.78
4898.78
4898.78
4898.79
4898.79
4898.79
4898.79
4898.78