/*--------------------------------*- C++ -*----------------------------------*\
| =========                 |                                                 |
| \\      /  F ield         | OpenFOAM: The Open Source CFD Toolbox           |
|  \\    /   O peration     | Version:  2312                                  |
|   \\  /    A nd           | Website:  www.openfoam.com                      |
|    \\/     M anipulation  |                                                 |
\*---------------------------------------------------------------------------*/
FoamFile
{
    version     2.0;
    format      ascii;
    arch        "LSB;label=32;scalar=64";
    class       surfaceScalarField;
    location    "0.822131";
    object      phi;
}
// * * * * * * * * * * * * * * * * * * * * * * * * * * * * * * * * * * * * * //

dimensions      [0 3 -1 0 0 0 0];

oriented        oriented;

internalField   nonuniform List<scalar> 
263100
(
-3.41856e-10
6.83713e-10
-3.41856e-10
-1.02274e-09
1.19354e-09
-6.29051e-10
-1.69635e-09
1.16643e-09
-5.94524e-10
-2.01789e-09
8.82798e-10
-6.69618e-10
-2.07405e-09
5.7419e-10
-6.36454e-10
-1.85095e-09
2.01237e-10
-5.52364e-10
-1.41425e-09
-1.48497e-10
-4.22035e-10
-8.98503e-10
-3.72405e-10
-2.75984e-10
-4.63005e-10
-3.97012e-10
-1.60779e-10
-1.83316e-10
-2.57857e-10
-1.24293e-10
-7.29007e-11
1.29023e-11
-1.98168e-10
-5.92387e-11
3.03646e-10
-3.60535e-10
-1.23906e-11
5.19977e-10
-5.79682e-10
1.70225e-10
6.03963e-10
-7.76182e-10
5.75071e-10
5.33082e-10
-9.16873e-10
1.19101e-09
3.43157e-10
-9.43668e-10
1.90139e-09
9.22693e-11
-8.09985e-10
2.46674e-09
-6.83525e-11
-5.41593e-10
2.64082e-09
-6.26824e-11
-2.018e-10
2.25939e-09
1.37628e-10
1.07215e-10
1.27062e-09
5.21036e-10
2.93273e-10
-2.79361e-10
9.97687e-10
3.55592e-10
-2.13821e-09
1.36952e-09
2.90336e-10
-3.96146e-09
1.50696e-09
1.34929e-10
-5.2141e-09
1.17608e-09
-7.18525e-11
-5.41156e-09
3.94791e-10
-3.05655e-10
-4.57425e-09
-5.32289e-10
-3.7543e-10
-2.75801e-09
-1.52706e-09
-3.30818e-10
2.13574e-11
-1.52014e-09
-1.28369e-09
9.44402e-10
-9.39742e-10
-2.71799e-10
1.09451e-09
-2.71799e-10
-6.29667e-10
1.61285e-09
-2.40295e-10
-7.47828e-10
1.32928e-09
-2.21446e-10
-8.36277e-10
9.26835e-10
-1.46835e-10
-8.41739e-10
4.19035e-10
-4.61819e-11
-7.80352e-10
-1.19565e-10
4.19763e-11
-6.82865e-10
-5.37277e-10
7.33523e-11
-5.46758e-10
-7.79783e-10
6.66993e-11
-3.671e-10
-7.86469e-10
3.3387e-11
-1.63937e-10
-5.79801e-10
-1.71071e-11
9.85025e-11
-2.62749e-10
-7.56327e-11
4.10237e-10
4.10854e-11
-9.26058e-11
7.49352e-10
2.28428e-10
-5.66507e-11
1.07246e-09
2.59238e-10
2.73589e-11
1.34607e-09
1.24309e-10
1.30467e-10
1.46344e-09
-5.69471e-11
2.4122e-10
1.40816e-09
-2.52957e-10
3.00252e-10
1.20198e-09
-2.96071e-10
2.62603e-10
8.87512e-10
-1.40355e-10
1.50488e-10
4.41035e-10
2.69069e-10
1.73924e-11
-5.92977e-11
8.0334e-10
-1.09881e-10
-5.36606e-10
1.33526e-09
-1.86556e-10
-9.04085e-10
1.6413e-09
-1.97839e-10
-1.02731e-09
1.48518e-09
-9.26431e-11
-8.65266e-10
7.16782e-10
1.24931e-10
-5.12726e-10
-5.34436e-10
4.62343e-10
-4.49753e-11
-2.10358e-09
1.01799e-09
3.79469e-10
-3.66436e-09
1.57728e-09
1.5879e-09
-4.90669e-09
1.7944e-09
-1.11662e-09
2.50298e-09
-7.67725e-11
1.16186e-09
-7.67725e-11
1.5115e-10
1.26417e-09
3.38846e-11
3.60916e-10
9.32845e-10
9.81019e-11
4.51807e-10
5.66871e-10
1.68134e-10
4.05468e-10
1.40077e-10
2.08848e-10
2.34371e-10
-2.89202e-10
2.10095e-10
1.22753e-11
-6.20547e-10
1.65897e-10
-1.60329e-10
-8.05794e-10
5.85267e-11
-1.8326e-10
-8.37047e-10
-5.84359e-11
3.77141e-12
-7.47409e-10
-1.36139e-10
3.7703e-10
-5.9318e-10
-1.41327e-10
8.66487e-10
-4.66787e-10
-6.41557e-11
1.32891e-09
-3.87515e-10
7.90696e-11
1.58569e-09
-3.47159e-10
2.71339e-10
1.5177e-09
-3.3071e-10
4.27334e-10
1.11774e-09
-2.65828e-10
4.84115e-10
4.76996e-10
-1.71257e-10
3.98805e-10
-2.10356e-10
2.81983e-11
1.68464e-10
-7.76757e-10
2.80291e-10
-7.38075e-11
-9.76007e-10
6.09156e-10
-3.69052e-10
-7.09297e-10
9.35201e-10
-6.15577e-10
-4.58643e-12
1.15562e-09
-7.12051e-10
1.00339e-09
1.13977e-09
-6.50313e-10
2.11806e-09
7.17514e-10
-4.43671e-10
3.09616e-09
-7.90931e-11
-2.36078e-10
3.71572e-09
-1.11774e-09
-5.07407e-11
3.47682e-09
-2.15021e-09
3.39715e-10
2.90731e-09
-3.2062e-09
3.53865e-10
1.72292e-09
-4.41274e-09
1.28216e-09
2.68102e-11
3.43961e-10
1.38979e-10
8.48426e-10
1.38979e-10
7.79625e-10
3.06442e-10
3.19778e-10
1.22659e-09
1.23e-10
3.60516e-10
1.42943e-09
-6.61186e-11
4.16948e-10
1.36478e-09
-2.42113e-10
4.17643e-10
1.06978e-09
-3.96293e-10
3.54596e-10
6.72105e-10
-5.22183e-10
2.33669e-10
3.07094e-10
-6.1382e-10
9.09999e-11
1.16508e-10
-6.84176e-10
-5.90099e-11
1.51879e-10
-7.69916e-10
-1.23796e-10
4.01802e-10
-8.54768e-10
-1.14955e-10
7.52191e-10
-9.32412e-10
-3.03345e-11
1.04419e-09
-9.37811e-10
8.99979e-11
1.10802e-09
-8.26932e-10
2.22612e-10
8.43329e-10
-5.62158e-10
2.78954e-10
3.03602e-10
-1.99422e-10
2.3862e-10
-3.8953e-10
2.03883e-10
7.75e-11
-1.02795e-09
5.61393e-10
-1.25086e-10
-1.33468e-09
7.7641e-10
-3.92066e-10
-1.12211e-09
8.18186e-10
-5.8153e-10
-3.05878e-10
7.14547e-10
-7.0403e-10
9.79006e-10
5.32693e-10
-7.19781e-10
2.50583e-09
2.1376e-10
-6.19183e-10
3.88896e-09
-1.95529e-10
-4.68775e-10
4.72163e-09
-5.99899e-10
-3.17383e-10
4.88169e-09
-1.02737e-09
-3.01433e-10
4.64648e-09
-1.38581e-09
-6.85404e-10
3.15259e-09
-9.5145e-10
-1.02133e-09
-6.58562e-11
-6.6576e-10
-4.7229e-10
9.53281e-10
-1.18094e-09
3.29511e-10
2.10587e-10
3.29511e-10
1.26205e-09
-1.1171e-09
5.59632e-10
1.85322e-09
-9.91076e-10
5.8678e-10
2.14722e-09
-9.08922e-10
6.05369e-10
2.12288e-09
-7.40319e-10
5.66111e-10
1.84421e-09
-5.49141e-10
4.56971e-10
1.40199e-09
-3.95427e-10
3.17823e-10
9.2854e-10
-3.43004e-10
1.76244e-10
5.43662e-10
-4.22068e-10
6.09561e-11
2.93655e-10
-6.25247e-10
6.11973e-13
1.49857e-10
-8.56626e-10
-8.83101e-12
7.58004e-11
-1.08415e-09
1.75275e-11
-1.36582e-11
-1.14555e-09
3.66484e-11
-1.75707e-10
-9.87998e-10
1.95174e-11
-4.25844e-10
-5.83625e-10
-5.7358e-11
-7.33917e-10
-5.2133e-11
-1.6854e-10
-9.9912e-10
4.60802e-10
-2.92651e-10
-1.11634e-09
8.01296e-10
-3.67877e-10
-9.27755e-10
8.31921e-10
-4.13701e-10
-3.37472e-10
5.71756e-10
-4.30979e-10
6.26977e-10
1.57779e-10
-4.21754e-10
1.88569e-09
-3.10666e-10
-3.81464e-10
3.13533e-09
-6.37943e-10
-3.51642e-10
4.06989e-09
-7.63252e-10
-3.44824e-10
4.38341e-09
-5.6851e-10
-3.71846e-10
3.92582e-09
-2.27244e-10
-4.20708e-10
2.78503e-09
2.93769e-10
-6.79626e-10
1.40354e-09
1.3064e-09
-1.17663e-09
-8.0862e-10
2.69218e-09
-1.38164e-09
2.29487e-09
-2.4304e-09
4.54763e-10
-6.39529e-10
4.54763e-10
1.47008e-09
-2.72296e-09
6.5925e-10
2.1036e-09
-2.22449e-09
6.69828e-10
2.48485e-09
-1.84495e-09
6.2373e-10
2.61023e-09
-1.32763e-09
5.26454e-10
2.49548e-09
-7.80758e-10
4.00941e-10
2.17496e-09
-3.34203e-10
2.95195e-10
1.70407e-09
-7.79624e-11
2.10769e-10
1.12145e-09
-4.57603e-11
1.65356e-10
4.65218e-10
-2.15531e-10
1.44527e-10
-2.04303e-10
-4.9413e-10
1.32403e-10
-8.41097e-10
-7.64923e-10
6.6445e-11
-1.36088e-09
-9.05161e-10
-4.07504e-11
-1.66888e-09
-8.6199e-10
-1.86771e-10
-1.73346e-09
-6.06749e-10
-2.97712e-10
-1.56707e-09
-2.2186e-10
-3.59604e-10
-1.19745e-09
1.38612e-10
-3.48958e-10
-6.72284e-10
3.06713e-10
-2.40441e-10
-2.61936e-11
1.89261e-10
-1.08024e-10
7.09141e-10
-1.70949e-10
-1.94683e-15
1.47545e-09
-6.29545e-10
8.1255e-11
2.13077e-09
-1.00885e-09
1.2586e-10
2.59508e-09
-1.09686e-09
5.11053e-11
2.71586e-09
-7.63461e-10
-1.33315e-10
2.42135e-09
2.3386e-11
-4.078e-10
1.57526e-09
1.20288e-09
-7.91926e-10
2.72209e-10
2.60123e-09
-1.26756e-09
-6.12881e-10
3.76547e-09
-1.92156e-09
-1.46599e-09
5.33472e-09
-2.14529e-09
2.92354e-09
-2.40854e-09
3.68178e-10
-1.32417e-09
3.68178e-10
1.29906e-09
-4.17522e-09
4.96027e-10
1.9379e-09
-3.30129e-09
4.25901e-10
2.46133e-09
-2.67663e-09
3.04327e-10
2.83415e-09
-1.88363e-09
1.89398e-10
3.01551e-09
-1.05904e-09
1.10163e-10
2.94296e-09
-3.26994e-10
7.55356e-11
2.55365e-09
2.04387e-10
9.72972e-11
1.8373e-09
4.59591e-10
1.60675e-10
8.35234e-10
4.76722e-10
1.986e-10
-3.30973e-10
3.13423e-10
1.72832e-10
-1.45634e-09
1.8146e-11
8.0035e-11
-2.30567e-09
-3.34751e-10
-4.63668e-11
-2.70408e-09
-6.34247e-10
-1.8892e-10
-2.60679e-09
-7.98974e-10
-2.58904e-10
-2.06834e-09
-8.55609e-10
-2.08982e-10
-1.23662e-09
-8.43636e-10
-6.64699e-11
-2.72374e-10
-8.59931e-10
9.44918e-11
6.09231e-10
-9.97653e-10
3.05551e-10
1.23566e-09
-1.22354e-09
5.09424e-10
1.54104e-09
-1.45574e-09
6.43177e-10
1.52359e-09
-1.50738e-09
6.26198e-10
1.21133e-09
-1.20172e-09
4.70917e-10
6.34176e-10
-4.08412e-10
1.94192e-10
-1.29807e-10
8.55307e-10
-1.82954e-10
-9.13501e-10
2.4453e-09
-6.54972e-10
-1.55906e-09
4.1523e-09
-1.1471e-09
-1.81163e-09
5.23242e-09
-1.48216e-09
-1.18584e-09
5.90217e-09
-1.45609e-09
2.73572e-09
-1.17323e-09
5.82171e-11
-1.45895e-09
5.82172e-11
8.43345e-10
-5.22336e-09
5.92464e-11
1.48423e-09
-4.05331e-09
-6.24642e-11
2.18033e-09
-3.30416e-09
-2.2225e-10
2.85294e-09
-2.38377e-09
-2.97284e-10
3.37265e-09
-1.38857e-09
-2.85091e-10
3.58286e-09
-4.23746e-10
-1.87782e-10
3.34012e-09
4.27006e-10
-5.19287e-11
2.60593e-09
1.03233e-09
6.89398e-11
1.43776e-09
1.34546e-09
1.6581e-10
2.84485e-11
1.33786e-09
1.98284e-10
-1.32396e-09
9.79251e-10
1.53907e-10
-2.33897e-09
3.26959e-10
8.30682e-11
-2.84966e-09
-4.54365e-10
5.90047e-11
-2.76266e-09
-1.19593e-09
7.47124e-11
-2.18526e-09
-1.77132e-09
1.7508e-10
-1.31603e-09
-2.14219e-09
3.61003e-10
-4.2233e-10
-2.31798e-09
5.93841e-10
2.61409e-10
-2.39525e-09
8.21999e-10
6.0784e-10
-2.40418e-09
9.84569e-10
5.70309e-10
-2.28179e-09
1.01327e-09
1.92425e-10
-1.94029e-09
9.23339e-10
-4.48511e-10
-1.25673e-09
7.51423e-10
-1.21733e-09
-1.60558e-10
5.21054e-10
-1.93232e-09
1.27836e-09
2.57943e-10
-2.38539e-09
2.82497e-09
2.8221e-11
-2.32052e-09
4.17374e-09
-1.22629e-10
-1.73602e-09
4.74837e-09
-1.10796e-10
-4.15699e-10
4.53115e-09
7.72824e-11
1.82968e-09
5.94002e-10
-4.69117e-10
-6.60732e-10
-4.69117e-10
2.81348e-10
-5.84686e-09
-5.31748e-10
9.68971e-10
-4.46133e-09
-6.35367e-10
1.81927e-09
-3.79276e-09
-6.83836e-10
2.67977e-09
-2.88336e-09
-6.35425e-10
3.40385e-09
-1.84156e-09
-4.93861e-10
3.81647e-09
-7.24855e-10
-2.90401e-10
3.73732e-09
4.30018e-10
-7.57385e-11
3.15666e-09
1.38427e-09
8.39535e-11
2.13476e-09
1.98963e-09
2.24109e-10
8.77029e-10
2.10802e-09
3.19072e-10
-3.59293e-10
1.64799e-09
3.91115e-10
-1.35701e-09
6.93862e-10
4.65156e-10
-1.98004e-09
-5.33888e-10
5.72982e-10
-2.22223e-09
-1.72156e-09
6.98075e-10
-2.1303e-09
-2.68976e-09
8.29923e-10
-1.84366e-09
-3.3321e-09
9.76586e-10
-1.50182e-09
-3.61691e-09
1.07926e-09
-1.22661e-09
-3.63031e-09
1.09756e-09
-1.10066e-09
-3.43912e-09
1.02771e-09
-1.1546e-09
-3.06203e-09
9.10954e-10
-1.42028e-09
-2.43851e-09
7.96508e-10
-1.8048e-09
-1.53971e-09
6.75388e-10
-2.19776e-09
-3.70705e-10
6.19057e-10
-2.44788e-09
1.00341e-09
5.84598e-10
-2.35249e-09
2.23002e-09
6.27863e-10
-1.72953e-09
3.00037e-09
7.51105e-10
-6.93427e-10
2.96411e-09
1.01641e-09
3.73755e-10
2.41921e-09
1.36874e-09
9.17244e-10
1.61742e-09
-6.90759e-10
4.53315e-10
-6.90759e-10
-4.4506e-11
-6.31985e-09
-7.01855e-10
5.85289e-10
-4.87451e-09
-6.80517e-10
1.36231e-09
-4.38415e-09
-6.03412e-10
2.15164e-09
-3.60955e-09
-4.2159e-10
2.80924e-09
-2.58815e-09
-2.06922e-10
3.19195e-09
-1.35739e-09
9.28503e-12
3.26726e-09
-8.42122e-12
1.64993e-10
3.01336e-09
1.18786e-09
2.81903e-10
2.48648e-09
1.98314e-09
3.88039e-10
1.78273e-09
2.18048e-09
5.11315e-10
9.96988e-10
1.67424e-09
6.75227e-10
1.88444e-10
5.98473e-10
8.69177e-10
-6.00515e-10
-7.6122e-10
1.04077e-09
-1.4243e-09
-2.01559e-09
1.19983e-09
-2.17349e-09
-3.07519e-09
1.25628e-09
-2.79367e-09
-3.77216e-09
1.18861e-09
-3.17733e-09
-4.12255e-09
9.83994e-10
-3.30862e-09
-4.19394e-09
7.212e-10
-3.2408e-09
-4.05242e-09
4.87767e-10
-3.02962e-09
-3.72069e-09
3.17901e-10
-2.7663e-09
-3.1223e-09
2.5801e-10
-2.51248e-09
-2.21807e-09
2.84165e-10
-2.24471e-09
-1.07881e-09
3.74663e-10
-1.85178e-09
1.04371e-10
5.48659e-10
-1.21571e-09
9.78538e-10
7.75857e-10
-3.39459e-10
1.30646e-09
1.08062e-09
4.28946e-10
1.15764e-09
1.3777e-09
7.23882e-10
1.0204e-09
1.48719e-09
7.41367e-10
1.20468e-09
-2.22945e-10
5.66178e-10
-2.22945e-10
2.01185e-11
-6.88804e-09
-1.61402e-10
2.84922e-10
-5.54248e-09
-1.44329e-11
5.93183e-10
-5.19601e-09
1.35955e-10
8.81328e-10
-4.56238e-09
3.5153e-10
1.108e-09
-3.57453e-09
4.98527e-10
1.28303e-09
-2.28834e-09
5.39641e-10
1.48208e-09
-8.83868e-10
4.98526e-10
1.74126e-09
3.65798e-10
4.2209e-10
1.99771e-09
1.21559e-09
4.13158e-10
2.13627e-09
1.49557e-09
5.02333e-10
2.01285e-09
1.16073e-09
6.57698e-10
1.48117e-09
3.65539e-10
8.53135e-10
4.95304e-10
-6.12113e-10
9.80625e-10
-8.74842e-10
-1.43361e-09
9.55916e-10
-2.37576e-09
-2.22412e-09
7.93687e-10
-3.72123e-09
-2.8328e-09
4.72212e-10
-4.64509e-09
-3.32646e-09
7.18987e-11
-5.01889e-09
-3.79884e-09
-2.17745e-10
-4.83012e-09
-4.1061e-09
-4.55445e-10
-4.22017e-09
-4.19713e-09
-5.27714e-10
-3.40834e-09
-3.89993e-09
-4.32882e-10
-2.56474e-09
-3.1854e-09
-2.11814e-10
-1.74183e-09
-2.18751e-09
5.93665e-11
-8.45151e-10
-1.18006e-09
2.83724e-10
2.00648e-11
-4.4325e-10
5.61466e-10
6.54839e-10
-3.80807e-11
7.93718e-10
8.14302e-10
2.83084e-10
8.43441e-10
5.3226e-10
8.05126e-10
6.28988e-10
7.82981e-10
5.10793e-10
9.14636e-10
-1.54687e-09
9.14636e-10
1.99204e-10
-7.39747e-09
9.61234e-10
-3.25317e-10
-6.42474e-09
1.19533e-09
-8.72953e-10
-6.0272e-09
1.20207e-09
-1.38574e-09
-5.40104e-09
1.19978e-09
-1.73865e-09
-4.39579e-09
1.03779e-09
-1.76144e-09
-3.15234e-09
7.60639e-10
-1.34806e-09
-1.83316e-09
4.23708e-10
-4.81293e-10
-7.37469e-10
1.51552e-10
6.52716e-10
4.52211e-11
-1.9092e-12
1.70522e-09
4.67833e-10
2.01256e-12
2.25302e-09
6.06732e-10
1.05904e-10
2.0479e-09
5.77863e-10
1.54314e-10
1.05349e-09
4.80579e-10
9.06142e-11
-4.61167e-10
3.05899e-10
-6.33161e-11
-2.28066e-09
-2.12504e-11
-3.1264e-10
-3.93983e-09
-5.86161e-10
-6.61821e-10
-4.98279e-09
-1.53384e-09
-9.95888e-10
-5.32205e-09
-2.66819e-09
-1.19708e-09
-4.97855e-09
-3.75388e-09
-1.21069e-09
-4.17385e-09
-4.49612e-09
-1.05695e-09
-3.14882e-09
-4.66404e-09
-7.76425e-10
-2.06736e-09
-4.26443e-09
-4.33889e-10
-1.02705e-09
-3.4708e-09
-9.07084e-11
-4.1213e-11
-2.57938e-09
1.60846e-10
7.10484e-10
-1.79437e-09
3.96895e-10
1.0249e-09
-1.04398e-09
5.07887e-10
8.96374e-10
-2.40025e-10
4.59702e-10
6.13662e-10
4.4656e-10
4.124e-10
3.98707e-10
7.13419e-10
2.10955e-09
-5.88887e-09
2.10955e-09
1.35631e-10
-7.25966e-09
1.88692e-09
-1.40868e-09
-6.64386e-09
1.82441e-09
-2.88096e-09
-6.08996e-09
1.591e-09
-4.16805e-09
-5.32008e-09
1.23499e-09
-5.00095e-09
-4.32875e-09
7.54898e-10
-5.09149e-09
-3.34162e-09
2.31328e-10
-4.31506e-09
-2.45603e-09
-2.21663e-10
-2.80471e-09
-1.7525e-09
-5.53931e-10
-8.90456e-10
-1.19905e-09
-6.87969e-10
8.46896e-10
-5.35678e-10
-6.89508e-10
1.92177e-09
3.05606e-10
-6.65353e-10
2.06669e-09
1.2791e-09
-6.97981e-10
1.33195e-09
2.21278e-09
-8.57835e-10
-1.04286e-12
2.80292e-09
-1.09433e-09
-1.54453e-09
2.76966e-09
-1.30368e-09
-2.86835e-09
1.96768e-09
-1.44331e-09
-3.67619e-09
4.13287e-10
-1.50262e-09
-3.84144e-09
-1.56857e-09
-1.40288e-09
-3.55353e-09
-3.39235e-09
-1.15533e-09
-3.00508e-09
-4.69648e-09
-8.25035e-10
-2.26936e-09
-5.31777e-09
-4.88713e-10
-1.46395e-09
-5.2122e-09
-1.89418e-10
-6.19172e-10
-4.67358e-09
7.55351e-11
1.97414e-10
-3.94653e-09
2.80373e-10
7.94447e-10
-3.11389e-09
4.34807e-10
1.06044e-09
-2.16912e-09
5.38421e-10
1.05719e-09
-1.29071e-09
6.93671e-10
9.34083e-10
-8.3077e-10
1.00152e-09
-4.06309e-10
1.39419e-09
2.48851e-09
-1.0788e-08
2.48851e-09
-6.31013e-10
-5.45225e-09
1.6167e-09
-2.95314e-09
-5.39296e-09
1.32852e-09
-4.92647e-09
-4.75774e-09
8.39056e-10
-6.45088e-09
-3.97936e-09
2.97162e-10
-7.22622e-09
-3.28835e-09
-2.42667e-10
-7.08872e-09
-2.90053e-09
-6.31958e-10
-5.89143e-09
-2.84936e-09
-8.9999e-10
-3.92324e-09
-2.84257e-09
-9.75721e-10
-1.70334e-09
-2.5373e-09
-9.44695e-10
2.17908e-10
-1.61338e-09
-8.53408e-10
1.45963e-09
-6.81818e-11
-8.31372e-10
1.88089e-09
1.81444e-09
-9.05855e-10
1.60456e-09
3.54961e-09
-1.04375e-09
8.95564e-10
4.58691e-09
-1.13948e-09
9.49667e-11
4.61128e-09
-1.21376e-09
-5.91253e-10
3.5274e-09
-1.14821e-09
-1.06276e-09
1.46841e-09
-9.20284e-10
-1.3773e-09
-9.7849e-10
-6.1486e-10
-1.54567e-09
-3.18913e-09
-3.22193e-10
-1.61514e-09
-4.79836e-09
-3.71329e-11
-1.60917e-09
-5.6252e-09
1.6095e-10
-1.37015e-09
-5.81714e-09
2.53363e-10
-8.78421e-10
-5.54075e-09
2.4458e-10
-2.61238e-10
-5.01169e-09
2.69102e-10
2.87887e-10
-4.25343e-09
3.59087e-10
6.91107e-10
-3.37469e-09
5.31582e-10
9.15281e-10
-2.68118e-09
8.75864e-10
7.2282e-10
-2.13147e-09
1.21474e-09
-7.66208e-10
9.37751e-10
1.42249e-09
-1.3416e-08
1.42249e-09
-1.86939e-09
-2.12802e-09
3.50652e-10
-4.11338e-09
-2.77528e-09
-8.6177e-11
-5.79446e-09
-2.40837e-09
-4.83118e-10
-6.91705e-09
-2.01862e-09
-7.71502e-10
-7.22906e-09
-2.12777e-09
-8.93558e-10
-6.57898e-09
-2.75826e-09
-9.20105e-10
-5.05558e-09
-3.70378e-09
-8.37255e-10
-3.1789e-09
-4.29467e-09
-5.90531e-10
-1.3476e-09
-4.12202e-09
-3.79924e-10
1.04264e-10
-2.90309e-09
-2.54533e-10
1.06501e-09
-8.31987e-10
-2.6344e-10
1.58935e-09
1.61572e-09
-3.97625e-10
1.83857e-09
3.73627e-09
-5.4598e-10
1.91478e-09
4.90796e-09
-5.62113e-10
1.89696e-09
4.84153e-09
-4.20866e-10
1.77138e-09
3.58916e-09
-1.49298e-10
1.43325e-09
1.43791e-09
2.02839e-10
8.21176e-10
-9.7269e-10
5.29393e-10
-1.85503e-11
-3.04606e-09
7.18062e-10
-9.29862e-10
-4.53644e-09
7.38103e-10
-1.62026e-09
-5.39456e-09
5.56672e-10
-1.88425e-09
-5.80656e-09
2.98927e-10
-1.70932e-09
-5.86706e-09
1.13182e-10
-1.2564e-09
-5.62883e-09
4.85529e-11
-7.54439e-10
-5.01733e-09
1.02849e-10
-3.86398e-10
-4.14667e-09
2.43141e-10
-3.12733e-10
-3.23419e-09
3.57003e-10
-6.4602e-10
-1.93706e-09
9.74156e-11
-7.81154e-10
-5.49596e-10
-3.28594e-10
-1.25243e-08
-3.28594e-10
-2.56221e-09
1.52321e-09
-1.12477e-09
-3.94072e-09
-6.34746e-11
-1.14854e-09
-4.7469e-09
-2.64096e-10
-1.26113e-09
-4.93512e-09
-7.19301e-10
-1.14294e-09
-4.43421e-09
-1.8485e-09
-9.0165e-10
-3.41774e-09
-3.42136e-09
-5.3024e-10
-2.21865e-09
-4.98333e-09
-1.13219e-10
-1.09903e-09
-5.82379e-09
2.29936e-10
-2.89744e-10
-5.5098e-09
4.27349e-10
2.08599e-10
-3.95913e-09
4.29931e-10
5.93055e-10
-1.58012e-09
2.40683e-10
1.10554e-09
9.46668e-10
1.87751e-11
1.78072e-09
2.98368e-09
-8.07062e-11
2.49538e-09
4.04285e-09
-9.38309e-12
3.0237e-09
3.95796e-09
2.35015e-10
3.16557e-09
2.84194e-09
5.73799e-10
2.69781e-09
1.12948e-09
8.66418e-10
1.63956e-09
-6.95953e-10
9.89207e-10
2.62436e-10
-2.3059e-09
9.13614e-10
-1.08151e-09
-3.61247e-09
6.87442e-10
-2.04074e-09
-4.65554e-09
4.02679e-10
-2.49669e-09
-5.49266e-09
1.98913e-10
-2.53561e-09
-6.02154e-09
1.343e-10
-2.38862e-09
-6.05382e-09
1.51445e-10
-2.23849e-09
-5.47168e-09
1.70678e-10
-2.19451e-09
-4.37506e-09
9.63799e-11
-2.30512e-09
-2.90187e-09
-2.23086e-10
-2.09584e-09
-1.30653e-09
-7.35266e-10
-2.00256e-09
-7.33211e-10
-1.56109e-09
-9.24463e-09
-1.56109e-09
-2.1394e-09
4.00704e-09
-1.7554e-09
-2.23684e-09
1.62718e-09
-1.52216e-09
-1.84675e-09
7.03057e-10
-1.35859e-09
-1.03346e-09
-6.59166e-10
-9.37572e-10
-3.38632e-11
-2.55476e-09
-3.98806e-10
8.71607e-10
-4.58803e-09
1.40742e-10
1.34056e-09
-6.11983e-09
5.54066e-10
1.295e-09
-6.64181e-09
7.67228e-10
8.34572e-10
-5.85433e-09
7.21836e-10
3.69814e-10
-4.03184e-09
4.53858e-10
3.03539e-10
-1.70403e-09
9.33318e-11
7.40398e-10
4.84223e-10
-8.35288e-11
1.58841e-09
2.11709e-09
-7.96276e-11
2.51959e-09
2.96423e-09
1.03863e-10
3.13102e-09
3.007e-09
3.99753e-10
3.145e-09
2.3876e-09
6.36001e-10
2.44136e-09
1.39424e-09
7.62167e-10
1.22146e-09
1.78839e-10
7.41868e-10
-1.55367e-10
-1.17527e-09
6.30495e-10
-1.38493e-09
-2.56068e-09
4.64911e-10
-2.27711e-09
-4.06282e-09
4.42049e-10
-2.81979e-09
-5.46542e-09
5.21531e-10
-3.19175e-09
-6.37774e-09
6.50367e-10
-3.56093e-09
-6.48527e-09
7.05139e-10
-3.88994e-09
-5.82441e-09
6.21623e-10
-4.0156e-09
-4.61041e-09
3.69643e-10
-3.69405e-09
-3.18008e-09
4.66254e-11
-2.31844e-09
-2.63687e-09
9.51444e-11
-4.86924e-09
6.261e-10
-1.72193e-09
-5.72885e-09
-1.72193e-09
-6.7933e-10
4.35275e-09
-1.31825e-09
4.94364e-10
1.55639e-09
-1.06472e-09
1.74818e-09
2.49202e-10
-7.84897e-10
3.01173e-09
-1.58847e-09
-3.32277e-10
4.09859e-09
-3.68102e-09
4.12655e-11
4.57672e-09
-5.43283e-09
3.78544e-10
4.22494e-09
-6.31238e-09
5.68253e-10
3.19311e-09
-6.10484e-09
5.23049e-10
1.92993e-09
-4.89843e-09
3.25717e-10
9.72741e-10
-3.16175e-09
8.38727e-11
6.53193e-10
-1.39851e-09
-9.98458e-12
9.1067e-10
1.75908e-10
2.71667e-11
1.54762e-09
1.27638e-09
2.20449e-10
2.15627e-09
1.95757e-09
5.01457e-10
2.40691e-09
2.24751e-09
7.30552e-10
2.13162e-09
2.13423e-09
8.64873e-10
1.35983e-09
1.66906e-09
9.00548e-10
2.84087e-10
7.93747e-10
8.53937e-10
-8.13377e-10
-6.08255e-10
8.35407e-10
-1.78261e-09
-2.29086e-09
8.74229e-10
-2.58436e-09
-4.18664e-09
9.82974e-10
-3.37336e-09
-5.78443e-09
1.10473e-09
-4.19767e-09
-6.65204e-09
1.10155e-09
-4.89827e-09
-6.65837e-09
9.27671e-10
-5.17645e-09
-6.10827e-09
6.80647e-10
-4.79006e-09
-5.37321e-09
5.48747e-10
-3.53644e-09
-4.98142e-09
7.34817e-10
-1.40865e-09
-5.8287e-09
1.19111e-09
-7.7602e-09
1.48672e-09
-9.82621e-10
-3.7231e-09
-9.82621e-10
1.24924e-09
2.59137e-09
-4.08558e-10
2.93343e-09
2.94364e-10
-3.60709e-10
4.61043e-09
-1.20255e-09
-1.57343e-10
6.1048e-09
-3.10041e-09
9.71931e-11
7.01641e-09
-4.82825e-09
3.30136e-10
7.06215e-09
-5.88528e-09
5.13882e-10
6.27073e-09
-5.99115e-09
5.80869e-10
4.92711e-09
-5.22421e-09
5.63198e-10
3.47978e-09
-3.92607e-09
5.52172e-10
2.36485e-09
-2.60762e-09
6.11866e-10
1.75179e-09
-1.52372e-09
7.75985e-10
1.53657e-09
-5.80757e-10
1.02498e-09
1.46369e-09
1.57417e-10
1.29582e-09
1.32503e-09
7.91839e-10
1.48503e-09
9.93175e-10
1.28938e-09
1.5457e-09
4.45759e-10
1.50154e-09
1.47426e-09
-2.45177e-10
1.25185e-09
1.37859e-09
-1.02987e-09
4.18641e-10
1.34572e-09
-1.91839e-09
-9.87205e-10
1.34151e-09
-2.83224e-09
-2.78814e-09
1.39762e-09
-3.88874e-09
-4.52806e-09
1.36223e-09
-5.05225e-09
-5.74486e-09
1.13724e-09
-6.02404e-09
-6.26355e-09
6.86254e-10
-6.36148e-09
-6.41054e-09
2.79887e-10
-5.87017e-09
-6.56305e-09
2.06722e-10
-4.52271e-09
-6.87594e-09
3.93776e-10
-2.53673e-09
-7.52347e-09
7.09252e-10
-9.32943e-10
-8.35835e-09
9.28077e-10
-9.25945e-09
4.55548e-10
-3.34056e-11
-3.61078e-09
-3.34056e-11
2.64802e-09
-3.20388e-10
2.71951e-10
4.76578e-09
-2.13969e-09
3.61997e-10
6.74905e-09
-3.65259e-09
5.22526e-10
8.30383e-09
-5.3288e-09
7.44657e-10
9.14063e-09
-6.5546e-09
9.7749e-10
9.10066e-09
-6.91027e-09
1.16569e-09
8.27457e-09
-6.37654e-09
1.31556e-09
6.98703e-09
-5.27855e-09
1.43802e-09
5.59443e-09
-4.05266e-09
1.60019e-09
4.29509e-09
-3.08551e-09
1.84542e-09
3.09783e-09
-2.38983e-09
2.13239e-09
1.94001e-09
-1.70536e-09
2.37216e-09
8.38395e-10
-9.77022e-10
2.36143e-09
-1.61975e-10
-2.20774e-10
2.17068e-09
-9.9671e-10
3.9798e-10
1.88743e-09
-1.64853e-09
6.52641e-10
1.61798e-09
-2.25575e-09
4.16083e-10
1.4711e-09
-2.93811e-09
-3.73551e-10
1.39823e-09
-3.84142e-09
-1.59625e-09
1.36281e-09
-5.03441e-09
-2.98469e-09
1.23539e-09
-6.37398e-09
-4.14363e-09
8.68171e-10
-7.46321e-09
-5.01953e-09
3.81588e-10
-7.8387e-09
-5.86906e-09
9.1453e-11
-7.22732e-09
-6.97227e-09
1.05357e-10
-5.78826e-09
-8.14686e-09
2.78234e-10
-3.92509e-09
-9.22822e-09
5.24026e-10
-2.24446e-09
-9.95742e-09
6.24909e-10
-1.328e-09
-9.85691e-09
3.08762e-10
-1.09377e-08
6.94198e-11
7.87532e-10
-5.16262e-09
7.87532e-10
3.89241e-09
-4.59658e-09
1.12386e-09
6.33195e-09
-5.88898e-09
1.26628e-09
8.48753e-09
-7.35535e-09
1.51638e-09
1.00692e-08
-8.70306e-09
1.7859e-09
1.0858e-08
-9.34274e-09
2.02209e-09
1.08062e-08
-8.99508e-09
2.18594e-09
1.00655e-08
-7.94043e-09
2.37156e-09
8.87914e-09
-6.54039e-09
2.52136e-09
7.4038e-09
-5.20592e-09
2.70024e-09
5.67993e-09
-4.16853e-09
2.87647e-09
3.70355e-09
-3.19711e-09
2.8575e-09
1.61776e-09
-2.15292e-09
2.61844e-09
-3.0416e-10
-1.15655e-09
2.19596e-09
-1.82321e-09
-2.74509e-10
1.65881e-09
-2.81086e-09
1.10579e-10
1.32072e-09
-3.51093e-09
1.48053e-10
1.17839e-09
-4.19225e-09
-1.01845e-10
1.09133e-09
-5.14247e-09
-6.28034e-10
1.0425e-09
-6.40623e-09
-1.35763e-09
8.67716e-10
-7.77832e-09
-2.23946e-09
5.35822e-10
-8.88556e-09
-3.27214e-09
2.39316e-10
-9.23259e-09
-4.71311e-09
1.16789e-10
-8.57298e-09
-6.72199e-09
2.82692e-10
-7.17451e-09
-9.03149e-09
6.91356e-10
-5.51727e-09
-1.1004e-08
1.10328e-09
-4.0423e-09
-1.22496e-08
1.27722e-09
-2.84996e-09
-1.26263e-08
1.06191e-09
-1.62287e-09
-1.21958e-08
6.80733e-10
-1.3602e-08
7.69351e-10
1.76334e-09
-8.73613e-09
1.76334e-09
5.13851e-09
-1.02644e-08
2.14327e-09
7.89338e-09
-1.11344e-08
2.36518e-09
1.01148e-08
-1.23056e-08
2.6378e-09
1.15455e-08
-1.30724e-08
2.89505e-09
1.20867e-08
-1.29163e-08
3.03788e-09
1.18842e-08
-1.18128e-08
3.06464e-09
1.1127e-08
-1.01203e-08
3.00267e-09
9.94493e-09
-8.22168e-09
2.93166e-09
8.28751e-09
-6.35731e-09
2.8669e-09
6.10162e-09
-4.62328e-09
2.68566e-09
3.54505e-09
-2.95671e-09
2.35405e-09
9.61046e-10
-1.39669e-09
1.86656e-09
-1.17683e-09
-4.40948e-10
1.46372e-09
-2.71458e-09
-6.19484e-12
1.30444e-09
-3.75883e-09
-6.35825e-11
1.2324e-09
-4.71861e-09
-1.85928e-10
1.2805e-09
-5.93549e-09
-2.07693e-10
1.29839e-09
-7.4479e-09
-2.76416e-10
1.16456e-09
-8.99539e-09
-6.02341e-10
8.66974e-10
-1.01758e-08
-1.46434e-09
5.67766e-10
-1.0548e-08
-3.15323e-09
4.75819e-10
-9.96399e-09
-5.80452e-09
7.26668e-10
-8.65952e-09
-9.15286e-09
1.26892e-09
-7.31085e-09
-1.21805e-08
1.80264e-09
-6.23742e-09
-1.4217e-08
1.96623e-09
-5.16442e-09
-1.53777e-08
1.7438e-09
-3.81061e-09
-1.574e-08
1.45161e-09
-1.86341e-09
-1.57004e-08
1.40133e-09
-1.68132e-08
1.41048e-09
2.78093e-09
-1.44048e-08
2.78093e-09
6.44411e-09
-1.72506e-08
3.16102e-09
9.38054e-09
-1.76155e-08
3.43737e-09
1.14574e-08
-1.81224e-08
3.69184e-09
1.2543e-08
-1.78849e-08
3.73992e-09
1.27501e-08
-1.6661e-08
3.59872e-09
1.23803e-08
-1.46495e-08
3.29053e-09
1.16352e-08
-1.23051e-08
3.00858e-09
1.04304e-08
-9.78728e-09
2.82015e-09
8.64437e-09
-7.21829e-09
2.6584e-09
6.26525e-09
-4.69149e-09
2.42766e-09
3.59148e-09
-2.47571e-09
2.16267e-09
1.13428e-09
-9.18278e-10
1.96226e-09
-8.42852e-10
-3.31372e-10
1.8812e-09
-2.41025e-09
-3.78462e-10
1.98766e-09
-3.90128e-09
-6.47185e-10
2.15408e-09
-5.63045e-09
-6.93784e-10
2.34939e-09
-7.64391e-09
-3.45257e-10
2.31e-09
-9.6446e-09
1.3692e-11
1.93558e-09
-1.11474e-08
-4.11763e-10
1.60902e-09
-1.18256e-08
-1.96728e-09
1.52519e-09
-1.15138e-08
-4.89876e-09
1.77174e-09
-1.05369e-08
-8.76091e-09
2.24972e-09
-9.6373e-09
-1.25838e-08
2.68506e-09
-9.08203e-09
-1.54762e-08
2.75603e-09
-8.35914e-09
-1.73656e-08
2.33521e-09
-7.07236e-09
-1.86547e-08
1.92097e-09
-4.94629e-09
-1.9578e-08
1.82545e-09
-2.30271e-09
-2.00198e-08
1.97163e-09
-2.10982e-08
2.29999e-09
3.7675e-09
-2.20325e-08
3.7675e-09
7.6372e-09
-2.53781e-08
4.17739e-09
1.05916e-08
-2.5018e-08
4.42951e-09
1.24448e-08
-2.43666e-08
4.42888e-09
1.32549e-08
-2.28072e-08
4.1952e-09
1.33486e-08
-2.04543e-08
3.80346e-09
1.30621e-08
-1.77473e-08
3.47928e-09
1.23691e-08
-1.48178e-08
3.26499e-09
1.11692e-08
-1.17199e-08
3.14209e-09
9.34131e-09
-8.45199e-09
3.02742e-09
7.03037e-09
-5.29415e-09
2.86033e-09
4.58742e-09
-2.79009e-09
2.71996e-09
2.37407e-09
-1.42589e-09
2.73049e-09
4.18279e-10
-1.19414e-09
2.88962e-09
-1.50372e-09
-1.53261e-09
3.20433e-09
-3.86912e-09
-1.56541e-09
3.45425e-09
-6.60707e-09
-1.12039e-09
3.36611e-09
-9.28763e-09
-3.96371e-10
2.96227e-09
-1.13222e-08
-3.47741e-10
2.65512e-09
-1.24602e-08
-1.66195e-09
2.66094e-09
-1.26278e-08
-4.54183e-09
2.99318e-09
-1.22734e-08
-8.60292e-09
3.53433e-09
-1.20506e-08
-1.29009e-08
3.99954e-09
-1.21797e-08
-1.64494e-08
3.96602e-09
-1.20328e-08
-1.92142e-08
3.49343e-09
-1.10356e-08
-2.14654e-08
3.03951e-09
-9.05849e-09
-2.33325e-08
2.81031e-09
-6.10133e-09
-2.50805e-08
2.84514e-09
-2.31247e-09
-2.67534e-08
3.22202e-09
-2.77533e-08
4.36822e-09
4.77864e-09
-3.16168e-08
4.77864e-09
8.59819e-09
-3.43341e-08
5.1122e-09
1.15224e-08
-3.30432e-08
5.11262e-09
1.33157e-08
-3.09735e-08
4.85621e-09
1.41824e-08
-2.81153e-08
4.50758e-09
1.44933e-08
-2.48475e-08
4.15697e-09
1.43847e-08
-2.14742e-08
3.90194e-09
1.37885e-08
-1.79384e-08
3.76363e-09
1.25403e-08
-1.40948e-08
3.65056e-09
1.06848e-08
-1.0048e-08
3.47559e-09
8.51565e-09
-6.34366e-09
3.26576e-09
6.33883e-09
-3.74095e-09
3.2222e-09
4.28331e-09
-2.58037e-09
3.36059e-09
2.02939e-09
-2.36436e-09
3.61648e-09
-8.1042e-10
-2.31481e-09
3.82543e-09
-4.20075e-09
-1.76091e-09
3.77088e-09
-7.63033e-09
-9.7163e-10
3.4359e-09
-1.03742e-08
-7.45668e-10
3.2262e-09
-1.2108e-08
-1.83768e-09
3.3456e-09
-1.28741e-08
-4.58333e-09
3.79146e-09
-1.32264e-08
-8.58118e-09
4.44851e-09
-1.37568e-08
-1.30722e-08
4.97414e-09
-1.46525e-08
-1.71661e-08
5.033e-09
-1.53625e-08
-2.05337e-08
4.58374e-09
-1.49532e-08
-2.40437e-08
4.22314e-09
-1.32552e-08
-2.74872e-08
4.26317e-09
-1.06086e-08
-3.01178e-08
4.22519e-09
-6.90323e-09
-3.30322e-08
4.28437e-09
-2.17246e-09
-3.66301e-08
4.92171e-09
-3.61444e-08
5.80595e-09
5.69561e-09
-4.30122e-08
5.69561e-09
9.321e-09
-4.37395e-08
5.6894e-09
1.22929e-08
-4.14889e-08
5.39741e-09
1.44097e-08
-3.817e-08
5.02913e-09
1.58053e-08
-3.41731e-08
4.65149e-09
1.66248e-08
-3.00036e-08
4.37093e-09
1.68135e-08
-2.58108e-08
4.22462e-09
1.62102e-08
-2.1338e-08
4.11683e-09
1.48171e-08
-1.6488e-08
3.93588e-09
1.29067e-08
-1.16455e-08
3.69641e-09
1.08314e-08
-7.67967e-09
3.64114e-09
8.76749e-09
-5.18882e-09
3.7741e-09
6.43525e-09
-4.02502e-09
4.04396e-09
3.40932e-09
-3.45661e-09
4.34794e-09
-4.58332e-10
-2.72359e-09
4.43136e-09
-4.57865e-09
-1.84326e-09
4.27315e-09
-8.21102e-09
-1.465e-09
4.13995e-09
-1.08409e-08
-2.35541e-09
4.24781e-09
-1.25232e-08
-4.77411e-09
4.65895e-09
-1.37178e-08
-8.57123e-09
5.25379e-09
-1.51253e-08
-1.2749e-08
5.63834e-09
-1.6809e-08
-1.6913e-08
5.53599e-09
-1.81927e-08
-2.10291e-08
5.1961e-09
-1.85709e-08
-2.51e-08
4.86569e-09
-1.75011e-08
-2.9848e-08
4.73449e-09
-1.51015e-08
-3.47492e-08
4.99354e-09
-1.17868e-08
-3.86626e-08
5.30733e-09
-7.66727e-09
-4.2896e-08
5.52278e-09
-3.23898e-09
-4.70641e-08
5.59705e-09
-4.39335e-08
4.34842e-09
6.04626e-09
-5.51769e-08
6.04626e-09
9.95466e-09
-5.35844e-08
5.72309e-09
1.34812e-08
-5.04933e-08
5.29991e-09
1.64093e-08
-4.61252e-08
4.91265e-09
1.87039e-08
-4.11726e-08
4.67994e-09
2.02093e-08
-3.6076e-08
4.63753e-09
2.06532e-08
-3.07786e-08
4.67889e-09
1.9962e-08
-2.50808e-08
4.65353e-09
1.84118e-08
-1.92188e-08
4.54474e-09