/*--------------------------------*- C++ -*----------------------------------*\
| =========                 |                                                 |
| \\      /  F ield         | OpenFOAM: The Open Source CFD Toolbox           |
|  \\    /   O peration     | Version:  2312                                  |
|   \\  /    A nd           | Website:  www.openfoam.com                      |
|    \\/     M anipulation  |                                                 |
\*---------------------------------------------------------------------------*/
FoamFile
{
    version     2.0;
    format      ascii;
    arch        "LSB;label=32;scalar=64";
    class       volVectorField;
    location    "0.822131";
    object      U;
}
// * * * * * * * * * * * * * * * * * * * * * * * * * * * * * * * * * * * * * //

dimensions      [0 1 -1 0 0 0 0];

internalField   nonuniform List<vector> 
90000
(
(1.42395e-06 9.44064e-07 1.42395e-06)
(-5.02978e-06 6.85585e-06 -1.57615e-06)
(-1.48948e-05 6.45396e-06 -2.04848e-06)
(-1.87177e-05 4.96378e-06 -3.14106e-06)
(-2.06611e-05 3.42334e-06 -3.55695e-06)
(-1.97985e-05 1.46907e-06 -3.85829e-06)
(-1.64291e-05 -3.7275e-07 -3.95303e-06)
(-1.15894e-05 -1.59799e-06 -3.7243e-06)
(-6.7506e-06 -1.83648e-06 -3.36169e-06)
(-3.10102e-06 -9.72817e-07 -3.17512e-06)
(-1.16838e-06 5.11954e-07 -3.40686e-06)
(-6.34142e-07 2.23023e-06 -4.06463e-06)
(-4.63489e-07 3.56918e-06 -4.99249e-06)
(5.17867e-07 4.13801e-06 -5.84732e-06)
(3.45328e-06 3.77172e-06 -6.44821e-06)
(8.73115e-06 2.6596e-06 -6.42094e-06)
(1.55099e-05 1.08526e-06 -5.43831e-06)
(2.2019e-05 -1.86802e-07 -3.57044e-06)
(2.58851e-05 -6.32033e-07 -1.30073e-06)
(2.49752e-05 3.49406e-07 6.6506e-07)
(1.81874e-05 2.50059e-06 2.10201e-06)
(5.70423e-06 5.26097e-06 2.26383e-06)
(-1.16267e-05 7.61794e-06 1.16261e-06)
(-3.0681e-05 8.96132e-06 -1.19824e-06)
(-4.64345e-05 7.84632e-06 -4.55458e-06)
(-5.38407e-05 4.35277e-06 -7.81034e-06)
(-5.04313e-05 -8.72703e-07 -9.86323e-06)
(-3.58789e-05 -9.96432e-06 -8.25463e-06)
(-1.77388e-05 -1.14726e-05 -1.71245e-06)
(-5.3256e-06 -4.01118e-06 1.72967e-05)
(-1.64773e-06 7.43785e-06 -1.64773e-06)
(-4.7539e-06 1.53554e-05 -1.55869e-06)
(-6.93296e-06 1.3515e-05 -1.52951e-06)
(-7.94886e-06 9.88618e-06 -1.11804e-06)
(-8.42421e-06 5.61547e-06 -5.81653e-07)
(-8.14325e-06 8.07171e-07 -2.03157e-07)
(-7.34577e-06 -3.39185e-06 -1.02899e-07)
(-6.17471e-06 -5.8871e-06 -1.91123e-07)
(-4.60182e-06 -6.11462e-06 -4.784e-07)
(-2.70078e-06 -4.11861e-06 -8.5425e-07)
(-3.89713e-07 -8.86301e-07 -1.04524e-06)
(2.48312e-06 2.43769e-06 -9.76239e-07)
(5.7639e-06 4.69797e-06 -5.72997e-07)
(9.11112e-06 5.32473e-06 1.58223e-07)
(1.21475e-05 4.10253e-06 1.09574e-06)
(1.4146e-05 1.60132e-06 1.94087e-06)
(1.44568e-05 -1.08342e-06 2.41011e-06)
(1.31418e-05 -2.52742e-06 2.19402e-06)
(1.05511e-05 -1.59305e-06 1.44661e-06)
(6.70748e-06 1.70251e-06 3.67296e-07)
(1.92357e-06 6.72137e-06 -8.18097e-07)
(-3.02589e-06 1.23151e-05 -1.40916e-06)
(-7.40662e-06 1.62874e-05 -1.51366e-06)
(-1.00034e-05 1.67242e-05 -8.75517e-07)
(-1.0038e-05 1.13843e-05 4.9709e-07)
(-7.01095e-06 7.64552e-07 2.09512e-06)
(-5.2854e-06 -1.19603e-05 3.62759e-06)
(7.30778e-06 -2.49078e-05 4.30917e-06)
(1.10783e-05 -3.56605e-05 7.50879e-06)
(4.95241e-07 -1.66675e-05 1.22628e-05)
(-2.01334e-06 1.24765e-05 -2.01334e-06)
(-4.26226e-07 1.55151e-05 -1.27402e-06)
(3.35599e-06 1.22244e-05 -6.28758e-07)
(4.23677e-06 8.13464e-06 2.85161e-07)
(4.50647e-06 3.13917e-06 9.14068e-07)
(3.3136e-06 -1.97846e-06 1.14956e-06)
(1.25816e-06 -6.12902e-06 9.96034e-07)
(-8.86222e-07 -8.44236e-06 4.53929e-07)
(-2.01526e-06 -8.59853e-06 -2.232e-07)
(-1.27553e-06 -6.98374e-06 -7.4018e-07)
(1.53406e-06 -4.475e-06 -8.91342e-07)
(6.04732e-06 -2.23158e-06 -3.91575e-07)
(1.10419e-05 -9.17334e-07 6.5746e-07)
(1.47805e-05 -6.73925e-07 1.90212e-06)
(1.57907e-05 -1.48114e-06 3.02136e-06)
(1.34368e-05 -2.61208e-06 3.54853e-06)
(8.11569e-06 -3.10107e-06 3.15957e-06)
(1.27754e-06 -2.20674e-06 1.92519e-06)
(-5.29264e-06 4.92265e-07 -1.06509e-07)
(-9.3653e-06 4.5945e-06 -2.1209e-06)
(-9.12843e-06 9.26124e-06 -3.67487e-06)
(-4.12055e-06 1.33279e-05 -4.22492e-06)
(4.77437e-06 1.48939e-05 -3.66142e-06)
(1.56394e-05 1.1758e-05 -1.75207e-06)
(2.63348e-05 3.24505e-06 1.26009e-06)
(3.44389e-05 -1.00723e-05 4.50718e-06)
(3.44518e-05 -2.33711e-05 7.48793e-06)
(3.44334e-05 -3.23425e-05 5.1292e-06)
(2.72338e-05 -4.53333e-05 9.11884e-06)
(8.95652e-06 -1.21233e-05 -3.36805e-06)
(-1.69837e-06 1.0662e-05 -1.69837e-06)
(3.16655e-06 8.66951e-06 3.3917e-07)
(1.09986e-05 5.88992e-06 1.06359e-06)
(1.35506e-05 2.9489e-06 1.88749e-06)
(1.42776e-05 -2.32414e-07 2.24034e-06)
(1.23559e-05 -3.24525e-06 2.15817e-06)
(8.78754e-06 -5.6944e-06 1.67276e-06)
(4.74323e-06 -7.25654e-06 9.96968e-07)
(1.76833e-06 -7.86902e-06 3.29762e-07)
(9.54652e-07 -7.92489e-06 -2.71816e-07)
(2.41077e-06 -7.70891e-06 -4.12651e-07)
(5.58789e-06 -7.50461e-06 3.1388e-08)
(9.10076e-06 -7.1993e-06 8.34886e-07)
(1.10269e-05 -6.51753e-06 1.55129e-06)
(1.0059e-05 -5.06437e-06 1.91435e-06)
(6.00114e-06 -2.77511e-06 1.76035e-06)
(-3.35492e-07 5.13551e-08 9.05278e-07)
(-7.28104e-06 3.08693e-06 -5.60046e-07)
(-1.23373e-05 5.60468e-06 -2.15026e-06)
(-1.30302e-05 7.59869e-06 -3.32304e-06)
(-8.15839e-06 8.77746e-06 -4.02848e-06)
(2.667e-06 8.97109e-06 -3.95195e-06)
(1.73782e-05 7.09778e-06 -3.08627e-06)
(3.22043e-05 2.58452e-06 -1.29438e-06)
(4.36871e-05 -4.06236e-06 1.26022e-06)
(4.90883e-05 -1.22916e-05 3.66581e-06)
(4.77596e-05 -2.12642e-05 4.22313e-06)
(3.74831e-05 -2.59766e-05 3.19375e-06)
(1.45769e-05 -2.49442e-05 2.6999e-06)
(1.15294e-07 8.07995e-06 -8.01333e-06)
(-1.10508e-07 5.81723e-06 -1.10508e-07)
(6.967e-06 -3.70284e-06 2.10521e-06)
(1.64217e-05 -4.0859e-06 2.67704e-06)
(2.02312e-05 -4.677e-06 3.1451e-06)
(2.16083e-05 -4.74566e-06 3.20845e-06)
(2.00073e-05 -4.58723e-06 2.92254e-06)
(1.62801e-05 -4.51226e-06 2.40346e-06)
(1.15792e-05 -4.80775e-06 1.83422e-06)
(7.17496e-06 -5.68157e-06 1.3726e-06)
(3.96472e-06 -7.3087e-06 1.01452e-06)
(2.00462e-06 -9.29696e-06 7.08363e-07)
(9.80227e-07 -1.08298e-05 5.48382e-07)
(2.89324e-07 -1.11678e-05 3.6188e-07)
(-8.30619e-07 -9.67829e-06 -9.03205e-10)
(-2.83519e-06 -6.08804e-06 -6.03723e-07)
(-5.70649e-06 -1.22716e-06 -1.35967e-06)
(-8.70227e-06 3.6566e-06 -2.11275e-06)
(-1.08088e-05 7.3779e-06 -2.50604e-06)
(-1.06803e-05 8.69433e-06 -2.69789e-06)
(-6.99332e-06 7.53061e-06 -2.60865e-06)
(9.49963e-07 4.74942e-06 -2.27169e-06)
(1.24533e-05 1.25019e-06 -1.69184e-06)
(2.52141e-05 -2.65904e-06 -9.83018e-07)
(3.63175e-05 -5.78536e-06 -3.2435e-07)
(4.27173e-05 -7.25424e-06 -4.00576e-08)
(4.24144e-05 -7.029e-06 -1.52863e-08)
(3.63365e-05 -6.87736e-06 -1.32132e-06)
(1.6035e-05 -1.75011e-06 -2.57389e-06)
(-1.60716e-06 9.00835e-06 -4.91458e-06)
(-1.45302e-06 1.8328e-05 -1.37143e-05)
(1.22755e-06 -1.99895e-06 1.22755e-06)
(9.06557e-06 -1.94282e-05 3.08211e-06)
(1.84557e-05 -1.62908e-05 3.41158e-06)
(2.30931e-05 -1.39023e-05 3.37051e-06)
(2.56318e-05 -1.03731e-05 3.08341e-06)
(2.56506e-05 -6.6526e-06 2.66184e-06)
(2.3431e-05 -3.65108e-06 2.38561e-06)
(1.94395e-05 -2.12874e-06 2.22724e-06)
(1.4146e-05 -2.44733e-06 2.15327e-06)
(7.92738e-06 -4.48906e-06 2.01119e-06)
(1.24797e-06 -7.45329e-06 1.71589e-06)
(-5.32323e-06 -1.00463e-05 9.38279e-07)
(-1.11353e-05 -1.09773e-05 -2.14507e-07)
(-1.53018e-05 -9.61243e-06 -1.49677e-06)
(-1.71657e-05 -5.90127e-06 -2.57911e-06)
(-1.66455e-05 -9.04748e-07 -3.28677e-06)
(-1.39627e-05 3.76339e-06 -3.39632e-06)
(-9.4971e-06 6.41424e-06 -2.79152e-06)
(-3.6001e-06 5.86879e-06 -1.74637e-06)
(3.38426e-06 2.53275e-06 -3.97223e-07)
(1.09615e-05 -2.15318e-06 8.01441e-07)
(1.81452e-05 -6.86154e-06 1.5623e-06)
(2.38525e-05 -9.57204e-06 1.62377e-06)
(2.68877e-05 -8.68933e-06 8.84778e-07)
(2.59806e-05 -3.77481e-06 -7.67094e-07)
(2.00367e-05 4.59524e-06 -3.37762e-06)
(1.17626e-05 1.54515e-05 -6.57594e-06)
(-3.36007e-06 2.67384e-05 -9.97925e-06)
(-1.36907e-05 4.05574e-05 -1.1539e-05)
(-6.5564e-06 2.77727e-05 -1.42816e-05)
(1.15769e-06 -1.03359e-05 1.15769e-06)
(7.91628e-06 -3.52083e-05 2.27238e-06)
(1.65044e-05 -2.82807e-05 2.02989e-06)
(2.20059e-05 -2.30271e-05 1.44846e-06)
(2.65008e-05 -1.62824e-05 9.63663e-07)
(2.93287e-05 -9.23128e-06 7.66301e-07)
(2.99295e-05 -3.28332e-06 9.8199e-07)
(2.76949e-05 6.39114e-07 1.49663e-06)
(2.21978e-05 1.99748e-06 2.1011e-06)
(1.35499e-05 1.11173e-06 2.36402e-06)
(2.57564e-06 -1.21621e-06 2.05001e-06)
(-9.0392e-06 -4.13882e-06 1.16513e-06)
(-1.90836e-05 -6.51384e-06 -1.20989e-07)
(-2.54345e-05 -7.54108e-06 -1.59281e-06)
(-2.69244e-05 -6.75411e-06 -2.67046e-06)
(-2.36629e-05 -4.78369e-06 -2.9896e-06)
(-1.67256e-05 -2.74168e-06 -2.30138e-06)
(-7.58739e-06 -1.9429e-06 -7.29808e-07)
(1.84998e-06 -3.40237e-06 1.14247e-06)
(9.49496e-06 -6.64584e-06 2.70789e-06)
(1.42069e-05 -1.0508e-05 3.90056e-06)
(1.56288e-05 -1.30392e-05 4.23272e-06)
(1.39071e-05 -1.19489e-05 3.57923e-06)
(9.44722e-06 -6.05217e-06 1.90232e-06)
(2.75493e-06 4.51555e-06 -6.90893e-07)
(-5.84403e-06 1.87681e-05 -3.85904e-06)
(-1.24068e-05 3.49832e-05 -7.39937e-06)
(-1.77222e-05 4.71265e-05 -9.15747e-06)
(-1.63478e-05 5.77031e-05 -9.73444e-06)
(-5.90999e-06 2.94419e-05 -8.53344e-06)
(-1.02366e-06 -1.52522e-05 -1.02366e-06)
(3.44103e-06 -4.79667e-05 -8.73675e-07)
(1.17925e-05 -3.76181e-05 -1.65391e-06)
(1.81673e-05 -3.04823e-05 -2.25361e-06)
(2.51085e-05 -2.15855e-05 -2.39777e-06)
(3.11917e-05 -1.22463e-05 -2.01107e-06)
(3.4971e-05 -3.65582e-06 -1.1513e-06)
(3.49269e-05 3.25534e-06 1.19845e-07)
(3.00962e-05 7.55041e-06 1.3442e-06)
(2.05467e-05 9.17653e-06 2.1441e-06)
(7.49297e-06 8.2945e-06 2.39151e-06)
(-6.59124e-06 5.05773e-06 1.92813e-06)
(-1.8679e-05 1.10344e-07 1.12206e-06)
(-2.64248e-05 -5.17277e-06 4.89928e-07)
(-2.85109e-05 -9.57892e-06 1.04939e-07)
(-2.50742e-05 -1.27736e-05 3.09246e-07)
(-1.77012e-05 -1.4626e-05 1.2484e-06)
(-8.65093e-06 -1.56507e-05 2.6652e-06)
(-3.98967e-07 -1.68369e-05 4.22271e-06)
(4.87259e-06 -1.81836e-05 5.36569e-06)
(6.43753e-06 -1.89267e-05 5.76996e-06)
(4.3867e-06 -1.74938e-05 5.40345e-06)
(-9.79779e-07 -1.22368e-05 4.37193e-06)
(-8.31623e-06 -2.47356e-06 2.83954e-06)
(-1.58962e-05 1.14696e-05 7.23376e-07)
(-2.21056e-05 2.74653e-05 -1.55222e-06)
(-2.40173e-05 4.29666e-05 -3.37748e-06)
(-2.1292e-05 5.17125e-05 -3.71756e-06)
(-1.01353e-05 5.33593e-05 -2.63871e-06)
(-5.83806e-07 2.34258e-05 1.55883e-06)
(-4.01401e-06 -1.20781e-05 -4.01401e-06)
(-2.1061e-06 -5.61691e-05 -4.37236e-06)
(6.42016e-06 -4.32163e-05 -5.06642e-06)
(1.35709e-05 -3.58095e-05 -5.33603e-06)
(2.23741e-05 -2.63829e-05 -4.90988e-06)
(3.04811e-05 -1.60362e-05 -3.83318e-06)
(3.63268e-05 -5.44399e-06 -2.28188e-06)
(3.81251e-05 4.4938e-06 -5.62065e-07)
(3.48585e-05 1.23547e-05 1.01352e-06)
(2.67775e-05 1.70167e-05 2.25856e-06)
(1.52167e-05 1.75629e-05 3.03301e-06)
(2.50024e-06 1.34839e-05 3.50105e-06)
(-8.88715e-06 5.43595e-06 3.77354e-06)
(-1.70535e-05 -4.66865e-06 4.06947e-06)
(-2.13329e-05 -1.45473e-05 4.4838e-06)
(-2.20098e-05 -2.26753e-05 4.95987e-06)
(-2.00062e-05 -2.79097e-05 5.5856e-06)
(-1.67305e-05 -3.02985e-05 5.99615e-06)
(-1.34555e-05 -3.06893e-05 6.0022e-06)
(-1.13269e-05 -2.9671e-05 5.51184e-06)
(-1.09707e-05 -2.69558e-05 4.74122e-06)
(-1.2538e-05 -2.18877e-05 3.96317e-06)
(-1.59085e-05 -1.36376e-05 3.00165e-06)
(-2.0021e-05 -1.96967e-06 2.3434e-06)
(-2.33832e-05 1.22295e-05 1.88826e-06)
(-2.43689e-05 2.62031e-05 1.86271e-06)
(-2.07445e-05 3.65907e-05 2.19537e-06)
(-1.27737e-05 3.92383e-05 3.78666e-06)
(1.39178e-07 3.49837e-05 6.01103e-06)
(4.2451e-06 1.36716e-05 7.85583e-06)
(-5.25784e-06 -1.23914e-06 -5.25784e-06)
(-4.75181e-06 -6.10979e-05 -5.41258e-06)
(2.96179e-06 -4.67994e-05 -5.48997e-06)
(9.31036e-06 -4.08363e-05 -5.16798e-06)
(1.74811e-05 -3.23548e-05 -4.0061e-06)
(2.48802e-05 -2.19705e-05 -2.55442e-06)
(3.02018e-05 -9.97464e-06 -1.0037e-06)
(3.25578e-05 2.47568e-06 4.61821e-07)
(3.16638e-05 1.32466e-05 1.60952e-06)
(2.77198e-05 2.04369e-05 2.71818e-06)
(2.14906e-05 2.19842e-05 3.76269e-06)
(1.39471e-05 1.70318e-05 4.98729e-06)
(5.91994e-06 6.68621e-06 6.32966e-06)
(-2.09299e-06 -6.53205e-06 7.40132e-06)
(-1.01834e-05 -1.962e-05 8.2151e-06)
(-1.80868e-05 -3.02805e-05 8.36886e-06)
(-2.49766e-05 -3.70954e-05 7.65247e-06)
(-3.0023e-05 -4.00846e-05 6.03616e-06)
(-3.25626e-05 -4.02333e-05 3.99698e-06)
(-3.28242e-05 -3.8162e-05 2.02537e-06)
(-3.13558e-05 -3.42481e-05 4.78787e-07)
(-2.89119e-05 -2.78314e-05 -4.34064e-07)
(-2.62999e-05 -1.85583e-05 -6.34592e-07)
(-2.37305e-05 -6.68982e-06 -1.7924e-07)
(-2.05241e-05 5.90158e-06 7.85673e-07)
(-1.54813e-05 1.63939e-05 2.20077e-06)
(-7.8524e-06 2.15772e-05 4.13573e-06)
(4.69792e-07 2.02514e-05 6.1525e-06)
(6.94823e-06 1.64708e-05 7.05621e-06)
(4.91841e-06 7.8097e-06 5.80026e-06)
(-1.99163e-06 6.74402e-06 -1.99163e-06)
(-1.4987e-06 -6.59386e-05 -1.678e-06)
(1.5499e-06 -5.18676e-05 -8.82631e-07)
(4.11159e-06 -4.78014e-05 -1.12303e-07)
(7.33428e-06 -4.08059e-05 1.18633e-06)
(9.93868e-06 -3.07599e-05 2.10922e-06)
(1.1994e-05 -1.80332e-05 2.44661e-06)
(1.38443e-05 -4.17711e-06 2.32573e-06)
(1.61204e-05 8.10316e-06 2.02524e-06)
(1.87683e-05 1.65351e-05 2.17288e-06)
(2.0843e-05 1.89356e-05 3.04313e-06)
(2.10222e-05 1.45033e-05 4.30922e-06)
(1.78942e-05 4.82029e-06 5.95238e-06)
(1.04174e-05 -7.4353e-06 7.14926e-06)
(-1.59141e-06 -1.95205e-05 7.30245e-06)
(-1.62683e-05 -2.88322e-05 6.31116e-06)
(-3.06633e-05 -3.51802e-05 4.16344e-06)
(-4.21777e-05 -3.91272e-05 1.33524e-06)
(-4.87186e-05 -4.11757e-05 -1.56684e-06)
(-4.95485e-05 -4.15046e-05 -3.76006e-06)
(-4.54084e-05 -3.9989e-05 -5.02087e-06)
(-3.81744e-05 -3.53432e-05 -5.18976e-06)
(-2.9762e-05 -2.69654e-05 -4.56913e-06)
(-2.13836e-05 -1.61634e-05 -3.40559e-06)
(-1.28415e-05 -5.3027e-06 -1.59165e-06)
(-3.97102e-06 2.56587e-06 4.85355e-07)
(3.73496e-06 6.00477e-06 2.28037e-06)
(7.6835e-06 6.56985e-06 3.0288e-06)
(7.412e-06 8.38368e-06 2.1489e-06)
(3.37107e-06 7.12643e-06 1.72085e-06)
(6.73974e-06 -3.02572e-07 6.73974e-06)
(6.70685e-06 -7.13966e-05 7.0374e-06)
(-1.58036e-06 -5.97633e-05 8.37204e-06)
(-5.94368e-06 -5.62208e-05 8.1026e-06)
(-1.13434e-05 -5.00801e-05 7.87964e-06)
(-1.57798e-05 -4.01959e-05 6.58651e-06)
(-1.78111e-05 -2.74376e-05 4.55231e-06)
(-1.59497e-05 -1.36687e-05 2.20058e-06)
(-9.58107e-06 -1.6776e-06 1.0367e-07)
(6.61983e-07 6.6327e-06 -9.43199e-07)
(1.2081e-05 1.01722e-05 -6.36617e-07)
(2.0472e-05 9.02864e-06 5.09938e-07)
(2.24287e-05 4.61021e-06 1.38147e-06)
(1.63613e-05 -1.27707e-06 1.7366e-06)
(3.45726e-06 -7.4522e-06 1.27452e-06)
(-1.36169e-05 -1.29239e-05 -6.77981e-07)
(-3.13641e-05 -1.8561e-05 -3.15108e-06)
(-4.51036e-05 -2.52714e-05 -5.3605e-06)
(-5.20318e-05 -3.29136e-05 -7.12953e-06)
(-5.18787e-05 -3.96385e-05 -7.92911e-06)
(-4.59682e-05 -4.35994e-05 -7.88413e-06)
(-3.66462e-05 -4.29946e-05 -6.97847e-06)
(-2.60092e-05 -3.72861e-05 -5.49986e-06)
(-1.53438e-05 -2.83387e-05 -3.83917e-06)
(-5.16117e-06 -1.87931e-05 -2.08963e-06)
(3.61781e-06 -1.12929e-05 -3.18025e-07)
(9.11569e-06 -5.55846e-06 8.112e-07)
(9.93499e-06 2.41013e-07 9.72292e-07)
(8.31903e-06 6.4239e-06 1.05577e-06)
(3.92891e-06 5.7403e-06 3.18818e-06)
(1.66474e-05 -3.29244e-05 1.66474e-05)
(1.4131e-05 -7.3887e-05 1.5161e-05)
(-9.16424e-06 -6.59504e-05 1.47335e-05)
(-2.13073e-05 -6.12508e-05 1.29268e-05)
(-3.54221e-05 -5.44121e-05 1.02369e-05)
(-4.62233e-05 -4.44704e-05 6.5609e-06)
(-5.10175e-05 -3.29412e-05 2.46857e-06)
(-4.77168e-05 -2.16844e-05 -1.35535e-06)
(-3.60901e-05 -1.23e-05 -4.05932e-06)
(-1.85334e-05 -5.48607e-06 -5.34158e-06)
(2.61846e-07 -1.59242e-07 -5.42e-06)
(1.48395e-05 4.66989e-06 -4.89042e-06)
(2.11731e-05 9.27693e-06 -4.37575e-06)
(1.79684e-05 1.33773e-05 -4.67439e-06)
(7.18952e-06 1.5469e-05 -5.68892e-06)
(-7.60163e-06 1.36956e-05 -6.766e-06)
(-2.23717e-05 6.9887e-06 -7.60085e-06)
(-3.31744e-05 -5.06649e-06 -8.20972e-06)
(-3.80146e-05 -2.04855e-05 -7.99878e-06)
(-3.72919e-05 -3.52363e-05 -7.01981e-06)
(-3.29485e-05 -4.57776e-05 -5.59528e-06)
(-2.64219e-05 -4.9773e-05 -4.03587e-06)
(-1.8689e-05 -4.74682e-05 -2.48807e-06)
(-1.04402e-05 -4.07705e-05 -1.08967e-06)
(-2.05399e-06 -3.2592e-05 1.99181e-07)
(5.17272e-06 -2.44553e-05 1.36057e-06)
(9.62718e-06 -1.57262e-05 2.28988e-06)
(1.08949e-05 -6.95494e-06 3.54662e-06)
(1.10474e-05 -1.43693e-06 5.52737e-06)
(5.87981e-06 8.00084e-08 8.31239e-06)
(2.16054e-05 -8.30356e-05 2.16054e-05)
(1.38532e-05 -6.52081e-05 1.57884e-05)
(-2.20485e-05 -6.16016e-05 1.38164e-05)
(-3.94027e-05 -5.57145e-05 1.03375e-05)
(-5.71835e-05 -4.74969e-05 6.23067e-06)
(-6.89634e-05 -3.87797e-05 1.58352e-06)
(-7.24326e-05 -3.14522e-05 -2.45087e-06)
(-6.5674e-05 -2.65067e-05 -5.03225e-06)
(-4.94426e-05 -2.27568e-05 -6.49461e-06)
(-2.81302e-05 -1.84595e-05 -6.91271e-06)
(-6.83741e-06 -1.05756e-05 -6.47782e-06)
(9.45243e-06 1.3097e-06 -6.0669e-06)
(1.78084e-05 1.57108e-05 -5.99544e-06)
(1.82097e-05 2.92372e-05 -6.25264e-06)
(1.27924e-05 3.76586e-05 -6.37967e-06)
(4.8244e-06 3.7885e-05 -6.55068e-06)
(-2.76198e-06 2.86074e-05 -6.05339e-06)
(-8.45135e-06 1.05274e-05 -4.73562e-06)
(-1.23182e-05 -1.1483e-05 -2.81507e-06)
(-1.46741e-05 -3.22167e-05 -7.94559e-07)
(-1.58522e-05 -4.74343e-05 9.24049e-07)
(-1.62284e-05 -5.4837e-05 2.14553e-06)
(-1.51157e-05 -5.5431e-05 2.61165e-06)
(-1.14956e-05 -5.12404e-05 2.4794e-06)
(-5.81389e-06 -4.48492e-05 2.65139e-06)
(3.99169e-07 -3.68129e-05 3.32912e-06)
(5.34776e-06 -2.75549e-05 4.49698e-06)
(8.50567e-06 -1.97392e-05 6.7023e-06)
(8.90919e-06 -1.54112e-05 8.87151e-06)
(4.22368e-06 -6.0478e-06 7.16004e-06)
(1.59049e-05 -0.000124001 1.59049e-05)
(2.70796e-06 -3.9347e-05 8.96336e-06)
(-3.34917e-05 -4.2017e-05 6.12661e-06)
(-4.97417e-05 -3.68901e-05 2.1446e-06)
(-6.39586e-05 -3.02159e-05 -1.18261e-06)
(-7.13202e-05 -2.68599e-05 -3.3344e-06)
(-6.97163e-05 -2.79318e-05 -4.51359e-06)
(-5.86719e-05 -3.22974e-05 -4.67927e-06)
(-4.13345e-05 -3.56157e-05 -3.90071e-06)
(-2.24419e-05 -3.33841e-05 -3.19468e-06)
(-5.66478e-06 -2.27133e-05 -2.49522e-06)
(6.4837e-06 -4.55278e-06 -2.39673e-06)
(1.37685e-05 1.74017e-05 -2.88022e-06)
(1.74284e-05 3.70029e-05 -3.42547e-06)
(1.88692e-05 4.83779e-05 -3.20606e-06)
(1.90978e-05 4.83615e-05 -2.0989e-06)
(1.84225e-05 3.66007e-05 8.75672e-09)
(1.61944e-05 1.53632e-05 2.50889e-06)
(1.15355e-05 -9.27041e-06 4.90061e-06)
(4.21108e-06 -3.13295e-05 6.52856e-06)
(-4.77964e-06 -4.7167e-05 7.01942e-06)
(-1.30842e-05 -5.57508e-05 6.16768e-06)
(-1.80192e-05 -5.86136e-05 4.63913e-06)
(-1.83663e-05 -5.75032e-05 3.59721e-06)
(-1.49877e-05 -5.35092e-05 3.29075e-06)
(-9.88964e-06 -4.674e-05 3.6479e-06)
(-5.27536e-06 -3.84126e-05 4.44265e-06)
(-2.53069e-06 -3.05133e-05 4.99968e-06)
(-5.40017e-06 -2.14255e-05 3.4101e-06)
(-4.56136e-06 -6.4352e-06 -1.59671e-06)
(3.83987e-06 -0.000134546 3.83987e-06)
(-1.12073e-05 -2.9903e-06 -3.08876e-06)
(-3.47661e-05 -1.30276e-05 -3.98728e-06)
(-4.37873e-05 -1.18996e-05 -5.53368e-06)
(-4.89352e-05 -1.20906e-05 -5.4791e-06)
(-4.73931e-05 -1.8549e-05 -4.50376e-06)
(-3.95788e-05 -3.03296e-05 -2.70595e-06)
(-2.82832e-05 -4.31734e-05 -4.73899e-07)
(-1.61223e-05 -5.10206e-05 1.51064e-06)
(-6.29982e-06 -4.91244e-05 2.7468e-06)
(-1.80567e-07 -3.54365e-05 2.75246e-06)
(4.03841e-06 -1.28121e-05 1.65341e-06)
(8.40888e-06 1.27907e-05 3.0601e-07)
(1.43104e-05 3.39435e-05 -4.7157e-07)
(2.1366e-05 4.53121e-05 2.62022e-08)
(2.77523e-05 4.45792e-05 1.72486e-06)
(3.12954e-05 3.25696e-05 4.01752e-06)
(2.98859e-05 1.30174e-05 6.3144e-06)
(2.21584e-05 -8.55092e-06 7.69063e-06)
(9.66673e-06 -2.73111e-05 7.84494e-06)
(-4.27723e-06 -4.12925e-05 6.87444e-06)
(-1.61532e-05 -5.06742e-05 5.46013e-06)
(-2.32393e-05 -5.67965e-05 4.28356e-06)
(-2.54258e-05 -5.99837e-05 3.95031e-06)
(-2.46227e-05 -5.88978e-05 4.03377e-06)
(-2.29441e-05 -5.31262e-05 4.05831e-06)
(-2.19443e-05 -4.37868e-05 3.32406e-06)
(-2.23305e-05 -3.11987e-05 8.89924e-07)
(-2.4093e-05 -1.52502e-05 -3.26259e-06)
(-1.29448e-05 -1.13147e-05 -4.18189e-06)
(-7.91073e-06 -0.00011172 -7.91073e-06)
(-1.89197e-05 2.91781e-05 -9.43081e-06)
(-2.24771e-05 1.05036e-05 -8.34924e-06)
(-2.07999e-05 5.27527e-06 -7.95439e-06)
(-1.47756e-05 -4.39378e-06 -5.73095e-06)
(-5.49478e-06 -2.07696e-05 -2.69008e-06)
(4.36021e-06 -3.98679e-05 7.23189e-07)
(1.14717e-05 -5.59989e-05 3.48169e-06)
(1.37526e-05 -6.34212e-05 5.02005e-06)
(1.1e-05 -5.86872e-05 4.8921e-06)
(5.89731e-06 -4.159e-05 3.24371e-06)
(2.91473e-06 -1.75402e-05 8.67171e-07)
(4.56935e-06 7.0727e-06 -7.09957e-07)
(1.1212e-05 2.57417e-05 -1.04214e-06)
(2.05185e-05 3.52795e-05 -1.4142e-09)
(2.8546e-05 3.50253e-05 1.98048e-06)
(3.19447e-05 2.62954e-05 3.59462e-06)
(2.85747e-05 1.26259e-05 4.77145e-06)
(1.87075e-05 -2.68147e-06 5.20683e-06)
(5.39702e-06 -1.71083e-05 5.07969e-06)
(-8.01359e-06 -3.06177e-05 4.41777e-06)
(-1.88144e-05 -4.33276e-05 4.49935e-06)
(-2.57715e-05 -5.47256e-05 5.11751e-06)
(-3.00942e-05 -6.22525e-05 5.97108e-06)
(-3.36703e-05 -6.30758e-05 6.28234e-06)
(-3.71566e-05 -5.68808e-05 5.43713e-06)
(-3.96617e-05 -4.51463e-05 3.25475e-06)
(-3.9151e-05 -2.91172e-05 4.42792e-07)
(-3.17467e-05 -1.65054e-05 -9.31441e-08)
(-1.32008e-05 -3.31703e-05 2.43e-06)
(-1.2083e-05 -7.41717e-05 -1.2083e-05)
(-1.4438e-05 4.41036e-05 -9.66823e-06)
(-3.92746e-07 1.91598e-05 -8.38257e-06)
(1.08156e-05 7.67628e-06 -6.9598e-06)
(2.3692e-05 -9.74741e-06 -4.35473e-06)
(3.57548e-05 -3.07958e-05 -1.08593e-06)
(4.38854e-05 -5.0223e-05 1.65419e-06)
(4.45835e-05 -6.27992e-05 3.1937e-06)
(3.74457e-05 -6.46748e-05 3.18794e-06)
(2.56293e-05 -5.49158e-05 1.99816e-06)
(1.38854e-05 -3.66265e-05 3.31284e-07)
(7.17709e-06 -1.54307e-05 -8.34263e-07)
(7.11396e-06 3.54137e-06 -1.17739e-06)
(1.19172e-05 1.72491e-05 -1.85677e-07)
(1.85583e-05 2.48011e-05 1.45716e-06)
(2.31704e-05 2.641e-05 3.06751e-06)
(2.33235e-05 2.27631e-05 4.27752e-06)
(1.80363e-05 1.55401e-05 4.76691e-06)
(8.44627e-06 5.34671e-06 4.7102e-06)
(-2.63558e-06 -7.56822e-06 4.86653e-06)
(-1.30902e-05 -2.35256e-05 5.40072e-06)
(-2.1967e-05 -4.08297e-05 6.24125e-06)
(-2.97548e-05 -5.6194e-05 7.19721e-06)
(-3.77349e-05 -6.53216e-05 7.37475e-06)
(-4.55029e-05 -6.59173e-05 6.20506e-06)
(-5.06525e-05 -5.95685e-05 4.22012e-06)
(-5.06305e-05 -4.8991e-05 2.66161e-06)
(-4.26913e-05 -3.90263e-05 3.24254e-06)
(-2.50738e-05 -4.02917e-05 5.52303e-06)
(-7.13494e-06 -6.34843e-05 7.60152e-06)
(-1.06225e-05 -4.51322e-05 -1.06225e-05)
(-2.62477e-06 3.77975e-05 -7.20316e-06)
(2.23301e-05 1.21332e-05 -6.49386e-06)
(3.7588e-05 -2.89809e-06 -4.7139e-06)
(5.36978e-05 -2.27126e-05 -2.34657e-06)
(6.59998e-05 -4.22973e-05 -2.08793e-07)
(7.09638e-05 -5.65787e-05 1.47838e-06)
(6.71516e-05 -6.16365e-05 2.35647e-06)
(5.62027e-05 -5.65843e-05 2.35004e-06)
(4.18656e-05 -4.37381e-05 2.19034e-06)
(2.86759e-05 -2.81186e-05 2.21095e-06)
(1.99658e-05 -1.32998e-05 2.9124e-06)
(1.59664e-05 -1.36511e-06 4.16894e-06)
(1.47804e-05 7.34668e-06 5.78826e-06)
(1.40201e-05 1.37876e-05 6.94578e-06)
(1.18844e-05 1.76839e-05 7.43289e-06)
(7.56279e-06 1.82123e-05 7.27135e-06)
(1.25917e-06 1.48131e-05 7.04043e-06)
(-6.24273e-06 6.58706e-06 7.00258e-06)
(-1.47005e-05 -7.12474e-06 7.12711e-06)
(-2.37318e-05 -2.51442e-05 7.67629e-06)
(-3.34587e-05 -4.37054e-05 7.7375e-06)
(-4.45375e-05 -5.81389e-05 6.63601e-06)
(-5.54313e-05 -6.49679e-05 4.00338e-06)
(-6.24243e-05 -6.52277e-05 1.35404e-06)
(-6.19316e-05 -6.26316e-05 4.0444e-07)
(-5.28348e-05 -5.99868e-05 1.1034e-06)
(-3.57962e-05 -6.19332e-05 3.08392e-06)
(-1.657e-05 -7.14361e-05 4.70878e-06)
(-3.9715e-06 -8.60167e-05 2.49597e-06)
(-5.40113e-06 -3.46563e-05 -5.40113e-06)
(9.33295e-06 1.37802e-05 -2.58863e-06)
(3.83937e-05 -7.88531e-06 -1.81733e-06)
(5.75782e-05 -2.33577e-05 -5.44137e-07)
(7.55723e-05 -4.14908e-05 1.13578e-06)
(8.79561e-05 -5.64842e-05 2.97686e-06)
(9.19561e-05 -6.36296e-05 4.42031e-06)
(8.72582e-05 -6.13682e-05 5.71473e-06)
(7.64167e-05 -5.17501e-05 6.60151e-06)
(6.27765e-05 -3.88986e-05 7.55473e-06)
(4.90077e-05 -2.74201e-05 8.86264e-06)
(3.63668e-05 -1.86235e-05 1.04022e-05)
(2.47604e-05 -1.11713e-05 1.18055e-05)
(1.37289e-05 -4.53241e-06 1.20584e-05)
(3.3003e-06 2.18355e-06 1.11574e-05)
(-5.82739e-06 7.86777e-06 9.69669e-06)
(-1.31509e-05 1.05269e-05 8.25148e-06)
(-1.9436e-05 8.13304e-06 7.44577e-06)
(-2.58827e-05 1.6342e-07 7.03502e-06)
(-3.37421e-05 -1.31226e-05 6.9148e-06)
(-4.41376e-05 -2.92215e-05 6.35306e-06)
(-5.68794e-05 -4.37722e-05 4.42457e-06)
(-6.92489e-05 -5.41813e-05 1.58017e-06)
(-7.682e-05 -6.04942e-05 -7.86186e-07)
(-7.60479e-05 -6.61598e-05 -1.45028e-06)
(-6.5901e-05 -7.26294e-05 -6.8068e-07)
(-4.88809e-05 -7.99264e-05 1.18055e-06)
(-3.0367e-05 -8.80031e-05 2.60781e-06)
(-1.71865e-05 -9.22192e-05 1.35852e-06)
(-6.51386e-06 -0.000101475 -1.40743e-07)
(2.92858e-07 -4.21716e-05 2.92858e-07)
(2.0667e-05 -2.35329e-05 2.86009e-06)
(5.20144e-05 -3.91743e-05 3.6976e-06)
(7.4228e-05 -5.42014e-05 5.2735e-06)
(9.32455e-05 -6.96106e-05 7.22395e-06)
(0.000105387 -7.9081e-05 9.02765e-06)
(0.00010891 -7.91358e-05 1.03002e-05)
(0.000104604 -7.10275e-05 1.15463e-05)
(9.47881e-05 -5.83857e-05 1.24687e-05)
(8.13715e-05 -4.56248e-05 1.36668e-05)
(6.53425e-05 -3.587e-05 1.48991e-05)
(4.68235e-05 -2.79988e-05 1.50237e-05)
(2.64894e-05 -1.99101e-05 1.38583e-05)
(6.31362e-06 -1.17465e-05 1.15742e-05)
(-1.09694e-05 -3.45364e-06 8.61673e-06)
(-2.33439e-05 2.04273e-06 6.72152e-06)
(-3.16302e-05 3.95262e-06 5.82827e-06)
(-3.84583e-05 1.36481e-06 5.25618e-06)
(-4.65485e-05 -5.23561e-06 4.74548e-06)
(-5.75729e-05 -1.50024e-05 3.75123e-06)
(-7.07954e-05 -2.60604e-05 1.92129e-06)
(-8.33704e-05 -3.66356e-05 -3.06707e-07)
(-9.0881e-05 -4.77047e-05 -1.84548e-06)
(-8.94567e-05 -6.17611e-05 -1.5545e-06)
(-7.90917e-05 -7.9021e-05 6.20903e-07)
(-6.35822e-05 -9.52811e-05 3.48802e-06)
(-4.74236e-05 -0.0001075 5.17042e-06)
(-3.38178e-05 -0.000113556 4.71492e-06)
(-2.22554e-05 -0.000110494 2.6208e-06)
(-8.39786e-06 -0.000122501 2.84393e-06)
(6.31044e-06 -6.82879e-05 6.31044e-06)
(3.25502e-05 -7.32837e-05 8.67144e-06)
(6.58646e-05 -8.42057e-05 1.02923e-05)
(9.0381e-05 -9.77295e-05 1.22005e-05)
(0.000108811 -0.000108569 1.38967e-05)
(0.000118615 -0.000111134 1.50021e-05)
(0.000120132 -0.000103873 1.55742e-05)
(0.000115176 -9.00554e-05 1.54837e-05)
(0.000105409 -7.35822e-05 1.53052e-05)
(9.12202e-05 -5.7673e-05 1.51725e-05)
(7.20256e-05 -4.40281e-05 1.43854e-05)
(4.82616e-05 -3.11429e-05 1.26776e-05)
(2.23434e-05 -1.83474e-05 1.00241e-05)
(-1.86995e-06 -8.2453e-06 7.57479e-06)
(-2.01926e-05 -1.00207e-06 6.60705e-06)
(-3.25022e-05 9.47468e-07 6.04334e-06)
(-4.23723e-05 4.34049e-07 6.1631e-06)
(-5.31882e-05 -1.34507e-06 6.1283e-06)
(-6.68165e-05 -4.37789e-06 5.09227e-06)
(-8.2155e-05 -9.5082e-06 3.23078e-06)
(-9.59242e-05 -1.7151e-05 1.14335e-06)
(-0.000103857 -3.02457e-05 -2.87473e-07)
(-0.000102885 -5.09348e-05 5.09626e-07)
(-9.3356e-05 -7.82376e-05 3.47679e-06)
(-7.98858e-05 -0.00010551 6.82195e-06)
(-6.74036e-05 -0.000126022 8.46832e-06)
(-5.65716e-05 -0.00013824 7.57749e-06)
(-4.49317e-05 -0.000141681 5.94772e-06)
(-2.84158e-05 -0.000138654 5.06551e-06)
(-9.31094e-06 -0.000151548 5.10353e-06)
(1.24074e-05 -0.000114353 1.24074e-05)
(4.50224e-05 -0.000136759 1.48891e-05)
(7.9918e-05 -0.000143102 1.67727e-05)
(0.000104742 -0.000151894 1.84456e-05)
(0.000120537 -0.00015478 1.92601e-05)
(0.00012679 -0.000148014 1.89037e-05)
(0.000125754 -0.000132537 1.75202e-05)
(0.00012009 -0.000112069 1.60815e-05)
(0.000110384 -9.00111e-05 1.51099e-05)
(9.5515e-05 -6.7861e-05 1.42871e-05)
(7.46832e-05 -4.65952e-05 1.30407e-05)
(4.92834e-05 -2.71115e-05 1.13722e-05)
(2.3445e-05 -1.13242e-05 1.01156e-05)
(8.71977e-07 -3.01708e-06 9.57482e-06)
(-1.67401e-05 -8.38078e-07 1.00197e-05)
(-3.1556e-05 -2.6978e-06 1.08266e-05)
(-4.7583e-05 -3.85131e-06 1.18054e-05)
(-6.63112e-05 -2.24337e-06 1.15472e-05)
(-8.64584e-05 -8.37184e-07 9.41715e-06)
(-0.000104077 -3.84382e-06 7.13644e-06)
(-0.000115083 -1.50174e-05 5.90178e-06)
(-0.000116941 -3.83293e-05 6.75497e-06)
(-0.000110389 -7.17548e-05 9.36704e-06)
(-0.00010076 -0.000108262 1.20255e-05)
(-9.3213e-05 -0.000138318 1.28634e-05)
(-8.69745e-05 -0.00015791 1.08664e-05)
(-7.73327e-05 -0.00016997 8.13487e-06)
(-6.05806e-05 -0.000176027 6.86493e-06)
(-3.58813e-05 -0.000177559 7.20211e-06)
(-1.10007e-05 -0.000188889 9.1373e-06)
(1.84133e-05 -0.000180866 1.84133e-05)
(5.68893e-05 -0.000212725 2.10272e-05)
(9.20503e-05 -0.000212982 2.2873e-05)
(0.000115843 -0.000212568 2.34345e-05)
(0.000128945 -0.000203782 2.26987e-05)
(0.000133175 -0.000186054 2.06483e-05)
(0.000131941 -0.000162218 1.86702e-05)
(0.00012704 -0.000135547 1.72667e-05)
(0.000117774 -0.000107452 1.64974e-05)
(0.000102698 -7.82673e-05 1.58073e-05)
(8.1948e-05 -4.97583e-05 1.48e-05)
(5.80326e-05 -2.5922e-05 1.39278e-05)
(3.46215e-05 -1.09687e-05 1.38974e-05)
(1.38325e-05 -6.8081e-06 1.46622e-05)
(-5.37554e-06 -8.80205e-06 1.62713e-05)
(-2.65664e-05 -1.08338e-05 1.75944e-05)
(-5.21582e-05 -9.00712e-06 1.71008e-05)
(-7.95629e-05 -3.10902e-06 1.48972e-05)
(-0.000103251 -4.31978e-07 1.30621e-05)
(-0.000119158 -8.51805e-06 1.26861e-05)
(-0.000125632 -3.08182e-05 1.41011e-05)
(-0.000124511 -6.65895e-05 1.69417e-05)
(-0.000121423 -0.000107962 1.97228e-05)
(-0.000120956 -0.000145216 1.97937e-05)
(-0.000121058 -0.000173579 1.74523e-05)
(-0.000115537 -0.000193966 1.48533e-05)
(-0.000100909 -0.000209456 1.29017e-05)
(-7.65858e-05 -0.000222485 1.22443e-05)
(-4.12453e-05 -0.000232867 1.41103e-05)
(-1.04121e-05 -0.000243736 2.1459e-05)
(2.43955e-05 -0.000267457 2.43955e-05)
(6.74008e-05 -0.000298814 2.68308e-05)
(0.000101335 -0.000290759 2.76502e-05)
(0.000124795 -0.000277278 2.64998e-05)
(0.0001378 -0.000255176 2.43985e-05)
(0.00014344 -0.000226904 2.22325e-05)
(0.000144407 -0.000196015 2.0586e-05)
(0.000140979 -0.000163681 1.96587e-05)
(0.000131838 -0.000129008 1.89404e-05)
(0.000116287 -9.23925e-05 1.78926e-05)
(9.60481e-05 -5.78978e-05 1.6676e-05)
(7.42097e-05 -3.20713e-05 1.63745e-05)
(5.30673e-05 -1.93391e-05 1.70489e-05)
(3.17801e-05 -1.73234e-05 1.83632e-05)
(6.49156e-06 -1.88201e-05 1.94778e-05)
(-2.48536e-05 -1.65149e-05 1.92213e-05)
(-5.92537e-05 -1.01031e-05 1.74265e-05)
(-9.03068e-05 -4.94622e-06 1.6232e-05)
(-0.000112864 -9.30501e-06 1.66712e-05)
(-0.000125234 -2.97095e-05 1.88764e-05)
(-0.000130501 -6.47728e-05 2.22829e-05)
(-0.00013477 -0.00010812 2.53798e-05)