/*--------------------------------*- C++ -*----------------------------------*\
| =========                 |                                                 |
| \\      /  F ield         | OpenFOAM: The Open Source CFD Toolbox           |
|  \\    /   O peration     | Version:  2312                                  |
|   \\  /    A nd           | Website:  www.openfoam.com                      |
|    \\/     M anipulation  |                                                 |
\*---------------------------------------------------------------------------*/
FoamFile
{
    version     2.0;
    format      ascii;
    arch        "LSB;label=32;scalar=64";
    class       volScalarField;
    location    "1.30953105";
    object      alpha.water;
}
// * * * * * * * * * * * * * * * * * * * * * * * * * * * * * * * * * * * * * //

dimensions      [0 0 0 0 0 0 0];

internalField   nonuniform List<scalar> 
90000
(
1
1.00005
1.00004
1.00004
1.00004
1.00003
1.00002
1.00001
1
0.999997
0.999991
0.999987
0.999985
0.999986
0.99999
0.999995
1
1.00001
1.00001
1.00001
1.00001
1.00001
1.00001
1.00001
1.00001
1.00001
1.00002
1.00002
1.00002
1.00002
1.00006
1.00008
1.00007
1.00006
1.00005
1.00004
1.00002
1.00001
0.999997
0.999987
0.999979
0.999975
0.999976
0.99998
0.999987
0.999996
1
1.00001
1.00001
1.00001
1.00001
1.00001
1.00001
1.00001
1.00002
1.00003
1.00003
1.00002
0.999968
0.999806
1.00004
1.00005
1.00005
1.00004
1.00003
1.00002
1.00001
1.00001
0.999997
0.999988
0.999982
0.999977
0.999974
0.999974
0.999976
0.999979
0.999983
0.999987
0.99999
0.999993
0.999994
0.999995
0.999998
1
1.00001
1.00002
1.00004
1.00009
1.00017
0.999993
1.00003
1.00003
1.00002
1.00002
1.00001
1.00001
1.00001
1
0.999998
0.999993
0.999987
0.999981
0.999976
0.999971
0.999968
0.999966
0.999967
0.999969
0.999973
0.999977
0.999982
0.999987
0.999991
0.999996
1
1
0.999999
0.999994
1.00007
1.00002
1.00001
0.999996
0.999996
0.999996
0.999997
1
1
1
1
1
1
0.999995
0.999989
0.999981
0.999974
0.999969
0.999967
0.999967
0.999971
0.999976
0.999982
0.999988
0.999992
0.999997
1
1.00001
1.00002
1.00001
1.00003
1.00001
0.999994
0.999968
0.999973
0.999977
0.999983
0.999991
1
1.00001
1.00001
1.00002
1.00002
1.00001
1.00001
1
0.999994
0.999987
0.999982
0.99998
0.999981
0.999986
0.999991
0.999997
1
1.00001
1.00001
1.00001
1.00002
1.00001
1.00001
0.999994
0.999978
0.99995
0.999957
0.999964
0.999973
0.999985
0.999996
1.00001
1.00002
1.00002
1.00003
1.00003
1.00002
1.00002
1.00001
1
0.999998
0.999994
0.999993
0.999996
1
1.00001
1.00001
1.00002
1.00002
1.00002
1.00001
1
0.999992
0.99999
0.999968
0.999945
0.999953
0.999961
0.99997
0.99998
0.999991
1
1.00001
1.00002
1.00002
1.00002
1.00002
1.00002
1.00002
1.00001
1.00001
1
0.999997
0.999998
1
1.00001
1.00001
1.00002
1.00002
1.00001
1
0.999992
0.99999
0.999996
0.999966
0.999958
0.999964
0.99997
0.999976
0.999981
0.999986
0.999991
0.999996
1
1.00001
1.00001
1.00001
1.00001
1.00001
1.00001
1
0.999998
0.999995
0.999994
0.999997
1
1
1
0.999996
0.999989
0.999983
0.999982
0.999989
0.999996
0.999976
0.999987
0.99999
0.999992
0.999993
0.999992
0.99999
0.999988
0.999987
0.999988
0.999991
0.999995
1
1
1
1
1
0.999997
0.999994
0.999993
0.999992
0.99999
0.999986
0.999979
0.999971
0.999965
0.999966
0.999973
0.999982
0.999984
0.999996
1.00002
1.00002
1.00002
1.00002
1.00001
1
0.999993
0.999987
0.999984
0.999985
0.999987
0.999991
0.999994
0.999997
0.999999
1
1
1
0.999997
0.999993
0.999985
0.999976
0.999966
0.999959
0.999958
0.999965
0.999973
0.999976
0.999975
1.00002
1.00005
1.00005
1.00004
1.00003
1.00002
1.00001
0.999996
0.999988
0.999983
0.999981
0.999982
0.999983
0.999986
0.99999
0.999994
0.999999
1
1
1
0.999996
0.999987
0.999976
0.999969
0.999968
0.999973
0.99998
0.999983
0.999978
0.999982
1.00004
1.00005
1.00004
1.00003
1.00002
1.00001
0.999998
0.999989
0.999983
0.999979
0.999976
0.999975
0.999975
0.999977
0.999981
0.999988
0.999996
1
1
1
0.999997
0.999989
0.999983
0.999981
0.999984
0.999989
0.99999
0.999985
0.99998
0.999985
1.00003
1.00002
1.00001
1
0.999992
0.999985
0.99998
0.999978
0.999977
0.999976
0.999974
0.999973
0.999972
0.999973
0.999979
0.999986
0.999995
1
1
1
0.999995
0.99999
0.999988
0.999988
0.999989
0.999986
0.999978
0.999968
0.999964
0.999965
1.00001
0.999973
0.999969
0.999964
0.999963
0.999966
0.999971
0.999977
0.999982
0.999984
0.999983
0.999981
0.99998
0.999982
0.999986
0.999993
0.999999
1
1
0.999998
0.999995
0.999993
0.999993
0.999992
0.999987
0.999976
0.999962
0.999953
0.999948
0.99995
0.999977
0.999938
0.999943
0.999948
0.999957
0.999969
0.999981
0.999991
0.999997
0.999998
0.999996
0.999993
0.999992
0.999993
0.999997
1
1
1
0.999999
0.999998
0.999999
1
1.00001
1
0.999997
0.999986
0.999977
0.999973
0.999972
0.999988
0.999959
0.999934
0.999947
0.999959
0.999972
0.999986
0.999996
1
1
1
0.999997
0.999995
0.999996
0.999999
1
1
0.999998
0.999995
0.999993
0.999996
1
1.00001
1.00002
1.00002
1.00002
1.00001
1.00001
1.00002
1.00003
1.00005
0.999963
0.999954
0.999967
0.999977
0.999986
0.999993
0.999995
0.999994
0.999991
0.999988
0.999989
0.999993
0.999999
1
1
1
0.999994
0.999989
0.99999
0.999996
1
1.00001
1.00002
1.00001
1.00001
1.00002
1.00003
1.00004
1.00005
1.00005
0.999977
0.999974
0.99998
0.999983
0.999985
0.999985
0.999983
0.999981
0.999982
0.999986
0.999996
1.00001
1.00002
1.00002
1.00001
1
0.999995
0.99999
0.999992
0.999997
1
1
0.999995
0.999988
0.999987
0.999994
1
1.00001
1.00001
0.999973
0.999987
0.999981
0.999981
0.999982
0.999983
0.999984
0.999985
0.999989
0.999996
1.00001
1.00002
1.00003
1.00003
1.00003
1.00001
1
0.999993
0.999992
0.999995
0.999996
0.999993
0.999983
0.999972
0.999967
0.999971
0.99998
0.999982
0.999973
0.999952
0.999939
0.999988
0.999987
0.999989
0.999993
0.999998
1
1.00001
1.00001
1.00002
1.00003
1.00004
1.00003
1.00002
1.00001
0.999993
0.999986
0.999987
0.999993
0.999998
0.999995
0.999986
0.999975
0.99997
0.999976
0.99999
0.999998
0.999992
0.999976
0.999964
0.999988
0.999993
1.00001
1.00001
1.00002
1.00002
1.00003
1.00003
1.00003
1.00003
1.00003
1.00002
1.00001
0.99999
0.999977
0.999974
0.999982
0.999995
1.00001
1.00001
0.999998
0.999986
0.999981
0.999989
1
1.00002
1.00001
1
0.999997
1
1.00002
1.00001
1.00003
1.00003
1.00003
1.00003
1.00003
1.00003
1.00003
1.00002
1.00001
0.999999
0.999984
0.999974
0.999975
0.999986
1
1.00002
1.00002
1.00001
0.999999
0.999992
0.999999
1.00001
1.00003
1.00002
1
0.999995
0.999998
1
0.999991
1.00002
1.00003
1.00003
1.00003
1.00002
1.00002
1.00002
1.00002
1.00001
1.00001
0.999995
0.999986
0.999984
0.999993
1.00001
1.00002
1.00002
1.00001
0.999994
0.999989
0.999998
1.00002
1.00003
1.00003
1.00001
0.999994
0.999991
0.999991
0.999979
0.999979
1.00002
1.00002
1.00001
1.00001
1.00001
1.00001
1.00001
1.00002
1.00001
1.00001
0.999996
0.999989
0.99999
0.999997
1
0.999998
0.999985
0.999972
0.999969
0.999984
1.00001
1.00003
1.00003
1.00002
1
1
0.999999
0.999991
0.999987
1.00001
1.00001
0.999993
0.999993
0.999992
0.999995
1
1.00001
1.00001
1.00001
0.999997
0.999989
0.999988
0.999992
0.999997
0.999995
0.999984
0.999972
0.999971
0.999987
1.00001
1.00003
1.00004
1.00002
1
1
1
0.999996
0.999992
1.00001
0.999995
0.999993
0.999973
0.999975
0.999977
0.999981
0.999988
0.999994
0.999996
0.999994
0.999992
0.999995
1.00001
1.00002
1.00002
1.00002
1.00001
1
1.00002
1.00003
1.00005
1.00004
1.00003
1.00001
1
1
1
0.999992
0.999997
0.999995
0.999965
0.999982
0.999959
0.999963
0.999966
0.999973
0.999981
0.999987
0.99999
0.999994
1
1.00002
1.00003
1.00004
1.00004
1.00003
1.00002
1.00003
1.00004
1.00005
1.00004
1.00002
1.00001
1
1.00001
1.00001
1.00001
1
0.999997
0.999975
0.999992
0.999975
0.999956
0.999963
0.999968
0.999975
0.99998
0.999984
0.999987
0.999994
1.00001
1.00002
1.00003
1.00003
1.00002
1.00001
1.00001
1.00002
1.00002
1.00001
0.999998
0.999984
0.999985
0.999999
1
0.999998
1
1
0.999983
0.999991
1.00002
0.999975
0.999965
0.999971
0.999974
0.999975
0.999975
0.999975
0.999979
0.999988
1
1.00001
1.00001
1.00001
1
1
1.00001
1.00001
1
0.99999
0.999981
0.999979
0.999978
0.999984
0.999984
0.99998
0.999986
0.99999
0.999984
1.00002
1
0.999982
0.999973
0.999973
0.999971
0.99997
0.999972
0.999976
0.999985
0.999998
1.00001
1.00001
1.00001
1.00001
1.00001
1.00001
1.00002
1.00002
1.00001
0.999998
0.999998
0.999999
0.999982
0.999972
0.999978
0.999979
0.999977
0.999989
1.00001
1.00001
0.99999
0.999985
0.999972
0.999973
0.999976
0.999982
0.999988
0.999993
0.999998
1
1
1
0.999996
0.999996
1
1.00001
1.00001
1.00001
1.00002
1.00001
1.00001
1.00001
0.999981
0.999971
0.999987
0.999985
0.999972
0.999996
1.00001
0.999981
0.999996
0.999984
0.99998
0.999987
0.999994
0.999999
0.999997
0.999991
0.999982
0.999974
0.999969
0.999969
0.999975
0.999987
1
1.00001
1.00001
1.00001
1.00001
1.00001
0.999986
0.999977
0.99997
0.99997
0.999979
0.999973
0.999968
0.999997
0.999991
0.999987
0.999995
0.99999
0.999998
1
1
0.999997
0.999985
0.999971
0.999961
0.999958
0.999963
0.999978
0.999996
1.00001
1.00002
1.00001
1.00001
0.999994
0.999991
0.999977
0.999946
0.99995
0.999974
0.99997
0.999956
0.999966
0.999983
0.999998
0.999995
0.999994
0.999994
1
1.00001
1.00001
1
0.999994
0.999983
0.999974
0.999973
0.999978
0.999991
1.00001
1.00002
1.00002
1.00001
0.999994
0.999999
0.999986
0.999976
0.999973
0.999964
0.999982
1.00001
0.999984
0.999964
1
1.00002
1
1
0.999992
1.00001
1.00001
1.00002
1.00001
1.00001
1
0.99999
0.999983
0.999983
0.999988
0.999995
0.999999
0.999997
0.999992
0.99999
0.999983
1.00001
1
0.999991
1
1.00001
1.00002
1.00003
0.999997
1
1.00004
1.00003
1
1
1.00002
1.00002
1.00001
1.00002
1.00002
1
0.99999
0.999981
0.99998
0.999983
0.999987
0.999988
0.999984
0.99998
0.999981
1.00001
1
1.00002
1.00001
0.999999
1.00001
1.00003
1.00001
1.00001
1.00001
1.00003
1.00004
1
0.999998
1.00002
1.00003
1.00002
1.00002
1.00001
0.999998
0.999988
0.999987
0.999993
0.999999
0.999997
0.999993
0.999987
0.999987
0.999993
0.999986
1.00002
1.00002
1.00002
1.00001
1.00001
1.00002
1.00003
0.999994
1
1.00002
1.00002
1
0.999989
1.00001
1.00002
1.00001
1.00001
1.00001
0.999992
0.999992
1
1.00001
1.00002
1.00001
1
1
0.999996
0.999995
1.00001
0.999988
1.00001
1.00002
1
0.999996
1.00001
1.00001
1.00001
0.999979
1
1.00002
0.999992
0.999985
1.00001
1.00001
0.999997
1.00001
1.00004
0.999995
0.999998
1.00001
1.00001
1.00001
1.00001
1.00001
1.00001
1.00001
1
0.999983
1.00001
1
0.99999
1.00001
0.999993
0.999973
0.999992
0.999997
0.999985
0.999982
1
1
0.999985
0.99999
1.00001
0.99999
0.999999
1.00005
1.00005
1
1
1
1.00001
1.00001
1.00001
0.999998
0.999989
0.999991
1
0.999984
0.999987
1.00002
0.999972
0.99999
0.999998
0.999994
0.999987
1.00001
0.999991
0.999996
1
1
1
0.999986
0.999997
1.00001
1.00003
1.00004
1.00001
0.999998
0.999999
1.00001
1.00001
0.999998
0.999983
0.99999
0.999992
0.99999
1
1.00001
0.999981
1.00003
1.00001
0.999994
0.999988
1.00002
0.999991
1.00001
1
1.00001
1.00002
1.00001
1.00002
0.999995
0.999992
1.00004
1.00003
0.999983
0.999961
0.999999
1.00002
1.00001
0.999994
0.999989
0.99999
1.00001
1.00001
1.00002
1.00002
1.00001
0.999994
1.00001
1
0.999999
0.99998
1.00001
1
1
1
1.00002
1.00002
0.999991
0.999974
1.00002
1.00001
0.999991
0.999996
1.00003
0.999976
1.00001
1.00001
0.999986
1
1.00002
0.999994
1
1.00001
1
0.999996
0.999975
1.00001
1.00002
0.999954
0.999985
1.00001
0.999992
0.999995
1.00001
1
0.999997
0.999999
1.00001
0.999971
1.00001
1.00002
0.999976
0.999996
1.00003
0.999963
1
0.999993
1.00001
0.999999
0.999986
0.999996
1.00002
0.999989
0.999984
1.00006
1.00001
0.999953
1.00003
1.00001
0.99998
1.00001
1
1.00002
1.00001
0.999994
1.00001
1
1.00001
1.00002
0.999966
0.999989
1.00004
1.00003
0.999965
0.999877
0.999988
1.00001
1.00001
0.99996
0.999995
1.00001
1
1.00003
0.999972
0.999974
1.00003
1.00001
0.999984
1.00001
0.999958
0.999997
1.00003
0.999981
0.999979
1.00001
0.999988
0.999993
0.999976
1.00001
0.999999
0.999977
1
1.00001
1.00001
0.999865
0.99999
0.999992
0.999998
0.999977
0.999996
1
0.999981
1.00002
0.999994
1
0.999967
0.999986
1
0.999953
1
1.00001
0.999963
0.999993
1.00002
0.999997
0.999988
1.00001
1
0.999986
1
0.999984
0.99999
0.999994
0.999995
0.999904
0.999987
0.999989
0.999993
0.999973
0.999993
1
0.999988
1
0.999986
1
1.00001
0.999991
0.999996
0.999992
0.999988
0.999995
1.00001
0.999985
0.999996
1
1
0.999996
0.999999
0.999992
1
0.99998
0.999988
0.999989
0.999991
0.9999
0.99982
0.999885
0.999893
0.999902
0.999931
0.999962
0.999946
0.999976
0.999973
0.999988
1
0.999987
0.999995
0.999993
0.99999
0.999992
1
0.999991
0.99999
1
0.999986
0.999983
0.999975
0.999956
0.999955
0.999907
0.999924
0.999897
0.999887
0.99973
0.779474
0.770316
0.784962
0.793783
0.805551
0.817572
0.82503
0.828968
0.845358
0.843537
0.848033
0.850932
0.849125
0.848706
0.855467
0.853963
0.849678
0.848313
0.851251
0.847674
0.843355
0.844899
0.830719
0.825042
0.817339
0.805652
0.79235
0.784696
0.769367
0.779774
0.117814
0.133874
0.117486
0.142507
0.126032
0.140121
0.130762
0.129326
0.165686
0.141481
0.147382
0.155527
0.166823
0.163556
0.157082
0.155539
0.164925
0.164968
0.157979
0.14646
0.14022
0.164859
0.133107
0.130277
0.138931
0.125542
0.13987
0.1193
0.134924
0.116937
5.38126e-05
4.11143e-05
3.45095e-05
2.6343e-05
3.4506e-05
3.75723e-05
2.2561e-05
3.75723e-05
0.000215328
2.24221e-05
1.58505e-05
8.93221e-06
1.02181e-05
1.87454e-06
5.25297e-06
1.42103e-06
3.53319e-06
1.21928e-05
1.60819e-05
2.4283e-05
2.6319e-05
0.000225695
4.16914e-05
3.58368e-05
4.45389e-05
3.21025e-05
2.32759e-05
2.86705e-05
5.26951e-05
6.54179e-05
0.000106024
0.000113607
5.60815e-05
4.58175e-05
5.70353e-05
2.32707e-05
2.27042e-05
2.95165e-05
1.93949e-05
2.399e-05
1.43012e-05
2.80412e-06
4.24264e-06
1.74937e-06
6.99002e-07
7.63209e-07
4.16691e-06
1.39759e-05
2.67918e-06
2.31366e-05
2.44674e-05
2.30341e-05
3.74496e-05
3.60532e-05
3.61331e-05
0.000101202
7.06568e-05
0.000106225
0.000119401
0.000132016
6.85461e-07
4.83655e-05
3.99809e-05
3.87862e-06
1.62213e-05
3.86562e-05
3.0278e-05
2.14122e-06
1.94888e-05
3.14966e-05
2.44143e-05
2.22237e-06
1.46532e-05
1.60452e-06
5.91278e-07
6.45101e-07
8.49149e-06
2.32595e-05
7.92097e-06
2.59467e-05
2.93954e-05
1.87717e-05
5.15171e-06
3.61783e-05
4.28935e-05
2.304e-05
2.03329e-07
3.92701e-05
5.64848e-05
1.43746e-07
1.30989e-07
1.31958e-07
1.45721e-07
1.2168e-07
1.60447e-08
6.90705e-09
5.88401e-07
1.59651e-06
2.18662e-06
3.65797e-06
2.47728e-06
2.4837e-06
5.80803e-06
7.97876e-06
2.65287e-06
2.70849e-06
9.24514e-06
7.19738e-06
5.06847e-06
2.21778e-06
2.00445e-06
1.62018e-06
1.07026e-06
8.88295e-07
8.57723e-09
2.07577e-08
1.85189e-07
1.68486e-07
1.43746e-07
1.31621e-07
1.19163e-07
1.96902e-07
2.49664e-07
1.76525e-07
2.48397e-08
1.10665e-09
4.81844e-11
3.84484e-07
8.73582e-07
3.34318e-07
9.55635e-08
2.70193e-06
5.36657e-06
6.59676e-06
4.47862e-06
4.39513e-06
5.29317e-06
4.45679e-06
3.67776e-06
5.99449e-07
3.59503e-07
8.20914e-07
3.67782e-07
1.41434e-10
8.91447e-10
3.33448e-08
2.01231e-07
4.21379e-07
1.58942e-07
1.27869e-07
5.85322e-10
4.02171e-09
7.29386e-08
2.26385e-07
1.19188e-07
1.3947e-09
3.88243e-11
2.78567e-11
2.67605e-11
6.77531e-11
1.44232e-07
7.65983e-07
8.14727e-07
1.70281e-06
4.70358e-06
4.70357e-06
1.4017e-06
1.13436e-07
3.35473e-07
9.93056e-08
3.19128e-08
2.31978e-11
2.4117e-11
1.26241e-10
4.63476e-10
1.63325e-07
2.78036e-07
8.29764e-08
8.38845e-09
5.34505e-10
5.72937e-10
2.22121e-09
2.29158e-10
2.68929e-08
2.62652e-08
2.30653e-09
2.27979e-10
2.71283e-11
2.52554e-11
3.95583e-11
1.53705e-09
1.3193e-11
3.05359e-10
1.4049e-09
1.39243e-06
1.99664e-06
5.52461e-08
1.22458e-10
1.19504e-11
1.15997e-10
2.31978e-11
2.27899e-11
2.35693e-11
1.86366e-10
2.44718e-09
3.1146e-08
2.83888e-08
2.20174e-10
1.85602e-09
5.22644e-10
3.29585e-10
6.50237e-10
2.25449e-10
4.66406e-11
4.54748e-11
2.22049e-10
9.36287e-11
3.59491e-11
2.52731e-11
4.33025e-11
7.22699e-12
7.33284e-12
1.20899e-11
3.81661e-11
4.36318e-10
5.69857e-10
4.63825e-11
1.19504e-11
9.77199e-12
1.79436e-11
3.17062e-11
2.2874e-11
3.44834e-11
8.181e-11
1.9183e-10
3.12536e-11
3.19517e-11
2.16137e-10
6.07606e-10
3.26346e-10
1.78254e-10
2.43203e-10
1.0327e-10
5.63761e-11
4.51689e-11
3.65191e-11
2.05462e-11
8.6644e-12
6.52051e-12
8.62987e-12
8.17267e-12
6.50539e-12
1.5076e-11
2.11197e-11
6.95377e-12
6.56232e-12
1.78638e-11
2.7833e-11
9.77498e-12
8.3603e-12
8.2888e-12
6.37216e-12
8.31933e-12
1.8376e-11
3.1535e-11
3.10362e-11
5.96822e-11
1.04212e-10
2.40436e-10
1.80396e-10
3.29804e-11
5.84294e-11
2.99124e-11
1.42004e-11
1.10398e-11
4.43763e-12
2.08786e-12
1.15655e-12
9.23353e-13
1.46983e-12
2.55751e-12
5.34819e-12
1.16922e-11
1.54203e-11
6.70316e-12
6.48631e-12
1.81167e-11
1.19514e-11
5.1424e-12
2.60114e-12
1.46644e-12
9.40932e-13
1.1025e-12
1.84036e-12
3.93947e-12
1.06222e-11
1.45771e-11
2.9434e-11
5.90224e-11
3.33603e-11
3.34622e-12
7.28906e-12
4.46347e-12
1.72147e-12
1.11594e-12
4.82214e-13
2.1428e-13
1.55032e-13
1.91654e-13
3.93539e-13
8.69314e-13
1.97492e-12
4.00496e-12
4.7017e-12
7.06471e-12
6.49772e-12
4.34749e-12
4.02514e-12
2.00306e-12
8.84178e-13
3.99918e-13
1.94671e-13
1.52324e-13
1.97557e-13
4.33693e-13
1.07202e-12
1.61074e-12
4.46009e-12
7.4277e-12
3.37712e-12
2.51885e-13
5.25061e-13
4.21097e-13
1.80918e-13
6.98115e-14
2.61475e-14
1.0911e-14
8.75862e-15
1.4189e-14
3.44527e-14
9.18243e-14
2.41966e-13
5.25909e-13
8.76927e-13
1.31344e-12
1.29748e-12
8.63836e-13
5.3195e-13
2.45498e-13
9.35553e-14
3.5449e-14
1.44694e-14
8.80299e-15
1.02724e-14
2.35894e-14
6.61805e-14
1.80578e-13
4.27068e-13
5.33572e-13
2.54537e-13
1.18136e-14
2.97552e-14
2.04032e-14
7.91228e-15
2.22573e-15
6.53084e-16
2.58539e-16
2.32332e-16
4.13139e-16
1.09348e-15
3.46953e-15
1.12699e-14
2.84254e-14
6.21004e-14
9.65088e-14
9.67801e-14
6.31645e-14
2.88285e-14
1.14779e-14
3.553e-15
1.13059e-15
4.25781e-16
2.33999e-16
2.43328e-16
5.88331e-16
2.12102e-15
8.08786e-15
2.09452e-14
3.05038e-14
1.19726e-14
2.88716e-16
9.12709e-16
4.92252e-16
1.63563e-16
4.51179e-17
1.24995e-17
5.33099e-18
5.89711e-18
1.13663e-17
3.05157e-17
9.77682e-17
3.26657e-16
9.12002e-16
2.11589e-15
3.44637e-15
3.44268e-15
2.13421e-15
9.24105e-16
3.34369e-16
1.01043e-16
3.1666e-17
1.17755e-17
5.92406e-18
4.99474e-18
1.11647e-17
4.28854e-17
1.67594e-16
5.07792e-16
9.42738e-16
2.94531e-16
4.98403e-18
1.71408e-17
8.90235e-18
2.86619e-18
7.87332e-19
2.18914e-19
1.08841e-19
1.50109e-19
3.12637e-19
8.32839e-19
2.54789e-18
8.13845e-18
2.22657e-17
5.0139e-17
8.18779e-17
8.22825e-17
5.06136e-17
2.24996e-17
8.32277e-18
2.64158e-18
8.62298e-19
3.23462e-19
1.52212e-19
1.03166e-19
1.96303e-19
7.55748e-19
2.96015e-18
9.20889e-18
1.77892e-17
5.10731e-18
7.29057e-20
2.7299e-19
1.40173e-19
4.48411e-20
1.18987e-20
3.36223e-21
2.05222e-21
3.42856e-21
7.4526e-21
1.93694e-20
5.72603e-20
1.75707e-19
4.61085e-19
1.01036e-18
1.63048e-18
1.63093e-18
1.01542e-18
4.68997e-19
1.80707e-19
5.94476e-20
2.01516e-20
7.76418e-21
3.54661e-21
1.99623e-21
3.03718e-21
1.16374e-20
4.70159e-20
1.47635e-19
2.84738e-19
7.58088e-20
8.90988e-22
3.68551e-21
1.89667e-21
5.91681e-22
1.546e-22
4.47795e-23
3.56288e-23
6.95183e-23
1.51361e-22
3.76951e-22
1.06259e-21
3.10945e-21
7.91907e-21
1.69787e-20
2.68343e-20
2.67878e-20
1.70477e-20
8.08336e-21
3.20203e-21
1.09798e-21
3.90526e-22
1.57214e-22
7.23157e-23
3.59152e-23
4.10739e-23
1.51635e-22
6.33642e-22
2.01138e-21
3.91984e-21
9.43547e-22
9.04144e-24
4.09897e-23
2.15473e-23
6.66085e-24
1.68256e-24
5.18136e-25
5.77273e-25
1.22498e-24
2.57699e-24
6.03947e-24
1.6057e-23
4.47834e-23
1.09147e-22
2.23726e-22
3.46231e-22
3.48564e-22
2.26311e-22
1.10352e-22
4.56586e-23
1.66802e-23
6.31242e-24
2.68852e-24
1.27556e-24
5.98755e-25
4.95174e-25
1.67541e-24
7.20604e-24
2.30039e-23
4.49147e-23
9.69663e-24
7.48461e-26
3.996e-25
2.01519e-25
6.25738e-26
1.52397e-26
5.55211e-27
8.55984e-27
1.81817e-26
3.60417e-26
7.91891e-26
1.97784e-25
5.16004e-25
1.17924e-24
2.31969e-24
3.57545e-24
3.62821e-24
2.38676e-24
1.20454e-24
5.27003e-25
2.06135e-25
8.34257e-26
3.80842e-26
1.91191e-26
8.91288e-27
5.52205e-27
1.58294e-26
6.91544e-26
2.20152e-25
4.27144e-25
8.2489e-26
5.25541e-28
3.04847e-27
1.55478e-27
4.75357e-28
1.17277e-28
5.63282e-29
1.08375e-28
2.24347e-28
4.21371e-28
8.5924e-28
1.95189e-27
4.58761e-27
9.77893e-27
1.85878e-26
2.80506e-26
2.80271e-26
1.88152e-26
1.01264e-26
4.81662e-27
2.05598e-27
9.05343e-28
4.49467e-28
2.41834e-28
1.15539e-28
5.76388e-29
1.26713e-28
5.51677e-28
1.75323e-27
3.37981e-27
5.84507e-28
3.03992e-30
1.85359e-29
1.01597e-29
3.06884e-30
7.87803e-31
5.23397e-31
1.15869e-30
2.3361e-30
4.08083e-30
7.48391e-30
1.51661e-29
3.23797e-29
6.51527e-29
1.17534e-28
1.6949e-28
1.6968e-28
1.20651e-28
7.00748e-29
3.56775e-29
1.64758e-29
7.98844e-30
4.38549e-30
2.55022e-30
1.27008e-30
5.54508e-31
8.45872e-31
3.60137e-30
1.15765e-29
2.23408e-29
3.47239e-30
1.39411e-32
1.0718e-31
5.70135e-32
1.77085e-32
4.82675e-33
4.6191e-33
1.09403e-32
2.04565e-32
3.1738e-32
5.13554e-32
9.40063e-32
1.84873e-31
3.4135e-31
5.64034e-31
7.78836e-31
7.98719e-31
5.95587e-31
3.63684e-31
1.99893e-31
1.04299e-31
5.76684e-32
3.5181e-32
2.20797e-32
1.1619e-32
4.86731e-33
4.92339e-33
1.95976e-32
6.42493e-32
1.23762e-31
1.73283e-32
6.30171e-35
5.14576e-34
2.69392e-34
8.50583e-35
2.59121e-35
3.6471e-35
8.46464e-35
1.44205e-34
2.02903e-34
3.00622e-34
4.97959e-34
8.48598e-34
1.34022e-33
2.00623e-33
2.73502e-33
2.90436e-33
2.27305e-33
1.50045e-33
9.33395e-34
5.57609e-34
3.44055e-34
2.29842e-34
1.57629e-34
9.0503e-35
3.89643e-35
2.68425e-35
9.1488e-35
2.99177e-34
5.65316e-34
7.20216e-35
2.34414e-37
1.75374e-36
1.02704e-36
3.15954e-37
1.25584e-37
2.38405e-37
5.358e-37
8.62112e-37
1.13513e-36
1.52858e-36
2.1629e-36
3.08215e-36
4.36434e-36
6.35821e-36
8.50558e-36
8.70702e-36
6.88964e-36
5.00422e-36
3.5847e-36
2.43337e-36
1.67532e-36
1.2521e-36
9.62696e-37
6.09447e-37
2.73161e-37
1.39331e-37
3.54901e-37
1.12592e-36
2.08525e-36
2.48617e-37
5.98995e-40
5.65448e-39
3.36186e-39
1.03602e-39
5.97435e-40
1.40759e-39
3.12242e-39
4.64429e-39
5.42331e-39
6.12521e-39
7.12093e-39
9.00518e-39
1.22024e-38
1.63724e-38
1.89314e-38
1.77557e-38
1.52793e-38
1.34428e-38
1.14382e-38
8.75871e-39
6.74203e-39
5.7109e-39
4.95743e-39
3.44486e-39
1.6144e-39
6.72117e-40
1.11567e-39
3.39632e-39
6.36001e-39
7.30668e-40
1.71357e-42
1.93933e-41
9.91913e-42
3.33829e-42
2.78996e-42
7.38598e-42
1.49921e-41
1.98122e-41
2.01098e-41
1.96239e-41
2.08105e-41
2.51473e-41
3.0057e-41
3.24564e-41
3.19822e-41
3.12269e-41
3.19134e-41
3.21301e-41
2.9406e-41
2.4533e-41
2.1832e-41
2.18294e-41
2.18894e-41
1.67293e-41
8.21786e-42
3.1062e-42
3.16515e-42
8.82385e-42
1.70363e-41
1.92112e-42
5.40414e-45
4.8447e-44
2.4723e-44
9.91921e-45
1.24383e-44
3.12141e-44
5.66274e-44
6.90582e-44
6.29968e-44
5.67519e-44
5.65337e-44
5.9064e-44
5.40331e-44
4.69248e-44
4.52481e-44
4.97578e-44
5.40395e-44
5.47331e-44
5.3893e-44
5.4591e-44
6.14606e-44
7.32441e-44
8.32297e-44
6.74864e-44
3.47209e-44
1.32101e-44
9.30872e-45
2.15618e-44
4.12081e-44
4.56141e-45
1.04887e-47
8.70666e-47
5.31521e-47
2.78734e-47
4.45665e-47
1.05415e-46
1.8916e-46
2.13794e-46
1.79264e-46
1.41885e-46
1.19386e-46
9.65141e-47
7.1034e-47
5.69152e-47
5.77267e-47
6.31326e-47
6.41672e-47
6.66526e-47
8.02374e-47
1.05834e-46
1.45392e-46
1.96933e-46
2.34846e-46
2.10118e-46
1.19906e-46
4.98078e-47
2.85558e-47
4.90889e-47
8.41185e-47
9.386e-48
1.86369e-50
1.69267e-49
1.15835e-49
7.17037e-50
1.20597e-49
2.93501e-49
5.07221e-49
4.91355e-49
3.76947e-49
2.51181e-49
1.7962e-49
1.28818e-49
9.16409e-50
7.27379e-50
6.58095e-50
5.86599e-50
5.50882e-50
6.71954e-50
1.05043e-49
1.70297e-49
2.64746e-49
4.03375e-49
5.18211e-49
5.57462e-49
3.68523e-49
1.66656e-49
8.30447e-50
9.81914e-50
1.37166e-49
1.71692e-50
3.98314e-53
3.48628e-52
2.36396e-52
1.56553e-52
2.92603e-52
6.80687e-52
1.01494e-51
8.95921e-52
5.9715e-52
3.56967e-52
2.41242e-52
1.72263e-52
1.17883e-52
7.80799e-53
5.36257e-53
4.1529e-53
4.53319e-53
7.39835e-53
1.40911e-52
2.52393e-52
4.18474e-52
6.97764e-52
1.06078e-51
1.26689e-51
9.42802e-52
4.39393e-52
2.03729e-52
1.84571e-52
2.12034e-52
3.24195e-53
6.54893e-56
5.83534e-55
3.63013e-55
2.96807e-55
5.88385e-55
1.22944e-54
1.73864e-54
1.51587e-54
9.35198e-55
5.33812e-55
3.53708e-55
2.35534e-55
1.34393e-55
7.12297e-56
4.41237e-56
3.88924e-56
5.26302e-56
9.48741e-56
1.80507e-55
3.19104e-55
5.49213e-55
1.01273e-54
1.7846e-54
2.27375e-54
1.81131e-54
8.58002e-55
4.0585e-55
3.46137e-55
3.70145e-55
6.40798e-56
1.1051e-58
7.70749e-58
5.0451e-58
5.27048e-58
9.23386e-58
1.90653e-57
2.67488e-57
2.23883e-57
1.26507e-57
7.01573e-58
4.39744e-58
2.54304e-58
1.24392e-58
6.42442e-59
4.54053e-59
4.59285e-59
6.11587e-59
9.88599e-59
1.78923e-58
3.32041e-58
6.48437e-58
1.38085e-57
2.73503e-57
3.56301e-57
2.89089e-57
1.38689e-57
7.0214e-58
6.19639e-58
6.6327e-58
1.18588e-58
2.39775e-61
8.57302e-61
9.11675e-61
9.65423e-61
1.62548e-60
3.49083e-60
4.15363e-60
3.1469e-60
1.61891e-60
8.54665e-61
4.78406e-61
2.44765e-61
1.17321e-61
6.85156e-62
5.41979e-62
5.34497e-62
6.43288e-62
9.82771e-62
1.94182e-61
4.23439e-61
9.47568e-61
2.15047e-60
4.24366e-60
5.2427e-60
4.09159e-60
1.98817e-60
1.09327e-60
1.0096e-60
1.09417e-60
1.96241e-61
2.03796e-64
1.51168e-63
1.84316e-63
1.75545e-63
3.12805e-63
6.12509e-63
6.0999e-63
4.56492e-63
2.29305e-63
1.14414e-63
5.74032e-64
2.73236e-64
1.33723e-64
8.12736e-65
6.12416e-65
5.51648e-65
6.55571e-65
1.10625e-64
2.5303e-64
6.07767e-64
1.36719e-63
2.9154e-63
5.45468e-63
6.39612e-63
5.15381e-63
2.72058e-63
1.63738e-63
1.5671e-63
1.69503e-63
2.99993e-64
3.33936e-67
3.93033e-66
3.04432e-66
2.80361e-66
4.59249e-66
7.57398e-66
7.2107e-66
5.70396e-66
2.87127e-66
1.32609e-66
6.02788e-67
2.68686e-67
1.24755e-67
6.87651e-68
4.61204e-68
4.06281e-68
5.43648e-68
1.09128e-67
2.77195e-67
6.66977e-67
1.41934e-66
2.93305e-66
5.85397e-66
7.35624e-66
7.01295e-66
4.12405e-66
2.56262e-66
2.43037e-66
2.53961e-66
4.34204e-67
9.91201e-70
5.18245e-69
3.7548e-69
3.66403e-69
5.50195e-69
8.50268e-69
8.27505e-69
6.4339e-69
2.98542e-69
1.20966e-69
4.91959e-70
2.035e-70
8.70174e-71
4.32169e-71
2.80085e-71
2.77883e-71
4.5012e-71
1.02898e-70
2.64964e-70
6.10615e-70
1.28626e-69
2.86659e-69
6.64087e-69
9.70694e-69
1.02379e-68
6.15327e-69
3.69882e-69
3.4132e-69
3.53176e-69
5.96795e-70
1.03176e-72
3.69132e-72
4.05234e-72
4.28768e-72
6.64486e-72
1.00728e-71
9.63548e-72
6.71696e-72
2.75042e-72
9.76823e-73
3.74077e-73
1.5592e-73
6.7601e-74
3.4646e-74
2.46266e-74
2.75859e-74
4.72323e-74
1.03532e-73
2.43877e-73
5.32708e-73
1.16787e-72
2.88904e-72
7.37357e-72
1.14206e-71
1.1776e-71
6.82039e-72
4.18403e-72
4.03712e-72
4.58985e-72
8.06778e-73
5.90004e-76
5.87385e-75
5.80728e-75
5.67558e-75
7.69658e-75
1.00392e-74
9.36682e-75
6.08804e-75
2.31215e-75
7.92467e-76
3.22427e-76
1.47485e-76
6.8588e-77
3.70858e-77
2.72621e-77
2.94406e-77
4.49285e-77
8.44522e-77
1.79752e-76
3.95833e-76
9.44681e-76
2.54259e-75
6.62618e-75
9.75607e-75
9.51154e-75
5.60038e-75
3.98997e-75
4.40566e-75
5.87014e-75
1.06744e-75
1.49821e-78
1.3763e-77
8.74695e-78
7.27821e-78
7.73981e-78
9.30465e-78
9.339e-78
6.15177e-78
2.30661e-78
8.35575e-79
3.72606e-79
1.77321e-79
8.09673e-80
4.18488e-80
2.84635e-80
2.70036e-80
3.53764e-80
5.98175e-80
1.27435e-79
3.08767e-79
8.11677e-79
2.25297e-78
5.59803e-78
7.56224e-78
7.13414e-78
4.64315e-78
3.73147e-78
4.78159e-78
6.97417e-78
1.23966e-78
4.39876e-81
1.36388e-80
9.23058e-81
6.34732e-81
6.91652e-81
1.02084e-80
1.09194e-80
7.11499e-81
2.68101e-81
1.03501e-81
4.67779e-82
2.08961e-82
8.73004e-83
4.19971e-83
2.69868e-83
2.40936e-83
3.04775e-83
5.26459e-83
1.2104e-82
3.18208e-82
8.5421e-82
2.25383e-81
5.12688e-81
6.59539e-81
6.14907e-81
4.30367e-81
3.56514e-81
4.68147e-81
6.66351e-81
1.11457e-81
1.92011e-84
6.51405e-84
7.11143e-84
5.71208e-84
7.69985e-84
1.24164e-83
1.16275e-83
6.45783e-84
2.39542e-84
9.13402e-85
3.76855e-85
1.4855e-85
5.8362e-86
2.89751e-86
2.01269e-86
1.94848e-86
2.64786e-86
4.87447e-86
1.16382e-85
3.06241e-85
7.91018e-85
1.9825e-84
4.40571e-84
5.8804e-84
5.68378e-84
4.10049e-84
3.24319e-84
3.92751e-84
4.93184e-84
7.80815e-85
1.01885e-87
1.11322e-86
1.00133e-86
8.36321e-87
1.22471e-86
1.46728e-86
9.90564e-87
4.35152e-87
1.48629e-87
4.8334e-88
1.59865e-88
5.47087e-89
2.2256e-89
1.30479e-89
1.0722e-89
1.164e-89
1.67927e-89
3.14563e-89
7.41777e-89
1.91219e-88
4.98505e-88
1.33539e-87
3.3538e-87
5.33473e-87
5.73518e-87
4.17903e-87
3.05706e-87
3.17106e-87
3.30845e-87
5.03121e-88
2.39282e-90
2.27881e-89
1.57484e-89
1.34989e-89
1.63235e-89
1.35129e-89
7.95803e-90
3.29868e-90
1.01171e-90
2.65026e-91
7.30578e-92
2.47467e-92
1.08953e-92
6.79443e-93
5.67379e-93
6.01287e-93
8.32983e-93
1.50685e-92
3.47814e-92
9.16045e-92
2.68284e-91
8.76861e-91
2.76485e-90
5.49341e-90
6.54829e-90
4.70827e-90
3.08103e-90
2.74557e-90
2.43181e-90
3.63867e-91
4.91603e-93
1.82265e-92
1.3633e-92
1.08207e-92
1.22727e-92
1.08854e-92
7.65799e-93
3.2598e-93
8.88312e-94
2.05118e-94
5.52377e-95
1.94926e-95
8.79929e-96
5.14575e-96
3.79348e-96
3.64377e-96
4.81222e-96
8.65184e-96
2.00902e-95
5.43762e-95
1.72058e-94
6.45907e-94
2.39334e-93
5.51284e-93
6.9436e-93
4.89378e-93
2.97398e-93
2.52517e-93
2.16845e-93
3.37619e-94
1.88269e-96
8.5597e-96
1.00122e-95
8.76559e-96
1.03595e-95
1.12687e-95
8.21295e-96
2.97631e-96
6.83131e-97
1.5286e-97
4.50287e-98
1.69924e-98
7.51215e-99
4.08959e-99
2.87845e-99
2.75152e-99
3.69604e-99
6.75824e-99
1.55446e-98
4.00441e-98
1.19557e-97
4.34072e-97
1.6441e-96
4.05938e-96
5.36839e-96
4.07645e-96
2.69566e-96
2.50661e-96
2.46492e-96
4.13066e-97
1.30301e-99
1.46971e-98
1.41391e-98
1.14985e-98
1.44936e-98
1.46722e-98
7.50524e-99
1.88558e-99
3.75697e-100
9.27115e-101
3.21923e-101
1.36454e-101
6.47638e-102
3.75846e-102
2.82508e-102
2.75331e-102
3.62623e-102
6.39043e-102
1.36737e-101
3.08165e-101
7.62282e-101
2.32625e-100
8.06355e-100
2.11756e-99
3.18356e-99
3.11908e-99
2.5388e-99
2.88499e-99
3.42064e-99
5.99679e-100
2.92885e-102
2.60647e-101
1.86162e-101
1.5113e-101
1.83872e-101
1.52464e-101
4.93442e-102
9.62526e-103
2.19231e-103
6.85068e-104
2.87092e-104
1.40697e-104
7.41187e-105
4.56557e-105
3.48575e-105
3.34673e-105
4.2406e-105
7.01497e-105
1.38039e-104
2.75755e-104
5.74996e-104
1.44405e-103
4.32352e-103
1.1348e-102
2.1584e-102
2.72026e-102
2.68505e-102
3.62546e-102
4.87188e-102
8.4414e-103
4.82748e-105
2.06605e-104
1.45128e-104
1.28269e-104
1.42541e-104
9.17568e-105
2.74001e-105
6.56618e-106
1.70709e-106
5.99415e-107
2.93355e-107
1.60312e-107
8.94537e-108
5.65803e-108
4.36433e-108
4.17822e-108
5.20655e-108