/*--------------------------------*- C++ -*----------------------------------*\
| =========                 |                                                 |
| \\      /  F ield         | OpenFOAM: The Open Source CFD Toolbox           |
|  \\    /   O peration     | Version:  2312                                  |
|   \\  /    A nd           | Website:  www.openfoam.com                      |
|    \\/     M anipulation  |                                                 |
\*---------------------------------------------------------------------------*/
FoamFile
{
    version     2.0;
    format      ascii;
    arch        "LSB;label=32;scalar=64";
    class       surfaceScalarField;
    location    "1.30953105";
    object      alphaPhi0.water;
}
// * * * * * * * * * * * * * * * * * * * * * * * * * * * * * * * * * * * * * //

dimensions      [0 3 -1 0 0 0 0];

oriented        oriented;

internalField   nonuniform List<scalar> 
263100
(
-2.71401e-09
5.42772e-09
-2.71401e-09
8.12453e-10
-1.88444e-09
-1.64527e-09
2.28508e-09
-1.83249e-10
-1.29137e-09
3.27071e-09
-9.00768e-11
-8.9737e-10
4.01098e-09
-3.65712e-10
-3.76347e-10
4.62304e-09
-7.78388e-10
1.64477e-10
5.19655e-09
-1.14632e-09
5.70884e-10
5.54608e-09
-1.32507e-09
9.73409e-10
5.45618e-09
-1.19011e-09
1.27765e-09
4.82073e-09
-7.09406e-10
1.34212e-09
3.69827e-09
-4.87183e-11
1.16804e-09
2.18233e-09
6.92465e-10
8.19997e-10
5.84059e-10
1.25158e-09
3.42885e-10
-7.4168e-10
1.43035e-09
-1.08624e-10
-1.47805e-09
1.17261e-09
-4.40329e-10
-1.42277e-09
5.85012e-10
-6.4438e-10
-6.80854e-10
-1.68736e-10
-5.77172e-10
3.26461e-10
-7.52957e-10
-2.58197e-10
1.04027e-09
-1.02935e-09
3.11957e-10
9.46532e-10
-7.43029e-10
8.33565e-10
-2.84625e-10
3.93105e-11
1.18919e-09
-2.63048e-09
1.07041e-09
1.27344e-09
-5.75178e-09
2.03032e-09
1.08968e-09
-8.7185e-09
2.31914e-09
6.46973e-10
-1.03856e-08
1.54555e-09
1.21526e-10
-9.5379e-09
-2.82773e-10
-5.64452e-10
-5.36305e-09
-3.03111e-09
-1.14291e-09
3.31759e-09
-5.60173e-09
-3.07787e-09
1.4655e-08
-7.30635e-09
-4.02975e-09
3.98648e-08
-2.52145e-08
4.64764e-10
4.49692e-09
4.64764e-10
4.43836e-10
-2.32795e-09
4.5758e-10
4.07518e-10
-5.6172e-10
4.09439e-10
4.37449e-10
-4.79802e-10
3.54579e-10
6.32259e-10
-9.27706e-10
3.6197e-10
9.92227e-10
-1.49444e-09
3.50752e-10
1.50683e-09
-1.99492e-09
3.28458e-10
2.11066e-09
-2.22696e-09
2.92147e-10
2.73017e-09
-2.07236e-09
2.56224e-10
3.26164e-09
-1.51397e-09
2.66014e-10
3.60048e-09
-7.3296e-10
3.37685e-10
3.74606e-09
5.87611e-11
4.79962e-10
3.65067e-09
6.26167e-10
7.12273e-10
3.32742e-09
7.25637e-10
1.01921e-09
2.74091e-09
4.23053e-10
1.32734e-09
1.84669e-09
-9.19263e-11
1.56257e-09
7.8542e-10
-7.95716e-10
1.67996e-09
-2.86056e-10
-1.30667e-09
1.61737e-09
-1.32146e-09
-1.3556e-09
1.35458e-09
-2.25743e-09
-8.15214e-10
1.00203e-09
-3.04591e-09
1.33892e-10
6.88855e-10
-3.76578e-09
1.29283e-09
4.9361e-10
-4.35143e-09
2.17765e-09
4.35684e-10
-4.53791e-09
1.98793e-09
5.16146e-10
-4.43986e-09
6.11291e-10
8.3556e-10
-4.51062e-09
-1.73662e-09
1.52463e-09
-4.75213e-09
-5.15277e-09
2.36357e-09
-1.2081e-09
-1.35675e-08
4.4212e-09
1.083e-08
-2.6717e-08
7.36536e-09
4.73611e-08
3.31899e-09
1.28484e-09
1.92393e-09
1.28484e-09
-3.48265e-10
-1.31381e-09
6.04363e-10
-1.31834e-09
-7.96379e-11
4.7598e-10
-1.96931e-09
-8.08881e-11
2.40368e-10
-2.3843e-09
-5.27146e-10
2.9315e-12
-2.49943e-09
-1.2151e-09
-1.75564e-10
-2.15636e-09
-1.90867e-09
-4.40689e-10
-1.33913e-09
-2.40966e-09
-6.46e-10
-5.94813e-11
-2.63309e-09
-7.30699e-10
1.54465e-09
-2.4733e-09
-6.56899e-10
3.26872e-09
-2.06289e-09
-4.0664e-10
4.79382e-09
-1.53188e-09
5.27237e-11
5.84684e-09
-9.5814e-10
5.18321e-10
6.02498e-09
-4.8379e-10
1.01822e-09
5.17923e-09
-1.49266e-10
1.40504e-09
3.44265e-09
5.05268e-11
1.5813e-09
1.07186e-09
1.38018e-10
1.42462e-09
-1.40058e-09
1.65613e-10
9.88349e-10
-3.35749e-09
2.16986e-10
3.73271e-10
-4.32495e-09
3.68118e-10
-2.26092e-10
-4.17861e-09
6.41553e-10
-6.63317e-10
-2.96657e-09
9.50631e-10
-8.78234e-10
-1.01255e-09
9.93872e-10
-7.77742e-10
1.10368e-09
3.4166e-10
-4.76654e-10
2.91584e-09
-1.01014e-09
-1.96789e-10
3.72078e-09
-2.53741e-09
-9.68943e-12
1.38195e-09
-3.28187e-09
4.62978e-10
-5.29845e-09
-9.98617e-09
3.09533e-09
-3.60236e-09
-3.59932e-08
7.58206e-09
2.88389e-08
1.49213e-08
1.35051e-09
-7.85307e-10
1.35051e-09
-8.06308e-10
1.85893e-10
6.29639e-10
-2.13774e-09
7.85819e-10
4.42767e-10
-3.12181e-09
7.35394e-10
1.45127e-10
-3.85245e-09
3.11338e-10
-1.30146e-10
-4.28206e-09
-4.06229e-10
-4.01222e-10
-4.20706e-09
-1.2706e-09
-7.34857e-10
-3.54033e-09
-2.09404e-09
-1.00402e-09
-2.28995e-09
-2.77092e-09
-1.13433e-09
-5.31364e-10
-3.15901e-09
-1.09477e-09
1.50614e-09
-3.23321e-09
-8.89266e-10
3.43921e-09
-2.95652e-09
-5.30601e-10
4.8063e-09
-2.29063e-09
-5.67954e-11
5.30333e-09
-1.23217e-09
2.29234e-10
4.72183e-09
4.17611e-11
3.68623e-10
3.13247e-09
1.34376e-09
2.74817e-10
8.91074e-10
2.35282e-09
5.90476e-12
-1.38647e-09
2.87255e-09
-4.49305e-10
-3.0355e-09
2.75398e-09
-9.07025e-10
-3.52235e-09
2.11584e-09
-1.27914e-09
-2.58739e-09
1.20039e-09
-1.5113e-09
-3.80653e-10
2.87021e-10
-1.55996e-09
2.4509e-09
-4.5041e-10
-1.40349e-09
5.11585e-09
-1.28584e-09
-1.05327e-09
6.94348e-09
-2.22997e-09
-6.23373e-10
8.42268e-09
-3.39193e-09
-6.40371e-10
1.05187e-08
-2.91912e-09
-2.47528e-09
3.42232e-09
9.54949e-11
-3.00255e-09
-9.23643e-09
-2.07841e-08
-2.56519e-09
1.37335e-08
5.85288e-09
1.27785e-09
-3.35672e-09
1.27785e-09
-6.74785e-10
1.42418e-09
6.6952e-10
-1.87344e-09
1.4097e-09
5.36182e-10
-2.77645e-09
1.28975e-09
3.10766e-10
-3.51736e-09
9.60679e-10
5.40528e-11
-4.06061e-09
2.62951e-10
-1.63046e-10
-4.28403e-09
-7.13542e-10
-3.70531e-10
-4.15041e-09
-1.74763e-09
-5.16686e-10
-3.57285e-09
-2.707e-09
-6.78042e-10
-2.56369e-09
-3.49846e-09
-7.06205e-10
-1.27154e-09
-3.90775e-09
-6.54032e-10
5.53427e-11
-3.77803e-09
-5.41816e-10
1.20054e-09
-3.01313e-09
-4.58965e-10
1.91076e-09
-1.55638e-09
-4.2191e-10
2.07202e-09
3.5836e-10
-5.13128e-10
1.61532e-09
2.43776e-09
-6.71717e-10
7.12039e-10
4.06377e-09
-8.41073e-10
-2.52545e-10
4.79504e-09
-9.90285e-10
-7.936e-10
4.39907e-09
-1.13552e-09
-5.36141e-10
3.0851e-09
-1.25756e-09
6.20403e-10
1.35802e-09
-1.34451e-09
2.52806e-09
-2.69743e-10
-1.38082e-09
4.81835e-09
-1.42359e-09
-1.34683e-09
6.77002e-09
-2.03974e-09
-1.2275e-09
7.64523e-09
-2.13072e-09
-1.00433e-09
7.17603e-09
-2.43811e-09
-5.14911e-10
7.30855e-09
-2.48523e-09
-5.97585e-10
4.86881e-09
4.24532e-09
-1.74312e-09
-5.66899e-09
-6.44188e-09
-3.83801e-09
8.59648e-09
-5.63701e-10
8.52777e-10
-5.08807e-09
8.52777e-10
-8.4284e-11
1.74935e-09
5.45787e-10
-6.02717e-10
1.33101e-09
5.39352e-10
-9.45766e-10
1.0978e-09
4.77877e-10
-1.3208e-09
8.42405e-10
4.36329e-10
-1.75491e-09
2.5942e-10
3.8086e-10
-2.24698e-09
-6.11996e-10
3.33829e-10
-2.7917e-09
-1.59156e-09
3.32114e-10
-3.3423e-09
-2.54092e-09
3.2812e-10
-3.75923e-09
-3.3839e-09
2.46066e-10
-3.92632e-09
-3.8929e-09
9.61316e-11
-3.79266e-09
-3.92093e-09
-4.66757e-11
-3.2777e-09
-3.29632e-09
-2.87325e-10
-2.40287e-09
-1.96106e-09
-5.25126e-10
-1.30052e-09
-9.47788e-11
-7.03393e-10
-1.62328e-10
2.04026e-09
-7.93911e-10
8.4256e-10
3.74351e-09
-7.3673e-10
1.66044e-09
4.51375e-09
-5.87618e-10
2.34356e-09
4.08211e-09
-4.16257e-10
2.9822e-09
2.69474e-09
-2.97679e-10
3.72328e-09
8.56602e-10
-2.88624e-10
4.60269e-09
-8.18446e-10
-3.79434e-10
5.47709e-09
-1.82088e-09
-5.25839e-10
6.09868e-09
-1.99846e-09
-7.11968e-10
6.12994e-09
-1.23149e-09
-9.80343e-10
4.43561e-09
3.44893e-10
-1.13965e-09
1.88679e-09
1.13016e-09
-1.11892e-09
1.11768e-09
7.33947e-09
-2.37932e-09
-3.90917e-09
3.30059e-09
-4.77154e-09
7.5304e-09
-2.89352e-09
-7.83045e-11
-4.96942e-09
-7.83043e-11
4.7513e-10
1.07879e-09
2.67847e-11
1.20333e-09
3.87658e-10
1.35177e-10
1.8353e-09
1.44031e-10
2.42186e-10
2.1957e-09
-2.8265e-11
4.30369e-10
2.10973e-09
-3.58722e-10
6.23979e-10
1.42984e-09
-8.26286e-10
8.13807e-10
1.8628e-10
-1.40307e-09
9.74524e-10
-1.50147e-09
-1.99921e-09
1.06536e-09
-3.43018e-09
-2.56311e-09
1.02709e-09
-5.24845e-09
-2.99887e-09
8.4345e-10
-6.45339e-09
-3.26541e-09
4.68725e-10
-6.68435e-09
-3.18883e-09
4.30593e-11
-5.85152e-09
-2.58876e-09
-2.85066e-10
-4.11264e-09
-1.48153e-09
-4.31433e-10
-1.74752e-09
-6.67958e-11
-3.3651e-10
7.42773e-10
1.22571e-09
-5.00288e-11
2.94479e-09
1.93106e-09
3.04144e-10
4.51807e-09
1.77044e-09
6.62827e-10
5.37431e-09
8.27546e-10
9.36234e-10
5.60034e-09
-5.62311e-10
1.11884e-09
5.3062e-09
-1.66579e-09
1.06777e-09
4.65811e-09
-2.14236e-09
8.95803e-10
3.56713e-09
-1.65864e-09
6.76857e-10
2.20575e-09
-1.54357e-10
2.08918e-10
2.8733e-10
2.68236e-09
-4.95839e-10
-2.36799e-09
4.90243e-09
-1.19539e-09
-2.23931e-09
9.3476e-09
-2.21702e-09
-3.43557e-09
7.72457e-09
-3.3096e-09
5.83927e-09
-1.81634e-09
-1.36471e-09
-2.29194e-09
-1.36471e-09
9.02653e-10
-4.51977e-10
-8.52435e-10
2.86471e-09
-1.01025e-09
-6.67694e-10
4.55584e-09
-1.1908e-09
-4.59833e-10
5.75468e-09
-1.20144e-09
-1.29984e-10
6.16007e-09
-1.09172e-09
2.22455e-10
5.53609e-09
-8.8741e-10
5.79116e-10
3.87551e-09
-6.90643e-10
8.41398e-10
1.38425e-09
-6.02668e-10
9.87172e-10
-1.56873e-09
-6.66145e-10
9.47633e-10
-4.47461e-09
-9.55156e-10
7.53149e-10
-6.65638e-09
-1.65905e-09
4.65889e-10
-7.67398e-09
-2.4617e-09
1.80575e-10
-7.28444e-09
-3.08323e-09
-5.15748e-12
-5.59599e-09
-3.2738e-09
-6.32431e-12
-2.97817e-09
-2.9941e-09
1.9946e-10
5.9569e-12
-2.39122e-09
5.232e-10
2.77794e-09
-1.88162e-09
9.31805e-10
4.77382e-09
-1.71162e-09
1.37826e-09
5.74453e-09
-2.03642e-09
1.7864e-09
5.68434e-09
-2.63838e-09
2.0304e-09
4.83218e-09
-3.06005e-09
2.14121e-09
3.3192e-09
-2.84155e-09
2.10716e-09
1.23047e-09
-1.59048e-09
1.91526e-09
-1.16199e-09
5.63008e-10
1.56911e-09
-2.94439e-09
3.59478e-09
7.63036e-10
-4.59122e-09
6.38878e-09
5.24172e-11
-3.25712e-09
8.19157e-09
-2.87353e-10
-1.87023e-09
6.39357e-09
-1.65885e-10
2.63209e-09
1.24184e-09
-2.23412e-09
2.1099e-09
-2.23412e-09
1.29654e-09
-2.60641e-09
-1.51601e-09
4.15909e-09
-2.64662e-09
-1.35198e-09
6.5372e-09
-2.66659e-09
-1.02834e-09
8.20118e-09
-2.34411e-09
-6.4846e-10
8.89623e-09
-1.66667e-09
-2.48617e-10
8.43136e-09
-6.60214e-10
1.07575e-10
6.80512e-09
5.17749e-10
2.85962e-10
4.2317e-09
1.43698e-09
4.00098e-10
1.14323e-09
1.86899e-09
4.1781e-10
-1.87186e-09
1.54599e-09
3.76569e-10
-4.35103e-09
3.86509e-10
2.94441e-10
-5.85672e-09
-1.38881e-09
2.91891e-10
-6.23505e-09
-3.22193e-09
3.74499e-10
-5.49047e-09
-4.68232e-09
5.19906e-10
-3.8248e-09
-5.50209e-09
6.97039e-10
-1.63958e-09
-5.67675e-09
9.54334e-10
5.58985e-10
-5.46351e-09
1.23727e-09
2.41249e-09
-5.21425e-09
1.50359e-09
3.57434e-09
-5.06521e-09
1.72235e-09
3.85298e-09
-4.93278e-09
1.87219e-09
3.16959e-09
-4.51978e-09
2.00056e-09
1.67333e-09
-3.5129e-09
2.02588e-09
-3.3412e-10
-1.60226e-09
1.87811e-09
-2.44643e-09
9.40098e-10
1.59455e-09
-3.65451e-09
3.45976e-09
1.2028e-09
-3.58182e-09
4.97478e-09
1.20131e-09
-1.46717e-09
4.2751e-09
1.66239e-09
2.57424e-10
1.90761e-09
2.62208e-09
-2.37933e-11
2.79469e-09
-2.24483e-09
6.51997e-09
-2.24483e-09
1.76955e-09
-5.43312e-09
-1.34698e-09
4.77226e-09
-4.7375e-09
-1.05551e-09
7.14575e-09
-4.54447e-09
-6.39509e-10
8.66759e-09
-3.76837e-09
-2.4272e-10
9.18753e-09
-2.40542e-09
7.18764e-11
8.77623e-09
-5.95417e-10
1.97467e-10
7.50213e-09
1.33358e-09
3.06707e-10
5.65003e-09
2.89239e-09
2.42297e-10
3.48855e-09
3.64491e-09
2.28032e-10
1.28874e-09
3.23889e-09
3.46102e-10
-7.33448e-10
1.69012e-09
5.54395e-10
-2.4599e-09
-6.30894e-10
8.007e-10
-3.77625e-09
-3.12685e-09
1.04967e-09
-4.57007e-09
-5.28317e-09
1.21934e-09
-4.75697e-09
-6.78419e-09
1.29025e-09
-4.25235e-09
-7.5604e-09
1.19755e-09
-3.11021e-09
-7.79804e-09
1.00904e-09
-1.6542e-09
-7.69415e-09
8.39592e-10
-3.50405e-10
-7.3156e-09
7.62119e-10
4.12705e-10
-6.63195e-09
7.51986e-10
4.51921e-10
-5.48273e-09
7.40642e-10
-1.89538e-10
-3.68112e-09
6.28166e-10
-1.13716e-09
-1.26034e-09
4.26293e-10
-1.87727e-09
1.30919e-09
1.94058e-10
-1.59363e-09
2.73154e-09
2.70303e-10
-2.01199e-10
2.49369e-09
9.17101e-10
1.29029e-09
9.53571e-10
1.66083e-09
1.1132e-09
-9.68485e-11
2.01418e-09
-7.94005e-11
1.02853e-09
-5.00524e-10
7.43136e-09
-5.00524e-10
2.47192e-09
-9.00031e-09
4.23032e-10
4.32604e-09
-7.40074e-09
6.54441e-10
5.49154e-09
-6.75457e-09
8.90066e-10
5.97599e-09
-5.48996e-09
1.08156e-09
5.86315e-09
-3.57098e-09
1.12111e-09
5.45517e-09
-1.35471e-09
1.00778e-09
4.93213e-09
9.70934e-10
7.23381e-10
4.49e-09
2.66518e-09
5.03916e-10
4.03835e-09
3.4839e-09
4.43664e-10
3.41495e-09
3.12735e-09
5.61638e-10
2.35774e-09
1.71745e-09
8.51777e-10
7.1198e-10
-3.17023e-10
1.14829e-09
-1.44779e-09
-2.42871e-09
1.27199e-09
-3.72673e-09
-4.41051e-09
1.21035e-09
-5.65026e-09
-5.96051e-09
8.97742e-10
-6.72775e-09
-7.09632e-09
4.0568e-10
-6.74781e-09
-7.8834e-09
-1.07259e-10
-5.87519e-09
-8.32432e-09
-4.59136e-10
-4.51015e-09
-8.24541e-09
-6.54656e-10
-3.14317e-09
-7.45316e-09
-7.66465e-10
-2.20314e-09
-5.85379e-09
-7.89366e-10
-1.72038e-09
-3.50946e-09
-8.72922e-10
-1.11736e-09
-1.22329e-09
-8.55298e-10
-1.61214e-10
7.62679e-10
-6.20442e-10
1.21068e-09
1.27604e-09
-1.2216e-10
2.50576e-09
6.66889e-10
3.31027e-10
2.3871e-09
2.81879e-10
5.94545e-10
8.27551e-10
1.32376e-09
-5.25366e-11
1.25545e-09
-6.65378e-10
2.36139e-09
2.61335e-09
2.36139e-09
2.51251e-09
-1.21366e-08
2.80737e-09
1.99817e-09
-1.02142e-08
3.16821e-09
9.71997e-10
-8.9345e-09
3.04741e-09
-1.58995e-10
-7.21923e-09
2.70134e-09
-9.99156e-10
-4.95091e-09
2.06036e-09
-1.26434e-09
-2.49772e-09
1.24724e-09
-6.2622e-10
-3.81545e-10
5.51769e-10
7.1551e-10
1.13213e-09
2.65953e-11
2.29146e-09
1.86046e-09
-1.19927e-10
3.46578e-09
1.83843e-09
-5.65072e-11
3.57473e-09
1.34655e-09
8.61272e-11
2.35462e-09
5.64739e-10
1.56549e-10
5.09084e-11
-3.15994e-10
2.17172e-12
-2.89334e-09
-1.31583e-09
-3.47197e-10
-5.70469e-09
-2.49127e-09
-8.63223e-10
-7.66786e-09
-3.95052e-09
-1.39688e-09
-8.41692e-09
-5.53959e-09
-1.81773e-09
-7.99078e-09
-6.90587e-09
-2.07561e-09
-6.75884e-09
-7.59397e-09
-2.12111e-09
-5.20387e-09
-7.28303e-09
-1.96759e-09
-3.6036e-09
-5.97771e-09
-1.72098e-09
-1.97325e-09
-4.0229e-09
-1.36111e-09
-1.8931e-10
-2.29792e-09
-9.50726e-10
1.8396e-09
-1.1733e-09
-3.29606e-10
3.4376e-09
-7.89884e-10
2.37501e-10
3.72296e-09
-4.58441e-10
6.16696e-10
2.39348e-09
9.9105e-10
4.04424e-10
7.93864e-10
2.81433e-09
-1.00285e-10
1.46887e-09
4.09434e-10
5.06818e-09
-7.62067e-09
5.06818e-09
1.16981e-09
-1.30113e-08
4.59169e-09
-2.24972e-09
-1.1041e-08
4.08447e-09
-5.31096e-09
-9.19138e-09
3.15804e-09
-7.79914e-09
-6.94855e-09
2.05847e-09
-9.10415e-09
-4.6115e-09
8.07568e-10
-8.84401e-09
-2.62178e-09
-2.93153e-10
-7.03628e-09
-1.24094e-09
-1.1041e-09
-4.02736e-09
-3.81448e-10
-1.65011e-09
-6.8378e-10
1.59525e-10
-1.79684e-09
1.95439e-09
7.67872e-10
-1.72235e-09
3.13649e-09
1.68269e-09
-1.67467e-09
2.65807e-09
2.68312e-09
-1.7997e-09
8.34515e-10
3.46858e-09
-2.12583e-09
-1.68018e-09
3.58011e-09
-2.5529e-09
-4.13942e-09
2.71851e-09
-2.93101e-09
-5.95984e-09
8.59479e-10
-3.18072e-09
-6.82943e-09
-1.62137e-09
-3.25163e-09
-6.79064e-09
-4.0434e-09
-3.11654e-09
-6.09586e-09
-5.73209e-09
-2.78347e-09
-4.95689e-09
-6.3145e-09
-2.34421e-09
-3.37946e-09
-5.94339e-09
-1.8557e-09
-1.34531e-09
-5.01489e-09
-1.29035e-09
9.37399e-10
-4.17074e-09
-6.59108e-10
3.03862e-09
-3.56753e-09
4.59768e-11
4.11131e-09
-2.74254e-09
6.37981e-10
3.6448e-09
-1.10847e-09
8.8178e-10
2.41879e-09
1.09982e-09
8.90564e-10
1.48067e-09
2.26295e-09
1.27022e-09
9.0345e-10
1.86793e-09
5.12655e-09
-1.79726e-08
5.12655e-09
-1.85038e-09
-8.90664e-09
2.68418e-09
-7.4102e-09
-7.33459e-09
1.6859e-09
-1.15235e-08
-5.46295e-09
2.19819e-10
-1.42787e-08
-3.46065e-09
-8.95394e-10
-1.51573e-08
-1.94776e-09
-1.94434e-09
-1.39175e-08
-1.24784e-09
-2.76843e-09
-1.08362e-08
-1.35985e-09
-3.11156e-09
-6.76301e-09
-1.51971e-09
-3.07792e-09
-2.68452e-09
-1.13414e-09
-2.92135e-09
4.10652e-10
2.88897e-10
-2.74673e-09
2.15961e-09
2.5596e-09
-2.75114e-09
2.45207e-09
5.2253e-09
-2.95611e-09
1.71401e-09
7.33056e-09
-3.24385e-09
4.6297e-10
8.1474e-09
-3.43766e-09
-8.59071e-10
7.37656e-09
-3.46246e-09
-2.00433e-09
5.15037e-09
-3.28101e-09
-2.88768e-09
2.02356e-09
-2.90928e-09
-3.55596e-09
-1.0865e-09
-2.45115e-09
-3.92373e-09
-3.49272e-09
-2.05024e-09
-3.80704e-09
-4.85117e-09
-1.77482e-09
-2.97642e-09
-5.43517e-09
-1.54841e-09
-1.3988e-09
-5.49054e-09
-1.32381e-09
5.42316e-10
-5.25582e-09
-1.08648e-09
2.11842e-09
-4.55245e-09
-8.25838e-10
2.6666e-09
-2.85143e-09
-6.73972e-10
2.40777e-09
-3.38365e-10
-7.42407e-10
2.12037e-09
1.61491e-09
-4.53183e-10
1.31174e-09
2.59203e-09
2.59734e-10
2.55493e-09
-5.18339e-10
1.60262e-09
-2.12807e-08
1.60262e-09
-5.92564e-09
-4.56443e-10
-1.12345e-09
-1.12383e-08
-1.71387e-10
-2.03084e-09
-1.46896e-08
9.14456e-10
-3.10379e-09
-1.63142e-08
1.69373e-09
-3.70402e-09
-1.59049e-08
1.30501e-09
-3.83055e-09
-1.35777e-08
-1.69491e-10
-3.56659e-09
-1.00062e-08
-2.00975e-09
-3.07248e-09
-6.20676e-09
-3.01892e-09
-2.43881e-09
-2.89394e-09
-2.58816e-09
-1.98342e-09
-4.57942e-10
-4.59193e-10
-1.79761e-09
1.15817e-09
2.78625e-09
-1.93719e-09
2.18892e-09
6.31095e-09
-2.19637e-09
2.83493e-09
8.96135e-09
-2.34446e-09
3.17555e-09
9.97394e-09
-2.22622e-09
3.13638e-09
9.21328e-09
-1.85315e-09
2.52145e-09
7.00673e-09
-1.29935e-09
1.25961e-09
3.92458e-09
-7.05372e-10
-4.46878e-10
8.93228e-10
-3.53177e-10
-2.20446e-09
-1.54062e-09
-2.92717e-10
-3.36909e-09
-3.30197e-09
-5.04122e-10
-3.61128e-09
-4.40915e-09
-9.26048e-10
-2.88495e-09
-5.01666e-09
-1.36405e-09
-1.73967e-09
-4.84847e-09
-1.73506e-09
-7.96874e-10
-3.58411e-09
-2.10757e-09
-2.90658e-10
-1.07153e-09
-2.49159e-09
3.44754e-11
1.81428e-09
-2.68765e-09
3.3523e-11
3.86176e-09
-2.45649e-09
-5.35937e-10
5.66609e-09
-2.71402e-09
5.18017e-09
-3.33277e-09
-2.5609e-09
-1.62714e-08
-2.5609e-09
-8.05438e-09
9.3043e-09
-4.48601e-09
-1.12532e-08
7.28375e-09
-4.45374e-09
-1.26902e-08
6.63079e-09
-4.47486e-09
-1.23857e-08
5.14598e-09
-3.94947e-09
-1.05914e-08
2.42205e-09
-3.09782e-09
-8.03387e-09
-8.80956e-10
-2.02277e-09
-5.56807e-09
-3.61098e-09
-1.02789e-09
-3.55172e-09
-4.91339e-09
-2.68315e-10
-2.15299e-09
-4.12183e-09
8.75463e-12
-1.15305e-09
-1.41388e-09
-1.48453e-10
1.48601e-11
2.10698e-09
-5.66942e-10
1.60518e-09
5.63183e-09
-9.64249e-10
3.48141e-09
8.02567e-09
-9.69844e-10
5.10383e-09
8.93023e-09
-5.87865e-10
5.86998e-09
8.38153e-09
7.12898e-11
5.41114e-09
6.71313e-09
7.66004e-10
3.66249e-09
4.51638e-09
1.17062e-09
1.06677e-09
2.28947e-09
1.20547e-09
-1.57123e-09
1.99779e-10
8.88148e-10
-3.39538e-09
-1.86313e-09
3.53881e-10
-4.17594e-09
-3.60144e-09
-8.48985e-11
-4.14981e-09
-4.66087e-09
-4.67786e-10
-3.9084e-09
-4.43845e-09
-7.64675e-10
-3.79635e-09
-2.72133e-09
-1.11276e-09
-3.64665e-09
5.22504e-11
-1.4317e-09
-3.17284e-09
2.69849e-09
-1.53187e-09
-2.68779e-09
4.8594e-09
-1.66761e-09
-1.71803e-09
6.66517e-09
-2.1613e-09
3.8804e-09
-5.80363e-10
-4.78131e-09
-6.8331e-09
-4.78131e-09
-6.61098e-09
1.55901e-08
-4.68443e-09
-6.99107e-09
1.14534e-08
-3.99932e-09
-6.20985e-09
8.87362e-09
-3.23324e-09
-4.55181e-09
5.38742e-09
-2.10636e-09
-2.61989e-09
1.18732e-09
-8.98459e-10
-1.21592e-09
-2.6205e-09
1.43462e-10
-7.35718e-10
-5.09039e-09
8.20289e-10
-1.08686e-09
-5.69173e-09
9.67871e-10
-1.76127e-09
-4.09668e-09
5.09186e-10
-1.86062e-09
-1.24693e-09
-1.82229e-10
-8.82121e-10
1.80551e-09
-7.63187e-10
1.20125e-09
4.3732e-09
-8.81018e-10
3.70798e-09
6.03903e-09
-5.46822e-10
5.74423e-09
6.7748e-09
1.19847e-10
6.55701e-09
6.7962e-09
7.96431e-10
5.82732e-09
6.24356e-09
1.24067e-09
3.84335e-09
5.20454e-09
1.34771e-09
1.35416e-09
3.62557e-09
1.2073e-09
-7.78193e-10
1.40636e-09
9.73532e-10
-2.1772e-09
-1.27221e-09
8.41183e-10
-2.88097e-09
-3.85409e-09
9.67969e-10
-3.42727e-09
-5.44808e-09
1.31835e-09
-4.17521e-09
-5.30411e-09
1.56852e-09
-4.98705e-09
-3.58018e-09
1.5946e-09
-5.10807e-09
-1.60953e-09
1.67657e-09
-4.50135e-09
9.56313e-11
1.86247e-09
-3.32306e-09
1.36727e-09
2.15628e-09
-7.91823e-10
1.17333e-09
2.78351e-09
-2.09223e-09
5.0226e-09
-3.94104e-09
9.17696e-10
-3.94104e-09
-2.63755e-09
1.69389e-08
-2.8726e-09
-1.24472e-09
1.20302e-08
-2.17212e-09
5.29368e-10
8.3041e-09
-1.40589e-09
2.28885e-09
4.02828e-09
-5.99882e-10
3.38636e-09
-1.41615e-10
3.5765e-11
3.41571e-09
-3.16162e-09
3.22262e-10
2.2074e-09
-4.34218e-09
2.79531e-10
3.62568e-10
-3.8629e-09
-1.52619e-10
-1.01561e-09
-2.19996e-09
-6.71806e-10
-1.29063e-09
-1.30831e-10
-9.76018e-10
-1.64257e-10
1.43437e-09
-8.69356e-10
1.84174e-09
2.62796e-09
-3.52384e-10
3.89825e-09
3.53165e-09
3.82558e-10
5.13319e-09
4.429e-09
1.06585e-09
5.19578e-09
5.28156e-09
1.42944e-09
4.21889e-09
5.79701e-09
1.42135e-09
2.75147e-09
5.47926e-09
1.20809e-09
1.42869e-09
3.98756e-09
9.89013e-10
5.5611e-10
1.3263e-09
9.88077e-10
-2.87539e-11
-1.8931e-09
1.24194e-09
-8.72957e-10
-4.65976e-09
1.6796e-09
-2.23915e-09
-6.05394e-09
1.98758e-09
-3.81568e-09
-5.73537e-09
2.00137e-09
-4.76126e-09
-4.61385e-09
1.94394e-09
-4.50372e-09
-4.11307e-09
2.17652e-09
-3.19317e-09
-4.11218e-09
2.7905e-09
-1.1664e-09
-4.39966e-09
3.59575e-09
6.40383e-10
-5.65548e-09
4.84375e-09
-5.24021e-09
3.61863e-09
-2.33218e-09
5.45899e-09
-2.33218e-09
3.75798e-10
1.53799e-08
-1.32978e-09
2.62729e-09
1.08177e-08
-1.20297e-09
4.49088e-09
7.1801e-09
-9.00278e-10
5.91354e-09
3.07031e-09
-6.22714e-10
6.38247e-09
-4.0378e-10
-3.62139e-10
5.77826e-09
-2.53008e-09
-1.80239e-10
4.34688e-09
-2.91915e-09
-1.42255e-10
2.77284e-09
-2.33408e-09
-1.03409e-10
1.67974e-09
-1.32605e-09
7.24947e-11
1.59288e-09
-6.85347e-10
4.96549e-10
2.31202e-09
-6.7574e-10
1.24794e-09
3.04362e-09
-3.57687e-10
2.11313e-09
3.21836e-09
3.6772e-10
2.85155e-09
2.74498e-09
1.78485e-09
2.98544e-09
1.87114e-09
3.46286e-09
2.56926e-09
1.12046e-09
4.52309e-09
1.91391e-09
8.24143e-10
4.26799e-09
1.41336e-09
9.04301e-10
2.59747e-09
1.23517e-09
9.28781e-10
-3.37917e-11
1.2819e-09
8.36714e-11
-2.49263e-09
1.41108e-09
-1.65748e-09
-4.1774e-09
1.24094e-09
-3.90439e-09
-4.40269e-09
5.85145e-10
-5.48237e-09
-3.76659e-09
-4.05425e-10
-5.48936e-09
-3.8205e-09
-8.18586e-10
-4.1871e-09
-4.83805e-09
-6.40896e-10
-2.41871e-09
-5.59707e-09
-3.89799e-10
-9.74856e-10
-5.56927e-09
-4.29278e-10
-1.01334e-09
-4.59968e-09
-1.21821e-09
-2.61687e-09
-3.83309e-09
-1.29914e-09
7.96288e-09
-1.29914e-09
1.93569e-09
1.28753e-08
-8.47568e-10
4.41464e-09
9.10432e-09
-8.66894e-10
6.54331e-09
5.49034e-09
-5.33262e-10
8.05512e-09
1.51447e-09
-4.49106e-11
8.77765e-09
-1.61331e-09
4.01422e-10
8.45222e-09
-3.09501e-09
8.0518e-10
7.59086e-09
-3.388e-09
1.24167e-09
6.65422e-09
-3.27158e-09
1.7779e-09
6.03003e-09
-3.35511e-09
2.54451e-09
5.41924e-09
-3.65405e-09
3.45318e-09
4.3765e-09
-4.22932e-09
4.44834e-09
2.55975e-09
-3.61564e-09
4.90281e-09
2.94675e-10
-1.9708e-09
4.40827e-09
-1.74475e-09
2.3937e-10
3.36985e-09
-2.77313e-09
2.1432e-09
2.12015e-09
-2.55937e-09
2.86828e-09
1.20986e-09
-1.56864e-09
2.16407e-09
8.90305e-10
-6.92592e-10
6.2722e-10
8.91481e-10
-9.88268e-10
-8.94363e-10
9.83897e-10
-2.71931e-09
-1.64611e-09
7.48609e-10
-5.38505e-09
-1.47154e-09
-1.39519e-10
-7.52277e-09
-9.89036e-10
-1.3456e-09
-7.76708e-09
-1.68051e-09
-1.89541e-09
-6.17043e-09
-3.68865e-09
-1.78598e-09
-4.20123e-09
-5.31477e-09
-1.57504e-09
-2.96781e-09
-5.11605e-09
-1.84043e-09
-2.70926e-09
-3.2126e-09
-2.79425e-09
-3.15086e-09
2.65337e-10
-4.65162e-09
-1.52725e-09
-4.4561e-09
-4.85768e-10
8.8822e-09
-4.85767e-10
3.1576e-09
9.07561e-09
9.88851e-11
6.11279e-09
5.68976e-09
4.16197e-10
8.62409e-09
1.86155e-09
1.08433e-09
1.0419e-08
-2.12572e-09
1.82126e-09
1.11001e-08
-4.70393e-09
2.39223e-09
1.11057e-08
-6.00665e-09
2.89171e-09
1.06643e-08
-6.34176e-09
3.3776e-09
9.91242e-09
-6.57158e-09
4.02325e-09
8.7407e-09
-6.84699e-09
4.61482e-09
6.6272e-09
-6.69644e-09
5.07769e-09
3.2942e-09
-5.73798e-09
4.72626e-09
-6.43446e-10
-3.47353e-09
3.63817e-09
-4.01843e-09
-9.06724e-10
2.11109e-09
-6.02986e-09
1.53544e-09
4.77245e-10
-6.1346e-09
2.16775e-09
-1.86847e-10
-4.70623e-09
1.4924e-09
-3.34696e-10
-3.20628e-09
4.65496e-10
-8.21009e-11
-2.92606e-09
-1.33426e-10
2.18737e-10
-4.33407e-09
1.5117e-10
1.3478e-10
-6.70511e-09
1.0862e-09
-5.45287e-10
-8.71609e-09
1.82302e-09
-1.4214e-09
-8.90598e-09
6.51355e-10
-1.54903e-09
-7.20923e-09
-2.64112e-09
-8.10214e-10
-5.15338e-09
-6.04152e-09
2.25586e-10
-4.09732e-09
-7.11268e-09
6.50045e-10
-3.97142e-09
-5.57376e-09
2.0144e-10
-3.82184e-09
-2.99869e-09
-5.39407e-10
-2.36309e-09
-3.54063e-10
-1.05257e-09
-4.44355e-09
3.7423e-10
1.07897e-09
6.70613e-09
1.07898e-09
5.28835e-09
2.74536e-09
2.08451e-09
8.44897e-09
-1.94627e-10
2.69779e-09
1.07536e-08
-3.82876e-09
3.3699e-09
1.17973e-08
-7.08561e-09
3.91331e-09
1.19106e-08
-9.10696e-09
4.29992e-09
1.14596e-08
-9.80354e-09
4.26871e-09
1.08214e-08
-9.79798e-09
4.11976e-09
9.71133e-09
-9.38524e-09
3.94481e-09
7.62786e-09
-8.38241e-09
3.62461e-09
4.24227e-09
-6.34763e-09
3.0162e-09
-7.94166e-11
-3.34518e-09
1.87296e-09
-4.15089e-09
7.28371e-11
4.28606e-10
-6.76856e-09
2.12473e-09
-5.51167e-10
-7.13733e-09
2.46362e-09
-7.3209e-10
-5.90789e-09
1.1372e-09
-3.96572e-10
-4.36961e-09
-5.28998e-10
2.76069e-10
-4.17139e-09
-7.45779e-10
8.13854e-10
-5.64532e-09
3.39559e-10
8.25441e-10
-8.08364e-09
2.37005e-09
7.91106e-11
-9.84641e-09
3.5792e-09
-8.30092e-10
-9.62467e-09
2.52142e-09
-9.81882e-10
-7.43726e-09
-1.60378e-09
3.40205e-11
-4.98597e-09
-6.43695e-09
1.32372e-09
-4.10425e-09
-9.34114e-09
2.39241e-09
-4.5532e-09
-8.85784e-09
2.14953e-09
-4.69059e-09
-7.06536e-09
1.55867e-09
-3.72528e-09
-5.82197e-09
1.76718e-09
-1.11395e-09
-5.4595e-09
2.40054e-09
-8.0679e-09
2.47766e-09
3.29513e-09
9.98021e-11
3.29513e-09
7.30828e-09
-5.59735e-09
4.26187e-09
9.91114e-09
-7.67172e-09
4.812e-09
1.1133e-08
-1.01547e-08
5.05136e-09
1.10744e-08
-1.19356e-08
4.87264e-09
1.02782e-08
-1.25367e-08
4.21148e-09
9.43001e-09
-1.24112e-08
3.46291e-09
8.62447e-09
-1.18149e-08
2.84691e-09
7.3417e-09
-1.05483e-08
2.47946e-09
4.95766e-09
-8.09413e-09
2.12848e-09
1.57646e-09
-4.55489e-09
1.61037e-09
-1.94731e-09
-6.64078e-10
8.46645e-10
-4.40548e-09
1.92582e-09
5.88265e-10
-5.10414e-09
2.03087e-09
7.56975e-10
-4.24098e-09
2.56814e-11
1.52828e-09
-3.3117e-09
-2.41614e-09
2.5794e-09
-3.7965e-09
-3.58515e-09
3.51239e-09
-6.09758e-09
-1.95297e-09
3.50834e-09
-9.1712e-09
1.05781e-09
2.39154e-09
-1.12403e-08
3.5397e-09
9.71787e-10
-1.11499e-08
3.00546e-09
5.84907e-10
-8.65278e-09
-1.11542e-09
1.25699e-09
-5.91636e-09
-6.69931e-09
2.47634e-09
-5.00225e-09
-1.06752e-08
3.42801e-09
-6.06106e-09
-1.11882e-08
2.99112e-09
-6.91788e-09
-9.5705e-09
1.64203e-09
-6.2163e-09
-9.03633e-09
1.34604e-09
-4.10129e-09
-9.58331e-09
1.75183e-09
-1.4817e-09
-9.63437e-09
1.71485e-09
-1.0985e-08
1.66649e-09
4.87947e-09
-9.70943e-09
4.87947e-09
7.84911e-09
-1.40428e-08
5.36303e-09
9.65703e-09
-1.48829e-08
5.29332e-09
9.97093e-09
-1.54677e-08
4.90063e-09
9.24348e-09
-1.54654e-08
4.18109e-09
8.29117e-09
-1.50277e-08
3.3963e-09
7.56977e-09
-1.45593e-08
2.85317e-09
6.87043e-09
-1.38179e-08
2.71275e-09
5.58855e-09
-1.19886e-08
2.75203e-09
3.38973e-09
-8.55359e-09
2.69886e-09
7.66592e-10
-4.32575e-09
2.43806e-09
-1.20377e-09
-8.74994e-10
2.22506e-09
-1.75802e-09
6.48805e-11
2.45967e-09
-1.08374e-09
-1.85863e-09
3.2669e-09
-5.69907e-10
-4.73453e-09
4.31627e-09
-1.78453e-09
-6.23e-09
5.1295e-09
-4.87644e-09
-5.00008e-09
4.64982e-09
-8.61246e-09
-1.42778e-09
3.40047e-09
-1.13318e-08
2.00595e-09
2.00384e-09
-1.15237e-08
2.18056e-09
1.81485e-09
-9.34788e-09
-1.764e-09
2.86878e-09
-6.9345e-09
-7.49936e-09
4.23579e-09
-6.54421e-09
-1.22882e-08
5.43689e-09
-8.47964e-09
-1.34212e-08
4.88904e-09
-1.02458e-08
-1.25695e-08
3.33906e-09
-1.01389e-08
-1.21324e-08
2.66339e-09
-8.54147e-09
-1.28833e-08
2.51751e-09
-5.90524e-09
-1.41342e-08
2.28128e-09
-1.95355e-09
-1.57897e-08
2.68781e-09
-1.74785e-08
5.06685e-09
5.27789e-09
-2.03518e-08
5.2779e-09
7.40007e-09
-2.1504e-08
5.24908e-09
8.76927e-09
-2.13201e-08
4.98211e-09
8.96509e-09
-2.02294e-08
4.49883e-09
8.4375e-09
-1.89053e-08
3.92801e-09
7.83339e-09
-1.79405e-08
3.50808e-09
7.23174e-09
-1.73501e-08
3.41184e-09
6.22103e-09
-1.62896e-08
3.52331e-09
4.42597e-09
-1.3586e-08
3.44642e-09
2.23292e-09
-9.35326e-09
3.05188e-09
5.85503e-10
-5.10903e-09
2.49068e-09
2.29467e-10
-2.80026e-09
2.34224e-09
1.01178e-09
-3.44775e-09
2.79725e-09
1.5546e-09
-5.84728e-09
3.52815e-09
3.35151e-10
-7.43249e-09
4.02625e-09
-2.78896e-09
-6.33246e-09
3.37099e-09
-6.63954e-09
-3.09043e-09
2.12453e-09
-9.21622e-09
1.32604e-10
1.23484e-09
-9.34094e-09
7.4928e-10
1.62299e-09
-7.32804e-09
-2.60098e-09
3.01481e-09
-5.5057e-09
-8.20292e-09
4.84893e-09
-5.96931e-09
-1.31666e-08
6.33477e-09
-9.07081e-09
-1.50502e-08
6.03763e-09
-1.23855e-08
-1.4348e-08
4.40381e-09
-1.32478e-08
-1.52628e-08
3.74487e-09
-1.18252e-08
-1.77993e-08
4.51409e-09
-1.00465e-08
-1.88336e-08
4.57556e-09
-6.0672e-09
-2.14086e-08
3.86478e-09
-3.5603e-10
-2.68041e-08
6.02585e-09
-2.48237e-08
7.68059e-09
5.07144e-09
-3.05605e-08
5.07144e-09
7.06456e-09
-2.83963e-08
4.96672e-09
8.50039e-09
-2.72513e-08
4.5672e-09
9.12969e-09
-2.48083e-08
4.04583e-09
9.20036e-09
-2.25166e-08
3.65931e-09
8.94856e-09
-2.09555e-08
3.40078e-09
8.06675e-09
-1.96379e-08
3.30748e-09
6.23827e-09
-1.74121e-08
3.08129e-09
3.89215e-09
-1.36383e-08
2.51179e-09
1.80735e-09
-9.02891e-09
1.85191e-09
1.15175e-09
-6.1037e-09
1.72033e-09
1.87688e-09
-5.66824e-09
2.19672e-09
2.84831e-09
-7.30616e-09
2.93363e-09
2.40291e-09
-8.91275e-09
3.55995e-09
-7.14133e-11
-8.37753e-09
3.47712e-09
-3.41582e-09
-5.73398e-09
2.81178e-09
-5.84275e-09
-2.92994e-09
2.33201e-09
-5.96958e-09
-2.39355e-09
2.70313e-09
-4.35489e-09
-4.80943e-09
3.96215e-09
-3.28553e-09
-9.24948e-09
5.55241e-09
-4.63692e-09
-1.33778e-08
6.45254e-09
-8.37239e-09
-1.536e-08
5.82301e-09
-1.25446e-08
-1.53112e-08
4.32867e-09
-1.47244e-08
-1.53848e-08
3.16291e-09
-1.38659e-08
-1.93247e-08
3.25817e-09
-1.16495e-08
-2.41116e-08
4.31303e-09
-9.20735e-09
-2.5635e-08
4.77072e-09
-4.76658e-09
-3.04746e-08
5.22291e-09
-6.15422e-10
-3.62443e-08
6.01444e-09
-2.69576e-08
2.11589e-09
4.53672e-09
-3.95835e-08
4.53673e-09
6.85631e-09
-3.45764e-08
4.20018e-09
8.77489e-09
-3.24956e-08
3.65421e-09
1.02145e-08
-2.90654e-08
3.15647e-09
1.11421e-08
-2.59764e-08
2.86433e-09
1.1188e-08
-2.35416e-08
2.8443e-09
1.0003e-08
-2.10251e-08
2.83115e-09
7.66383e-09
-1.75238e-08
2.6521e-09
5.23856e-09
-1.34205e-08
2.34712e-09