/*--------------------------------*- C++ -*----------------------------------*\
| =========                 |                                                 |
| \\      /  F ield         | OpenFOAM: The Open Source CFD Toolbox           |
|  \\    /   O peration     | Version:  2312                                  |
|   \\  /    A nd           | Website:  www.openfoam.com                      |
|    \\/     M anipulation  |                                                 |
\*---------------------------------------------------------------------------*/
FoamFile
{
    version     2.0;
    format      ascii;
    arch        "LSB;label=32;scalar=64";
    class       volScalarField;
    location    "1.30953105";
    object      epsilon;
}
// * * * * * * * * * * * * * * * * * * * * * * * * * * * * * * * * * * * * * //

dimensions      [0 2 -3 0 0 0 0];

internalField   nonuniform List<scalar> 
90000
(
8.10832e-06
8.11089e-06
8.11142e-06
8.1116e-06
8.11176e-06
8.11176e-06
8.1117e-06
8.11162e-06
8.11149e-06
8.11125e-06
8.11092e-06
8.11056e-06
8.1103e-06
8.11033e-06
8.11052e-06
8.11067e-06
8.11086e-06
8.11132e-06
8.11188e-06
8.11197e-06
8.1114e-06
8.11056e-06
8.11137e-06
8.11342e-06
8.11521e-06
8.11594e-06
8.11518e-06
8.11412e-06
8.11688e-06
8.12275e-06
8.11217e-06
8.16706e-06
8.17217e-06
8.17223e-06
8.17196e-06
8.1718e-06
8.17181e-06
8.17186e-06
8.17183e-06
8.17175e-06
8.17178e-06
8.17201e-06
8.17226e-06
8.17242e-06
8.17247e-06
8.1724e-06
8.17226e-06
8.17211e-06
8.17192e-06
8.17172e-06
8.17202e-06
8.17262e-06
8.17316e-06
8.17326e-06
8.17273e-06
8.17206e-06
8.17304e-06
8.17619e-06
8.17383e-06
8.13311e-06
8.11247e-06
8.17242e-06
8.17818e-06
8.17833e-06
8.17818e-06
8.17812e-06
8.1782e-06
8.17825e-06
8.17814e-06
8.17788e-06
8.17791e-06
8.17836e-06
8.179e-06
8.1795e-06
8.17956e-06
8.17911e-06
8.17826e-06
8.17751e-06
8.17814e-06
8.17916e-06
8.17983e-06
8.17996e-06
8.17973e-06
8.17948e-06
8.17987e-06
8.18081e-06
8.18151e-06
8.18418e-06
8.1874e-06
8.12969e-06
8.11198e-06
8.17259e-06
8.17869e-06
8.17902e-06
8.17902e-06
8.17904e-06
8.17911e-06
8.17917e-06
8.1791e-06
8.17882e-06
8.17858e-06
8.1788e-06
8.17921e-06
8.1796e-06
8.17956e-06
8.17908e-06
8.17851e-06
8.17885e-06
8.17987e-06
8.18053e-06
8.18054e-06
8.18011e-06
8.18038e-06
8.18182e-06
8.18317e-06
8.18422e-06
8.18561e-06
8.18559e-06
8.18619e-06
8.12145e-06
8.11141e-06
8.17252e-06
8.17871e-06
8.17916e-06
8.17923e-06
8.17919e-06
8.17915e-06
8.17916e-06
8.17922e-06
8.17919e-06
8.17909e-06
8.17893e-06
8.1787e-06
8.17838e-06
8.17835e-06
8.17896e-06
8.17975e-06
8.18034e-06
8.18051e-06
8.1802e-06
8.17967e-06
8.17991e-06
8.18127e-06
8.18275e-06
8.18369e-06
8.1837e-06
8.18319e-06
8.18348e-06
8.17895e-06
8.11711e-06
8.1113e-06
8.17262e-06
8.17868e-06
8.17913e-06
8.17921e-06
8.17911e-06
8.17896e-06
8.17891e-06
8.17901e-06
8.17922e-06
8.17946e-06
8.17971e-06
8.17985e-06
8.1797e-06
8.17947e-06
8.1797e-06
8.18014e-06
8.18034e-06
8.18011e-06
8.17971e-06
8.17969e-06
8.18027e-06
8.18108e-06
8.18167e-06
8.18191e-06
8.18175e-06
8.18098e-06
8.18405e-06
8.17838e-06
8.11674e-06
8.11175e-06
8.17291e-06
8.17892e-06
8.17951e-06
8.17984e-06
8.18002e-06
8.17995e-06
8.17958e-06
8.17912e-06
8.17911e-06
8.1796e-06
8.18034e-06
8.18102e-06
8.18124e-06
8.18078e-06
8.17986e-06
8.17911e-06
8.17895e-06
8.17932e-06
8.17983e-06
8.18026e-06
8.18042e-06
8.18017e-06
8.17954e-06
8.17935e-06
8.18105e-06
8.18332e-06
8.18622e-06
8.1805e-06
8.11613e-06
8.11202e-06
8.1739e-06
8.17982e-06
8.18055e-06
8.18109e-06
8.18151e-06
8.18165e-06
8.18129e-06
8.1804e-06
8.1793e-06
8.17951e-06
8.1803e-06
8.18109e-06
8.1814e-06
8.18089e-06
8.17963e-06
8.17809e-06
8.17767e-06
8.17882e-06
8.17979e-06
8.18023e-06
8.18004e-06
8.17929e-06
8.17874e-06
8.17985e-06
8.18223e-06
8.18446e-06
8.18569e-06
8.17908e-06
8.11482e-06
8.11254e-06
8.17545e-06
8.18106e-06
8.18167e-06
8.1822e-06
8.18265e-06
8.18283e-06
8.18264e-06
8.18201e-06
8.18105e-06
8.18019e-06
8.18003e-06
8.18015e-06
8.18029e-06
8.18028e-06
8.18004e-06
8.17965e-06
8.1794e-06
8.1796e-06
8.17998e-06
8.18007e-06
8.17969e-06
8.17902e-06
8.1791e-06
8.18073e-06
8.18266e-06
8.18398e-06
8.18375e-06
8.1768e-06
8.11366e-06
8.11462e-06
8.17622e-06
8.18141e-06
8.18181e-06
8.18209e-06
8.18231e-06
8.1825e-06
8.18267e-06
8.18269e-06
8.18245e-06
8.18175e-06
8.18055e-06
8.17924e-06
8.17891e-06
8.17972e-06
8.18092e-06
8.18185e-06
8.18233e-06
8.18237e-06
8.18205e-06
8.18144e-06
8.18057e-06
8.17967e-06
8.1795e-06
8.18067e-06
8.18181e-06
8.18219e-06
8.18139e-06
8.17503e-06
8.11317e-06
8.11633e-06
8.17618e-06
8.18101e-06
8.18118e-06
8.18093e-06
8.18057e-06
8.18049e-06
8.181e-06
8.1818e-06
8.18238e-06
8.18229e-06
8.18142e-06
8.17998e-06
8.17887e-06
8.17947e-06
8.18127e-06
8.18306e-06
8.18436e-06
8.18505e-06
8.18487e-06
8.18394e-06
8.18249e-06
8.18097e-06
8.18001e-06
8.1803e-06
8.18085e-06
8.1812e-06
8.18088e-06
8.17495e-06
8.11387e-06
8.11627e-06
8.17714e-06
8.18178e-06
8.18163e-06
8.18107e-06
8.18036e-06
8.17992e-06
8.18014e-06
8.1807e-06
8.1813e-06
8.18162e-06
8.18152e-06
8.18081e-06
8.17953e-06
8.17883e-06
8.18084e-06
8.1834e-06
8.18536e-06
8.18629e-06
8.18607e-06
8.18492e-06
8.18324e-06
8.18142e-06
8.17995e-06
8.18001e-06
8.1808e-06
8.18145e-06
8.18142e-06
8.17624e-06
8.11472e-06
8.11541e-06
8.17835e-06
8.18315e-06
8.18346e-06
8.1841e-06
8.18471e-06
8.18503e-06
8.1848e-06
8.1837e-06
8.1821e-06
8.1814e-06
8.18194e-06
8.18229e-06
8.18213e-06
8.18184e-06
8.18233e-06
8.18342e-06
8.18423e-06
8.18444e-06
8.18411e-06
8.18338e-06
8.18236e-06
8.18114e-06
8.18014e-06
8.18038e-06
8.18109e-06
8.18163e-06
8.18193e-06
8.17673e-06
8.11514e-06
8.11869e-06
8.17808e-06
8.1842e-06
8.18578e-06
8.18787e-06
8.18948e-06
8.18997e-06
8.18893e-06
8.18653e-06
8.18362e-06
8.18158e-06
8.18216e-06
8.18361e-06
8.18484e-06
8.18544e-06
8.1853e-06
8.18426e-06
8.18243e-06
8.18078e-06
8.18044e-06
8.18099e-06
8.18139e-06
8.18134e-06
8.18106e-06
8.18103e-06
8.18128e-06
8.18182e-06
8.18221e-06
8.17667e-06
8.11569e-06
8.12253e-06
8.17628e-06
8.18609e-06
8.189e-06
8.19115e-06
8.19194e-06
8.19113e-06
8.18894e-06
8.18599e-06
8.18304e-06
8.18092e-06
8.18154e-06
8.18377e-06
8.18586e-06
8.18691e-06
8.1866e-06
8.18496e-06
8.18241e-06
8.17997e-06
8.1789e-06
8.17992e-06
8.18124e-06
8.18197e-06
8.18203e-06
8.18168e-06
8.18192e-06
8.18293e-06
8.18345e-06
8.17841e-06
8.11783e-06
8.12344e-06
8.18224e-06
8.18984e-06
8.19134e-06
8.1915e-06
8.19022e-06
8.1879e-06
8.18543e-06
8.18343e-06
8.18179e-06
8.18044e-06
8.181e-06
8.18331e-06
8.18547e-06
8.18656e-06
8.18636e-06
8.18527e-06
8.18359e-06
8.18177e-06
8.18043e-06
8.18038e-06
8.18143e-06
8.18239e-06
8.18265e-06
8.18272e-06
8.18344e-06
8.18459e-06
8.18572e-06
8.18183e-06
8.1199e-06
8.12133e-06
8.18858e-06
8.19266e-06
8.19177e-06
8.1895e-06
8.18644e-06
8.18359e-06
8.18264e-06
8.18272e-06
8.18216e-06
8.18134e-06
8.18181e-06
8.18332e-06
8.18478e-06
8.18553e-06
8.18567e-06
8.18528e-06
8.18432e-06
8.18305e-06
8.18195e-06
8.18154e-06
8.1818e-06
8.18241e-06
8.18296e-06
8.18363e-06
8.18478e-06
8.18611e-06
8.18728e-06
8.18239e-06
8.11962e-06
8.12032e-06
8.19163e-06
8.19408e-06
8.19199e-06
8.18909e-06
8.18619e-06
8.18426e-06
8.18346e-06
8.1832e-06
8.18263e-06
8.18257e-06
8.18271e-06
8.18307e-06
8.18348e-06
8.1839e-06
8.18436e-06
8.18459e-06
8.18446e-06
8.18395e-06
8.1833e-06
8.18269e-06
8.18267e-06
8.1832e-06
8.18381e-06
8.18491e-06
8.18619e-06
8.18715e-06
8.18735e-06
8.18106e-06
8.11897e-06
8.12372e-06
8.19246e-06
8.19525e-06
8.19323e-06
8.1908e-06
8.18877e-06
8.18726e-06
8.18589e-06
8.18442e-06
8.18335e-06
8.18281e-06
8.18224e-06
8.18189e-06
8.18173e-06
8.1819e-06
8.1825e-06
8.18332e-06
8.18394e-06
8.18412e-06
8.18383e-06
8.18336e-06
8.18351e-06
8.18406e-06
8.18562e-06
8.18749e-06
8.18837e-06
8.1884e-06
8.18764e-06
8.18133e-06
8.11989e-06
8.12736e-06
8.19251e-06
8.19608e-06
8.19436e-06
8.19243e-06
8.19096e-06
8.18976e-06
8.18838e-06
8.18679e-06
8.18526e-06
8.18386e-06
8.18248e-06
8.18125e-06
8.18031e-06
8.18017e-06
8.18109e-06
8.18242e-06
8.1834e-06
8.18388e-06
8.18395e-06
8.18414e-06
8.18514e-06
8.18749e-06
8.1897e-06
8.19058e-06
8.19038e-06
8.19002e-06
8.18966e-06
8.18461e-06
8.12277e-06
8.13048e-06
8.19224e-06
8.19638e-06
8.19516e-06
8.194e-06
8.19316e-06
8.19222e-06
8.1909e-06
8.18926e-06
8.18741e-06
8.1854e-06
8.1833e-06
8.18149e-06
8.18079e-06
8.18122e-06
8.18218e-06
8.18315e-06
8.18383e-06
8.18454e-06
8.18552e-06
8.18723e-06
8.18968e-06
8.19166e-06
8.19215e-06
8.19147e-06
8.191e-06
8.19108e-06
8.19137e-06
8.18668e-06
8.12503e-06
8.13289e-06
8.19221e-06
8.19731e-06
8.1968e-06
8.19618e-06
8.19544e-06
8.19429e-06
8.19274e-06
8.19088e-06
8.18872e-06
8.18629e-06
8.18413e-06
8.18321e-06
8.18353e-06
8.18364e-06
8.18354e-06
8.18371e-06
8.18459e-06
8.18634e-06
8.1888e-06
8.19162e-06
8.19361e-06
8.19381e-06
8.19286e-06
8.19258e-06
8.19302e-06
8.19365e-06
8.19398e-06
8.18865e-06
8.12812e-06
8.13478e-06
8.19344e-06
8.19947e-06
8.19949e-06
8.19885e-06
8.19767e-06
8.19603e-06
8.19414e-06
8.19211e-06
8.18994e-06
8.18786e-06
8.18634e-06
8.18583e-06
8.1848e-06
8.18343e-06
8.18276e-06
8.1835e-06
8.18568e-06
8.18884e-06
8.19228e-06
8.19472e-06
8.1953e-06
8.19468e-06
8.19468e-06
8.19552e-06
8.19668e-06
8.19762e-06
8.19777e-06
8.19236e-06
8.13218e-06
8.13755e-06
8.1972e-06
8.20332e-06
8.20324e-06
8.20213e-06
8.20043e-06
8.19853e-06
8.19665e-06
8.19468e-06
8.19251e-06
8.1903e-06
8.18863e-06
8.18692e-06
8.18447e-06
8.18241e-06
8.18257e-06
8.18438e-06
8.18757e-06
8.19158e-06
8.19465e-06
8.19597e-06
8.19619e-06
8.19699e-06
8.19846e-06
8.20019e-06
8.20182e-06
8.2027e-06
8.20296e-06
8.19732e-06
8.13764e-06
8.14321e-06
8.20315e-06
8.20883e-06
8.20827e-06
8.20668e-06
8.20478e-06
8.20295e-06
8.20102e-06
8.19871e-06
8.19602e-06
8.19321e-06
8.19061e-06
8.1877e-06
8.18487e-06
8.1837e-06
8.18397e-06
8.18591e-06
8.18975e-06
8.19324e-06
8.1953e-06
8.19671e-06
8.19895e-06
8.20129e-06
8.20341e-06
8.20574e-06
8.2074e-06
8.20851e-06
8.20915e-06
8.20419e-06
8.14503e-06
8.15128e-06
8.21105e-06
8.21606e-06
8.21489e-06
8.21303e-06
8.21108e-06
8.20906e-06
8.20668e-06
8.20378e-06
8.2005e-06
8.19703e-06
8.19343e-06
8.18999e-06
8.18758e-06
8.18585e-06
8.18535e-06
8.18743e-06
8.19093e-06
8.19396e-06
8.19703e-06
8.20068e-06
8.20381e-06
8.20632e-06
8.20904e-06
8.21142e-06
8.21335e-06
8.21509e-06
8.21683e-06
8.21383e-06
8.15194e-06
8.16186e-06
8.22047e-06
8.22492e-06
8.22341e-06
8.22139e-06
8.21914e-06
8.21652e-06
8.21339e-06
8.20984e-06
8.20583e-06
8.2016e-06
8.19754e-06
8.19426e-06
8.19151e-06
8.18858e-06
8.18751e-06
8.18948e-06
8.19315e-06
8.19771e-06
8.20236e-06
8.20615e-06
8.20942e-06
8.21267e-06
8.21578e-06
8.21847e-06
8.22136e-06
8.22394e-06
8.22627e-06
8.22217e-06
8.16043e-06
8.17407e-06
8.23147e-06
8.23583e-06
8.23407e-06
8.2316e-06
8.22869e-06
8.22525e-06
8.22131e-06
8.217e-06
8.21238e-06
8.20775e-06
8.20374e-06
8.20015e-06
8.19603e-06
8.19195e-06
8.19087e-06
8.19365e-06
8.1985e-06
8.20379e-06
8.20856e-06
8.21286e-06
8.21723e-06
8.22097e-06
8.22463e-06
8.22817e-06
8.23206e-06
8.23528e-06
8.23623e-06
8.23141e-06
8.17234e-06
8.18766e-06
8.24461e-06
8.24862e-06
8.2465e-06
8.24356e-06
8.24e-06
8.23587e-06
8.23125e-06
8.22624e-06
8.22097e-06
8.21589e-06
8.21128e-06
8.20618e-06
8.20051e-06
8.19582e-06
8.1952e-06
8.19901e-06
8.20464e-06
8.2106e-06
8.21632e-06
8.2216e-06
8.22687e-06
8.23167e-06
8.23633e-06
8.24067e-06
8.24514e-06
8.24847e-06
8.24854e-06
8.24425e-06
8.18756e-06
8.20355e-06
8.26011e-06
8.26392e-06
8.26149e-06
8.25809e-06
8.25399e-06
8.24923e-06
8.24386e-06
8.23793e-06
8.23164e-06
8.22554e-06
8.21932e-06
8.21238e-06
8.20541e-06
8.20035e-06
8.20024e-06
8.20489e-06
8.21129e-06
8.21826e-06
8.22533e-06
8.23183e-06
8.23835e-06
8.24475e-06
8.25056e-06
8.25538e-06
8.25997e-06
8.26357e-06
8.26451e-06
8.26196e-06
8.20471e-06
8.22293e-06
8.2791e-06
8.28273e-06
8.27992e-06
8.27593e-06
8.27114e-06
8.26554e-06
8.25922e-06
8.25209e-06
8.24445e-06
8.23679e-06
8.22866e-06
8.22008e-06
8.21206e-06
8.20661e-06
8.20673e-06
8.21215e-06
8.21958e-06
8.22778e-06
8.23641e-06
8.24459e-06
8.25267e-06
8.26044e-06
8.26704e-06
8.27246e-06
8.27705e-06
8.28164e-06
8.2849e-06
8.28198e-06
8.22464e-06
8.24679e-06
8.30252e-06
8.30577e-06
8.30242e-06
8.29767e-06
8.292e-06
8.28539e-06
8.27789e-06
8.26944e-06
8.26027e-06
8.25065e-06
8.24057e-06
8.23037e-06
8.22121e-06
8.21498e-06
8.21502e-06
8.22131e-06
8.23038e-06
8.24007e-06
8.25023e-06
8.26036e-06
8.27001e-06
8.27844e-06
8.28618e-06
8.29257e-06
8.29788e-06
8.30386e-06
8.30855e-06
8.30492e-06
8.24898e-06
8.27599e-06
8.33102e-06
8.33378e-06
8.32984e-06
8.3242e-06
8.31742e-06
8.30956e-06
8.30063e-06
8.2906e-06
8.27955e-06
8.26773e-06
8.25553e-06
8.24364e-06
8.23319e-06
8.226e-06
8.22595e-06
8.23313e-06
8.24408e-06
8.25548e-06
8.26726e-06
8.27928e-06
8.29011e-06
8.29966e-06
8.30907e-06
8.31709e-06
8.32357e-06
8.33078e-06
8.33576e-06
8.33257e-06
8.27818e-06
8.31162e-06
8.36565e-06
8.36788e-06
8.36318e-06
8.35641e-06
8.3482e-06
8.33866e-06
8.32792e-06
8.31594e-06
8.3028e-06
8.2889e-06
8.27479e-06
8.26102e-06
8.2489e-06
8.2406e-06
8.24065e-06
8.24856e-06
8.26119e-06
8.27464e-06
8.28824e-06
8.30189e-06
8.31486e-06
8.32626e-06
8.33743e-06
8.34712e-06
8.3553e-06
8.36323e-06
8.36844e-06
8.36602e-06
8.31292e-06
8.35487e-06
8.40757e-06
8.40906e-06
8.40321e-06
8.39501e-06
8.38512e-06
8.37376e-06
8.36101e-06
8.34699e-06
8.33175e-06
8.31572e-06
8.29938e-06
8.28327e-06
8.26896e-06
8.2593e-06
8.2599e-06
8.26885e-06
8.28307e-06
8.29892e-06
8.31478e-06
8.33061e-06
8.34645e-06
8.35983e-06
8.37256e-06
8.3843e-06
8.39447e-06
8.40265e-06
8.40837e-06
8.40649e-06
8.35492e-06
8.40706e-06
8.45779e-06
8.45825e-06
8.45114e-06
8.44159e-06
8.43018e-06
8.41701e-06
8.40215e-06
8.38587e-06
8.36822e-06
8.34955e-06
8.33045e-06
8.31158e-06
8.29518e-06
8.28416e-06
8.28539e-06
8.29606e-06
8.31204e-06
8.33053e-06
8.34944e-06
8.36775e-06
8.38631e-06
8.40182e-06
8.41637e-06
8.43063e-06
8.44195e-06
8.45062e-06
8.45684e-06
8.45574e-06
8.40648e-06
8.46988e-06
8.51806e-06
8.51758e-06
8.50951e-06
8.49882e-06
8.48582e-06
8.47062e-06
8.4534e-06
8.43451e-06
8.4141e-06
8.39239e-06
8.37042e-06
8.34893e-06
8.33094e-06
8.31836e-06
8.31931e-06
8.33172e-06
8.34991e-06
8.37124e-06
8.39385e-06
8.41468e-06
8.43568e-06
8.45361e-06
8.47072e-06
8.48688e-06
8.49944e-06
8.50908e-06
8.51644e-06
8.51694e-06
8.46992e-06
8.5457e-06
8.59125e-06
8.59012e-06
8.58109e-06
8.56882e-06
8.55374e-06
8.53617e-06
8.51636e-06
8.49473e-06
8.47145e-06
8.44672e-06
8.42202e-06
8.39779e-06
8.37777e-06
8.36346e-06
8.36326e-06
8.37715e-06
8.39857e-06
8.42294e-06
8.44889e-06
8.47233e-06
8.49585e-06
8.51689e-06
8.53681e-06
8.55484e-06
8.5689e-06
8.58072e-06
8.59005e-06
8.59191e-06
8.5471e-06
8.63728e-06
8.68063e-06
8.6784e-06
8.6677e-06
8.65334e-06
8.6359e-06
8.61583e-06
8.59329e-06
8.5687e-06
8.54235e-06
8.51448e-06
8.48684e-06
8.4594e-06
8.43624e-06
8.42049e-06
8.41957e-06
8.43517e-06
8.46011e-06
8.48773e-06
8.5162e-06
8.54254e-06
8.56907e-06
8.59369e-06
8.6162e-06
8.63641e-06
8.65304e-06
8.66738e-06
8.6786e-06
8.68145e-06
8.63893e-06
8.74814e-06
8.78869e-06
8.78465e-06
8.77217e-06
8.75587e-06
8.73622e-06
8.71344e-06
8.68791e-06
8.66002e-06
8.63038e-06
8.59913e-06
8.56795e-06
8.53785e-06
8.51062e-06
8.49328e-06
8.49261e-06
8.51032e-06
8.53789e-06
8.5689e-06
8.59969e-06
8.62978e-06
8.6598e-06
8.68794e-06
8.71303e-06
8.73603e-06
8.75573e-06
8.77204e-06
8.7848e-06
8.78925e-06
8.74849e-06
8.8818e-06
8.91926e-06
8.91371e-06
8.89995e-06
8.88171e-06
8.85934e-06
8.83337e-06
8.8049e-06
8.77395e-06
8.7412e-06
8.7069e-06
8.67156e-06
8.63952e-06
8.60814e-06
8.5882e-06
8.58787e-06
8.60831e-06
8.63816e-06
8.67269e-06
8.7063e-06
8.74066e-06
8.77385e-06
8.80494e-06
8.83313e-06
8.85874e-06
8.88147e-06
8.89984e-06
8.91408e-06
8.92044e-06
8.88109e-06
9.04403e-06
9.07992e-06
9.07258e-06
9.05651e-06
9.03521e-06
9.00961e-06
8.98076e-06
8.94956e-06
8.91563e-06
8.87957e-06
8.84283e-06
8.8037e-06
8.76954e-06
8.73494e-06
8.71169e-06
8.71252e-06
8.73603e-06
8.76794e-06
8.8056e-06
8.84255e-06
8.88023e-06
8.91576e-06
8.94935e-06
8.9815e-06
9.0096e-06
9.03483e-06
9.05626e-06
9.07276e-06
9.0813e-06
9.04332e-06
9.24369e-06
9.27913e-06
9.26763e-06
9.24802e-06
9.22355e-06
9.19487e-06
9.16291e-06
9.1285e-06
9.09162e-06
9.05283e-06
9.01467e-06
8.97355e-06
8.93606e-06
8.89977e-06
8.87431e-06
8.87578e-06
8.90134e-06
8.9357e-06
8.97491e-06
9.0144e-06
9.05409e-06
9.09223e-06
9.12868e-06
9.16369e-06
9.19538e-06
9.2236e-06
9.24843e-06
9.26901e-06
9.28034e-06
9.24098e-06
9.49234e-06
9.52971e-06
9.51215e-06
9.48865e-06
9.45988e-06
9.42733e-06
9.39203e-06
9.35421e-06
9.31469e-06
9.2754e-06
9.2366e-06
9.19696e-06
9.16032e-06
9.12592e-06
9.10211e-06
9.10442e-06
9.12713e-06
9.16089e-06
9.19799e-06
9.23633e-06
9.27595e-06
9.3154e-06
9.35465e-06
9.39061e-06
9.42655e-06
9.46089e-06
9.48973e-06
9.51343e-06
9.52969e-06
9.48717e-06
9.81301e-06
9.86618e-06
9.83819e-06
9.80958e-06
9.7729e-06
9.73311e-06
9.6928e-06
9.65216e-06
9.61515e-06
9.58388e-06
9.56132e-06
9.55359e-06
9.56301e-06
9.57336e-06
9.59182e-06
9.60257e-06
9.57778e-06
9.56197e-06
9.55624e-06
9.56386e-06
9.58486e-06
9.61532e-06
9.65352e-06
9.69204e-06
9.73063e-06
9.77391e-06
9.81155e-06
9.8381e-06
9.86558e-06
9.80703e-06
1.03053e-05
1.04422e-05
1.0386e-05
1.03872e-05
1.03064e-05
1.02352e-05
1.0206e-05
1.01712e-05
1.01649e-05
1.02268e-05
1.03918e-05
1.07222e-05
1.12309e-05
1.17504e-05
1.2228e-05
1.22903e-05
1.17708e-05
1.12339e-05
1.07464e-05
1.03964e-05
1.02307e-05
1.01676e-05
1.01696e-05
1.02078e-05
1.0235e-05
1.03048e-05
1.03917e-05
1.03896e-05
1.04468e-05
1.02941e-05
1.15505e-05
1.2157e-05
1.19957e-05
1.25104e-05
1.19473e-05
1.17342e-05
1.20121e-05
1.19637e-05
1.22096e-05
1.31894e-05
1.5009e-05
1.83842e-05
2.39019e-05
2.95104e-05
3.36749e-05
3.41306e-05
2.96702e-05
2.39992e-05
1.86236e-05
1.5038e-05
1.32155e-05
1.22246e-05
1.1963e-05
1.20237e-05
1.17349e-05
1.19414e-05
1.25351e-05
1.20076e-05
1.21896e-05
1.15216e-05
1.6584e-05
2.00405e-05
1.92635e-05
2.50153e-05
2.03896e-05
2.00885e-05
2.42793e-05
2.38389e-05
2.61091e-05
3.49075e-05
5.34002e-05
8.23299e-05
0.000129204
0.000176892
0.000209946
0.000209827
0.000177366
0.000130316
8.35421e-05
5.34836e-05
3.50806e-05
2.6192e-05
2.38614e-05
2.43848e-05
2.01141e-05
2.03776e-05
2.52493e-05
1.93185e-05
2.02598e-05
1.64748e-05
3.86399e-05
5.77826e-05
5.8226e-05
9.61241e-05
7.81564e-05
8.70855e-05
0.000124489
0.000132498
0.000164142
0.00026593
0.000416264
0.000577508
0.000827795
0.00102754
0.00114289
0.00113867
0.00102496
0.000833942
0.000581963
0.000414771
0.000266695
0.000164452
0.000133085
0.000125162
8.77627e-05
7.83745e-05
9.84194e-05
5.88444e-05
5.88415e-05
3.83291e-05
0.000118081
0.000217086
0.000248202
0.00041265
0.000463867
0.000555825
0.000698043
0.000904945
0.00108666
0.00139435
0.0017192
0.0019384
0.00234561
0.00265396
0.00261826
0.00262218
0.00264221
0.0023678
0.00194265
0.00168852
0.00137777
0.0010895
0.000913878
0.000701351
0.000562834
0.000466528
0.00042625
0.000253988
0.000219164
0.000118432
0.0003242
0.000598156
0.000732716
0.00121624
0.0015509
0.00192127
0.00241787
0.0029707
0.00336309
0.00376245
0.00399346
0.00424884
0.00444974
0.00510304
0.00481757
0.00472094
0.00500957
0.0044873
0.00419648
0.00389846
0.00370008
0.00337504
0.00300616
0.00240921
0.0019498
0.00157302
0.00126909
0.00074841
0.000599207
0.000328233
0.00063274
0.000729206
0.000975621
0.001555
0.00214237
0.00276123
0.00333838
0.00387529
0.00433068
0.00520453
0.0055278
0.00528633
0.0053001
0.00603535
0.00593522
0.00582399
0.00597276
0.0052931
0.00514974
0.00530799
0.00517602
0.00442718
0.00391365
0.00337113
0.00282862
0.00228433
0.001622
0.000994801
0.000725804
0.000628425
0.00077083
0.000805789
0.00107644
0.00166644
0.00201871
0.00265284
0.00338204
0.00429951
0.00465833
0.00515773
0.00481118
0.00479487
0.00470721
0.00499702
0.00498647
0.004909
0.00501877
0.00483761
0.00476612
0.00480039
0.00536377
0.00497503
0.00449828
0.00344056
0.00267037
0.00210219
0.001734
0.00108506
0.000785645
0.00077252
0.000668318
0.000800533
0.00108349
0.00176778
0.00205652
0.00211947
0.00249526
0.00300956
0.00322673
0.00356188
0.00346795
0.00368814
0.00364363
0.00383522
0.00424545
0.0042892
0.0038851
0.00365994
0.00376226
0.00351168
0.00365655
0.00336459
0.00317056
0.00260097
0.00221901
0.00212032
0.00181831
0.00109582
0.000806988
0.000692525
0.000447126
0.000574411
0.000893779
0.00133428
0.00134674
0.00126566
0.00152957
0.00175754
0.0018854
0.00220546
0.0023133
0.00260153
0.00271898
0.00287071
0.00330387
0.00330311
0.00287335
0.00276459
0.0026581
0.00233279
0.00228604
0.00195781
0.00188119
0.00160458
0.00131256
0.00136381
0.00135507
0.000910892
0.000584855
0.000459515
0.000302493
0.000359467
0.000499534
0.000744907
0.000642253
0.000630881
0.000838947
0.00101692
0.00120653
0.00142473
0.00143545
0.00151282
0.00152317
0.00166724
0.00180631
0.00180235
0.00168803
0.00153773
0.00150365
0.00141525
0.00146429
0.00123941
0.00104841
0.000865195
0.000648963
0.00064964
0.000750167
0.00050451
0.000366429
0.000304486
0.000212184
0.000238683
0.000275007
0.000367391
0.000317377
0.000283928
0.000363674
0.000499125
0.000701541
0.000959171
0.00112183
0.00119888
0.00120662
0.00124996
0.00125114
0.00124441
0.00126011
0.00120946
0.00118655
0.00109998
0.000960364
0.000708385
0.000507663
0.000371485
0.000289668
0.000322345
0.000374548
0.000277555
0.000241923
0.00021432
0.000155509
0.000163943
0.000170888
0.000192677
0.000181223
0.000166165
0.000178063
0.00021847
0.000311712
0.00049265
0.000715493
0.00094235
0.00110056
0.00118549
0.00118268
0.00117747
0.0011909
0.00110444
0.000936855
0.000707485
0.000492093
0.000312724
0.000220666
0.000180588
0.000168652
0.000184333
0.00019621
0.000172246
0.000165657
0.000156548
0.000120408
0.000119496
0.000119652
0.000122252
0.000120013
0.000117202
0.000119551
0.000127911
0.000151381
0.00021506
0.000344364
0.00054379
0.000777802
0.000982141
0.0010636
0.00105941
0.000984816
0.000781107
0.000542633
0.000342083
0.000215507
0.000152115
0.000128916
0.000120295
0.00011824
0.000121729
0.000123821
0.000120464
0.00012049
0.000120946
9.65157e-05
9.34385e-05
9.21648e-05
9.18724e-05
9.15296e-05
9.14321e-05
9.26629e-05
9.55789e-05
0.000101601
0.000116723
0.000155265
0.000241549
0.000385259
0.000559376
0.000689663
0.000687543
0.000560377
0.000386903
0.000241523
0.000155045
0.000117383
0.000102083
9.6049e-05
9.30146e-05
9.1809e-05
9.21036e-05
9.25292e-05
9.28757e-05
9.41456e-05
9.70373e-05
7.97817e-05
7.65816e-05
7.55078e-05
7.54264e-05
7.54854e-05
7.59808e-05
7.71396e-05
7.86514e-05
8.07688e-05
8.44603e-05
9.27701e-05
0.000113043
0.000155742
0.000222432
0.00029152
0.000290881
0.000222322
0.000156083
0.000113102
9.30415e-05
8.48254e-05
8.10352e-05
7.89589e-05
7.74298e-05
7.63572e-05
7.58722e-05
7.56263e-05
7.60136e-05
7.71675e-05
8.02397e-05
6.76283e-05
6.42924e-05
6.35547e-05
6.36095e-05
6.40024e-05
6.47241e-05
6.58153e-05
6.67813e-05
6.78134e-05
6.88842e-05
7.04738e-05
7.38361e-05
8.11827e-05
9.44452e-05
0.000110219
0.000110224
9.4593e-05
8.13956e-05
7.39302e-05
7.07263e-05
6.91343e-05
6.79856e-05
6.70044e-05
6.5994e-05
6.50613e-05
6.43021e-05
6.38584e-05
6.38826e-05
6.48826e-05
6.82887e-05
5.86742e-05
5.48875e-05
5.42741e-05
5.44446e-05
5.48997e-05
5.56185e-05
5.64125e-05
5.69564e-05
5.74485e-05
5.7709e-05
5.77885e-05
5.7938e-05
5.85104e-05
5.98918e-05
6.18264e-05
6.18113e-05
6.00221e-05
5.87095e-05
5.81477e-05
5.79939e-05
5.7837e-05
5.75778e-05
5.71893e-05
5.65115e-05
5.57565e-05
5.5075e-05
5.472e-05
5.45946e-05
5.54546e-05
5.91591e-05
5.12294e-05
4.7393e-05
4.67777e-05
4.69723e-05
4.7431e-05
4.79793e-05
4.83801e-05
4.86176e-05
4.86935e-05
4.84837e-05
4.80696e-05
4.76008e-05
4.71223e-05
4.67399e-05
4.65806e-05
4.65682e-05
4.68404e-05
4.72566e-05
4.77681e-05
4.82405e-05
4.8604e-05
4.88133e-05
4.8757e-05
4.84374e-05
4.80114e-05
4.75947e-05
4.73076e-05
4.71052e-05
4.78185e-05
5.14923e-05
4.47353e-05
4.1165e-05
4.06018e-05
4.08124e-05
4.11803e-05
4.14768e-05
4.15783e-05
4.15239e-05
4.12403e-05
4.07522e-05
4.01603e-05
3.95008e-05
3.87701e-05
3.81149e-05
3.7723e-05
3.77801e-05
3.82797e-05
3.89144e-05
3.96069e-05
4.03009e-05
4.0938e-05
4.14308e-05
4.16356e-05
4.16229e-05
4.14827e-05
4.12774e-05
4.10443e-05
4.0863e-05
4.14908e-05
4.49017e-05
3.90332e-05
3.59232e-05
3.54863e-05
3.56418e-05
3.58141e-05
3.5872e-05
3.57701e-05
3.5492e-05
3.50423e-05
3.44652e-05
3.37732e-05
3.29895e-05
3.21721e-05
3.15038e-05
3.11335e-05
3.12078e-05
3.16618e-05
3.23093e-05
3.30916e-05
3.39198e-05
3.46848e-05
3.52799e-05
3.56382e-05
3.58185e-05
3.58663e-05
3.58049e-05
3.56571e-05
3.55773e-05
3.61695e-05
3.91844e-05
3.4112e-05
3.15588e-05
3.11418e-05
3.11581e-05
3.11517e-05
3.10768e-05
3.08612e-05
3.04831e-05
2.99816e-05
2.93432e-05
2.85944e-05
2.77952e-05
2.7019e-05
2.63947e-05
2.60315e-05
2.60651e-05
2.64604e-05
2.70914e-05
2.78828e-05
2.8724e-05
2.95078e-05
3.01449e-05
3.05952e-05
3.08923e-05
3.10542e-05
3.11055e-05
3.10775e-05
3.11078e-05
3.16657e-05
3.42857e-05
2.99979e-05
2.77689e-05
2.73417e-05
2.72746e-05
2.7216e-05
2.70756e-05
2.67719e-05
2.63535e-05
2.58341e-05
2.51815e-05
2.44406e-05
2.36779e-05
2.29555e-05
2.23626e-05
2.19957e-05
2.19933e-05
2.23451e-05
2.29438e-05
2.37035e-05
2.45081e-05
2.52684e-05
2.59132e-05
2.64077e-05
2.67654e-05
2.70157e-05
2.71665e-05
2.7242e-05
2.73391e-05
2.7838e-05
3.00921e-05
2.63349e-05
2.44677e-05
2.41138e-05
2.40118e-05
2.38872e-05
2.36611e-05
2.33251e-05
2.29261e-05
2.2427e-05
2.18086e-05
2.11173e-05
2.04044e-05
1.973e-05
1.9173e-05
1.88257e-05
1.88102e-05
1.91254e-05
1.96755e-05
2.03694e-05
2.11043e-05
2.18115e-05
2.2441e-05
2.29588e-05
2.33558e-05
2.36539e-05
2.38666e-05
2.40106e-05
2.41456e-05
2.45864e-05
2.64856e-05
2.32508e-05
2.18113e-05
2.14554e-05
2.12842e-05
2.10766e-05
2.08113e-05
2.04921e-05
2.01087e-05
1.96269e-05
1.90551e-05
1.84232e-05
1.7767e-05
1.71433e-05
1.66234e-05
1.62974e-05
1.62757e-05
1.6562e-05
1.70693e-05
1.77069e-05
1.83867e-05
1.90472e-05
1.96441e-05
2.01459e-05
2.05443e-05
2.08623e-05
2.11131e-05
2.13009e-05
2.14615e-05
2.18519e-05
2.34156e-05
2.07582e-05
1.95924e-05
1.9205e-05
1.89914e-05
1.87787e-05
1.85386e-05
1.82353e-05
1.78547e-05
1.73986e-05
1.68749e-05
1.63009e-05
1.57022e-05
1.5133e-05
1.46592e-05
1.43664e-05
1.43561e-05
1.46257e-05
1.50925e-05
1.56712e-05
1.62822e-05
1.68708e-05
1.74091e-05
1.78791e-05
1.82723e-05
1.85951e-05
1.88533e-05
1.90513e-05
1.92147e-05
1.95473e-05
2.08088e-05
1.86287e-05
1.76153e-05
1.72846e-05
1.71097e-05
1.69485e-05
1.67322e-05
1.64309e-05
1.60693e-05
1.56543e-05
1.5173e-05
1.46436e-05
1.40972e-05
1.3586e-05
1.31688e-05
1.29177e-05
1.29205e-05
1.31687e-05
1.3586e-05
1.40979e-05
1.46367e-05
1.51579e-05
1.56428e-05
1.60762e-05
1.64486e-05
1.67535e-05
1.69949e-05
1.71785e-05
1.7325e-05
1.75958e-05
1.8603e-05
1.67986e-05
1.59476e-05
1.57118e-05
1.55955e-05
1.54538e-05
1.52384e-05
1.49611e-05
1.46445e-05
1.42708e-05
1.38296e-05
1.33443e-05
1.28516e-05
1.23981e-05
1.20326e-05
1.1815e-05
1.18232e-05
1.20495e-05
1.24209e-05
1.28704e-05
1.3342e-05
1.38035e-05
1.42379e-05
1.46301e-05
1.49673e-05
1.52409e-05
1.54532e-05
1.56119e-05
1.57365e-05
1.59559e-05
1.67606e-05
1.52307e-05
1.45855e-05
1.44151e-05
1.43189e-05
1.41791e-05
1.39863e-05
1.37567e-05
1.3481e-05
1.31409e-05
1.27465e-05
1.23202e-05
1.18931e-05
1.15002e-05
1.11782e-05
1.09817e-05
1.0989e-05
1.11921e-05
1.15199e-05
1.19114e-05
1.23217e-05
1.27267e-05
1.31094e-05
1.3455e-05
1.3749e-05
1.39857e-05
1.41687e-05
1.43065e-05
1.44163e-05
1.45971e-05
1.52356e-05
1.39475e-05
1.34735e-05
1.33307e-05
1.3237e-05
1.31192e-05
1.29658e-05
1.27701e-05
1.25167e-05
1.22137e-05
1.18757e-05
1.15165e-05
1.11566e-05
1.08166e-05
1.05269e-05
1.03477e-05
1.03536e-05
1.05365e-05
1.0826e-05
1.11645e-05
1.1516e-05
1.18624e-05
1.21898e-05
1.24854e-05
1.27382e-05
1.29439e-05
1.31053e-05
1.32281e-05
1.33251e-05
1.34722e-05
1.39696e-05
1.29325e-05
1.25446e-05
1.2422e-05
1.23503e-05
1.22576e-05
1.21245e-05
1.1943e-05
1.1716e-05
1.14607e-05
1.11813e-05
1.08857e-05
1.05843e-05
1.02886e-05
1.00308e-05
9.87411e-06
9.88118e-06
1.00409e-05
1.02884e-05
1.0574e-05
1.08705e-05
1.11637e-05
1.14427e-05
1.16951e-05
1.19123e-05
1.20918e-05
1.22337e-05
1.2341e-05
1.24235e-05
1.25389e-05
1.29154e-05
1.2068e-05
1.17567e-05
1.16782e-05
1.16248e-05
1.1534e-05
1.14088e-05
1.1248e-05
1.1061e-05
1.08533e-05
1.06245e-05
1.03814e-05
1.01275e-05
9.87373e-06
9.65459e-06
9.52352e-06
9.52697e-06
9.65585e-06
9.85954e-06
1.00998e-05
1.03547e-05
1.06086e-05
1.08485e-05
1.10636e-05
1.12482e-05
1.14002e-05
1.15193e-05
1.16081e-05
1.16751e-05
1.17641e-05
1.20422e-05
1.13257e-05
1.11305e-05
1.10861e-05
1.10241e-05
1.09345e-05
1.08272e-05
1.06976e-05
1.05475e-05
1.03736e-05
1.01815e-05
9.97679e-06
9.76069e-06
9.54656e-06
9.36583e-06
9.25624e-06
9.25151e-06
9.35126e-06
9.52019e-06
9.72774e-06
9.95178e-06
1.01741e-05
1.03798e-05
1.05608e-05
1.07129e-05
1.08355e-05
1.093e-05
1.09997e-05
1.10524e-05
1.11206e-05
1.1329e-05
1.07703e-05
1.06687e-05
1.06073e-05
1.05344e-05
1.04601e-05
1.03756e-05
1.02728e-05
1.01474e-05
1.00006e-05
9.84032e-06
9.66827e-06
9.48612e-06
9.30845e-06
9.15994e-06
9.06482e-06
9.05228e-06
9.12954e-06
9.27182e-06
9.45152e-06
9.64456e-06
9.83248e-06
1.0003e-05
1.01498e-05
1.02716e-05
1.0369e-05
1.04444e-05
1.05014e-05
1.05453e-05
1.05986e-05
1.07514e-05
1.03535e-05
1.02605e-05
1.01829e-05
1.01298e-05
1.00787e-05
1.00138e-05
9.93165e-06
9.82875e-06
9.71043e-06
9.58109e-06
9.43883e-06
9.28778e-06
9.14274e-06
9.01977e-06
8.93525e-06
8.91974e-06
8.98232e-06
9.10078e-06
9.24863e-06
9.4044e-06
9.55406e-06
9.69019e-06
9.80917e-06
9.91011e-06
9.99289e-06
1.00582e-05
1.01078e-05
1.01446e-05
1.01829e-05
1.02863e-05
9.9746e-06
9.87484e-06
9.83534e-06
9.81333e-06
9.77827e-06
9.72606e-06
9.65711e-06
9.5731e-06
9.47894e-06
9.37266e-06
9.25231e-06
9.12637e-06
9.00748e-06
8.90483e-06
8.83438e-06
8.82396e-06
8.8785e-06
8.97474e-06
9.09056e-06
9.21079e-06
9.3279e-06
9.43936e-06
9.54234e-06
9.6321e-06
9.70551e-06
9.76211e-06
9.80322e-06
9.83049e-06
9.85264e-06
9.91465e-06
9.62823e-06
9.58444e-06
9.59099e-06
9.57955e-06
9.54725e-06
9.49869e-06
9.43704e-06
9.36795e-06
9.29086e-06
9.19884e-06
9.0945e-06
8.98979e-06
8.8926e-06
8.80906e-06
8.75327e-06
8.74913e-06
8.79857e-06
8.87761e-06
8.96871e-06
9.06359e-06
9.15948e-06
9.25454e-06
9.3434e-06
9.41983e-06
9.48052e-06
9.52496e-06
9.55406e-06
9.56925e-06
9.57627e-06
9.60555e-06
9.37858e-06
9.40149e-06