/*--------------------------------*- C++ -*----------------------------------*\
| =========                 |                                                 |
| \\      /  F ield         | OpenFOAM: The Open Source CFD Toolbox           |
|  \\    /   O peration     | Version:  2312                                  |
|   \\  /    A nd           | Website:  www.openfoam.com                      |
|    \\/     M anipulation  |                                                 |
\*---------------------------------------------------------------------------*/
FoamFile
{
    version     2.0;
    format      ascii;
    arch        "LSB;label=32;scalar=64";
    class       volScalarField;
    location    "1.30953105";
    object      k;
}
// * * * * * * * * * * * * * * * * * * * * * * * * * * * * * * * * * * * * * //

dimensions      [0 2 -2 0 0 0 0];

internalField   nonuniform List<scalar> 
90000
(
2.15037e-05
2.15084e-05
2.15093e-05
2.15097e-05
2.151e-05
2.151e-05
2.151e-05
2.15099e-05
2.15096e-05
2.15092e-05
2.15085e-05
2.15078e-05
2.15072e-05
2.15073e-05
2.15076e-05
2.15079e-05
2.15082e-05
2.15089e-05
2.15099e-05
2.15101e-05
2.15091e-05
2.15077e-05
2.15093e-05
2.15131e-05
2.15165e-05
2.15178e-05
2.15164e-05
2.15144e-05
2.152e-05
2.15313e-05
2.15108e-05
2.16109e-05
2.16202e-05
2.16203e-05
2.16199e-05
2.16197e-05
2.16197e-05
2.16198e-05
2.16198e-05
2.16196e-05
2.16197e-05
2.16201e-05
2.16205e-05
2.16208e-05
2.16208e-05
2.16207e-05
2.16204e-05
2.16201e-05
2.16198e-05
2.16195e-05
2.162e-05
2.16212e-05
2.16222e-05
2.16224e-05
2.16215e-05
2.16204e-05
2.16222e-05
2.16282e-05
2.16239e-05
2.15506e-05
2.15112e-05
2.16208e-05
2.16314e-05
2.16317e-05
2.16315e-05
2.16315e-05
2.16316e-05
2.16317e-05
2.16315e-05
2.1631e-05
2.1631e-05
2.16318e-05
2.16331e-05
2.1634e-05
2.1634e-05
2.16332e-05
2.16316e-05
2.16302e-05
2.16314e-05
2.16333e-05
2.16345e-05
2.16347e-05
2.16342e-05
2.16337e-05
2.16344e-05
2.16362e-05
2.16376e-05
2.16428e-05
2.16493e-05
2.15441e-05
2.15103e-05
2.1621e-05
2.16323e-05
2.1633e-05
2.16331e-05
2.16332e-05
2.16334e-05
2.16335e-05
2.16333e-05
2.16328e-05
2.16323e-05
2.16327e-05
2.16334e-05
2.16341e-05
2.16341e-05
2.16332e-05
2.16321e-05
2.16326e-05
2.16345e-05
2.16358e-05
2.16358e-05
2.16349e-05
2.16353e-05
2.1638e-05
2.16405e-05
2.16424e-05
2.16451e-05
2.16452e-05
2.16469e-05
2.15283e-05
2.15093e-05
2.16209e-05
2.16324e-05
2.16332e-05
2.16334e-05
2.16334e-05
2.16334e-05
2.16334e-05
2.16335e-05
2.16335e-05
2.16333e-05
2.16329e-05
2.16325e-05
2.16319e-05
2.16318e-05
2.1633e-05
2.16344e-05
2.16355e-05
2.16358e-05
2.16352e-05
2.16341e-05
2.16345e-05
2.1637e-05
2.16398e-05
2.16415e-05
2.16415e-05
2.16406e-05
2.16413e-05
2.1633e-05
2.15199e-05
2.15092e-05
2.16211e-05
2.16323e-05
2.16331e-05
2.16332e-05
2.16331e-05
2.16328e-05
2.16328e-05
2.16331e-05
2.16335e-05
2.1634e-05
2.16344e-05
2.16347e-05
2.16343e-05
2.16339e-05
2.16343e-05
2.16352e-05
2.16356e-05
2.16351e-05
2.16344e-05
2.16343e-05
2.16353e-05
2.16368e-05
2.16379e-05
2.16383e-05
2.1638e-05
2.16364e-05
2.16421e-05
2.16315e-05
2.15191e-05
2.151e-05
2.16216e-05
2.16327e-05
2.16338e-05
2.16344e-05
2.16347e-05
2.16346e-05
2.16339e-05
2.16332e-05
2.16333e-05
2.16343e-05
2.16357e-05
2.16369e-05
2.16373e-05
2.16364e-05
2.16347e-05
2.16333e-05
2.16331e-05
2.16338e-05
2.16347e-05
2.16354e-05
2.16357e-05
2.16352e-05
2.1634e-05
2.16336e-05
2.16366e-05
2.16407e-05
2.16462e-05
2.16355e-05
2.1518e-05
2.15105e-05
2.16234e-05
2.16344e-05
2.16358e-05
2.16368e-05
2.16376e-05
2.16378e-05
2.16372e-05
2.16355e-05
2.16335e-05
2.1634e-05
2.16356e-05
2.16371e-05
2.16377e-05
2.16367e-05
2.16344e-05
2.16315e-05
2.16307e-05
2.16329e-05
2.16346e-05
2.16354e-05
2.16351e-05
2.16337e-05
2.16326e-05
2.16344e-05
2.16388e-05
2.1643e-05
2.16453e-05
2.1633e-05
2.15156e-05
2.15114e-05
2.16262e-05
2.16367e-05
2.16379e-05
2.1639e-05
2.16398e-05
2.16401e-05
2.16397e-05
2.16385e-05
2.16367e-05
2.16351e-05
2.1635e-05
2.16353e-05
2.16357e-05
2.16357e-05
2.16352e-05
2.16344e-05
2.16339e-05
2.16342e-05
2.16349e-05
2.16351e-05
2.16344e-05
2.16332e-05
2.16332e-05
2.16361e-05
2.16397e-05
2.16422e-05
2.16417e-05
2.16288e-05
2.15134e-05
2.15152e-05
2.16277e-05
2.16375e-05
2.16383e-05
2.16389e-05
2.16393e-05
2.16396e-05
2.16399e-05
2.16398e-05
2.16393e-05
2.1638e-05
2.16357e-05
2.16335e-05
2.1633e-05
2.16346e-05
2.16368e-05
2.16384e-05
2.16392e-05
2.16392e-05
2.16386e-05
2.16375e-05
2.16359e-05
2.16343e-05
2.16338e-05
2.1636e-05
2.16381e-05
2.16388e-05
2.16373e-05
2.16255e-05
2.15124e-05
2.15184e-05
2.16278e-05
2.16368e-05
2.16372e-05
2.16368e-05
2.16361e-05
2.16359e-05
2.16367e-05
2.16382e-05
2.16392e-05
2.1639e-05
2.16373e-05
2.16346e-05
2.16328e-05
2.1634e-05
2.16373e-05
2.16405e-05
2.16428e-05
2.16441e-05
2.16437e-05
2.1642e-05
2.16394e-05
2.16366e-05
2.16348e-05
2.16354e-05
2.16363e-05
2.16369e-05
2.16363e-05
2.16252e-05
2.15135e-05
2.15182e-05
2.16297e-05
2.16383e-05
2.1638e-05
2.16369e-05
2.16356e-05
2.16346e-05
2.1635e-05
2.1636e-05
2.16371e-05
2.16376e-05
2.16374e-05
2.16361e-05
2.16337e-05
2.16326e-05
2.16363e-05
2.1641e-05
2.16446e-05
2.16463e-05
2.16459e-05
2.16439e-05
2.16408e-05
2.16374e-05
2.16347e-05
2.16347e-05
2.16362e-05
2.16373e-05
2.16371e-05
2.16274e-05
2.1515e-05
2.15167e-05
2.1632e-05
2.16409e-05
2.16414e-05
2.16425e-05
2.16435e-05
2.16441e-05
2.16436e-05
2.16415e-05
2.16385e-05
2.16372e-05
2.16382e-05
2.16388e-05
2.16384e-05
2.16379e-05
2.16389e-05
2.16409e-05
2.16425e-05
2.1643e-05
2.16424e-05
2.16411e-05
2.16393e-05
2.1637e-05
2.1635e-05
2.16354e-05
2.16367e-05
2.16376e-05
2.1638e-05
2.16284e-05
2.15158e-05
2.1523e-05
2.16314e-05
2.16427e-05
2.16455e-05
2.16494e-05
2.16524e-05
2.16532e-05
2.16513e-05
2.16468e-05
2.16414e-05
2.16376e-05
2.16386e-05
2.16413e-05
2.16436e-05
2.16446e-05
2.16444e-05
2.16425e-05
2.16391e-05
2.16363e-05
2.16358e-05
2.16368e-05
2.16375e-05
2.16373e-05
2.16367e-05
2.16366e-05
2.16371e-05
2.1638e-05
2.16386e-05
2.16284e-05
2.1517e-05
2.153e-05
2.16278e-05
2.1646e-05
2.16514e-05
2.16554e-05
2.16568e-05
2.16553e-05
2.16512e-05
2.16457e-05
2.16403e-05
2.16364e-05
2.16376e-05
2.16417e-05
2.16456e-05
2.16475e-05
2.16469e-05
2.16439e-05
2.16392e-05
2.16347e-05
2.16328e-05
2.16347e-05
2.16372e-05
2.16385e-05
2.16386e-05
2.16379e-05
2.16382e-05
2.16401e-05
2.16412e-05
2.16319e-05
2.15211e-05
2.15315e-05
2.16386e-05
2.16528e-05
2.16556e-05
2.16559e-05
2.16535e-05
2.16492e-05
2.16446e-05
2.16409e-05
2.16379e-05
2.16354e-05
2.16366e-05
2.16409e-05
2.16449e-05
2.16469e-05
2.16465e-05
2.16445e-05
2.16414e-05
2.1638e-05
2.16354e-05
2.16354e-05
2.16374e-05
2.16391e-05
2.16396e-05
2.16397e-05
2.16411e-05
2.16433e-05
2.16454e-05
2.16381e-05
2.15248e-05
2.15273e-05
2.16502e-05
2.16578e-05
2.16562e-05
2.16519e-05
2.16462e-05
2.1641e-05
2.16394e-05
2.16396e-05
2.16385e-05
2.16371e-05
2.16381e-05
2.16409e-05
2.16436e-05
2.1645e-05
2.16453e-05
2.16445e-05
2.16427e-05
2.16403e-05
2.16381e-05
2.16373e-05
2.16378e-05
2.1639e-05
2.16401e-05
2.16413e-05
2.16434e-05
2.16458e-05
2.1648e-05
2.16388e-05
2.1524e-05
2.15251e-05
2.16557e-05
2.16603e-05
2.16564e-05
2.1651e-05
2.16456e-05
2.16423e-05
2.16409e-05
2.16404e-05
2.16393e-05
2.16393e-05
2.16396e-05
2.16403e-05
2.16411e-05
2.1642e-05
2.16428e-05
2.16432e-05
2.16428e-05
2.16418e-05
2.16404e-05
2.16392e-05
2.16393e-05
2.16404e-05
2.16415e-05
2.16435e-05
2.16458e-05
2.16475e-05
2.16477e-05
2.1636e-05
2.15227e-05
2.15313e-05
2.16571e-05
2.16623e-05
2.16585e-05
2.16541e-05
2.16504e-05
2.16477e-05
2.16452e-05
2.16425e-05
2.16405e-05
2.16396e-05
2.16386e-05
2.16381e-05
2.16379e-05
2.16382e-05
2.16393e-05
2.16407e-05
2.16418e-05
2.1642e-05
2.16413e-05
2.16403e-05
2.16407e-05
2.16419e-05
2.16448e-05
2.16481e-05
2.16496e-05
2.16496e-05
2.16481e-05
2.16365e-05
2.15242e-05
2.15379e-05
2.16571e-05
2.16637e-05
2.16605e-05
2.1657e-05
2.16543e-05
2.16522e-05
2.16497e-05
2.16468e-05
2.16441e-05
2.16416e-05
2.16391e-05
2.16369e-05
2.16352e-05
2.1635e-05
2.16367e-05
2.16391e-05
2.16407e-05
2.16414e-05
2.16414e-05
2.16417e-05
2.16438e-05
2.16482e-05
2.16522e-05
2.16537e-05
2.16532e-05
2.16525e-05
2.16518e-05
2.16425e-05
2.15295e-05
2.15435e-05
2.16565e-05
2.16641e-05
2.16619e-05
2.16598e-05
2.16583e-05
2.16567e-05
2.16543e-05
2.16513e-05
2.1648e-05
2.16444e-05
2.16406e-05
2.16373e-05
2.1636e-05
2.1637e-05
2.16388e-05
2.16405e-05
2.16415e-05
2.16426e-05
2.16444e-05
2.16476e-05
2.16522e-05
2.16558e-05
2.16565e-05
2.16551e-05
2.16542e-05
2.16542e-05
2.16548e-05
2.16462e-05
2.15334e-05
2.15478e-05
2.16561e-05
2.16656e-05
2.16647e-05
2.16637e-05
2.16624e-05
2.16604e-05
2.16576e-05
2.16542e-05
2.16504e-05
2.1646e-05
2.16419e-05
2.16403e-05
2.16412e-05
2.16415e-05
2.16412e-05
2.16414e-05
2.16428e-05
2.1646e-05
2.16505e-05
2.16558e-05
2.16593e-05
2.16594e-05
2.16575e-05
2.1657e-05
2.16578e-05
2.16589e-05
2.16594e-05
2.16495e-05
2.1539e-05
2.15508e-05
2.1658e-05
2.16693e-05
2.16695e-05
2.16684e-05
2.16663e-05
2.16634e-05
2.166e-05
2.16564e-05
2.16524e-05
2.16486e-05
2.16457e-05
2.16451e-05
2.16434e-05
2.1641e-05
2.16396e-05
2.16409e-05
2.16448e-05
2.16506e-05
2.16569e-05
2.16613e-05
2.16621e-05
2.16607e-05
2.16607e-05
2.16623e-05
2.16644e-05
2.1666e-05
2.16663e-05
2.16561e-05
2.15462e-05
2.15554e-05
2.16647e-05
2.16762e-05
2.16762e-05
2.16742e-05
2.16712e-05
2.16678e-05
2.16645e-05
2.16609e-05
2.16569e-05
2.16528e-05
2.16499e-05
2.1647e-05
2.16426e-05
2.16389e-05
2.16392e-05
2.16424e-05
2.16482e-05
2.16556e-05
2.16611e-05
2.16632e-05
2.16633e-05
2.16648e-05
2.16675e-05
2.16706e-05
2.16735e-05
2.16751e-05
2.16755e-05
2.16649e-05
2.1556e-05
2.15659e-05
2.16755e-05
2.16861e-05
2.16852e-05
2.16823e-05
2.1679e-05
2.16757e-05
2.16723e-05
2.16682e-05
2.16632e-05
2.16579e-05
2.16533e-05
2.16481e-05
2.16432e-05
2.16412e-05
2.16417e-05
2.16451e-05
2.16521e-05
2.16584e-05
2.16618e-05
2.16641e-05
2.16682e-05
2.16725e-05
2.16764e-05
2.16806e-05
2.16836e-05
2.16856e-05
2.16866e-05
2.16774e-05
2.15694e-05
2.15808e-05
2.16897e-05
2.16991e-05
2.1697e-05
2.16937e-05
2.16902e-05
2.16867e-05
2.16824e-05
2.16771e-05
2.1671e-05
2.16646e-05
2.16581e-05
2.16522e-05
2.16481e-05
2.1645e-05
2.1644e-05
2.16478e-05
2.1654e-05
2.16593e-05
2.16646e-05
2.16713e-05
2.1677e-05
2.16816e-05
2.16865e-05
2.16909e-05
2.16944e-05
2.16974e-05
2.17005e-05
2.1695e-05
2.15819e-05
2.16e-05
2.17067e-05
2.1715e-05
2.17122e-05
2.17086e-05
2.17046e-05
2.16999e-05
2.16942e-05
2.16876e-05
2.16803e-05
2.16727e-05
2.16656e-05
2.166e-05
2.16552e-05
2.16499e-05
2.16479e-05
2.16514e-05
2.16578e-05
2.1666e-05
2.16743e-05
2.16811e-05
2.1687e-05
2.1693e-05
2.16986e-05
2.17036e-05
2.17088e-05
2.17133e-05
2.17176e-05
2.171e-05
2.15971e-05
2.1622e-05
2.17263e-05
2.17344e-05
2.17312e-05
2.17267e-05
2.17215e-05
2.17153e-05
2.17081e-05
2.17003e-05
2.1692e-05
2.16839e-05
2.1677e-05
2.16707e-05
2.16634e-05
2.16561e-05
2.16541e-05
2.1659e-05
2.16676e-05
2.1677e-05
2.16855e-05
2.16931e-05
2.1701e-05
2.17079e-05
2.17145e-05
2.17209e-05
2.1728e-05
2.17338e-05
2.17354e-05
2.17264e-05
2.16188e-05
2.16463e-05
2.17497e-05
2.17572e-05
2.17534e-05
2.17481e-05
2.17417e-05
2.17342e-05
2.17258e-05
2.17168e-05
2.17074e-05
2.16986e-05
2.16905e-05
2.16815e-05
2.16714e-05
2.1663e-05
2.16619e-05
2.16686e-05
2.16786e-05
2.16892e-05
2.16993e-05
2.17087e-05
2.17181e-05
2.17269e-05
2.17353e-05
2.17431e-05
2.17513e-05
2.17574e-05
2.17573e-05
2.17495e-05
2.16464e-05
2.16746e-05
2.17774e-05
2.17846e-05
2.17802e-05
2.1774e-05
2.17666e-05
2.17579e-05
2.17481e-05
2.17376e-05
2.17265e-05
2.17158e-05
2.17048e-05
2.16924e-05
2.168e-05
2.1671e-05
2.16709e-05
2.16791e-05
2.16904e-05
2.17027e-05
2.17153e-05
2.17269e-05
2.17385e-05
2.17501e-05
2.17605e-05
2.17691e-05
2.17776e-05
2.17843e-05
2.17859e-05
2.17814e-05
2.1677e-05
2.17093e-05
2.18114e-05
2.18181e-05
2.1813e-05
2.18057e-05
2.1797e-05
2.17869e-05
2.17755e-05
2.17629e-05
2.17495e-05
2.17359e-05
2.17214e-05
2.17061e-05
2.16918e-05
2.16821e-05
2.16824e-05
2.1692e-05
2.17051e-05
2.17197e-05
2.17351e-05
2.17497e-05
2.17639e-05
2.17777e-05
2.17897e-05
2.17994e-05
2.18077e-05
2.18164e-05
2.18223e-05
2.18168e-05
2.17123e-05
2.17518e-05
2.1853e-05
2.18591e-05
2.1853e-05
2.18445e-05
2.18342e-05
2.18223e-05
2.18089e-05
2.17939e-05
2.17777e-05
2.17605e-05
2.17425e-05
2.17243e-05
2.1708e-05
2.16969e-05
2.16969e-05
2.17081e-05
2.17243e-05
2.17415e-05
2.17597e-05
2.17778e-05
2.17947e-05
2.18096e-05
2.18237e-05
2.18351e-05
2.18446e-05
2.18559e-05
2.18643e-05
2.18572e-05
2.17556e-05
2.18037e-05
2.19037e-05
2.19089e-05
2.19019e-05
2.18917e-05
2.18795e-05
2.18653e-05
2.18493e-05
2.18315e-05
2.18118e-05
2.17907e-05
2.1769e-05
2.17478e-05
2.17292e-05
2.17163e-05
2.17161e-05
2.17289e-05
2.17486e-05
2.1769e-05
2.17899e-05
2.18115e-05
2.18306e-05
2.18474e-05
2.18644e-05
2.18788e-05
2.18903e-05
2.19038e-05
2.19125e-05
2.19063e-05
2.18078e-05
2.18671e-05
2.19653e-05
2.19696e-05
2.19612e-05
2.1949e-05
2.19341e-05
2.19169e-05
2.18977e-05
2.18764e-05
2.1853e-05
2.18283e-05
2.18032e-05
2.17787e-05
2.17569e-05
2.17419e-05
2.17421e-05
2.17562e-05
2.1779e-05
2.18032e-05
2.18272e-05
2.18516e-05
2.18747e-05
2.18949e-05
2.19148e-05
2.19323e-05
2.19469e-05
2.19613e-05
2.19705e-05
2.19659e-05
2.18698e-05
2.1944e-05
2.20397e-05
2.20426e-05
2.20322e-05
2.20174e-05
2.19996e-05
2.19792e-05
2.19565e-05
2.19316e-05
2.19045e-05
2.1876e-05
2.18469e-05
2.1818e-05
2.17922e-05
2.17748e-05
2.17762e-05
2.17922e-05
2.18178e-05
2.18463e-05
2.18744e-05
2.19027e-05
2.1931e-05
2.19545e-05
2.19771e-05
2.19985e-05
2.20166e-05
2.2031e-05
2.20412e-05
2.20378e-05
2.19444e-05
2.20367e-05
2.21287e-05
2.21297e-05
2.2117e-05
2.20999e-05
2.20794e-05
2.20559e-05
2.20295e-05
2.20006e-05
2.19692e-05
2.19359e-05
2.19017e-05
2.18678e-05
2.18385e-05
2.18186e-05
2.18212e-05
2.18402e-05
2.18689e-05
2.19022e-05
2.19358e-05
2.19685e-05
2.20017e-05
2.2029e-05
2.20549e-05
2.20808e-05
2.21006e-05
2.21158e-05
2.2127e-05
2.21251e-05
2.20358e-05
2.2148e-05
2.22354e-05
2.22346e-05
2.22202e-05
2.2201e-05
2.21778e-05
2.21508e-05
2.21202e-05
2.20866e-05
2.20503e-05
2.20116e-05
2.19723e-05
2.19337e-05
2.19017e-05
2.18791e-05
2.1881e-05
2.19031e-05
2.19357e-05
2.1974e-05
2.20144e-05
2.20515e-05
2.20889e-05
2.21207e-05
2.21513e-05
2.21802e-05
2.2202e-05
2.22192e-05
2.22325e-05
2.22334e-05
2.21482e-05
2.2282e-05
2.23644e-05
2.23624e-05
2.23463e-05
2.23245e-05
2.22977e-05
2.22666e-05
2.22314e-05
2.2193e-05
2.21515e-05
2.21074e-05
2.20634e-05
2.20199e-05
2.19843e-05
2.19585e-05
2.19582e-05
2.19829e-05
2.20214e-05
2.20652e-05
2.21115e-05
2.21531e-05
2.21951e-05
2.22327e-05
2.2268e-05
2.22998e-05
2.23245e-05
2.23457e-05
2.23624e-05
2.23655e-05
2.22847e-05
2.24431e-05
2.25214e-05
2.25174e-05
2.24986e-05
2.24732e-05
2.24424e-05
2.24068e-05
2.23669e-05
2.23233e-05
2.22765e-05
2.22267e-05
2.21775e-05
2.21281e-05
2.20867e-05
2.20585e-05
2.20568e-05
2.20846e-05
2.21295e-05
2.21791e-05
2.22298e-05
2.22767e-05
2.23242e-05
2.23682e-05
2.24076e-05
2.24431e-05
2.24729e-05
2.24982e-05
2.25178e-05
2.25231e-05
2.24465e-05
2.26373e-05
2.27107e-05
2.27036e-05
2.26817e-05
2.2653e-05
2.26183e-05
2.25781e-05
2.25329e-05
2.24836e-05
2.24309e-05
2.23752e-05
2.23195e-05
2.22656e-05
2.22168e-05
2.21856e-05
2.21845e-05
2.22161e-05
2.22656e-05
2.23215e-05
2.23761e-05
2.24299e-05
2.24835e-05
2.25335e-05
2.25774e-05
2.26178e-05
2.26531e-05
2.26815e-05
2.27038e-05
2.27124e-05
2.26386e-05
2.28705e-05
2.29387e-05
2.29288e-05
2.29046e-05
2.28725e-05
2.28331e-05
2.27875e-05
2.27373e-05
2.26826e-05
2.26244e-05
2.25634e-05
2.25001e-05
2.24432e-05
2.23868e-05
2.2351e-05
2.23505e-05
2.23872e-05
2.24405e-05
2.25026e-05
2.25624e-05
2.26238e-05
2.26827e-05
2.27377e-05
2.27874e-05
2.28322e-05
2.28722e-05
2.29045e-05
2.29296e-05
2.29413e-05
2.28695e-05
2.31519e-05
2.32177e-05
2.32043e-05
2.31761e-05
2.31389e-05
2.30941e-05
2.30437e-05
2.29888e-05
2.29291e-05
2.28651e-05
2.27999e-05
2.27296e-05
2.26691e-05
2.26069e-05
2.25654e-05
2.25668e-05
2.26091e-05
2.26661e-05
2.27334e-05
2.27993e-05
2.28665e-05
2.29295e-05
2.29885e-05
2.30451e-05
2.30943e-05
2.31381e-05
2.3176e-05
2.32052e-05
2.32203e-05
2.31501e-05
2.34959e-05
2.35616e-05
2.35405e-05
2.35063e-05
2.34639e-05
2.34139e-05
2.33585e-05
2.32983e-05
2.32335e-05
2.31645e-05
2.30966e-05
2.30231e-05
2.29571e-05
2.28914e-05
2.28461e-05
2.28488e-05
2.28944e-05
2.29561e-05
2.30259e-05
2.30961e-05
2.31667e-05
2.32344e-05
2.32983e-05
2.33591e-05
2.34149e-05
2.34641e-05
2.3507e-05
2.35434e-05
2.35635e-05
2.34898e-05
2.3921e-05
2.39915e-05
2.39593e-05
2.39185e-05
2.38689e-05
2.38124e-05
2.37516e-05
2.36851e-05
2.36156e-05
2.35465e-05
2.34777e-05
2.34071e-05
2.33425e-05
2.328e-05
2.32378e-05
2.32432e-05
2.32827e-05
2.33425e-05
2.34091e-05
2.34776e-05
2.35475e-05
2.36168e-05
2.36859e-05
2.37486e-05
2.38111e-05
2.38706e-05
2.39198e-05
2.3962e-05
2.3992e-05
2.39098e-05
2.44657e-05
2.45674e-05
2.45163e-05
2.44673e-05
2.44029e-05
2.43337e-05
2.42653e-05
2.4194e-05
2.41287e-05
2.40753e-05
2.40346e-05
2.40201e-05
2.40374e-05
2.40551e-05
2.40845e-05
2.41053e-05
2.40631e-05
2.40355e-05
2.40257e-05
2.40389e-05
2.40762e-05
2.41294e-05
2.41966e-05
2.42638e-05
2.43286e-05
2.44046e-05
2.44717e-05
2.45164e-05
2.45665e-05
2.44521e-05
2.53066e-05
2.55691e-05
2.54614e-05
2.54741e-05
2.53214e-05
2.51954e-05
2.51545e-05
2.5089e-05
2.50737e-05
2.51873e-05
2.54651e-05
2.60272e-05
2.68829e-05
2.77366e-05
2.84867e-05
2.85994e-05
2.7773e-05
2.6889e-05
2.60718e-05
2.54738e-05
2.51946e-05
2.50792e-05
2.5085e-05
2.5158e-05
2.51952e-05
2.53182e-05
2.54835e-05
2.54679e-05
2.55779e-05
2.52828e-05
2.74702e-05
2.857e-05
2.82411e-05
2.91609e-05
2.81532e-05
2.7789e-05
2.83005e-05
2.81721e-05
2.85527e-05
3.01579e-05
3.29174e-05
3.78318e-05
4.52096e-05
5.21996e-05
5.69914e-05
5.75508e-05
5.2408e-05
4.53512e-05
3.81847e-05
3.2968e-05
3.02043e-05
2.85799e-05
2.81704e-05
2.83221e-05
2.77893e-05
2.81435e-05
2.92063e-05
2.82586e-05
2.86319e-05
2.74102e-05
3.56706e-05
4.07534e-05
3.95779e-05
4.74119e-05
4.12725e-05
4.09128e-05
4.64474e-05
4.57546e-05
4.88675e-05
5.92667e-05
7.79596e-05
0.000104739
0.000140475
0.000173277
0.000194121
0.000194263
0.000173758
0.000141381
0.000105811
7.81551e-05
5.94971e-05
4.89641e-05
4.58044e-05
4.6591e-05
4.09591e-05
4.12722e-05
4.77185e-05
3.96383e-05
4.1075e-05
3.54835e-05
6.39518e-05
8.2589e-05
8.39896e-05
0.000116587
0.000103486
0.000111656
0.000139106
0.000144333
0.000169951
0.000227757
0.00030233
0.000377463
0.000475623
0.000547336
0.000586732
0.00058554
0.000547111
0.000477826
0.000379423
0.000302053
0.000228239
0.000169935
0.000145116
0.000139594
0.000112372
0.000103938
0.000118254
8.4543e-05
8.35746e-05
6.36049e-05
0.000132394
0.000195733
0.000214709
0.000304817
0.000325367
0.000372451
0.000428574
0.000500757
0.000586269
0.000665554
0.000760198
0.000827255
0.000932113
0.00100626
0.00100287
0.00100342
0.00100476
0.000936224
0.000829404
0.000752209
0.000660256
0.000586482
0.000506043
0.000429763
0.00037567
0.000327805
0.000310384
0.00021819
0.000196974
0.000132654
0.000254572
0.000377669
0.000446826
0.000614197
0.000705844
0.000814064
0.000941054
0.00111238
0.00119445
0.00126607
0.00132393
0.00136176
0.00140233
0.00151901
0.0014838
0.00146997
0.00150545
0.00140529
0.00134848
0.00130969
0.00126
0.00119721
0.00110859
0.000939656
0.000821152
0.000713255
0.000628071
0.000449356
0.000377824
0.0002567
0.000397538
0.000438883
0.000528272
0.000735329
0.000864294
0.00103073
0.00115095
0.00128486
0.00145372
0.00154001
0.00158947
0.0015553
0.00159488
0.00171077
0.00167748
0.00166092
0.00170795
0.00158823
0.00153634
0.00155299
0.00153386
0.00147178
0.00128785
0.00115472
0.0010435
0.000897079
0.00074795
0.000534212
0.000436572
0.000396813
0.000454079
0.000465004
0.000561388
0.00074634
0.00083268
0.00100268
0.00117828
0.00137335
0.00147479
0.00153087
0.00145957
0.00146612
0.00144917
0.00150288
0.00150594
0.00149038
0.00150637
0.00147147
0.00145817
0.00145747
0.00157539
0.00153316
0.00141557
0.00119048
0.00100462
0.000855893
0.000765232
0.000566514
0.00045817
0.000457869
0.000406902
0.000463092
0.000569341
0.000774532
0.00085184
0.000877522
0.000978287
0.00110075
0.00113919
0.00120473
0.00119558
0.00125005
0.00124761
0.00128704
0.00137258
0.00137935
0.00129482
0.00125057
0.00126464
0.00120331
0.00122727
0.00117284
0.00113971
0.00100806
0.000902267
0.0008703
0.000788963
0.00057589
0.000464861
0.000418478
0.000309291
0.000370477
0.000499343
0.000642828
0.000643972
0.000624426
0.000705545
0.000771881
0.000802574
0.000886195
0.000927259
0.0010056
0.00103613
0.0010713
0.00117435
0.001174
0.00107012
0.00104668
0.00102181
0.000932608
0.00090364
0.000824529
0.000811253
0.000730225
0.000641076
0.000648506
0.000649347
0.000505616
0.000373635
0.000315955
0.000240122
0.000267656
0.000333495
0.000431202
0.000390166
0.000392605
0.000471125
0.000533673
0.000596341
0.000660195
0.000666637
0.000693388
0.00069864
0.000743643
0.000786253
0.000785659
0.000749587
0.00070413
0.000690019
0.000660652
0.000672808
0.000606759
0.000544865
0.000481531
0.000400311
0.00039328
0.00043188
0.000335657
0.00027055
0.000240877
0.000190972
0.00020422
0.000223374
0.000266971
0.000244147
0.000230532
0.000271538
0.000333925
0.000416249
0.000508266
0.000564342
0.000587769
0.000589191
0.000603254
0.000604473
0.000601677
0.0006059
0.000590205
0.00058381
0.000556967
0.000508155
0.00041871
0.00033746
0.000275648
0.000233751
0.000246852
0.00027025
0.000224929
0.000205979
0.000192211
0.000155851
0.000160102
0.000163812
0.000176321
0.000170359
0.000161964
0.000169802
0.000194456
0.000245358
0.000328299
0.000417183
0.000500706
0.000553302
0.000580334
0.000578766
0.000576269
0.000581469
0.000555098
0.000498727
0.000413848
0.000327795
0.000245737
0.00019578
0.000171433
0.000163571
0.000172259
0.000178647
0.000164686
0.000161096
0.000156595
0.000131911
0.000130158
0.00013016
0.000131785
0.000130621
0.000128928
0.000130842
0.000136941
0.000153097
0.000191987
0.000259079
0.000346755
0.000439405
0.000512189
0.000538967
0.000537754
0.000512971
0.00044056
0.000346432
0.000258166
0.000192279
0.000153479
0.000137682
0.00013137
0.000129831
0.000131821
0.000132941
0.000130691
0.000130949
0.000132298
0.000114149
0.000110761
0.00010975
0.000109474
0.000109368
0.000109449
0.000110612
0.00011299
0.000117699
0.000128881
0.000154962
0.000205427
0.000276305
0.000352101
0.000403851
0.000402842
0.000352317
0.000277138
0.000205607
0.000154928
0.000129367
0.00011801
0.000113403
0.000110915
0.000109809
0.000109813
0.000109954
0.000110317
0.000111296
0.000114495
0.000100537
9.73118e-05
9.62853e-05
9.61818e-05
9.62972e-05
9.68697e-05
9.7963e-05
9.92555e-05
0.000101031
0.000104039
0.00011065
0.000125733
0.00015414
0.000193109
0.000229055
0.00022873
0.000193058
0.000154357
0.000125787
0.000110884
0.00010439
0.000101283
9.95127e-05
9.81889e-05
9.72033e-05
9.66831e-05
9.63088e-05
9.66723e-05
9.77053e-05
0.000101003
9.01389e-05
8.66952e-05
8.59241e-05
8.59629e-05
8.63609e-05
8.7098e-05
8.81047e-05
8.89748e-05
8.9904e-05
9.08152e-05
9.21443e-05
9.4961e-05
0.00010095
0.000111169
0.000122515
0.00012249
0.00011123
0.000101113
9.5098e-05
9.24045e-05
9.10379e-05
9.00801e-05
8.92055e-05
8.83018e-05
8.74014e-05
8.66386e-05
8.62023e-05
8.62091e-05
8.71855e-05
9.07157e-05
8.19459e-05
7.80938e-05
7.74191e-05
7.75626e-05
7.80254e-05
7.87333e-05
7.94994e-05
8.00289e-05
8.04855e-05
8.0694e-05
8.07385e-05
8.08401e-05
8.13302e-05
8.25193e-05
8.41476e-05
8.41297e-05
8.26033e-05
8.14948e-05
8.10498e-05
8.09591e-05
8.08326e-05
8.06119e-05
8.02387e-05
7.96209e-05
7.88917e-05
7.8171e-05
7.78252e-05
7.77029e-05
7.85902e-05
8.23971e-05
7.48337e-05
7.08633e-05
7.01414e-05
7.03303e-05
7.0776e-05
7.13457e-05
7.17686e-05
7.20146e-05
7.20701e-05
7.18303e-05
7.14233e-05
7.09549e-05
7.04495e-05
7.0017e-05
6.98045e-05
6.97969e-05
7.00967e-05
7.05554e-05
7.11019e-05
7.16019e-05
7.19828e-05
7.22042e-05
7.21428e-05
7.18174e-05
7.13804e-05
7.09425e-05
7.06582e-05
7.04584e-05
7.12239e-05
7.50815e-05
6.83413e-05
6.44842e-05
6.38272e-05
6.40327e-05
6.44115e-05
6.47379e-05
6.48552e-05
6.48043e-05
6.44981e-05
6.39737e-05
6.33508e-05
6.26398e-05
6.18466e-05
6.11245e-05
6.06738e-05
6.07381e-05
6.12943e-05
6.20003e-05
6.2755e-05
6.34995e-05
6.4179e-05
6.46951e-05
6.49113e-05
6.49041e-05
6.47514e-05
6.45278e-05
6.42753e-05
6.40898e-05
6.48037e-05
6.85068e-05
6.2367e-05
5.88775e-05
5.83547e-05
5.84946e-05
5.86928e-05
5.87614e-05
5.86636e-05
5.83623e-05
5.78452e-05
5.71915e-05
5.64277e-05
5.55459e-05
5.46086e-05
5.38268e-05
5.33806e-05
5.34656e-05
5.4002e-05
5.47564e-05
5.56458e-05
5.65766e-05
5.74399e-05
5.81064e-05
5.85085e-05
5.87115e-05
5.87499e-05
5.86662e-05
5.85008e-05
5.84339e-05
5.91417e-05
6.25296e-05
5.69311e-05
5.3983e-05
5.34581e-05
5.34639e-05
5.34487e-05
5.33664e-05
5.31361e-05
5.27051e-05
5.2109e-05
5.13524e-05
5.04682e-05
4.95141e-05
4.85752e-05
4.78037e-05
4.7347e-05
4.7395e-05
4.78982e-05
4.86727e-05
4.96153e-05
5.06099e-05
5.15459e-05
5.2306e-05
5.28352e-05
5.31711e-05
5.33385e-05
5.33864e-05
5.33639e-05
5.34238e-05
5.41051e-05
5.71486e-05
5.22458e-05
4.95498e-05
4.89945e-05
4.89061e-05
4.88256e-05
4.86694e-05
4.83196e-05
4.78097e-05
4.71544e-05
4.63366e-05
4.54175e-05
4.44647e-05
4.35467e-05
4.27772e-05
4.22984e-05
4.23046e-05
4.27734e-05
4.35406e-05
4.44909e-05
4.54959e-05
4.64529e-05
4.72601e-05
4.78651e-05
4.82886e-05
4.85792e-05
4.87612e-05
4.88642e-05
4.89942e-05
4.96125e-05
5.23256e-05
4.7844e-05
4.55011e-05
4.5033e-05
4.48964e-05
4.47395e-05
4.44569e-05
4.40408e-05
4.35298e-05
4.28708e-05
4.2059e-05
4.11617e-05
4.02278e-05
3.93245e-05
3.85645e-05
3.8091e-05
3.80802e-05
3.85219e-05
3.92654e-05
4.01809e-05
4.11452e-05
4.20747e-05
4.28957e-05
4.35616e-05
4.40664e-05
4.44448e-05
4.4716e-05
4.48988e-05
4.50667e-05
4.5628e-05
4.80068e-05
4.39824e-05
4.20983e-05
4.16326e-05
4.14026e-05
4.11258e-05
4.07762e-05
4.03664e-05
3.98511e-05
3.91869e-05
3.84084e-05
3.75522e-05
3.66444e-05
3.57606e-05
3.50199e-05
3.45631e-05
3.45457e-05
3.49613e-05
3.56747e-05
3.65561e-05
3.74926e-05
3.84041e-05
3.92238e-05
3.99052e-05
4.04379e-05
4.08556e-05
4.11789e-05
4.14181e-05
4.16259e-05
4.21467e-05
4.41839e-05
4.07388e-05
3.91665e-05
3.86366e-05
3.83426e-05
3.80394e-05
3.77204e-05
3.7316e-05
3.67803e-05
3.61333e-05
3.53982e-05
3.45819e-05
3.37074e-05
3.28659e-05
3.21722e-05
3.17517e-05
3.17428e-05
3.2138e-05
3.28182e-05
3.36609e-05
3.45512e-05
3.54046e-05
3.61722e-05
3.68265e-05
3.73613e-05
3.77945e-05
3.81419e-05
3.84125e-05
3.86409e-05
3.91041e-05
4.08026e-05
3.78524e-05
3.64522e-05
3.59771e-05
3.57327e-05
3.55011e-05
3.52113e-05
3.47815e-05
3.42504e-05
3.36484e-05
3.29485e-05
3.21587e-05
3.13276e-05
3.05522e-05
2.99288e-05
2.95559e-05
2.95576e-05
2.99284e-05
3.05624e-05
3.13449e-05
3.21634e-05
3.29407e-05
3.36452e-05
3.42604e-05
3.4784e-05
3.52156e-05
3.55628e-05
3.583e-05
3.6041e-05
3.64237e-05
3.78179e-05
3.53069e-05
3.40719e-05
3.37434e-05
3.35715e-05
3.33702e-05
3.30583e-05
3.26365e-05
3.21636e-05
3.16143e-05
3.09492e-05
3.01954e-05
2.94241e-05
2.87218e-05
2.81614e-05
2.78236e-05
2.78286e-05
2.81759e-05
2.87601e-05
2.94694e-05
3.02044e-05
3.0908e-05
3.15571e-05
3.21373e-05
3.2637e-05
3.30453e-05
3.33621e-05
3.35939e-05
3.37684e-05
3.40787e-05
3.52272e-05
3.30279e-05
3.20761e-05
3.18347e-05
3.16788e-05
3.14747e-05
3.11764e-05
3.08233e-05
3.04151e-05
2.99028e-05
2.92823e-05
2.85968e-05
2.79133e-05
2.72925e-05
2.67836e-05
2.64665e-05
2.64705e-05
2.67934e-05
2.73241e-05
2.79568e-05
2.86107e-05
2.92456e-05
2.9839e-05
3.03728e-05
3.08262e-05
3.11886e-05
3.14622e-05
3.16601e-05
3.1812e-05
3.20746e-05
3.30185e-05
3.11108e-05
3.042e-05
3.01854e-05
3.00352e-05
2.98557e-05
2.96124e-05
2.93144e-05
2.89291e-05
2.8448e-05
2.78937e-05
2.73051e-05
2.67233e-05
2.61762e-05
2.57054e-05
2.54086e-05
2.54154e-05
2.57184e-05
2.61991e-05
2.6756e-05
2.73261e-05
2.78813e-05
2.8403e-05
2.88726e-05
2.92719e-05
2.95921e-05
2.98368e-05
3.00176e-05
3.01588e-05
3.03824e-05
3.11406e-05
2.95852e-05
2.89867e-05
2.87707e-05
2.86646e-05
2.85181e-05
2.83068e-05
2.80224e-05
2.76551e-05
2.72294e-05
2.67647e-05
2.62818e-05
2.57928e-05
2.53073e-05
2.48761e-05
2.46112e-05
2.46247e-05
2.48976e-05
2.53151e-05
2.57889e-05
2.62736e-05
2.67493e-05
2.72018e-05
2.76119e-05
2.79642e-05
2.82526e-05
2.84768e-05
2.86432e-05
2.87702e-05
2.89512e-05
2.95358e-05
2.82295e-05
2.77117e-05
2.75842e-05
2.75117e-05
2.73667e-05
2.71645e-05
2.68987e-05
2.65809e-05
2.62298e-05
2.58539e-05
2.54596e-05
2.50413e-05
2.46122e-05
2.42348e-05
2.40094e-05
2.40191e-05
2.42436e-05
2.45898e-05
2.49904e-05
2.54111e-05
2.58297e-05
2.62275e-05
2.65864e-05
2.68951e-05
2.71476e-05
2.73427e-05
2.74849e-05
2.75897e-05
2.77299e-05
2.81669e-05
2.70146e-05
2.6683e-05
2.66296e-05
2.65362e-05
2.63883e-05
2.62076e-05
2.59841e-05
2.57259e-05
2.54361e-05
2.51227e-05
2.47849e-05
2.44177e-05
2.40451e-05
2.37281e-05
2.3539e-05
2.35358e-05
2.37117e-05
2.40011e-05
2.43514e-05
2.47283e-05
2.51038e-05
2.54539e-05
2.5763e-05
2.6022e-05
2.62284e-05
2.63843e-05
2.64961e-05
2.6578e-05
2.66859e-05
2.70191e-05
2.60952e-05
2.59346e-05
2.5849e-05
2.5725e-05
2.55969e-05
2.54507e-05
2.52727e-05
2.50605e-05
2.4817e-05
2.45494e-05
2.42551e-05
2.39373e-05
2.36252e-05
2.33664e-05
2.32045e-05
2.3187e-05
2.33224e-05
2.35671e-05
2.3875e-05
2.42069e-05
2.45315e-05
2.48266e-05
2.50799e-05
2.5288e-05
2.54513e-05
2.5575e-05
2.56665e-05
2.57365e-05
2.5824e-05
2.60743e-05
2.54075e-05
2.52682e-05
2.51359e-05
2.50393e-05
2.4952e-05
2.48426e-05
2.47043e-05
2.45315e-05
2.43298e-05
2.41043e-05
2.38537e-05
2.35891e-05
2.33383e-05
2.31286e-05
2.29853e-05
2.29585e-05
2.3064e-05
2.32664e-05
2.35222e-05
2.37945e-05
2.40571e-05
2.42952e-05
2.4501e-05
2.46731e-05
2.48126e-05
2.49219e-05
2.50053e-05
2.50684e-05
2.51353e-05
2.53079e-05
2.47766e-05
2.46131e-05
2.45348e-05
2.44978e-05
2.44445e-05
2.43608e-05
2.42453e-05
2.40994e-05
2.3931e-05
2.37396e-05
2.35267e-05
2.33091e-05
2.31072e-05
2.2933e-05
2.28106e-05
2.27875e-05
2.28755e-05
2.30391e-05
2.32414e-05
2.34542e-05
2.3662e-05
2.38583e-05
2.40376e-05
2.41928e-05
2.432e-05
2.44197e-05
2.4494e-05
2.45451e-05
2.45871e-05
2.469e-05
2.41852e-05
2.41025e-05
2.41125e-05
2.41029e-05
2.40559e-05
2.39753e-05
2.38665e-05
2.37402e-05
2.35982e-05
2.34328e-05
2.32505e-05
2.30712e-05
2.29053e-05
2.27602e-05
2.2659e-05
2.26445e-05
2.27246e-05
2.28613e-05
2.30232e-05
2.3193e-05
2.33638e-05
2.35319e-05
2.36884e-05
2.38239e-05