/*--------------------------------*- C++ -*----------------------------------*\
| =========                 |                                                 |
| \\      /  F ield         | OpenFOAM: The Open Source CFD Toolbox           |
|  \\    /   O peration     | Version:  2312                                  |
|   \\  /    A nd           | Website:  www.openfoam.com                      |
|    \\/     M anipulation  |                                                 |
\*---------------------------------------------------------------------------*/
FoamFile
{
    version     2.0;
    format      ascii;
    arch        "LSB;label=32;scalar=64";
    class       volScalarField;
    location    "1.30953105";
    object      nut;
}
// * * * * * * * * * * * * * * * * * * * * * * * * * * * * * * * * * * * * * //

dimensions      [0 2 -1 0 0 0 0];

internalField   nonuniform List<scalar> 
90000
(
5.1326e-06
5.13321e-06
5.13333e-06
5.13338e-06
5.13344e-06
5.13345e-06
5.13346e-06
5.13346e-06
5.13343e-06
5.13337e-06
5.13326e-06
5.13314e-06
5.13304e-06
5.13303e-06
5.13308e-06
5.13312e-06
5.13314e-06
5.13321e-06
5.13333e-06
5.13336e-06
5.13324e-06
5.13309e-06
5.13336e-06
5.13389e-06
5.13434e-06
5.13452e-06
5.13431e-06
5.13406e-06
5.13495e-06
5.13666e-06
5.13357e-06
5.14661e-06
5.14784e-06
5.14787e-06
5.14783e-06
5.14781e-06
5.14783e-06
5.14785e-06
5.14785e-06
5.14783e-06
5.14784e-06
5.14788e-06
5.14793e-06
5.14795e-06
5.14795e-06
5.1479e-06
5.14785e-06
5.14782e-06
5.1478e-06
5.14777e-06
5.14786e-06
5.14802e-06
5.14817e-06
5.14822e-06
5.14811e-06
5.14799e-06
5.14826e-06
5.1491e-06
5.14854e-06
5.1393e-06
5.13358e-06
5.14794e-06
5.14938e-06
5.14944e-06
5.14943e-06
5.14944e-06
5.14947e-06
5.14948e-06
5.14944e-06
5.14936e-06
5.14937e-06
5.14948e-06
5.14965e-06
5.14977e-06
5.14977e-06
5.14964e-06
5.1494e-06
5.14921e-06
5.14939e-06
5.14965e-06
5.14981e-06
5.14984e-06
5.14976e-06
5.14966e-06
5.14975e-06
5.15001e-06
5.15022e-06
5.15103e-06
5.1521e-06
5.13835e-06
5.13342e-06
5.14795e-06
5.14951e-06
5.14962e-06
5.14966e-06
5.14969e-06
5.14973e-06
5.14974e-06
5.14971e-06
5.14962e-06
5.14955e-06
5.14959e-06
5.14969e-06
5.14979e-06
5.14978e-06
5.14965e-06
5.14949e-06
5.14954e-06
5.1498e-06
5.14998e-06
5.14998e-06
5.14985e-06
5.14987e-06
5.15023e-06
5.15057e-06
5.15084e-06
5.15124e-06
5.15127e-06
5.1517e-06
5.13604e-06
5.13333e-06
5.14794e-06
5.14952e-06
5.14964e-06
5.14968e-06
5.14969e-06
5.14971e-06
5.14972e-06
5.14974e-06
5.14973e-06
5.14969e-06
5.14963e-06
5.14956e-06
5.14948e-06
5.14948e-06
5.14964e-06
5.14983e-06
5.14997e-06
5.15e-06
5.14991e-06
5.14975e-06
5.14979e-06
5.15012e-06
5.15049e-06
5.15072e-06
5.15071e-06
5.15059e-06
5.15074e-06
5.14968e-06
5.13478e-06
5.13335e-06
5.14797e-06
5.14949e-06
5.1496e-06
5.14961e-06
5.1496e-06
5.14958e-06
5.1496e-06
5.14965e-06
5.14973e-06
5.1498e-06
5.14986e-06
5.14988e-06
5.14982e-06
5.14974e-06
5.14982e-06
5.14996e-06
5.15002e-06
5.14995e-06
5.14983e-06
5.14979e-06
5.14992e-06
5.15011e-06
5.15026e-06
5.15032e-06
5.15027e-06
5.15001e-06
5.15079e-06
5.14929e-06
5.13464e-06
5.13347e-06
5.14803e-06
5.14953e-06
5.14968e-06
5.14976e-06
5.1498e-06
5.14978e-06
5.1497e-06
5.14964e-06
5.14969e-06
5.14985e-06
5.15006e-06
5.15022e-06
5.15026e-06
5.15013e-06
5.14988e-06
5.14971e-06
5.1497e-06
5.14979e-06
5.1499e-06
5.14998e-06
5.15e-06
5.14993e-06
5.14977e-06
5.14969e-06
5.15004e-06
5.15057e-06
5.15136e-06
5.14988e-06
5.1345e-06
5.1335e-06
5.14826e-06
5.14977e-06
5.14998e-06
5.15012e-06
5.15023e-06
5.15026e-06
5.15016e-06
5.14993e-06
5.14968e-06
5.1498e-06
5.15005e-06
5.15027e-06
5.15035e-06
5.15022e-06
5.14988e-06
5.14947e-06
5.14937e-06
5.14967e-06
5.1499e-06
5.15e-06
5.14995e-06
5.14976e-06
5.14959e-06
5.14976e-06
5.15036e-06
5.15093e-06
5.15128e-06
5.14958e-06
5.13417e-06
5.13359e-06
5.14864e-06
5.15011e-06
5.1503e-06
5.15046e-06
5.15058e-06
5.15061e-06
5.15054e-06
5.15036e-06
5.15008e-06
5.14986e-06
5.14991e-06
5.15001e-06
5.15009e-06
5.1501e-06
5.15002e-06
5.14988e-06
5.14979e-06
5.14982e-06
5.14992e-06
5.14995e-06
5.14987e-06
5.14969e-06
5.14964e-06
5.14999e-06
5.1505e-06
5.15086e-06
5.1508e-06
5.14901e-06
5.13385e-06
5.13412e-06
5.14887e-06
5.15024e-06
5.15038e-06
5.15047e-06
5.15053e-06
5.15057e-06
5.15058e-06
5.15055e-06
5.15046e-06
5.15026e-06
5.14995e-06
5.1497e-06
5.14971e-06
5.14993e-06
5.15021e-06
5.1504e-06
5.15048e-06
5.15045e-06
5.15037e-06
5.15023e-06
5.15003e-06
5.1498e-06
5.14971e-06
5.15e-06
5.1503e-06
5.15039e-06
5.15016e-06
5.14853e-06
5.13367e-06
5.13455e-06
5.14892e-06
5.15019e-06
5.15025e-06
5.1502e-06
5.1501e-06
5.15006e-06
5.15015e-06
5.15032e-06
5.15044e-06
5.15039e-06
5.15015e-06
5.14979e-06
5.1496e-06
5.14979e-06
5.15023e-06
5.15064e-06
5.15094e-06
5.15109e-06
5.15103e-06
5.15081e-06
5.15047e-06
5.1501e-06
5.14986e-06
5.14993e-06
5.15004e-06
5.1501e-06
5.15e-06
5.14845e-06
5.13377e-06
5.13451e-06
5.14924e-06
5.15042e-06
5.15037e-06
5.1502e-06
5.14999e-06
5.14983e-06
5.14986e-06
5.14999e-06
5.15013e-06
5.15019e-06
5.15014e-06
5.14995e-06
5.14964e-06
5.14954e-06
5.15005e-06
5.15067e-06
5.15115e-06
5.15138e-06
5.15134e-06
5.15108e-06
5.15068e-06
5.15022e-06
5.14983e-06
5.14982e-06
5.15e-06
5.15014e-06
5.15008e-06
5.14872e-06
5.13395e-06
5.13432e-06
5.14956e-06
5.15076e-06
5.15081e-06
5.15093e-06
5.15105e-06
5.15111e-06
5.15103e-06
5.15074e-06
5.15031e-06
5.15012e-06
5.15024e-06
5.15031e-06
5.15025e-06
5.15017e-06
5.15031e-06
5.15061e-06
5.15085e-06
5.15095e-06
5.15091e-06
5.15075e-06
5.15049e-06
5.15016e-06
5.14987e-06
5.1499e-06
5.15007e-06
5.15017e-06
5.15019e-06
5.14885e-06
5.13408e-06
5.13524e-06
5.14943e-06
5.15096e-06
5.15133e-06
5.15185e-06
5.15224e-06
5.15235e-06
5.15207e-06
5.15145e-06
5.15071e-06
5.15019e-06
5.15033e-06
5.15068e-06
5.15098e-06
5.15112e-06
5.15107e-06
5.15081e-06
5.15039e-06
5.15006e-06
5.15004e-06
5.15019e-06
5.15027e-06
5.15022e-06
5.15011e-06
5.15009e-06
5.15012e-06
5.15021e-06
5.1503e-06
5.14889e-06
5.13427e-06
5.13618e-06
5.14886e-06
5.15135e-06
5.1521e-06
5.15264e-06
5.15283e-06
5.15261e-06
5.15204e-06
5.15129e-06
5.15055e-06
5.15003e-06
5.15021e-06
5.15078e-06
5.15129e-06
5.15154e-06
5.15146e-06
5.15105e-06
5.15042e-06
5.14982e-06
5.14959e-06
5.14988e-06
5.1502e-06
5.15036e-06
5.15036e-06
5.15026e-06
5.15028e-06
5.15056e-06
5.15072e-06
5.14947e-06
5.13488e-06
5.13631e-06
5.15027e-06
5.15223e-06
5.15261e-06
5.15265e-06
5.15231e-06
5.15172e-06
5.1511e-06
5.15061e-06
5.1502e-06
5.14988e-06
5.15008e-06
5.15069e-06
5.15122e-06
5.15149e-06
5.15144e-06
5.15117e-06
5.15074e-06
5.15026e-06
5.14989e-06
5.14991e-06
5.15018e-06
5.15041e-06
5.15047e-06
5.15048e-06
5.15068e-06
5.15099e-06
5.15129e-06
5.15029e-06
5.13534e-06
5.13564e-06
5.1518e-06
5.15285e-06
5.15262e-06
5.15203e-06
5.15125e-06
5.15053e-06
5.15037e-06
5.15042e-06
5.15028e-06
5.15009e-06
5.15027e-06
5.15067e-06
5.15104e-06
5.15123e-06
5.15128e-06
5.15117e-06
5.1509e-06
5.15054e-06
5.15021e-06
5.15008e-06
5.15017e-06
5.15035e-06
5.15049e-06
5.15066e-06
5.15094e-06
5.15127e-06
5.15153e-06
5.15024e-06
5.13514e-06
5.13523e-06
5.15248e-06
5.15312e-06
5.15258e-06
5.15184e-06
5.15112e-06
5.15072e-06
5.15058e-06
5.1505e-06
5.15034e-06
5.15036e-06
5.15044e-06
5.15056e-06
5.15068e-06
5.15082e-06
5.15093e-06
5.15096e-06
5.15088e-06
5.15069e-06
5.15046e-06
5.15025e-06
5.1503e-06
5.15048e-06
5.15066e-06
5.15091e-06
5.15119e-06
5.15138e-06
5.15136e-06
5.14977e-06
5.13493e-06
5.13602e-06
5.15263e-06
5.15335e-06
5.15283e-06
5.15223e-06
5.15175e-06
5.15142e-06
5.1511e-06
5.15073e-06
5.15046e-06
5.15036e-06
5.15027e-06
5.15023e-06
5.15023e-06
5.15029e-06
5.15043e-06
5.1506e-06
5.1507e-06
5.15067e-06
5.15052e-06
5.15038e-06
5.15047e-06
5.15066e-06
5.15106e-06
5.15148e-06
5.15165e-06
5.1516e-06
5.1514e-06
5.14984e-06
5.13506e-06
5.13689e-06
5.15262e-06
5.15351e-06
5.15307e-06
5.15259e-06
5.15226e-06
5.15199e-06
5.15167e-06
5.1513e-06
5.15095e-06
5.15065e-06
5.15035e-06
5.15007e-06
5.14985e-06
5.14984e-06
5.15008e-06
5.15037e-06
5.15053e-06
5.15057e-06
5.15052e-06
5.15056e-06
5.15088e-06
5.1515e-06
5.15203e-06
5.15219e-06
5.15208e-06
5.15197e-06
5.15186e-06
5.15062e-06
5.13576e-06
5.1376e-06
5.15248e-06
5.15351e-06
5.15321e-06
5.15295e-06
5.15277e-06
5.15257e-06
5.15226e-06
5.1519e-06
5.15149e-06
5.15104e-06
5.15055e-06
5.15009e-06
5.14994e-06
5.15013e-06
5.15039e-06
5.15057e-06
5.15064e-06
5.15073e-06
5.15095e-06
5.15141e-06
5.15205e-06
5.1525e-06
5.15253e-06
5.15229e-06
5.15216e-06
5.15214e-06
5.1522e-06
5.15106e-06
5.13621e-06
5.13809e-06
5.15232e-06
5.15362e-06
5.15353e-06
5.15343e-06
5.15328e-06
5.15303e-06
5.15268e-06
5.15226e-06
5.15178e-06
5.15121e-06
5.15064e-06
5.15044e-06
5.15066e-06
5.15075e-06
5.1507e-06
5.15065e-06
5.1508e-06
5.15119e-06
5.1518e-06
5.15252e-06
5.15296e-06
5.15289e-06
5.15257e-06
5.15252e-06
5.15262e-06
5.15273e-06
5.15279e-06
5.1514e-06
5.13693e-06
5.13836e-06
5.15243e-06
5.15403e-06
5.1541e-06
5.154e-06
5.15375e-06
5.15338e-06
5.15296e-06
5.15251e-06
5.152e-06
5.15145e-06
5.15106e-06
5.1511e-06
5.15094e-06
5.15063e-06
5.15042e-06
5.15054e-06
5.15105e-06
5.15182e-06
5.15265e-06
5.1532e-06
5.15322e-06
5.15295e-06
5.15296e-06
5.15317e-06
5.15342e-06
5.15363e-06
5.15365e-06
5.15223e-06
5.13781e-06
5.13881e-06
5.15328e-06
5.15488e-06
5.15492e-06
5.1547e-06
5.15432e-06
5.15391e-06
5.15351e-06
5.15306e-06
5.15253e-06
5.15194e-06
5.1516e-06
5.1513e-06
5.15076e-06
5.15027e-06
5.15033e-06
5.15074e-06
5.15148e-06
5.15245e-06
5.15314e-06
5.15333e-06
5.15325e-06
5.15344e-06
5.15382e-06
5.15421e-06
5.15456e-06
5.15476e-06
5.1548e-06
5.1533e-06
5.139e-06
5.14023e-06
5.15466e-06
5.15614e-06
5.15604e-06
5.15569e-06
5.15528e-06
5.1549e-06
5.15449e-06
5.15396e-06
5.15327e-06
5.15254e-06
5.15196e-06
5.15135e-06
5.15077e-06
5.15058e-06
5.15063e-06
5.15105e-06
5.15195e-06
5.15274e-06
5.1531e-06
5.1533e-06
5.15384e-06
5.15442e-06
5.15492e-06
5.15546e-06
5.15584e-06
5.15608e-06
5.15618e-06
5.15491e-06
5.14075e-06
5.14221e-06
5.15647e-06
5.15778e-06
5.15752e-06
5.1571e-06
5.15668e-06
5.15626e-06
5.15572e-06
5.15501e-06
5.15417e-06
5.15331e-06
5.15251e-06
5.15184e-06
5.15139e-06
5.15103e-06
5.15087e-06
5.15136e-06
5.15214e-06
5.15272e-06
5.15333e-06
5.15419e-06
5.15495e-06
5.15555e-06
5.15618e-06
5.15677e-06
5.15724e-06
5.15758e-06
5.15796e-06
5.15722e-06
5.14232e-06
5.14471e-06
5.1586e-06
5.15976e-06
5.1594e-06
5.15893e-06
5.15843e-06
5.15785e-06
5.15711e-06
5.15623e-06
5.15525e-06
5.1543e-06
5.15348e-06
5.15286e-06
5.15232e-06
5.15166e-06
5.15137e-06
5.15178e-06
5.15255e-06
5.15355e-06
5.1546e-06
5.15544e-06
5.15621e-06
5.15699e-06
5.15772e-06
5.15839e-06
5.15908e-06
5.15959e-06
5.16014e-06
5.15911e-06
5.14421e-06
5.14748e-06
5.16103e-06
5.16214e-06
5.16173e-06
5.16116e-06
5.16051e-06
5.15972e-06
5.15878e-06
5.15775e-06
5.15671e-06
5.15576e-06
5.15499e-06
5.15428e-06
5.15339e-06
5.15246e-06
5.15218e-06
5.15277e-06
5.15383e-06
5.15499e-06
5.15601e-06
5.15693e-06
5.15794e-06
5.15887e-06
5.15971e-06
5.16054e-06
5.16147e-06
5.16219e-06
5.16237e-06
5.16112e-06
5.14704e-06
5.15049e-06
5.16392e-06
5.16498e-06
5.16449e-06
5.16382e-06
5.163e-06
5.16203e-06
5.16092e-06
5.15978e-06
5.15865e-06
5.15763e-06
5.15671e-06
5.15563e-06
5.15436e-06
5.15332e-06
5.15317e-06
5.154e-06
5.15521e-06
5.15648e-06
5.15771e-06
5.15885e-06
5.16003e-06
5.16121e-06
5.16228e-06
5.16324e-06
5.16434e-06
5.16516e-06
5.16508e-06
5.16405e-06
5.15062e-06
5.154e-06
5.16738e-06
5.16839e-06
5.16783e-06
5.16702e-06
5.16604e-06
5.1649e-06
5.16364e-06
5.16234e-06
5.16103e-06
5.15978e-06
5.15845e-06
5.15692e-06
5.15538e-06
5.15428e-06
5.15428e-06
5.15528e-06
5.15664e-06
5.15812e-06
5.15967e-06
5.16111e-06
5.16251e-06
5.164e-06
5.16534e-06
5.16639e-06
5.16753e-06
5.16848e-06
5.16863e-06
5.16809e-06
5.1544e-06
5.15829e-06
5.1716e-06
5.17254e-06
5.17187e-06
5.17092e-06
5.16977e-06
5.16845e-06
5.16703e-06
5.16551e-06
5.1639e-06
5.16226e-06
5.16048e-06
5.15858e-06
5.15681e-06
5.15564e-06
5.15567e-06
5.15683e-06
5.15844e-06
5.1602e-06
5.16211e-06
5.16394e-06
5.16561e-06
5.16731e-06
5.16886e-06
5.17006e-06
5.17114e-06
5.17239e-06
5.17318e-06
5.17239e-06
5.15866e-06
5.16355e-06
5.17673e-06
5.17758e-06
5.17681e-06
5.1757e-06
5.17437e-06
5.17286e-06
5.1712e-06
5.16938e-06
5.16739e-06
5.16527e-06
5.16303e-06
5.16078e-06
5.15878e-06
5.15741e-06
5.15739e-06
5.15874e-06
5.16076e-06
5.16288e-06
5.16512e-06
5.1674e-06
5.16938e-06
5.17117e-06
5.17302e-06
5.17445e-06
5.17562e-06
5.17725e-06
5.17833e-06
5.17722e-06
5.16398e-06
5.16993e-06
5.18297e-06
5.18373e-06
5.18286e-06
5.18156e-06
5.17998e-06
5.17817e-06
5.17616e-06
5.17395e-06
5.17152e-06
5.16892e-06
5.16625e-06
5.16363e-06
5.16132e-06
5.1597e-06
5.15966e-06
5.16121e-06
5.16372e-06
5.16628e-06
5.16884e-06
5.17154e-06
5.17383e-06
5.17586e-06
5.17806e-06
5.17986e-06
5.18128e-06
5.18317e-06
5.18421e-06
5.18325e-06
5.17047e-06
5.17773e-06
5.19058e-06
5.19123e-06
5.19018e-06
5.1886e-06
5.18668e-06
5.18448e-06
5.18206e-06
5.17943e-06
5.17656e-06
5.17353e-06
5.17045e-06
5.16739e-06
5.16465e-06
5.16273e-06
5.16278e-06
5.16451e-06
5.16744e-06
5.17051e-06
5.17343e-06
5.17647e-06
5.17933e-06
5.18176e-06
5.18424e-06
5.18648e-06
5.18833e-06
5.19022e-06
5.19131e-06
5.19064e-06
5.17818e-06
5.18722e-06
5.19976e-06
5.20022e-06
5.19889e-06
5.197e-06
5.19471e-06
5.19213e-06
5.1893e-06
5.18623e-06
5.18291e-06
5.1794e-06
5.17578e-06
5.17214e-06
5.16885e-06
5.16663e-06
5.16691e-06
5.1689e-06
5.17215e-06
5.17578e-06
5.1792e-06
5.18274e-06
5.1863e-06
5.18911e-06
5.19188e-06
5.1947e-06
5.19694e-06
5.1987e-06
5.19996e-06
5.19951e-06
5.18738e-06
5.19864e-06
5.21071e-06
5.21093e-06
5.20933e-06
5.20714e-06
5.20453e-06
5.20158e-06
5.19829e-06
5.19472e-06
5.19084e-06
5.18669e-06
5.1824e-06
5.17811e-06
5.17442e-06
5.17189e-06
5.17234e-06
5.1747e-06
5.17832e-06
5.18255e-06
5.18673e-06
5.19083e-06
5.19497e-06
5.19824e-06
5.20148e-06
5.2049e-06
5.20724e-06
5.20905e-06
5.21049e-06
5.2103e-06
5.19861e-06
5.21235e-06
5.22385e-06
5.22381e-06
5.22196e-06
5.21952e-06
5.2166e-06
5.21323e-06
5.20942e-06
5.20525e-06
5.20072e-06
5.19587e-06
5.19094e-06
5.18605e-06
5.1821e-06
5.1792e-06
5.17952e-06
5.18224e-06
5.18636e-06
5.19125e-06
5.19632e-06
5.20094e-06
5.20562e-06
5.20952e-06
5.21338e-06
5.21708e-06
5.21959e-06
5.22174e-06
5.2235e-06
5.22361e-06
5.21243e-06
5.2288e-06
5.23964e-06
5.23939e-06
5.23734e-06
5.2346e-06
5.23128e-06
5.22741e-06
5.22302e-06
5.21823e-06
5.21306e-06
5.20752e-06
5.20201e-06
5.19645e-06
5.19203e-06
5.18874e-06
5.18872e-06
5.19179e-06
5.19671e-06
5.20228e-06
5.20808e-06
5.21326e-06
5.21857e-06
5.22331e-06
5.22767e-06
5.23158e-06
5.23458e-06
5.2373e-06
5.23941e-06
5.23976e-06
5.22921e-06
5.24845e-06
5.25874e-06
5.25824e-06
5.25591e-06
5.25279e-06
5.24896e-06
5.24454e-06
5.23955e-06
5.23412e-06
5.22826e-06
5.22198e-06
5.21578e-06
5.20945e-06
5.20424e-06
5.20063e-06
5.20043e-06
5.20388e-06
5.20968e-06
5.21603e-06
5.22235e-06
5.22826e-06
5.23433e-06
5.23991e-06
5.24466e-06
5.249e-06
5.25281e-06
5.25595e-06
5.2583e-06
5.25906e-06
5.24906e-06
5.27201e-06
5.28179e-06
5.2809e-06
5.27821e-06
5.27466e-06
5.27035e-06
5.26534e-06
5.25972e-06
5.25357e-06
5.24695e-06
5.23986e-06
5.23279e-06
5.22594e-06
5.21967e-06
5.21567e-06
5.21557e-06
5.21954e-06
5.2259e-06
5.23314e-06
5.23998e-06
5.24683e-06
5.25368e-06
5.25996e-06
5.26529e-06
5.27024e-06
5.27478e-06
5.27821e-06
5.2809e-06
5.28223e-06
5.27242e-06
5.30019e-06
5.30949e-06
5.30818e-06
5.30517e-06
5.3012e-06
5.2963e-06
5.29066e-06
5.28441e-06
5.27756e-06
5.2702e-06
5.26247e-06
5.25431e-06
5.24713e-06
5.23982e-06
5.23522e-06
5.2352e-06
5.23993e-06
5.24669e-06
5.25478e-06
5.26236e-06
5.27022e-06
5.27769e-06
5.28455e-06
5.29076e-06
5.29622e-06
5.3012e-06
5.30521e-06
5.30835e-06
5.30998e-06
5.30016e-06
5.33402e-06
5.34319e-06
5.34134e-06
5.33782e-06
5.33323e-06
5.32768e-06
5.32148e-06
5.31465e-06
5.30721e-06
5.29905e-06
5.29075e-06
5.28156e-06
5.27392e-06
5.26582e-06
5.26051e-06
5.26062e-06
5.26618e-06
5.27348e-06
5.28217e-06
5.29065e-06
5.29929e-06
5.30728e-06
5.31462e-06
5.32171e-06
5.32777e-06
5.33309e-06
5.33789e-06
5.34162e-06
5.34353e-06
5.33359e-06
5.37505e-06
5.38448e-06
5.38153e-06
5.37729e-06
5.37212e-06
5.36591e-06
5.35917e-06
5.35168e-06
5.34354e-06
5.33462e-06
5.32583e-06
5.31627e-06
5.30798e-06
5.29918e-06
5.29339e-06
5.29374e-06
5.29963e-06
5.30775e-06
5.31673e-06
5.32577e-06
5.3349e-06
5.34363e-06
5.3516e-06
5.35899e-06
5.36607e-06
5.37217e-06
5.37738e-06
5.38204e-06
5.38467e-06
5.37381e-06
5.42536e-06
5.43595e-06
5.43142e-06
5.42632e-06
5.42026e-06
5.41329e-06
5.4059e-06
5.39742e-06
5.38853e-06
5.37975e-06
5.37083e-06
5.36158e-06
5.35336e-06
5.3448e-06
5.33936e-06
5.34048e-06
5.34533e-06
5.35302e-06
5.36188e-06
5.37096e-06
5.37989e-06
5.38868e-06
5.39753e-06
5.40534e-06
5.41311e-06
5.42047e-06
5.42632e-06
5.43191e-06
5.43622e-06
5.42322e-06
5.48977e-06
5.5057e-06
5.49839e-06
5.49241e-06
5.48407e-06
5.47529e-06
5.46721e-06
5.45799e-06
5.44945e-06
5.44307e-06
5.43749e-06
5.43532e-06
5.43781e-06
5.43993e-06
5.44273e-06
5.44601e-06
5.44103e-06
5.43755e-06
5.43636e-06
5.43797e-06
5.44294e-06
5.4497e-06
5.45838e-06
5.46693e-06
5.4744e-06
5.48425e-06
5.49328e-06
5.4985e-06
5.50564e-06
5.48703e-06
5.59306e-06
5.63482e-06
5.61772e-06
5.62264e-06
5.59903e-06
5.58202e-06
5.5798e-06
5.56981e-06
5.5664e-06
5.58294e-06
5.61617e-06
5.68609e-06
5.79137e-06
5.89243e-06
5.97271e-06
5.98957e-06
5.89769e-06
5.79242e-06
5.69275e-06
5.61755e-06
5.58408e-06
5.5674e-06
5.56884e-06
5.58036e-06
5.58197e-06
5.59845e-06
5.62435e-06
5.61862e-06
5.63624e-06
5.58861e-06
5.87984e-06
6.04277e-06
5.98386e-06
6.11748e-06
5.9707e-06
5.92291e-06
6.00081e-06
5.97061e-06
6.00946e-06
6.2061e-06
6.49743e-06
7.00667e-06
7.6961e-06
8.31e-06
8.68068e-06
8.73376e-06
8.33139e-06
7.71299e-06
7.04626e-06
6.50486e-06
6.21292e-06
6.01353e-06
5.97021e-06
6.00419e-06
5.92267e-06
5.96958e-06
6.12444e-06
5.98532e-06
6.05273e-06
5.86891e-06
6.90515e-06
7.4587e-06
7.31836e-06
8.08743e-06
7.51893e-06
7.49917e-06
7.99703e-06
7.90361e-06
8.23172e-06
9.0562e-06
1.02433e-05
1.19923e-05
1.37457e-05
1.52763e-05
1.6154e-05
1.61869e-05
1.53202e-05
1.38047e-05
1.20615e-05
1.02786e-05
9.08171e-06
8.23816e-06
7.91336e-06
8.01176e-06
7.50659e-06
7.52324e-06
8.11647e-06
7.31982e-06
7.49487e-06
6.8782e-06
9.52605e-06
1.0624e-05
1.09038e-05
1.27265e-05
1.23321e-05
1.28843e-05
1.39895e-05
1.41502e-05
1.58369e-05
1.75557e-05
1.97623e-05
2.22041e-05
2.4595e-05
2.62393e-05
2.71092e-05
2.70993e-05
2.62837e-05
2.46403e-05
2.22636e-05
1.97971e-05
1.75796e-05
1.58041e-05
1.42412e-05
1.4012e-05
1.29493e-05
1.24056e-05
1.27877e-05
1.09318e-05
1.06833e-05
9.4994e-06
1.33598e-05
1.58833e-05
1.67163e-05
2.02647e-05
2.05397e-05
2.24617e-05
2.36816e-05
2.49387e-05
2.8467e-05
2.85915e-05
3.02531e-05
3.17743e-05
3.33368e-05
3.43375e-05
3.45714e-05
3.45579e-05
3.43874e-05
3.33163e-05
3.18698e-05
3.01588e-05
2.84768e-05
2.84136e-05
2.52191e-05
2.37009e-05
2.25671e-05
2.07299e-05
2.03412e-05
1.68694e-05
1.59327e-05
1.33725e-05
1.79909e-05
2.1461e-05
2.45236e-05
2.79151e-05
2.89118e-05
3.10435e-05
3.29639e-05
3.74874e-05
3.81803e-05
3.83433e-05
3.95021e-05
3.928e-05
3.97746e-05
4.06944e-05
4.11308e-05
4.11935e-05
4.07171e-05
3.96087e-05
3.89982e-05
3.95993e-05
3.86162e-05
3.82213e-05
3.67935e-05
3.29843e-05
3.11243e-05
2.9107e-05
2.7975e-05
2.4282e-05
2.1441e-05
1.80681e-05
2.24789e-05
2.37733e-05
2.5744e-05
3.1295e-05
3.13813e-05
3.46282e-05
3.57127e-05
3.83398e-05
4.39184e-05
4.10116e-05
4.11334e-05
4.11831e-05
4.31932e-05
4.36438e-05
4.26696e-05
4.26303e-05
4.39558e-05
4.28901e-05
4.12507e-05
4.08933e-05
4.09088e-05
4.4035e-05
3.81408e-05
3.55973e-05
3.46462e-05
3.17063e-05
3.10411e-05
2.58186e-05
2.36338e-05
2.25507e-05
2.4074e-05
2.4151e-05
2.63499e-05
3.00834e-05
3.09119e-05
3.41079e-05
3.69454e-05
3.94807e-05
4.20219e-05
4.08939e-05
3.9851e-05
4.03464e-05
4.01532e-05
4.06801e-05
4.0932e-05
4.07231e-05
4.06922e-05
4.02822e-05
4.01506e-05
3.98259e-05
4.16436e-05
4.25228e-05
4.00921e-05
3.70729e-05
3.40156e-05
3.13625e-05
3.03935e-05
2.66202e-05
2.40475e-05
2.4424e-05
2.22966e-05
2.411e-05
2.69254e-05
3.05418e-05
3.17559e-05
3.26988e-05
3.45191e-05
3.62343e-05
3.61968e-05
3.66729e-05
3.7096e-05
3.81318e-05
3.84474e-05
3.88718e-05
3.99389e-05
3.99221e-05
3.88384e-05
3.84579e-05
3.82585e-05
3.7109e-05
3.70724e-05
3.67952e-05
3.68719e-05
3.51622e-05
3.30182e-05
3.21499e-05
3.08098e-05
2.72385e-05
2.41003e-05
2.2759e-05
1.92552e-05
2.15052e-05
2.51079e-05
2.78731e-05
2.77135e-05
2.7726e-05
2.92902e-05
3.05096e-05
3.07474e-05
3.2048e-05
3.34513e-05
3.49834e-05
3.55357e-05
3.59812e-05
3.75675e-05
3.75541e-05
3.58691e-05
3.56646e-05
3.53518e-05
3.35557e-05
3.21477e-05
3.12525e-05
3.14863e-05
2.99085e-05
2.81801e-05
2.77534e-05
2.8005e-05
2.5259e-05
2.14827e-05
1.95521e-05
1.7155e-05
1.79365e-05
2.00382e-05
2.24648e-05
2.13321e-05
2.1989e-05
2.38111e-05
2.52062e-05
2.65273e-05
2.7533e-05
2.78633e-05
2.86029e-05
2.88405e-05
2.9852e-05
3.08016e-05
3.08228e-05
2.99576e-05
2.9018e-05
2.84982e-05
2.77558e-05
2.78226e-05
2.67338e-05
2.54852e-05
2.412e-05
2.22238e-05
2.14276e-05
2.23775e-05
2.00985e-05
1.79783e-05
1.71501e-05
1.54692e-05
1.57259e-05
1.63292e-05
1.74599e-05
1.69032e-05
1.6846e-05
1.8247e-05
2.01063e-05
2.22278e-05
2.42398e-05
2.55506e-05
2.59345e-05
2.58932e-05
2.62027e-05
2.6284e-05
2.61822e-05
2.62202e-05
2.59213e-05
2.58523e-05
2.53816e-05
2.41991e-05
2.22741e-05
2.01889e-05
1.84082e-05
1.69765e-05
1.70135e-05
1.75496e-05
1.64053e-05
1.57838e-05
1.55144e-05
1.40574e-05
1.40716e-05
1.41327e-05
1.45217e-05
1.44132e-05
1.42082e-05
1.45731e-05
1.55774e-05
1.73815e-05
1.96898e-05
2.18922e-05
2.3944e-05
2.50352e-05
2.55682e-05
2.54906e-05
2.53831e-05
2.55517e-05
2.51096e-05
2.38943e-05
2.17875e-05
1.96517e-05
1.7379e-05
1.5633e-05
1.46469e-05
1.42779e-05
1.44879e-05
1.4639e-05
1.41712e-05
1.40995e-05
1.40978e-05
1.30063e-05
1.27595e-05
1.27432e-05
1.27855e-05
1.27949e-05
1.27645e-05
1.2888e-05
1.31948e-05
1.39349e-05
1.54251e-05
1.75425e-05
1.99002e-05
2.2341e-05
2.40397e-05
2.45805e-05
2.45665e-05
2.40476e-05
2.23636e-05
1.99055e-05
1.75352e-05
1.544e-05
1.39369e-05
1.32339e-05
1.29118e-05
1.28302e-05
1.28475e-05
1.2846e-05
1.27607e-05
1.28083e-05
1.30243e-05
1.21503e-05
1.18166e-05
1.17622e-05
1.17402e-05
1.17614e-05
1.17914e-05
1.18834e-05
1.20215e-05
1.22713e-05
1.28075e-05
1.39195e-05
1.57237e-05
1.78348e-05
1.99468e-05
2.12837e-05
2.12428e-05
1.99356e-05
1.78663e-05
1.57529e-05
1.39329e-05
1.28317e-05
1.22779e-05
1.20504e-05
1.19034e-05
1.18204e-05
1.17835e-05
1.17594e-05
1.17931e-05
1.18414e-05
1.21583e-05
1.14022e-05
1.11288e-05
1.10502e-05
1.10384e-05
1.10562e-05
1.11151e-05
1.11967e-05
1.12731e-05
1.1374e-05
1.15341e-05
1.18778e-05
1.25864e-05
1.37298e-05
1.50886e-05
1.61978e-05
1.61873e-05
1.50881e-05
1.37385e-05
1.25905e-05
1.18933e-05
1.15619e-05
1.13931e-05
1.12875e-05
1.12062e-05
1.11367e-05
1.10882e-05
1.10383e-05
1.10651e-05
1.11338e-05
1.14426e-05
1.08128e-05
1.05214e-05
1.0455e-05
1.04554e-05
1.04877e-05
1.05486e-05
1.06149e-05
1.0669e-05
1.07272e-05
1.07756e-05
1.08431e-05
1.09917e-05
1.12977e-05
1.17768e-05
1.22564e-05
1.22509e-05
1.17714e-05
1.13047e-05
1.10094e-05
1.08654e-05
1.07893e-05
1.0742e-05
1.06886e-05
1.06335e-05
1.05671e-05
1.05061e-05
1.04728e-05
1.04705e-05
1.05439e-05
1.08457e-05
1.03003e-05
1.00001e-05
9.93908e-06
9.94473e-06
9.98033e-06
1.00309e-05
1.00831e-05
1.01203e-05
1.01484e-05
1.0155e-05
1.01523e-05
1.01516e-05
1.01745e-05
1.02326e-05
1.03075e-05
1.03056e-05
1.02312e-05
1.01811e-05
1.01675e-05
1.01716e-05
1.01674e-05
1.01575e-05
1.0132e-05
1.00962e-05
1.00464e-05
9.98574e-06
9.96177e-06
9.9533e-06
1.0024e-05
1.03287e-05
9.83823e-06
9.53611e-06
9.46571e-06
9.4773e-06
9.50502e-06
9.54826e-06
9.58176e-06
9.60043e-06
9.60022e-06
9.57772e-06
9.55107e-06
9.51904e-06
9.4792e-06
9.43978e-06
9.41467e-06
9.4151e-06
9.44098e-06
9.4807e-06
9.52505e-06
9.56487e-06
9.59462e-06
9.61235e-06
9.60706e-06
9.58344e-06
9.55115e-06
9.51694e-06
9.4981e-06
9.48506e-06
9.54767e-06
9.85294e-06
9.39633e-06
9.09119e-06
9.03045e-06
9.04179e-06
9.06735e-06
9.09399e-06
9.10471e-06
9.10234e-06
9.07853e-06
9.03845e-06
8.99393e-06
8.93999e-06
8.87925e-06
8.82224e-06
8.78294e-06
8.78824e-06
8.83311e-06
8.89038e-06
8.94888e-06
9.00468e-06
9.05528e-06
9.09204e-06
9.10791e-06
9.10865e-06
9.09649e-06
9.0787e-06
9.05896e-06
9.04669e-06
9.10939e-06
9.40692e-06
8.96848e-06
8.68495e-06
8.63642e-06
8.64002e-06
8.6568e-06
8.66307e-06
8.65884e-06
8.63727e-06
8.59381e-06
8.54132e-06
8.48504e-06
8.41726e-06
8.34228e-06
8.27708e-06
8.23723e-06
8.24384e-06
8.28947e-06
8.35189e-06
8.42152e-06
8.49303e-06
8.56111e-06
8.61318e-06
8.64501e-06
8.66127e-06
8.66106e-06
8.6512e-06
8.63814e-06
8.63771e-06
8.70339e-06
8.9805e-06
8.55136e-06
8.31069e-06
8.25895e-06
8.25645e-06
8.25344e-06
8.24787e-06
8.23397e-06
8.20141e-06
8.15106e-06
8.0883e-06
8.01672e-06
7.93835e-06
7.85965e-06
7.79202e-06
7.75047e-06
7.7562e-06
7.80341e-06
7.87014e-06
7.94579e-06
8.02546e-06
8.10389e-06
8.1683e-06
8.21175e-06
8.23651e-06
8.24525e-06
8.24646e-06
8.24693e-06
8.2574e-06
8.32013e-06
8.57315e-06
8.18944e-06
7.95732e-06
7.90155e-06
7.8924e-06
7.88342e-06
7.87365e-06
7.84893e-06
7.80613e-06
7.74629e-06
7.67378e-06
7.59586e-06
7.51504e-06
7.43474e-06
7.36451e-06
7.32071e-06
7.32367e-06
7.36897e-06
7.43644e-06
7.51572e-06
7.60109e-06
7.68583e-06
7.75731e-06
7.80818e-06
7.84076e-06
7.86191e-06
7.87693e-06
7.88834e-06
7.90219e-06
7.95769e-06
8.18878e-06
7.82288e-06
7.61543e-06
7.569e-06
7.55509e-06
7.54154e-06
7.51772e-06
7.48393e-06
7.43851e-06
7.37555e-06
7.30017e-06
7.22091e-06
7.13793e-06
7.05413e-06
6.98116e-06
6.93644e-06
6.93823e-06
6.98311e-06
7.0524e-06
7.13352e-06
7.21957e-06
7.30464e-06
7.37952e-06
7.43874e-06
7.48276e-06
7.51591e-06
7.54012e-06
7.55627e-06
7.57037e-06
7.621e-06
7.83139e-06
7.48794e-06
7.31289e-06
7.27067e-06
7.24837e-06
7.2222e-06
7.19043e-06
7.15644e-06
7.10788e-06
7.04163e-06
6.9676e-06
6.8889e-06
6.80211e-06
6.71365e-06
6.63976e-06
6.59708e-06
6.59918e-06
6.64209e-06
6.71041e-06
6.79235e-06
6.88065e-06
6.96892e-06
7.04873e-06
7.11402e-06
7.16357e-06
7.20082e-06
7.22836e-06
7.24812e-06
7.26623e-06
7.3161e-06
7.50352e-06
7.19567e-06
7.04667e-06
6.99563e-06
6.96704e-06
6.93495e-06
6.90745e-06
6.87257e-06
6.819e-06
6.75376e-06
6.68289e-06
6.60281e-06
6.51228e-06
6.42405e-06
6.3547e-06
6.31579e-06
6.31679e-06
6.35568e-06
6.42257e-06
6.50715e-06
6.59867e-06
6.68691e-06
6.76421e-06
6.82683e-06
6.87532e-06
6.91354e-06
6.94477e-06
6.97048e-06
6.99363e-06
7.04044e-06
7.20065e-06
6.92226e-06
6.78892e-06
6.73964e-06
6.71633e-06
6.69259e-06
6.66886e-06
6.62637e-06
6.57016e-06
6.50936e-06
6.43936e-06
6.3561e-06
6.26561e-06
6.18349e-06
6.12172e-06
6.08616e-06
6.08555e-06
6.12162e-06
6.18765e-06
6.27224e-06
6.36098e-06
6.44272e-06
6.51287e-06
6.57119e-06
6.62023e-06
6.66203e-06
6.69755e-06
6.72588e-06
6.7478e-06
6.7858e-06
6.91916e-06
6.67864e-06
6.55148e-06
6.52221e-06
6.50404e-06
6.48522e-06
6.45451e-06
6.40746e-06
6.35764e-06
6.3032e-06
6.23348e-06
6.1493e-06
6.06304e-06
5.98838e-06
5.93183e-06
5.89709e-06
5.89507e-06
5.92967e-06
5.99334e-06
6.07289e-06
6.15404e-06
6.22867e-06
6.29492e-06
6.3535e-06
6.40499e-06
6.44838e-06
6.48231e-06
6.50591e-06
6.52159e-06
6.55071e-06
6.66359e-06
6.4459e-06
6.3487e-06
6.32742e-06
6.30771e-06
6.28803e-06
6.2545e-06
6.21563e-06
6.17587e-06
6.12409e-06
6.05426e-06
5.97392e-06
5.89621e-06
5.82939e-06
5.77576e-06
5.74073e-06
5.73863e-06
5.77278e-06
5.83292e-06
5.90546e-06
5.97899e-06
6.04849e-06
6.11262e-06
6.17061e-06
6.22033e-06
6.25965e-06
6.28771e-06
6.30569e-06
6.31788e-06
6.34304e-06
6.44016e-06
6.24552e-06
6.18128e-06
6.15154e-06
6.13359e-06
6.1149e-06
6.08683e-06
6.05631e-06
6.01759e-06
5.96343e-06
5.89655e-06
5.82651e-06
5.76088e-06
5.70119e-06
5.64923e-06
5.61515e-06
5.61493e-06
5.64978e-06
5.70622e-06
5.77094e-06
5.83575e-06
5.89788e-06
5.95625e-06
6.00916e-06
6.05395e-06
6.08875e-06
6.11367e-06
6.13053e-06
6.14327e-06
6.16664e-06
6.2476e-06
6.09129e-06
6.02813e-06
5.99726e-06
5.98762e-06
5.97145e-06
5.94786e-06
5.9175e-06
5.8751e-06
5.82248e-06
5.76597e-06
5.71079e-06
5.65691e-06
5.60245e-06
5.55228e-06
5.52092e-06
5.52298e-06
5.5563e-06
5.60602e-06
5.66068e-06
5.7152e-06
5.76846e-06
5.8198e-06
5.86721e-06
5.90816e-06
5.94108e-06
5.96575e-06
5.98325e-06
5.99632e-06
6.0161e-06
6.079e-06
5.94311e-06
5.87873e-06
5.86394e-06
5.85992e-06
5.84393e-06
5.82112e-06
5.78934e-06
5.74891e-06
5.70524e-06
5.66223e-06
5.61938e-06
5.57258e-06
5.52155e-06
5.47504e-06
5.44764e-06
5.45005e-06
5.47829e-06
5.51947e-06
5.56517e-06
5.6124e-06
5.66008e-06
5.70673e-06
5.74999e-06
5.78767e-06
5.81824e-06
5.84114e-06
5.85695e-06
5.86782e-06
5.88273e-06
5.92946e-06
5.7993e-06
5.75702e-06
5.75693e-06
5.7488e-06
5.73146e-06
5.70931e-06
5.68032e-06
5.64721e-06
5.61324e-06
5.57907e-06
5.54147e-06
5.49757e-06
5.45064e-06
5.41033e-06
5.38746e-06
5.38877e-06
5.41126e-06
5.44576e-06
5.4863e-06
5.53006e-06
5.57477e-06
5.61775e-06
5.65638e-06
5.68874e-06
5.71396e-06
5.73211e-06
5.74413e-06
5.75214e-06
5.76338e-06
5.79951e-06
5.69028e-06
5.674e-06
5.66927e-06
5.65388e-06
5.63747e-06
5.6186e-06
5.5957e-06
5.57015e-06
5.54263e-06
5.5121e-06
5.47645e-06
5.4363e-06
5.39655e-06
5.36456e-06
5.34597e-06
5.34531e-06
5.36218e-06
5.39124e-06
5.42785e-06
5.46811e-06
5.50843e-06
5.5456e-06
5.57746e-06
5.60314e-06
5.62244e-06
5.63625e-06
5.64586e-06
5.65308e-06
5.66296e-06
5.69117e-06
5.61153e-06
5.60043e-06
5.5842e-06
5.57044e-06
5.55963e-06
5.54671e-06
5.53053e-06
5.5105e-06
5.48632e-06
5.45778e-06
5.42546e-06
5.39203e-06
5.36172e-06
5.33759e-06
5.32153e-06
5.31837e-06
5.32997e-06
5.35333e-06
5.38421e-06
5.4183e-06
5.45183e-06
5.48215e-06
5.50779e-06
5.52856e-06
5.54492e-06
5.55757e-06
5.56738e-06
5.57519e-06
5.58393e-06
5.60394e-06
5.53901e-06
5.52133e-06
5.50831e-06
5.50404e-06
5.49973e-06
5.49146e-06
5.47837e-06
5.46011e-06
5.43755e-06
5.41162e-06
5.38413e-06
5.3579e-06
5.33499e-06
5.31543e-06
5.30078e-06
5.29629e-06
5.30449e-06
5.32294e-06
5.34781e-06
5.37512e-06
5.40207e-06
5.42722e-06
5.44968e-06
5.46881e-06
5.4847e-06
5.49768e-06
5.508e-06
5.51566e-06
5.52211e-06
5.53359e-06
5.46757e-06
5.45508e-06
5.45586e-06
5.45805e-06
5.45515e-06
5.44635e-06
5.43229e-06
5.41459e-06
5.39444e-06
5.37225e-06
5.34969e-06
5.32882e-06
5.30987e-06
5.29254e-06
5.27901e-06
5.27477e-06
5.2823e-06
5.29847e-06