/*--------------------------------*- C++ -*----------------------------------*\
| =========                 |                                                 |
| \\      /  F ield         | OpenFOAM: The Open Source CFD Toolbox           |
|  \\    /   O peration     | Version:  2312                                  |
|   \\  /    A nd           | Website:  www.openfoam.com                      |
|    \\/     M anipulation  |                                                 |
\*---------------------------------------------------------------------------*/
FoamFile
{
    version     2.0;
    format      ascii;
    arch        "LSB;label=32;scalar=64";
    class       volScalarField;
    location    "1.30953105";
    object      p;
}
// * * * * * * * * * * * * * * * * * * * * * * * * * * * * * * * * * * * * * //

dimensions      [1 -1 -2 0 0 0 0];

internalField   nonuniform List<scalar> 
90000
(
4849.17
4849.17
4849.17
4849.17
4849.17
4849.17
4849.17
4849.17
4849.17
4849.16
4849.16
4849.16
4849.16
4849.16
4849.16
4849.17
4849.17
4849.17
4849.17
4849.17
4849.17
4849.17
4849.17
4849.17
4849.17
4849.17
4849.17
4849.17
4849.17
4849.17
4751.07
4751.07
4751.07
4751.07
4751.07
4751.07
4751.07
4751.07
4751.07
4751.07
4751.07
4751.07
4751.07
4751.07
4751.07
4751.07
4751.07
4751.07
4751.07
4751.07
4751.07
4751.07
4751.07
4751.07
4751.07
4751.07
4751.07
4751.07
4751.08
4751.07
4652.96
4652.96
4652.96
4652.96
4652.96
4652.96
4652.96
4652.97
4652.97
4652.97
4652.97
4652.97
4652.97
4652.97
4652.97
4652.97
4652.97
4652.97
4652.97
4652.97
4652.97
4652.97
4652.97
4652.97
4652.97
4652.97
4652.97
4652.97
4652.97
4652.97
4554.86
4554.86
4554.86
4554.86
4554.86
4554.86
4554.87
4554.87
4554.87
4554.87
4554.87
4554.87
4554.87
4554.87
4554.87
4554.87
4554.87
4554.87
4554.87
4554.87
4554.87
4554.87
4554.87
4554.87
4554.87
4554.87
4554.87
4554.87
4554.87
4554.87
4456.76
4456.76
4456.76
4456.76
4456.76
4456.76
4456.77
4456.77
4456.77
4456.77
4456.77
4456.77
4456.77
4456.77
4456.77
4456.77
4456.77
4456.77
4456.77
4456.77
4456.77
4456.77
4456.77
4456.77
4456.77
4456.77
4456.77
4456.77
4456.77
4456.77
4358.66
4358.66
4358.66
4358.66
4358.66
4358.67
4358.67
4358.67
4358.67
4358.67
4358.67
4358.67
4358.67
4358.68
4358.68
4358.68
4358.68
4358.68
4358.67
4358.67
4358.67
4358.67
4358.67
4358.67
4358.67
4358.67
4358.67
4358.67
4358.67
4358.67
4260.57
4260.57
4260.57
4260.57
4260.57
4260.57
4260.57
4260.57
4260.57
4260.57
4260.57
4260.57
4260.57
4260.58
4260.58
4260.58
4260.58
4260.58
4260.58
4260.58
4260.58
4260.57
4260.57
4260.57
4260.57
4260.57
4260.57
4260.57
4260.57
4260.57
4162.47
4162.47
4162.47
4162.47
4162.47
4162.47
4162.47
4162.47
4162.47
4162.47
4162.47
4162.47
4162.48
4162.48
4162.48
4162.48
4162.48
4162.48
4162.48
4162.48
4162.48
4162.47
4162.47
4162.47
4162.47
4162.47
4162.47
4162.47
4162.47
4162.47
4064.37
4064.38
4064.38
4064.37
4064.37
4064.37
4064.37
4064.37
4064.37
4064.37
4064.37
4064.38
4064.38
4064.38
4064.38
4064.38
4064.38
4064.38
4064.38
4064.38
4064.38
4064.38
4064.37
4064.37
4064.37
4064.37
4064.37
4064.37
4064.37
4064.37
3966.28
3966.28
3966.28
3966.28
3966.28
3966.28
3966.28
3966.28
3966.28
3966.28
3966.28
3966.28
3966.28
3966.28
3966.28
3966.28
3966.28
3966.28
3966.28
3966.28
3966.28
3966.28
3966.28
3966.27
3966.27
3966.27
3966.27
3966.27
3966.27
3966.27
3868.18
3868.18
3868.18
3868.18
3868.18
3868.18
3868.18
3868.18
3868.18
3868.18
3868.18
3868.18
3868.19
3868.19
3868.19
3868.19
3868.19
3868.19
3868.19
3868.19
3868.18
3868.18
3868.18
3868.18
3868.18
3868.18
3868.18
3868.18
3868.18
3868.18
3770.08
3770.08
3770.08
3770.08
3770.08
3770.08
3770.08
3770.08
3770.08
3770.09
3770.09
3770.09
3770.09
3770.09
3770.09
3770.09
3770.09
3770.09
3770.09
3770.09
3770.09
3770.09
3770.09
3770.08
3770.08
3770.08
3770.08
3770.08
3770.08
3770.08
3671.98
3671.98
3671.98
3671.98
3671.98
3671.98
3671.98
3671.99
3671.99
3671.99
3671.99
3671.99
3672
3672
3672
3672
3672
3672
3671.99
3671.99
3671.99
3671.99
3671.99
3671.99
3671.99
3671.99
3671.98
3671.98
3671.98
3671.98
3573.88
3573.88
3573.88
3573.88
3573.88
3573.89
3573.89
3573.89
3573.89
3573.9
3573.9
3573.9
3573.9
3573.9
3573.9
3573.9
3573.9
3573.9
3573.9
3573.9
3573.9
3573.89
3573.89
3573.89
3573.89
3573.89
3573.89
3573.89
3573.88
3573.88
3475.78
3475.78
3475.78
3475.78
3475.79
3475.79
3475.79
3475.8
3475.8
3475.8
3475.8
3475.8
3475.81
3475.81
3475.81
3475.81
3475.8
3475.8
3475.8
3475.8
3475.8
3475.8
3475.8
3475.79
3475.79
3475.79
3475.79
3475.79
3475.79
3475.79
3377.69
3377.69
3377.69
3377.69
3377.69
3377.7
3377.7
3377.7
3377.7
3377.7
3377.71
3377.71
3377.71
3377.71
3377.71
3377.71
3377.71
3377.7
3377.7
3377.7
3377.7
3377.7
3377.7
3377.7
3377.69
3377.69
3377.69
3377.69
3377.69
3377.69
3279.59
3279.59
3279.59
3279.6
3279.6
3279.6
3279.6
3279.6
3279.6
3279.61
3279.61
3279.61
3279.61
3279.61
3279.61
3279.61
3279.61
3279.61
3279.61
3279.6
3279.6
3279.6
3279.6
3279.6
3279.6
3279.59
3279.59
3279.59
3279.59
3279.59
3181.5
3181.5
3181.5
3181.5
3181.5
3181.5
3181.5
3181.5
3181.51
3181.51
3181.51
3181.51
3181.51
3181.51
3181.51
3181.51
3181.51
3181.51
3181.51
3181.51
3181.51
3181.5
3181.5
3181.5
3181.5
3181.49
3181.49
3181.49
3181.49
3181.49
3083.4
3083.4
3083.4
3083.4
3083.4
3083.4
3083.4
3083.41
3083.41
3083.41
3083.41
3083.41
3083.41
3083.41
3083.41
3083.41
3083.41
3083.41
3083.41
3083.41
3083.41
3083.4
3083.4
3083.4
3083.4
3083.39
3083.39
3083.39
3083.39
3083.39
2985.3
2985.3
2985.3
2985.3
2985.3
2985.3
2985.31
2985.31
2985.31
2985.31
2985.31
2985.31
2985.31
2985.31
2985.31
2985.32
2985.32
2985.31
2985.31
2985.31
2985.31
2985.31
2985.3
2985.3
2985.3
2985.3
2985.29
2985.29
2985.29
2985.29
2887.19
2887.2
2887.2
2887.2
2887.2
2887.2
2887.21
2887.21
2887.21
2887.21
2887.21
2887.21
2887.21
2887.21
2887.22
2887.22
2887.22
2887.22
2887.21
2887.21
2887.21
2887.21
2887.21
2887.2
2887.2
2887.2
2887.19
2887.19
2887.19
2887.19
2789.09
2789.09
2789.09
2789.1
2789.1
2789.1
2789.1
2789.11
2789.11
2789.11
2789.11
2789.11
2789.11
2789.12
2789.12
2789.12
2789.12
2789.12
2789.11
2789.11
2789.11
2789.11
2789.11
2789.1
2789.1
2789.1
2789.09
2789.09
2789.09
2789.09
2690.99
2690.99
2690.99
2690.99
2690.99
2691
2691
2691
2691
2691.01
2691.01
2691.01
2691.02
2691.02
2691.02
2691.02
2691.02
2691.02
2691.01
2691.01
2691.01
2691.01
2691
2691
2691
2690.99
2690.99
2690.99
2690.98
2690.98
2592.88
2592.88
2592.88
2592.88
2592.89
2592.89
2592.89
2592.9
2592.9
2592.91
2592.91
2592.91
2592.92
2592.92
2592.92
2592.92
2592.92
2592.91
2592.91
2592.91
2592.91
2592.91
2592.9
2592.9
2592.89
2592.89
2592.89
2592.88
2592.88
2592.88
2494.77
2494.77
2494.77
2494.78
2494.78
2494.78
2494.79
2494.79
2494.8
2494.8
2494.81
2494.81
2494.82
2494.82
2494.82
2494.82
2494.82
2494.82
2494.81
2494.81
2494.81
2494.8
2494.8
2494.79
2494.79
2494.78
2494.78
2494.78
2494.78
2494.78
2396.66
2396.66
2396.67
2396.67
2396.67
2396.68
2396.68
2396.69
2396.7
2396.7
2396.71
2396.71
2396.72
2396.72
2396.72
2396.72
2396.72
2396.72
2396.71
2396.71
2396.7
2396.7
2396.69
2396.69
2396.68
2396.68
2396.67
2396.67
2396.67
2396.67
2298.55
2298.55
2298.56
2298.56
2298.57
2298.57
2298.58
2298.58
2298.59
2298.6
2298.61
2298.61
2298.62
2298.62
2298.62
2298.62
2298.62
2298.61
2298.61
2298.6
2298.6
2298.59
2298.58
2298.58
2298.57
2298.57
2298.56
2298.56
2298.56
2298.56
2200.44
2200.44
2200.45
2200.45
2200.46
2200.46
2200.47
2200.48
2200.49
2200.49
2200.5
2200.51
2200.51
2200.51
2200.52
2200.52
2200.51
2200.51
2200.5
2200.5
2200.49
2200.48
2200.48
2200.47
2200.46
2200.46
2200.45
2200.45
2200.45
2200.45
2102.33
2102.33
2102.34
2102.34
2102.35
2102.35
2102.36
2102.37
2102.38
2102.39
2102.4
2102.4
2102.41
2102.41
2102.41
2102.41
2102.41
2102.41
2102.4
2102.39
2102.38
2102.38
2102.37
2102.36
2102.35
2102.34
2102.34
2102.33
2102.33
2102.33
2004.21
2004.21
2004.22
2004.22
2004.23
2004.24
2004.25
2004.26
2004.27
2004.28
2004.29
2004.3
2004.3
2004.31
2004.31
2004.31
2004.31
2004.3
2004.3
2004.29
2004.28
2004.27
2004.26
2004.25
2004.24
2004.23
2004.22
2004.22
2004.21
2004.21
1906.09
1906.09
1906.1
1906.1
1906.11
1906.12
1906.14
1906.15
1906.16
1906.17
1906.18
1906.19
1906.2
1906.2
1906.21
1906.21
1906.21
1906.2
1906.19
1906.18
1906.17
1906.16
1906.15
1906.14
1906.12
1906.11
1906.1
1906.1
1906.09
1906.09
1807.96
1807.97
1807.97
1807.98
1807.99
1808
1808.02
1808.03
1808.04
1808.06
1808.07
1808.08
1808.09
1808.1
1808.1
1808.1
1808.1
1808.09
1808.09
1808.07
1808.06
1808.05
1808.03
1808.02
1808
1807.99
1807.98
1807.97
1807.96
1807.96
1709.83
1709.83
1709.84
1709.85
1709.86
1709.88
1709.89
1709.91
1709.93
1709.94
1709.96
1709.98
1709.99
1709.99
1710
1710
1709.99
1709.99
1709.97
1709.96
1709.95
1709.93
1709.91
1709.89
1709.88
1709.86
1709.85
1709.84
1709.83
1709.83
1611.68
1611.69
1611.7
1611.71
1611.72
1611.74
1611.76
1611.78
1611.81
1611.83
1611.85
1611.86
1611.88
1611.89
1611.89
1611.89
1611.88
1611.88
1611.86
1611.85
1611.83
1611.81
1611.79
1611.77
1611.75
1611.73
1611.71
1611.7
1611.69
1611.68
1513.53
1513.54
1513.55
1513.56
1513.58
1513.6
1513.63
1513.65
1513.68
1513.71
1513.73
1513.75
1513.76
1513.77
1513.78
1513.78
1513.77
1513.76
1513.75
1513.73
1513.71
1513.68
1513.66
1513.63
1513.61
1513.58
1513.56
1513.55
1513.54
1513.53
1415.36
1415.37
1415.38
1415.4
1415.42
1415.45
1415.48
1415.51
1415.55
1415.58
1415.6
1415.63
1415.64
1415.66
1415.67
1415.67
1415.66
1415.65
1415.63
1415.6
1415.58
1415.55
1415.51
1415.48
1415.45
1415.43
1415.4
1415.38
1415.37
1415.37
1317.18
1317.19
1317.21
1317.23
1317.26
1317.29
1317.33
1317.37
1317.4
1317.44
1317.47
1317.5
1317.52
1317.54
1317.55
1317.55
1317.54
1317.52
1317.5
1317.47
1317.44
1317.4
1317.36
1317.33
1317.29
1317.26
1317.23
1317.21
1317.19
1317.18
1218.98
1218.99
1219.01
1219.04
1219.08
1219.12
1219.16
1219.21
1219.25
1219.3
1219.34
1219.37
1219.4
1219.42
1219.43
1219.43
1219.42
1219.4
1219.37
1219.33
1219.29
1219.25
1219.2
1219.16
1219.11
1219.07
1219.04
1219.01
1218.99
1218.99
1120.76
1120.77
1120.8
1120.83
1120.88
1120.93
1120.98
1121.04
1121.09
1121.14
1121.19
1121.24
1121.27
1121.29
1121.3
1121.3
1121.29
1121.27
1121.23
1121.19
1121.14
1121.09
1121.03
1120.97
1120.92
1120.87
1120.83
1120.8
1120.78
1120.76
1022.51
1022.53
1022.56
1022.6
1022.66
1022.72
1022.78
1022.85
1022.92
1022.99
1023.04
1023.1
1023.14
1023.16
1023.18
1023.18
1023.16
1023.13
1023.09
1023.04
1022.98
1022.92
1022.85
1022.78
1022.71
1022.65
1022.6
1022.56
1022.53
1022.51
924.235
924.255
924.293
924.346
924.412
924.488
924.571
924.656
924.74
924.82
924.893
924.954
925.003
925.036
925.053
925.053
925.036
925.002
924.953
924.891
924.819
924.738
924.653
924.567
924.485
924.408
924.343
924.289
924.251
924.23
825.915
825.94
825.988
826.056
826.141
826.237
826.341
826.448
826.552
826.65
826.738
826.813
826.871
826.911
826.932
826.932
826.912
826.871
826.812
826.737
826.649
826.55
826.445
826.338
826.234
826.138
826.052
825.984
825.935
825.91
727.542
727.576
727.638
727.727
727.838
727.962
728.094
728.228
728.357
728.478
728.585
728.677
728.747
728.795
728.82
728.821
728.796
728.747
728.677
728.586
728.478
728.356
728.226
728.092
727.959
727.834
727.723
727.633
727.57
727.536
629.101
629.146
629.231
629.35
629.496
629.659
629.83
630.001
630.164
630.315
630.446
630.555
630.641
630.699
630.728
630.729
630.699
630.642
630.556
630.446
630.314
630.164
630
629.828
629.656
629.492
629.346
629.226
629.139
629.093
530.569
530.631
530.748
530.912
531.11
531.328
531.553
531.774
531.982
532.17
532.332
532.466
532.568
532.639
532.674
532.675
532.639
532.57
532.467
532.333
532.171
531.983
531.773
531.551
531.325
531.105
530.907
530.742
530.625
530.562
431.916
431.999
432.165
432.396
432.671
432.968
433.267
433.56
433.831
434.069
434.271
434.435
434.56
434.644
434.688
434.688
434.645
434.561
434.438
434.274
434.072
433.833
433.561
433.266
432.963
432.665
432.389
432.158
431.994
431.912
333.091
333.194
333.443
333.773
334.165
334.576
334.982
335.376
335.744
336.049
336.304
336.51
336.662
336.765
336.819
336.818
336.766
336.662
336.513
336.308
336.053
335.747
335.379
334.98
334.57
334.156
333.762
333.434
333.189
333.091
234.011
234.131
234.525
234.998
235.574
236.155
236.695
237.237
237.774
238.154
238.482
238.758
238.943
239.073
239.148
239.142
239.076
238.942
238.759
238.488
238.159
237.779
237.248
236.694
236.143
235.554
234.976
234.512
234.124
234.018
134.621
134.666
135.386
136.032
136.918
137.767
138.415
139.148
140.127
140.464
140.88
141.273
141.558
141.689
141.78
141.755
141.704
141.546
141.293
140.889
140.457
140.133
139.201
138.416
137.739
136.871
135.976
135.373
134.652
134.634
45.822
46.2453
46.2881
47.5377
47.6415
48.6316
48.6828
49.2567
51.1697
50.6145
51.0403
51.702
52.2269
52.1935
52.0377
51.9596
52.2441
52.1586
51.7932
51.0038
50.5512
51.1634
49.4302
48.6811
48.5688
47.5705
47.3918
46.3376
46.2768
45.815
0.899295
1.60827
0.904188
1.99776
1.3003
1.91539
1.48489
1.48241
3.00837
2.03805
2.28621
2.68011
3.20711
3.06674
2.75633
2.68945
3.12443
3.12907
2.78929
2.24812
1.98124
2.99592
1.64107
1.46917
1.86164
1.27497
1.88111
0.990708
1.65921
0.862016
-5.00921
-5.01745
-5.01427
-5.02775
-5.0221
-5.03004
-5.02622
-5.02626
-5.04548
-5.0308
-5.03499
-5.0403
-5.04416
-5.04248
-5.03958
-5.03887
-5.04246
-5.0424
-5.04076
-5.03347
-5.029
-5.043
-5.02687
-5.02387
-5.02701
-5.01891
-5.02403
-5.01185
-5.01573
-5.00607
-5.12106
-5.12249
-5.12399
-5.12784
-5.12783
-5.12863
-5.12923
-5.13034
-5.13472
-5.13298
-5.13469
-5.13644
-5.13729
-5.13719
-5.13678
-5.13663
-5.13677
-5.13651
-5.136
-5.13428
-5.1324
-5.13405
-5.12999
-5.12836
-5.1274
-5.12639
-5.12635
-5.12243
-5.12145
-5.11984
-5.22799
-5.22843
-5.22873
-5.23048
-5.23111
-5.23095
-5.23138
-5.23172
-5.23247
-5.23272
-5.23329
-5.23359
-5.2337
-5.23359
-5.23335
-5.23334
-5.23353
-5.23354
-5.23346
-5.23324
-5.23273
-5.23245
-5.23164
-5.23122
-5.23067
-5.23118
-5.2302
-5.22863
-5.228
-5.2279
-5.32905
-5.32971
-5.32983
-5.33008
-5.33099
-5.33154
-5.33158
-5.33157
-5.332
-5.33232
-5.3322
-5.33184
-5.33179
-5.33145
-5.33127
-5.3313
-5.33161
-5.33198
-5.33199
-5.33223
-5.33222
-5.33193
-5.3315
-5.33142
-5.33129
-5.33078
-5.32982
-5.32953
-5.32955
-5.32882
-5.42919
-5.42946
-5.42955
-5.42997
-5.43054
-5.43071
-5.43069
-5.43077
-5.43096
-5.43108
-5.43093
-5.43065
-5.43044
-5.43022
-5.42997
-5.42998
-5.43032
-5.43061
-5.43078
-5.43095
-5.43101
-5.43078
-5.43052
-5.4304
-5.43034
-5.43016
-5.42959
-5.42928
-5.42931
-5.429
-5.52886
-5.52899
-5.52914
-5.52939
-5.52976
-5.52985
-5.52984
-5.52986
-5.52988
-5.52989
-5.52987
-5.52983
-5.52976
-5.52963
-5.52944
-5.52941
-5.52964
-5.52982
-5.5299
-5.52989
-5.52981
-5.52968
-5.52956
-5.52952
-5.52945
-5.52938
-5.52903
-5.52886
-5.52881
-5.52872
-5.6283
-5.62842
-5.62854
-5.62868
-5.62895
-5.62906
-5.62908
-5.62908
-5.62906
-5.62901
-5.62899
-5.62903
-5.62907
-5.62909
-5.62909
-5.62906
-5.62908
-5.6291
-5.62905
-5.62897
-5.6289
-5.62884
-5.6288
-5.62876
-5.6287
-5.62861
-5.62842
-5.6283
-5.62826
-5.62819
-5.72764
-5.7277
-5.72783
-5.72796
-5.72816
-5.72831
-5.7284
-5.72844
-5.72844
-5.7284
-5.72836
-5.72839
-5.72844
-5.72848
-5.72852
-5.72854
-5.72847
-5.72842
-5.72837
-5.72832
-5.72827
-5.7282
-5.72817
-5.7281
-5.72802
-5.72789
-5.72774
-5.72764
-5.72758
-5.72753
-5.82687
-5.8269
-5.82703
-5.82718
-5.82738
-5.82757
-5.82773
-5.82781
-5.82786
-5.82787
-5.82788
-5.82791
-5.82794
-5.82797
-5.82798
-5.82798
-5.82793
-5.82789
-5.82786
-5.82779
-5.82772
-5.82764
-5.82759
-5.82748
-5.82735
-5.82718
-5.82701
-5.8269
-5.8268
-5.82677
-5.92599
-5.92605
-5.92617
-5.92633
-5.92655
-5.92679
-5.927
-5.92714
-5.92724
-5.92732
-5.92738
-5.92744
-5.92748
-5.9275
-5.92751
-5.92749
-5.92745
-5.9274
-5.92735
-5.92728
-5.9272
-5.9271
-5.92699
-5.92684
-5.92665
-5.92644
-5.92622
-5.92607
-5.92597
-5.92594
-6.02505
-6.0251
-6.02522
-6.02541
-6.02566
-6.02593
-6.02618
-6.02637
-6.02654
-6.02667
-6.02678
-6.02687
-6.02695
-6.02698
-6.02698
-6.02696
-6.02692
-6.02688
-6.02682
-6.02673
-6.02662
-6.02649
-6.02632
-6.02612
-6.02587
-6.0256
-6.02536
-6.02519
-6.02509
-6.02505
-6.12406
-6.12411
-6.12424
-6.12443
-6.12469
-6.12498
-6.12526
-6.12551
-6.12572
-6.1259
-6.12606
-6.12619
-6.12629
-6.12634
-6.12635
-6.12633
-6.1263
-6.12624
-6.12616
-6.12605
-6.1259
-6.12572
-6.1255
-6.12525
-6.12497
-6.12467
-6.12443
-6.12426
-6.12416
-6.12412
-6.22304
-6.22309
-6.22319
-6.22338
-6.22362
-6.22392
-6.22423
-6.22451
-6.22475
-6.22496
-6.22516
-6.22533
-6.22544
-6.2255
-6.22551
-6.22551
-6.22548
-6.22541
-6.2253
-6.22516
-6.22498
-6.22477
-6.22452
-6.22424
-6.22395
-6.22366
-6.22344
-6.22328
-6.22319
-6.22316
-6.32198
-6.32201
-6.32211
-6.32226
-6.32249
-6.32276
-6.32305
-6.32333
-6.32359
-6.32382
-6.32404
-6.32421
-6.32434
-6.32441
-6.32444
-6.32444
-6.32442
-6.32435
-6.32422
-6.32406
-6.32387
-6.32365
-6.3234
-6.32312
-6.32284
-6.32259
-6.32238
-6.32225
-6.32218
-6.32216
-6.42088
-6.42091
-6.42098
-6.4211
-6.42129
-6.42153
-6.42179
-6.42204
-6.42227
-6.4225
-6.42272
-6.4229
-6.42303
-6.42311
-6.42315
-6.42317
-6.42315
-6.42307
-6.42294
-6.42278
-6.4226
-6.4224
-6.42216
-6.42192
-6.42166
-6.42143
-6.42126
-6.42115
-6.4211
-6.42108
-6.51971
-6.51975
-6.5198
-6.51989
-6.52003
-6.52022
-6.52045
-6.52067
-6.52087
-6.52107
-6.52127
-6.52144
-6.52157
-6.52165
-6.5217
-6.52173
-6.52172
-6.52165
-6.52153
-6.52137
-6.52121
-6.52104
-6.52084
-6.52062
-6.5204
-6.52021
-6.52007
-6.51998
-6.51993
-6.5199
-6.61848
-6.61851
-6.61854
-6.6186
-6.61871
-6.61888
-6.61906
-6.61924
-6.6194
-6.61957
-6.61974
-6.6199
-6.62003
-6.62011
-6.62016
-6.6202
-6.62019
-6.62013
-6.62001
-6.61988
-6.61975
-6.6196
-6.61943
-6.61925
-6.61907
-6.61891
-6.61879
-6.61871
-6.61865
-6.61861
-6.71714
-6.71716
-6.71719
-6.71724
-6.71733
-6.71747
-6.71761
-6.71775
-6.71788
-6.71802
-6.71818
-6.71832
-6.71843
-6.71851
-6.71856
-6.7186
-6.71859
-6.71853
-6.71843
-6.71832
-6.7182
-6.71808
-6.71795
-6.7178
-6.71765
-6.71752
-6.71742
-6.71733
-6.71727
-6.71723
-6.81569
-6.81572
-6.81575
-6.8158
-6.81587
-6.81598
-6.81611
-6.81622
-6.81633
-6.81645
-6.81658
-6.81669
-6.81678
-6.81686
-6.81692
-6.81695
-6.81693
-6.81687
-6.81679
-6.8167
-6.81661
-6.81651
-6.81639
-6.81627
-6.81614
-6.81603
-6.81593
-6.81586
-6.8158
-6.81577
-6.91417
-6.91419
-6.91422
-6.91426
-6.91432
-6.91442
-6.91453
-6.91463
-6.91472
-6.91483
-6.91492
-6.91501
-6.9151
-6.91518
-6.91524
-6.91525
-6.91522
-6.91516
-6.9151
-6.91504
-6.91496
-6.91487
-6.91476
-6.91464
-6.91454
-6.91445
-6.91437
-6.9143
-6.91425
-6.91421
-7.01256
-7.01259
-7.01261
-7.01266
-7.01272
-7.01281
-7.01289
-7.01297
-7.01306
-7.01314
-7.01321
-7.01328
-7.01337
-7.01346
-7.01351
-7.01351
-7.01347
-7.01342
-7.01337
-7.01331
-7.01324
-7.01315
-7.01305
-7.01295
-7.01287
-7.01281
-7.01274
-7.01268
-7.01261
-7.01257
-7.1109
-7.11092
-7.11096
-7.111
-7.11105
-7.11111
-7.11117
-7.11125
-7.11133
-7.11139
-7.11145
-7.11151
-7.1116
-7.11168
-7.11172
-7.11171
-7.11168
-7.11163
-7.11159
-7.11153
-7.11145
-7.11137
-7.11129
-7.11123
-7.11117
-7.11112
-7.11105
-7.11098
-7.11092
-7.11088
-7.20918
-7.2092
-7.20924
-7.20927
-7.20931
-7.20935
-7.20941
-7.20948
-7.20955
-7.20959
-7.20964
-7.20971
-7.20979
-7.20985
-7.20988
-7.20988
-7.20985
-7.20982
-7.20977
-7.2097
-7.20963
-7.20956
-7.2095
-7.20946
-7.20942
-7.20937
-7.20931
-7.20924
-7.20919
-7.20917
-7.30742
-7.30745
-7.30747
-7.3075
-7.30754
-7.30757
-7.30761
-7.30767
-7.30771
-7.30775
-7.30781
-7.30788
-7.30795
-7.308
-7.30802
-7.30802
-7.30801
-7.30798
-7.30792
-7.30785
-7.30777
-7.30771
-7.30767
-7.30764
-7.30762
-7.30758
-7.30754
-7.30749
-7.30746
-7.30745
-7.40564
-7.40565
-7.40566
-7.4057
-7.40573
-7.40576
-7.40579
-7.40582
-7.40585
-7.4059
-7.40597
-7.40604
-7.40609
-7.40613
-7.40615
-7.40615
-7.40614
-7.40611
-7.40605
-7.40597
-7.4059
-7.40584
-7.40581
-7.4058
-7.40579
-7.40577
-7.40575
-7.40572
-7.4057
-7.40569
-7.50379
-7.50378
-7.50382
-7.50387
-7.50389
-7.50391
-7.50392
-7.50394
-7.50398
-7.50404
-7.50412
-7.50418
-7.50421
-7.50423
-7.50424
-7.50425
-7.50424
-7.5042
-7.50414
-7.50407
-7.50401
-7.50397
-7.50395
-7.50394
-7.50394
-7.50394
-7.50393
-7.50392
-7.5039
-7.5039
-7.60191
-7.60193
-7.60197
-7.60201
-7.60203
-7.60204
-7.60205
-7.60207
-7.60211
-7.60218
-7.60224
-7.60228
-7.60231
-7.60232
-7.60233
-7.60233
-7.60232
-7.60228
-7.60222
-7.60217
-7.60213
-7.6021
-7.60209
-7.60208
-7.60208
-7.60208
-7.60208
-7.60208
-7.60208
-7.60208
-7.70007
-7.70009
-7.70012
-7.70014
-7.70016
-7.70018
-7.70019
-7.70021
-7.70025
-7.70029
-7.70034
-7.70037
-7.7004
-7.70042
-7.70043
-7.70043
-7.7004
-7.70036
-7.70031
-7.70027
-7.70024
-7.70023
-7.70021
-7.7002
-7.7002
-7.7002
-7.70021
-7.70023
-7.70025
-7.70026
-7.79823
-7.79824
-7.79825
-7.79827
-7.79829
-7.79831
-7.79833
-7.79835
-7.79837
-7.7984
-7.79843
-7.79847
-7.7985
-7.79853
-7.79854
-7.79852
-7.79849
-7.79844
-7.7984
-7.79837
-7.79835
-7.79833
-7.79832
-7.79831
-7.79831
-7.79833
-7.79836
-7.79839
-7.79843
-7.79844
-7.89637
-7.89637
-7.89638
-7.8964
-7.89642
-7.89645
-7.89646
-7.89647
-7.89649
-7.8965
-7.89653
-7.89657
-7.8966
-7.89662
-7.89662
-7.8966
-7.89657
-7.89653
-7.8965
-7.89647
-7.89645
-7.89644
-7.89642
-7.89642
-7.89643
-7.89647
-7.89651
-7.89656
-7.89659
-7.89661
-7.99451
-7.99451
-7.99452
-7.99454
-7.99456
-7.99457
-7.99457
-7.99458
-7.99459
-7.99461
-7.99464
-7.99467
-7.99469
-7.9947
-7.9947
-7.99468
-7.99466
-7.99463
-7.99461
-7.99459
-7.99457
-7.99455
-7.99454
-7.99454
-7.99456
-7.9946
-7.99465
-7.99469
-7.99473
-7.99474
-8.09266
-8.09267
-8.09268
-8.09268
-8.09267
-8.09267
-8.09268
-8.09269
-8.09271
-8.09274
-8.09276
-8.09278
-8.09279
-8.09279
-8.09278
-8.09278
-8.09277
-8.09276
-8.09275
-8.09273
-8.09271
-8.09269
-8.09268
-8.09268
-8.0927
-8.09273
-8.09277
-8.09281
-8.09283
-8.09284
-8.19083
-8.19084
-8.19083
-8.19081
-8.19079
-8.19078
-8.19079
-8.19082
-8.19085
-8.19088
-8.1909
-8.1909
-8.1909
-8.1909
-8.1909
-8.1909
-8.19091
-8.19091
-8.1909
-8.19088
-8.19085
-8.19083
-8.19082
-8.19082
-8.19083
-8.19085
-8.19088
-8.1909
-8.19092
-8.19092
-8.28899
-8.28899
-8.28896
-8.28893
-8.28891
-8.28891
-8.28893
-8.28896
-8.289
-8.28902
-8.28903
-8.28904
-8.28904
-8.28904
-8.28904
-8.28905
-8.28905
-8.28905
-8.28904
-8.28902
-8.28899
-8.28897
-8.28896
-8.28896
-8.28896
-8.28897
-8.28898
-8.28899
-8.289
-8.289
-8.38712
-8.38711
-8.38708
-8.38706
-8.38705
-8.38706
-8.38708
-8.38711
-8.38714
-8.38716
-8.38717
-8.38718
-8.38719
-8.38719
-8.3872
-8.3872
-8.3872
-8.38719
-8.38717
-8.38715
-8.38713
-8.38712
-8.38711
-8.3871
-8.3871
-8.3871
-8.38709
-8.38709
-8.38708
-8.38707
-8.48523
-8.48521
-8.4852
-8.4852
-8.4852
-8.48521
-8.48523
-8.48525
-8.48527
-8.48529
-8.48531
-8.48533
-8.48535
-8.48536
-8.48536
-8.48536
-8.48535
-8.48533
-8.48531
-8.4853
-8.48528
-8.48527
-8.48526
-8.48525
-8.48523
-8.48521
-8.48519
-8.48517
-8.48515
-8.48514
-8.58333
-8.58332
-8.58333
-8.58334
-8.58335
-8.58336
-8.58337
-8.58338
-8.5834
-8.58343
-8.58346
-8.58349
-8.58351
-8.58352
-8.58353
-8.58352
-8.58351
-8.58349
-8.58347
-8.58345
-8.58344
-8.58342
-8.58341
-8.58338
-8.58335
-8.58332
-8.58328
-8.58325
-8.58323
-8.58321
-8.68143
-8.68144
-8.68145
-8.68146
-8.68148
-8.68149
-8.6815
-8.68152
-8.68155
-8.68158
-8.68161
-8.68164
-8.68166
-8.68168
-8.68168
-8.68167
-8.68166
-8.68165
-8.68163
-8.68162
-8.6816
-8.68158
-8.68155
-8.68151
-8.68147
-8.68142
-8.68137
-8.68133
-8.6813
-8.68129
-8.77954
-8.77954
-8.77956
-8.77957
-8.77959
-8.77962
-8.77964
-8.77967
-8.7797
-8.77973
-8.77976
-8.77978
-8.77979
-8.7798
-8.77981
-8.77981
-8.7798
-8.7798
-8.77979
-8.77978
-8.77976
-8.77973
-8.77969
-8.77964
-8.77959
-8.77953
-8.77947
-8.77943
-8.7794
-8.77939
-8.87763
-8.87763
-8.87765
-8.87767
-8.87771
-8.87774
-8.87778
-8.87782
-8.87785
-8.87787
-8.87789
-8.8779
-8.87791
-8.87792
-8.87793
-8.87793
-8.87794
-8.87794
-8.87794
-8.87793
-8.8779
-8.87787
-8.87782
-8.87777
-8.87771
-8.87765
-8.87759
-8.87755
-8.87752
-8.87751
-8.97572
-8.97572
-8.97574
-8.97578
-8.97582
-8.97587
-8.97591
-8.97595
-8.97598
-8.976
-8.97601
-8.97602
-8.97603
-8.97604
-8.97605
-8.97606
-8.97607
-8.97608
-8.97608
-8.97607
-8.97604
-8.976
-8.97595
-8.9759
-8.97584
-8.97578
-8.97572
-8.97568
-8.97566
-8.97565
-9.07382
-9.07382
-9.07385
-9.07389
-9.07394
-9.07399
-9.07404
-9.07407
-9.0741
-9.07412
-9.07414
-9.07415
-9.07416
-9.07417
-9.07419
-9.0742
-9.07421
-9.07422
-9.07421
-9.0742
-9.07417
-9.07413
-9.07408
-9.07402
-9.07396
-9.07391
-9.07387
-9.07383
-9.07381
-9.07381
-9.17194
-9.17195
-9.17198
-9.17202
-9.17206
-9.17211
-9.17215
-9.17219
-9.17222
-9.17225
-9.17227
-9.17229
-9.17231
-9.17233
-9.17234
-9.17235
-9.17236
-9.17235
-9.17234
-9.17231
-9.17228
-9.17224
-9.17219
-9.17214
-9.17209
-9.17205
-9.17201
-9.17198
-9.17197
-9.17196
-9.27009
-9.2701
-9.27012
-9.27015
-9.27018
-9.27022
-9.27026
-9.2703
-9.27034
-9.27038
-9.27041
-9.27044
-9.27047
-9.27049
-9.2705
-9.2705
-9.2705
-9.27048
-9.27046
-9.27042
-9.27038
-9.27034
-9.27029
-9.27025
-9.27021
-9.27018
-9.27015
-9.27013
-9.27012
-9.27012
-9.36823
-9.36824
-9.36825
-9.36827
-9.3683
-9.36834
-9.36838
-9.36842
-9.36846
-9.36851
-9.36855
-9.36859
-9.36861
-9.36863
-9.36864
-9.36864
-9.36862
-9.3686
-9.36856
-9.36852
-9.36848
-9.36844
-9.3684
-9.36837
-9.36834
-9.36831
-9.36829
-9.36828
-9.36828
-9.36827
-9.46638
-9.46638
-9.46639
-9.4664
-9.46642
-9.46646
-9.46649
-9.46654
-9.46659
-9.46663
-9.46668
-9.46671
-9.46674
-9.46676
-9.46676
-9.46675
-9.46673
-9.4667
-9.46666
-9.46662
-9.46659
-9.46655
-9.46652
-9.46649
-9.46647
-9.46645
-9.46644
-9.46643
-9.46643
-9.46643
-9.56453
-9.56453
-9.56453
-9.56454
-9.56456
-9.56459
-9.56463
-9.56467
-9.56471
-9.56475
-9.56479
-9.56482
-9.56484
-9.56485
-9.56485
-9.56484
-9.56482
-9.56479
-9.56476
-9.56473
-9.5647
-9.56467
-9.56464
-9.56462
-9.56461
-9.5646
-9.56459
-9.56459
-9.56459
-9.56459
-9.6627
-9.6627
-9.6627
-9.66271
-9.66272
-9.66274
-9.66277
-9.6628
-9.66283
-9.66286
-9.66288
-9.6629
-9.66292
-9.66292
-9.66292
-9.66291
-9.6629
-9.66288
-9.66286
-9.66283
-9.66281
-9.66279
-9.66278
-9.66277
-9.66276
-9.66276
-9.66275
-9.66275
-9.66275
-9.66275
-9.76089
-9.76089
-9.76089
-9.7609
-9.7609
-9.76091
-9.76092
-9.76093
-9.76094
-9.76095
-9.76096
-9.76097
-9.76098
-9.76098
-9.76098
-9.76097
-9.76097
-9.76096
-9.76095
-9.76094
-9.76094
-9.76093
-9.76093
-9.76092
-9.76092
-9.76092
-9.76092
-9.76092
-9.76092
-9.76092
4849.17
4849.17
4849.17
4849.17
4849.17
4849.17
4849.17
4849.17
4849.16
4849.16
4849.16
4849.16
4849.16
4849.16
4849.16
4849.17
4849.17
4849.17
4849.17
4849.17
4849.17
4849.17
4849.17
4849.17
4849.17
4849.17
4849.17
4849.18
4849.18
4849.18
4751.07
4751.07
4751.07
4751.07
4751.07
4751.07
4751.07
4751.07
4751.07
4751.07
4751.07
4751.07
4751.07
4751.07
4751.07
4751.07
4751.07
4751.07
4751.07
4751.07
4751.07
4751.07
4751.07
4751.07
4751.07
4751.07
4751.07
4751.07
4751.07
4751.07
4652.96
4652.96
4652.96
4652.96
4652.96
4652.96
4652.97
4652.97
4652.97
4652.97
4652.97
4652.97
4652.97
4652.97
4652.97
4652.97
4652.97
4652.97
4652.97
4652.97
4652.97
4652.97
4652.97
4652.97
4652.97
4652.97
4652.97
4652.97
4652.97
4652.97
4554.86
4554.86
4554.86
4554.86
4554.86
4554.86
4554.87
4554.87
4554.87
4554.87
4554.87
4554.87
4554.87
4554.87
4554.87
4554.87
4554.87
4554.87
4554.87
4554.87
4554.87
4554.87
4554.87
4554.87
4554.87
4554.87
4554.87
4554.87
4554.87
4554.87
4456.76
4456.76
4456.76
4456.76
4456.76
4456.76
4456.77
4456.77
4456.77
4456.77
4456.77
4456.77
4456.77
4456.77
4456.77
4456.77
4456.77
4456.77
4456.77
4456.77
4456.77
4456.77
4456.77
4456.77
4456.77
4456.77
4456.77
4456.77
4456.77
4456.77
4358.66
4358.66
4358.66
4358.66
4358.66
4358.67
4358.67
4358.67
4358.67
4358.67
4358.67
4358.67
4358.68
4358.68
4358.68
4358.68
4358.68
4358.68
4358.67
4358.67
4358.67
4358.67
4358.67
4358.67
4358.67
4358.67
4358.67
4358.67
4358.67
4358.67
4260.57
4260.57
4260.57
4260.57
4260.57
4260.57
4260.57
4260.57
4260.57
4260.57
4260.57
4260.57
4260.57
4260.58
4260.58
4260.58
4260.58
4260.58
4260.58
4260.58
4260.58
4260.57
4260.57
4260.57
4260.57
4260.57
4260.57
4260.57
4260.57
4260.57
4162.47
4162.47
4162.47
4162.47
4162.47
4162.47
4162.47
4162.47
4162.47
4162.47
4162.47
4162.47
4162.48
4162.48
4162.48
4162.48
4162.48
4162.48
4162.48
4162.48
4162.48
4162.47
4162.47
4162.47
4162.47
4162.47
4162.47
4162.47
4162.47
4162.47
4064.38
4064.38
4064.38
4064.38
4064.37
4064.37
4064.37
4064.37
4064.37
4064.37
4064.37
4064.38
4064.38
4064.38
4064.38
4064.38
4064.38
4064.38
4064.38
4064.38
4064.38
4064.38
4064.37
4064.37
4064.37
4064.37
4064.37
4064.37
4064.37
4064.37
3966.28
3966.28
3966.28
3966.28
3966.28
3966.28
3966.28
3966.28
3966.28
3966.28
3966.28
3966.28
3966.28
3966.28
3966.28
3966.28
3966.28
3966.28
3966.28
3966.28
3966.28
3966.28
3966.28
3966.27
3966.27
3966.27
3966.27
3966.27
3966.27
3966.27
3868.18
3868.18
3868.18
3868.18
3868.18
3868.18
3868.18
3868.18
3868.18
3868.18
3868.18
3868.18
3868.19
3868.19
3868.19
3868.19
3868.19
3868.19
3868.19
3868.19
3868.18
3868.18
3868.18
3868.18
3868.18
3868.18
3868.18
3868.18
3868.18
3868.18
3770.08
3770.08
3770.08
3770.08
3770.08
3770.08
3770.08
3770.08
3770.09
3770.09
3770.09
3770.09
3770.09
3770.09
3770.09
3770.09
3770.09
3770.09
3770.09
3770.09
3770.09
3770.09
3770.09
3770.08
3770.08
3770.08
3770.08
3770.08
3770.08
3770.08
3671.98
3671.98
3671.98
3671.98
3671.98
3671.98
3671.98
3671.99
3671.99
3671.99
3671.99
3672
3672
3672
3672
3672
3672
3672
3672
3671.99
3671.99
3671.99
3671.99
3671.99
3671.99
3671.98
3671.98
3671.98
3671.98
3671.98
3573.88
3573.88
3573.88
3573.88
3573.88
3573.89
3573.89
3573.89
3573.9
3573.9
3573.9
3573.9
3573.9
3573.9
3573.9
3573.9
3573.9
3573.9
3573.9
3573.9
3573.9
3573.89
3573.89
3573.89
3573.89
3573.89
3573.89
3573.89
3573.88
3573.88
3475.78
3475.78
3475.78
3475.79
3475.79
3475.79
3475.79
3475.8
3475.8
3475.8
3475.8
3475.81
3475.81
3475.81
3475.81
3475.81
3475.8
3475.8
3475.8
3475.8
3475.8
3475.8
3475.8
3475.79
3475.79
3475.79
3475.79
3475.79
3475.79
3475.79
3377.69
3377.69
3377.69
3377.69
3377.69
3377.7
3377.7
3377.7
3377.7
3377.7
3377.71
3377.71
3377.71
3377.71
3377.71
3377.71
3377.71
3377.7
3377.7
3377.7
3377.7
3377.7
3377.7
3377.7
3377.7
3377.69
3377.69
3377.69
3377.69
3377.69
3279.59
3279.59
3279.59
3279.6
3279.6
3279.6
3279.6
3279.6
3279.6
3279.61
3279.61
3279.61
3279.61
3279.61
3279.61
3279.61
3279.61
3279.61
3279.61
3279.61
3279.6
3279.6
3279.6
3279.6
3279.6
3279.59
3279.59
3279.59
3279.59
3279.59
3181.5
3181.5
3181.5