/*--------------------------------*- C++ -*----------------------------------*\
| =========                 |                                                 |
| \\      /  F ield         | OpenFOAM: The Open Source CFD Toolbox           |
|  \\    /   O peration     | Version:  2312                                  |
|   \\  /    A nd           | Website:  www.openfoam.com                      |
|    \\/     M anipulation  |                                                 |
\*---------------------------------------------------------------------------*/
FoamFile
{
    version     2.0;
    format      ascii;
    arch        "LSB;label=32;scalar=64";
    class       volScalarField;
    location    "1.30953105";
    object      p_rgh;
}
// * * * * * * * * * * * * * * * * * * * * * * * * * * * * * * * * * * * * * //

dimensions      [1 -1 -2 0 0 0 0];

internalField   nonuniform List<scalar> 
90000
(
4898.22
4898.22
4898.22
4898.22
4898.22
4898.22
4898.22
4898.22
4898.22
4898.21
4898.21
4898.21
4898.21
4898.21
4898.21
4898.22
4898.22
4898.22
4898.22
4898.22
4898.22
4898.22
4898.22
4898.22
4898.22
4898.22
4898.23
4898.23
4898.23
4898.22
4898.23
4898.23
4898.23
4898.23
4898.22
4898.22
4898.22
4898.22
4898.22
4898.21
4898.21
4898.21
4898.21
4898.21
4898.21
4898.22
4898.22
4898.22
4898.22
4898.22
4898.22
4898.22
4898.22
4898.22
4898.22
4898.23
4898.23
4898.23
4898.22
4898.2
4898.22
4898.22
4898.22
4898.22
4898.22
4898.22
4898.22
4898.22
4898.22
4898.21
4898.21
4898.21
4898.21
4898.21
4898.21
4898.21
4898.21
4898.21
4898.22
4898.22
4898.22
4898.22
4898.22
4898.22
4898.22
4898.23
4898.23
4898.24
4898.27
4898.22
4898.22
4898.22
4898.22
4898.22
4898.22
4898.22
4898.22
4898.22
4898.22
4898.22
4898.22
4898.21
4898.21
4898.21
4898.21
4898.21
4898.21
4898.21
4898.21
4898.21
4898.21
4898.22
4898.22
4898.22
4898.22
4898.22
4898.22
4898.22
4898.24
4898.23
4898.22
4898.21
4898.21
4898.21
4898.21
4898.21
4898.22
4898.22
4898.22
4898.22
4898.22
4898.22
4898.22
4898.22
4898.21
4898.21
4898.21
4898.21
4898.21
4898.21
4898.21
4898.22
4898.22
4898.22
4898.22
4898.23
4898.23
4898.22
4898.23
4898.22
4898.21
4898.19
4898.2
4898.2
4898.21
4898.21
4898.22
4898.22
4898.23
4898.23
4898.23
4898.23
4898.23
4898.23
4898.22
4898.22
4898.22
4898.21
4898.21
4898.22
4898.22
4898.22
4898.22
4898.23
4898.23
4898.23
4898.23
4898.22
4898.22
4898.21
4898.2
4898.18
4898.19
4898.19
4898.2
4898.21
4898.22
4898.22
4898.23
4898.24
4898.24
4898.24
4898.24
4898.24
4898.23
4898.23
4898.23
4898.22
4898.22
4898.22
4898.23
4898.23
4898.23
4898.23
4898.23
4898.23
4898.22
4898.22
4898.21
4898.21
4898.2
4898.18
4898.19
4898.19
4898.2
4898.21
4898.21
4898.22
4898.23
4898.23
4898.24
4898.24
4898.24
4898.24
4898.24
4898.24
4898.23
4898.23
4898.23
4898.23
4898.23
4898.23
4898.23
4898.23
4898.23
4898.23
4898.22
4898.21
4898.21
4898.22
4898.2
4898.19
4898.2
4898.2
4898.2
4898.21
4898.21
4898.22
4898.22
4898.22
4898.23
4898.23
4898.24
4898.24
4898.24
4898.24
4898.23
4898.23
4898.23
4898.22
4898.22
4898.23
4898.23
4898.22
4898.22
4898.21
4898.2
4898.2
4898.21
4898.22
4898.21
4898.22
4898.22
4898.22
4898.22
4898.22
4898.22
4898.22
4898.22
4898.22
4898.22
4898.22
4898.23
4898.23
4898.24
4898.24
4898.23
4898.23
4898.23
4898.23
4898.22
4898.22
4898.21
4898.21
4898.2
4898.19
4898.19
4898.2
4898.21
4898.21
4898.23
4898.25
4898.25
4898.25
4898.25
4898.24
4898.23
4898.22
4898.22
4898.22
4898.22
4898.22
4898.23
4898.23
4898.23
4898.24
4898.24
4898.24
4898.24
4898.23
4898.23
4898.22
4898.21
4898.19
4898.19
4898.18
4898.19
4898.2
4898.2
4898.2
4898.25
4898.29
4898.28
4898.27
4898.26
4898.25
4898.24
4898.23
4898.22
4898.22
4898.22
4898.22
4898.22
4898.23
4898.23
4898.24
4898.24
4898.25
4898.25
4898.24
4898.23
4898.22
4898.21
4898.2
4898.2
4898.2
4898.21
4898.21
4898.2
4898.21
4898.27
4898.29
4898.28
4898.27
4898.26
4898.24
4898.23
4898.22
4898.22
4898.22
4898.21
4898.21
4898.22
4898.22
4898.22
4898.23
4898.24
4898.25
4898.25
4898.25
4898.24
4898.23
4898.22
4898.21
4898.22
4898.22
4898.22
4898.21
4898.21
4898.21
4898.27
4898.26
4898.24
4898.23
4898.22
4898.21
4898.21
4898.21
4898.21
4898.21
4898.21
4898.21
4898.21
4898.22
4898.22
4898.23
4898.24
4898.25
4898.25
4898.25
4898.24
4898.23
4898.23
4898.23
4898.23
4898.22
4898.21
4898.19
4898.19
4898.19
4898.24
4898.19
4898.19
4898.18
4898.18
4898.19
4898.2
4898.21
4898.22
4898.23
4898.23
4898.23
4898.23
4898.23
4898.24
4898.24
4898.25
4898.25
4898.25
4898.25
4898.24
4898.24
4898.24
4898.23
4898.22
4898.21
4898.19
4898.17
4898.17
4898.17
4898.2
4898.14
4898.15
4898.16
4898.18
4898.2
4898.22
4898.24
4898.25
4898.25
4898.25
4898.25
4898.25
4898.25
4898.25
4898.26
4898.26
4898.26
4898.25
4898.25
4898.25
4898.25
4898.26
4898.25
4898.24
4898.22
4898.21
4898.2
4898.2
4898.22
4898.18
4898.14
4898.16
4898.18
4898.2
4898.23
4898.24
4898.25
4898.26
4898.26
4898.25
4898.25
4898.25
4898.26
4898.26
4898.26
4898.25
4898.25
4898.25
4898.25
4898.26
4898.27
4898.28
4898.28
4898.27
4898.26
4898.27
4898.28
4898.29
4898.32
4898.18
4898.17
4898.19
4898.21
4898.23
4898.24
4898.24
4898.24
4898.24
4898.24
4898.24
4898.25
4898.26
4898.27
4898.27
4898.26
4898.25
4898.24
4898.24
4898.25
4898.26
4898.27
4898.28
4898.27
4898.27
4898.27
4898.29
4898.31
4898.33
4898.32
4898.21
4898.2
4898.21
4898.22
4898.22
4898.23
4898.22
4898.22
4898.23
4898.24
4898.25
4898.28
4898.29
4898.3
4898.29
4898.27
4898.25
4898.25
4898.25
4898.25
4898.26
4898.25
4898.24
4898.23
4898.22
4898.23
4898.25
4898.26
4898.25
4898.19
4898.22
4898.21
4898.21
4898.21
4898.22
4898.22
4898.23
4898.24
4898.25
4898.28
4898.3
4898.32
4898.33
4898.31
4898.29
4898.27
4898.25
4898.25
4898.25
4898.25
4898.24
4898.22
4898.2
4898.19
4898.19
4898.21
4898.21
4898.19
4898.15
4898.12
4898.22
4898.22
4898.22
4898.23
4898.25
4898.26
4898.27
4898.29
4898.31
4898.32
4898.33
4898.33
4898.31
4898.28
4898.25
4898.24
4898.24
4898.25
4898.26
4898.25
4898.23
4898.21
4898.19
4898.21
4898.23
4898.24
4898.23
4898.19
4898.17
4898.22
4898.23
4898.25
4898.27
4898.28
4898.3
4898.31
4898.31
4898.32
4898.32
4898.32
4898.3
4898.28
4898.24
4898.22
4898.21
4898.23
4898.26
4898.28
4898.28
4898.26
4898.23
4898.22
4898.23
4898.26
4898.28
4898.28
4898.25
4898.23
4898.25
4898.28
4898.25
4898.3
4898.31
4898.32
4898.32
4898.32
4898.31
4898.31
4898.3
4898.28
4898.26
4898.23
4898.21
4898.21
4898.24
4898.28
4898.31
4898.31
4898.29
4898.26
4898.24
4898.25
4898.29
4898.31
4898.29
4898.25
4898.23
4898.23
4898.24
4898.21
4898.27
4898.31
4898.3
4898.3
4898.29
4898.29
4898.29
4898.29
4898.28
4898.27
4898.25
4898.23
4898.23
4898.25
4898.29
4898.31
4898.31
4898.28
4898.25
4898.24
4898.26
4898.3
4898.33
4898.31
4898.27
4898.23
4898.22
4898.21
4898.18
4898.18
4898.27
4898.26
4898.26
4898.25
4898.25
4898.26
4898.27
4898.28
4898.28
4898.27
4898.25
4898.24
4898.24
4898.26
4898.27
4898.26
4898.23
4898.2
4898.19
4898.22
4898.28
4898.33
4898.33
4898.29
4898.25
4898.23
4898.23
4898.21
4898.2
4898.24
4898.23
4898.2
4898.2
4898.2
4898.21
4898.23
4898.25
4898.26
4898.26
4898.24
4898.23
4898.23
4898.25
4898.26
4898.26
4898.23
4898.2
4898.19
4898.23
4898.29
4898.34
4898.34
4898.29
4898.25
4898.23
4898.23
4898.21
4898.2
4898.24
4898.2
4898.19
4898.13
4898.14
4898.15
4898.17
4898.19
4898.21
4898.22
4898.23
4898.23
4898.24
4898.27
4898.31
4898.32
4898.31
4898.29
4898.28
4898.31
4898.35
4898.38
4898.36
4898.31
4898.26
4898.23
4898.23
4898.22
4898.2
4898.2
4898.2
4898.12
4898.14
4898.08
4898.1
4898.11
4898.13
4898.16
4898.18
4898.2
4898.22
4898.25
4898.29
4898.34
4898.37
4898.37
4898.35
4898.33
4898.34
4898.37
4898.38
4898.36
4898.3
4898.25
4898.24
4898.24
4898.24
4898.22
4898.21
4898.19
4898.13
4898.17
4898.11
4898.06
4898.08
4898.1
4898.13
4898.15
4898.17
4898.18
4898.21
4898.25
4898.3
4898.33
4898.33
4898.32
4898.3
4898.3
4898.31
4898.32
4898.29
4898.24
4898.19
4898.18
4898.21
4898.22
4898.2
4898.2
4898.2
4898.14
4898.16
4898.24
4898.09
4898.06
4898.09
4898.1
4898.11
4898.12
4898.13
4898.15
4898.19
4898.23
4898.27
4898.29
4898.28
4898.27
4898.27
4898.28
4898.29
4898.27
4898.22
4898.18
4898.17
4898.16
4898.16
4898.15
4898.13
4898.14
4898.14
4898.12
4898.22
4898.17
4898.09
4898.06
4898.07
4898.07
4898.08
4898.09
4898.11
4898.15
4898.2
4898.25
4898.28
4898.28
4898.28
4898.28
4898.29
4898.31
4898.3
4898.27
4898.24
4898.23
4898.22
4898.16
4898.11
4898.12
4898.11
4898.1
4898.12
4898.16
4898.17
4898.11
4898.07
4898.03
4898.04
4898.06
4898.08
4898.11
4898.15
4898.18
4898.2
4898.22
4898.22
4898.22
4898.23
4898.26
4898.28
4898.29
4898.29
4898.29
4898.28
4898.26
4898.23
4898.14
4898.09
4898.13
4898.11
4898.05
4898.12
4898.14
4898.06
4898.1
4898.03
4898.02
4898.05
4898.08
4898.11
4898.12
4898.11
4898.1
4898.1
4898.1
4898.11
4898.14
4898.19
4898.24
4898.27
4898.28
4898.27
4898.28
4898.25
4898.17
4898.12
4898.08
4898.07
4898.08
4898.04
4898.01
4898.09
4898.06
4898.04
4898.06
4898
4898.03
4898.06
4898.07
4898.07
4898.04
4898.02
4898.01
4898.02
4898.06
4898.12
4898.2
4898.26
4898.29
4898.28
4898.27
4898.22
4898.19
4898.14
4898.02
4898.01
4898.07
4898.04
4897.97
4897.99
4898.02
4898.05
4898.03
4898.02
4898.01
4897.98
4898.02
4898.02
4898.02
4898.01
4897.99
4897.99
4898.01
4898.06
4898.12
4898.2
4898.25
4898.27
4898.24
4898.21
4898.23
4898.18
4898.13
4898.11
4898.06
4898.09
4898.16
4898.05
4897.96
4898.06
4898.09
4898.03
4898
4897.96
4898
4897.94
4897.98
4897.98
4897.98
4897.97
4897.97
4897.97
4898
4898.05
4898.11
4898.15
4898.17
4898.17
4898.17
4898.16
4898.24
4898.22
4898.17
4898.18
4898.2
4898.19
4898.19
4898.06
4898.03
4898.15
4898.07
4897.97
4897.93
4897.98
4897.98
4897.87
4897.93
4897.92
4897.89
4897.87
4897.87
4897.91
4897.96
4898.01
4898.05
4898.07
4898.08
4898.11
4898.21
4898.21
4898.27
4898.24
4898.17
4898.18
4898.23
4898.12
4898.08
4898.03
4898.07
4898.08
4897.92
4897.87
4897.91
4897.95
4897.89
4897.79
4897.79
4897.75
4897.74
4897.78
4897.84
4897.91
4897.95
4897.98
4898
4898.04
4898.1
4898.1
4898.26
4898.25
4898.23
4898.21
4898.19
4898.18
4898.2
4898.02
4898.01
4898.03
4897.97
4897.87
4897.78
4897.82
4897.84
4897.77
4897.79
4897.63
4897.6
4897.62
4897.69
4897.77
4897.83
4897.87
4897.9
4897.95
4897.98
4898.02
4898.14
4898.07
4898.19
4898.23
4898.16
4898.12
4898.17
4898.11
4898.07
4897.91
4897.95
4897.95
4897.79
4897.71
4897.74
4897.72
4897.64
4897.68
4897.78
4897.45
4897.47
4897.54
4897.6
4897.66
4897.71
4897.77
4897.83
4897.9
4897.94
4897.93
4898.08
4898.09
4898.07
4898.18
4898.1
4898.01
4898.05
4898.03
4897.93
4897.86
4897.88
4897.81
4897.67
4897.62
4897.64
4897.51
4897.5
4897.69
4897.67
4897.29
4897.32
4897.35
4897.42
4897.5
4897.56
4897.61
4897.66
4897.76
4897.88
4897.88
4897.95
4898.12
4897.98
4898.06
4898.1
4898.06
4898
4898.05
4897.91
4897.85
4897.8
4897.7
4897.63
4897.48
4897.45
4897.42
4897.46
4897.44
4897.3
4897.06
4897.09
4897.18
4897.25
4897.28
4897.32
4897.45
4897.56
4897.66
4897.81
4897.94
4897.88
4898.14
4898.09
4898.06
4898.03
4898.12
4897.99
4898.02
4897.89
4897.84
4897.77
4897.64
4897.57
4897.36
4897.25
4897.35
4897.25
4897.02
4896.9
4896.79
4896.9
4896.94
4896.95
4897.04
4897.17
4897.39
4897.52
4897.69
4897.8
4897.88
4897.9
4898.06
4898.05
4898.07
4897.99
4898.1
4898.01
4897.93
4897.83
4897.81
4897.7
4897.44
4897.23
4897.3
4897.14
4896.93
4896.87
4896.93
4896.69
4896.51
4896.54
4896.52
4896.7
4896.95
4896.98
4897.19
4897.38
4897.52
4897.65
4897.69
4897.97
4898.09
4897.85
4898.01
4898.1
4898.02
4897.97
4897.93
4897.8
4897.65
4897.51
4897.39
4897.06
4897.05
4896.95
4896.59
4896.56
4896.61
4896.28
4896.03
4896.05
4896.26
4896.36
4896.5
4896.76
4897.09
4897.18
4897.36
4897.89
4897.83
4897.71
4898.13
4898.13
4898.04
4898.16
4898.09
4898.1
4897.97
4897.76
4897.67
4897.45
4897.25
4897.09
4896.63
4896.51
4896.51
4896.31
4895.92
4895.48
4895.41
4895.57
4895.77
4895.77
4896.2
4896.56
4896.82
4897.25
4897.26
4897.5
4897.97
4898.03
4898.04
4898.23
4898.05
4898.23
4898.32
4898.03
4897.9
4897.86
4897.57
4897.35
4897
4896.87
4896.51
4896.11
4895.96
4895.76
4895.6
4894.86
4894.7
4894.81
4895.09
4895.32
4895.79
4896.23
4896.54
4897.12
4897.37
4897.7
4897.81
4898.1
4898.33
4898.2
4898.48
4898.54
4898.25
4898.28
4898.27
4897.94
4897.65
4897.46
4897.03
4896.57
4896.23
4895.73
4895.36
4895.06
4894.81
4894.31
4893.7
4893.83
4894.24
4894.62
4895.29
4895.9
4896.39
4896.99
4897.46
4897.9
4898.28
4898.47
4898.68
4898.79
4898.84
4898.87
4898.86
4898.62
4898.49
4898.25
4897.91
4897.51
4896.99
4896.41
4895.89
4895.21
4894.67
4894.21
4893.83
4893.3
4891.61
4891.97
4892.73
4893.42
4894.44
4895.44
4896.01
4896.88
4897.85
4898.26
4898.73
4899.06
4899.39
4899.5
4899.58
4899.57
4899.55
4899.35
4899.09
4898.74
4898.24
4897.9
4896.93
4896.06
4895.38
4894.28
4893.46
4892.73
4891.97
4891.2
3831.98
3787.98
3859.07
3903.11
3960.3
4019.61
4055.84
4075.51
4156.94
4147.55
4169.78
4184.51
4176.27
4174.2
4206.84
4199.47
4178.97
4172.26
4186.15
4168.01
4146.6
4154.7
4084.18
4055.9
4018.41
3960.72
3896.01
3857.83
3783.41
3833.43
588.927
669.118
587.309
712.232
629.998
700.343
653.591
646.481
827.96
707.194
736.648
777.354
833.786
817.475
785.123
777.423
824.309
824.525
789.596
732.047
700.897
823.855
665.352
651.175
694.4
627.548
699.064
596.371
674.366
584.547
0.314538
0.242207
0.212051
0.157351
0.204206
0.211743
0.1398
0.215525
1.09345
0.134519
0.0971621
0.0569276
0.0595578
0.0191314
0.03908
0.0204487
0.0275224
0.0712876
0.0925579
0.14124
0.155984
1.14825
0.235698
0.209153
0.249933
0.195263
0.145596
0.185007
0.302377
0.376254
0.574696
0.612284
0.314809
0.258141
0.315871
0.141346
0.137839
0.171776
0.11532
0.140701
0.089144
0.0282367
0.0347917
0.0220648
0.0170622
0.0175439
0.0349143
0.0856441
0.0280381
0.135013
0.143733
0.13471
0.212941
0.207387
0.208758
0.544553
0.387439
0.574361
0.643128
0.709651
0.0239498
0.27351
0.22924
0.0382012
0.102292
0.22008
0.175721
0.0278567
0.118058
0.180767
0.14307
0.0264142
0.0914754
0.0231707
0.0180958
0.0183934
0.0593422
0.136761
0.0564161
0.151146
0.169744
0.114325
0.0437255
0.206813
0.242572
0.137976
0.0192184
0.225616
0.316503
0.0212003
0.0181043
0.0174398
0.0173977
0.0170197
0.015546
0.0149511
0.0180079
0.0234022
0.0261252
0.0336679
0.0274826
0.0278743
0.0456764
0.0576161
0.0293457
0.0296127
0.0642177
0.0529138
0.0415289
0.0260624
0.0249388
0.0231702
0.020667
0.0197716
0.0152019
0.0157807
0.0176232
0.0178162
0.0176674
0.0183337
0.0160091
0.016159
0.0163602
0.0155426
0.0141475
0.0138455
0.0138591
0.0158734
0.0183464
0.0152879
0.0141349
0.0285981
0.043297
0.05021
0.038936
0.0384743
0.0430153
0.0381805
0.0337784
0.0168615
0.0154906
0.0182318
0.0160313
0.0141497
0.0142157
0.0145699
0.0160509
0.0175631
0.0161039
0.0162427
0.0137951
0.0136784
0.013912
0.0145149
0.013548
0.0128119
0.0128067
0.0127876
0.0127714
0.0127643
0.0135772
0.0170638
0.0174052
0.022447
0.0392565
0.0392837
0.0207745
0.0134631
0.0146083
0.0133091
0.0130174
0.0129741
0.0130862
0.0131357
0.0131987
0.0141704
0.0151622
0.0142515
0.0138845
0.0139311
0.0124483
0.0123443
0.0122117
0.0122182
0.011943
0.0116997
0.0116677
0.0116665
0.0116868
0.0117393
0.0117718
0.0117177
0.0116783
0.0116708
0.0195109
0.0229387
0.0119859
0.0116537
0.0117033
0.0117795
0.0118481
0.0119105
0.0119467
0.0119955
0.0120642
0.0123126
0.0124932
0.0124507
0.0125034
0.0125606
0.0112084
0.0111566
0.0110249
0.0108908
0.0106859
0.0105413
0.0104499
0.0104125
0.0104124
0.0104518
0.0104851
0.0104593
0.0104133
0.010372
0.0103322
0.0103149
0.0103789
0.0104279
0.0104776
0.010533
0.0105831
0.0106482
0.0106808
0.0107554
0.0108268
0.0109597
0.0111113
0.0112115
0.0112693
0.0113234
0.010077
0.0100519
0.00991711
0.00976674
0.00957227
0.00938157
0.00922489
0.00913913
0.00909445
0.00907509
0.00907055
0.00904437
0.00901384
0.0089841
0.00896691
0.00897263
0.00902196
0.00905752
0.00909384
0.00916083
0.00922812
0.00930844
0.00936388
0.00946719
0.00960386
0.00977201
0.00993885
0.0100477
0.0101514
0.0101807
0.00906501
0.00900348
0.00888395
0.00871909
0.00850274
0.00825829
0.00805103
0.0079108
0.00780534
0.00772952
0.00767008
0.00761124
0.00756978
0.00754591
0.0075412
0.0075586
0.00760094
0.00764636
0.00769665
0.00776975
0.00784941
0.00794714
0.00806295
0.0082092
0.00839931
0.00861485
0.00883362
0.00897531
0.0090815
0.0091115
0.00809591
0.00804874
0.00792745
0.00774064
0.00749431
0.0072202
0.0069749
0.00677508
0.00660795
0.00647669
0.0063686
0.00627582
0.00620185
0.00616633
0.00616751
0.00618946
0.00622866
0.00627122
0.00632949
0.00641882
0.00653438
0.00666436
0.00683013
0.00703098
0.00728211
0.0075509
0.00778613
0.0079591
0.00806487
0.00810245
0.00719075
0.00713803
0.00701455
0.00682091
0.00656274
0.0062726
0.00598868
0.00573756
0.00552574
0.00534865
0.00519083
0.00506037
0.00496083
0.00490847
0.00490341
0.00491673
0.00495104
0.00500785
0.00509128
0.00520438
0.00535344
0.00553157
0.00574899
0.0059967
0.00628183
0.00658031
0.00681898
0.00699206
0.0070913
0.00712891
0.00631168
0.00626013
0.00615537
0.00597208
0.00572592
0.00542848
0.00512403
0.00484484
0.00460411
0.00439151
0.00419094
0.00402493
0.00391104
0.0038538
0.00383913
0.00384253
0.00387419
0.00394227
0.00404941
0.00419157
0.00436724
0.00457816
0.00482877
0.00510891
0.00540445
0.00568663
0.00590991
0.00606851
0.00615611
0.00618573
0.00547276
0.00543562
0.00534422
0.0051874
0.00496395
0.00468687
0.00439563
0.0041163
0.00386484
0.0036319
0.00341409
0.00323676
0.00311193
0.00304151
0.00301328
0.00300511
0.00302959
0.00310403
0.00322893
0.00339141
0.00358094
0.00380266
0.00405471
0.00432712
0.00460694
0.00486297
0.00506524
0.00520018
0.00526756
0.00528915
0.00467408
0.00463939
0.00456558
0.00444603
0.00425868
0.00402295
0.00376127
0.00350662
0.00327569
0.00305044
0.00283154
0.00264952
0.0025204
0.00244292
0.00240234
0.002383
0.00240009
0.00247553
0.00260614
0.00276991
0.00295037
0.0031549
0.00338553
0.00363487
0.00389023
0.00411844
0.0042905
0.00439564
0.00444704
0.00447053
0.00394338
0.00389956
0.00385027
0.0037622
0.00362222
0.00342864
0.0032031
0.00298461
0.00278325
0.00258182
0.0023835
0.00221146
0.00208235
0.0020002
0.00195055
0.00192
0.00192617
0.00199591
0.00212329
0.00227678
0.00243554
0.00260905
0.00280783
0.00302771
0.00325022
0.00344302
0.00358344
0.00367071
0.00372215
0.00375359
0.00326612
0.00324024
0.00321014
0.00314539
0.00303552
0.00287191
0.00268548
0.0025114
0.0023509
0.00218317
0.00200785
0.00184807
0.00172429
0.00164132
0.00158635
0.00155166
0.00155501
0.00161967
0.00173613
0.00187081
0.00200493
0.00214926
0.00231612
0.00250062
0.00268276
0.00283915
0.00295842
0.00304367
0.00310315
0.00313888
0.00271429
0.00269077
0.00266041
0.0026075
0.00251542
0.00238451
0.00223515
0.00209514
0.00196527
0.00182526
0.00167366
0.0015339
0.00142385
0.00134439
0.00128789
0.00125436
0.0012589
0.00131666
0.00141713
0.00153174
0.00164548
0.00176641
0.00190315
0.00205099
0.00219597
0.00232551
0.00243409
0.00252037
0.00258239
0.00261634
0.00225725
0.00223401
0.00219907
0.00215402
0.00208025
0.00197147
0.00184398
0.00172833
0.00162063
0.00150123
0.00137469
0.00126206
0.0011692
0.00109128
0.00103218
0.00100468
0.00101942
0.0010766
0.0011608
0.00125153
0.00134229
0.00144195
0.00155691
0.00168215
0.00180599
0.00191869
0.00201529
0.00209318
0.00214982
0.00218227
0.00188023
0.00185671
0.00182739
0.00178737
0.00172549
0.00162576
0.00151683
0.00142107
0.00132629
0.0012241
0.00112589
0.00103902
0.000954328
0.000871476
0.000812716
0.000799473
0.000829839
0.000885556
0.000949087
0.00101432
0.00108819
0.00118045
0.00129034
0.00140572
0.00151252
0.00160385
0.0016809
0.00174708
0.00180211
0.00183934
0.00158791
0.00156357
0.00153528
0.00149273
0.00142984
0.00134233
0.00126049
0.0011813
0.00109472
0.001011
0.000938877
0.000866885
0.000781042
0.000694845
0.000643014
0.00064399
0.000682415
0.00073163
0.000780309
0.000835214
0.000908036
0.00100102
0.00110293
0.00119785
0.00127715
0.0013442
0.0014085
0.00147496
0.00153725
0.00157933
0.00134782
0.00133417
0.0012946
0.00125398
0.00119614
0.00113554
0.00107722
0.0010026
0.000921214
0.000855502
0.000801468
0.00073536
0.000649887
0.000570007
0.000529484
0.000537345
0.000573814
0.000616914
0.000663162
0.000721572
0.000796799
0.000880984
0.000959641
0.00102388
0.00107726
0.00113182
0.00119699
0.00126998
0.00133496
0.0013714
0.001173
0.00115055
0.00111483
0.00108238
0.00103715
0.000997256
0.000944125
0.00087075
0.00080307
0.000755191
0.00070884
0.000642951
0.000563151
0.0004966
0.000465661
0.00047075
0.000497136
0.000534244
0.000583508
0.000648317
0.000722816
0.000793215
0.000848574
0.000889692
0.000928183
0.000976903
0.00103944
0.00110611
0.00115893
0.00118189
0.00103039
0.000999599
0.000981411
0.000949098
0.000913957
0.000882474
0.000835468
0.000781278
0.000737065
0.000697113
0.000643245
0.000572683
0.000502648
0.000452212
0.000427806
0.000425111
0.000439501
0.0004724
0.000527141
0.000599526
0.000675108
0.000737427
0.000779113
0.000805991
0.000831461
0.000866246
0.000911173
0.000957186
0.000991515
0.00100492
0.000913024
0.000904313
0.000887492
0.000846463
0.000816316
0.000791027
0.000762078
0.00073438
0.00070218
0.000651511
0.000581643
0.00051008
0.000455591
0.00042269
0.000404721
0.000397585
0.000406521
0.000440517
0.000501558
0.000578821
0.000653051
0.000707772
0.000738273
0.000752123
0.000762175
0.000777981
0.000801261
0.000827013
0.000848018
0.000858725
0.000861372
0.000865412
0.00082838
0.000782603
0.000755954
0.00073858
0.000726675
0.00071062
0.000672481
0.000607415
0.000532891
0.000472823
0.000437039
0.000418116
0.000405514
0.000399433
0.000410394
0.000447635
0.000508849
0.000579586
0.000641428
0.000682117
0.00070064
0.000705087
0.000706103
0.000710891
0.000720973
0.000733649
0.000745015
0.000752008
0.000835064
0.000823993
0.000775096
0.000739008
0.000718469
0.000707255
0.000700332
0.000681269
0.000636898
0.000573992
0.000513235
0.000470135
0.000444928
0.000428964
0.000417616
0.000416037
0.000433378
0.000472735
0.000526687
0.000581308
0.000624192
0.000650247
0.000662111
0.000666273
0.000668393
0.000670765
0.00067274
0.000672873
0.000670913
0.000668269
0.000784194
0.000760207
0.000726351
0.000705883
0.000688179
0.00067488
0.000662249
0.00063895
0.000600875
0.000555714
0.000513753
0.000479176
0.000450821
0.000428621
0.000417309
0.000423645
0.000450216
0.000491792
0.000537581
0.000577298
0.000606017
0.000624696
0.000637007
0.00064544
0.000649546
0.000646963
0.000636147
0.000618687
0.000599753
0.000586347
0.000723952
0.000708187
0.000697901
0.000681969
0.000658651
0.00063751
0.000618977
0.000598858
0.000575495
0.000548808
0.000517724
0.000482004
0.000446187
0.00041988
0.000412943
0.000429248
0.000463962
0.000506319
0.000545643
0.00057636
0.000598816
0.000616129
0.000629921
0.00063812
0.000636131
0.00062031
0.000591367
0.000555637
0.000523463
0.000505334
0.000677345
0.000678185
0.00067445
0.000652426
0.000625349
0.000603599
0.000588135
0.000576469
0.000564501
0.000546442
0.000518063
0.000481566
0.000446672
0.000425837
0.000426964
0.000449023
0.000483472
0.000519783
0.000550977
0.000575672
0.000595977
0.000613419
0.00062601
0.000628433
0.000615179
0.000584509
0.000540925
0.000494673
0.00045848
0.000442779
0.000637418
0.000642428
0.000630882
0.000610362
0.000594453
0.000584584
0.00057741
0.000569603
0.000557486
0.000537629
0.000509975
0.00047991
0.00045636
0.000446858
0.000453327
0.000471629
0.000494852
0.000517609
0.000538313
0.00055824
0.000578435
0.000596968
0.000608439
0.000606166
0.000585823
0.000548453
0.000501257
0.000455673
0.000423588
0.000413058
0.000586905
0.000581806
0.000571269
0.000570062
0.000576071
0.000579569
0.000574411
0.000559778
0.000537856
0.000512349
0.000488025
0.000469712
0.000460442
0.000460022
0.000465398
0.000472812
0.000480306
0.000488817
0.000501043
0.000518857
0.000540906
0.000562034
0.000574911
0.000573098
0.000554063
0.000520691
0.000480664
0.000444006
0.000419832
0.000413356
0.000522441
0.000511121
0.000519417
0.000542896
0.000564164
0.000569966
0.000557179
0.000530787
0.000499537
0.000472061
0.000454004
0.000446509
0.000446508
0.000448818
0.000449135
0.000446398
0.000443261
0.000444465
0.00045398
0.000472473
0.000496398
0.000519141
0.00053359
0.000534903
0.000522305
0.000499271
0.000472199
0.000448243
0.000433141
0.000429609
0.000462318
0.000460275
0.000488301
0.000521524
0.00054094
0.000538641
0.000517104
0.0004851
0.000453061
0.000429073
0.000416349
0.000412905
0.000413517
0.000412955
0.000408826
0.000402629
0.00039867
0.000401521
0.000413466
0.000433189
0.000456216
0.000476754
0.000489945
0.000493528
0.000488319
0.000477525
0.000465362
0.00045562
0.000450661
0.00045093
0.000428953
0.000440896
0.000470046
0.000492602
0.000499049
0.000488652
0.000466162
0.000438637
0.00041274
0.000392695
0.000379382
0.000370921
0.000364459
0.000358173
0.000352415
0.000349465
0.000352092
0.000361847
0.000378004
0.000397694
0.000417058
0.000432797
0.000443338
0.000449149
0.000452165
0.000454718
0.000458483
0.000463909
0.000470209
0.000475702
0.000422863
0.000436847
0.000449491
0.000453412
0.000448506
0.000436741
0.000420334
0.00040114
0.000380557
0.000359584
0.000339018
0.000319813
0.00030339
0.000291669
0.000286618
0.000289464
0.000299978
0.000316254
0.000335215
0.000353678
0.000369494
0.00038227
0.000393343
0.000404997
0.000419319
0.000437152
0.000457566
0.000478033
0.000495167
0.000505626
0.000424046
0.000427536
0.000422449
0.000413791
0.000404363
0.000394589
0.000382962
0.000367323
0.000346253
0.000320048
0.000290961
0.000262777
0.000239821
0.000225699
0.000222227
0.000228914
0.000243186
0.000261338
0.000279842
0.000296559
0.000311389
0.000326125
0.00034358
0.000366298
0.000395339
0.000429561
0.000465645
0.00049882
0.000524017
0.00053711
0.000418859
0.000412548
0.000399818
0.000386582
0.000374273
0.000361859
0.000346937
0.000327155
0.000301519
0.000271141
0.000239166
0.000209923
0.000187598
0.000174939
0.000172484
0.000178595
0.000190254
0.000204321
0.000218746
0.000233314
0.000249651
0.000270485
0.000298481
0.000335001
0.000379238
0.000427989
0.000476127
0.000517611
0.000546782
0.000559668
0.000413732
0.000407221
0.000393973
0.000376676
0.00035627
0.000333157
0.000307474
0.000279485
0.000250012
0.00022066
0.000193648
0.000171271
0.000155194
0.000145917
0.000142683
0.000143883
0.000147845
0.000153665
0.000161761
0.000173911
0.000192728
0.000220727
0.000259306
0.000307934
0.000363821
0.000422148
0.00047683
0.000521579
0.000551079
0.000562137
0.000419358
0.000418201
0.000402881
0.000376804
0.000343108
0.000305603
0.000267989
0.00023324
0.000203321
0.000179165
0.00016078
0.000147427
0.000137834
0.00013052
0.000124213
0.000118306
0.000113246
0.000110657
0.000113146
0.000123764
0.00014522
0.000179072
0.000225086
0.000280959
0.000342467
0.000404024
0.000459516
0.000503245
0.000530833
0.00054005
0.000430976
0.000431774
0.000409948
0.000373296
0.00032782
0.000279929
0.000235302
0.000197912
0.000169558
0.000149934
0.000137097
0.000128222
0.000120433
0.000111585
0.000100828
8.88592e-05
7.78574e-05
7.10385e-05
7.19851e-05
8.38539e-05
0.000108631
0.000146599
0.00019612
0.000253772
0.000314803
0.000373799
0.000425421
0.000465111
0.00048967
0.000497747
0.00043089
0.000427421
0.000399292
0.000357135
0.000307852
0.000257965
0.000212756
0.000175531
0.000147338
0.000127173
0.000112617
0.000100717
8.89017e-05
7.57244e-05
6.128e-05
4.72135e-05
3.63366e-05
3.19881e-05
3.72602e-05
5.42985e-05
8.37975e-05
0.000124786
0.000174729
0.000229886
0.000285851
0.000338126
0.00038268
0.000416358
0.000437155
0.000444421
0.000407181
0.000398099
0.000369463
0.000330293
0.000285866
0.000240746
0.000198436
0.000161065
0.000129307
0.00010262
7.97231e-05
5.92054e-05
4.0129e-05
2.24535e-05
7.16935e-06
-3.86927e-06
-8.3689e-06
-4.13999e-06
1.03554e-05
3.55952e-05
7.07976e-05
0.000113988
0.000162269
0.000212228
0.000260383
0.000303576
0.000339284
0.00036576
0.000382086
0.00038818
0.000364592
0.000354501
0.0003319
0.000301596
0.00026608
0.000227472
0.000187575
0.00014784
0.000109362
7.29595e-05
3.93323e-05
9.23527e-06
-1.63504e-05
-3.61846e-05
-4.88499e-05
-5.29631e-05
-4.747e-05
-3.19225e-05
-6.68486e-06
2.69993e-05
6.70975e-05
0.00011102
0.000155941
0.000199136
0.000238269
0.00027158
0.000297946
0.000316855
0.000328273
0.000332574
0.000316764
0.000311316
0.000297356
0.000276337
0.000248509
0.000214359
0.00017486
0.000131529
8.63528e-05
4.1655e-05
-6.25305e-08
-3.63056e-05
-6.4761e-05
-8.35231e-05
-9.12796e-05
-8.74681e-05
-7.23925e-05
-4.72154e-05
-1.38577e-05
2.51913e-05
6.7151e-05
0.000109253
0.000149034
0.000184561
0.000214557
0.000238417
0.000256116
0.000268043
0.000274797
0.00027705
0.000270684
0.00027167
0.00026443
0.000249525
0.000226235
0.000194505
0.000155264
0.000110412
6.26698e-05
1.52848e-05
-2.8321e-05
-6.49013e-05
-9.17285e-05
-0.0001069
-0.000109539
-9.98692e-05
-7.91548e-05
-4.9536e-05
-1.37347e-05
2.52628e-05
6.4545e-05
0.000101569
0.00013439
0.000161784
0.000183266
0.000198995
0.000209607
0.000215994
0.000219082
0.000219661
0.000219881
0.000224428
0.000220323
0.000208639
0.000188611
0.000160287
0.000124746
8.40358e-05
4.09584e-05
-1.25674e-06
-3.93187e-05
-7.02241e-05
-9.1623e-05
-0.000102069
-0.000101171
-8.95954e-05
-6.89387e-05
-4.14871e-05
-9.91086e-06
2.30627e-05
5.4942e-05
8.3725e-05
0.000108044
0.000127227
0.000141245
0.000150601
0.000156141
0.000158865
0.000159703
0.000159376
0.000151285
0.000154872
0.000151847
0.000143189
0.000128388
0.00010764
8.18869e-05
5.27827e-05
2.24143e-05
-6.88385e-06
-3.27951e-05
-5.32789e-05
-6.68162e-05
-7.25778e-05
-7.04961e-05
-6.12361e-05
-4.60842e-05
-2.67561e-05
-5.16355e-06
1.68075e-05
3.75036e-05
5.56649e-05
7.04893e-05
8.16878e-05
8.93932e-05
9.40835e-05
9.64436e-05
9.7245e-05
9.71589e-05
9.66641e-05
5.73885e-05
5.80137e-05
5.65707e-05
5.29978e-05
4.70942e-05
3.89683e-05
2.90519e-05
1.80156e-05
6.6632e-06
-4.12751e-06
-1.35098e-05
-2.07578e-05
-2.53661e-05
-2.70763e-05
-2.59243e-05
-2.21988e-05
-1.64188e-05
-9.24425e-06
-1.38726e-06
6.46289e-06
1.37224e-05
1.99606e-05
2.49255e-05
2.85471e-05
3.09107e-05
3.22236e-05
3.27606e-05
3.28276e-05
3.2673e-05
3.24387e-05
4898.22
4898.23
4898.23
4898.22
4898.22
4898.22
4898.22
4898.22
4898.21
4898.21
4898.21
4898.21
4898.21
4898.21
4898.21
4898.22
4898.22
4898.22
4898.22
4898.22
4898.22
4898.22
4898.22
4898.22
4898.22
4898.23
4898.23
4898.23
4898.23
4898.24
4898.23
4898.23
4898.23
4898.23
4898.22
4898.22
4898.22
4898.22
4898.21
4898.21
4898.21
4898.21
4898.21
4898.21
4898.21
4898.21
4898.22
4898.22
4898.22
4898.22
4898.22