/*--------------------------------*- C++ -*----------------------------------*\
| =========                 |                                                 |
| \\      /  F ield         | OpenFOAM: The Open Source CFD Toolbox           |
|  \\    /   O peration     | Version:  2312                                  |
|   \\  /    A nd           | Website:  www.openfoam.com                      |
|    \\/     M anipulation  |                                                 |
\*---------------------------------------------------------------------------*/
FoamFile
{
    version     2.0;
    format      ascii;
    arch        "LSB;label=32;scalar=64";
    class       surfaceScalarField;
    location    "1.30953105";
    object      phi;
}
// * * * * * * * * * * * * * * * * * * * * * * * * * * * * * * * * * * * * * //

dimensions      [0 3 -1 0 0 0 0];

oriented        oriented;

internalField   nonuniform List<scalar> 
263100
(
-2.72016e-09
5.44033e-09
-2.72016e-09
7.63422e-10
-1.87536e-09
-1.65716e-09
2.20097e-09
-1.73596e-10
-1.30504e-09
3.1587e-09
-8.46125e-11
-9.15224e-10
3.87763e-09
-3.65618e-10
-3.96826e-10
4.47511e-09
-7.84205e-10
1.42828e-10
5.04149e-09
-1.1581e-09
5.49227e-10
5.39033e-09
-1.34095e-09
9.53191e-10
5.30308e-09
-1.20673e-09
1.26097e-09
4.672e-09
-7.23879e-10
1.32989e-09
3.55511e-09
-5.84692e-11
1.16004e-09
2.04656e-09
6.89859e-10
8.14334e-10
4.57286e-10
1.25718e-09
3.39375e-10
-8.6208e-10
1.44849e-09
-1.10309e-10
-1.58994e-09
1.20108e-09
-4.44011e-10
-1.5226e-09
6.21454e-10
-6.51315e-10
-7.64182e-10
-1.27444e-10
-5.88468e-10
2.66427e-10
-7.1212e-10
-2.749e-10
1.0101e-09
-9.93736e-10
2.90363e-10
9.48224e-10
-7.15143e-10
8.09858e-10
-2.52635e-10
5.55554e-11
1.16703e-09
-2.5712e-09
1.07263e-09
1.25382e-09
-5.67077e-09
2.01747e-09
1.07457e-09
-8.62522e-09
2.29524e-09
6.35939e-10
-1.02928e-08
1.51471e-09
1.14665e-10
-9.46078e-09
-3.16648e-10
-5.66812e-10
-5.31441e-09
-3.06573e-09
-1.14302e-09
3.3318e-09
-5.62883e-09
-3.08731e-09
1.46386e-08
-7.341e-09
-4.03888e-09
3.9801e-08
-2.52339e-08
4.59061e-10
4.47232e-09
4.5906e-10
4.00136e-10
-2.3478e-09
4.50258e-10
3.35673e-10
-5.87485e-10
4.02104e-10
3.38687e-10
-5.12407e-10
3.46767e-10
5.09696e-10
-9.695e-10
3.5448e-10
8.50684e-10
-1.54424e-09
3.4327e-10
1.35143e-09
-2.04907e-09
3.20861e-10
1.94504e-09
-2.27804e-09
2.84403e-10
2.55795e-09
-2.11193e-09
2.47187e-10
3.0872e-09
-1.53599e-09
2.54665e-10
3.42927e-09
-7.32239e-10
3.22512e-10
3.58284e-09
8.48378e-11
4.62268e-10
3.49964e-09
6.79218e-10
6.91588e-10
3.19388e-09
8.05577e-10
9.96759e-10
2.63144e-09
5.21611e-10
1.30387e-09
1.76588e-09
1.78311e-11
1.53965e-09
7.34992e-10
-6.83757e-10
1.65964e-09
-3.07175e-10
-1.20348e-09
1.6009e-09
-1.31755e-09
-1.26929e-09
1.34148e-09
-2.23483e-09
-7.50974e-10
9.9115e-10
-3.01114e-09
1.70664e-10
6.77443e-10
-3.72462e-09
1.30016e-09
4.77911e-10
-4.31095e-09
2.15864e-09
4.12421e-10
-4.50473e-09
1.94888e-09
4.84128e-10
-4.4173e-09
5.58001e-10
7.92863e-10
-4.50308e-09
-1.7953e-09
1.47195e-09
-4.75638e-09
-5.21303e-09
2.29827e-09
-1.23079e-09
-1.36104e-08
4.35345e-09
1.07924e-08
-2.67445e-08
7.2933e-09
4.73116e-08
3.26427e-09
1.27281e-09
1.88634e-09
1.27281e-09
-3.87505e-10
-1.34909e-09
5.90905e-10
-1.37982e-09
-1.24157e-10
4.62916e-10
-2.05199e-09
-1.35298e-10
2.28508e-10
-2.48859e-09
-5.90589e-10
-7.71719e-12
-2.62557e-09
-1.28352e-09
-1.85238e-10
-2.30316e-09
-1.97588e-09
-4.50129e-10
-1.50381e-09
-2.46611e-09
-6.55971e-10
-2.36986e-10
-2.66872e-09
-7.42497e-10
1.36066e-09
-2.4814e-09
-6.70819e-10
3.08572e-09
-2.03797e-09
-4.23209e-10
4.62178e-09
-1.47216e-09
3.16815e-11
5.69537e-09
-8.65953e-10
4.95805e-10
5.90063e-09
-3.65839e-10
1.00164e-09
5.09048e-09
-9.63594e-12
1.38497e-09
3.39015e-09
2.01848e-10
1.56412e-09
1.05123e-09
2.90099e-10
1.41298e-09
-1.39705e-09
3.07334e-10
9.81816e-10
-3.34e-09
3.40966e-10
3.70328e-10
-4.30408e-09
4.69658e-10
-2.27944e-10
-4.16493e-09
7.18712e-10
-6.68997e-10
-2.96767e-09
1.00346e-09
-8.93084e-10
-1.03038e-09
1.02339e-09
-8.04547e-10
1.07313e-09
3.50889e-10
-5.1636e-10
2.8787e-09
-1.01501e-09
-2.49412e-10
3.68708e-09
-2.55007e-09
-7.40801e-11
1.36307e-09
-3.30968e-09
3.97678e-10
-5.30017e-09
-9.99234e-09
3.01675e-09
-3.59923e-09
-3.59855e-08
7.50122e-09
2.88591e-08
1.48747e-08
1.32115e-09
-7.9459e-10
1.32115e-09
-8.47978e-10
1.53916e-10
6.02172e-10
-2.19309e-09
7.45497e-10
4.17088e-10
-3.19217e-09
6.85471e-10
1.21739e-10
-3.9397e-09
2.54792e-10
-1.50867e-10
-4.38815e-09
-4.62963e-10
-4.1929e-10
-4.33392e-09
-1.31892e-09
-7.50464e-10
-3.68512e-09
-2.12472e-09
-1.02012e-09
-2.44815e-09
-2.77577e-09
-1.1498e-09
-6.97192e-10
-3.13232e-09
-1.11003e-09
1.34166e-09
-3.1729e-09
-9.04854e-10
3.28653e-09
-2.86429e-09
-5.46174e-10
4.67531e-09
-2.17035e-09
-7.23172e-11
5.20413e-09
-1.09164e-09
2.12299e-10
4.65603e-09
1.94281e-10
3.60562e-10
3.09795e-09
1.5031e-09
2.72667e-10
8.81084e-10
2.51243e-09
9.16089e-12
-1.38086e-09
3.02877e-09
-4.45808e-10
-3.02496e-09
2.90428e-09
-9.05582e-10
-3.51787e-09
2.25912e-09
-1.28163e-09
-2.59805e-09
1.33592e-09
-1.51929e-09
-4.09709e-10
4.12667e-10
-1.5754e-09
2.40699e-09
-3.36579e-10
-1.42852e-09
5.06437e-09
-1.18329e-09
-1.08731e-09
6.89225e-09
-2.13596e-09
-6.619e-10
8.38629e-09
-3.30185e-09
-6.8645e-10
1.05032e-08
-2.83737e-09
-2.52037e-09
3.44413e-09
1.8972e-10
-3.04256e-09
-9.19991e-09
-2.06759e-08
-2.59639e-09
1.38871e-08
5.85037e-09
1.22652e-09
-3.28212e-09
1.22652e-09
-7.20428e-10
1.42473e-09
6.23981e-10
-1.92446e-09
1.41081e-09
4.93746e-10
-2.83664e-09
1.28531e-09
2.71729e-10
-3.58976e-09
9.5403e-10
1.88536e-11
-4.14772e-09
2.61061e-10
-1.94399e-10
-4.38654e-09
-7.03425e-10
-3.97973e-10
-4.2673e-09
-1.71775e-09
-5.41155e-10
-3.70078e-09
-2.65308e-09
-6.99329e-10
-2.69602e-09
-3.41871e-09
-7.25979e-10
-1.40044e-09
-3.80474e-09
-6.71565e-10
-6.13309e-11
-3.65768e-09
-5.56491e-10
1.10407e-09
-2.88174e-09
-4.70059e-10
1.83811e-09
-1.41899e-09
-4.2949e-10
2.02138e-09
4.98183e-10
-5.16671e-10
1.58449e-09
2.57986e-09
-6.74257e-10
6.94953e-10
4.2096e-09
-8.43509e-10
-2.65203e-10
4.9486e-09
-9.92528e-10
-8.09113e-10
4.56403e-09
-1.14084e-09
-5.58755e-10
3.26419e-09
-1.26803e-09
5.9068e-10
1.55115e-09
-1.36113e-09
2.49494e-09
-6.63318e-11
-1.403e-09
4.78776e-09
-1.21445e-09
-1.37262e-09
6.74904e-09
-1.82756e-09
-1.25466e-09
7.64198e-09
-1.91752e-09
-1.03075e-09
7.18785e-09
-2.22022e-09
-5.32427e-10
7.34149e-09
-2.26947e-09
-6.16296e-10
4.90964e-09
4.48164e-09
-1.74545e-09
-5.61944e-09
-6.20791e-09
-3.83197e-09
8.89397e-09
-5.42029e-10
7.84381e-10
-4.87741e-09
7.84381e-10
-1.33682e-10
1.81744e-09
4.86866e-10
-6.52483e-10
1.41558e-09
4.84228e-10
-1.00141e-09
1.18317e-09
4.2707e-10
-1.38456e-09
9.29323e-10
3.89722e-10
-1.82848e-09
3.5378e-10
3.38212e-10
-2.33153e-09
-5.05384e-10
2.95352e-10
-2.88642e-09
-1.4695e-09
2.97316e-10
-3.44217e-09
-2.40549e-09
2.95283e-10
-3.85881e-09
-3.2396e-09
2.16854e-10
-4.02042e-09
-3.7478e-09
7.22031e-11
-3.87662e-09
-3.78245e-09
-6.65087e-11
-3.34773e-09
-3.17096e-09
-3.03725e-10
-2.46012e-09
-1.84729e-09
-5.39342e-10
-1.3485e-09
9.73418e-12
-7.16009e-10
-2.04856e-10
2.14373e-09
-8.07612e-10
8.01662e-10
3.85788e-09
-7.54978e-10
1.61878e-09
4.65222e-09
-6.13067e-10
2.3045e-09
4.25127e-09
-4.49814e-10
2.95086e-09
2.89807e-09
-3.35279e-10
3.70431e-09
1.09855e-09
-3.29753e-10
4.60229e-09
-5.44552e-10
-4.20784e-10
5.4992e-09
-1.52275e-09
-5.62717e-10
6.14412e-09
-1.68249e-09
-7.40622e-10
6.19828e-09
-9.00548e-10
-1.00399e-09
4.52318e-09
6.82222e-10
-1.15039e-09
1.96645e-09
1.47513e-09
-1.11122e-09
1.20163e-09
7.68489e-09
-2.3681e-09
-3.85019e-09
3.65069e-09
-4.75245e-09
7.95042e-09
-2.88673e-09
-1.48884e-10
-4.59727e-09
-1.48883e-10
4.21378e-10
1.24178e-09
-2.70588e-11
1.14819e-09
5.82863e-10
8.28542e-11
1.77327e-09
3.48016e-10
1.92008e-10
2.12602e-09
1.81078e-10
3.80998e-10
2.03127e-09
-1.41254e-10
5.76429e-10
1.34383e-09
-6.01823e-10
7.67921e-10
9.68732e-11
-1.17683e-09
9.3093e-10
-1.5903e-09
-1.77915e-09
1.02467e-09
-3.51401e-09
-2.35931e-09
9.89208e-10
-5.32349e-09
-2.82172e-09
8.06873e-10
-6.52007e-09
-3.12416e-09
4.37084e-10
-6.7452e-09
-3.08144e-09
1.01342e-11
-5.91154e-09
-2.50968e-09
-3.17644e-10
-4.1757e-09
-1.42154e-09
-4.65549e-10
-1.81522e-09
-7.79909e-12
-3.76004e-10
6.73255e-10
1.30418e-09
-9.82993e-11
2.88077e-09
2.04886e-09
2.45441e-10
4.46774e-09
1.93981e-09
5.95569e-10
5.34627e-09
1.05608e-09
8.61993e-10
5.60821e-09
-2.76935e-10
1.04224e-09
5.35746e-09
-1.33066e-09
9.9458e-10
4.75316e-09
-1.76776e-09
8.3109e-10
3.69994e-09
-1.25629e-09
6.24522e-10
2.35813e-09
2.68938e-10
1.75159e-10
4.4027e-10
3.11649e-09
-5.18833e-10
-2.23195e-09
5.33884e-09
-1.20943e-09
-2.14071e-09
9.78046e-09
-2.22677e-09
-3.38943e-09
8.1588e-09
-3.32447e-09
6.31395e-09
-1.84093e-09
-1.41493e-09
-1.782e-09
-1.41493e-09
8.52566e-10
-1.71811e-10
-8.9902e-10
2.80081e-09
-6.8435e-10
-7.16903e-10
4.47552e-09
-8.56805e-10
-5.0375e-10
5.65853e-09
-8.62863e-10
-1.73273e-10
6.05248e-09
-7.51906e-10
1.78918e-10
5.42238e-09
-5.50596e-10
5.3307e-10
3.76208e-09
-3.69242e-10
7.93615e-10
1.27616e-09
-3.09742e-10
9.38614e-10
-1.66767e-09
-4.15795e-10
8.98756e-10
-4.56247e-09
-7.58595e-10
7.03459e-10
-6.73581e-09
-1.52193e-09
4.15827e-10
-7.75003e-09
-2.37767e-09
1.30934e-10
-7.36283e-09
-3.03708e-09
-5.77257e-11
-5.67931e-09
-3.24681e-09
-6.64128e-11
-3.0649e-09
-2.96119e-09
1.30173e-10
-7.81635e-11
-2.3261e-09
4.43653e-10
2.71121e-09
-1.76346e-09
8.40646e-10
4.73996e-09
-1.52669e-09
1.27945e-09
5.75917e-09
-1.77977e-09
1.68548e-09
5.75568e-09
-2.31282e-09
1.93444e-09
4.95819e-09
-2.6724e-09
2.05526e-09
3.48828e-09
-2.40459e-09
2.0347e-09
1.42568e-09
-1.12136e-09
1.85603e-09
-9.63134e-10
1.05517e-09
1.51922e-09
-2.76251e-09
4.09095e-09
7.19847e-10
-4.4469e-09
6.87793e-09
1.2375e-11
-3.16738e-09
8.67018e-09
-3.31316e-10
-1.83886e-09
6.86029e-09
-2.16447e-10
3.11545e-09
1.18202e-09
-2.26081e-09
2.71521e-09
-2.26081e-09
1.24658e-09
-2.2159e-09
-1.54419e-09
4.07633e-09
-2.20735e-09
-1.3785e-09
6.42559e-09
-2.22326e-09
-1.05586e-09
8.06363e-09
-1.89558e-09
-6.81681e-10
8.73983e-09
-1.22104e-09
-2.89189e-10
8.26541e-09
-2.28293e-10
6.07208e-11
6.6398e-09
9.17539e-10
2.34143e-10
4.07522e-09
1.78995e-09
3.43011e-10
9.99407e-10
2.16218e-09
3.55903e-10
-2.00181e-09
1.77027e-09
3.09682e-10
-4.46998e-09
5.42601e-10
2.22123e-10
-5.96819e-09
-1.28912e-09
2.13915e-10
-6.34111e-09
-3.15767e-09
2.90196e-10
-5.59125e-09
-4.62762e-09
4.27635e-10
-3.91398e-09
-5.4301e-09
5.95874e-10
-1.70382e-09
-5.56431e-09
8.46205e-10
5.35533e-10
-5.29176e-09
1.12554e-09
2.44276e-09
-4.97267e-09
1.39549e-09
3.66266e-09
-4.74705e-09
1.62258e-09
3.99841e-09
-4.5396e-09
1.77944e-09
3.36074e-09
-4.06307e-09
1.92154e-09
1.89133e-09
-3.00682e-09
1.95945e-09
-1.12622e-10
-1.0651e-09
1.82001e-09
-2.24036e-09
1.48999e-09
1.54185e-09
-3.4818e-09
4.00395e-09
1.14996e-09
-3.45673e-09
5.50494e-09
1.14312e-09
-1.39754e-09
4.7876e-09
1.59851e-09
2.79759e-10
2.39947e-09
2.55043e-09
4.81185e-10
2.72727e-09
-2.25409e-09
7.17461e-09
-2.25409e-09
1.70369e-09
-4.94613e-09
-1.3586e-09
4.65569e-09
-4.20676e-09
-1.07323e-09
6.9846e-09
-4.01028e-09
-6.64822e-10
8.47062e-09
-3.23006e-09
-2.77074e-10
8.96564e-09
-1.87128e-09
2.68025e-11
8.5425e-09
-7.84572e-11
1.40941e-10
7.26859e-09
1.81411e-09
2.39717e-10
5.42847e-09
3.32374e-09
1.62539e-10
3.28193e-09
4.01394e-09
1.44957e-10
1.1012e-09
3.54406e-09
2.53034e-10
-9.00987e-10
1.93873e-09
4.51646e-10
-2.60629e-09
-4.22679e-10
6.88657e-10
-3.89779e-09
-2.93629e-09
9.28952e-10
-4.66035e-09
-5.0854e-09
1.09192e-09
-4.80852e-09
-6.55516e-09
1.15968e-09
-4.25104e-09
-7.28558e-09
1.06492e-09
-3.04616e-09
-7.46629e-09
8.82998e-10
-1.52642e-09
-7.29798e-09
7.26131e-10
-1.6404e-10
-6.85313e-09
6.64429e-10
6.40139e-10
-6.10837e-09
6.775e-10
6.99095e-10
-4.90514e-09
6.8048e-10
5.4919e-11
-3.06445e-09
5.77895e-10
-9.15356e-10
-6.22698e-10
3.80356e-10
-1.69285e-09
1.95292e-09
1.45379e-10
-1.45504e-09
3.36637e-09
2.14834e-10
-1.08765e-10
3.11187e-09
8.55615e-10
1.3462e-09
1.55151e-09
1.59581e-09
1.14539e-09
4.8199e-10
1.9523e-09
5.53323e-10
9.7458e-10
-5.09872e-10
8.11384e-09
-5.09872e-10
2.38182e-09
-8.41237e-09
3.99728e-10
4.16913e-09
-6.77613e-09
6.20684e-10
5.27824e-09
-6.12775e-09
8.47404e-10
5.7192e-09
-4.86006e-09
1.03042e-09
5.57751e-09
-2.94144e-09
1.05795e-09
5.15756e-09
-7.36785e-10
9.31051e-10
4.6357e-09
1.56435e-09
6.33066e-10
4.20403e-09
3.22577e-09
4.02416e-10
3.77264e-09
4.00702e-09
3.25741e-10
3.17522e-09
3.61318e-09
4.34477e-10
2.15055e-09
2.17765e-09
7.14546e-10
5.45685e-10
1.35189e-10
1.00103e-09
-1.56286e-09
-1.96524e-09
1.11704e-09
-3.77916e-09
-3.91881e-09
1.05189e-09
-5.63043e-09
-5.42832e-09
7.43294e-10
-6.63105e-09
-6.52e-09
2.61724e-10
-6.5748e-09
-7.25884e-09
-2.40003e-10
-5.63773e-09
-7.6558e-09
-5.70066e-10
-4.23253e-09
-7.5305e-09
-7.43404e-10
-2.85111e-09
-6.69927e-09
-8.37752e-10
-1.92355e-09
-5.06505e-09
-8.48421e-10
-1.47521e-09
-2.69394e-09
-9.29083e-10
-9.14989e-10
-3.96256e-10
-9.16699e-10
-6.373e-12
1.59425e-09
-6.85969e-10
1.32124e-09
2.10419e-09
-1.91805e-10
2.58462e-09
1.48786e-09
2.59072e-10
2.45039e-09
1.09993e-09
5.21222e-10
8.81024e-10
2.14797e-09
-1.18287e-10
2.18036e-09
-7.13962e-10
2.32808e-09
3.35211e-09
2.32808e-09
2.3861e-09
-1.1432e-08
2.77233e-09
1.80203e-09
-9.49175e-09
3.12713e-09
7.19884e-10
-8.20024e-09
2.98741e-09
-4.50337e-10
-6.47307e-09
2.62477e-09
-1.3158e-09
-4.193e-09
1.97147e-09
-1.59363e-09
-1.73435e-09
1.14722e-09
-9.56689e-10
3.81138e-10
4.40449e-10
3.95471e-10
1.8911e-09
-9.51476e-11
1.99235e-09
2.61911e-09
-2.5258e-10
3.20037e-09
2.60325e-09
-2.02586e-10
3.35637e-09
2.12854e-09
-6.96368e-11
2.19897e-09
1.3772e-09
-6.70497e-12
-2.62647e-11
5.37379e-10
-1.64538e-10
-2.87939e-09
-4.17293e-10
-5.11099e-10
-5.59192e-09
-1.55044e-09
-1.01804e-09
-7.46139e-09
-2.97496e-09
-1.53531e-09
-8.13628e-09
-4.5369e-09
-1.93116e-09
-7.65899e-09
-5.88421e-09
-2.17216e-09
-6.41389e-09
-6.54941e-09
-2.19775e-09
-4.87802e-09
-6.22108e-09
-2.03516e-09
-3.31971e-09
-4.89858e-09
-1.78796e-09
-1.73945e-09
-2.93176e-09
-1.43254e-09
-7.3553e-12
-1.19835e-09
-1.02673e-09
1.97724e-09
-6.05737e-11
-4.11292e-10
3.54104e-09
3.42163e-10
1.51431e-10
3.81431e-09
6.80601e-10
5.35548e-10
2.47669e-09
2.15727e-09
3.34302e-10
8.68334e-10
4.01515e-09
-1.61263e-10
2.78439e-09
3.70464e-10
5.00924e-09
-6.77669e-09
5.00924e-09
1.03482e-09
-1.2132e-08
4.51186e-09
-2.44783e-09
-1.01503e-08
3.99609e-09
-5.55925e-09
-8.28955e-09
3.06436e-09
-8.08497e-09
-6.02903e-09
1.95709e-09
-9.41437e-09
-3.67188e-09
6.99779e-10
-9.16618e-09
-1.66337e-09
-4.06024e-10
-7.36106e-09
-2.58691e-10
-1.22368e-09
-4.34166e-09
6.24731e-10
-1.77516e-09
-9.73999e-10
1.20084e-09
-1.92817e-09
1.70445e-09
1.85487e-09
-1.86062e-09
2.94629e-09
2.82491e-09
-1.82007e-09
2.54836e-09
3.8856e-09
-1.94866e-09
8.23081e-10
4.72931e-09
-2.27217e-09
-1.58276e-09
4.88998e-09
-2.69076e-09
-3.93479e-09
4.0634e-09
-3.05512e-09
-5.66707e-09
2.22546e-09
-3.28668e-09
-6.47856e-09
-2.49116e-10
-3.33884e-09
-6.4169e-09
-2.67601e-09
-3.18889e-09
-5.73683e-09
-4.35677e-09
-2.85146e-09
-4.63734e-09
-4.9362e-09
-2.41594e-09
-3.10812e-09
-4.56187e-09
-1.93452e-09
-1.12271e-09
-3.62722e-09
-1.37384e-09
1.11826e-09
-2.76752e-09
-7.47698e-10
3.19352e-09
-2.14294e-09
-4.03217e-11
4.25649e-09
-1.28812e-09
5.61968e-10
3.77711e-09
3.7722e-10
8.23037e-10
2.5359e-09
2.63575e-09
8.39634e-10
1.55808e-09
3.84964e-09
1.2349e-09
2.55592e-09
1.83897e-09
5.01339e-09
-1.68928e-08
5.01339e-09
-2.00573e-09
-7.78531e-09
2.57195e-09
-7.60451e-09
-6.21281e-09
1.57409e-09
-1.175e-08
-4.33088e-09
1.06826e-10
-1.45299e-08
-2.31124e-09
-1.00996e-09
-1.5427e-08
-7.76382e-10
-2.05979e-09
-1.41952e-08
-6.25823e-11
-2.87836e-09
-1.11165e-08
-1.41259e-10
-3.21886e-09
-7.0329e-09
-2.60249e-10
-3.19018e-09
-2.92871e-09
1.78859e-10
-3.03553e-09
2.12027e-10
1.6663e-09
-2.86336e-09
2.02876e-09
4.00634e-09
-2.8687e-09
2.41004e-09
6.73817e-09
-3.07126e-09
1.77639e-09
8.89853e-09
-3.35344e-09
6.32824e-10
9.75307e-09
-3.53621e-09
-5.94329e-10
9.0014e-09
-3.54689e-09
-1.67099e-09
6.78088e-09
-3.35315e-09
-2.52168e-09
3.6496e-09
-2.97435e-09
-3.19364e-09
5.29656e-10
-2.5168e-09
-3.58845e-09
-1.87639e-09
-2.1205e-09
-3.50732e-09
-3.23405e-09
-1.85679e-09
-2.71157e-09
-3.81337e-09
-1.63787e-09
-1.16234e-09
-3.85496e-09
-1.4161e-09
7.62321e-10
-3.59806e-09
-1.17417e-09
2.32721e-09
-2.86666e-09
-8.98173e-10
2.86068e-09
-1.12548e-09
-7.30572e-10
2.57548e-09
1.4299e-09
-7.89371e-10
2.2484e-09
3.42592e-09
-4.90527e-10
1.39025e-09
4.42882e-09
2.23911e-10
4.39008e-09
-5.50807e-10
1.46188e-09
-1.98651e-08
1.46189e-09
-6.06862e-09
9.75373e-10
-1.25458e-09
-1.14041e-08
1.2642e-09
-2.16088e-09
-1.48743e-08
2.34477e-09
-3.22448e-09
-1.65171e-08
3.1228e-09
-3.81274e-09
-1.61188e-08
2.7358e-09
-3.934e-09
-1.37971e-08
1.26645e-09
-3.67254e-09
-1.02274e-08
-5.51194e-10
-3.17334e-09
-6.4196e-09
-1.52769e-09
-2.53796e-09
-3.07948e-09
-1.05385e-09
-2.08292e-09
-5.94147e-10
1.12868e-09
-1.89827e-09
1.09316e-09
4.42671e-09
-2.03554e-09
2.21231e-09
7.9959e-09
-2.28983e-09
2.9542e-09
1.06753e-08
-2.42928e-09
3.38409e-09
1.17006e-08
-2.30093e-09
3.41516e-09
1.09386e-08
-1.91958e-09
2.84306e-09
8.72697e-09
-1.36363e-09
1.59178e-09
5.63989e-09
-7.70471e-10
-1.24642e-10
2.6111e-09
-4.337e-10
-1.89754e-09
1.8712e-10
-3.85566e-10
-3.07445e-09
-1.55787e-09
-6.06731e-10
-3.32364e-09
-2.64193e-09
-1.02993e-09
-2.59794e-09
-3.22055e-09
-1.46108e-09
-1.45533e-09
-3.01856e-09
-1.81707e-09
-5.27141e-10
-1.72169e-09
-2.17055e-09
-5.22794e-11
8.23725e-10
-2.53808e-09
2.22434e-10
3.73555e-09
-2.72746e-09
1.55476e-10
5.79388e-09
-2.49523e-09
-4.82581e-10
7.57547e-09
-2.75515e-09
7.03861e-09
-3.39025e-09
-2.71081e-09
-1.44452e-08
-2.71081e-09
-8.1837e-09
1.10907e-08
-4.60389e-09
-1.13899e-08
9.07329e-09
-4.56864e-09
-1.28361e-08
8.40261e-09
-4.58634e-09
-1.25399e-08
6.89479e-09
-4.05724e-09
-1.07589e-08
4.14926e-09
-3.19918e-09
-8.2138e-09
8.25228e-10
-2.12132e-09
-5.75021e-09
-1.91225e-09
-1.12685e-09
-3.72504e-09
-3.20889e-09
-3.68411e-10
-2.29705e-09
-2.40823e-09
-9.29778e-11
-1.24763e-09
3.17796e-10
-2.50841e-10
-8.74732e-12
3.84916e-09
-6.68753e-10
1.66243e-09
7.3761e-09
-1.06018e-09
3.61762e-09
9.76043e-09
-1.05913e-09
5.3046e-09
1.0649e-08
-6.72688e-10
6.11414e-09
1.00823e-08
-1.40193e-11
5.67819e-09
8.40551e-09
6.74258e-10
3.93847e-09
6.21723e-09
1.06378e-09
1.35058e-09
4.01104e-09
1.08489e-09
-1.27039e-09
1.95391e-09
7.57361e-10
-3.07103e-09
-7.06038e-11
2.28881e-10
-3.82661e-09
-1.76253e-09
-1.97867e-10
-3.7885e-09
-2.76946e-09
-5.63617e-10
-3.559e-09
-2.49725e-09
-8.43198e-10
-3.48809e-09
-7.42721e-10
-1.18003e-09
-3.4006e-09
2.04831e-09
-1.49629e-09
-3.00537e-09
4.69866e-09
-1.60449e-09
-2.59687e-09
6.83499e-09
-1.75327e-09
-1.69261e-09
8.58904e-09
-2.25887e-09
5.75981e-09
-6.98596e-10
-4.90934e-09
-4.59143e-09
-4.90934e-09
-6.70972e-09
1.77438e-08
-4.78948e-09
-7.09809e-09
1.36163e-08
-4.10188e-09
-6.3353e-09
1.1004e-08
-3.32769e-09
-4.69852e-09
7.47084e-09
-2.19757e-09
-2.79038e-09
3.22578e-09
-9.91084e-10
-1.40391e-09
-6.35546e-10
4.98697e-11
-9.31748e-10
-3.14012e-09
7.19126e-10
-1.26771e-09
-3.77882e-09
8.62956e-10
-1.90867e-09
-2.2097e-09
3.96984e-10
-1.95085e-09
6.11373e-10
-2.98793e-10
-9.07884e-10
3.63347e-09
-8.79124e-10
1.24513e-09
6.15746e-09
-9.95248e-10
3.81373e-09
7.77822e-09
-6.60107e-10
5.8941e-09
8.47673e-09
5.22452e-12
6.73727e-09
8.47336e-09
6.71815e-10
6.0345e-09
7.91599e-09
1.10206e-09
4.0864e-09
6.89658e-09
1.19566e-09
1.64411e-09
5.35653e-09
1.05163e-09
-4.30552e-10
3.1903e-09
8.23922e-10
-1.77623e-09
5.76879e-10
7.06447e-10
-2.44304e-09
-1.93686e-09
8.52716e-10
-2.98827e-09
-3.46033e-09
1.22489e-09
-3.77943e-09
-3.25423e-09
1.48868e-09
-4.66869e-09
-1.4891e-09
1.51124e-09
-4.88739e-09
5.00889e-10
1.57426e-09
-4.37227e-09
2.19854e-09
1.73868e-09
-3.26234e-09
3.43811e-09
2.01302e-09
-7.81329e-10
3.20841e-09
2.635e-09
-6.30057e-11
4.87999e-09
-4.02894e-09
3.51301e-09
-4.02894e-09
-2.7212e-09
1.94163e-08
-2.94705e-09
-1.35608e-09
1.45126e-08
-2.23909e-09
3.81539e-10
1.07421e-08
-1.47037e-09
2.1026e-09
6.4004e-09
-6.63139e-10
3.17093e-09
2.16664e-09
-3.58599e-11
3.17981e-09
-9.19183e-10
2.40026e-10
1.96772e-09
-2.15013e-09
1.85462e-10
1.3901e-10
-1.72363e-09
-2.60916e-10
-1.19994e-09
-1.09958e-10
-7.92236e-10
-1.42082e-09
1.90295e-09
-1.10199e-09
-2.3212e-10
3.40686e-09
-9.97999e-10
1.8332e-09
4.53271e-09
-4.85303e-10
3.93804e-09
5.37614e-09
2.43901e-10
5.21417e-09
6.22811e-09
9.17425e-10
5.31745e-09
7.05929e-09
1.26749e-09
4.39547e-09
7.57767e-09
1.24511e-09
3.00313e-09
7.28381e-09
1.03132e-09
1.77386e-09
5.83715e-09
8.20139e-10
9.95399e-10
3.23959e-09
8.36137e-10
4.82791e-10
9.17685e-11
1.11675e-09
-3.38847e-10
-2.59662e-09
1.58075e-09
-1.73836e-09
-3.91492e-09
1.90357e-09
-3.39417e-09
-3.53331e-09
1.91638e-09
-4.44337e-09
-2.37117e-09
1.8453e-09
-4.29168e-09
-1.84344e-09
2.05823e-09
-3.05999e-09
-1.83906e-09
2.65485e-09
-1.08421e-09
-2.12427e-09
3.45495e-09
6.88406e-10
-3.3649e-09
4.71859e-09
-2.88384e-09
3.51154e-09
-2.37016e-09
8.2759e-09
-2.37016e-09
2.92535e-10
1.8059e-08
-1.35794e-09
2.4874e-09
1.34925e-08
-1.23078e-09
4.29254e-09
9.80433e-09
-9.3195e-10
5.66136e-09
5.63393e-09
-6.68592e-10
6.08946e-09
2.10224e-09
-4.22248e-10
5.46066e-09
-7.59256e-11
-2.56829e-10
4.03038e-09
-5.05567e-10
-2.35443e-10
2.47927e-09
3.53961e-11
-2.07968e-10
1.43056e-09
9.97098e-10
-4.24297e-11
1.40171e-09
1.58182e-09
3.7281e-10
2.18002e-09
1.53217e-09
1.11695e-09
2.96729e-09
1.78186e-09
1.97654e-09
3.19158e-09
2.45449e-09
2.7053e-09
2.76858e-09
3.83922e-09
2.82578e-09
1.96315e-09
5.5054e-09
2.3957e-09
1.30908e-09
6.57421e-09
1.73188e-09
1.13012e-09
6.34174e-09
1.24056e-09
1.33604e-09
4.71195e-09
1.07728e-09
1.4664e-09
2.13494e-09
1.14903e-09
6.76101e-10
-2.62769e-10
1.30449e-09
-1.07144e-09
-1.88479e-09
1.14924e-09
-3.37454e-09
-2.0555e-09
4.92821e-10
-5.04277e-09
-1.37138e-09
-5.06897e-10
-5.14292e-09
-1.39998e-09
-9.25277e-10
-3.92721e-09
-2.37117e-09
-7.51163e-10
-2.21502e-09
-3.09811e-09
-4.93698e-10
-8.15023e-10
-3.00821e-09
-5.13571e-10
-8.89338e-10
-1.96519e-09
-1.28074e-09
1.49276e-10
-3.87235e-09
-1.2993e-09
1.08381e-08
-1.2993e-09
1.83187e-09
1.56158e-08
-8.5658e-10
4.22165e-09
1.18332e-08
-8.8698e-10
6.26908e-09
8.17472e-09
-5.64428e-10
7.71335e-09
4.15949e-09
-9.16513e-11
8.39215e-09
1.00206e-09
3.37823e-10
8.04884e-09
-4.97145e-10
7.27052e-10
7.20068e-09
-8.02096e-10
1.15362e-09
6.30116e-09
-6.97492e-10
1.68e-09
5.72833e-09
-7.98729e-10
2.44112e-09
5.17952e-09
-1.13825e-09
3.34967e-09
4.19527e-09
-1.75237e-09
4.34424e-09
2.43206e-09
-1.18006e-09
4.78915e-09
2.25183e-10
4.36125e-10
4.28194e-09
-1.74115e-09
2.63711e-09
3.23005e-09
-2.66654e-09
4.53813e-09
1.97385e-09
-2.32319e-09
5.27924e-09
1.0617e-09
-1.189e-09
4.59497e-09
7.48914e-10
-1.84424e-10
3.08399e-09
7.69005e-10
-3.94833e-10
1.58961e-09
8.83251e-10
-2.10059e-09
8.64345e-10
6.60671e-10
-4.79146e-09
1.0625e-09
-2.34448e-10
-6.98311e-09
1.55891e-09
-1.45494e-09
-7.28978e-09
8.82626e-10
-2.0096e-09
-5.75512e-09
-1.0888e-09
-1.90729e-09
-3.82549e-09
-2.65648e-09
-1.68097e-09
-2.64958e-09
-2.34882e-09
-1.93026e-09
-2.45778e-09
-3.26383e-10
-2.86163e-09
-2.97354e-09
3.24675e-09
-4.70284e-09
1.58766e-09
-4.48971e-09
-4.9416e-10
1.17149e-08
-4.94159e-10
3.00351e-09
1.17848e-08
6.77308e-11
5.85065e-09
8.38574e-09
3.69205e-10
8.27364e-09
4.53398e-09
1.02151e-09
1.00055e-08
5.40147e-10
1.7447e-09
1.06539e-08
-2.02856e-09
2.30488e-09
1.06579e-08
-3.31108e-09
2.79997e-09
1.02463e-08
-3.6297e-09
3.28792e-09
9.54081e-09
-3.84063e-09
3.93874e-09
8.42701e-09
-4.11509e-09
4.53975e-09
6.3698e-09
-3.97758e-09
5.00457e-09
3.08799e-09
-3.03198e-09
4.65405e-09
-7.93918e-10
-7.81482e-10
3.55728e-09
-4.09017e-09
1.76782e-09
2.02671e-09
-6.00781e-09
4.24147e-09
3.75522e-10
-5.98293e-09
4.87714e-09
-2.9222e-10
-4.40881e-09
4.21941e-09
-4.33567e-10
-2.76578e-09
3.19359e-09
-1.65434e-10
-2.38409e-09
2.60217e-09
1.48279e-10
-3.74651e-09
2.88016e-09
6.85287e-11
-6.11919e-09
3.80099e-09
-6.2894e-10
-8.15154e-09
4.50781e-09
-1.52798e-09
-8.36416e-09
3.30803e-09
-1.6718e-09
-6.67846e-09
1.54467e-11
-9.40557e-10
-4.62102e-09
-3.33654e-09
1.01328e-10
-3.5847e-09
-4.30141e-09
5.47544e-10
-3.52189e-09
-2.59978e-09
1.25359e-10
-3.47458e-09
1.21661e-10
-6.0432e-10
-2.1684e-09
2.85592e-09
-1.11342e-09
-1.16973e-09
3.1832e-10
1.02448e-09
9.49795e-09
1.02448e-09
5.07927e-09
5.43911e-09
2.00023e-09
8.13203e-09
2.5002e-09
2.59721e-09
1.03591e-08
-1.13229e-09
3.25991e-09
1.1357e-08
-4.36907e-09
3.80243e-09
1.14562e-08
-6.35487e-09
4.19221e-09
1.10203e-08
-7.01557e-09
4.17071e-09
1.04171e-08
-6.98128e-09
4.03211e-09
9.35629e-09
-6.55465e-09
3.87462e-09
7.31847e-09
-5.54678e-09
3.56793e-09
3.97523e-09
-3.52037e-09
2.96576e-09
-3.00924e-10
-5.22245e-10
1.82154e-09
-4.31281e-09
2.90941e-09
3.56866e-10
-6.84095e-09
4.95646e-09
-6.31971e-10
-7.08937e-09
5.332e-09
-8.10168e-10
-5.70433e-09
4.00306e-09
-4.74102e-10
-4.02181e-09
2.35608e-09
2.10689e-10
-3.70821e-09
2.11282e-09
7.67077e-10
-5.12064e-09
3.17531e-09
7.8563e-10
-7.54434e-09
5.16569e-09
2.10812e-11
-9.31702e-09
6.32354e-09
-9.16521e-10
-9.09377e-09
5.19872e-09
-1.09567e-09
-6.87485e-09
1.03009e-09
-9.84998e-11
-4.37282e-09
-3.78793e-09
1.18916e-09
-3.45283e-09
-6.6128e-09
2.27897e-09
-3.91296e-09
-5.98736e-09
2.06297e-09
-4.12343e-09
-4.02195e-09
1.49063e-09
-3.31162e-09
-2.64063e-09
1.70742e-09
-9.06707e-10
-2.23841e-09
2.33807e-09
-4.8375e-09
2.42162e-09
3.18706e-09
2.95036e-09
3.18706e-09
7.06757e-09
-2.80393e-09
4.13445e-09
9.57823e-09
-4.85995e-09
4.68341e-09
1.07374e-08
-7.32006e-09
4.92254e-09
1.06461e-08
-9.07099e-09
4.75032e-09
9.8469e-09
-9.6458e-09
4.10185e-09
9.01622e-09
-9.50543e-09
3.36867e-09
8.24134e-09
-8.9137e-09
2.76823e-09
6.98882e-09
-7.6644e-09
2.41283e-09
4.6341e-09
-5.2361e-09
2.0687e-09
1.28198e-09
-1.71983e-09
1.54698e-09
-2.20062e-09
2.16555e-09
7.70421e-10
-4.58291e-09
4.76199e-09
5.03092e-10
-5.16812e-09
4.86498e-09
6.64274e-10
-4.14935e-09
2.87646e-09
1.44511e-09
-3.06264e-09
4.29558e-10
2.50633e-09
-3.42358e-09
-7.47349e-10
3.47124e-09
-5.64893e-09
8.37853e-10
3.46671e-09
-8.70168e-09
3.79785e-09
2.3409e-09
-1.07756e-08
6.20639e-09
8.9846e-10
-1.06718e-08
5.59039e-09
4.84374e-10
-8.12025e-09
1.4047e-09
1.1306e-09
-5.29067e-09
-4.1918e-09
2.33949e-09
-4.27777e-09
-8.10775e-09
3.30378e-09
-5.27518e-09
-8.49783e-09
2.88374e-09
-6.1494e-09
-6.72089e-09
1.55268e-09
-5.54739e-09
-6.05472e-09
1.27507e-09
-3.62043e-09
-6.53343e-09
1.70693e-09
-1.26469e-09
-6.5875e-09
1.67998e-09
-7.89429e-09
1.58717e-09
4.7599e-09
-6.69411e-09
4.7599e-09
7.61525e-09
-1.10133e-08
5.23783e-09
9.33854e-09
-1.18258e-08
5.17369e-09
9.59438e-09
-1.23937e-08
4.7897e-09
8.83436e-09
-1.23866e-08
4.08017e-09
7.87036e-09
-1.19655e-08
3.30432e-09
7.15067e-09
-1.15394e-08
2.76928e-09
6.46034e-09
-1.08636e-08
2.63125e-09
5.18926e-09
-9.10832e-09
2.66944e-09
3.00447e-09
-5.74029e-09
2.60836e-09
4.08964e-10
-1.55802e-09
2.33396e-09
-1.50279e-09
1.87529e-09
2.10861e-09
-1.9531e-09
2.81423e-09
2.33657e-09
-1.1431e-09
8.96292e-10
3.14331e-09
-4.69332e-10
-1.98226e-09
4.21099e-09
-1.53596e-09
-3.503e-09
5.0424e-09
-4.53424e-09
-2.30402e-09
4.58196e-09
-8.24438e-09
1.20832e-09
3.32596e-09
-1.09452e-08
4.52489e-09
1.92058e-09
-1.1115e-08
4.60453e-09
1.7095e-09
-8.86971e-09
5.7702e-10
2.74212e-09
-6.34142e-09
-5.18194e-09
4.10078e-09
-5.81695e-09
-9.91538e-09
5.30622e-09
-7.63959e-09
-1.09263e-08
4.76986e-09
-9.35498e-09
-9.92635e-09
3.23192e-09
-9.27892e-09
-9.36445e-09
2.56719e-09
-7.80664e-09
-1.00572e-08
2.43755e-09
-5.40456e-09
-1.12967e-08
2.22319e-09
-1.79796e-09
-1.28852e-08
2.58406e-09
-1.45911e-08
4.91718e-09
5.19659e-09
-1.71409e-08
5.19659e-09
7.19045e-09
-1.81969e-08
5.1701e-09
8.46187e-09
-1.80076e-08
4.90962e-09
8.58169e-09
-1.69325e-08
4.42886e-09
8.0012e-09
-1.56547e-08
3.85646e-09
7.36364e-09
-1.47705e-08
3.432e-09
6.74346e-09
-1.42909e-08
3.32722e-09
5.72898e-09
-1.33601e-08
3.4243e-09
3.93807e-09
-1.07775e-08
3.33523e-09
1.76323e-09
-6.63521e-09
2.92587e-09
1.59917e-10
-2.43765e-09
2.35047e-09
-1.10605e-10
-1.3911e-10
2.19607e-09
7.98379e-10
-7.75134e-10
2.65696e-09
1.49556e-09
-3.16219e-09
3.40438e-09
4.23593e-10
-4.75568e-09
3.93259e-09
-2.59683e-09
-3.68766e-09
3.29869e-09
-6.38226e-09
-5.06044e-10
2.05323e-09
-8.94865e-09
2.64278e-09
1.15925e-09
-9.04291e-09
3.13186e-09
1.49773e-09
-6.94344e-09
-3.19937e-10
2.86092e-09
-4.98151e-09
-5.97778e-09
4.69116e-09
-5.27319e-09
-1.0902e-08
6.17719e-09
-8.22455e-09
-1.26725e-08
5.90413e-09
-1.14435e-08
-1.18315e-08
4.28996e-09
-1.22932e-08
-1.26288e-08
3.64396e-09
-1.09476e-08
-1.51105e-08
4.41755e-09
-9.33455e-09
-1.6159e-08
4.47559e-09
-5.617e-09
-1.87396e-08
3.74772e-09
-2.39524e-10
-2.40527e-08
5.89352e-09
-2.21278e-08
7.4482e-09
5.04981e-09
-2.72413e-08
5.04981e-09
6.86003e-09
-2.49172e-08
4.93642e-09
8.15998e-09
-2.38155e-08
4.5298e-09
8.6805e-09
-2.14365e-08
3.99531e-09
8.66974e-09
-1.92437e-08
3.59159e-09
8.36544e-09
-1.78183e-08
3.31331e-09
7.4601e-09
-1.66608e-08
3.19944e-09
5.63119e-09
-1.45962e-08
2.95512e-09
3.30307e-09
-1.09458e-08
2.3687e-09
1.26663e-09
-6.41619e-09
1.69977e-09
6.94717e-10
-3.50899e-09
1.56804e-09
1.54176e-09
-3.04803e-09
2.05416e-09
2.66133e-09
-4.64431e-09
2.81548e-09
2.36311e-09
-6.21719e-09
3.47448e-09
-1.58376e-11
-5.65851e-09
3.42109e-09
-3.3061e-09
-3.03988e-09
2.76011e-09
-5.71228e-09
-2.80838e-10
2.25664e-09
-5.82607e-09
2.07891e-10
2.59451e-09
-4.12856e-09
-2.31648e-09
3.80483e-09
-2.89075e-09
-6.83338e-09
5.37613e-09
-4.02753e-09
-1.09605e-08
6.2771e-09
-7.56643e-09
-1.28553e-08
5.67734e-09
-1.15978e-08
-1.26936e-08
4.2076e-09
-1.37236e-08
-1.26934e-08
3.06538e-09
-1.29175e-08
-1.66047e-08
3.17458e-09
-1.08475e-08
-2.14105e-08
4.21904e-09
-8.62463e-09
-2.29899e-08
4.64799e-09
-4.45993e-09
-2.78342e-08
5.05484e-09
-5.55819e-10
-3.35634e-08
5.79484e-09
-2.44445e-08
1.89868e-09
4.54126e-09
-3.63046e-08
4.54126e-09
6.6093e-09
-3.11228e-08
4.17297e-09
8.34889e-09
-2.91322e-08
3.60115e-09
9.64787e-09
-2.57982e-08
3.07371e-09
1.04767e-08
-2.28346e-08
2.7545e-09
1.04703e-08
-2.05526e-08
2.70911e-09
9.27573e-09
-1.81983e-08
2.67629e-09
6.95956e-09
-1.48371e-08
2.48616e-09
4.59132e-09
-1.08248e-08
2.18049e-09
3.42871e-09
-7.55951e-09
2.26916e-09
3.66426e-09
-6.61818e-09