/*--------------------------------*- C++ -*----------------------------------*\
| =========                 |                                                 |
| \\      /  F ield         | OpenFOAM: The Open Source CFD Toolbox           |
|  \\    /   O peration     | Version:  2312                                  |
|   \\  /    A nd           | Website:  www.openfoam.com                      |
|    \\/     M anipulation  |                                                 |
\*---------------------------------------------------------------------------*/
FoamFile
{
    version     2.0;
    format      ascii;
    arch        "LSB;label=32;scalar=64";
    class       volVectorField;
    location    "1.30953105";
    object      U;
}
// * * * * * * * * * * * * * * * * * * * * * * * * * * * * * * * * * * * * * //

dimensions      [0 1 -1 0 0 0 0];

internalField   nonuniform List<vector> 
90000
(
(-2.71906e-05 3.49705e-05 -2.71906e-05)
(-1.3231e-05 -1.05773e-05 -1.785e-05)
(2.27683e-05 6.08794e-07 -1.53843e-05)
(2.52103e-05 1.21301e-06 -1.34687e-05)
(3.51882e-05 -5.4608e-07 -1.034e-05)
(4.14941e-05 -3.21923e-06 -7.06056e-06)
(4.74428e-05 -5.65236e-06 -3.3814e-06)
(5.23384e-05 -6.88112e-06 2.7819e-08)
(5.39695e-05 -6.21651e-06 2.55594e-06)
(5.05016e-05 -3.4165e-06 3.7472e-06)
(4.16534e-05 9.44662e-07 3.44233e-06)
(2.8247e-05 5.64486e-06 2.23909e-06)
(1.22274e-05 9.50235e-06 1.2595e-07)
(-2.89847e-06 1.10659e-05 -2.84439e-06)
(-1.35165e-05 9.9193e-06 -5.57663e-06)
(-1.69323e-05 6.7615e-06 -7.15048e-06)
(-1.22688e-05 2.07898e-06 -7.05443e-06)
(-2.37576e-06 -2.65803e-06 -5.13567e-06)
(7.347e-06 -5.27486e-06 -1.38664e-06)
(1.13473e-05 -4.20787e-06 2.73904e-06)
(5.98808e-06 2.56049e-07 5.43217e-06)
(-1.16589e-05 6.49081e-06 5.7246e-06)
(-4.04343e-05 1.27054e-05 3.3553e-06)
(-7.21529e-05 1.56267e-05 -1.98474e-06)
(-9.6783e-05 1.21642e-05 -9.12347e-06)
(-0.0001027 2.1575e-06 -1.63843e-05)
(-7.69875e-05 -1.35886e-05 -2.6128e-05)
(-3.47508e-05 -2.14171e-05 -5.28972e-05)
(0.000117521 -1.28984e-05 -0.000114293)
(0.00012651 0.000238817 -0.000258606)
(2.79608e-06 5.75113e-05 2.79608e-06)
(4.69098e-06 -2.35254e-05 2.71305e-06)
(3.46414e-06 -4.62736e-06 2.05567e-06)
(3.18123e-06 -3.5697e-06 1.11387e-06)
(3.95191e-06 -7.42979e-06 6.31994e-07)
(6.48475e-06 -1.25357e-05 3.69511e-08)
(1.07344e-05 -1.70474e-05 -5.77095e-07)
(1.63029e-05 -1.90227e-05 -1.18315e-06)
(2.24535e-05 -1.71507e-05 -1.62796e-06)
(2.82455e-05 -1.11345e-05 -1.44069e-06)
(3.26227e-05 -2.19591e-06 -4.25248e-07)
(3.51173e-05 6.83124e-06 1.14731e-06)
(3.5511e-05 1.31213e-05 3.44853e-06)
(3.36169e-05 1.47976e-05 6.5246e-06)
(2.9359e-05 1.12492e-05 9.61267e-06)
(2.22605e-05 3.70483e-06 1.19819e-05)
(1.27037e-05 -5.08549e-06 1.32419e-05)
(2.17756e-06 -1.22911e-05 1.29185e-05)
(-8.1659e-06 -1.45373e-05 1.07832e-05)
(-1.78081e-05 -9.84724e-06 7.68874e-06)
(-2.62693e-05 5.91031e-07 4.75047e-06)
(-3.37562e-05 1.33579e-05 2.5727e-06)
(-4.04933e-05 2.41551e-05 1.4423e-06)
(-4.45719e-05 2.56663e-05 2.04741e-06)
(-4.51997e-05 1.44994e-05 4.98194e-06)
(-4.4567e-05 -9.2614e-06 1.29259e-05)
(-3.98303e-05 -4.69191e-05 2.53465e-05)
(-6.90726e-05 -0.000104293 5.6412e-05)
(5.78454e-05 -0.000156745 7.13436e-05)
(0.000113641 0.000487251 4.68371e-05)
(1.16305e-05 3.31316e-05 1.16305e-05)
(6.82296e-06 -1.95841e-05 6.82313e-06)
(-1.16549e-05 -5.18222e-06 5.68094e-06)
(-1.7139e-05 -4.98008e-06 3.75163e-06)
(-2.27313e-05 -9.69654e-06 1.77226e-06)
(-2.57976e-05 -1.57203e-05 -5.98626e-07)
(-2.50377e-05 -2.14324e-05 -2.92662e-06)
(-1.95818e-05 -2.46897e-05 -4.95315e-06)
(-9.46227e-06 -2.44517e-05 -6.18685e-06)
(4.92895e-06 -2.01889e-05 -6.24752e-06)
(2.19104e-05 -1.32686e-05 -4.84527e-06)
(3.86307e-05 -6.02806e-06 -1.77962e-06)
(5.21578e-05 -5.58401e-07 2.66796e-06)
(5.89569e-05 1.60355e-06 6.73703e-06)
(5.60412e-05 5.34295e-07 1.03942e-05)
(4.32845e-05 -2.82795e-06 1.27581e-05)
(2.26575e-05 -6.48321e-06 1.25858e-05)
(-2.11026e-06 -8.86161e-06 9.94597e-06)
(-2.48125e-05 -8.05791e-06 5.60702e-06)
(-3.96789e-05 -3.34542e-06 4.85762e-07)
(-4.39748e-05 4.4337e-06 -3.7883e-06)
(-3.71242e-05 1.27748e-05 -5.39414e-06)
(-2.07159e-05 1.77021e-05 -4.66299e-06)
(3.00113e-07 1.28092e-05 -2.09405e-06)
(2.03752e-05 -2.23414e-06 7.64655e-07)
(3.50226e-05 -2.32226e-05 2.34801e-06)
(4.09829e-05 -4.61053e-05 9.09729e-06)
(-2.35492e-05 -0.000142302 3.63886e-05)
(-6.28464e-05 -0.000352343 8.93288e-05)
(-1.67271e-05 0.0003969 0.000141208)
(1.30317e-05 5.94931e-06 1.30317e-05)
(5.63169e-06 -5.55132e-06 8.02322e-06)
(-1.82929e-05 3.71101e-06 6.68862e-06)
(-2.68203e-05 3.19312e-06 4.71496e-06)
(-3.55286e-05 -1.59393e-06 2.28362e-06)
(-4.17424e-05 -8.70761e-06 -5.19821e-07)
(-4.39529e-05 -1.65597e-05 -3.13537e-06)
(-4.06835e-05 -2.31238e-05 -5.54427e-06)
(-3.14239e-05 -2.74527e-05 -7.20903e-06)
(-1.64261e-05 -2.84478e-05 -7.86865e-06)
(2.82756e-06 -2.65438e-05 -7.35162e-06)
(2.32916e-05 -2.23806e-05 -5.55366e-06)
(4.05287e-05 -1.60887e-05 -2.7805e-06)
(5.0498e-05 -8.6077e-06 3.70237e-07)
(5.05212e-05 -5.8176e-07 2.34575e-06)
(3.97407e-05 7.34628e-06 2.38742e-06)
(2.0287e-05 1.32529e-05 7.68985e-07)
(-3.015e-06 1.63518e-05 -1.94674e-06)
(-2.34727e-05 1.64467e-05 -4.9487e-06)
(-3.46918e-05 1.42678e-05 -7.43642e-06)
(-3.29065e-05 1.09864e-05 -8.98139e-06)
(-1.70215e-05 7.67876e-06 -9.04426e-06)
(9.37161e-06 3.31051e-06 -7.31589e-06)
(3.80062e-05 -4.94067e-06 -3.8416e-06)
(6.08635e-05 -1.75823e-05 1.1139e-06)
(7.68535e-05 -3.08196e-05 1.82558e-06)
(9.80767e-05 -2.78245e-05 -1.33927e-05)
(0.000102403 -4.00492e-05 -1.72099e-05)
(-5.05106e-05 -0.000308434 -1.36825e-06)
(-9.85349e-05 0.00020181 6.39873e-05)
(1.20527e-05 -2.04878e-05 1.20527e-05)
(5.29952e-06 8.97384e-06 7.82262e-06)
(-1.61655e-05 1.17448e-05 7.0656e-06)
(-2.35967e-05 1.07537e-05 5.70942e-06)
(-3.19278e-05 6.92889e-06 4.16984e-06)
(-3.86436e-05 -1.62394e-07 2.23649e-06)
(-4.2791e-05 -9.43885e-06 3.30452e-07)
(-4.36e-05 -1.9116e-05 -9.93662e-07)
(-4.03438e-05 -2.7382e-05 -2.85867e-06)
(-3.24276e-05 -3.34433e-05 -4.11871e-06)
(-2.07698e-05 -3.59907e-05 -5.05496e-06)
(-7.17583e-06 -3.38796e-05 -5.48929e-06)
(5.73272e-06 -2.64944e-05 -5.8625e-06)
(1.53247e-05 -1.33487e-05 -6.14381e-06)
(2.0045e-05 3.8347e-06 -6.88519e-06)
(1.8701e-05 2.15859e-05 -7.65266e-06)
(1.16597e-05 3.54215e-05 -8.08912e-06)
(1.72788e-06 4.21008e-05 -8.39634e-06)
(-6.52389e-06 3.9539e-05 -8.78958e-06)
(-8.62903e-06 2.93211e-05 -8.90887e-06)
(-1.54885e-06 1.52732e-05 -8.61863e-06)
(1.47077e-05 1.56985e-06 -7.78837e-06)
(3.65467e-05 -9.44154e-06 -6.41977e-06)
(5.85248e-05 -1.74683e-05 -4.38261e-06)
(7.35443e-05 -2.32041e-05 -6.65923e-07)
(7.54556e-05 -3.23354e-05 5.49205e-06)
(7.00731e-05 -3.16552e-05 3.14007e-06)
(8.96489e-05 3.88755e-05 -8.11784e-06)
(-1.41045e-05 -0.000125928 -1.7297e-05)
(-7.16477e-05 0.000101109 7.51319e-06)
(6.9221e-06 -4.23205e-05 6.9221e-06)
(4.13734e-06 1.74577e-05 4.96887e-06)
(-5.79598e-06 1.50877e-05 5.29031e-06)
(-7.99691e-06 1.32805e-05 5.30458e-06)
(-1.16347e-05 1.04314e-05 5.52502e-06)
(-1.57931e-05 4.10988e-06 5.5493e-06)
(-2.05884e-05 -5.18865e-06 5.40505e-06)
(-2.59167e-05 -1.59966e-05 5.30353e-06)
(-3.15653e-05 -2.60356e-05 4.95755e-06)
(-3.65776e-05 -3.45103e-05 3.63948e-06)
(-3.95965e-05 -3.94014e-05 1.24164e-06)
(-3.98074e-05 -3.88925e-05 -1.62036e-06)
(-3.65486e-05 -3.15346e-05 -4.69525e-06)
(-2.94638e-05 -1.66472e-05 -7.67211e-06)
(-1.93558e-05 4.16733e-06 -9.93302e-06)
(-7.92066e-06 2.62273e-05 -1.11487e-05)
(3.12465e-06 4.37798e-05 -1.06913e-05)
(1.2245e-05 5.16401e-05 -9.02762e-06)
(1.9547e-05 4.71346e-05 -6.72446e-06)
(2.62315e-05 3.27897e-05 -4.40805e-06)
(3.33148e-05 1.41048e-05 -2.75904e-06)
(4.16794e-05 -3.32159e-06 -1.77537e-06)
(5.08443e-05 -1.52421e-05 -1.52003e-06)
(5.87758e-05 -1.95643e-05 -2.0492e-06)
(6.29438e-05 -1.57282e-05 -3.56032e-06)
(5.85303e-05 -9.65102e-06 -4.11204e-06)
(2.17194e-05 -8.73415e-06 -2.77577e-06)
(2.71976e-05 5.99571e-05 -1.47267e-05)
(-1.2818e-05 -3.04529e-06 -2.8413e-05)
(-4.61867e-05 8.41119e-05 -1.84614e-05)
(-2.66057e-06 -5.06472e-05 -2.66057e-06)
(9.10542e-08 1.6569e-05 -1.52064e-06)
(8.50679e-06 1.071e-05 -7.75856e-08)
(1.47675e-05 8.28489e-06 9.80109e-07)
(1.98672e-05 6.12957e-06 3.08252e-06)
(2.13794e-05 1.4414e-06 5.45547e-06)
(1.76256e-05 -5.65305e-06 7.71194e-06)
(8.04586e-06 -1.41283e-05 9.44919e-06)
(-6.75315e-06 -2.26653e-05 1.02691e-05)
(-2.51893e-05 -3.01518e-05 9.71865e-06)
(-4.43777e-05 -3.50596e-05 7.80359e-06)
(-5.99581e-05 -3.64077e-05 3.80914e-06)
(-6.74711e-05 -3.23094e-05 -1.08484e-06)
(-6.45395e-05 -2.17378e-05 -5.33048e-06)
(-5.14734e-05 -5.45467e-06 -7.99096e-06)
(-3.05749e-05 1.30642e-05 -8.45359e-06)
(-5.57195e-06 2.86778e-05 -6.95279e-06)
(1.84369e-05 3.63553e-05 -3.72709e-06)
(3.75444e-05 3.33661e-05 4.4054e-07)
(4.99607e-05 2.16311e-05 3.98474e-06)
(5.55713e-05 5.67219e-06 6.29554e-06)
(5.54507e-05 -8.94578e-06 7.14384e-06)
(5.10631e-05 -1.65991e-05 6.89661e-06)
(4.26746e-05 -1.48851e-05 5.80296e-06)
(3.05211e-05 -2.92755e-06 2.53815e-06)
(1.84945e-05 2.11382e-05 -3.36134e-06)
(-1.18033e-05 3.72504e-05 -8.51246e-06)
(-2.29409e-05 9.14358e-05 -1.68891e-05)
(-2.95826e-05 6.90198e-05 -2.43804e-05)
(-2.59138e-05 7.3149e-05 -1.51284e-05)
(-1.47686e-05 -3.67736e-05 -1.47686e-05)
(-7.39874e-06 6.41369e-06 -1.10773e-05)
(2.09759e-05 -4.72405e-07 -9.3725e-06)
(3.64156e-05 -2.55443e-06 -7.26232e-06)
(5.11168e-05 -3.50225e-06 -3.80589e-06)
(5.93751e-05 -4.75553e-06 1.36664e-07)
(5.8475e-05 -6.52467e-06 4.16859e-06)
(4.70814e-05 -9.16846e-06 7.56428e-06)
(2.61627e-05 -1.21268e-05 9.65415e-06)
(-1.43448e-06 -1.57017e-05 9.88714e-06)
(-3.13876e-05 -1.98573e-05 8.39538e-06)
(-5.74893e-05 -2.43421e-05 5.63378e-06)
(-7.39288e-05 -2.77691e-05 2.50592e-06)
(-7.72344e-05 -2.75459e-05 -7.93593e-07)
(-6.66025e-05 -2.26642e-05 -2.8305e-06)
(-4.45569e-05 -1.39424e-05 -2.71164e-06)
(-1.56227e-05 -4.29049e-06 -5.85986e-07)
(1.40945e-05 2.16211e-06 2.79082e-06)
(3.85947e-05 2.79852e-06 6.58817e-06)
(5.38992e-05 -2.80285e-06 9.74018e-06)
(5.87688e-05 -1.18346e-05 1.22743e-05)
(5.45394e-05 -1.95404e-05 1.36817e-05)
(4.29303e-05 -2.02e-05 1.37042e-05)
(2.50777e-05 -1.09606e-05 1.22855e-05)
(1.92121e-06 7.89371e-06 9.39765e-06)
(-1.95878e-05 3.85574e-05 3.21434e-06)
(-3.9027e-05 6.60354e-05 -2.00526e-06)
(-4.17548e-05 9.70755e-05 -7.08163e-06)
(-2.45039e-05 8.25123e-05 -6.95032e-06)
(-7.82514e-06 4.82797e-05 4.65336e-06)
(-2.38014e-05 1.33423e-06 -2.38014e-05)
(-1.1772e-05 -1.14412e-05 -1.90385e-05)
(3.15167e-05 -1.46702e-05 -1.74037e-05)
(5.23572e-05 -1.54653e-05 -1.42589e-05)
(7.2977e-05 -1.38135e-05 -1.01714e-05)
(8.48864e-05 -9.84462e-06 -5.56655e-06)
(8.61625e-05 -3.94894e-06 -1.11137e-06)
(7.5684e-05 2.42195e-06 2.17824e-06)
(5.44803e-05 7.36464e-06 4.76911e-06)
(2.58549e-05 8.91762e-06 6.23503e-06)
(-5.33319e-06 5.17689e-06 6.59459e-06)
(-3.33891e-05 -4.23948e-06 5.98496e-06)
(-5.34637e-05 -1.7787e-05 5.35699e-06)
(-6.28586e-05 -3.0657e-05 4.86055e-06)
(-6.07713e-05 -3.96992e-05 4.62447e-06)
(-4.82417e-05 -4.28245e-05 4.6351e-06)
(-2.83536e-05 -4.0651e-05 5.77086e-06)
(-5.42733e-06 -3.64936e-05 7.331e-06)
(1.58631e-05 -3.35207e-05 8.92002e-06)
(3.16529e-05 -3.33739e-05 1.02174e-05)
(3.94951e-05 -3.46228e-05 1.11519e-05)
(3.79324e-05 -3.36647e-05 1.19571e-05)
(2.71011e-05 -2.67473e-05 1.20134e-05)
(9.17653e-06 -1.07096e-05 1.07586e-05)
(-1.24109e-05 1.40074e-05 8.45014e-06)
(-3.02045e-05 4.22812e-05 5.23364e-06)
(-3.71494e-05 6.47671e-05 4.43815e-06)
(-2.6394e-05 6.92474e-05 7.07466e-06)
(-1.54362e-06 4.63568e-05 1.3663e-05)
(6.46594e-06 1.40789e-05 1.65106e-05)
(-2.53306e-05 5.12669e-05 -2.53306e-05)
(-9.87758e-06 -3.53575e-05 -1.93287e-05)
(3.76023e-05 -3.16148e-05 -1.68117e-05)
(5.80721e-05 -3.0781e-05 -1.31114e-05)
(7.79087e-05 -2.51306e-05 -8.98561e-06)
(8.79485e-05 -1.46303e-05 -5.07594e-06)
(8.83186e-05 -4.26144e-07 -1.71359e-06)
(7.97158e-05 1.51311e-05 1.00625e-06)
(6.39734e-05 2.7453e-05 2.45521e-06)
(4.38455e-05 3.31275e-05 4.0305e-06)
(2.19902e-05 2.88527e-05 5.98331e-06)
(6.47446e-07 1.42861e-05 8.12338e-06)
(-1.80364e-05 -7.46575e-06 1.01332e-05)
(-3.28527e-05 -3.06852e-05 1.18464e-05)
(-4.31476e-05 -5.01995e-05 1.27543e-05)
(-4.7804e-05 -6.27245e-05 1.26279e-05)
(-4.58532e-05 -6.76258e-05 1.09605e-05)
(-3.69695e-05 -6.7041e-05 8.48127e-06)
(-2.30994e-05 -6.39581e-05 6.0739e-06)
(-8.29888e-06 -5.96978e-05 4.34509e-06)
(3.41005e-06 -5.41116e-05 3.29225e-06)
(8.45198e-06 -4.50961e-05 2.49654e-06)
(4.81174e-06 -3.03723e-05 1.19628e-06)
(-4.2717e-06 -8.49685e-06 -3.2188e-07)
(-1.38097e-05 1.8211e-05 -1.71025e-06)
(-1.75201e-05 3.75752e-05 -1.06898e-06)
(-9.05859e-06 4.2702e-05 3.38382e-06)
(7.75505e-06 2.74931e-05 8.66731e-06)
(1.57135e-05 6.4709e-06 1.20006e-05)
(7.76835e-06 3.70513e-08 6.20357e-06)
(-1.15098e-05 8.31168e-05 -1.15098e-05)
(4.83252e-06 -6.64618e-05 -4.15865e-06)
(3.66033e-05 -5.45249e-05 -1.40348e-06)
(4.73847e-05 -5.05887e-05 1.2975e-06)
(5.5431e-05 -4.0311e-05 3.94462e-06)
(5.67462e-05 -2.34153e-05 5.18791e-06)
(5.37707e-05 -2.15108e-06 5.03776e-06)
(4.89486e-05 1.85864e-05 3.98312e-06)
(4.41701e-05 3.48415e-05 3.61513e-06)
(3.99818e-05 4.24907e-05 4.47608e-06)
(3.50829e-05 3.78927e-05 6.54862e-06)
(2.73135e-05 2.1781e-05 9.81942e-06)
(1.44877e-05 -1.77861e-06 1.31025e-05)
(-4.0457e-06 -2.74549e-05 1.48248e-05)
(-2.62894e-05 -4.91638e-05 1.49072e-05)
(-4.74203e-05 -6.47799e-05 1.25039e-05)
(-6.2215e-05 -7.39646e-05 8.16542e-06)
(-6.71803e-05 -7.80787e-05 3.01674e-06)
(-6.206e-05 -7.81807e-05 -1.79606e-06)
(-4.9983e-05 -7.40856e-05 -5.14864e-06)
(-3.56049e-05 -6.51663e-05 -7.2729e-06)
(-2.37183e-05 -5.02469e-05 -8.67387e-06)
(-1.67747e-05 -2.84833e-05 -1.00107e-05)
(-1.1942e-05 -3.0676e-06 -1.02627e-05)
(-5.36646e-06 1.89298e-05 -8.83696e-06)
(6.20611e-06 2.73153e-05 -5.29462e-06)
(2.11323e-05 2.09117e-05 -4.414e-07)
(2.78818e-05 7.86468e-06 2.2863e-06)
(1.67766e-05 7.2443e-06 -7.54385e-07)
(3.39562e-06 1.32909e-05 -5.67928e-06)
(1.57525e-05 6.82372e-05 1.57525e-05)
(2.6344e-05 -0.000100045 1.99883e-05)
(2.07984e-05 -8.22524e-05 2.31335e-05)
(1.35173e-05 -7.28161e-05 2.22622e-05)
(1.06083e-06 -5.81661e-05 2.00406e-05)
(-9.53506e-06 -3.70955e-05 1.55047e-05)
(-1.58279e-05 -1.27792e-05 9.60452e-06)
(-1.42658e-05 9.90346e-06 4.54025e-06)
(-3.88551e-06 2.63358e-05 8.64562e-07)
(1.17456e-05 3.40978e-05 -1.31634e-07)
(2.69521e-05 3.16962e-05 1.36078e-06)
(3.47063e-05 2.11923e-05 4.06624e-06)
(2.98959e-05 5.53873e-06 6.1957e-06)
(1.27527e-05 -1.13864e-05 6.81505e-06)
(-1.35045e-05 -2.71056e-05 4.47766e-06)
(-4.25844e-05 -4.05209e-05 2.79836e-07)
(-6.64235e-05 -5.23045e-05 -4.7563e-06)
(-7.95981e-05 -6.25731e-05 -9.30746e-06)
(-8.03999e-05 -7.02086e-05 -1.24764e-05)
(-7.12669e-05 -7.20101e-05 -1.40374e-05)
(-5.68452e-05 -6.54036e-05 -1.45382e-05)
(-4.10523e-05 -5.01083e-05 -1.42888e-05)
(-2.52307e-05 -2.78021e-05 -1.2964e-05)
(-8.94681e-06 -5.55633e-06 -1.06968e-05)
(1.00052e-05 9.1314e-06 -6.45935e-06)
(2.89094e-05 1.20988e-05 -1.68986e-06)
(3.90635e-05 9.54037e-06 1.88231e-06)
(3.28736e-05 1.5672e-05 1.66607e-06)
(1.57446e-05 3.30118e-05 -1.77908e-06)
(3.57963e-06 2.62146e-05 1.67021e-06)
(4.44255e-05 -1.00448e-05 4.44255e-05)
(3.9935e-05 -0.000122428 4.12988e-05)
(-1.40106e-05 -0.000102906 3.79124e-05)
(-3.88159e-05 -8.71293e-05 3.09863e-05)
(-6.91948e-05 -6.71959e-05 2.25036e-05)
(-8.90374e-05 -4.36928e-05 1.23757e-05)
(-9.48228e-05 -2.08884e-05 2.46953e-06)
(-8.4465e-05 -1.17966e-06 -5.86814e-06)
(-5.96204e-05 1.23937e-05 -1.06025e-05)
(-2.62506e-05 1.91157e-05 -1.21904e-05)
(5.75852e-06 2.1995e-05 -1.16427e-05)
(2.62367e-05 2.4081e-05 -1.07798e-05)
(3.02537e-05 2.50914e-05 -1.04025e-05)
(1.88955e-05 2.48282e-05 -1.14171e-05)
(-2.88088e-06 2.03385e-05 -1.35728e-05)
(-2.78282e-05 1.06944e-05 -1.58514e-05)
(-4.91306e-05 -4.91927e-06 -1.75338e-05)
(-6.21279e-05 -2.42867e-05 -1.84013e-05)
(-6.56436e-05 -4.2871e-05 -1.82433e-05)
(-6.14492e-05 -5.47087e-05 -1.70636e-05)
(-5.22295e-05 -5.60877e-05 -1.51863e-05)
(-3.89707e-05 -4.75538e-05 -1.28602e-05)
(-2.13355e-05 -3.30926e-05 -9.72907e-06)
(5.76986e-08 -1.98285e-05 -5.81759e-06)
(2.23773e-05 -1.166e-05 -9.8642e-07)
(3.89036e-05 -6.8873e-06 3.96079e-06)
(4.16571e-05 3.48881e-06 6.59861e-06)
(3.16785e-05 2.51082e-05 6.94295e-06)
(2.1326e-05 4.13333e-05 8.8926e-06)
(9.54767e-06 2.52457e-05 1.38473e-05)
(5.31692e-05 -0.000123663 5.31692e-05)
(2.86545e-05 -0.000108264 3.55528e-05)
(-6.04611e-05 -8.94307e-05 2.80555e-05)
(-9.69821e-05 -6.97686e-05 1.72984e-05)
(-0.000132982 -4.69763e-05 5.40935e-06)
(-0.000151895 -2.56715e-05 -5.73336e-06)
(-0.000150425 -1.04651e-05 -1.41661e-05)
(-0.000128355 -2.64678e-06 -1.83347e-05)
(-9.14761e-05 2.11294e-06 -2.00681e-05)
(-4.94481e-05 6.94865e-06 -2.0138e-05)
(-1.11254e-05 1.75528e-05 -1.90758e-05)
(1.45013e-05 3.46115e-05 -1.83836e-05)
(2.44886e-05 5.41403e-05 -1.87503e-05)
(2.23659e-05 7.00336e-05 -1.96361e-05)
(1.25382e-05 7.59403e-05 -2.01412e-05)
(-1.24241e-07 6.86974e-05 -1.9844e-05)
(-1.20126e-05 4.852e-05 -1.85177e-05)
(-2.14788e-05 1.99916e-05 -1.61251e-05)
(-2.89059e-05 -8.61281e-06 -1.31641e-05)
(-3.41725e-05 -3.00996e-05 -1.05686e-05)
(-3.58689e-05 -4.10601e-05 -8.78432e-06)
(-3.17687e-05 -4.2548e-05 -7.40177e-06)
(-2.01316e-05 -3.86101e-05 -6.09038e-06)
(-2.08056e-06 -3.38094e-05 -4.53868e-06)
(1.6347e-05 -2.87012e-05 -2.69615e-06)
(2.71035e-05 -1.63921e-05 -1.40177e-06)
(2.78517e-05 6.37026e-06 -1.39547e-06)
(2.48169e-05 2.90986e-05 8.2658e-07)
(1.95995e-05 3.78735e-05 5.969e-06)
(8.33224e-06 3.1661e-05 -7.56148e-08)
(3.12193e-05 -0.000196119 3.12193e-05)
(-1.05586e-05 -3.97554e-05 1.01217e-05)
(-9.79616e-05 -2.88611e-05 8.70913e-07)
(-0.000132521 -1.26848e-05 -9.62708e-06)
(-0.000158827 3.39497e-06 -1.6576e-05)
(-0.000165313 1.11297e-05 -1.94326e-05)
(-0.00015142 8.44189e-06 -2.00091e-05)
(-0.00012109 -9.0549e-07 -1.89071e-05)
(-8.33625e-05 -7.5623e-06 -1.60935e-05)
(-4.68529e-05 -3.80142e-06 -1.38454e-05)
(-1.64955e-05 1.45207e-05 -1.26487e-05)
(4.39428e-06 4.31826e-05 -1.324e-05)
(1.74126e-05 7.5714e-05 -1.44188e-05)
(2.6294e-05 0.000101213 -1.48911e-05)
(3.19324e-05 0.000111474 -1.35913e-05)
(3.42544e-05 0.00010408 -1.06305e-05)
(3.17809e-05 8.13731e-05 -6.47092e-06)
(2.28167e-05 4.9152e-05 -2.07059e-06)
(7.88888e-06 1.71723e-05 1.27402e-06)
(-1.00197e-05 -8.05163e-06 2.55346e-06)
(-2.58632e-05 -2.45248e-05 1.43773e-06)
(-3.36019e-05 -3.3198e-05 -1.302e-06)
(-3.08371e-05 -3.64777e-05 -4.33289e-06)
(-2.08615e-05 -3.46226e-05 -6.71954e-06)
(-9.65526e-06 -2.49126e-05 -8.93757e-06)
(-2.21401e-06 -3.13884e-06 -1.16977e-05)
(5.13936e-07 2.48888e-05 -1.37725e-05)
(4.33156e-06 4.41383e-05 -1.30861e-05)
(-1.81864e-06 5.69516e-05 -1.48244e-05)
(-5.84098e-06 5.95204e-05 -2.22632e-05)
(-5.45106e-06 -0.000182332 -5.45106e-06)
(-5.133e-05 6.13508e-05 -2.04932e-05)
(-0.000103292 5.41128e-05 -2.16793e-05)
(-0.000122506 5.68793e-05 -2.32818e-05)
(-0.000128674 5.40707e-05 -2.16025e-05)
(-0.00011785 3.83561e-05 -1.78214e-05)
(-9.54609e-05 1.36765e-05 -1.21424e-05)
(-6.98433e-05 -1.05544e-05 -6.4602e-06)
(-4.67226e-05 -2.3814e-05 -1.86386e-06)
(-2.92487e-05 -1.86453e-05 2.13644e-07)
(-1.73843e-05 5.64233e-06 -8.22091e-07)
(-6.78504e-06 4.10829e-05 -3.58554e-06)
(7.41549e-06 7.79048e-05 -6.39246e-06)
(2.60862e-05 0.000104206 -6.48188e-06)
(4.49289e-05 0.000114173 -3.95761e-06)
(5.80007e-05 0.000107277 7.82308e-07)
(6.04097e-05 8.71733e-05 6.26654e-06)
(4.96751e-05 5.98007e-05 1.01634e-05)
(2.74077e-05 3.2822e-05 1.15016e-05)
(6.99928e-08 1.01934e-05 1.00524e-05)
(-2.35018e-05 -7.61598e-06 7.03981e-06)
(-3.64869e-05 -2.09777e-05 3.63931e-06)
(-3.9168e-05 -2.883e-05 1.04918e-06)
(-3.70675e-05 -2.60849e-05 -9.81528e-07)
(-3.51803e-05 -9.25161e-06 -3.59438e-06)
(-3.43196e-05 1.76922e-05 -6.72688e-06)
(-3.16155e-05 4.48987e-05 -9.02806e-06)
(-2.73066e-05 6.60563e-05 -1.1411e-05)
(-2.42149e-05 8.73889e-05 -1.63981e-05)
(-1.24048e-05 7.20777e-05 -9.10692e-06)
(-2.76516e-05 -9.79149e-05 -2.76516e-05)
(-6.1326e-05 0.000149361 -2.79851e-05)
(-7.06619e-05 0.00011833 -2.45563e-05)
(-6.84286e-05 0.000101826 -2.09985e-05)
(-5.60545e-05 7.57485e-05 -1.42578e-05)
(-3.75383e-05 3.91351e-05 -6.50288e-06)
(-1.99723e-05 2.05529e-07 6.12812e-07)
(-9.93427e-06 -2.86564e-05 5.74747e-06)
(-9.62242e-06 -3.95329e-05 7.43503e-06)
(-1.56984e-05 -2.80823e-05 4.50853e-06)
(-2.04517e-05 9.94106e-07 -7.70949e-07)
(-1.62932e-05 3.62955e-05 -5.59355e-06)
(-2.82945e-07 6.77702e-05 -7.54495e-06)
(2.45336e-05 8.82877e-05 -6.41007e-06)
(4.92355e-05 9.62152e-05 -2.18308e-06)
(6.4708e-05 9.31467e-05 3.14967e-06)
(6.57697e-05 8.17779e-05 6.91951e-06)
(5.21042e-05 6.54879e-05 8.56395e-06)
(2.92142e-05 4.68493e-05 8.68367e-06)
(5.34647e-06 2.65328e-05 8.19979e-06)
(-1.26319e-05 4.92096e-06 8.10583e-06)
(-2.23551e-05 -1.56898e-05 9.43143e-06)
(-2.72245e-05 -2.92696e-05 1.20852e-05)
(-3.33352e-05 -2.71431e-05 1.37962e-05)
(-4.21961e-05 -8.26021e-06 1.34429e-05)
(-4.8043e-05 1.71499e-05 1.27275e-05)
(-4.6723e-05 3.89288e-05 1.21598e-05)
(-4.01673e-05 5.80806e-05 1.19668e-05)
(-1.94756e-05 6.8534e-05 1.39298e-05)
(-2.10114e-06 3.07155e-05 3.06789e-05)
(-2.98131e-05 -6.83275e-07 -2.98131e-05)
(-4.06366e-05 0.000190917 -2.25928e-05)
(-1.9371e-05 0.000144838 -1.84082e-05)
(-5.77796e-06 0.000112003 -1.34219e-05)
(1.26264e-05 7.08453e-05 -7.5619e-06)
(2.77562e-05 2.64162e-05 -2.46684e-06)
(3.3958e-05 -1.14297e-05 5.29591e-07)
(2.7851e-05 -3.08083e-05 9.67656e-07)
(1.11499e-05 -3.10893e-05 -2.13417e-06)
(-6.56078e-06 -1.30677e-05 -6.20597e-06)
(-1.5531e-05 1.24896e-05 -9.66723e-06)
(-1.09132e-05 3.62891e-05 -1.06325e-05)
(6.45222e-06 5.45104e-05 -8.96062e-06)
(2.87606e-05 6.64046e-05 -4.4904e-06)
(4.67883e-05 7.3822e-05 5.95208e-07)
(5.40749e-05 7.78786e-05 3.85324e-06)
(4.98803e-05 7.78953e-05 5.14915e-06)
(3.77945e-05 7.19459e-05 4.92598e-06)
(2.39465e-05 5.78412e-05 4.35726e-06)
(1.33989e-05 3.45407e-05 5.4619e-06)
(7.21854e-06 5.39382e-06 8.61942e-06)
(1.28853e-06 -2.23857e-05 1.27347e-05)
(-9.51612e-06 -3.90539e-05 1.60027e-05)
(-2.54507e-05 -3.74529e-05 1.6747e-05)
(-4.00894e-05 -2.25415e-05 1.60669e-05)
(-4.49048e-05 -8.36723e-06 1.65074e-05)
(-3.81817e-05 -6.35056e-07 1.94567e-05)
(-2.29159e-05 2.91981e-06 2.4439e-05)
(2.09943e-06 -1.03478e-05 3.34347e-05)
(8.87469e-06 -2.81544e-05 2.9645e-05)
(-2.44215e-05 6.36967e-05 -2.44215e-05)
(-1.56416e-05 0.00019103 -1.63753e-05)
(1.88993e-05 0.000143053 -1.52703e-05)
(3.27548e-05 0.000104673 -1.29908e-05)
(5.06205e-05 6.09064e-05 -1.05017e-05)
(6.01623e-05 2.11385e-05 -8.54654e-06)
(5.92457e-05 -4.46257e-06 -7.26692e-06)
(4.8408e-05 -1.14121e-05 -7.09762e-06)
(3.2352e-05 -4.78558e-06 -7.40181e-06)
(1.80162e-05 9.59367e-06 -7.04595e-06)
(1.19689e-05 2.17414e-05 -4.3523e-06)
(1.62562e-05 2.78461e-05 6.17464e-07)
(2.53761e-05 3.33325e-05 6.49754e-06)
(3.1243e-05 3.94697e-05 1.17456e-05)
(3.03943e-05 5.02114e-05 1.33732e-05)
(2.41421e-05 6.28026e-05 1.1575e-05)
(1.6503e-05 7.12045e-05 8.07677e-06)
(1.20191e-05 6.94402e-05 5.53549e-06)
(1.23055e-05 5.45961e-05 5.16119e-06)
(1.45409e-05 2.82021e-05 6.54757e-06)
(1.27412e-05 -2.51414e-06 8.85939e-06)
(2.30905e-07 -2.66543e-05 9.38491e-06)
(-2.18643e-05 -3.50494e-05 6.20318e-06)
(-4.34131e-05 -2.82567e-05 -8.52165e-07)
(-5.29724e-05 -2.09363e-05 -5.08379e-06)
(-4.68831e-05 -2.35775e-05 -4.47948e-06)
(-3.18044e-05 -2.95401e-05 -1.50134e-06)
(-1.3209e-05 -3.61549e-05 4.33764e-07)
(-7.42249e-06 -4.34417e-05 -1.96601e-06)
(-5.88002e-06 -1.93793e-05 -2.05778e-05)
(-1.85933e-05 9.85174e-05 -1.85933e-05)
(-2.92575e-06 0.000171291 -1.4923e-05)
(3.50716e-05 0.000128617 -1.49948e-05)
(5.17567e-05 9.17308e-05 -1.32727e-05)
(7.08267e-05 5.1111e-05 -1.0628e-05)
(8.18842e-05 1.93309e-05 -6.46617e-06)
(8.34158e-05 2.37146e-06 -3.00924e-06)
(7.68495e-05 -2.63825e-07 6.54582e-07)
(6.73059e-05 3.78129e-06 4.75892e-06)
(5.94464e-05 6.87935e-06 1.04731e-05)
(5.3936e-05 5.99642e-06 1.67488e-05)
(4.70827e-05 -4.48768e-07 2.29324e-05)
(3.36544e-05 -2.32865e-07 2.673e-05)
(1.32431e-05 9.42523e-06 2.47141e-05)
(-8.43052e-06 2.84955e-05 1.85093e-05)
(-2.37043e-05 4.85945e-05 1.08674e-05)
(-2.62908e-05 5.89632e-05 5.15824e-06)
(-1.78391e-05 5.46713e-05 2.90034e-06)
(-5.70353e-06 3.82913e-05 3.58025e-06)
(-2.97226e-07 1.61783e-05 5.07138e-06)
(-9.95009e-06 -2.05988e-06 4.48904e-06)
(-3.36198e-05 -8.1036e-06 -1.16667e-06)
(-6.00884e-05 -3.17391e-06 -9.86246e-06)
(-7.38551e-05 2.11426e-06 -1.54415e-05)
(-6.72107e-05 -7.31115e-06 -1.64939e-05)
(-4.83349e-05 -2.28882e-05 -1.53445e-05)
(-3.18279e-05 -2.70452e-05 -1.52043e-05)
(-2.23603e-05 -1.69667e-05 -1.86829e-05)
(-2.96895e-05 1.01146e-05 -3.08863e-05)
(-2.07959e-05 1.98947e-05 -3.27132e-05)
(-1.39951e-05 0.000115937 -1.39951e-05)
(6.29207e-06 0.000139348 -9.76162e-06)
(4.88025e-05 0.000103456 -7.58734e-06)
(7.07964e-05 6.60865e-05 -2.6975e-06)
(9.24218e-05 2.73361e-05 3.09311e-06)
(0.000104509 -1.00551e-06 8.17374e-06)
(0.000107451 -1.48977e-05 1.25609e-05)
(0.000104923 -1.85504e-05 1.65839e-05)
(9.90939e-05 -1.98796e-05 2.10227e-05)
(9.00694e-05 -2.45111e-05 2.5812e-05)
(7.47232e-05 -2.95217e-05 3.01405e-05)
(4.81177e-05 -3.15045e-05 2.90848e-05)
(1.12818e-05 -1.97757e-05 2.30994e-05)
(-2.57706e-05 3.39679e-06 1.36702e-05)
(-5.26018e-05 3.04993e-05 2.27321e-06)
(-6.19216e-05 4.58598e-05 -4.5727e-06)
(-5.26932e-05 4.71984e-05 -6.15857e-06)
(-3.45158e-05 3.80253e-05 -4.77159e-06)
(-2.28786e-05 2.6432e-05 -1.48247e-06)
(-2.7808e-05 1.92646e-05 -1.63648e-06)
(-4.80301e-05 2.08386e-05 -6.50647e-06)
(-7.25661e-05 2.879e-05 -1.33644e-05)
(-8.51124e-05 2.96641e-05 -1.6733e-05)
(-7.6961e-05 1.32487e-05 -1.44505e-05)
(-5.6242e-05 -1.75228e-05 -7.99215e-06)
(-3.97092e-05 -3.34215e-05 -2.80791e-06)
(-3.40734e-05 -2.36693e-05 -4.54372e-06)
(-3.52378e-05 6.09111e-06 -9.40392e-06)
(-2.99223e-05 4.34005e-05 -1.43315e-05)
(-1.19644e-05 8.37032e-06 -5.14817e-06)
(-2.06166e-06 0.000111028 -2.06166e-06)
(2.65113e-05 8.86441e-05 5.05255e-06)
(6.93581e-05 5.73209e-05 9.62435e-06)
(9.33472e-05 1.8886e-05 1.494e-05)
(0.000109827 -1.75511e-05 1.90822e-05)
(0.000114992 -4.21848e-05 2.22018e-05)
(0.000112828 -5.24581e-05 2.32325e-05)
(0.000107394 -5.48157e-05 2.3302e-05)
(9.92009e-05 -5.47261e-05 2.32506e-05)
(8.42002e-05 -5.2723e-05 2.24055e-05)
(5.77506e-05 -4.35293e-05 1.96381e-05)
(1.88962e-05 -2.37508e-05 1.26696e-05)
(-2.41995e-05 7.07989e-06 2.75231e-06)
(-5.83071e-05 3.41423e-05 -6.06586e-06)
(-7.20521e-05 5.06888e-05 -8.88433e-06)
(-6.48484e-05 4.70523e-05 -8.67492e-06)
(-4.77375e-05 3.41218e-05 -3.80076e-06)
(-3.58247e-05 2.62874e-05 6.92645e-07)
(-4.12245e-05 2.80463e-05 1.28121e-06)
(-6.23681e-05 4.01478e-05 -4.74117e-06)
(-8.59146e-05 5.33301e-05 -1.25463e-05)
(-9.5323e-05 5.44139e-05 -1.60515e-05)
(-8.18954e-05 2.96146e-05 -1.18942e-05)
(-5.51718e-05 -1.45947e-05 -1.65269e-06)
(-3.60563e-05 -5.02249e-05 7.96624e-06)
(-3.51875e-05 -5.27127e-05 8.07116e-06)
(-4.0551e-05 -3.30555e-05 4.30211e-06)
(-4.02877e-05 -8.36208e-06 4.75412e-06)
(-2.05142e-05 6.92539e-06 8.7851e-06)
(-1.23927e-06 -3.00305e-05 9.17753e-06)
(1.38381e-05 6.93138e-05 1.38381e-05)
(5.06402e-05 1.46774e-05 2.0303e-05)
(8.56582e-05 -1.04141e-05 2.43975e-05)
(0.000103045 -4.24566e-05 2.70368e-05)
(0.000108162 -6.90867e-05 2.72091e-05)
(0.000102912 -8.22933e-05 2.41332e-05)
(9.41932e-05 -8.4837e-05 2.01219e-05)
(8.61894e-05 -8.1273e-05 1.65424e-05)
(7.66579e-05 -7.25948e-05 1.4334e-05)
(5.92009e-05 -5.4865e-05 1.23499e-05)
(3.0444e-05 -2.4621e-05 8.84923e-06)
(-5.22735e-06 1.21807e-05 3.34636e-06)
(-3.59637e-05 4.41943e-05 1.40424e-07)
(-5.09818e-05 5.5955e-05 -2.12723e-07)
(-4.76747e-05 4.73519e-05 4.30437e-06)
(-3.52394e-05 2.62583e-05 1.0946e-05)
(-2.98918e-05 8.64924e-06 1.76754e-05)
(-4.29825e-05 1.32609e-05 1.84009e-05)
(-7.1332e-05 3.54695e-05 1.08832e-05)
(-9.92096e-05 5.97699e-05 9.13257e-08)
(-0.000110283 6.58159e-05 -5.71966e-06)
(-9.59454e-05 4.06635e-05 -3.05775e-06)
(-6.52294e-05 -1.10406e-05 5.88761e-06)
(-4.34017e-05 -6.02106e-05 1.34813e-05)
(-4.5525e-05 -7.71591e-05 1.2037e-05)
(-5.83678e-05 -6.36265e-05 3.19917e-06)
(-6.05419e-05 -4.89134e-05 -6.54334e-07)
(-4.76245e-05 -4.46436e-05 9.77248e-07)
(-2.33461e-05 -4.30481e-05 8.74199e-07)
(-4.39773e-06 -6.01452e-05 -9.12893e-07)
(2.49612e-05 -1.42538e-05 2.49612e-05)
(6.34203e-05 -6.92682e-05 2.86738e-05)
(8.67658e-05 -8.39817e-05 2.96022e-05)
(9.64391e-05 -9.99984e-05 2.84242e-05)
(9.31327e-05 -0.000108961 2.47749e-05)
(8.32676e-05 -0.000109118 2.01436e-05)
(7.42515e-05 -0.000105057 1.66672e-05)
(6.77518e-05 -9.80349e-05 1.53185e-05)
(5.87085e-05 -8.27273e-05 1.51597e-05)
(4.14762e-05 -5.36308e-05 1.45123e-05)
(1.69081e-05 -1.28938e-05 1.24849e-05)
(-7.39728e-06 2.47382e-05 1.06175e-05)
(-1.99075e-05 4.23667e-05 1.13591e-05)
(-1.65023e-05 3.23597e-05 1.61208e-05)
(-6.28372e-06 3.89808e-06 2.27595e-05)
(-6.19912e-06 -1.91258e-05 2.87461e-05)
(-2.80398e-05 -2.21816e-05 2.70273e-05)
(-6.39886e-05 6.71932e-06 1.92985e-05)
(-9.81916e-05 4.37601e-05 8.54182e-06)
(-0.000113635 5.89799e-05 5.02309e-06)
(-0.000101413 3.7325e-05 9.97379e-06)
(-7.39568e-05 -1.54862e-05 1.95368e-05)
(-5.60892e-05 -7.21104e-05 2.76725e-05)
(-6.47348e-05 -9.82858e-05 2.53037e-05)
(-8.61767e-05 -9.14311e-05 1.56379e-05)
(-9.50617e-05 -7.6432e-05 9.613e-06)
(-8.66486e-05 -7.71135e-05 6.77703e-06)
(-7.09078e-05 -8.5517e-05 3.55167e-06)
(-3.40608e-05 -8.81032e-05 5.17088e-06)
(-2.79964e-06 -0.000107183 2.4298e-05)
(2.95004e-05 -0.000118383 2.95004e-05)
(6.52054e-05 -0.000147195 3.01626e-05)
(7.98076e-05 -0.000150663 2.97985e-05)
(8.68285e-05 -0.000148152 2.78103e-05)
(8.34238e-05 -0.000140968 2.46904e-05)
(7.64163e-05 -0.000133843 2.21614e-05)
(7.02405e-05 -0.000129351 2.09589e-05)
(6.25656e-05 -0.000121798 2.11353e-05)
(4.86659e-05 -0.000100884 2.02929e-05)
(2.82949e-05 -6.29451e-05 1.73272e-05)
(8.28208e-06 -1.95563e-05 1.28419e-05)
(-1.91473e-06 1.03525e-05 1.10461e-05)
(2.33572e-06 1.129e-05 1.33861e-05)
(1.29323e-05 -1.2543e-05 1.77645e-05)
(1.41535e-05 -3.87529e-05 2.16907e-05)
(-7.44255e-06 -4.174e-05 1.85502e-05)
(-4.52476e-05 -1.70555e-05 1.05311e-05)
(-7.88448e-05 2.1439e-05 3.55773e-06)
(-9.3348e-05 4.37278e-05 4.54826e-06)
(-8.15659e-05 2.63715e-05 1.31199e-05)
(-5.73597e-05 -2.55258e-05 2.5006e-05)
(-4.69152e-05 -8.50922e-05 3.57169e-05)