/*--------------------------------*- C++ -*----------------------------------*\
| =========                 |                                                 |
| \\      /  F ield         | OpenFOAM: The Open Source CFD Toolbox           |
|  \\    /   O peration     | Version:  2312                                  |
|   \\  /    A nd           | Website:  www.openfoam.com                      |
|    \\/     M anipulation  |                                                 |
\*---------------------------------------------------------------------------*/
FoamFile
{
    version     2.0;
    format      ascii;
    arch        "LSB;label=32;scalar=64";
    class       surfaceScalarField;
    location    "1.4126785425";
    object      alphaPhi0.water;
}
// * * * * * * * * * * * * * * * * * * * * * * * * * * * * * * * * * * * * * //

dimensions      [0 3 -1 0 0 0 0];

oriented        oriented;

internalField   nonuniform List<scalar> 
263100
(
-3.26552e-09
6.53068e-09
-3.26552e-09
1.24389e-09
-2.46242e-09
-1.91429e-09
3.09342e-09
-2.68359e-10
-1.47023e-09
4.36867e-09
-1.42996e-10
-1.02341e-09
5.30998e-09
-4.41116e-10
-3.89528e-10
6.1254e-09
-8.83719e-10
1.83245e-10
6.85235e-09
-1.30227e-09
6.95127e-10
7.2765e-09
-1.50992e-09
1.20884e-09
7.14939e-09
-1.36128e-09
1.61127e-09
6.36678e-09
-8.20212e-10
1.72105e-09
4.97416e-09
-6.87594e-11
1.57051e-09
3.10029e-09
7.65371e-10
1.20417e-09
1.05271e-09
1.41848e-09
7.07608e-10
-6.86447e-10
1.66948e-09
1.28576e-10
-1.80777e-09
1.3893e-09
-2.29196e-10
-2.03534e-09
6.94794e-10
-4.46197e-10
-1.43017e-09
-1.59846e-10
-4.36316e-10
-4.16145e-10
-8.50003e-10
-1.58609e-10
3.89578e-10
-1.19818e-09
4.03885e-10
3.79769e-10
-9.21431e-10
9.57316e-10
-8.34742e-10
-8.27005e-11
1.34354e-09
-3.26714e-09
1.07513e-09
1.42533e-09
-6.53748e-09
2.142e-09
1.21546e-09
-9.62504e-09
2.46431e-09
7.23498e-10
-1.1287e-08
1.62151e-09
1.46009e-10
-1.02389e-08
-3.53101e-10
-5.92372e-10
-5.57521e-09
-3.36841e-09
-1.2031e-09
4.0405e-09
-6.12833e-09
-3.41135e-09
1.66353e-08
-7.70132e-09
-4.83693e-09
4.54534e-08
-2.87894e-08
7.46639e-10
5.1889e-09
7.46639e-10
6.60084e-10
-2.9362e-09
7.51459e-10
6.76287e-10
-8.00017e-10
6.8815e-10
7.26168e-10
-6.19151e-10
5.98928e-10
9.73902e-10
-1.09202e-09
5.81008e-10
1.42585e-09
-1.69683e-09
5.45906e-10
2.05369e-09
-2.22976e-09
4.89295e-10
2.76615e-09
-2.4505e-09
4.17666e-10
3.47967e-09
-2.24194e-09
3.49993e-10
4.07757e-09
-1.59183e-09
3.43289e-10
4.443e-09
-6.82225e-10
3.9825e-10
4.56979e-09
1.98244e-10
5.66319e-10
4.37227e-09
8.67596e-10
8.46862e-10
3.91145e-09
9.98667e-10
1.20209e-09
3.11708e-09
6.80525e-10
1.54905e-09
2.01104e-09
-4.09364e-12
1.83426e-09
7.4081e-10
-8.56777e-10
1.99175e-09
-5.25112e-10
-1.49545e-09
1.9447e-09
-1.71585e-09
-1.62593e-09
1.67261e-09
-2.75224e-09
-1.09202e-09
1.28944e-09
-3.65296e-09
2.48551e-12
9.27681e-10
-4.41396e-09
1.24652e-09
7.26549e-10
-5.04168e-09
2.26613e-09
6.55585e-10
-5.23194e-09
2.07666e-09
7.32659e-10
-5.11191e-09
5.89401e-10
1.05691e-09
-5.17879e-09
-1.95597e-09
1.79365e-09
-5.52181e-09
-5.70753e-09
2.7771e-09
-1.66187e-09
-1.50428e-08
5.11492e-09
1.21903e-08
-2.98302e-08
8.29548e-09
5.38812e-08
3.72574e-09
1.70536e-09
1.86954e-09
1.70536e-09
-3.5873e-10
-1.63431e-09
8.38279e-10
-1.61538e-09
-1.47678e-10
6.68064e-10
-2.44206e-09
-1.08175e-10
3.78464e-10
-2.96161e-09
-5.85236e-10
7.89657e-11
-3.11784e-09
-1.32709e-09
-1.42498e-10
-2.74347e-09
-2.09022e-09
-4.39189e-10
-1.79914e-09
-2.61993e-09
-6.98603e-10
-2.96928e-10
-2.85063e-09
-8.17665e-10
1.59413e-09
-2.6571e-09
-7.51673e-10
3.63597e-09
-2.16509e-09
-4.87388e-10
5.44412e-09
-1.53876e-09
-2.91236e-12
6.73905e-09
-8.65641e-10
5.02043e-10
7.01836e-09
-3.35234e-10
1.11281e-09
6.16602e-09
2.65501e-11
1.55889e-09
4.23757e-09
2.06394e-10
1.76653e-09
1.5602e-09
2.47914e-10
1.62023e-09
-1.25812e-09
2.19719e-10
1.15304e-09
-3.5337e-09
2.06211e-10
4.97704e-10
-4.71158e-09
3.03737e-10
-1.59678e-10
-4.62064e-09
5.62546e-10
-5.92185e-10
-3.40917e-09
9.03506e-10
-8.14486e-10
-1.37902e-09
9.8305e-10
-7.0414e-10
8.16394e-10
3.14693e-10
-4.0702e-10
2.70171e-09
-1.14501e-09
-1.44802e-10
3.50471e-09
-2.78331e-09
8.61093e-12
8.48365e-10
-3.51323e-09
4.25388e-10
-6.54429e-09
-1.10949e-08
3.3903e-09
-4.34394e-09
-4.05523e-08
8.45834e-09
3.25899e-08
1.68667e-08
1.63763e-09
-1.38396e-09
1.63763e-09
-1.11626e-09
3.87985e-10
7.18531e-10
-2.80035e-09
1.02208e-09
4.97877e-10
-4.01933e-09
9.69529e-10
1.25064e-10
-4.95264e-09
4.99407e-10
-1.65983e-10
-5.49884e-09
-3.16749e-10
-4.77676e-10
-5.45132e-09
-1.28845e-09
-8.62425e-10
-4.67782e-09
-2.22749e-09
-1.17807e-09
-3.19332e-09
-2.99773e-09
-1.34596e-09
-1.10141e-09
-3.43831e-09
-1.31159e-09
1.35131e-09
-3.5116e-09
-1.09542e-09
3.72006e-09
-3.178e-09
-7.04478e-10
5.47824e-09
-2.39993e-09
-1.84507e-10
6.23011e-09
-1.19897e-09
1.6327e-10
5.74929e-09
2.33035e-10
3.33837e-10
4.07319e-09
1.7013e-09
2.43993e-10
1.60636e-09
2.8111e-09
-3.5415e-11
-9.39401e-10
3.3491e-09
-5.29752e-10
-2.84129e-09
3.1542e-09
-1.00469e-09
-3.50872e-09
2.38691e-09
-1.3923e-09
-2.64237e-09
1.3359e-09
-1.63909e-09
-4.31894e-10
3.62889e-10
-1.69516e-09
2.50921e-09
-4.7252e-10
-1.53705e-09
5.28211e-09
-1.35652e-09
-1.17662e-09
7.17223e-09
-2.39762e-09
-7.30736e-10
8.77905e-09
-3.72003e-09
-7.75947e-10
1.126e-08
-3.22864e-09
-2.88004e-09
3.51969e-09
2.48134e-11
-3.49958e-09
-1.05802e-08
-2.36748e-08
-2.89541e-09
1.5123e-08
6.78712e-09
1.33913e-09
-4.09101e-09
1.33913e-09
-1.10325e-09
2.20639e-09
5.95338e-10
-2.63304e-09
2.0917e-09
4.34896e-10
-3.76695e-09
1.90852e-09
1.70598e-10
-4.70928e-09
1.4914e-09
-7.71491e-11
-5.38723e-09
6.14907e-10
-2.88071e-10
-5.68904e-09
-4.97857e-10
-5.31237e-10
-5.51879e-09
-1.74677e-09
-6.99047e-10
-4.80771e-09
-2.89817e-09
-8.58457e-10
-3.54168e-09
-3.84393e-09
-9.0046e-10
-1.89916e-09
-4.33305e-09
-8.46354e-10
-1.71291e-10
-4.19151e-09
-7.20483e-10
1.36797e-09
-3.30264e-09
-6.22507e-10
2.40743e-09
-1.62663e-09
-5.80209e-10
2.80227e-09
5.51947e-10
-6.70012e-10
2.45458e-09
2.93466e-09
-8.36977e-10
1.52167e-09
4.79522e-09
-1.00547e-09
4.44889e-10
5.61258e-09
-1.15189e-09
-2.38495e-10
5.16492e-09
-1.31084e-09
-9.92205e-11
3.6871e-09
-1.44718e-09
9.90238e-10
1.76351e-09
-1.55211e-09
2.91928e-09
-2.53293e-11
-1.60241e-09
5.26779e-09
-1.30213e-09
-1.60177e-09
7.32123e-09
-2.0073e-09
-1.49783e-09
8.25828e-09
-2.20482e-09
-1.22727e-09
7.78237e-09
-2.73075e-09
-6.05279e-10
8.19667e-09
-3.04194e-09
-6.84956e-10
5.56853e-09
4.45001e-09
-1.87649e-09
-6.27094e-09
-7.7705e-09
-4.13785e-09
9.20511e-09
-3.95061e-10
6.79444e-10
-5.47199e-09
6.79444e-10
-5.14027e-10
3.1243e-09
3.14644e-10
-1.19705e-09
2.48827e-09
3.28156e-10
-1.67338e-09
2.13904e-09
2.85389e-10
-2.17308e-09
1.74585e-09
2.73757e-10
-2.73679e-09
9.45738e-10
2.44008e-10
-3.31673e-09
-1.59677e-10
2.33791e-10
-3.9214e-09
-1.42723e-09
2.6122e-10
-4.48278e-09
-2.64509e-09
2.74987e-10
-4.82708e-09
-3.72113e-09
1.86684e-10
-4.85184e-09
-4.39599e-09
5.84198e-11
-4.48538e-09
-4.46994e-09
-1.07096e-10
-3.66818e-09
-3.77008e-09
-3.56799e-10
-2.45789e-09
-2.2169e-09
-6.15825e-10
-1.01315e-09
-7.08548e-11
-8.0926e-10
4.02776e-10
2.44825e-09
-9.12297e-10
1.61788e-09
4.45061e-09
-8.53439e-10
2.53813e-09
5.39886e-09
-6.94795e-10
3.23624e-09
4.98357e-09
-5.15852e-10
3.83238e-09
3.47551e-09
-3.99084e-10
4.50953e-09
1.47316e-09
-4.18834e-10
5.36074e-09
-3.7303e-10
-5.50691e-10
6.25505e-09
-1.52245e-09
-7.29083e-10
6.94834e-09
-1.82662e-09
-9.26611e-10
7.05875e-09
-1.16598e-09
-1.18999e-09
5.30323e-09
2.69733e-10
-1.26933e-09
2.49734e-09
8.79781e-10
-1.12583e-09
1.80079e-09
7.5248e-09
-2.3804e-09
-4.01657e-09
2.95932e-09
-4.90798e-09
8.10864e-09
-2.89656e-09
-4.2504e-10
-4.58448e-09
-4.2504e-10
1.96379e-10
2.90145e-09
-2.70504e-10
9.38044e-10
1.93846e-09
-6.87338e-11
1.60436e-09
1.54957e-09
3.80688e-11
1.95974e-09
1.19874e-09
2.89277e-10
1.80767e-09
6.27386e-10
5.45177e-10
1.0207e-09
-1.20923e-10
7.99438e-10
-3.72148e-10
-1.01609e-09
1.01225e-09
-2.22722e-09
-1.92733e-09
1.15194e-09
-4.30536e-09
-2.76514e-09
1.12599e-09
-6.21178e-09
-3.42388e-09
9.31776e-10
-7.41189e-09
-3.82449e-09
5.49282e-10
-7.48833e-09
-3.75835e-09
5.93991e-11
-6.36775e-09
-3.03215e-09
-3.07851e-10
-4.27595e-09
-1.6927e-09
-4.66989e-10
-1.4873e-09
3.08444e-11
-3.60752e-10
1.3579e-09
1.66559e-09
-4.20258e-11
3.83787e-09
2.63295e-09
3.08971e-10
5.55882e-09
2.59797e-09
6.87261e-10
6.45494e-09
1.62158e-09
9.7353e-10
6.66794e-09
1.2826e-10
1.13616e-09
6.35756e-09
-1.13039e-09
1.06084e-09
5.71028e-09
-1.77366e-09
8.86229e-10
4.626e-09
-1.44605e-09
6.94856e-10
3.24063e-09
-5.56552e-11
2.76583e-10
1.19975e-09
2.79166e-09
-4.67646e-10
-1.85516e-09
5.02648e-09
-1.06955e-09
-1.99932e-09
9.87512e-09
-2.17787e-09
-3.54577e-09
8.02536e-09
-3.48267e-09
6.50113e-09
-1.89838e-09
-1.80618e-09
-8.73931e-10
-1.80618e-09
7.6541e-10
1.66129e-09
-1.18757e-09
2.96459e-09
8.23963e-10
-9.5178e-10
4.84121e-09
4.74034e-10
-6.79483e-10
6.13901e-09
2.81789e-10
-2.7331e-10
6.55532e-09
1.56531e-10
1.47915e-10
5.82809e-09
1.2144e-10
5.65783e-10
3.95973e-09
4.59125e-11
8.76618e-10
1.16862e-09
-1.3037e-10
1.05473e-09
-2.10825e-09
-4.66973e-10
1.0296e-09
-5.28162e-09
-1.02967e-09
8.20585e-10
-7.63305e-09
-1.93781e-09
4.98335e-10
-8.66339e-09
-2.88481e-09
1.86552e-10
-8.11221e-09
-3.51463e-09
-3.65138e-11
-6.09442e-09
-3.59411e-09
-7.46209e-11
-3.08044e-09
-3.08231e-09
1.56003e-10
3.17241e-10
-2.17821e-09
5.19157e-10
3.45893e-09
-1.3804e-09
9.56162e-10
5.74897e-09
-1.03045e-09
1.42473e-09
6.91886e-09
-1.29821e-09
1.82693e-09
6.96316e-09
-1.94616e-09
2.08969e-09
6.156e-09
-2.52005e-09
2.23718e-09
4.63059e-09
-2.4779e-09
2.25495e-09
2.43418e-09
-1.3584e-09
2.12533e-09
-2.11461e-10
8.0021e-10
1.80187e-09
-2.32172e-09
3.96035e-09
9.50194e-10
-4.39146e-09
6.95776e-09
1.44841e-10
-3.23667e-09
9.014e-09
-2.83629e-10
-2.00415e-09
7.05743e-09
-2.44112e-10
3.29779e-09
1.21269e-09
-2.66892e-09
4.56157e-09
-2.66892e-09
1.34327e-09
-4.96663e-10
-1.82373e-09
4.53599e-09
-7.18553e-10
-1.62506e-09
7.16203e-09
-8.86816e-10
-1.24449e-09
8.9855e-09
-7.00247e-10
-8.1731e-10
9.70803e-09
-1.58037e-10
-3.73455e-10
9.13415e-09
7.26272e-10
1.74456e-11
7.27899e-09
1.75819e-09
2.04173e-10
4.38816e-09
2.51061e-09
3.19439e-10
9.4521e-10
2.72484e-09
3.2314e-10
-2.4124e-09
2.1434e-09
2.5475e-10
-5.13362e-09
7.07803e-10
1.43772e-10
-6.76542e-09
-1.3041e-09
1.21644e-10
-7.11269e-09
-3.29078e-09
2.03978e-10
-6.19745e-09
-4.7811e-09
3.69861e-10
-4.25032e-09
-5.47666e-09
5.66427e-10
-1.69475e-09
-5.41179e-09
8.15169e-10
9.21157e-10
-4.93843e-09
1.08747e-09
3.17457e-09
-4.49632e-09
1.35279e-09
4.68052e-09
-4.27486e-09
1.59456e-09
5.19792e-09
-4.14798e-09
1.78619e-09
4.63375e-09
-3.866e-09
1.99095e-09
3.09423e-09
-2.96529e-09
2.09106e-09
8.57052e-10
-1.0404e-09
1.96916e-09
-1.63125e-09
1.65023e-09
1.67317e-09
-3.22189e-09
4.38931e-09
1.18058e-09
-3.48231e-09
6.11856e-09
1.10725e-09
-1.43571e-09
5.4415e-09
1.53151e-09
2.52834e-10
2.86316e-09
2.511e-09
8.98225e-10
2.63973e-09
-2.55558e-09
9.68072e-09
-2.55558e-09
1.91465e-09
-3.62522e-09
-1.5223e-09
5.22366e-09
-2.98717e-09
-1.20582e-09
7.81494e-09
-2.87391e-09
-7.55841e-10
9.45263e-09
-2.11666e-09
-3.42618e-10
9.95839e-09
-7.17174e-10
-2.70574e-11
9.44113e-09
1.12611e-09
7.96021e-11
7.96853e-09
3.07292e-09
1.56418e-10
5.87282e-09
4.59066e-09
3.97021e-11
3.45254e-09
5.2052e-09
-2.17438e-11
9.96649e-10
4.5542e-09
9.059e-11
-1.25899e-09
2.69905e-09
3.15716e-10
-3.1491e-09
6.82473e-11
5.78446e-10
-4.56208e-09
-2.63218e-09
8.29632e-10
-5.35282e-09
-4.88824e-09
9.90389e-10
-5.41409e-09
-6.34253e-09
1.03385e-09
-4.64621e-09
-6.9791e-09
9.11607e-10
-3.12369e-09
-7.04705e-09
6.92879e-10
-1.22019e-09
-6.81817e-09
5.1214e-10
5.0394e-10
-6.38623e-09
4.68055e-10
1.63947e-09
-5.73318e-09
5.24584e-10
1.82316e-09
-4.53745e-09
5.65666e-10
1.08492e-09
-2.60503e-09
4.62472e-10
-1.15949e-10
4.8276e-11
1.98131e-10
-1.18632e-09
2.90604e-09
-1.08259e-10
-1.18164e-09
4.55259e-09
-1.06155e-10
1.11161e-10
4.38179e-09
4.90986e-10
1.56951e-09
2.69666e-09
1.31916e-09
1.20292e-09
1.53056e-09
1.70755e-09
1.40003e-09
6.80636e-10
-5.48581e-10
1.06417e-08
-5.4858e-10
2.67415e-09
-7.70209e-09
4.73312e-10
4.63734e-09
-5.9919e-09
7.04461e-10
5.83441e-09
-5.31125e-09
9.39707e-10
6.27774e-09
-3.93646e-09
1.12925e-09
6.0776e-09
-1.84323e-09
1.13916e-09
5.56073e-09
5.49773e-10
9.61702e-10
4.96071e-09
2.98692e-09
5.97441e-10
4.44443e-09
4.72931e-09
3.16918e-10
3.92592e-09
5.46476e-09
2.13593e-10
3.22084e-09
4.89773e-09
3.24424e-10
2.04569e-09
3.21061e-09
6.33024e-10
2.32477e-10
9.11708e-10
9.46486e-10
-2.08831e-09
-1.40578e-09
1.077e-09
-4.48928e-09
-3.49548e-09
9.90357e-10
-6.41556e-09
-5.07789e-09
6.32774e-10
-7.3338e-09
-6.20103e-09
9.03764e-11
-7.01825e-09
-6.98384e-09
-4.51895e-10
-5.68818e-09
-7.42509e-09
-8.09916e-10
-3.87226e-09
-7.31093e-09
-9.71264e-10
-2.21684e-09
-6.40459e-09
-1.0344e-09
-1.17792e-09
-4.53941e-09
-1.04388e-09
-7.72071e-10
-1.80403e-09
-1.17281e-09
-3.38605e-10
9.26355e-10
-1.25247e-09
4.92757e-10
3.22106e-09
-1.08064e-09
1.81695e-09
3.8973e-09
-6.0828e-10
3.0815e-09
3.17208e-09
-6.08124e-12
2.90019e-09
2.66872e-09
2.35167e-10
1.06987e-09
3.70419e-09
-3.52974e-10
3.44556e-09
-1.00045e-09
2.63455e-09
5.11599e-09
2.63455e-09
2.60778e-09
-1.12635e-08
3.13975e-09
1.88109e-09
-9.17887e-09
3.52988e-09
5.95714e-10
-7.70483e-09
3.34564e-09
-7.58614e-10
-5.76238e-09
2.90443e-09
-1.74755e-09
-3.22151e-09
2.14567e-09
-2.05045e-09
-5.36069e-10
1.20957e-09
-1.35994e-09
1.7491e-09
3.95541e-10
1.27803e-10
3.2883e-09
-1.83926e-10
1.88281e-09
3.93584e-09
-3.56303e-10
3.18648e-09
3.75223e-09
-2.84035e-10
3.3306e-09
3.08383e-09
-1.4031e-10
2.05843e-09
2.14657e-09
-8.7588e-11
-4.26485e-10
1.15976e-09
-2.18706e-10
-3.50951e-09
3.49976e-11
-6.14926e-10
-6.34172e-09
-1.28058e-09
-1.17648e-09
-8.17396e-09
-2.88851e-09
-1.73926e-09
-8.63958e-09
-4.64375e-09
-2.16739e-09
-7.86221e-09
-6.10984e-09
-2.38969e-09
-6.30882e-09
-6.74541e-09
-2.3844e-09
-4.56689e-09
-6.15624e-09
-2.19784e-09
-2.91478e-09
-4.38823e-09
-1.94713e-09
-1.30509e-09
-1.88934e-09
-1.61862e-09
5.33069e-10
2.55957e-10
-1.23471e-09
2.61691e-09
1.66867e-09
-5.8717e-10
4.3169e-09
2.07191e-09
7.48655e-11
4.58348e-09
2.3517e-09
5.03287e-10
3.04743e-09
3.81248e-09
3.32716e-10
1.10058e-09
5.78386e-09
-1.96281e-10
4.17426e-09
3.43854e-10
5.56786e-09
-6.29731e-09
5.56786e-09
1.01916e-09
-1.20516e-08
5.00598e-09
-2.97883e-09
-9.83201e-09
4.38187e-09
-6.518e-09
-7.71779e-09
3.32506e-09
-9.37667e-09
-5.16566e-09
2.06886e-09
-1.08641e-08
-2.54925e-09
6.43206e-10
-1.05746e-08
-4.26023e-10
-5.63077e-10
-8.54633e-09
1.04419e-09
-1.48649e-09
-5.191e-09
1.85409e-09
-2.08462e-09
-1.46476e-09
2.27788e-09
-2.22813e-09
1.48231e-09
2.79319e-09
-2.14028e-09
2.83684e-09
3.67433e-09
-2.09215e-09
2.41142e-09
4.65667e-09
-2.23937e-09
5.7727e-10
5.40793e-09
-2.59763e-09
-1.95565e-09
5.38378e-09
-3.05038e-09
-4.36873e-09
4.26976e-09
-3.43412e-09
-6.03154e-09
2.0847e-09
-3.66137e-09
-6.6989e-09
-6.74946e-10
-3.67838e-09
-6.4813e-09
-3.22134e-09
-3.47119e-09
-5.68437e-09
-4.78061e-09
-3.08465e-09
-4.51159e-09
-4.98663e-09
-2.61416e-09
-2.90307e-09
-4.10401e-09
-2.12704e-09
-7.67559e-10
-2.69191e-09
-1.55283e-09
1.68376e-09
-1.53411e-09
-8.80893e-10
4.02099e-09
-8.14776e-10
-7.04247e-11
5.16676e-09
7.89376e-11
6.44767e-10
4.52909e-09
1.84178e-09
9.66649e-10
2.99635e-09
4.23083e-09
9.64169e-10
1.72965e-09
5.63874e-09
1.32074e-09
4.01918e-09
1.87061e-09
5.37873e-09
-1.72333e-08
5.37873e-09
-2.59358e-09
-6.8163e-09
2.65017e-09
-8.92308e-09
-5.05401e-09
1.49136e-09
-1.3558e-08
-2.94966e-09
-1.86814e-10
-1.66668e-08
-7.51822e-10
-1.37158e-09
-1.76751e-08
9.60098e-10
-2.59369e-09
-1.62478e-08
1.50785e-09
-3.48228e-09
-1.27919e-08
1.2546e-09
-3.80618e-09
-8.25104e-09
9.13829e-10
-3.74203e-09
-3.71757e-09
1.17582e-09
-3.55738e-09
-2.65774e-10
2.59989e-09
-3.3615e-09
1.77141e-09
4.92895e-09
-3.37933e-09
2.26101e-09
7.66666e-09
-3.5929e-09
1.6913e-09
9.74897e-09
-3.8977e-09
6.29736e-10
1.03708e-08
-4.10417e-09
-4.8637e-10
9.25212e-09
-4.098e-09
-1.47616e-09
6.64579e-09
-3.83578e-09
-2.29326e-09
3.26008e-09
-3.3838e-09
-2.99436e-09
1.04246e-10
-2.86688e-09
-3.48545e-09
-2.0571e-09
-2.4479e-09
-3.45511e-09
-3.01849e-09
-2.20678e-09
-2.60457e-09
-3.17301e-09
-2.01078e-09
-8.62095e-10
-2.91829e-09
-1.78064e-09
1.31832e-09
-2.51124e-09
-1.49172e-09
3.07808e-09
-1.69556e-09
-1.16265e-09
3.51373e-09
3.92514e-10
-1.00232e-09
3.0383e-09
3.22807e-09
-1.11654e-09
2.42759e-09
5.62909e-09
-9.24262e-10
1.36159e-09
6.84656e-09
-1.9046e-10
6.50119e-09
-1.12928e-09
1.20763e-09
-1.96637e-08
1.20763e-09
-7.25631e-09
3.57602e-09
-1.77589e-09
-1.32813e-08
3.92961e-09
-2.83616e-09
-1.71824e-08
5.0861e-09
-4.05609e-09
-1.90006e-08
5.75976e-09
-4.67716e-09
-1.84881e-08
5.13428e-09
-4.7344e-09
-1.58799e-08
3.22895e-09
-4.4248e-09
-1.19145e-08
1.02326e-09
-3.84786e-09
-7.7103e-09
-2.74178e-10
-3.11667e-09
-4.02417e-09
1.4565e-11
-2.59113e-09
-1.24995e-09
2.18852e-09
-2.39277e-09
6.7961e-10
5.54505e-09
-2.55634e-09
2.07013e-09
9.09336e-09
-2.83624e-09
3.10602e-09
1.16377e-08
-2.97558e-09
3.82767e-09
1.23664e-08
-2.80678e-09
4.0734e-09
1.12359e-08
-2.34379e-09
3.55771e-09
8.75185e-09
-1.70381e-09
2.20704e-09
5.56015e-09
-1.04312e-09
2.40089e-10
2.68111e-09
-6.87355e-10
-1.77245e-09
5.50496e-10
-6.8403e-10
-3.09739e-09
-8.32526e-10
-9.97283e-10
-3.31623e-09
-1.66669e-09
-1.48897e-09
-2.43759e-09
-2.08605e-09
-1.9615e-09
-1.15134e-09
-1.69193e-09
-2.36356e-09
-2.37278e-10
-4.57784e-11
-2.7889e-09
1.45038e-10
3.10116e-09
-3.2632e-09
2.56968e-10
6.62839e-09
-3.62434e-09
1.28689e-10
9.14962e-09
-3.44012e-09
-5.36369e-10
1.11637e-08
-3.66921e-09
1.0096e-08
-4.20512e-09
-3.57166e-09
-1.2399e-08
-3.57166e-09
-9.66699e-09
1.55893e-08
-5.63311e-09
-1.33003e-08
1.33099e-08
-5.53986e-09
-1.49423e-08
1.23481e-08
-5.49182e-09
-1.4616e-08
1.0357e-08
-4.88202e-09
-1.26422e-08
7.00786e-09
-3.87795e-09
-9.86632e-09
3.02434e-09
-2.64169e-09
-7.175e-09
-2.26894e-10
-1.51355e-09
-4.97704e-09
-1.84422e-09
-6.72828e-10
-3.39268e-09
-1.21055e-09
-3.66657e-10
-2.14952e-09
1.52401e-09
-5.60404e-10
-5.91869e-10
5.0451e-09
-1.0396e-09
1.48619e-09
8.44232e-09
-1.43368e-09
3.9262e-09
1.05605e-08
-1.40317e-09
6.04863e-09
1.1112e-08
-9.29899e-10
7.11292e-09
1.02915e-08
-1.78428e-10
6.67231e-09
8.53815e-09
6.17969e-10
4.72375e-09
6.46369e-09
1.02659e-09
1.81187e-09
4.56177e-09
1e-09
-1.09697e-09
2.78728e-09
5.87312e-10
-2.99553e-09
8.93622e-10
1.18279e-11
-3.74259e-09
-6.48706e-10
-4.90942e-10
-3.64675e-09
-1.49551e-09
-9.1685e-10
-3.46401e-09
-7.99839e-10
-1.26553e-09
-3.50937e-09
1.57133e-09
-1.70099e-09
-3.55272e-09
5.21835e-09
-2.14844e-09
-3.13129e-09
8.47687e-09
-2.30545e-09
-2.55323e-09
1.0911e-08
-2.36751e-09
-1.36784e-09
1.26473e-08
-2.76373e-09
9.3352e-09
-7.81649e-10
-5.90468e-09
-4.08445e-10
-5.90468e-09
-7.96385e-09
2.36051e-08
-5.63863e-09
-8.47916e-09
1.89251e-08
-4.87167e-09
-7.73328e-09
1.57007e-08
-3.94618e-09
-6.05381e-09
1.14055e-08
-2.64656e-09
-4.08927e-09
6.34576e-09
-1.27059e-09
-2.69277e-09
1.74893e-09
-1.08295e-10
-2.27251e-09
-1.27591e-09
6.48896e-10
-2.69975e-09
-2.17679e-09
7.98129e-10
-3.35193e-09
-7.43127e-10
2.32227e-10
-3.20403e-09
1.98416e-09
-5.74187e-10
-1.75026e-09
4.78825e-09
-1.19881e-09
9.7519e-10
6.96716e-09
-1.29496e-09
4.15037e-09
8.19656e-09
-8.83945e-10
6.69633e-09
8.60354e-09
-1.0978e-10
7.76709e-09
8.52906e-09
6.44214e-10
7.03325e-09
8.14764e-09
1.10305e-09
4.91267e-09
7.41684e-09
1.14537e-09
2.30858e-09
6.15808e-09
9.44597e-10
1.66129e-10
4.11638e-09
6.83364e-10
-1.18242e-09
1.50273e-09
5.54571e-10
-1.78582e-09
-9.91665e-10
7.53455e-10
-2.37339e-09
-2.21709e-09
1.15863e-09
-3.33981e-09
-1.35033e-09
1.42751e-09
-4.44613e-09
1.23981e-09
1.39126e-09
-4.7031e-09
3.99424e-09
1.4486e-09
-3.99161e-09
5.97722e-09
1.74638e-09
-2.64296e-09
7.20067e-09
2.27149e-09
-1.10407e-10
6.7907e-09
3.15069e-09
3.45954e-09
5.63305e-09
-4.77474e-09
9.33112e-09
-4.77474e-09
-3.49071e-09
2.61447e-08
-3.50869e-09
-2.21515e-09
2.05709e-08
-2.66556e-09
-5.54294e-10
1.59938e-08
-1.74166e-09
1.11815e-09
1.07434e-08
-8.36859e-10
2.06253e-09
5.69978e-09
-1.51251e-10
1.82612e-09
1.97457e-09
1.44053e-10
3.61435e-10
2.79619e-10
3.19161e-11
-1.62447e-09
4.8089e-10
-5.69544e-10
-2.98845e-09
1.82369e-09
-1.13987e-09
-2.92464e-09
3.44989e-09
-1.5215e-09
-1.19615e-09
4.40169e-09
-1.38831e-09
1.51929e-09
4.96504e-09
-7.91911e-10
4.16534e-09
5.40379e-09
7.21401e-11
5.79313e-09
6.15071e-09
7.86758e-10
6.05728e-09
7.14418e-09
1.12848e-09
5.17837e-09
8.03085e-09
1.02961e-09
3.85715e-09
8.0521e-09
7.09705e-10
2.79717e-09
6.73586e-09
4.68981e-10
2.26291e-09
4.1198e-09
4.8694e-10
1.93086e-09
9.96451e-10
8.02196e-10
1.16425e-09
-1.56699e-09
1.35447e-09
-3.5839e-10
-2.35067e-09
1.72403e-09
-2.23842e-09
-1.11824e-09
1.73589e-09
-3.37931e-09
7.4674e-10
1.69819e-09
-3.09193e-09
1.70342e-09
2.02649e-09
-1.66987e-09
1.69352e-09
2.84488e-09
2.86242e-10
1.37183e-09
3.81984e-09
1.76221e-09
2.89494e-11
5.25791e-09
1.66934e-09
3.68607e-09
-2.90593e-09
1.53413e-08
-2.90593e-09
-3.87706e-10
2.56687e-08
-1.74861e-09
1.6769e-09
2.03825e-08
-1.61271e-09
3.30499e-09
1.5887e-08
-1.28105e-09
4.43304e-09
1.08542e-08
-1.02424e-09
4.54822e-09
6.57869e-09
-8.06526e-10
3.61e-09
3.78995e-09
-7.22098e-10
1.95838e-09
2.78104e-09
-7.39958e-10
3.76789e-10
2.83743e-09
-7.26262e-10
-4.52226e-10
3.15359e-09
-5.21769e-10
-9.49631e-11
2.95897e-09
5.29172e-11
1.26967e-09
2.10773e-09
8.20353e-10
2.55914e-09
1.79624e-09
1.78694e-09
3.06321e-09
2.2047e-09
2.65914e-09
2.81435e-09
3.73253e-09
2.70414e-09
2.17059e-09
5.77642e-09
2.10748e-09
1.80118e-09
7.27094e-09
1.2512e-09
2.04983e-09
7.25715e-09
6.67615e-10
2.80014e-09
5.63497e-09
4.7374e-10
3.39582e-09
3.11912e-09
5.61748e-10
2.87905e-09
9.92947e-10
7.43711e-10
1.05809e-09
-2.62274e-11
5.66998e-10
-1.4204e-09
6.89737e-10
-2.61985e-10
-3.26342e-09
2.21736e-09
-1.24097e-09
-3.33845e-09
2.60343e-09
-1.60049e-09
-2.00019e-09
1.78124e-09
-1.28084e-09
-4.1809e-10
1.16501e-09
-9.29176e-10
3.12376e-10
1.85168e-09
-1.04661e-09
-5.24348e-10
3.38086e-09
-2.2196e-09
6.78646e-09
-5.27675e-09
-1.92882e-09
1.93877e-08
-1.92882e-09
9.55642e-10
2.44366e-08
-1.49609e-09
3.01307e-09
2.00072e-08
-1.55351e-09
4.75763e-09
1.54867e-08
-1.24322e-09
5.93568e-09
1.0516e-08
-7.65243e-10
6.28328e-09
6.44119e-09
-1.64426e-10
5.74772e-09
4.09434e-09
2.37464e-10
4.88443e-09
2.91857e-09
6.78059e-10
4.1443e-09
2.21305e-09
1.25451e-09
3.94553e-09
1.08498e-09
2.10472e-09
3.79661e-09
-2.16693e-10
3.14084e-09
3.17184e-09
-1.69579e-09
4.26898e-09
1.61044e-09
-1.50706e-09
4.77118e-09
-5.81821e-10
3.4577e-10
4.04186e-09
-2.42536e-09
2.82191e-09
2.81697e-09
-2.99729e-09
5.10568e-09
1.34536e-09
-2.0182e-09
6.11998e-09
2.86919e-10
-8.52893e-11
5.49969e-09
-4.88325e-11
1.63237e-09
4.09608e-09
-1.19362e-11
1.91696e-09
2.95584e-09
1.18128e-10
3.97228e-10
2.92007e-09
-9.66396e-11
-2.36067e-09
4.20897e-09
-1.14468e-09
-4.63111e-09
5.7103e-09
-2.46114e-09
-4.93262e-09
5.77568e-09
-3.03819e-09
-3.26871e-09
3.98299e-09
-2.86192e-09
-1.50007e-09
2.78434e-09
-2.57351e-09
-9.44357e-10
3.80745e-09
-2.95397e-09
-1.53059e-09
6.9387e-09
-4.17863e-09
-3.0015e-09
1.17364e-08
-6.48451e-09
1.01918e-08
-6.17153e-09
-1.40039e-09
2.22687e-08
-1.40039e-09
1.77061e-09
2.18851e-08
-7.67281e-10
4.18044e-09
1.77512e-08
-3.18088e-10
6.24492e-09
1.29269e-08
3.21554e-10
7.64972e-09
7.87245e-09
1.07448e-09
8.07268e-09
4.14539e-09
1.72132e-09
7.96932e-09
1.77737e-09
2.26918e-09
7.60866e-09
3.15774e-10
2.79517e-09
7.16538e-09
-1.09968e-09
3.56307e-09
6.37594e-09
-2.60186e-09
4.27104e-09
4.57347e-09
-3.41235e-09
4.8096e-09
1.38459e-09
-3.0456e-09
4.39744e-09
-2.55527e-09
-7.42646e-10
3.09548e-09
-5.67699e-09
2.13407e-09
1.30326e-09
-7.26391e-09
5.017e-09
-6.18397e-10
-6.45404e-09
5.75487e-09
-1.47559e-09
-3.83669e-09
5.07556e-09
-1.59787e-09
-1.13412e-09
4.03663e-09
-1.2463e-09
-3.66842e-11
3.78045e-09
-7.3656e-10
-1.02238e-09
4.86379e-09
-8.18538e-10
-3.29817e-09
6.97731e-09
-1.65642e-09
-5.24155e-09
8.86148e-09
-2.6179e-09
-5.24376e-09
8.49368e-09
-2.74436e-09
-3.21939e-09
5.64834e-09
-1.87594e-09
-1.24048e-09
2.68463e-09
-6.14085e-10
-8.27487e-10
2.59782e-09
-9.14055e-11
-1.69552e-09
5.54808e-09
-6.95247e-10
-2.50731e-09
9.61292e-09
-1.68123e-09
-1.7546e-09
1.3285e-08
-2.21118e-09
8.54129e-09
-2.12802e-10
1.2644e-10
2.18794e-08
1.26438e-10
3.62729e-09
1.67593e-08
1.17054e-09
6.1025e-09
1.30101e-08
1.86442e-09
7.78446e-09
8.33987e-09
2.56956e-09
8.3067e-09
3.93637e-09
3.16669e-09
8.02868e-09
6.50844e-10
3.60578e-09
7.43687e-09
-1.34135e-09
3.59347e-09
6.8983e-09
-2.69708e-09
3.45011e-09
6.06989e-09
-3.66596e-09
3.28938e-09
4.2601e-09
-3.82058e-09
2.91919e-09
1.04806e-09
-2.47706e-09
2.17442e-09
-3.19811e-09
3.10105e-10
8.01722e-10
-7.01909e-09
3.88896e-09
-8.9407e-10
-9.00488e-09
6.14828e-09
-2.12648e-09
-8.30149e-09
6.48021e-09
-2.29565e-09
-5.61112e-09
4.80955e-09
-1.90213e-09
-2.68682e-09
2.89806e-09
-9.04078e-10
-1.43495e-09
2.84895e-09
-1.88316e-10
-2.30344e-09
4.72467e-09
-1.56222e-10
-4.46501e-09
8.01377e-09
-1.05255e-09
-5.938e-09
1.05121e-08
-2.15454e-09
-5.23777e-09
1.03438e-08
-2.31865e-09
-2.42685e-09
6.7396e-09
-1.19214e-09
3.74309e-10
2.36918e-09
4.07864e-10
8.84004e-10
4.80591e-10
1.69903e-09
-4.77388e-10
2.59845e-09
1.38946e-09
-1.71824e-09
6.03143e-09
7.44505e-10
-1.77016e-09
8.41561e-09
1.13387e-09
2.83845e-11
9.20904e-09
2.02491e-09
6.22257e-09
2.14082e-09
2.31766e-09
1.69301e-08
2.31766e-09
5.37245e-09
9.80321e-09
3.38791e-09
6.99591e-09
7.04741e-09
3.96697e-09
7.22539e-09
3.60656e-09
4.26428e-09
6.34608e-09
6.37097e-10
4.06237e-09
4.96813e-09
-1.29249e-09
3.28846e-09
3.88499e-09
-2.67489e-09
2.41582e-09
3.15295e-09
-3.68712e-09
1.71245e-09
2.10424e-09
-3.92175e-09
1.26745e-09
-1.52398e-11
-2.59486e-09
8.28903e-10
-3.07854e-09
3.32798e-10
1.65557e-10
-6.14064e-09
3.96325e-09
-7.02815e-10
-7.76496e-09
6.42779e-09
-1.05603e-09
-7.19584e-09
6.17487e-09
-7.6898e-10
-4.62973e-09
3.64678e-09
7.63593e-11
-2.05287e-09
7.16969e-10
1.33628e-09
-1.27429e-09
-5.60297e-10
2.54021e-09
-2.81302e-09
1.72717e-09
2.56594e-09
-5.44208e-09
6.00046e-09
1.27554e-09
-7.064e-09
9.86857e-09
-3.35529e-10
-6.26408e-09
1.02995e-08
-7.29275e-10
-2.84683e-09
6.79333e-09
-1.02389e-11
6.80302e-10
1.78654e-09
1.34577e-09
1.59544e-09
-1.11152e-09
2.56754e-09
-1.777e-10
1.66472e-10
2.09298e-09
-2.05859e-09
3.81625e-09
5.87229e-10
-2.40231e-09
5.91568e-09
2.88895e-10
-1.32552e-09
6.1915e-09
8.9486e-10
5.51263e-12
6.70942e-09
9.31363e-10
5.37405e-09
8.15217e-10
3.96502e-09
8.69942e-09
3.96502e-09
5.36912e-09
3.64004e-09
4.43942e-09
5.75157e-09
2.16512e-09
4.31504e-09
4.74294e-09
7.08477e-10
3.81015e-09
2.9018e-09
-5.02747e-10
2.92945e-09
1.20026e-09
-1.63331e-09
1.98897e-09
1.57169e-10
-3.05373e-09
1.3355e-09
-4.87468e-10
-4.29676e-09
1.1285e-09
-1.5054e-09
-4.19324e-09
1.13636e-09
-3.30061e-09
-1.99478e-09
1.03e-09
-5.27694e-09
1.46871e-09
6.7028e-10
-6.22287e-09
4.3656e-09
3.684e-10
-5.25711e-09
4.626e-09
6.59696e-10
-2.72572e-09
1.88574e-09
1.5964e-09
-3.45572e-10
-1.80008e-09
2.94635e-09
9.23367e-11
-3.66657e-09
3.88423e-09
-1.86908e-09
-2.01303e-09
3.40195e-09
-4.93517e-09
2.88838e-09
1.9005e-09
-6.92784e-09
7.70188e-09
2.4448e-10
-6.09571e-09
8.87551e-09
5.4213e-11
-2.65177e-09
5.47418e-09
1.25116e-09
8.39531e-10
3.31801e-10
2.87498e-09
1.4476e-09
-3.2134e-09
4.3511e-09
-9.65093e-10
-2.47526e-09
3.74514e-09
-3.65407e-09
7.58201e-10
1.97518e-09
-4.57198e-09
3.30525e-09
1.1926e-09
-4.01191e-09
4.02596e-09
1.07675e-09
-2.68834e-09
3.7896e-09
8.80311e-10
-3.20122e-10
2.95839e-09
1.30614e-09
1.38503e-09
3.60056e-09
4.09909e-09
3.43558e-10
4.09909e-09
4.09261e-09
-4.21648e-10
3.916e-09
3.58876e-09
-9.73452e-10
3.51198e-09
2.16197e-09
-9.16656e-10
2.8926e-09
3.47208e-10
-1.0878e-09
2.18545e-09
-1.10645e-09
-2.11659e-09
1.6677e-09
-2.08725e-09
-3.87035e-09
1.50073e-09
-3.12866e-09
-5.13083e-09
1.59136e-09
-4.66229e-09
-4.36498e-09
1.46434e-09
-6.2579e-09
-1.53372e-09
9.43968e-10
-6.86299e-09
1.67627e-09
2.46711e-10
-5.62588e-09
2.92319e-09
8.39621e-11
-2.83278e-09
1.13278e-09
6.1361e-10
-4.65651e-11
-2.42299e-09
1.4891e-09
7.75918e-10
-4.67898e-09
2.0864e-09
-7.92422e-10
-3.38796e-09
1.36271e-09
-3.35371e-09
8.29203e-10
-2.18512e-10
-4.74871e-09
5.38746e-09
-1.11257e-09
-3.41681e-09
6.98203e-09
-7.18806e-10
3.4169e-10
4.294e-09
6.47079e-10
3.36209e-09
-6.78017e-10
2.95564e-09
3.48863e-09
-4.62643e-09
4.68947e-09
2.05119e-10
-4.51972e-09
4.42715e-09
-4.00021e-09
-1.02731e-09
2.52182e-09
-5.77286e-09
4.80265e-10
1.73118e-09
-5.30042e-09
-1.36523e-10
2.63035e-09
-4.7953e-09
5.0923e-10
2.77383e-09
-2.38994e-09
-7.60625e-10
1.99753e-09
1.59754e-09
-5.5168e-09
4.31927e-09
-3.07337e-09
5.72101e-09
3.31708e-09
-6.37607e-09
3.31707e-09
2.77276e-09
-3.0671e-09
3.042e-09
2.02499e-09
-2.94222e-09
2.51938e-09
7.98399e-10
-1.83259e-09
1.88317e-09
-5.71662e-10
-1.40294e-09
1.3823e-09
-1.80354e-09
-2.24377e-09
1.05648e-09
-3.23806e-09
-3.58238e-09
8.95348e-10
-5.24854e-09
-3.87877e-09
5.90738e-10
-7.39888e-09
-2.20757e-09
-9.38403e-11
-8.66497e-09
6.11073e-10
-9.14568e-10
-7.89608e-09
1.86888e-09
-9.77249e-10
-5.08561e-09
6.20899e-10
-5.11585e-10
-1.63785e-09
-2.57789e-09
2.88866e-10
3.74508e-10
-5.37896e-09
1.0162e-09
2.79294e-11
-5.12163e-09
8.961e-10
-1.3501e-09
-1.95925e-09
4.02281e-11
-1.87662e-09
1.85017e-09
-4.81282e-10
1.08257e-10
3.53358e-09
-2.2521e-10
4.06261e-09
1.75927e-09
1.09183e-09
6.97845e-09
-1.81763e-09
2.99172e-09
6.73128e-09
-4.77851e-09
4.16341e-09
3.00499e-09
-4.63567e-09
3.56866e-09
-1.92515e-09
-1.63439e-09
1.80413e-09
-4.97946e-09
1.26623e-09
4.53496e-10
-4.93047e-09
-4.63162e-10
6.27077e-10
-3.78667e-09
-3.36825e-09
1.90175e-09
-2.99595e-09
-2.88801e-09
2.49664e-09
-4.95016e-10
-6.36523e-09
2.93157e-09
1.41646e-09
-1.14095e-08
3.62119e-09
-1.14408e-09
-8.43255e-10
2.07893e-09
-1.0635e-08
2.07892e-09
1.54901e-09
-4.20252e-09
1.58629e-09
9.95501e-10
-3.41055e-09
9.3979e-10
3.58954e-10
-1.61707e-09
3.34014e-10
-3.60782e-10
-7.489e-10
-1.23137e-11
-1.51048e-09
-1.03174e-09
-1.07343e-10
-3.46727e-09
-1.41859e-09
-2.04107e-10
-6.11588e-09
-6.9884e-10
-4.90988e-10
-8.25552e-09
8.75022e-10
-8.97293e-10
-8.43978e-09
1.60501e-09
-7.88216e-10
-6.42461e-09
4.27614e-11
-1.93055e-10
-2.95031e-09
-3.73851e-09
8.84909e-10
-4.79649e-11