/*--------------------------------*- C++ -*----------------------------------*\
| =========                 |                                                 |
| \\      /  F ield         | OpenFOAM: The Open Source CFD Toolbox           |
|  \\    /   O peration     | Version:  2312                                  |
|   \\  /    A nd           | Website:  www.openfoam.com                      |
|    \\/     M anipulation  |                                                 |
\*---------------------------------------------------------------------------*/
FoamFile
{
    version     2.0;
    format      ascii;
    arch        "LSB;label=32;scalar=64";
    class       volScalarField;
    location    "1.4126785425";
    object      alpha.water;
}
// * * * * * * * * * * * * * * * * * * * * * * * * * * * * * * * * * * * * * //

dimensions      [0 0 0 0 0 0 0];

internalField   nonuniform List<scalar> 
90000
(
1
1.00006
1.00005
1.00004
1.00004
1.00003
1.00002
1.00001
1
0.999995
0.999989
0.999984
0.999983
0.999984
0.999988
0.999995
1
1.00001
1.00001
1.00001
1.00001
1.00001
1.00001
1
1.00001
1.00001
1.00001
1.00002
1.00002
1.00002
1.00006
1.00008
1.00007
1.00006
1.00005
1.00004
1.00002
1.00001
0.999994
0.999983
0.999975
0.999971
0.999972
0.999977
0.999986
0.999996
1.00001
1.00001
1.00002
1.00002
1.00001
1.00001
1.00001
1.00001
1.00001
1.00002
1.00002
1.00001
0.999961
0.999798
1.00004
1.00006
1.00005
1.00004
1.00003
1.00002
1.00001
1
0.999995
0.999987
0.999979
0.999974
0.999972
0.999972
0.999975
0.999979
0.999984
0.999988
0.999992
0.999994
0.999996
0.999997
1
1
1.00001
1.00002
1.00004
1.00009
1.00017
0.999994
1.00003
1.00003
1.00002
1.00002
1.00001
1.00001
1.00001
1
0.999999
0.999993
0.999987
0.999981
0.999975
0.999971
0.999967
0.999966
0.999967
0.99997
0.999974
0.99998
0.999985
0.999991
0.999996
1
1.00001
1.00001
1.00001
1
1.00008
1.00003
1.00001
0.999994
0.999994
0.999994
0.999996
0.999999
1
1.00001
1.00001
1.00001
1
0.999998
0.999991
0.999983
0.999976
0.999971
0.999968
0.999968
0.999972
0.999978
0.999985
0.999992
0.999998
1
1.00001
1.00002
1.00003
1.00002
1.00004
1.00002
0.999992
0.999963
0.999968
0.999972
0.999979
0.999989
0.999999
1.00001
1.00002
1.00002
1.00002
1.00002
1.00001
1.00001
0.999998
0.99999
0.999984
0.999982
0.999983
0.999987
0.999993
0.999999
1
1.00001
1.00001
1.00002
1.00002
1.00002
1.00001
1
0.999974
0.999942
0.99995
0.999957
0.999968
0.999981
0.999994
1.00001
1.00002
1.00002
1.00003
1.00003
1.00003
1.00002
1.00002
1.00001
1
0.999995
0.999993
0.999994
0.999999
1
1.00001
1.00002
1.00002
1.00002
1.00001
1
0.999996
0.999992
0.999962
0.999939
0.999947
0.999955
0.999965
0.999976
0.999987
0.999998
1.00001
1.00002
1.00002
1.00003
1.00003
1.00003
1.00002
1.00001
1.00001
0.999998
0.999994
0.999994
0.999997
1
1.00001
1.00001
1.00001
1.00001
1
0.999992
0.99999
0.999995
0.999962
0.999957
0.999964
0.999969
0.999975
0.99998
0.999985
0.999989
0.999994
0.999999
1
1.00001
1.00001
1.00001
1.00001
1.00001
1
0.999993
0.999989
0.999988
0.99999
0.999993
0.999996
0.999995
0.999991
0.999985
0.99998
0.999979
0.999985
0.999993
0.999976
0.999996
0.999999
1
0.999999
0.999996
0.999992
0.999989
0.999988
0.999988
0.999991
0.999996
1
1
1
1
0.999997
0.999993
0.99999
0.999989
0.999987
0.999985
0.99998
0.999973
0.999965
0.999961
0.999961
0.999968
0.999977
0.99998
1
1.00004
1.00004
1.00004
1.00003
1.00002
1.00001
0.999998
0.999992
0.999988
0.999988
0.99999
0.999993
0.999996
0.999998
1
1
1
1
1
0.999994
0.999985
0.999974
0.999964
0.999957
0.999956
0.999962
0.999969
0.999972
0.999974
1.00003
1.00008
1.00007
1.00006
1.00005
1.00003
1.00002
1.00001
0.999996
0.99999
0.999988
0.999987
0.999988
0.999991
0.999995
1
1.00001
1.00001
1.00002
1.00001
1.00001
0.999995
0.999984
0.999976
0.999974
0.999977
0.999982
0.999983
0.999979
0.999983
1.00005
1.00007
1.00006
1.00005
1.00004
1.00002
1.00001
0.999999
0.999991
0.999986
0.999982
0.999979
0.999979
0.999981
0.999987
0.999996
1.00001
1.00001
1.00002
1.00002
1.00001
1
0.999998
0.999995
0.999997
0.999999
0.999997
0.999991
0.999985
0.999988
1.00005
1.00003
1.00002
1.00001
0.999999
0.999992
0.999987
0.999985
0.999983
0.99998
0.999977
0.999973
0.999972
0.999974
0.999981
0.999991
1
1.00001
1.00001
1.00001
1.00001
1.00001
1.00001
1
1
0.999998
0.999988
0.999977
0.999972
0.999971
1.00001
0.999969
0.999965
0.999962
0.999962
0.999967
0.999974
0.999981
0.999985
0.999986
0.999983
0.99998
0.999978
0.999981
0.999987
0.999996
1
1.00001
1.00001
1.00001
1.00001
1.00001
1.00001
1.00001
0.999999
0.999987
0.999973
0.999963
0.999958
0.999961
0.999973
0.999923
0.999931
0.999939
0.999952
0.999968
0.999983
0.999994
0.999999
0.999999
0.999996
0.999993
0.999992
0.999995
1
1
1.00001
1.00001
1.00001
1.00001
1.00001
1.00001
1.00002
1.00001
1
0.999994
0.999987
0.999984
0.999985
1
0.999949
0.999913
0.999931
0.999947
0.999966
0.999983
0.999997
1
1
1
0.999999
0.999998
1
1
1.00001
1.00001
1
0.999999
0.999998
1
1.00001
1.00002
1.00002
1.00002
1.00002
1.00002
1.00002
1.00003
1.00004
1.00005
0.99995
0.999934
0.999951
0.999965
0.999979
0.999989
0.999994
0.999995
0.999992
0.99999
0.999992
0.999997
1
1.00001
1.00001
1
0.999993
0.999987
0.999986
0.999991
0.999998
1
1.00001
1.00001
1.00001
1.00002
1.00003
1.00004
1.00005
1.00003
0.999965
0.999957
0.999966
0.999973
0.999978
0.999981
0.999981
0.999981
0.999982
0.999988
0.999998
1.00001
1.00002
1.00002
1.00001
0.999999
0.999987
0.99998
0.999979
0.999982
0.999984
0.999983
0.999981
0.999979
0.999981
0.999988
0.999994
0.999996
0.999987
0.999954
0.999977
0.999972
0.999975
0.999978
0.999981
0.999983
0.999986
0.99999
0.999998
1.00001
1.00002
1.00003
1.00003
1.00003
1.00001
0.999996
0.999986
0.999982
0.999982
0.999982
0.999978
0.99997
0.999964
0.999962
0.999966
0.999971
0.99997
0.999959
0.999937
0.999932
0.999984
0.999991
0.999995
1
1
1.00001
1.00001
1.00002
1.00003
1.00003
1.00004
1.00004
1.00003
1.00001
0.999994
0.999986
0.999987
0.999992
0.999995
0.999992
0.999984
0.999976
0.999973
0.999978
0.999988
0.999992
0.999987
0.999974
0.999967
0.999998
0.999997
1.00002
1.00003
1.00003
1.00003
1.00003
1.00003
1.00003
1.00003
1.00003
1.00002
1.00001
0.999995
0.999983
0.99998
0.999987
1
1.00001
1.00001
1
0.999994
0.99999
0.999995
1.00001
1.00001
1.00001
1.00001
1.00001
1.00002
1.00003
1.00002
1.00005
1.00005
1.00005
1.00004
1.00003
1.00003
1.00002
1.00002
1.00001
1
0.999989
0.99998
0.999979
0.99999
1.00001
1.00002
1.00002
1.00001
1
0.999999
1
1.00002
1.00002
1.00002
1.00001
1
1.00001
1.00001
0.999991
1.00003
1.00005
1.00004
1.00003
1.00003
1.00002
1.00002
1.00002
1.00002
1.00001
1
0.999991
0.999988
0.999994
1.00001
1.00001
1.00001
1
0.999995
0.999993
1
1.00002
1.00003
1.00003
1.00002
1.00001
1
0.999996
0.999981
0.999981
1.00003
1.00003
1.00002
1.00001
1.00001
1.00002
1.00002
1.00002
1.00002
1.00001
1
0.999992
0.99999
0.999994
0.999996
0.999992
0.999981
0.999971
0.999973
0.999991
1.00002
1.00004
1.00004
1.00003
1.00002
1.00001
1
0.999995
0.999996
1.00002
1.00001
1
0.999999
0.999999
1
1.00001
1.00001
1.00001
1.00001
0.999998
0.999989
0.999986
0.999989
0.999991
0.999987
0.999978
0.999969
0.999972
0.99999
1.00002
1.00004
1.00004
1.00003
1.00001
1.00001
1
0.999995
0.999998
1.00002
1
0.999998
0.999974
0.999976
0.999977
0.999981
0.999987
0.999992
0.999994
0.999992
0.999991
0.999994
1
1.00001
1.00001
1.00001
1
1
1.00002
1.00003
1.00005
1.00005
1.00003
1.00001
1
0.999998
0.999996
0.99999
1
0.999999
0.99996
0.999982
0.99995
0.999954
0.999959
0.999967
0.999977
0.999985
0.999991
0.999996
1
1.00002
1.00003
1.00003
1.00003
1.00002
1.00002
1.00003
1.00004
1.00005
1.00004
1.00002
1.00001
1.00001
1.00001
1
1
1.00001
0.999995
0.999966
0.999986
0.999967
0.999944
0.999956
0.999966
0.999977
0.999984
0.999989
0.999992
0.999997
1.00001
1.00002
1.00002
1.00002
1.00002
1.00002
1.00002
1.00002
1.00003
1.00002
0.999999
0.999988
0.999988
0.999998
1
0.999996
1.00001
1
0.999973
0.999983
1.00002
0.999968
0.999965
0.999976
0.99998
0.99998
0.999977
0.999975
0.999978
0.999986
0.999997
1.00001
1.00001
1.00001
1.00001
1.00001
1.00001
1.00001
1
0.999985
0.999972
0.999972
0.999972
0.999975
0.999981
0.999975
0.999986
0.999985
0.999977
1.00002
1
0.999985
0.99998
0.999977
0.999969
0.999963
0.999963
0.99997
0.999982
0.999996
1.00001
1.00001
1.00001
1.00001
1.00001
1.00001
1.00001
1.00001
0.999998
0.999992
0.999989
0.999989
0.999974
0.999961
0.999976
0.999972
0.999972
0.999988
1.00001
1.00001
0.999984
0.99999
0.999967
0.999962
0.999962
0.999971
0.999983
0.999995
1
1
1
0.999995
0.999992
0.999995
1
1.00001
1.00001
1.00001
1.00001
1.00002
1.00001
1
0.999978
0.999962
0.999987
0.999978
0.999967
0.999999
1
0.999973
0.999993
0.999979
0.999966
0.999977
0.999991
1
1
0.999996
0.999982
0.999969
0.999961
0.999962
0.999972
0.999988
1
1.00001
1.00001
1.00001
1.00001
1.00001
0.999983
0.99997
0.999966
0.999958
0.99998
0.99997
0.999967
0.999994
0.999976
0.999979
0.999992
0.999982
0.999998
1.00001
1.00001
1
0.999983
0.999963
0.99995
0.999947
0.999955
0.999975
0.999996
1.00001
1.00001
1.00001
1
0.999991
0.999981
0.999968
0.999935
0.999939
0.999972
0.999958
0.99996
0.999968
0.999982
0.999989
0.999982
0.999994
0.99999
1
1.00002
1.00001
0.999994
0.999982
0.999972
0.999966
0.999964
0.99997
0.999983
1
1.00001
1.00001
1
0.999992
0.999993
0.999986
0.999972
0.999969
0.999958
0.999976
1.00001
0.999976
0.999967
0.999998
1.00001
0.999998
0.999997
0.99999
1
1.00001
1
0.999997
0.999997
0.999996
0.99999
0.999979
0.999973
0.999976
0.999985
0.999995
0.999999
0.999993
0.999992
0.999991
1.00001
1.00001
0.999991
1
1.00001
1.00001
1.00003
0.999994
0.999998
1.00003
1.00001
1
0.999995
1.00002
1.00002
0.999999
1.00001
1.00002
1.00001
0.999995
0.999976
0.999967
0.99997
0.999981
0.999988
0.999987
0.999984
0.99998
1
1
1.00001
1.00001
0.99999
1.00001
1.00003
1
1.00001
1.00001
1.00002
1.00003
0.999998
1
1.00001
1.00003
1.00001
1.00001
1.00002
1.00001
0.999989
0.999976
0.999979
0.99999
0.999998
0.999996
0.999985
0.999977
0.999986
0.999982
1.00002
1.00002
1
1.00001
1
1.00002
1.00003
0.999987
0.99999
1.00002
1.00001
0.999998
0.99999
1.00001
1.00002
0.999999
1.00001
1.00002
1
0.999984
0.999986
1
1.00002
1.00001
0.999999
0.999986
0.999983
0.999986
1.00001
0.999991
1
1.00002
0.999994
1.00001
1.00001
1.00001
1
0.999973
0.999982
1.00002
0.999991
0.999979
0.999998
1
0.999993
1.00001
1.00006
0.999998
0.999984
0.999997
1.00001
1.00002
1.00001
0.999994
0.999985
0.999992
1.00001
0.999991
1
0.999994
0.999978
1.00002
0.999996
0.999983
0.999985
0.99998
0.999974
0.999989
0.999996
1
0.999987
0.999973
1.00001
0.999996
1.00001
1.00005
1.00006
0.999991
1
1.00001
1.00001
1
0.99999
0.999986
0.999994
0.999999
1.00001
0.999983
0.999972
1.00002
0.999971
0.999993
0.999991
0.999976
0.999988
1.00001
0.999991
0.999995
1
0.999981
1
0.999983
1.00001
1
1.00003
1.00002
1
1
1.00001
1.00001
1
0.999991
0.999983
0.999997
1.00001
0.999986
0.999985
1.00001
0.999992
1.00003
0.999995
0.999963
1.00001
1.00002
0.999992
0.999999
0.999992
0.999992
1.00003
1.00001
1.00001
0.999993
0.999994
1.00003
1.00004
0.999992
0.999942
1
1.00001
1.00001
0.999996
0.999999
0.999998
0.999995
0.999992
1
1.00003
0.999998
1
0.999983
1.00002
0.99998
0.99999
1
0.999981
0.999997
1.00002
1.00001
1
0.999984
0.999967
1.00003
1.00001
0.999992
0.999976
1.00004
0.999957
1.00001
1.00001
0.999989
1
1.00002
0.999996
0.99999
1.00001
0.999992
1.00002
0.999946
1.00001
1
0.999994
0.999979
0.999973
1
1.00002
0.999991
0.999975
0.999999
1
0.999998
0.99997
1
1.00003
0.999989
0.999991
1.00002
0.999951
0.999999
1.00001
1.00002
0.999994
0.999966
1.00001
1.00002
1
0.99998
1.00005
0.999998
0.999969
1.00003
0.999971
0.999986
1.00001
0.999995
1.00001
1.00002
0.999991
0.999995
0.999997
0.999999
1.00004
0.999957
0.999968
1.00001
1.00007
0.999986
0.999839
0.999985
1.00001
1.00001
0.99999
0.999971
1
0.999996
1.00004
0.999958
0.999977
1.00005
0.999976
0.999983
1.00001
0.99997
0.999981
1.00004
0.999967
0.999974
1.00001
0.999992
0.999974
0.999985
0.999998
0.999982
1.00001
1.00001
0.999984
1.00007
0.999923
0.999986
0.999994
0.999971
1.00001
0.999977
1.00001
0.999968
1.00002
0.999988
1.00001
0.999928
1.00002
1.00001
0.999939
1
0.999998
0.999959
0.999995
1.00003
0.999976
0.999997
1.00001
1
0.99999
1.00001
0.99995
0.99998
1.00001
1.00003
1.00007
0.999988
0.999992
0.999963
1
1
1
0.999997
0.999999
0.999993
1
0.99999
0.999999
0.999999
1
1
1
0.999999
0.999993
1
1.00001
1
0.999999
0.999988
0.999992
1
1.00002
0.999999
0.999957
0.999991
1
0.999971
0.999739
0.999961
0.999955
1
0.999821
0.999723
0.999996
0.999907
0.999994
0.999922
0.999993
0.999791
1
0.999845
0.999999
0.999698
0.999991
0.999648
1
0.999994
0.999886
0.999984
0.999817
0.999803
1
0.999949
0.999953
0.999676
1
0.866449
0.698113
0.809357
0.768387
0.753149
0.737768
0.675728
0.794099
0.77434
0.869719
0.716487
0.89853
0.722131
0.897943
0.680481
0.888514
0.697129
0.885681
0.665556
0.842076
0.870388
0.765368
0.802083
0.680191
0.7123
0.797065
0.772087
0.814803
0.691566
0.866989
0.304815
0.0659883
0.165746
0.0844666
0.107337
0.0742901
0.0519111
0.128757
0.0834974
0.220798
0.0578347
0.248475
0.0770307
0.244224
0.0625329
0.231078
0.068675
0.225515
0.0569923
0.1484
0.236817
0.0808621
0.135491
0.045921
0.0701364
0.147794
0.0879884
0.173553
0.0652892
0.302441
0.0163036
0.00510419
0.00510771
0.0034013
0.00578654
0.00498483
0.00610421
0.00556598
0.00826146
0.00923227
0.00713241
0.0174397
0.00639529
0.0172829
0.00748273
0.0184203
0.00562658
0.0135965
0.00484367
0.00995594
0.0102976
0.00742599
0.00418427
0.00595611
0.00751123
0.00624941
0.00419166
0.00564918
0.00458931
0.0161841
4.49227e-05
0.00111708
0.000211781
0.000163275
0.000989579
0.00023813
0.00140306
0.000119299
0.00158398
0.0037117
0.000519454
0.00290347
0.000191237
0.00201645
0.000199383
0.00391947
0.000304281
0.00104084
0.000235485
0.000884656
0.00455548
0.000811662
0.000252542
0.00182088
0.00117139
0.000880747
0.000128569
0.000369058
0.000251261
4.43874e-05
-1.01717e-06
2.9603e-07
8.71793e-06
9.55332e-06
4.71753e-05
5.29207e-06
4.50653e-06
2.10347e-05
0.000138951
6.66589e-05
0.000141448
0.000155293
2.48737e-05
7.78237e-05
6.0923e-06
1.2302e-05
2.36909e-05
1.0414e-05
1.51962e-05
4.43889e-05
5.64651e-05
0.000197965
9.91059e-05
1.49652e-06
2.97791e-06
2.16454e-05
4.83735e-06
7.21996e-06
4.07722e-07
-8.0506e-07
1.02597e-07
8.2916e-08
3.35692e-06
4.63981e-07
8.69498e-07
-6.1027e-07
1.20868e-06
3.44782e-06
2.16217e-05
2.06295e-06
1.71271e-05
1.26493e-05
1.19424e-05
4.81825e-06
2.78949e-06
1.23491e-06
1.00991e-05
4.93855e-06
1.09867e-05
3.12974e-06
2.6085e-06
3.96796e-05
6.92548e-06
1.49121e-07
-3.71109e-07
1.38142e-07
2.91544e-07
1.86883e-06
7.51984e-08
1.08718e-07
1.02198e-07
1.82136e-07
2.50291e-07
1.03328e-07
1.1104e-08
7.8029e-11
1.64858e-08
7.03246e-07
1.96223e-06
1.38848e-07
6.2929e-07
1.79089e-06
5.96583e-06
4.08618e-06
3.63008e-06
1.80728e-06
5.53328e-06
4.16469e-06
4.20028e-06
8.17051e-07
1.87811e-07
3.24599e-06
7.50836e-07
1.40639e-08
3.50331e-10
2.20423e-08
1.24613e-07
4.12559e-07
1.60235e-07
1.08907e-07
6.77557e-10
4.37997e-09
5.93032e-08
1.32174e-07
9.62967e-08
2.29601e-10
2.44875e-10
6.8846e-09
6.53879e-08
2.65508e-08
1.5542e-07
5.41578e-07
9.01759e-07
1.76561e-06
4.40601e-06
3.63635e-06
1.78665e-06
2.45499e-07
2.57322e-07
1.0356e-07
4.30862e-08
1.13303e-07
1.10047e-08
2.31751e-10
1.94917e-10
1.48326e-07
1.92933e-07
7.17414e-08
7.88661e-09
5.44768e-10
5.45727e-10
1.98673e-09
3.20112e-10
2.21985e-08
2.35825e-08
2.16428e-09
1.75028e-10
6.38951e-11
8.87922e-10
2.87637e-09
5.3757e-09
1.78419e-08
1.68468e-08
1.02561e-07
2.39587e-06
2.67781e-06
1.4139e-07
7.62106e-09
6.17299e-09
3.1846e-09
4.60998e-09
1.28538e-09
8.26517e-11
1.22191e-10
2.2616e-09
2.79263e-08
2.85153e-08
2.41377e-10
1.58313e-09
4.91592e-10
3.24808e-10
6.46105e-10
1.94513e-10
6.55849e-11
4.93758e-11
2.3661e-10
8.81795e-11
2.8684e-11
2.29429e-11
2.00055e-10
3.13307e-10
1.88954e-09
1.663e-09
4.5075e-09
3.93899e-08
1.05165e-07
4.49447e-09
7.93728e-10
4.53434e-10
1.75327e-10
2.87702e-10
3.26603e-11
2.22608e-11
7.65392e-11
2.0529e-10
3.54108e-11
6.25011e-11
1.74472e-10
5.85863e-10
3.21149e-10
1.70891e-10
2.37981e-10
1.01537e-10
5.16735e-11
4.24184e-11
3.55352e-11
2.01528e-11
8.36018e-12
4.46562e-12
1.23902e-11
2.03588e-11
1.06357e-10
1.19642e-10
3.82892e-10
2.11646e-09
2.87958e-09
3.88918e-10
6.86688e-11
2.80973e-11
1.26983e-11
1.45824e-11
3.05515e-12
7.92594e-12
1.79708e-11
3.0472e-11
2.87616e-11
5.43981e-11
1.02064e-10
2.34718e-10
1.72728e-10
3.26467e-11
5.81297e-11
3.01142e-11
1.43886e-11
1.11416e-11
4.51081e-12
2.14111e-12
1.1739e-12
9.54989e-13
1.26951e-12
2.86193e-12
8.17895e-12
1.36524e-11
3.09905e-11
1.33579e-10
1.78728e-10
3.31421e-11
1.28201e-11
5.05419e-12
2.78934e-12
1.28361e-12
1.00132e-12
1.14843e-12
1.87276e-12
3.9652e-12
1.05175e-11
1.46996e-11
2.96586e-11
5.85348e-11
3.26962e-11
3.31974e-12
7.42576e-12
4.58263e-12
1.78977e-12
1.16055e-12
4.89794e-13
2.16864e-13
1.55943e-13
1.93264e-13
4.05575e-13
9.15896e-13
2.17542e-12
4.39376e-12
5.48245e-12
9.75346e-12
1.1084e-11
5.82649e-12
4.33276e-12
2.11208e-12
9.10179e-13
4.16052e-13
1.98207e-13
1.52332e-13
1.9848e-13
4.37534e-13
1.12733e-12
1.66862e-12
4.564e-12
7.52992e-12
3.32929e-12
2.49795e-13
5.41535e-13
4.32352e-13
1.84698e-13
7.28709e-14
2.7524e-14
1.15188e-14
9.25333e-15
1.48192e-14
3.72412e-14
9.79159e-14
2.6222e-13
5.75114e-13
9.69462e-13
1.56041e-12
1.49123e-12
9.76951e-13
5.76536e-13
2.66393e-13
9.89617e-14
3.83102e-14
1.50085e-14
9.22872e-15
1.07606e-14
2.46131e-14
6.86303e-14
1.82659e-13
4.36349e-13
5.46864e-13
2.51653e-13
1.19293e-14
3.04344e-14
2.13415e-14
8.40871e-15
2.39974e-15
7.14148e-16
2.8363e-16
2.51154e-16
4.4532e-16
1.18012e-15
3.74491e-15
1.22127e-14
3.0664e-14
6.78341e-14
1.13942e-13
1.16611e-13
6.8828e-14
3.10038e-14
1.23124e-14
3.83494e-15
1.21557e-15
4.56459e-16
2.51434e-16
2.6468e-16
6.38134e-16
2.25254e-15
8.52752e-15
2.17732e-14
3.11076e-14
1.20202e-14
2.98074e-16
9.57812e-16
5.28911e-16
1.79198e-16
4.94934e-17
1.38397e-17
5.85719e-18
6.28205e-18
1.19303e-17
3.2119e-17
1.03288e-16
3.48315e-16
9.71013e-16
2.27204e-15
3.88356e-15
3.98307e-15
2.29287e-15
9.82947e-16
3.54118e-16
1.06356e-16
3.32148e-17
1.22956e-17
6.25895e-18
5.41377e-18
1.22381e-17
4.64417e-17
1.81097e-16
5.40072e-16
9.81551e-16
3.02356e-16
5.21091e-18
1.82548e-17
9.63775e-18
3.14814e-18
8.74825e-19
2.47511e-19
1.1955e-19
1.58396e-19
3.23784e-19
8.62248e-19
2.64578e-18
8.51793e-18
2.33511e-17
5.29789e-17
8.9054e-17
9.0666e-17
5.3432e-17
2.35581e-17
8.66002e-18
2.7359e-18
8.91577e-19
3.3365e-19
1.59008e-19
1.1138e-19
2.17442e-19
8.27617e-19
3.20194e-18
9.85841e-18
1.87828e-17
5.29032e-18
7.69897e-20
2.91381e-19
1.53954e-19
4.99898e-20
1.35765e-20
3.87571e-21
2.23816e-21
3.58084e-21
7.6597e-21
1.98777e-20
5.88163e-20
1.81214e-19
4.76077e-19
1.04723e-18
1.72038e-18
1.73691e-18
1.0538e-18
4.83178e-19
1.85317e-19
6.08415e-20
2.0623e-20
7.94643e-21
3.66508e-21
2.13685e-21
3.4011e-21
1.29249e-20
5.14406e-20
1.5947e-19
3.02009e-19
7.91862e-20
9.48582e-22
3.99266e-21
2.11289e-21
6.74869e-22
1.79703e-22
5.18379e-23
3.82802e-23
7.16616e-23
1.54227e-22
3.8343e-22
1.08072e-21
3.16803e-21
8.07404e-21
1.73435e-20
2.7673e-20
2.7736e-20
1.74136e-20
8.22417e-21
3.25291e-21
1.11489e-21
3.9662e-22
1.59775e-22
7.39501e-23
3.7851e-23
4.61802e-23
1.70546e-22
7.01033e-22
2.19496e-21
4.19212e-21
9.97973e-22
9.84617e-24
4.51739e-23
2.43047e-23
7.70635e-24
1.97333e-24
6.0077e-25
6.09944e-25
1.24927e-24
2.60815e-24
6.10178e-24
1.62019e-23
4.51967e-23
1.103e-22
2.26385e-22
3.51735e-22
3.54334e-22
2.2875e-22
1.11383e-22
4.60573e-23
1.68221e-23
6.3682e-24
2.71475e-24
1.29299e-24
6.20348e-25
5.51211e-25
1.89422e-24
8.02229e-24
2.53283e-23
4.84839e-23
1.03833e-23
8.32807e-26
4.39138e-25
2.30823e-25
7.31049e-26
1.8132e-26
6.37632e-27
8.86899e-27
1.83871e-26
3.63052e-26
7.96142e-26
1.9856e-25
5.18222e-25
1.18538e-24
2.33002e-24
3.59302e-24
3.64701e-24
2.39644e-24
1.20935e-24
5.28901e-25
2.06894e-25
8.37856e-26
3.82887e-26
1.92668e-26
9.11111e-27
6.01826e-27
1.79078e-26
7.73247e-26
2.44054e-25
4.64067e-25
8.9297e-26
5.92403e-28
3.41023e-27
1.81338e-27
5.65957e-28
1.41953e-28
6.25214e-29
1.10536e-28
2.25764e-28
4.23093e-28
8.60664e-28
1.95396e-27
4.59656e-27
9.79387e-27
1.85781e-26
2.80363e-26
2.80478e-26
1.88445e-26
1.01419e-26
4.82043e-27
2.05753e-27
9.0675e-28
4.50811e-28
2.42991e-28
1.17201e-28
6.12971e-29
1.42894e-28
6.17346e-28
1.94973e-27
3.69051e-27
6.40884e-28
3.53732e-30
2.14929e-29
1.20221e-29
3.71038e-30
9.50695e-31
5.58121e-31
1.17364e-30
2.34764e-30
4.09068e-30
7.48508e-30
1.51705e-29
3.2389e-29
6.50677e-29
1.17214e-28
1.69198e-28
1.69593e-28
1.20617e-28
7.00296e-29
3.56437e-29
1.64691e-29
7.99425e-30
4.39483e-30
2.55835e-30
1.28167e-30
5.75707e-31
9.45481e-31
4.03065e-30
1.29361e-29
2.45739e-29
3.86497e-30
1.72869e-32
1.24196e-31
6.83972e-32
2.14139e-32
5.65627e-33
4.78934e-33
1.105e-32
2.05361e-32
3.17788e-32
5.1372e-32
9.40437e-32
1.84733e-31
3.40642e-31
5.62821e-31
7.78194e-31
7.98326e-31
5.95097e-31
3.63456e-31
1.99853e-31
1.04334e-31
5.77194e-32
3.52344e-32
2.21239e-32
1.16761e-32
4.97313e-33
5.44183e-33
2.204e-32
7.23858e-32
1.37012e-31
1.95016e-32
8.03779e-35
6.09936e-34
3.31212e-34
1.03735e-34
2.97843e-35
3.7424e-35
8.53417e-35
1.44611e-34
2.03074e-34
3.00758e-34
4.97896e-34
8.47757e-34
1.33909e-33
2.00548e-33
2.7348e-33
2.9025e-33
2.27143e-33
1.50097e-33
9.34379e-34
5.58251e-34
3.44427e-34
2.3013e-34
1.57904e-34
9.08504e-35
3.9524e-35
2.92559e-35
1.03383e-34
3.38315e-34
6.26678e-34
8.16285e-35
3.16895e-37
2.27544e-36
1.3155e-36
3.97727e-37
1.42332e-37
2.43051e-37
5.38984e-37
8.63966e-37
1.13709e-36
1.53044e-36
2.16379e-36
3.08324e-36
4.36773e-36
6.35934e-36
8.50179e-36
8.70283e-36
6.89426e-36
5.01505e-36
3.5934e-36
2.4379e-36
1.67788e-36
1.25456e-36
9.65623e-37
6.12493e-37
2.76346e-37
1.48921e-37
4.00802e-37
1.27278e-36
2.31737e-36
2.86204e-37
1.0158e-39
7.74593e-39
4.57423e-39
1.35855e-39
6.59624e-40
1.42512e-39
3.13398e-39
4.65916e-39
5.44503e-39
6.145e-39
7.1379e-39
9.02412e-39
1.22225e-38
1.63832e-38
1.89453e-38
1.77939e-38
1.53357e-38
1.34973e-38
1.14742e-38
8.7796e-39
6.75954e-39
5.73178e-39
4.9819e-39
3.46563e-39
1.62987e-39
7.02397e-40
1.25919e-39
3.87566e-39
7.17587e-39
8.69066e-40
3.24689e-42
2.7215e-41
1.46876e-41
4.55197e-42
3.00457e-42
7.46013e-42
1.50746e-41
1.9938e-41
2.02237e-41
1.97011e-41
2.0865e-41
2.51946e-41
3.01075e-41
3.25162e-41
3.20879e-41
3.13899e-41
3.2083e-41
3.22727e-41
2.95126e-41
2.46198e-41
2.19249e-41
2.19414e-41
2.2009e-41
1.68215e-41
8.2793e-42
3.18912e-42
3.57929e-42
1.03337e-41
1.97788e-41
2.38535e-42
1.04161e-44
8.14973e-44
4.17269e-44
1.40844e-44
1.31617e-44
3.15708e-44
5.70869e-44
6.95537e-44
6.33392e-44
5.69611e-44
5.67002e-44
5.92353e-44
5.42396e-44
4.71761e-44
4.55718e-44
5.01361e-44
5.43741e-44
5.50181e-44
5.41668e-44
5.4882e-44
6.17968e-44
7.36448e-44
8.36471e-44
6.78229e-44
3.49552e-44
1.34544e-44
1.04832e-44
2.61476e-44
4.9522e-44
5.92623e-45
3.16357e-47
1.95055e-46
1.06728e-46
4.0339e-47
4.6827e-47
1.06756e-46
1.90639e-46
2.15167e-46
1.80349e-46
1.42742e-46
1.20143e-46
9.72108e-47
7.16502e-47
5.75014e-47
5.83169e-47
6.36751e-47
6.46054e-47
6.70924e-47
8.07919e-47
1.06568e-46
1.46326e-46
1.9805e-46
2.36057e-46
2.11235e-46
1.20759e-46
5.05718e-47
3.17573e-47
6.17613e-47
1.06236e-46
1.29872e-47
8.02895e-50
4.42509e-49
2.71808e-49
1.07457e-49
1.27157e-49
2.97603e-49
5.11774e-49
4.96089e-49
3.81316e-49
2.54471e-49
1.81882e-49
1.30304e-49
9.26433e-50
7.35215e-50
6.64919e-50
5.92309e-50
5.5593e-50
6.7826e-50
1.06027e-49
1.71724e-49
2.66594e-49
4.05659e-49
5.21009e-49
5.60561e-49
3.71253e-49
1.68976e-49
9.11075e-50
1.29174e-49
1.88811e-49
2.56755e-50
1.75811e-52
1.23829e-51
6.78539e-52
2.53636e-52
3.0957e-52
6.92028e-52
1.02931e-51
9.10998e-52
6.09555e-52
3.64054e-52
2.44767e-52
1.74082e-52
1.19023e-52
7.89733e-53
5.43908e-53
4.21806e-53
4.59697e-53
7.48322e-53
1.42241e-52
2.54274e-52
4.21036e-52
7.01596e-52
1.06659e-51
1.27522e-51
9.50741e-52
4.45567e-52
2.20746e-52
2.4699e-52
3.14063e-52
4.99428e-53
5.33345e-55
4.17265e-54
1.44755e-54
5.1189e-55
6.25074e-55
1.25794e-54
1.77638e-54
1.55317e-54
9.59252e-55
5.44021e-55
3.5792e-55
2.37808e-55
1.35993e-55
7.24642e-56
4.5078e-56
3.96312e-56
5.32731e-56
9.56133e-56
1.8155e-55
3.20649e-55
5.51896e-55
1.01827e-54
1.79579e-54
2.29101e-54
1.82704e-54
8.68894e-55
4.31839e-55
4.43277e-55
5.41189e-55
9.60023e-56
1.70079e-57
5.07455e-57
2.54844e-57
9.35078e-58
1.00089e-57
1.97481e-57
2.76432e-57
2.31661e-57
1.30484e-57
7.16388e-58
4.46431e-58
2.58488e-58
1.27145e-58
6.58645e-59
4.62846e-59
4.63997e-59
6.14455e-59
9.91176e-59
1.79322e-58
3.32873e-58
6.50661e-58
1.38718e-57
2.74985e-57
3.58527e-57
2.90974e-57
1.39965e-57
7.32434e-58
7.47922e-58
9.31321e-58
1.72633e-58
1.50797e-60
6.31363e-60
4.76039e-60
1.86821e-60
1.81303e-60
3.65118e-60
4.34109e-60
3.28107e-60
1.678e-60
8.77993e-61
4.90372e-61
2.51668e-61
1.20548e-61
6.9628e-62
5.45115e-62
5.35419e-62
6.43602e-62
9.83122e-62
1.9432e-61
4.23998e-61
9.49735e-61
2.15767e-60
4.26084e-60
5.26699e-60
4.1127e-60
2.00318e-60
1.12976e-60
1.18481e-60
1.49647e-60
2.78304e-61
1.85241e-63
1.42378e-62
1.00022e-62
3.86054e-63
3.57947e-63
6.4629e-63
6.4219e-63
4.75905e-63
2.37954e-63
1.18192e-63
5.92681e-64
2.81411e-64
1.36039e-64
8.16872e-65
6.12968e-65
5.5175e-65
6.5564e-65
1.10666e-64
2.53303e-64
6.08968e-64
1.3713e-63
2.92721e-63
5.48014e-63
6.4314e-63
5.18609e-63
2.74368e-63
1.6898e-63
1.80708e-63
2.20509e-63
3.99311e-64
4.91665e-66
2.8165e-65
1.66711e-65
7.74634e-66
5.62435e-66
8.086e-66
7.66459e-66
5.99519e-66
3.01288e-66
1.38866e-66
6.29553e-67
2.77342e-67
1.26443e-67
6.90483e-68
4.61972e-68
4.06881e-68
5.4446e-68
1.09324e-67
2.779e-67
6.69358e-67
1.42627e-66
2.95152e-66
5.89498e-66
7.41756e-66
7.07002e-66
4.16227e-66
2.6383e-66
2.71822e-66
3.04442e-66
5.31067e-67
9.64938e-69
2.62332e-68
2.49276e-68
1.02755e-68
6.63859e-69
9.16974e-69
8.94814e-69
6.89657e-69
3.21173e-69
1.30098e-69
5.24397e-70
2.12305e-70
8.87356e-71
4.36136e-71
2.81638e-71
2.79023e-71
4.51272e-71
1.031e-70
2.65566e-70
6.12699e-70
1.29328e-69
2.88945e-69
6.70523e-69
9.81696e-69
1.03413e-68
6.21615e-69
3.80731e-69
3.74289e-69
4.03192e-69
6.99359e-70
7.78201e-72
3.10798e-71
2.68313e-71
1.03204e-71
7.78641e-72
1.10963e-71
1.0694e-71
7.3896e-72
3.04671e-72
1.08031e-72
4.06425e-73
1.64793e-73
6.96468e-74
3.5209e-74
2.48442e-74
2.77137e-74
4.73222e-74
1.03624e-73
2.44162e-73
5.34273e-73
1.17554e-72
2.92273e-72
7.49001e-72
1.16359e-71
1.19768e-71
6.94097e-72
4.38438e-72
4.60499e-72
5.30013e-72
9.63942e-73
1.49267e-74
8.85067e-74
4.91017e-74
1.64197e-74
1.00063e-74
1.17779e-74
1.0914e-74
6.99773e-75
2.69459e-75
9.17719e-76
3.61156e-76
1.59101e-76
7.16539e-77
3.79786e-77
2.76017e-77
2.96387e-77
4.5096e-77
8.47169e-77
1.80545e-76
3.99127e-76
9.59519e-76
2.60777e-75
6.85103e-75
1.01589e-74
9.88082e-75
5.8232e-75
4.3539e-75
5.56176e-75
7.68068e-75
1.39598e-75
5.30857e-77
3.026e-76
1.06025e-76
2.92521e-77
1.1672e-77
1.18242e-77
1.15691e-77
7.6258e-78
2.96704e-78
1.05272e-78
4.39854e-79
1.97504e-79
8.62362e-80
4.3344e-80
2.90438e-80
2.73835e-80
3.5792e-80
6.05922e-80
1.29649e-79
3.16627e-79
8.42045e-79
2.37047e-78
5.96076e-78
8.1726e-78
7.71685e-78
5.02755e-78
4.43157e-78
7.27432e-78
1.1363e-77
2.01552e-78
1.37021e-79
4.01847e-79
2.10419e-79
4.47744e-80
1.29141e-80
1.41957e-80
1.50281e-80
1.01131e-80
3.97344e-81
1.42232e-81
5.75799e-82
2.38046e-82
9.42683e-83
4.39003e-83
2.77632e-83
2.46609e-83
3.11945e-83
5.41157e-83
1.25389e-82
3.32853e-82
9.04323e-82
2.42172e-81
5.59246e-81
7.36828e-81
6.9779e-81
4.92442e-81
4.76788e-81
9.5174e-81
1.62024e-80
2.93084e-81
1.96976e-82
8.59569e-82
4.79523e-82
8.27633e-83
2.04511e-83
2.19791e-83
2.14862e-83
1.23727e-83
4.3607e-84
1.37318e-84
4.81291e-85
1.73134e-85
6.40254e-86
3.06288e-86
2.09062e-86
2.01641e-86
2.74693e-86
5.10135e-86
1.23415e-85
3.29268e-85
8.6349e-85
2.20427e-84
4.99822e-84
6.92326e-84
6.93885e-84
5.16448e-84
5.32286e-84
1.27201e-83
2.33704e-83
4.81055e-84
4.4694e-85
2.60088e-84
1.21729e-84
2.04229e-85
4.8125e-86
4.11142e-86
3.16079e-86
1.3032e-86
3.38709e-87
8.07609e-88
2.2461e-88
7.06052e-89
2.65706e-89
1.46049e-89
1.16051e-89
1.25592e-89
1.82605e-89
3.50723e-89
8.5629e-89
2.28215e-88
6.1232e-88
1.68127e-87
4.30826e-87
7.13464e-87
8.05162e-87
6.21057e-87
6.64775e-87
1.79358e-86
3.56741e-86
8.62195e-87
1.14933e-87
5.77877e-87
2.23363e-87
4.17281e-88
9.33332e-89
6.34113e-89
3.84477e-89
1.17068e-89
2.45338e-90
5.17004e-91
1.35372e-91
4.39405e-92
1.70081e-92
9.23385e-93
7.14031e-93
7.60674e-93
1.087e-92
2.1293e-92
5.41143e-92
1.53467e-91
4.61633e-91
1.48608e-90
4.52393e-90
8.9243e-90
1.10069e-89
8.54701e-90
9.62293e-90
2.88722e-89
5.86968e-89
1.44046e-89
1.79133e-90
5.75285e-90
2.43636e-90
5.53574e-91
1.20028e-91
6.09428e-92
3.3325e-92
1.08311e-92
2.71866e-93
6.65816e-94
1.90714e-94
6.2315e-95
2.18648e-95
1.00461e-95
6.57252e-96
6.45847e-96
9.04868e-96
1.84079e-95
4.9102e-95
1.46029e-94
4.64808e-94
1.60315e-93
5.24241e-93
1.10957e-92
1.40183e-92
1.07282e-92
1.24371e-92
3.9018e-92
8.29617e-92
2.0374e-92
8.97504e-94
1.76374e-93
1.43329e-93
4.4784e-94
8.39898e-95
4.16266e-95
2.97422e-95
1.41699e-95
4.81684e-96
1.35282e-96
3.85561e-97
1.13404e-97
3.3312e-98
1.26928e-98
7.30804e-99
6.79705e-99
9.35614e-99
1.89213e-98
5.04433e-98
1.4985e-97
4.75856e-97
1.62027e-96
5.20515e-96
1.09642e-95
1.38224e-95
1.07928e-95
1.37441e-95
4.7414e-95
9.76844e-95
2.35355e-95
4.15981e-97
1.4421e-96
1.27497e-96
3.36255e-97
5.90011e-98
4.17081e-98
3.99365e-98
2.54736e-98
1.01171e-98
2.79587e-99
7.13558e-100
1.81422e-100
4.61703e-101
1.58634e-101
8.67467e-102
7.79179e-102
1.04398e-101
2.06344e-101
5.40887e-101
1.57142e-100
4.80938e-100
1.55158e-99
4.64335e-99
9.25355e-99
1.15071e-98
9.48777e-99
1.21878e-98
4.12527e-98
9.07716e-98
2.32176e-98
8.06491e-100
3.87666e-99
2.1745e-99
3.45419e-100
7.56447e-101
6.43963e-101
6.83532e-101
4.69578e-101
1.77291e-101
4.46493e-102
1.04139e-102
2.49907e-103
6.25263e-104
2.16208e-104
1.18926e-104
1.06806e-104
1.42585e-104
2.7998e-104
7.23952e-104
2.03852e-103
5.88424e-103
1.74102e-102
4.68232e-102
8.38178e-102
9.98725e-102
8.41613e-102
1.10318e-101
3.36574e-101
6.78394e-101
1.9905e-101
1.97163e-102
7.70134e-102
3.69886e-102
5.45342e-103
1.08121e-103
8.84976e-104
9.85416e-104
6.18947e-104
2.1519e-104
5.36811e-105
1.33946e-105
3.59507e-106
9.84544e-107
3.57324e-107
2.00811e-107