/*--------------------------------*- C++ -*----------------------------------*\
| =========                 |                                                 |
| \\      /  F ield         | OpenFOAM: The Open Source CFD Toolbox           |
|  \\    /   O peration     | Version:  2312                                  |
|   \\  /    A nd           | Website:  www.openfoam.com                      |
|    \\/     M anipulation  |                                                 |
\*---------------------------------------------------------------------------*/
FoamFile
{
    version     2.0;
    format      ascii;
    arch        "LSB;label=32;scalar=64";
    class       volScalarField;
    location    "1.4126785425";
    object      epsilon;
}
// * * * * * * * * * * * * * * * * * * * * * * * * * * * * * * * * * * * * * //

dimensions      [0 2 -3 0 0 0 0];

internalField   nonuniform List<scalar> 
90000
(
7.71711e-06
7.71974e-06
7.72034e-06
7.72054e-06
7.7208e-06
7.72089e-06
7.72092e-06
7.72091e-06
7.7208e-06
7.72052e-06
7.72008e-06
7.71956e-06
7.71913e-06
7.71909e-06
7.71936e-06
7.71955e-06
7.71968e-06
7.72002e-06
7.72054e-06
7.72065e-06
7.72006e-06
7.71941e-06
7.72051e-06
7.72278e-06
7.72472e-06
7.72547e-06
7.72453e-06
7.72344e-06
7.72735e-06
7.73491e-06
7.72132e-06
7.77946e-06
7.78498e-06
7.78509e-06
7.7849e-06
7.78484e-06
7.78493e-06
7.78505e-06
7.78507e-06
7.78502e-06
7.78508e-06
7.78532e-06
7.78558e-06
7.78573e-06
7.78573e-06
7.78559e-06
7.78539e-06
7.78525e-06
7.78511e-06
7.78495e-06
7.78525e-06
7.78586e-06
7.78645e-06
7.78658e-06
7.78606e-06
7.78547e-06
7.78666e-06
7.79046e-06
7.78799e-06
7.74673e-06
7.7214e-06
7.78544e-06
7.79184e-06
7.79212e-06
7.79208e-06
7.79214e-06
7.79229e-06
7.79237e-06
7.79222e-06
7.79192e-06
7.79198e-06
7.79251e-06
7.79328e-06
7.79383e-06
7.79386e-06
7.79328e-06
7.79226e-06
7.79141e-06
7.79215e-06
7.79326e-06
7.79397e-06
7.79403e-06
7.79365e-06
7.79318e-06
7.79359e-06
7.79473e-06
7.79568e-06
7.79929e-06
7.80392e-06
7.74261e-06
7.72075e-06
7.78553e-06
7.79249e-06
7.79299e-06
7.79315e-06
7.79332e-06
7.79352e-06
7.79362e-06
7.79353e-06
7.79316e-06
7.79284e-06
7.79305e-06
7.7935e-06
7.79393e-06
7.79387e-06
7.79328e-06
7.79251e-06
7.79272e-06
7.79388e-06
7.79466e-06
7.79468e-06
7.79412e-06
7.79426e-06
7.7959e-06
7.79742e-06
7.79865e-06
7.80041e-06
7.80053e-06
7.80236e-06
7.73245e-06
7.72035e-06
7.78549e-06
7.79255e-06
7.79314e-06
7.79332e-06
7.79341e-06
7.79349e-06
7.79359e-06
7.79369e-06
7.79365e-06
7.79349e-06
7.79323e-06
7.79289e-06
7.79248e-06
7.79241e-06
7.79303e-06
7.79384e-06
7.79443e-06
7.79457e-06
7.7942e-06
7.79357e-06
7.79387e-06
7.79544e-06
7.79711e-06
7.79816e-06
7.79815e-06
7.7976e-06
7.79815e-06
7.79342e-06
7.72688e-06
7.72047e-06
7.78569e-06
7.79248e-06
7.79297e-06
7.79307e-06
7.79301e-06
7.79295e-06
7.79304e-06
7.79327e-06
7.79358e-06
7.79387e-06
7.79409e-06
7.79413e-06
7.79379e-06
7.79337e-06
7.79362e-06
7.7942e-06
7.79447e-06
7.79422e-06
7.79374e-06
7.7937e-06
7.79437e-06
7.79532e-06
7.79602e-06
7.7963e-06
7.79607e-06
7.7949e-06
7.79823e-06
7.79164e-06
7.72615e-06
7.72097e-06
7.786e-06
7.79267e-06
7.79333e-06
7.79368e-06
7.79385e-06
7.79375e-06
7.79341e-06
7.7931e-06
7.79328e-06
7.79393e-06
7.79477e-06
7.79543e-06
7.79555e-06
7.79489e-06
7.79376e-06
7.79296e-06
7.79296e-06
7.79345e-06
7.79401e-06
7.79445e-06
7.79463e-06
7.79439e-06
7.7937e-06
7.79333e-06
7.79486e-06
7.79714e-06
7.80061e-06
7.79402e-06
7.7254e-06
7.72114e-06
7.78705e-06
7.79377e-06
7.79466e-06
7.79529e-06
7.79574e-06
7.79583e-06
7.79534e-06
7.79426e-06
7.79312e-06
7.79355e-06
7.79459e-06
7.79552e-06
7.79584e-06
7.79521e-06
7.79373e-06
7.79192e-06
7.79154e-06
7.79293e-06
7.79404e-06
7.79454e-06
7.79435e-06
7.79353e-06
7.79277e-06
7.79351e-06
7.79608e-06
7.79863e-06
7.80016e-06
7.79259e-06
7.72389e-06
7.72159e-06
7.78872e-06
7.79526e-06
7.79607e-06
7.79674e-06
7.79721e-06
7.79731e-06
7.79695e-06
7.79606e-06
7.79479e-06
7.79376e-06
7.79395e-06
7.79436e-06
7.79468e-06
7.79472e-06
7.79441e-06
7.79386e-06
7.79349e-06
7.7937e-06
7.79417e-06
7.79434e-06
7.79396e-06
7.79318e-06
7.79297e-06
7.79445e-06
7.79671e-06
7.7983e-06
7.79805e-06
7.7901e-06
7.72258e-06
7.72394e-06
7.78966e-06
7.79576e-06
7.79634e-06
7.79671e-06
7.79693e-06
7.79705e-06
7.79707e-06
7.79691e-06
7.79647e-06
7.79557e-06
7.7942e-06
7.79309e-06
7.79312e-06
7.79416e-06
7.79545e-06
7.79636e-06
7.79674e-06
7.79666e-06
7.79626e-06
7.7956e-06
7.79467e-06
7.79364e-06
7.79322e-06
7.7945e-06
7.79587e-06
7.79631e-06
7.79534e-06
7.78814e-06
7.72196e-06
7.72582e-06
7.78982e-06
7.79544e-06
7.79569e-06
7.79543e-06
7.79497e-06
7.79477e-06
7.7952e-06
7.79597e-06
7.79651e-06
7.79633e-06
7.79531e-06
7.79375e-06
7.79289e-06
7.79381e-06
7.7958e-06
7.79768e-06
7.799e-06
7.79962e-06
7.79931e-06
7.79824e-06
7.79665e-06
7.79499e-06
7.79391e-06
7.7943e-06
7.79487e-06
7.79517e-06
7.79477e-06
7.78797e-06
7.72255e-06
7.72562e-06
7.79115e-06
7.7964e-06
7.79619e-06
7.79545e-06
7.79453e-06
7.79387e-06
7.79402e-06
7.79465e-06
7.7953e-06
7.79564e-06
7.79549e-06
7.79468e-06
7.79334e-06
7.79294e-06
7.79524e-06
7.79801e-06
7.80008e-06
7.80103e-06
7.80074e-06
7.79946e-06
7.79761e-06
7.79555e-06
7.79388e-06
7.79391e-06
7.79476e-06
7.79542e-06
7.79525e-06
7.78927e-06
7.72335e-06
7.72471e-06
7.79256e-06
7.79794e-06
7.79817e-06
7.79876e-06
7.79935e-06
7.79965e-06
7.79935e-06
7.79808e-06
7.79624e-06
7.79543e-06
7.79604e-06
7.7964e-06
7.79619e-06
7.79587e-06
7.7965e-06
7.79778e-06
7.79875e-06
7.79907e-06
7.79878e-06
7.798e-06
7.79682e-06
7.79536e-06
7.79409e-06
7.79428e-06
7.79508e-06
7.79558e-06
7.79573e-06
7.78977e-06
7.72378e-06
7.72874e-06
7.79204e-06
7.79889e-06
7.8006e-06
7.80295e-06
7.80474e-06
7.80524e-06
7.80399e-06
7.80125e-06
7.79797e-06
7.7957e-06
7.79637e-06
7.79798e-06
7.79931e-06
7.79993e-06
7.79969e-06
7.79848e-06
7.79651e-06
7.79498e-06
7.79484e-06
7.79546e-06
7.79581e-06
7.79562e-06
7.79517e-06
7.79507e-06
7.79526e-06
7.79574e-06
7.79612e-06
7.78976e-06
7.72448e-06
7.73293e-06
7.78961e-06
7.80081e-06
7.80416e-06
7.80656e-06
7.80736e-06
7.80635e-06
7.80382e-06
7.80047e-06
7.79718e-06
7.79488e-06
7.7957e-06
7.79822e-06
7.8005e-06
7.80159e-06
7.80117e-06
7.79931e-06
7.79648e-06
7.79378e-06
7.79277e-06
7.79407e-06
7.79553e-06
7.79626e-06
7.79623e-06
7.79578e-06
7.79592e-06
7.79716e-06
7.7978e-06
7.79213e-06
7.7271e-06
7.73353e-06
7.79612e-06
7.8048e-06
7.8065e-06
7.8066e-06
7.80505e-06
7.80235e-06
7.79957e-06
7.79735e-06
7.79556e-06
7.79416e-06
7.79505e-06
7.7977e-06
7.80007e-06
7.80122e-06
7.80095e-06
7.79976e-06
7.79787e-06
7.79579e-06
7.79421e-06
7.79432e-06
7.79553e-06
7.7965e-06
7.79671e-06
7.79673e-06
7.79758e-06
7.79896e-06
7.8002e-06
7.79575e-06
7.72922e-06
7.73061e-06
7.80298e-06
7.80763e-06
7.80655e-06
7.80389e-06
7.80035e-06
7.79709e-06
7.79628e-06
7.79651e-06
7.79593e-06
7.79516e-06
7.79594e-06
7.7977e-06
7.79929e-06
7.8001e-06
7.8003e-06
7.79984e-06
7.79871e-06
7.7972e-06
7.79583e-06
7.79526e-06
7.79559e-06
7.79627e-06
7.79681e-06
7.79749e-06
7.79874e-06
7.80015e-06
7.80134e-06
7.7957e-06
7.72841e-06
7.72902e-06
7.80599e-06
7.80882e-06
7.80637e-06
7.80303e-06
7.79978e-06
7.79787e-06
7.79721e-06
7.79695e-06
7.79639e-06
7.79653e-06
7.79683e-06
7.79726e-06
7.79776e-06
7.79833e-06
7.79883e-06
7.79902e-06
7.79876e-06
7.79805e-06
7.79709e-06
7.79616e-06
7.79622e-06
7.79689e-06
7.79753e-06
7.79862e-06
7.79986e-06
7.8007e-06
7.80072e-06
7.7937e-06
7.72739e-06
7.73266e-06
7.80659e-06
7.80978e-06
7.80745e-06
7.80472e-06
7.80254e-06
7.80102e-06
7.79964e-06
7.7981e-06
7.797e-06
7.79652e-06
7.79604e-06
7.7958e-06
7.79574e-06
7.79598e-06
7.79663e-06
7.79746e-06
7.79799e-06
7.79794e-06
7.79733e-06
7.79665e-06
7.79686e-06
7.79754e-06
7.79927e-06
7.80118e-06
7.8019e-06
7.80173e-06
7.80086e-06
7.79387e-06
7.72801e-06
7.73646e-06
7.80638e-06
7.81039e-06
7.80842e-06
7.80626e-06
7.80473e-06
7.80357e-06
7.8022e-06
7.80061e-06
7.79908e-06
7.79771e-06
7.79635e-06
7.79507e-06
7.79401e-06
7.79396e-06
7.79509e-06
7.79644e-06
7.79722e-06
7.79738e-06
7.79715e-06
7.79717e-06
7.79848e-06
7.80124e-06
7.80361e-06
7.80433e-06
7.80387e-06
7.80341e-06
7.80302e-06
7.79751e-06
7.73119e-06
7.7396e-06
7.80566e-06
7.81031e-06
7.80894e-06
7.80773e-06
7.80697e-06
7.80612e-06
7.80486e-06
7.80325e-06
7.80143e-06
7.79942e-06
7.7972e-06
7.79516e-06
7.79453e-06
7.79536e-06
7.79653e-06
7.79734e-06
7.79764e-06
7.798e-06
7.79889e-06
7.80084e-06
7.80365e-06
7.80572e-06
7.80589e-06
7.80474e-06
7.80408e-06
7.80409e-06
7.80454e-06
7.79944e-06
7.7332e-06
7.74181e-06
7.80506e-06
7.81084e-06
7.81037e-06
7.80987e-06
7.80927e-06
7.80821e-06
7.8067e-06
7.80487e-06
7.80269e-06
7.8001e-06
7.79761e-06
7.79684e-06
7.79781e-06
7.7982e-06
7.79793e-06
7.79766e-06
7.79822e-06
7.7999e-06
7.80259e-06
7.80578e-06
7.80783e-06
7.80757e-06
7.80606e-06
7.80566e-06
7.80603e-06
7.80659e-06
7.80694e-06
7.80094e-06
7.73603e-06
7.74317e-06
7.80565e-06
7.81265e-06
7.81292e-06
7.81246e-06
7.81136e-06
7.80975e-06
7.80789e-06
7.80584e-06
7.80351e-06
7.80108e-06
7.79961e-06
7.79972e-06
7.79899e-06
7.79758e-06
7.79661e-06
7.79711e-06
7.79927e-06
7.80266e-06
7.80639e-06
7.8089e-06
7.80911e-06
7.80788e-06
7.80779e-06
7.8087e-06
7.80975e-06
7.81062e-06
7.81063e-06
7.80432e-06
7.73989e-06
7.74511e-06
7.80916e-06
7.81632e-06
7.8165e-06
7.81549e-06
7.81381e-06
7.81194e-06
7.8101e-06
7.80806e-06
7.80566e-06
7.80319e-06
7.80196e-06
7.80062e-06
7.79821e-06
7.79603e-06
7.7963e-06
7.79804e-06
7.80127e-06
7.80558e-06
7.80874e-06
7.8097e-06
7.80932e-06
7.81014e-06
7.81176e-06
7.81345e-06
7.815e-06
7.81577e-06
7.8159e-06
7.80917e-06
7.74535e-06
7.75075e-06
7.81518e-06
7.82178e-06
7.82134e-06
7.81976e-06
7.8179e-06
7.81616e-06
7.81431e-06
7.81193e-06
7.80901e-06
7.80606e-06
7.80374e-06
7.80097e-06
7.79829e-06
7.7975e-06
7.79773e-06
7.79949e-06
7.8035e-06
7.80705e-06
7.80873e-06
7.8096e-06
7.81208e-06
7.81459e-06
7.81668e-06
7.81903e-06
7.82062e-06
7.82162e-06
7.82217e-06
7.81645e-06
7.75319e-06
7.7594e-06
7.82315e-06
7.82899e-06
7.82784e-06
7.82596e-06
7.82408e-06
7.82218e-06
7.81983e-06
7.81679e-06
7.81328e-06
7.80978e-06
7.80629e-06
7.80311e-06
7.80116e-06
7.79956e-06
7.7988e-06
7.80084e-06
7.80434e-06
7.80701e-06
7.80984e-06
7.81374e-06
7.81698e-06
7.81944e-06
7.82213e-06
7.82459e-06
7.82658e-06
7.8282e-06
7.83005e-06
7.82675e-06
7.76005e-06
7.77036e-06
7.83257e-06
7.83779e-06
7.83622e-06
7.83415e-06
7.83195e-06
7.82938e-06
7.82616e-06
7.82239e-06
7.81825e-06
7.81412e-06
7.81043e-06
7.80767e-06
7.80522e-06
7.80222e-06
7.80083e-06
7.80256e-06
7.80608e-06
7.81074e-06
7.81551e-06
7.81917e-06
7.82232e-06
7.82561e-06
7.8287e-06
7.83153e-06
7.83463e-06
7.83714e-06
7.83967e-06
7.83507e-06
7.76829e-06
7.78263e-06
7.84342e-06
7.84846e-06
7.84663e-06
7.84412e-06
7.84123e-06
7.83773e-06
7.8336e-06
7.82911e-06
7.8246e-06
7.82042e-06
7.81703e-06
7.81387e-06
7.80987e-06
7.80566e-06
7.80435e-06
7.80699e-06
7.81187e-06
7.81713e-06
7.8216e-06
7.82549e-06
7.8298e-06
7.8337e-06
7.83739e-06
7.8411e-06
7.84539e-06
7.8487e-06
7.84943e-06
7.84374e-06
7.78059e-06
7.79597e-06
7.85628e-06
7.86102e-06
7.85885e-06
7.85588e-06
7.85225e-06
7.84795e-06
7.84312e-06
7.83813e-06
7.83323e-06
7.82876e-06
7.82469e-06
7.81984e-06
7.81415e-06
7.80941e-06
7.80875e-06
7.81253e-06
7.81801e-06
7.82362e-06
7.8289e-06
7.8338e-06
7.83891e-06
7.844e-06
7.84888e-06
7.8533e-06
7.85834e-06
7.86189e-06
7.8613e-06
7.85658e-06
7.79635e-06
7.81144e-06
7.87159e-06
7.87615e-06
7.87365e-06
7.8701e-06
7.8658e-06
7.86081e-06
7.85535e-06
7.84964e-06
7.84386e-06
7.83831e-06
7.8324e-06
7.82552e-06
7.81857e-06
7.81364e-06
7.81363e-06
7.81819e-06
7.82424e-06
7.83077e-06
7.83751e-06
7.84373e-06
7.84996e-06
7.8566e-06
7.86274e-06
7.8675e-06
7.87255e-06
7.87659e-06
7.87712e-06
7.87464e-06
7.81331e-06
7.83041e-06
7.89041e-06
7.89468e-06
7.89174e-06
7.88752e-06
7.88249e-06
7.87675e-06
7.87052e-06
7.86375e-06
7.85658e-06
7.84923e-06
7.84123e-06
7.83269e-06
7.82482e-06
7.81962e-06
7.81983e-06
7.82505e-06
7.83216e-06
7.83996e-06
7.84837e-06
7.85645e-06
7.86402e-06
7.87168e-06
7.87867e-06
7.88391e-06
7.88855e-06
7.89404e-06
7.89759e-06
7.89416e-06
7.83244e-06
7.85379e-06
7.91342e-06
7.91726e-06
7.9138e-06
7.90886e-06
7.90299e-06
7.89631e-06
7.88894e-06
7.8808e-06
7.87192e-06
7.86246e-06
7.8525e-06
7.84253e-06
7.8337e-06
7.82774e-06
7.82773e-06
7.83375e-06
7.84264e-06
7.85199e-06
7.86188e-06
7.87196e-06
7.88099e-06
7.88898e-06
7.8972e-06
7.90338e-06
7.90839e-06
7.91569e-06
7.9207e-06
7.91585e-06
7.8559e-06
7.88227e-06
7.94131e-06
7.94472e-06
7.94075e-06
7.93493e-06
7.92788e-06
7.91983e-06
7.91093e-06
7.90112e-06
7.89034e-06
7.87879e-06
7.86697e-06
7.85549e-06
7.84538e-06
7.83832e-06
7.83817e-06
7.84497e-06
7.85596e-06
7.86712e-06
7.87842e-06
7.89035e-06
7.90067e-06
7.90962e-06
7.91941e-06
7.92738e-06
7.93356e-06
7.94199e-06
7.9468e-06
7.9425e-06
7.88439e-06
7.91703e-06
7.97531e-06
7.97823e-06
7.97349e-06
7.96644e-06
7.95783e-06
7.94805e-06
7.93736e-06
7.9257e-06
7.91295e-06
7.89947e-06
7.88579e-06
7.87234e-06
7.86032e-06
7.85198e-06
7.85214e-06
7.85965e-06
7.87242e-06
7.88577e-06
7.89884e-06
7.91226e-06
7.92512e-06
7.93579e-06
7.94689e-06
7.95689e-06
7.96504e-06
7.97352e-06
7.97844e-06
7.97528e-06
7.91868e-06
7.95943e-06
8.0166e-06
8.01872e-06
8.01274e-06
8.00417e-06
7.9939e-06
7.98239e-06
7.96979e-06
7.95611e-06
7.94126e-06
7.92561e-06
7.90957e-06
7.89355e-06
7.87918e-06
7.86943e-06
7.87056e-06
7.87914e-06
7.89338e-06
7.90926e-06
7.92464e-06
7.94028e-06
7.95642e-06
7.96875e-06
7.98109e-06
7.99368e-06
8.00379e-06
8.01181e-06
8.01738e-06
8.01519e-06
7.96005e-06
8.01076e-06
8.06606e-06
8.06699e-06
8.05963e-06
8.04968e-06
8.03797e-06
8.02479e-06
8.01013e-06
7.99417e-06
7.97685e-06
7.95844e-06
7.9395e-06
7.92058e-06
7.90432e-06
7.89316e-06
7.89505e-06
7.90537e-06
7.92125e-06
7.93982e-06
7.95849e-06
7.97661e-06
7.99545e-06
8.00988e-06
8.02417e-06
8.0396e-06
8.0503e-06
8.05856e-06
8.0648e-06
8.06389e-06
8.01055e-06
8.07257e-06
8.12524e-06
8.12493e-06
8.1165e-06
8.10556e-06
8.09252e-06
8.07745e-06
8.0604e-06
8.04174e-06
8.02156e-06
7.99997e-06
7.97808e-06
7.95638e-06
7.93884e-06
7.92614e-06
7.92754e-06
7.93968e-06
7.95769e-06
7.97919e-06
8.00187e-06
8.02224e-06
8.04346e-06
8.06071e-06
8.07784e-06
8.09469e-06
8.10623e-06
8.11577e-06
8.12352e-06
8.12414e-06
8.07277e-06
8.1469e-06
8.19674e-06
8.19573e-06
8.18659e-06
8.17436e-06
8.15936e-06
8.14181e-06
8.12196e-06
8.10045e-06
8.07727e-06
8.05249e-06
8.02789e-06
8.00331e-06
7.9839e-06
7.96966e-06
7.9694e-06
7.98307e-06
8.00452e-06
8.0293e-06
8.05546e-06
8.07816e-06
8.10199e-06
8.12301e-06
8.14264e-06
8.16065e-06
8.17421e-06
8.18621e-06
8.19581e-06
8.19755e-06
8.14872e-06
8.23638e-06
8.28436e-06
8.28241e-06
8.27179e-06
8.25743e-06
8.23992e-06
8.21976e-06
8.19716e-06
8.17268e-06
8.14634e-06
8.11827e-06
8.09079e-06
8.06294e-06
8.03986e-06
8.02424e-06
8.02274e-06
8.03825e-06
8.06375e-06
8.09207e-06
8.12059e-06
8.14624e-06
8.17333e-06
8.19851e-06
8.22036e-06
8.24009e-06
8.25707e-06
8.27124e-06
8.28237e-06
8.28581e-06
8.23926e-06
8.34488e-06
8.39079e-06
8.38666e-06
8.3741e-06
8.35787e-06
8.33827e-06
8.31549e-06
8.28991e-06
8.26201e-06
8.2322e-06
8.20056e-06
8.16899e-06
8.13871e-06
8.11059e-06
8.09341e-06
8.09238e-06
8.11018e-06
8.1384e-06
8.17016e-06
8.20089e-06
8.23127e-06
8.26221e-06
8.29079e-06
8.31524e-06
8.33737e-06
8.35799e-06
8.37398e-06
8.38692e-06
8.39246e-06
8.34641e-06
8.47556e-06
8.51892e-06
8.51303e-06
8.49951e-06
8.48151e-06
8.45897e-06
8.43289e-06
8.40432e-06
8.37328e-06
8.33986e-06
8.30505e-06
8.26841e-06
8.23664e-06
8.20391e-06
8.1838e-06
8.18355e-06
8.20411e-06
8.23461e-06
8.27045e-06
8.30423e-06
8.33977e-06
8.3737e-06
8.4045e-06
8.43282e-06
8.45783e-06
8.48125e-06
8.49973e-06
8.51432e-06
8.52107e-06
8.47496e-06
8.63359e-06
8.67713e-06
8.66945e-06
8.65339e-06
8.63178e-06
8.60576e-06
8.57725e-06
8.54599e-06
8.51191e-06
8.47463e-06
8.437e-06
8.39617e-06
8.36204e-06
8.32571e-06
8.30124e-06
8.30262e-06
8.32702e-06
8.35951e-06
8.39888e-06
8.43642e-06
8.47547e-06
8.51213e-06
8.5455e-06
8.5779e-06
8.60615e-06
8.63101e-06
8.65288e-06
8.67031e-06
8.67933e-06
8.63174e-06
8.82831e-06
8.87441e-06
8.8608e-06
8.8404e-06
8.81619e-06
8.78756e-06
8.75629e-06
8.72123e-06
8.68358e-06
8.64382e-06
8.60338e-06
8.56067e-06
8.52249e-06
8.48367e-06
8.45685e-06
8.45898e-06
8.48599e-06
8.52117e-06
8.56225e-06
8.60357e-06
8.64471e-06
8.68381e-06
8.72096e-06
8.75551e-06
8.78837e-06
8.81617e-06
8.84049e-06
8.86233e-06
8.87556e-06
8.82303e-06
9.07094e-06
9.12213e-06
9.10059e-06
9.07689e-06
9.04895e-06
9.01601e-06
8.98124e-06
8.94222e-06
8.90071e-06
8.86144e-06
8.81947e-06
8.77767e-06
8.74061e-06
8.70306e-06
8.67866e-06
8.6818e-06
8.70507e-06
8.74044e-06
8.77909e-06
8.81937e-06
8.86114e-06
8.9019e-06
8.94278e-06
8.97812e-06
9.01398e-06
9.0495e-06
9.07825e-06
9.10304e-06
9.1215e-06
9.06087e-06
9.38398e-06
9.46132e-06
9.42797e-06
9.39942e-06
9.36049e-06
9.31962e-06
9.28181e-06
9.2397e-06
9.19937e-06
9.17031e-06
9.14561e-06
9.13828e-06
9.15376e-06
9.16515e-06
9.18299e-06
9.19966e-06
9.1718e-06
9.15152e-06
9.1429e-06
9.14792e-06
9.16989e-06
9.20024e-06
9.23946e-06
9.2801e-06
9.31585e-06
9.36084e-06
9.40151e-06
9.42864e-06
9.46128e-06
9.37019e-06
9.88373e-06
1.009e-05
1.00105e-05
1.00279e-05
9.92395e-06
9.84702e-06
9.83722e-06
9.79428e-06
9.78246e-06
9.87118e-06
1.00502e-05
1.04244e-05
1.10098e-05
1.15995e-05
1.2096e-05
1.21925e-05
1.16365e-05
1.10161e-05
1.04629e-05
1.00555e-05
9.87504e-06
9.78622e-06
9.78779e-06
9.83793e-06
9.84344e-06
9.92045e-06
1.00363e-05
1.00138e-05
1.0097e-05
9.86086e-06
1.12769e-05
1.21472e-05
1.18757e-05
1.2554e-05
1.18233e-05
1.15958e-05
1.20437e-05
1.1925e-05
1.21935e-05
1.34204e-05
1.54283e-05
1.93405e-05
2.57025e-05
3.22705e-05
3.7205e-05
3.77078e-05
3.27173e-05
2.58235e-05
1.97623e-05
1.54619e-05
1.345e-05
1.22105e-05
1.19058e-05
1.20449e-05
1.15884e-05
1.18065e-05
1.25875e-05
1.18834e-05
1.21984e-05
1.12195e-05
1.70658e-05
2.14943e-05
2.05801e-05
2.70296e-05
2.21524e-05
2.25058e-05
2.76591e-05
2.68369e-05
3.04409e-05
4.05994e-05
6.12667e-05
9.57179e-05
0.00014919
0.000199803
0.000242021
0.000238865
0.000206302
0.000148316
0.000100465
6.1049e-05
4.07655e-05
3.05651e-05
2.66867e-05
2.75248e-05
2.25613e-05
2.20674e-05
2.7315e-05
2.05684e-05
2.17721e-05
1.6905e-05
4.28771e-05
6.45809e-05
6.69642e-05
0.000104427
9.53384e-05
0.000119757
0.000157467
0.000160491
0.000218447
0.000310576
0.000460435
0.000614077
0.000877119
0.00102999
0.00115934
0.00114326
0.00106111
0.000837004
0.000654328
0.000448814
0.000312558
0.000221654
0.000162261
0.000153508
0.000122524
9.57512e-05
0.0001075
6.76652e-05
6.54041e-05
4.25032e-05
0.000135851
0.000252248
0.000278992
0.000455032
0.000517516
0.000709735
0.000834281
0.000991457
0.00129666
0.00146175
0.00173377
0.00187337
0.0023571
0.00244284
0.00256136
0.00250369
0.00256805
0.00215539
0.00203715
0.00166443
0.00145391
0.00131565
0.00099642
0.000805859
0.000731267
0.000524299
0.000471327
0.000285488
0.000253617
0.000135932
0.000346759
0.000606896
0.000769384
0.0011929
0.00149475
0.00206752
0.00250583
0.00290306
0.00340266
0.00376223
0.0038603
0.00394491
0.00420243
0.00467751
0.00438267
0.00452969
0.00447199
0.00378539
0.00401767
0.00383045
0.00376093
0.00343462
0.00288469
0.00243928
0.00211024
0.00151571
0.00123442
0.000769268
0.000605279
0.000349244
0.000622036
0.000779703
0.0010079
0.00154882
0.00198189
0.00274387
0.00328893
0.00366383
0.00457567
0.00477127
0.0047618
0.00482154
0.00481159
0.0054225
0.00528699
0.00528462
0.00523642
0.00473104
0.00487353
0.00472612
0.00477306
0.00461485
0.00365202
0.00331619
0.0028685
0.00204919
0.00160762
0.00103564
0.000768196
0.000628234
0.000806713
0.000920424
0.0011961
0.00155633
0.00209858
0.00255736
0.00380262
0.0039076
0.00431273
0.0045464
0.00422533
0.00412603
0.00466302
0.00440371
0.00472236
0.00446759
0.0051417
0.00430671
0.00489457
0.00415064
0.00468627
0.00446862
0.0040206
0.0041877
0.00261147
0.00212186
0.00163042
0.00124822
0.000900807
0.00083667
0.000780222
0.000937696
0.00120191
0.0018002
0.00186251
0.00213191
0.00251715
0.00294833
0.00315417
0.00302318
0.00309994
0.00330632
0.00345922
0.00348835
0.00394427
0.00391477
0.00366937
0.00344715
0.00346125
0.00311941
0.00308838
0.00325997
0.00306749
0.00259913
0.00220769
0.00191874
0.00183874
0.0012529
0.000960636
0.000834354
0.000426486
0.000566474
0.000895114
0.00125789
0.00125081
0.00121138
0.00145888
0.00168154
0.00175961
0.00194456
0.00216904
0.00248536
0.00262427
0.00274891
0.00315191
0.00315326
0.00276163
0.0026772
0.00254688
0.00218967
0.00200142
0.00185762
0.00179853
0.00154712
0.00126721
0.00126274
0.00127305
0.000905661
0.000578857
0.000441808
0.000280618
0.00033381
0.000473872
0.000697426
0.000586898
0.000607888
0.000793398
0.000960299
0.00111055
0.00125131
0.00129177
0.00140407
0.00142352
0.0015738
0.00175109
0.00175045
0.00159475
0.0014393
0.00138257
0.00127063
0.00128351
0.00115589
0.00100121
0.000826462
0.000629126
0.000590805
0.000697585
0.000477423
0.00033619
0.000281745
0.000200048
0.00021813
0.000252235
0.000335029
0.000280347
0.000267986
0.000348014
0.000473958
0.000656289
0.00086573
0.000996493
0.00105338
0.00105322
0.00109624
0.00111717
0.00110914
0.00110181
0.00105575
0.00103778
0.0009746
0.000865326
0.000663371
0.000484466
0.000356778
0.000274952
0.000282823
0.000337454
0.000253788
0.000220391
0.000202747
0.000148835
0.000151325
0.000156754
0.000174765
0.000165918
0.000156358
0.000170023
0.000209974
0.000298339
0.000458211
0.000648822
0.000834262
0.000952564
0.00101486
0.00100644
0.00100006
0.00101741
0.000956135
0.000829055
0.000639242
0.000457369
0.000298981
0.000212497
0.000172441
0.000158891
0.000168884
0.000177523
0.000157754
0.000152403
0.000150197
0.000116761
0.000111659
0.000111065
0.000113343
0.000113217
0.000111694
0.000114331
0.000123012
0.000146662
0.000206374
0.000321663
0.000494708
0.000693172
0.000856479
0.000912733
0.000907061
0.00085893
0.000697375
0.00049309
0.00032013
0.000206319
0.000147523
0.000124013
0.000115598
0.000112606
0.000114716
0.000114878
0.000112158
0.00011295
0.000117227
9.38754e-05
8.8137e-05
8.64549e-05
8.63261e-05
8.66691e-05
8.71995e-05
8.8687e-05
9.18968e-05
9.80033e-05
0.000112665
0.000149596
0.000228113
0.000355315
0.000508349
0.000614594
0.000611538
0.000508841
0.000357476
0.000228377
0.000149806
0.00011339
9.85363e-05
9.24097e-05
8.92548e-05
8.78417e-05
8.7058e-05
8.71998e-05
8.7118e-05
8.90696e-05
9.48398e-05
7.80898e-05
7.28357e-05
7.143e-05
7.13528e-05
7.17372e-05
7.25473e-05
7.39288e-05
7.55339e-05
7.76004e-05
8.12275e-05
8.93966e-05
0.000108946
0.000148736
0.000208652
0.000269164
0.000268685
0.000208508
0.000149148
0.000109461
8.97177e-05
8.18304e-05
7.78129e-05
7.60186e-05
7.41747e-05
7.31164e-05
7.2172e-05
7.15711e-05
7.20076e-05
7.34262e-05
7.88079e-05
6.64924e-05
6.15297e-05
6.04799e-05
6.05524e-05
6.10587e-05
6.1996e-05
6.31265e-05
6.40292e-05
6.50362e-05
6.60999e-05
6.76137e-05
7.08452e-05
7.7932e-05
9.05915e-05
0.000104937
0.000104832
9.07646e-05
7.82392e-05
7.12193e-05
6.77698e-05
6.65355e-05
6.52346e-05
6.44653e-05
6.33716e-05
6.2236e-05
6.154e-05
6.07811e-05
6.09897e-05
6.21007e-05
6.71388e-05
5.74586e-05
5.27922e-05
5.1967e-05
5.20322e-05
5.25852e-05
5.33988e-05
5.41231e-05
5.46991e-05
5.52311e-05
5.54139e-05
5.53395e-05
5.54627e-05
5.59942e-05
5.73489e-05
5.91422e-05
5.90463e-05
5.75043e-05
5.62671e-05
5.58669e-05
5.56549e-05
5.56528e-05
5.53739e-05
5.4978e-05
5.43586e-05
5.35301e-05
5.28644e-05
5.24123e-05
5.23337e-05
5.33517e-05
5.81162e-05
5.02269e-05
4.57622e-05
4.49012e-05
4.50659e-05
4.56158e-05
4.615e-05
4.65401e-05
4.68225e-05
4.68683e-05
4.66032e-05
4.61649e-05
4.57396e-05
4.51933e-05
4.46983e-05
4.44633e-05
4.45101e-05
4.48991e-05
4.53985e-05
4.59207e-05
4.64486e-05
4.68106e-05
4.70476e-05
4.69817e-05
4.66366e-05
4.62242e-05
4.57455e-05
4.5511e-05
4.53351e-05
4.61866e-05
5.05514e-05
4.38163e-05
3.98268e-05
3.90831e-05
3.93298e-05
3.96748e-05
3.99525e-05
4.01024e-05
4.00539e-05
3.97405e-05
3.92892e-05
3.87503e-05
3.80787e-05
3.72896e-05
3.66189e-05
3.62321e-05
3.6325e-05
3.68485e-05
3.75434e-05
3.81855e-05
3.89281e-05
3.95099e-05
3.9981e-05
4.01936e-05
4.01452e-05
4.00374e-05
3.98081e-05
3.95908e-05
3.94234e-05
4.01864e-05
4.4071e-05
3.82541e-05
3.47913e-05
3.42964e-05
3.44006e-05
3.45502e-05
3.46484e-05
3.45869e-05
3.43035e-05
3.38613e-05
3.33285e-05
3.26715e-05
3.18663e-05
3.10406e-05
3.04264e-05
3.00657e-05
3.01314e-05
3.05803e-05
3.12697e-05
3.20066e-05
3.28374e-05
3.35497e-05
3.4116e-05
3.44835e-05
3.46539e-05
3.46711e-05
3.45802e-05
3.44423e-05
3.43921e-05
3.51029e-05
3.84404e-05
3.33538e-05
3.0624e-05
3.01274e-05
3.00895e-05
3.01151e-05
3.00661e-05
2.98572e-05
2.94929e-05
2.90332e-05
2.84254e-05
2.76818e-05
2.68845e-05
2.61427e-05
2.55729e-05
2.52011e-05
2.52285e-05
2.56464e-05
2.6295e-05
2.70319e-05
2.78318e-05
2.8573e-05
2.92022e-05
2.96473e-05
2.99271e-05
3.00478e-05
3.00798e-05
3.00703e-05
3.01247e-05
3.07579e-05
3.35913e-05
2.93441e-05
2.69837e-05
2.64397e-05
2.63965e-05
2.63592e-05
2.62269e-05
2.59479e-05
2.55517e-05
2.50458e-05
2.4401e-05
2.36753e-05
2.29497e-05
2.22733e-05
2.17079e-05
2.13298e-05
2.13337e-05
2.17121e-05
2.22954e-05
2.29927e-05
2.37515e-05
2.44852e-05
2.51304e-05
2.56157e-05
2.59496e-05
2.61702e-05
2.63137e-05
2.64015e-05
2.65041e-05
2.70443e-05
2.94374e-05
2.57444e-05
2.37309e-05
2.33585e-05
2.329e-05
2.316e-05
2.29389e-05
2.26242e-05
2.22259e-05
2.17279e-05
2.11291e-05
2.04697e-05
1.97954e-05
1.91483e-05
1.86028e-05
1.82586e-05
1.8259e-05
1.85889e-05
1.9109e-05
1.97536e-05
2.0464e-05
2.11587e-05
2.17735e-05
2.22695e-05
2.26473e-05
2.29367e-05
2.31526e-05
2.32971e-05
2.34201e-05
2.38829e-05
2.58783e-05
2.26688e-05
2.11593e-05
2.08271e-05
2.06374e-05
2.0425e-05
2.01711e-05
1.9867e-05
1.94829e-05
1.90183e-05
1.84761e-05
1.78684e-05
1.72283e-05
1.66124e-05
1.61071e-05
1.58033e-05
1.57979e-05
1.60798e-05
1.65521e-05
1.7156e-05
1.7825e-05
1.84783e-05
1.90555e-05
1.95357e-05
1.99247e-05
2.02422e-05
2.04907e-05
2.06655e-05
2.081e-05
2.12202e-05
2.28569e-05
2.02229e-05
1.90417e-05
1.86194e-05
1.83977e-05
1.81957e-05
1.7968e-05
1.76742e-05
1.72992e-05
1.68661e-05
1.63628e-05
1.57992e-05
1.52064e-05
1.46482e-05
1.42003e-05
1.39317e-05
1.39207e-05
1.41689e-05
1.46085e-05
1.51737e-05
1.57841e-05
1.63651e-05
1.68809e-05
1.73278e-05
1.77085e-05
1.8025e-05
1.82765e-05
1.84647e-05
1.86226e-05
1.89781e-05
2.02903e-05
1.8146e-05
1.70788e-05
1.6714e-05
1.65725e-05
1.642e-05
1.62132e-05
1.59132e-05
1.55563e-05
1.51576e-05
1.46881e-05
1.41689e-05
1.36341e-05
1.31413e-05
1.27486e-05
1.2509e-05
1.24997e-05
1.27312e-05
1.31399e-05
1.36495e-05
1.4181e-05
1.46828e-05
1.51415e-05
1.55541e-05
1.59166e-05
1.62182e-05
1.64582e-05
1.664e-05
1.67854e-05
1.70718e-05
1.81081e-05
1.63154e-05
1.5408e-05
1.52106e-05
1.51123e-05
1.49641e-05
1.47478e-05
1.44611e-05
1.41513e-05
1.37962e-05
1.33711e-05
1.28996e-05
1.24189e-05
1.19789e-05
1.16266e-05
1.14112e-05
1.14099e-05
1.16292e-05
1.19981e-05
1.24399e-05
1.28942e-05
1.33345e-05
1.37522e-05
1.4136e-05
1.44714e-05
1.47452e-05
1.49569e-05
1.51119e-05
1.52307e-05
1.54566e-05
1.62794e-05
1.47431e-05
1.4107e-05
1.39636e-05
1.38442e-05
1.36987e-05
1.35013e-05
1.32704e-05
1.30137e-05
1.26931e-05
1.23086e-05
1.18882e-05
1.14683e-05
1.10852e-05
1.07716e-05
1.0577e-05
1.05797e-05
1.07784e-05
1.11001e-05
1.14794e-05
1.18744e-05
1.22679e-05
1.26453e-05
1.29896e-05
1.3283e-05
1.3518e-05
1.36974e-05
1.38291e-05
1.39326e-05
1.41187e-05
1.47708e-05
1.34929e-05
1.30433e-05
1.28695e-05
1.27622e-05
1.26543e-05
1.25014e-05
1.23171e-05
1.20793e-05
1.1778e-05
1.14357e-05
1.10801e-05
1.07327e-05
1.0406e-05
1.01239e-05
9.94598e-06
9.94889e-06
1.01281e-05
1.04115e-05
1.07407e-05
1.10829e-05
1.14227e-05
1.17459e-05
1.20384e-05
1.22884e-05
1.2492e-05
1.26515e-05
1.27721e-05
1.2867e-05
1.30193e-05
1.3524e-05
1.25137e-05
1.20991e-05
1.19561e-05
1.19022e-05
1.18198e-05
1.16886e-05
1.1514e-05
1.12837e-05
1.10188e-05
1.07412e-05
1.04632e-05
1.01824e-05
9.89708e-06
9.63864e-06
9.47872e-06
9.48462e-06
9.64473e-06
9.88991e-06
1.01685e-05
1.04552e-05
1.0739e-05
1.10107e-05
1.12595e-05
1.14767e-05
1.16574e-05
1.18006e-05
1.19081e-05
1.19891e-05
1.21066e-05
1.24842e-05
1.16334e-05
1.12968e-05
1.12357e-05
1.1201e-05
1.11087e-05
1.09818e-05
1.08159e-05
1.06187e-05
1.04118e-05
1.02016e-05
9.98359e-06
9.74426e-06
9.48946e-06
9.26282e-06
9.12914e-06
9.13562e-06
9.26715e-06
9.46814e-06
9.69987e-06
9.94429e-06
1.01899e-05
1.04264e-05
1.06428e-05
1.08303e-05
1.09836e-05
1.11022e-05
1.11887e-05
1.12522e-05
1.13417e-05
1.16199e-05
1.0879e-05
1.06989e-05
1.06677e-05
1.06043e-05
1.05082e-05
1.03984e-05
1.02627e-05
1.01115e-05
9.94924e-06
9.7756e-06
9.58382e-06
9.36942e-06
9.15093e-06
8.96857e-06
8.86298e-06
8.86268e-06
8.96181e-06
9.12541e-06
9.32537e-06
9.54316e-06
9.76394e-06
9.97301e-06
1.01578e-05
1.03103e-05
1.04294e-05
1.05188e-05
1.0584e-05
1.06344e-05
1.07053e-05
1.09143e-05
1.03495e-05
1.02572e-05
1.01915e-05
1.01104e-05
1.0038e-05
9.95514e-06
9.85294e-06
9.73218e-06
9.59284e-06
9.43799e-06
9.2667e-06
9.08455e-06
8.91151e-06
8.7722e-06
8.68496e-06
8.67281e-06
8.74365e-06
8.87845e-06
9.05314e-06
9.24598e-06
9.43752e-06
9.61166e-06
9.75886e-06
9.87695e-06
9.96763e-06
1.00369e-05
1.0091e-05
1.01361e-05
1.0194e-05
1.03458e-05
9.94506e-06
9.84404e-06
9.76681e-06
9.71527e-06
9.67137e-06
9.61088e-06
9.53169e-06
9.42982e-06
9.31058e-06
9.17949e-06
9.03725e-06
8.89228e-06
8.75974e-06
8.64946e-06
8.57019e-06
8.5493e-06
8.60078e-06
8.71068e-06
8.85655e-06
9.01546e-06
9.16894e-06
9.30598e-06
9.42172e-06
9.51697e-06
9.5945e-06
9.65734e-06
9.7079e-06
9.74807e-06
9.79022e-06
9.8896e-06
9.55796e-06
9.46859e-06
9.42879e-06
9.4135e-06
9.386e-06
9.33858e-06
9.27016e-06
9.18288e-06
9.08495e-06
8.9766e-06
8.85827e-06
8.7401e-06
8.63216e-06
8.53716e-06
8.46609e-06
8.44679e-06
8.49077e-06
8.58229e-06
8.69955e-06
8.82344e-06
8.94257e-06
9.05289e-06
9.15241e-06
9.23899e-06
9.3118e-06
9.37028e-06
9.41393e-06
9.44346e-06
9.46644e-06
9.5215e-06
9.22582e-06
9.18945e-06
9.19399e-06
9.18988e-06
9.16257e-06
9.11686e-06
9.05373e-06
8.9823e-06
8.9034e-06
8.80993e-06
8.70616e-06
8.60511e-06
8.51196e-06
8.42919e-06
8.36989e-06
8.3597e-06
8.40487e-06
8.4842e-06
8.57826e-06
8.67563e-06
8.77165e-06
8.86526e-06
8.95348e-06
9.03167e-06
9.09575e-06
9.14279e-06
9.17221e-06
9.18597e-06
9.18974e-06
9.21169e-06
8.98746e-06