/*--------------------------------*- C++ -*----------------------------------*\
| =========                 |                                                 |
| \\      /  F ield         | OpenFOAM: The Open Source CFD Toolbox           |
|  \\    /   O peration     | Version:  2312                                  |
|   \\  /    A nd           | Website:  www.openfoam.com                      |
|    \\/     M anipulation  |                                                 |
\*---------------------------------------------------------------------------*/
FoamFile
{
    version     2.0;
    format      ascii;
    arch        "LSB;label=32;scalar=64";
    class       volScalarField;
    location    "1.4126785425";
    object      k;
}
// * * * * * * * * * * * * * * * * * * * * * * * * * * * * * * * * * * * * * //

dimensions      [0 2 -2 0 0 0 0];

internalField   nonuniform List<scalar> 
90000
(
2.07065e-05
2.07115e-05
2.07126e-05
2.0713e-05
2.07135e-05
2.07137e-05
2.07138e-05
2.07138e-05
2.07136e-05
2.07131e-05
2.07122e-05
2.07111e-05
2.07102e-05
2.07101e-05
2.07107e-05
2.07111e-05
2.07113e-05
2.07118e-05
2.07127e-05
2.07128e-05
2.07117e-05
2.07108e-05
2.0713e-05
2.07174e-05
2.07211e-05
2.07225e-05
2.07207e-05
2.07188e-05
2.0727e-05
2.07422e-05
2.07146e-05
2.08233e-05
2.08337e-05
2.08338e-05
2.08335e-05
2.08334e-05
2.08336e-05
2.08338e-05
2.08339e-05
2.08338e-05
2.0834e-05
2.08345e-05
2.0835e-05
2.08353e-05
2.08353e-05
2.08349e-05
2.08345e-05
2.08342e-05
2.0834e-05
2.08337e-05
2.08343e-05
2.08355e-05
2.08366e-05
2.08369e-05
2.08361e-05
2.08352e-05
2.08377e-05
2.08452e-05
2.08407e-05
2.0765e-05
2.07145e-05
2.08347e-05
2.08469e-05
2.08474e-05
2.08474e-05
2.08476e-05
2.08479e-05
2.0848e-05
2.08477e-05
2.08471e-05
2.08473e-05
2.08483e-05
2.08498e-05
2.08509e-05
2.08509e-05
2.08497e-05
2.08477e-05
2.0846e-05
2.08474e-05
2.08495e-05
2.08509e-05
2.0851e-05
2.08502e-05
2.08491e-05
2.08499e-05
2.08522e-05
2.08542e-05
2.08615e-05
2.0871e-05
2.07563e-05
2.07133e-05
2.08348e-05
2.08481e-05
2.08492e-05
2.08496e-05
2.085e-05
2.08505e-05
2.08507e-05
2.08505e-05
2.08497e-05
2.0849e-05
2.08494e-05
2.08502e-05
2.08509e-05
2.08507e-05
2.08495e-05
2.0848e-05
2.08482e-05
2.08505e-05
2.0852e-05
2.08521e-05
2.0851e-05
2.08511e-05
2.08542e-05
2.08571e-05
2.08594e-05
2.08629e-05
2.08632e-05
2.08674e-05
2.07358e-05
2.07127e-05
2.08344e-05
2.08481e-05
2.08493e-05
2.08497e-05
2.085e-05
2.08503e-05
2.08505e-05
2.08508e-05
2.08506e-05
2.08502e-05
2.08495e-05
2.08487e-05
2.08479e-05
2.08477e-05
2.08488e-05
2.08503e-05
2.08515e-05
2.08517e-05
2.0851e-05
2.08499e-05
2.08504e-05
2.08534e-05
2.08565e-05
2.08585e-05
2.08583e-05
2.08572e-05
2.08584e-05
2.08497e-05
2.07247e-05
2.0713e-05
2.08346e-05
2.08476e-05
2.08486e-05
2.08489e-05
2.08488e-05
2.08489e-05
2.08491e-05
2.08497e-05
2.08503e-05
2.08507e-05
2.0851e-05
2.08509e-05
2.08501e-05
2.08492e-05
2.08498e-05
2.0851e-05
2.08516e-05
2.08512e-05
2.08503e-05
2.08502e-05
2.08514e-05
2.08532e-05
2.08545e-05
2.08551e-05
2.08546e-05
2.08521e-05
2.08584e-05
2.08457e-05
2.07234e-05
2.07137e-05
2.08351e-05
2.08478e-05
2.08491e-05
2.08498e-05
2.08502e-05
2.085e-05
2.08495e-05
2.08491e-05
2.08495e-05
2.08508e-05
2.08524e-05
2.08535e-05
2.08537e-05
2.08524e-05
2.08502e-05
2.08488e-05
2.0849e-05
2.085e-05
2.0851e-05
2.08517e-05
2.0852e-05
2.08516e-05
2.08503e-05
2.08495e-05
2.08522e-05
2.08563e-05
2.08632e-05
2.08506e-05
2.07222e-05
2.07137e-05
2.0837e-05
2.085e-05
2.08518e-05
2.08531e-05
2.0854e-05
2.08542e-05
2.08533e-05
2.08512e-05
2.08491e-05
2.085e-05
2.08521e-05
2.0854e-05
2.08547e-05
2.08535e-05
2.08507e-05
2.08472e-05
2.08466e-05
2.08492e-05
2.08512e-05
2.08521e-05
2.08517e-05
2.08502e-05
2.08486e-05
2.08497e-05
2.08546e-05
2.08595e-05
2.08626e-05
2.08481e-05
2.07192e-05
2.07146e-05
2.08402e-05
2.0853e-05
2.08547e-05
2.08562e-05
2.08571e-05
2.08573e-05
2.08565e-05
2.08547e-05
2.08521e-05
2.08502e-05
2.08509e-05
2.08519e-05
2.08528e-05
2.0853e-05
2.08524e-05
2.08512e-05
2.08503e-05
2.08506e-05
2.08515e-05
2.08518e-05
2.08511e-05
2.08496e-05
2.0849e-05
2.08515e-05
2.08559e-05
2.0859e-05
2.08585e-05
2.08431e-05
2.07163e-05
2.07193e-05
2.08422e-05
2.08542e-05
2.08554e-05
2.08563e-05
2.08567e-05
2.08569e-05
2.08568e-05
2.08563e-05
2.08554e-05
2.08536e-05
2.08511e-05
2.08494e-05
2.08498e-05
2.08519e-05
2.08543e-05
2.08559e-05
2.08564e-05
2.0856e-05
2.08552e-05
2.0854e-05
2.08523e-05
2.08503e-05
2.08493e-05
2.08518e-05
2.08544e-05
2.08551e-05
2.08531e-05
2.0839e-05
2.07148e-05
2.07231e-05
2.08428e-05
2.08537e-05
2.08543e-05
2.08538e-05
2.08529e-05
2.08524e-05
2.08531e-05
2.08545e-05
2.08555e-05
2.08551e-05
2.08532e-05
2.08503e-05
2.0849e-05
2.0851e-05
2.08547e-05
2.08581e-05
2.08605e-05
2.08615e-05
2.08608e-05
2.08588e-05
2.08559e-05
2.08527e-05
2.08507e-05
2.08516e-05
2.08525e-05
2.08529e-05
2.08518e-05
2.08387e-05
2.07161e-05
2.07226e-05
2.08457e-05
2.08557e-05
2.08553e-05
2.08538e-05
2.08519e-05
2.08506e-05
2.08508e-05
2.0852e-05
2.08533e-05
2.08539e-05
2.08536e-05
2.08521e-05
2.08495e-05
2.0849e-05
2.08534e-05
2.08585e-05
2.08624e-05
2.08641e-05
2.08636e-05
2.08612e-05
2.08577e-05
2.08538e-05
2.08506e-05
2.08507e-05
2.08522e-05
2.08533e-05
2.08528e-05
2.08414e-05
2.0718e-05
2.07209e-05
2.08486e-05
2.08588e-05
2.08592e-05
2.08603e-05
2.08613e-05
2.08619e-05
2.08612e-05
2.08588e-05
2.08552e-05
2.08537e-05
2.08548e-05
2.08554e-05
2.08549e-05
2.08542e-05
2.08554e-05
2.08578e-05
2.08597e-05
2.08604e-05
2.086e-05
2.08585e-05
2.08562e-05
2.08533e-05
2.08508e-05
2.08512e-05
2.08527e-05
2.08536e-05
2.0854e-05
2.08427e-05
2.0719e-05
2.07289e-05
2.08476e-05
2.08607e-05
2.08639e-05
2.08684e-05
2.08718e-05
2.08726e-05
2.08701e-05
2.08649e-05
2.08586e-05
2.08543e-05
2.08555e-05
2.08585e-05
2.08609e-05
2.08619e-05
2.08613e-05
2.08589e-05
2.08553e-05
2.08526e-05
2.08525e-05
2.08537e-05
2.08543e-05
2.08538e-05
2.08528e-05
2.08527e-05
2.08531e-05
2.08541e-05
2.08551e-05
2.0843e-05
2.07204e-05
2.07368e-05
2.08427e-05
2.08643e-05
2.08707e-05
2.08752e-05
2.08765e-05
2.08745e-05
2.08695e-05
2.08631e-05
2.08569e-05
2.08526e-05
2.08542e-05
2.08589e-05
2.08631e-05
2.0865e-05
2.08641e-05
2.08606e-05
2.08553e-05
2.08503e-05
2.08484e-05
2.0851e-05
2.08537e-05
2.08551e-05
2.08549e-05
2.08541e-05
2.08546e-05
2.08573e-05
2.08587e-05
2.08478e-05
2.07254e-05
2.07376e-05
2.08551e-05
2.08717e-05
2.08748e-05
2.08748e-05
2.08717e-05
2.08664e-05
2.08611e-05
2.08569e-05
2.08536e-05
2.08511e-05
2.08529e-05
2.08579e-05
2.08623e-05
2.08644e-05
2.08639e-05
2.08617e-05
2.08582e-05
2.08542e-05
2.08512e-05
2.08514e-05
2.08537e-05
2.08555e-05
2.08558e-05
2.0856e-05
2.08579e-05
2.08608e-05
2.08631e-05
2.08543e-05
2.07292e-05
2.07314e-05
2.08678e-05
2.08767e-05
2.08745e-05
2.08693e-05
2.08624e-05
2.08562e-05
2.08548e-05
2.08554e-05
2.08545e-05
2.08533e-05
2.08548e-05
2.08581e-05
2.0861e-05
2.08625e-05
2.08629e-05
2.08621e-05
2.086e-05
2.08571e-05
2.08544e-05
2.08531e-05
2.08536e-05
2.08548e-05
2.08558e-05
2.08573e-05
2.08599e-05
2.08626e-05
2.08646e-05
2.08535e-05
2.07273e-05
2.07283e-05
2.08733e-05
2.08788e-05
2.0874e-05
2.08676e-05
2.08614e-05
2.08578e-05
2.08567e-05
2.08564e-05
2.08557e-05
2.08561e-05
2.08566e-05
2.08572e-05
2.08581e-05
2.08592e-05
2.08602e-05
2.08606e-05
2.086e-05
2.08585e-05
2.08566e-05
2.08546e-05
2.08546e-05
2.08558e-05
2.0857e-05
2.08592e-05
2.08616e-05
2.0863e-05
2.08627e-05
2.08492e-05
2.07251e-05
2.07354e-05
2.08744e-05
2.08806e-05
2.08761e-05
2.08709e-05
2.08667e-05
2.08639e-05
2.08613e-05
2.08585e-05
2.08566e-05
2.08555e-05
2.08545e-05
2.0854e-05
2.0854e-05
2.08545e-05
2.08558e-05
2.08574e-05
2.08583e-05
2.0858e-05
2.08567e-05
2.08553e-05
2.08556e-05
2.08568e-05
2.08603e-05
2.0864e-05
2.08651e-05
2.08644e-05
2.08626e-05
2.08495e-05
2.07265e-05
2.07427e-05
2.0874e-05
2.08816e-05
2.08778e-05
2.08735e-05
2.08706e-05
2.08683e-05
2.08658e-05
2.08628e-05
2.08598e-05
2.08572e-05
2.08547e-05
2.08524e-05
2.08505e-05
2.08506e-05
2.08529e-05
2.08554e-05
2.08566e-05
2.08567e-05
2.08562e-05
2.08561e-05
2.08587e-05
2.08641e-05
2.08687e-05
2.08699e-05
2.08686e-05
2.08676e-05
2.08673e-05
2.08573e-05
2.07329e-05
2.07485e-05
2.08722e-05
2.0881e-05
2.08782e-05
2.08759e-05
2.08744e-05
2.08728e-05
2.08704e-05
2.08674e-05
2.0864e-05
2.08604e-05
2.08563e-05
2.08526e-05
2.08518e-05
2.08538e-05
2.08561e-05
2.08573e-05
2.08575e-05
2.08579e-05
2.08595e-05
2.08633e-05
2.08688e-05
2.08727e-05
2.08727e-05
2.08699e-05
2.08683e-05
2.08687e-05
2.08702e-05
2.08608e-05
2.07362e-05
2.07524e-05
2.08706e-05
2.08816e-05
2.08806e-05
2.08797e-05
2.08786e-05
2.08766e-05
2.08738e-05
2.08704e-05
2.08664e-05
2.08617e-05
2.08571e-05
2.08563e-05
2.08586e-05
2.08595e-05
2.08587e-05
2.08576e-05
2.08583e-05
2.08613e-05
2.08666e-05
2.08727e-05
2.08765e-05
2.08756e-05
2.0872e-05
2.08709e-05
2.08716e-05
2.08732e-05
2.08743e-05
2.08629e-05
2.07407e-05
2.07545e-05
2.08713e-05
2.08847e-05
2.08852e-05
2.08843e-05
2.08822e-05
2.08792e-05
2.08757e-05
2.0872e-05
2.08677e-05
2.08632e-05
2.08612e-05
2.08618e-05
2.08606e-05
2.08577e-05
2.08555e-05
2.08561e-05
2.086e-05
2.08665e-05
2.08736e-05
2.08783e-05
2.08782e-05
2.08752e-05
2.08747e-05
2.08762e-05
2.08785e-05
2.08806e-05
2.08806e-05
2.08684e-05
2.07475e-05
2.07575e-05
2.08772e-05
2.08909e-05
2.08912e-05
2.08892e-05
2.0886e-05
2.08826e-05
2.08793e-05
2.08757e-05
2.08714e-05
2.08672e-05
2.08654e-05
2.08631e-05
2.08585e-05
2.08543e-05
2.08548e-05
2.08579e-05
2.08639e-05
2.08721e-05
2.08779e-05
2.08792e-05
2.08779e-05
2.08791e-05
2.08819e-05
2.08851e-05
2.08884e-05
2.08899e-05
2.08899e-05
2.08769e-05
2.07572e-05
2.07669e-05
2.08874e-05
2.08999e-05
2.0899e-05
2.0896e-05
2.08927e-05
2.08898e-05
2.08867e-05
2.08827e-05
2.08776e-05
2.08725e-05
2.08685e-05
2.08634e-05
2.08583e-05
2.08573e-05
2.08578e-05
2.08609e-05
2.08685e-05
2.0875e-05
2.08775e-05
2.08785e-05
2.0883e-05
2.08874e-05
2.0891e-05
2.08955e-05
2.08985e-05
2.09e-05
2.09008e-05
2.08895e-05
2.07712e-05
2.0782e-05
2.0901e-05
2.09122e-05
2.09102e-05
2.09069e-05
2.09037e-05
2.09006e-05
2.08967e-05
2.08915e-05
2.08855e-05
2.08794e-05
2.0873e-05
2.08671e-05
2.08638e-05
2.08612e-05
2.08598e-05
2.08635e-05
2.08698e-05
2.08743e-05
2.08792e-05
2.08862e-05
2.08919e-05
2.0896e-05
2.09008e-05
2.09053e-05
2.09087e-05
2.09113e-05
2.09147e-05
2.09084e-05
2.07831e-05
2.08017e-05
2.09177e-05
2.0928e-05
2.09252e-05
2.09216e-05
2.09178e-05
2.09134e-05
2.09078e-05
2.09013e-05
2.08941e-05
2.08867e-05
2.088e-05
2.08753e-05
2.08713e-05
2.08659e-05
2.08631e-05
2.08658e-05
2.08722e-05
2.08807e-05
2.08894e-05
2.08958e-05
2.09009e-05
2.09066e-05
2.09122e-05
2.09171e-05
2.09228e-05
2.09272e-05
2.09319e-05
2.09232e-05
2.07977e-05
2.08238e-05
2.09372e-05
2.09471e-05
2.09437e-05
2.09391e-05
2.09338e-05
2.09274e-05
2.09202e-05
2.09125e-05
2.09047e-05
2.08973e-05
2.08918e-05
2.08867e-05
2.08797e-05
2.08719e-05
2.08692e-05
2.08738e-05
2.08828e-05
2.08924e-05
2.09003e-05
2.09067e-05
2.09138e-05
2.09207e-05
2.09271e-05
2.09337e-05
2.09418e-05
2.09478e-05
2.09488e-05
2.09381e-05
2.08198e-05
2.08476e-05
2.09598e-05
2.09688e-05
2.09648e-05
2.09594e-05
2.09528e-05
2.09451e-05
2.09368e-05
2.09282e-05
2.09197e-05
2.09123e-05
2.09057e-05
2.08973e-05
2.08872e-05
2.08786e-05
2.08773e-05
2.08841e-05
2.08941e-05
2.09041e-05
2.0913e-05
2.09211e-05
2.09298e-05
2.09384e-05
2.09473e-05
2.09552e-05
2.09648e-05
2.09712e-05
2.09695e-05
2.09606e-05
2.08482e-05
2.08746e-05
2.09863e-05
2.09951e-05
2.09907e-05
2.09844e-05
2.09769e-05
2.09684e-05
2.0959e-05
2.09489e-05
2.09386e-05
2.09294e-05
2.09193e-05
2.09072e-05
2.08948e-05
2.08861e-05
2.08862e-05
2.08944e-05
2.09051e-05
2.09163e-05
2.09276e-05
2.09382e-05
2.09492e-05
2.09609e-05
2.09721e-05
2.09803e-05
2.09898e-05
2.09972e-05
2.09975e-05
2.09931e-05
2.08784e-05
2.09077e-05
2.10195e-05
2.10282e-05
2.10231e-05
2.10157e-05
2.10069e-05
2.0997e-05
2.09861e-05
2.09739e-05
2.09611e-05
2.09483e-05
2.09343e-05
2.09192e-05
2.09054e-05
2.08964e-05
2.08969e-05
2.09061e-05
2.09182e-05
2.09315e-05
2.0946e-05
2.09605e-05
2.09744e-05
2.09884e-05
2.10005e-05
2.10091e-05
2.10174e-05
2.10278e-05
2.10343e-05
2.10276e-05
2.0912e-05
2.09491e-05
2.10608e-05
2.10685e-05
2.10622e-05
2.10533e-05
2.10429e-05
2.10314e-05
2.10185e-05
2.10039e-05
2.09879e-05
2.09712e-05
2.09538e-05
2.09363e-05
2.09209e-05
2.09105e-05
2.09106e-05
2.0921e-05
2.09364e-05
2.09529e-05
2.09699e-05
2.09882e-05
2.10049e-05
2.10188e-05
2.10325e-05
2.10428e-05
2.1052e-05
2.10658e-05
2.10753e-05
2.10655e-05
2.09533e-05
2.09996e-05
2.111e-05
2.11165e-05
2.11092e-05
2.10987e-05
2.10863e-05
2.10725e-05
2.10572e-05
2.10399e-05
2.10205e-05
2.09998e-05
2.09791e-05
2.09591e-05
2.09417e-05
2.09294e-05
2.0929e-05
2.09409e-05
2.09603e-05
2.09801e-05
2.09997e-05
2.10212e-05
2.1039e-05
2.10542e-05
2.10712e-05
2.10852e-05
2.10963e-05
2.1112e-05
2.11207e-05
2.11118e-05
2.10034e-05
2.10607e-05
2.11692e-05
2.11749e-05
2.11665e-05
2.11539e-05
2.11389e-05
2.11224e-05
2.11039e-05
2.10832e-05
2.10605e-05
2.10364e-05
2.10124e-05
2.09891e-05
2.09681e-05
2.09535e-05
2.09535e-05
2.09668e-05
2.09892e-05
2.10132e-05
2.10361e-05
2.10594e-05
2.1081e-05
2.11e-05
2.11203e-05
2.11374e-05
2.11519e-05
2.11671e-05
2.11754e-05
2.11689e-05
2.10635e-05
2.11348e-05
2.12416e-05
2.12462e-05
2.12357e-05
2.12204e-05
2.12023e-05
2.11825e-05
2.11604e-05
2.11363e-05
2.11101e-05
2.10825e-05
2.10543e-05
2.10261e-05
2.10007e-05
2.09838e-05
2.09857e-05
2.10008e-05
2.10254e-05
2.10541e-05
2.10809e-05
2.1108e-05
2.11366e-05
2.11582e-05
2.11805e-05
2.12021e-05
2.12202e-05
2.12337e-05
2.12431e-05
2.12386e-05
2.11361e-05
2.1225e-05
2.13288e-05
2.13311e-05
2.13178e-05
2.12998e-05
2.12789e-05
2.12561e-05
2.12305e-05
2.12026e-05
2.11723e-05
2.114e-05
2.11068e-05
2.10735e-05
2.10446e-05
2.10253e-05
2.10286e-05
2.10471e-05
2.10742e-05
2.11073e-05
2.11397e-05
2.11719e-05
2.12052e-05
2.12305e-05
2.12553e-05
2.1283e-05
2.13011e-05
2.13149e-05
2.13259e-05
2.13242e-05
2.12248e-05
2.13337e-05
2.1432e-05
2.14316e-05
2.14164e-05
2.13968e-05
2.13738e-05
2.13476e-05
2.13181e-05
2.12859e-05
2.1251e-05
2.12134e-05
2.11748e-05
2.11371e-05
2.11056e-05
2.10838e-05
2.10859e-05
2.11076e-05
2.11381e-05
2.11763e-05
2.12164e-05
2.12517e-05
2.12892e-05
2.1319e-05
2.13489e-05
2.13788e-05
2.13985e-05
2.14145e-05
2.14289e-05
2.14298e-05
2.1334e-05
2.14632e-05
2.15555e-05
2.15541e-05
2.15382e-05
2.15167e-05
2.14904e-05
2.146e-05
2.1426e-05
2.1389e-05
2.13488e-05
2.13054e-05
2.12616e-05
2.12193e-05
2.11848e-05
2.11605e-05
2.1159e-05
2.11836e-05
2.122e-05
2.12644e-05
2.13104e-05
2.135e-05
2.13908e-05
2.14276e-05
2.14616e-05
2.14932e-05
2.15171e-05
2.15374e-05
2.1555e-05
2.15573e-05
2.14665e-05
2.1618e-05
2.17074e-05
2.17048e-05
2.16863e-05
2.16611e-05
2.16304e-05
2.15956e-05
2.15569e-05
2.15144e-05
2.14683e-05
2.14198e-05
2.13711e-05
2.13236e-05
2.12828e-05
2.12558e-05
2.12519e-05
2.12802e-05
2.13245e-05
2.13745e-05
2.14239e-05
2.14687e-05
2.15145e-05
2.15589e-05
2.15971e-05
2.16313e-05
2.16606e-05
2.16844e-05
2.17042e-05
2.17101e-05
2.16245e-05
2.18066e-05
2.18921e-05
2.1885e-05
2.18627e-05
2.18343e-05
2.18005e-05
2.17614e-05
2.17172e-05
2.16689e-05
2.1617e-05
2.15636e-05
2.15085e-05
2.14555e-05
2.14064e-05
2.1377e-05
2.13747e-05
2.1406e-05
2.14555e-05
2.15103e-05
2.15635e-05
2.16159e-05
2.16694e-05
2.17188e-05
2.17614e-05
2.17993e-05
2.18344e-05
2.18615e-05
2.18844e-05
2.18955e-05
2.18099e-05
2.20331e-05
2.21121e-05
2.21013e-05
2.2078e-05
2.20474e-05
2.20089e-05
2.19638e-05
2.19145e-05
2.1862e-05
2.18045e-05
2.17448e-05
2.16822e-05
2.1626e-05
2.15698e-05
2.15354e-05
2.1535e-05
2.15689e-05
2.16224e-05
2.16841e-05
2.17435e-05
2.18037e-05
2.18627e-05
2.19152e-05
2.19632e-05
2.2007e-05
2.20465e-05
2.20785e-05
2.21044e-05
2.21173e-05
2.20316e-05
2.23043e-05
2.23822e-05
2.23693e-05
2.23422e-05
2.2305e-05
2.22602e-05
2.22115e-05
2.21587e-05
2.2101e-05
2.20373e-05
2.19716e-05
2.19035e-05
2.1844e-05
2.17819e-05
2.17389e-05
2.17419e-05
2.17833e-05
2.18397e-05
2.19063e-05
2.19717e-05
2.20375e-05
2.21004e-05
2.21583e-05
2.22128e-05
2.22613e-05
2.23031e-05
2.23409e-05
2.23715e-05
2.23878e-05
2.23023e-05
2.26365e-05
2.27192e-05
2.26952e-05
2.26598e-05
2.2618e-05
2.25705e-05
2.25182e-05
2.24586e-05
2.23939e-05
2.23273e-05
2.22587e-05
2.21869e-05
2.21197e-05
2.20544e-05
2.20085e-05
2.20122e-05
2.20583e-05
2.21179e-05
2.21869e-05
2.22587e-05
2.23293e-05
2.23949e-05
2.24576e-05
2.25174e-05
2.2572e-05
2.26188e-05
2.26602e-05
2.26974e-05
2.27196e-05
2.26297e-05
2.30485e-05
2.31377e-05
2.3098e-05
2.30591e-05
2.30132e-05
2.2958e-05
2.2899e-05
2.28335e-05
2.27642e-05
2.26978e-05
2.26282e-05
2.25582e-05
2.24934e-05
2.2431e-05
2.23908e-05
2.23945e-05
2.24341e-05
2.24936e-05
2.25592e-05
2.26268e-05
2.2697e-05
2.27669e-05
2.28344e-05
2.28954e-05
2.29544e-05
2.30141e-05
2.30615e-05
2.31039e-05
2.31364e-05
2.3034e-05
2.35735e-05
2.37043e-05
2.36466e-05
2.36018e-05
2.3537e-05
2.34682e-05
2.34048e-05
2.33344e-05
2.32685e-05
2.32208e-05
2.31801e-05
2.31712e-05
2.31993e-05
2.32203e-05
2.32529e-05
2.32793e-05
2.3233e-05
2.31948e-05
2.31783e-05
2.31841e-05
2.32198e-05
2.327e-05
2.3336e-05
2.34029e-05
2.34636e-05
2.35375e-05
2.3603e-05
2.36476e-05
2.37072e-05
2.3556e-05
2.44007e-05
2.47525e-05
2.46134e-05
2.46432e-05
2.44747e-05
2.43482e-05
2.43313e-05
2.42624e-05
2.42425e-05
2.43914e-05
2.46957e-05
2.53189e-05
2.62911e-05
2.72563e-05
2.80404e-05
2.82203e-05
2.73488e-05
2.63184e-05
2.53953e-05
2.47082e-05
2.44107e-05
2.42501e-05
2.42529e-05
2.43341e-05
2.43421e-05
2.44671e-05
2.46568e-05
2.46183e-05
2.47641e-05
2.43737e-05
2.66811e-05
2.80987e-05
2.75933e-05
2.86186e-05
2.75262e-05
2.71764e-05
2.78762e-05
2.77078e-05
2.81263e-05
3.00364e-05
3.3015e-05
3.86294e-05
4.71974e-05
5.51872e-05
6.06424e-05
6.14235e-05
5.591e-05
4.7428e-05
3.9302e-05
3.3196e-05
3.02246e-05
2.81978e-05
2.76774e-05
2.78773e-05
2.71624e-05
2.74967e-05
2.86665e-05
2.76046e-05
2.81788e-05
2.65808e-05
3.59157e-05
4.14784e-05
3.99259e-05
4.75543e-05
4.19769e-05
4.25513e-05
4.87839e-05
4.80878e-05
5.35312e-05
6.45739e-05
8.45314e-05
0.000117389
0.000156394
0.000191067
0.000212712
0.000214481
0.000192993
0.000157937
0.000118206
8.596e-05
6.61767e-05
5.41005e-05
4.79259e-05
4.86109e-05
4.25975e-05
4.17963e-05
4.80603e-05
3.99178e-05
4.17872e-05
3.56273e-05
7.02496e-05
8.48742e-05
9.08724e-05
0.000118744
0.000111911
0.000134087
0.000158278
0.000161289
0.000208761
0.000272219
0.000323379
0.000422221
0.000494191
0.000569421
0.000604122
0.000601908
0.000565012
0.0005059
0.000419031
0.000332001
0.000276799
0.000210912
0.00016223
0.00015649
0.000133446
0.000111001
0.000122909
9.19635e-05
8.54669e-05
6.98595e-05
0.000153044
0.00020934
0.000246942
0.000310861
0.000331094
0.000434027
0.000471917
0.000537157
0.000644406
0.000776621
0.000747728
0.000913625
0.000928246
0.00103126
0.000993489
0.00103297
0.000969464
0.000971258
0.000842786
0.000775393
0.000780439
0.000646164
0.000552245
0.000473387
0.000435232
0.000359127
0.000325509
0.000251623
0.000211762
0.000153326
0.000277484
0.000459925
0.000476098
0.000583829
0.000642236
0.000841997
0.000972089
0.00108086
0.00120093
0.0013636
0.00126211
0.00151538
0.00152103
0.00157586
0.00146461
0.00155116
0.0014754
0.00147417
0.00126105
0.0012893
0.00136748
0.00118927
0.00108893
0.000939965
0.000861342
0.000711404
0.000607591
0.000481814
0.00046172
0.000279095
0.000397913
0.000497645
0.000611802
0.000716522
0.000819164
0.00107297
0.00119144
0.00125737
0.00142399
0.00181546
0.00161831
0.0020222
0.00162735
0.00197157
0.00164691
0.00197266
0.00168049
0.0019059
0.00148439
0.00152346
0.00174833
0.00146908
0.00128092
0.00115782
0.00111467
0.000853388
0.000776694
0.000645887
0.000506305
0.000398955
0.00052945
0.000546472
0.000691641
0.000770229
0.000926406
0.00109157
0.00129142
0.00141239
0.00135557
0.00160144
0.00141639
0.00147659
0.00148564
0.00156053
0.00152439
0.00162139
0.00166586
0.00144627
0.00156357
0.00138749
0.00159365
0.00147212
0.00149959
0.00131377
0.00110476
0.000934036
0.000788344
0.000713952
0.000559611
0.000548943
0.00054973
0.000562623
0.000653088
0.000861363
0.000904191
0.0011102
0.00114669
0.00117807
0.00124776
0.00124877
0.00115503
0.00128814
0.00130903
0.00135561
0.00133499
0.00143607
0.00134748
0.00134287
0.00131788
0.00128049
0.00129504
0.0012217
0.00118321
0.0011434
0.00116248
0.000921509
0.000872036
0.000676118
0.000553241
0.000577149
0.000301221
0.000378365
0.000507107
0.000612497
0.000624791
0.000627514
0.000698018
0.000753811
0.000800778
0.000884634
0.000918229
0.00100872
0.0010567
0.00108194
0.00117002
0.00118187
0.0010881
0.00104945
0.00103024
0.000919756
0.000885323
0.000810706
0.000781141
0.000719376
0.000649432
0.000637493
0.00061965
0.000514209
0.000383933
0.000307756
0.000223358
0.000260951
0.000332321
0.000417586
0.000373219
0.000389601
0.000463832
0.000522651
0.000575203
0.000636541
0.000655303
0.000699169
0.000713552
0.000763634
0.000827735
0.000829103
0.000766863
0.000708635
0.000689646
0.000639783
0.000638296
0.000587153
0.000534828
0.000473723
0.000398626
0.000375585
0.000416842
0.00033477
0.000262704
0.0002236
0.000177268
0.000193823
0.00021677
0.000262014
0.000225665
0.000222663
0.00026941
0.000333325
0.000414366
0.000496436
0.000540162
0.000562974
0.000565642
0.000586043
0.000601936
0.000599177
0.000585656
0.00056292
0.000553446
0.000529108
0.000492892
0.00041622
0.000337173
0.000273294
0.000225407
0.000227264
0.00026264
0.000217642
0.000195616
0.000179498
0.000146492
0.000151414
0.000155665
0.000168408
0.000159499
0.000152693
0.000163745
0.000192797
0.000248754
0.000331765
0.000413497
0.000481559
0.000520143
0.000541434
0.000540079
0.000537409
0.000541557
0.00052039
0.000476496
0.000407067
0.000330069
0.000247885
0.000193838
0.00016532
0.00015426
0.000161202
0.000170205
0.000156178
0.000151977
0.000147272
0.000125766
0.000122956
0.000122996
0.000125271
0.00012396
0.000122094
0.00012499
0.000132798
0.000152734
0.000196295
0.000264884
0.00034901
0.000429253
0.000486697
0.000503501
0.000501398
0.000487274
0.000429891
0.000347292
0.000262365
0.00019508
0.000152808
0.000133125
0.000125607
0.000122729
0.000124936
0.000126059
0.000123843
0.00012382
0.000125871
0.000108765
0.00010552
0.000103949
0.000104264
0.000104069
0.000104436
0.000105842
0.00010887
0.000114896
0.000128533
0.000158829
0.000212327
0.000283891
0.000355888
0.000398183
0.000395571
0.000355845
0.000285179
0.000211858
0.000158371
0.000128529
0.000115065
0.00010899
0.000106154
0.000104714
0.000104236
0.000104653
0.000104445
0.000105945
0.000109589
9.67841e-05
9.29695e-05
9.18838e-05
9.18801e-05
9.21261e-05
9.29743e-05
9.40297e-05
9.56272e-05
9.79001e-05
0.000101741
0.000110034
0.000128223
0.000160837
0.000203101
0.000239575
0.000238839
0.000202794
0.000161031
0.000128331
0.000110107
0.000101825
9.77732e-05
9.59081e-05
9.42012e-05
9.32233e-05
9.22642e-05
9.2124e-05
9.22586e-05
9.3564e-05
9.71948e-05
8.74307e-05
8.33257e-05
8.24881e-05
8.25271e-05
8.30034e-05
8.38546e-05
8.47985e-05
8.58775e-05
8.68908e-05
8.81106e-05
8.99416e-05
9.38813e-05
0.000101954
0.000114746
0.000127838
0.00012782
0.000114716
0.000101944
9.41403e-05
9.00671e-05
8.84356e-05
8.68909e-05
8.60923e-05
8.4915e-05
8.3951e-05
8.33278e-05
8.25773e-05
8.28817e-05
8.38092e-05
8.77464e-05
7.95462e-05
7.54025e-05
7.45019e-05
7.4567e-05
7.52674e-05
7.60117e-05
7.66736e-05
7.73349e-05
7.78251e-05
7.81627e-05
7.83595e-05
7.88382e-05
7.98043e-05
8.18179e-05
8.41497e-05
8.40923e-05
8.19441e-05
7.99078e-05
7.90752e-05
7.84191e-05
7.82769e-05
7.78641e-05
7.74843e-05
7.68303e-05
7.59693e-05
7.54693e-05
7.48288e-05
7.48769e-05
7.58346e-05
7.99477e-05
7.26767e-05
6.84588e-05
6.77077e-05
6.78714e-05
6.84316e-05
6.89774e-05
6.93628e-05
6.96501e-05
6.97504e-05
6.96161e-05
6.92615e-05
6.89325e-05
6.84885e-05
6.82367e-05
6.82116e-05
6.82147e-05
6.84037e-05
6.86237e-05
6.90815e-05
6.94468e-05
6.97432e-05
6.99061e-05
6.97802e-05
6.94417e-05
6.89522e-05
6.84041e-05
6.82188e-05
6.80828e-05
6.8894e-05
7.29287e-05
6.64175e-05
6.25335e-05
6.17199e-05
6.1852e-05
6.23634e-05
6.26923e-05
6.27789e-05
6.26977e-05
6.24527e-05
6.20422e-05
6.14717e-05
6.08311e-05
6.00753e-05
5.94217e-05
5.90156e-05
5.9054e-05
5.95507e-05
6.0227e-05
6.08683e-05
6.15865e-05
6.21905e-05
6.26915e-05
6.28439e-05
6.27362e-05
6.26723e-05
6.23654e-05
6.21929e-05
6.2018e-05
6.27471e-05
6.65757e-05
6.07354e-05
5.71134e-05
5.64625e-05
5.66158e-05
5.68947e-05
5.68925e-05
5.67776e-05
5.65209e-05
5.61002e-05
5.55023e-05
5.47564e-05
5.39174e-05
5.30144e-05
5.22857e-05
5.18625e-05
5.19511e-05
5.24499e-05
5.32274e-05
5.40222e-05
5.49092e-05
5.56793e-05
5.6292e-05
5.66761e-05
5.68627e-05
5.69164e-05
5.67912e-05
5.66328e-05
5.65623e-05
5.73168e-05
6.08356e-05
5.54334e-05
5.23523e-05
5.17951e-05
5.17974e-05
5.17789e-05
5.1688e-05
5.1487e-05
5.10929e-05
5.05454e-05
4.98123e-05
4.89603e-05
4.80524e-05
4.71325e-05
4.64042e-05
4.59654e-05
4.60179e-05
4.64917e-05
4.72607e-05
4.81352e-05
4.90849e-05
4.99697e-05
5.07029e-05
5.11958e-05
5.15441e-05
5.16957e-05
5.17099e-05
5.16882e-05
5.17648e-05
5.25152e-05
5.56602e-05
5.08351e-05
4.81288e-05
4.74937e-05
4.73864e-05
4.73256e-05
4.72131e-05
4.68676e-05
4.63561e-05
4.57367e-05
4.49529e-05
4.40694e-05
4.31628e-05
4.22678e-05
4.15323e-05
4.10637e-05
4.10647e-05
4.15241e-05
4.22793e-05
4.31781e-05
4.41215e-05
4.5026e-05
4.58302e-05
4.64219e-05
4.68477e-05
4.71174e-05
4.72691e-05
4.73737e-05
4.75268e-05
4.82017e-05
5.09616e-05
4.6595e-05
4.42041e-05
4.36664e-05
4.35474e-05
4.34298e-05
4.31442e-05
4.27255e-05
4.22157e-05
4.15797e-05
4.07886e-05
3.99197e-05
3.90302e-05
3.81537e-05
3.74182e-05
3.69517e-05
3.69317e-05
3.73686e-05
3.8099e-05
3.89867e-05
3.99172e-05
4.08153e-05
4.16186e-05
4.22554e-05
4.27386e-05
4.31017e-05
4.33671e-05
4.35586e-05
4.37347e-05
4.43224e-05
4.67271e-05
4.28405e-05
4.08797e-05
4.04139e-05
4.01999e-05
3.99272e-05
3.95531e-05
3.91626e-05
3.86543e-05
3.80126e-05
3.7259e-05
3.64394e-05
3.55693e-05
3.47001e-05
3.39736e-05
3.35304e-05
3.351e-05
3.39148e-05
3.46071e-05
3.54673e-05
3.63802e-05
3.7265e-05
3.80495e-05
3.86894e-05
3.92037e-05
3.96222e-05
3.99498e-05
4.01869e-05
4.03867e-05
4.09237e-05
4.29952e-05
3.96722e-05
3.80667e-05
3.75326e-05
3.72318e-05
3.69009e-05
3.65989e-05
3.62189e-05
3.56888e-05
3.50655e-05
3.43579e-05
3.35691e-05
3.2711e-05
3.18797e-05
3.12123e-05
3.08151e-05
3.07987e-05
3.11728e-05
3.18337e-05
3.2664e-05
3.35336e-05
3.43578e-05
3.50897e-05
3.57076e-05
3.62265e-05
3.66589e-05
3.70049e-05
3.72681e-05
3.74904e-05
3.7972e-05
3.97043e-05
3.68719e-05
3.54428e-05
3.49305e-05
3.46711e-05
3.44317e-05
3.41751e-05
3.37619e-05
3.32459e-05
3.26605e-05
3.19741e-05
3.12002e-05
3.03908e-05
2.96484e-05
2.90585e-05
2.86904e-05
2.86649e-05
2.90135e-05
2.96421e-05
3.04167e-05
3.12027e-05
3.19371e-05
3.26105e-05
3.32108e-05
3.37327e-05
3.41631e-05
3.45021e-05
3.47596e-05
3.49688e-05
3.53701e-05
3.67899e-05
3.43671e-05
3.31044e-05
3.27553e-05
3.25741e-05
3.23805e-05
3.20777e-05
3.16675e-05
3.12051e-05
3.0659e-05
3.00083e-05
2.92865e-05
2.85569e-05
2.7889e-05
2.73358e-05
2.69777e-05
2.69578e-05
2.73011e-05
2.78905e-05
2.85848e-05
2.92772e-05
2.99405e-05
3.05749e-05
3.11561e-05
3.16536e-05
3.20489e-05
3.23501e-05
3.25759e-05
3.2757e-05
3.30872e-05
3.42525e-05
3.21181e-05
3.1154e-05
3.09205e-05
3.07548e-05
3.05387e-05
3.02334e-05
2.98908e-05
2.9488e-05
2.89852e-05
2.83921e-05
2.7746e-05
2.70973e-05
2.64861e-05
2.59627e-05
2.56311e-05
2.56347e-05
2.59679e-05
2.6499e-05
2.71078e-05
2.7723e-05
2.83298e-05
2.89143e-05
2.94432e-05
2.98832e-05
3.02275e-05
3.04914e-05
3.06936e-05
3.08579e-05
3.11349e-05
3.20844e-05
3.02521e-05
2.95538e-05
2.93085e-05
2.91385e-05
2.8942e-05
2.87037e-05
2.84256e-05
2.80563e-05
2.75896e-05
2.70494e-05
2.64784e-05
2.59106e-05
2.53628e-05
2.48878e-05
2.45995e-05
2.46192e-05
2.49241e-05
2.53891e-05
2.59197e-05
2.6467e-05
2.70118e-05
2.75295e-05
2.79894e-05
2.83708e-05
2.86746e-05
2.89139e-05
2.91004e-05
2.92497e-05
2.9479e-05
3.0237e-05
2.87426e-05
2.81336e-05
2.78922e-05
2.77811e-05
2.76357e-05
2.74407e-05
2.71765e-05
2.68235e-05
2.63984e-05
2.59311e-05
2.54595e-05
2.49866e-05
2.45109e-05
2.40911e-05
2.38419e-05
2.38612e-05
2.41226e-05
2.45171e-05
2.4971e-05
2.54491e-05
2.59254e-05
2.63728e-05
2.67671e-05
2.70986e-05
2.73709e-05
2.75892e-05
2.77584e-05
2.78889e-05
2.80727e-05
2.86611e-05
2.73795e-05
2.68474e-05
2.67283e-05
2.6662e-05
2.65222e-05
2.63268e-05
2.60657e-05
2.57478e-05
2.53911e-05
2.50237e-05
2.46561e-05
2.4262e-05
2.3846e-05
2.34785e-05
2.32596e-05
2.32645e-05
2.34722e-05
2.37982e-05
2.41884e-05
2.46095e-05
2.50274e-05
2.54146e-05
2.57562e-05
2.60491e-05
2.62933e-05
2.64871e-05
2.66306e-05
2.67366e-05
2.68797e-05
2.73255e-05
2.61707e-05
2.58503e-05
2.58103e-05
2.57104e-05
2.55624e-05
2.53775e-05
2.51502e-05
2.48916e-05
2.46109e-05
2.43223e-05
2.4009e-05
2.36519e-05
2.32824e-05
2.29697e-05
2.27813e-05
2.277e-05
2.29313e-05
2.32107e-05
2.35608e-05
2.39394e-05
2.43102e-05
2.46488e-05
2.49466e-05
2.5202e-05
2.5411e-05
2.55694e-05
2.56798e-05
2.57599e-05
2.58702e-05
2.62096e-05
2.52785e-05
2.51342e-05
2.50301e-05
2.49044e-05
2.47832e-05
2.46327e-05
2.4454e-05
2.42514e-05
2.4032e-05
2.37881e-05
2.34975e-05
2.31716e-05
2.28602e-05
2.26105e-05
2.24533e-05
2.24301e-05
2.25564e-05
2.27977e-05
2.3106e-05
2.34357e-05
2.37518e-05
2.4036e-05
2.42849e-05
2.44974e-05
2.46672e-05
2.47924e-05
2.48803e-05
2.49473e-05
2.50362e-05
2.52884e-05
2.46089e-05
2.44468e-05
2.43099e-05
2.42377e-05
2.41619e-05
2.40513e-05
2.39116e-05
2.375e-05
2.35713e-05
2.33556e-05
2.30939e-05
2.2821e-05
2.25807e-05
2.2389e-05
2.22553e-05
2.22245e-05
2.23203e-05
2.25155e-05
2.27671e-05
2.30334e-05
2.32873e-05
2.35188e-05
2.37241e-05
2.38998e-05
2.4042e-05
2.41504e-05
2.42306e-05
2.42925e-05
2.43616e-05
2.45347e-05
2.39662e-05
2.37822e-05
2.37338e-05
2.37278e-05
2.36862e-05
2.36001e-05
2.34756e-05
2.33334e-05
2.31749e-05
2.29808e-05
2.27601e-05
2.25493e-05
2.23678e-05
2.22115e-05
2.20931e-05
2.20607e-05
2.21361e-05
2.22922e-05
2.24908e-05
2.27007e-05
2.29056e-05
2.30999e-05
2.32771e-05
2.34295e-05
2.35536e-05
2.365e-05
2.37216e-05
2.37731e-05
2.38165e-05
2.39185e-05
2.33849e-05
2.33032e-05
2.33494e-05
2.33589e-05
2.33149e-05
2.32232e-05
2.3102e-05
2.29773e-05
2.28389e-05
2.26726e-05
2.24975e-05
2.23375e-05
2.21895e-05
2.20491e-05
2.19409e-05
2.19159e-05
2.19888e-05
2.21238e-05
2.22868e-05
2.24581e-05
2.26286e-05
2.27937e-05
2.29453e-05