/*--------------------------------*- C++ -*----------------------------------*\
| =========                 |                                                 |
| \\      /  F ield         | OpenFOAM: The Open Source CFD Toolbox           |
|  \\    /   O peration     | Version:  2312                                  |
|   \\  /    A nd           | Website:  www.openfoam.com                      |
|    \\/     M anipulation  |                                                 |
\*---------------------------------------------------------------------------*/
FoamFile
{
    version     2.0;
    format      ascii;
    arch        "LSB;label=32;scalar=64";
    class       volScalarField;
    location    "1.4126785425";
    object      nut;
}
// * * * * * * * * * * * * * * * * * * * * * * * * * * * * * * * * * * * * * //

dimensions      [0 2 -1 0 0 0 0];

internalField   nonuniform List<scalar> 
90000
(
5.00037e-06
5.00107e-06
5.00123e-06
5.00127e-06
5.00136e-06
5.0014e-06
5.00142e-06
5.00143e-06
5.00141e-06
5.00132e-06
5.00118e-06
5.00101e-06
5.00085e-06
5.00082e-06
5.00093e-06
5.001e-06
5.00102e-06
5.00104e-06
5.00111e-06
5.00113e-06
5.00099e-06
5.00092e-06
5.0013e-06
5.00193e-06
5.00246e-06
5.00267e-06
5.00241e-06
5.0022e-06
5.00361e-06
5.00608e-06
5.00155e-06
5.01641e-06
5.01783e-06
5.01785e-06
5.0178e-06
5.01779e-06
5.01782e-06
5.01786e-06
5.01788e-06
5.0179e-06
5.01794e-06
5.01803e-06
5.01811e-06
5.01815e-06
5.01813e-06
5.01806e-06
5.01798e-06
5.01794e-06
5.01792e-06
5.01789e-06
5.01797e-06
5.01814e-06
5.01831e-06
5.01838e-06
5.01831e-06
5.01826e-06
5.01869e-06
5.01987e-06
5.01929e-06
5.00944e-06
5.00146e-06
5.01805e-06
5.01977e-06
5.01987e-06
5.01989e-06
5.01993e-06
5.01998e-06
5.02e-06
5.01994e-06
5.01986e-06
5.01989e-06
5.02005e-06
5.02027e-06
5.02042e-06
5.0204e-06
5.0202e-06
5.01988e-06
5.01963e-06
5.01984e-06
5.02015e-06
5.02034e-06
5.02035e-06
5.0202e-06
5.02e-06
5.02011e-06
5.02048e-06
5.02081e-06
5.02203e-06
5.02363e-06
5.00791e-06
5.00127e-06
5.018e-06
5.01995e-06
5.02014e-06
5.02024e-06
5.02033e-06
5.02043e-06
5.02047e-06
5.02043e-06
5.0203e-06
5.02017e-06
5.02019e-06
5.02028e-06
5.02037e-06
5.02032e-06
5.02013e-06
5.01987e-06
5.01986e-06
5.02019e-06
5.02045e-06
5.02048e-06
5.02031e-06
5.02027e-06
5.0207e-06
5.0211e-06
5.02143e-06
5.02196e-06
5.02202e-06
5.0229e-06
5.00459e-06
5.00126e-06
5.01788e-06
5.01989e-06
5.02009e-06
5.0202e-06
5.02028e-06
5.02036e-06
5.02042e-06
5.02045e-06
5.02042e-06
5.02032e-06
5.02017e-06
5.02e-06
5.01984e-06
5.0198e-06
5.01995e-06
5.02016e-06
5.02032e-06
5.02036e-06
5.02027e-06
5.0201e-06
5.02018e-06
5.0206e-06
5.02103e-06
5.02128e-06
5.02124e-06
5.02106e-06
5.02126e-06
5.0201e-06
5.00282e-06
5.0013e-06
5.01785e-06
5.01974e-06
5.01989e-06
5.01994e-06
5.01997e-06
5.02001e-06
5.0201e-06
5.0202e-06
5.02029e-06
5.02034e-06
5.02033e-06
5.02026e-06
5.02008e-06
5.01991e-06
5.02002e-06
5.02025e-06
5.02037e-06
5.02033e-06
5.0202e-06
5.02016e-06
5.02033e-06
5.02058e-06
5.02077e-06
5.02084e-06
5.02075e-06
5.02032e-06
5.02119e-06
5.01933e-06
5.00267e-06
5.00132e-06
5.01786e-06
5.0197e-06
5.01989e-06
5.02001e-06
5.02007e-06
5.02007e-06
5.02003e-06
5.02002e-06
5.02013e-06
5.02033e-06
5.02054e-06
5.02067e-06
5.02066e-06
5.02045e-06
5.02015e-06
5.02001e-06
5.0201e-06
5.02025e-06
5.02036e-06
5.02044e-06
5.02046e-06
5.02039e-06
5.02022e-06
5.02008e-06
5.02038e-06
5.02091e-06
5.02198e-06
5.02016e-06
5.00257e-06
5.00124e-06
5.01813e-06
5.02002e-06
5.02033e-06
5.02055e-06
5.02071e-06
5.02075e-06
5.0206e-06
5.02028e-06
5.02001e-06
5.0202e-06
5.02054e-06
5.02084e-06
5.02095e-06
5.0208e-06
5.0204e-06
5.01989e-06
5.01982e-06
5.0202e-06
5.02046e-06
5.02056e-06
5.02049e-06
5.02027e-06
5.02003e-06
5.02008e-06
5.02075e-06
5.02149e-06
5.02201e-06
5.01988e-06
5.00209e-06
5.00136e-06
5.01859e-06
5.02052e-06
5.02084e-06
5.02109e-06
5.02124e-06
5.02125e-06
5.02112e-06
5.02082e-06
5.02041e-06
5.02013e-06
5.02034e-06
5.02059e-06
5.02079e-06
5.02086e-06
5.02077e-06
5.02056e-06
5.02037e-06
5.02037e-06
5.02048e-06
5.02053e-06
5.02044e-06
5.02022e-06
5.02007e-06
5.02034e-06
5.021e-06
5.02148e-06
5.02139e-06
5.01907e-06
5.00154e-06
5.00213e-06
5.01892e-06
5.02076e-06
5.021e-06
5.02115e-06
5.02122e-06
5.02123e-06
5.02118e-06
5.02107e-06
5.0209e-06
5.02063e-06
5.02029e-06
5.02017e-06
5.02036e-06
5.02071e-06
5.02103e-06
5.02119e-06
5.02119e-06
5.02108e-06
5.02093e-06
5.02077e-06
5.02055e-06
5.02027e-06
5.02006e-06
5.02042e-06
5.02081e-06
5.02088e-06
5.0205e-06
5.01837e-06
5.00124e-06
5.00271e-06
5.01911e-06
5.02075e-06
5.02086e-06
5.0208e-06
5.02066e-06
5.02056e-06
5.02063e-06
5.0208e-06
5.02092e-06
5.02086e-06
5.02059e-06
5.02021e-06
5.02014e-06
5.02047e-06
5.02098e-06
5.02142e-06
5.02171e-06
5.02181e-06
5.02169e-06
5.02142e-06
5.02102e-06
5.02058e-06
5.0203e-06
5.02044e-06
5.02055e-06
5.02051e-06
5.02027e-06
5.01831e-06
5.00147e-06
5.00264e-06
5.01964e-06
5.0211e-06
5.02102e-06
5.02077e-06
5.02047e-06
5.02025e-06
5.02029e-06
5.02045e-06
5.02063e-06
5.02071e-06
5.02067e-06
5.02044e-06
5.02009e-06
5.02011e-06
5.02072e-06
5.02141e-06
5.02192e-06
5.02216e-06
5.0221e-06
5.02177e-06
5.02128e-06
5.02071e-06
5.02026e-06
5.02028e-06
5.02044e-06
5.02055e-06
5.02044e-06
5.01879e-06
5.00185e-06
5.00238e-06
5.02013e-06
5.0216e-06
5.02164e-06
5.02177e-06
5.02189e-06
5.02196e-06
5.02185e-06
5.02149e-06
5.02097e-06
5.02073e-06
5.02088e-06
5.02094e-06
5.02084e-06
5.02072e-06
5.02088e-06
5.02123e-06
5.02152e-06
5.02165e-06
5.02162e-06
5.02142e-06
5.02108e-06
5.02062e-06
5.02021e-06
5.02028e-06
5.02049e-06
5.02061e-06
5.02068e-06
5.01911e-06
5.00208e-06
5.00362e-06
5.01998e-06
5.02188e-06
5.02235e-06
5.023e-06
5.02346e-06
5.02355e-06
5.02315e-06
5.02237e-06
5.02148e-06
5.02085e-06
5.02101e-06
5.0214e-06
5.0217e-06
5.0218e-06
5.02167e-06
5.02131e-06
5.02081e-06
5.02052e-06
5.02057e-06
5.02074e-06
5.02079e-06
5.02068e-06
5.02051e-06
5.02049e-06
5.02056e-06
5.02075e-06
5.02096e-06
5.01924e-06
5.0023e-06
5.00477e-06
5.01919e-06
5.02239e-06
5.02332e-06
5.02393e-06
5.02407e-06
5.02371e-06
5.02297e-06
5.02204e-06
5.02116e-06
5.02056e-06
5.0208e-06
5.02144e-06
5.022e-06
5.02223e-06
5.02208e-06
5.02158e-06
5.02085e-06
5.02016e-06
5.0199e-06
5.02031e-06
5.0207e-06
5.02088e-06
5.02083e-06
5.0207e-06
5.02085e-06
5.02136e-06
5.02163e-06
5.02004e-06
5.00302e-06
5.00475e-06
5.02099e-06
5.02337e-06
5.02377e-06
5.02371e-06
5.0232e-06
5.02241e-06
5.02164e-06
5.02106e-06
5.02062e-06
5.02032e-06
5.02062e-06
5.02132e-06
5.0219e-06
5.02217e-06
5.0221e-06
5.02181e-06
5.02133e-06
5.02078e-06
5.02034e-06
5.02037e-06
5.0207e-06
5.02093e-06
5.02095e-06
5.02101e-06
5.02139e-06
5.02189e-06
5.02223e-06
5.02085e-06
5.00347e-06
5.00365e-06
5.0227e-06
5.02396e-06
5.0236e-06
5.0228e-06
5.02179e-06
5.02089e-06
5.02071e-06
5.02086e-06
5.02079e-06
5.02071e-06
5.02097e-06
5.0214e-06
5.02178e-06
5.02198e-06
5.02206e-06
5.02196e-06
5.02166e-06
5.02123e-06
5.02082e-06
5.02059e-06
5.02061e-06
5.02076e-06
5.02088e-06
5.02114e-06
5.0216e-06
5.022e-06
5.02221e-06
5.02049e-06
5.00307e-06
5.00319e-06
5.0234e-06
5.0242e-06
5.0235e-06
5.02256e-06
5.02167e-06
5.02116e-06
5.02105e-06
5.02109e-06
5.02109e-06
5.02118e-06
5.02122e-06
5.02126e-06
5.02135e-06
5.02153e-06
5.02169e-06
5.02174e-06
5.02164e-06
5.02139e-06
5.02106e-06
5.02072e-06
5.02068e-06
5.02082e-06
5.02098e-06
5.02133e-06
5.02169e-06
5.02182e-06
5.02168e-06
5.01971e-06
5.00266e-06
5.00425e-06
5.02355e-06
5.02446e-06
5.02381e-06
5.02305e-06
5.02245e-06
5.02206e-06
5.02172e-06
5.02136e-06
5.02111e-06
5.02093e-06
5.02075e-06
5.02067e-06
5.02069e-06
5.0208e-06
5.021e-06
5.02121e-06
5.0213e-06
5.0212e-06
5.02095e-06
5.02073e-06
5.02073e-06
5.02089e-06
5.02144e-06
5.022e-06
5.02207e-06
5.02184e-06
5.02153e-06
5.01971e-06
5.00294e-06
5.00531e-06
5.02347e-06
5.02455e-06
5.02397e-06
5.02334e-06
5.02288e-06
5.02256e-06
5.0222e-06
5.02177e-06
5.02135e-06
5.02098e-06
5.02066e-06
5.02037e-06
5.02012e-06
5.02021e-06
5.02059e-06
5.02091e-06
5.02102e-06
5.02095e-06
5.02082e-06
5.0208e-06
5.02117e-06
5.02204e-06
5.02272e-06
5.02281e-06
5.0225e-06
5.02232e-06
5.02239e-06
5.02116e-06
5.00397e-06
5.00609e-06
5.02307e-06
5.0243e-06
5.02387e-06
5.0235e-06
5.02329e-06
5.02307e-06
5.02274e-06
5.02232e-06
5.02187e-06
5.02139e-06
5.02088e-06
5.02041e-06
5.02041e-06
5.02082e-06
5.02118e-06
5.02127e-06
5.02116e-06
5.02112e-06
5.02132e-06
5.02189e-06
5.02272e-06
5.02326e-06
5.02314e-06
5.02256e-06
5.02222e-06
5.02238e-06
5.02282e-06
5.0216e-06
5.00426e-06
5.00651e-06
5.02267e-06
5.02425e-06
5.0241e-06
5.02395e-06
5.02381e-06
5.02355e-06
5.02317e-06
5.02272e-06
5.0222e-06
5.02157e-06
5.02098e-06
5.02107e-06
5.02158e-06
5.02174e-06
5.02153e-06
5.02122e-06
5.02117e-06
5.02155e-06
5.02233e-06
5.02324e-06
5.02375e-06
5.02346e-06
5.02274e-06
5.02243e-06
5.02253e-06
5.02293e-06
5.02325e-06
5.02161e-06
5.00462e-06
5.00666e-06
5.02264e-06
5.02457e-06
5.02464e-06
5.0245e-06
5.02421e-06
5.0238e-06
5.02334e-06
5.02286e-06
5.02229e-06
5.0217e-06
5.02165e-06
5.0219e-06
5.02178e-06
5.0213e-06
5.02086e-06
5.02082e-06
5.02132e-06
5.02224e-06
5.02328e-06
5.0239e-06
5.02373e-06
5.02311e-06
5.02288e-06
5.02304e-06
5.02348e-06
5.02392e-06
5.02394e-06
5.02212e-06
5.00542e-06
5.00687e-06
5.02324e-06
5.0252e-06
5.02522e-06
5.02491e-06
5.02446e-06
5.02403e-06
5.02364e-06
5.0232e-06
5.02267e-06
5.02225e-06
5.02217e-06
5.02194e-06
5.02129e-06
5.02063e-06
5.02073e-06
5.02111e-06
5.0219e-06
5.02308e-06
5.02384e-06
5.02385e-06
5.02343e-06
5.0235e-06
5.02383e-06
5.02427e-06
5.02487e-06
5.02507e-06
5.02499e-06
5.02309e-06
5.00657e-06
5.00774e-06
5.02426e-06
5.02603e-06
5.02589e-06
5.02547e-06
5.02507e-06
5.02479e-06
5.0245e-06
5.02406e-06
5.0235e-06
5.02298e-06
5.02254e-06
5.02185e-06
5.02113e-06
5.02113e-06
5.02125e-06
5.0216e-06
5.0227e-06
5.02351e-06
5.02364e-06
5.02357e-06
5.02413e-06
5.02466e-06
5.02503e-06
5.0257e-06
5.02608e-06
5.02619e-06
5.02621e-06
5.02445e-06
5.00822e-06
5.00944e-06
5.02569e-06
5.02733e-06
5.02709e-06
5.0267e-06
5.02639e-06
5.02614e-06
5.02577e-06
5.0252e-06
5.02458e-06
5.0239e-06
5.02307e-06
5.02224e-06
5.02194e-06
5.02172e-06
5.0215e-06
5.02197e-06
5.02275e-06
5.02319e-06
5.02374e-06
5.02462e-06
5.02526e-06
5.02565e-06
5.02623e-06
5.0268e-06
5.02717e-06
5.02742e-06
5.02784e-06
5.02693e-06
5.00953e-06
5.01185e-06
5.02767e-06
5.02924e-06
5.02894e-06
5.02851e-06
5.02811e-06
5.02764e-06
5.02703e-06
5.02633e-06
5.02552e-06
5.02461e-06
5.02374e-06
5.02327e-06
5.02292e-06
5.02227e-06
5.02179e-06
5.02201e-06
5.0228e-06
5.02391e-06
5.02503e-06
5.02575e-06
5.02618e-06
5.02681e-06
5.02751e-06
5.02805e-06
5.02878e-06
5.0293e-06
5.02996e-06
5.02871e-06
5.01127e-06
5.01459e-06
5.03008e-06
5.03158e-06
5.03115e-06
5.03053e-06
5.02982e-06
5.02903e-06
5.02822e-06
5.0274e-06
5.02652e-06
5.02568e-06
5.0252e-06
5.02476e-06
5.02395e-06
5.02292e-06
5.02247e-06
5.023e-06
5.02418e-06
5.02543e-06
5.02633e-06
5.02691e-06
5.02758e-06
5.02836e-06
5.0291e-06
5.02989e-06
5.03104e-06
5.0318e-06
5.03181e-06
5.0303e-06
5.01396e-06
5.01746e-06
5.03269e-06
5.034e-06
5.03344e-06
5.03274e-06
5.03191e-06
5.03095e-06
5.03007e-06
5.02915e-06
5.02819e-06
5.02752e-06
5.02695e-06
5.02605e-06
5.02484e-06
5.02375e-06
5.02354e-06
5.0244e-06
5.02568e-06
5.02689e-06
5.02777e-06
5.0285e-06
5.02939e-06
5.03029e-06
5.03145e-06
5.03238e-06
5.03376e-06
5.03455e-06
5.03411e-06
5.03289e-06
5.01752e-06
5.02051e-06
5.03559e-06
5.03693e-06
5.0364e-06
5.03566e-06
5.03482e-06
5.03391e-06
5.0329e-06
5.0317e-06
5.03048e-06
5.0296e-06
5.02854e-06
5.02713e-06
5.02564e-06
5.02461e-06
5.02469e-06
5.02571e-06
5.02693e-06
5.02812e-06
5.02923e-06
5.03037e-06
5.03166e-06
5.033e-06
5.03448e-06
5.03534e-06
5.03665e-06
5.03764e-06
5.03745e-06
5.0369e-06
5.02112e-06
5.02424e-06
5.03951e-06
5.04093e-06
5.04038e-06
5.03951e-06
5.03853e-06
5.03745e-06
5.03619e-06
5.03468e-06
5.03313e-06
5.0317e-06
5.03009e-06
5.02832e-06
5.02672e-06
5.02573e-06
5.02586e-06
5.02691e-06
5.02817e-06
5.02957e-06
5.03114e-06
5.03293e-06
5.03475e-06
5.03654e-06
5.0379e-06
5.03866e-06
5.03968e-06
5.04119e-06
5.042e-06
5.04099e-06
5.02501e-06
5.02912e-06
5.04463e-06
5.04586e-06
5.04506e-06
5.04391e-06
5.0427e-06
5.04142e-06
5.03995e-06
5.03817e-06
5.03618e-06
5.03422e-06
5.03221e-06
5.0302e-06
5.02847e-06
5.02732e-06
5.02734e-06
5.02852e-06
5.03018e-06
5.03214e-06
5.03394e-06
5.03629e-06
5.0385e-06
5.04006e-06
5.04142e-06
5.04238e-06
5.04363e-06
5.04558e-06
5.0469e-06
5.04529e-06
5.02981e-06
5.03517e-06
5.05042e-06
5.05136e-06
5.05039e-06
5.04905e-06
5.0476e-06
5.04612e-06
5.04447e-06
5.04243e-06
5.04004e-06
5.0375e-06
5.03509e-06
5.03288e-06
5.03097e-06
5.02958e-06
5.02948e-06
5.03087e-06
5.03313e-06
5.03551e-06
5.03767e-06
5.04038e-06
5.04229e-06
5.04386e-06
5.04578e-06
5.04741e-06
5.04879e-06
5.05093e-06
5.05203e-06
5.05051e-06
5.03562e-06
5.04224e-06
5.05712e-06
5.058e-06
5.05697e-06
5.05545e-06
5.05376e-06
5.05205e-06
5.05e-06
5.04754e-06
5.04477e-06
5.04184e-06
5.03906e-06
5.03648e-06
5.03408e-06
5.0324e-06
5.03233e-06
5.03387e-06
5.03649e-06
5.03944e-06
5.04208e-06
5.04469e-06
5.04685e-06
5.04912e-06
5.0518e-06
5.05359e-06
5.05539e-06
5.05728e-06
5.0581e-06
5.05698e-06
5.04255e-06
5.05075e-06
5.06555e-06
5.06641e-06
5.06518e-06
5.06328e-06
5.06115e-06
5.05898e-06
5.05645e-06
5.0536e-06
5.05049e-06
5.04723e-06
5.04396e-06
5.04066e-06
5.03765e-06
5.03578e-06
5.03597e-06
5.03774e-06
5.04044e-06
5.04405e-06
5.04707e-06
5.0501e-06
5.05351e-06
5.05604e-06
5.05888e-06
5.06119e-06
5.06343e-06
5.06483e-06
5.06579e-06
5.06503e-06
5.05098e-06
5.06134e-06
5.07592e-06
5.07641e-06
5.07473e-06
5.0724e-06
5.06986e-06
5.06728e-06
5.06434e-06
5.06112e-06
5.05762e-06
5.05389e-06
5.05001e-06
5.04614e-06
5.04263e-06
5.04053e-06
5.04093e-06
5.0432e-06
5.04604e-06
5.05006e-06
5.05372e-06
5.05761e-06
5.06158e-06
5.0645e-06
5.06731e-06
5.07075e-06
5.07267e-06
5.074e-06
5.07531e-06
5.07507e-06
5.06138e-06
5.07416e-06
5.08784e-06
5.08781e-06
5.08587e-06
5.08345e-06
5.08067e-06
5.07771e-06
5.0744e-06
5.0708e-06
5.06689e-06
5.0626e-06
5.05807e-06
5.05377e-06
5.04987e-06
5.04753e-06
5.04763e-06
5.0503e-06
5.05345e-06
5.05807e-06
5.06284e-06
5.06681e-06
5.0713e-06
5.07459e-06
5.07808e-06
5.08168e-06
5.08381e-06
5.08543e-06
5.08742e-06
5.08746e-06
5.07415e-06
5.08906e-06
5.10173e-06
5.1017e-06
5.09984e-06
5.09729e-06
5.09417e-06
5.09075e-06
5.08701e-06
5.08292e-06
5.07836e-06
5.07331e-06
5.06798e-06
5.06334e-06
5.05915e-06
5.05655e-06
5.05599e-06
5.05907e-06
5.06286e-06
5.06841e-06
5.07381e-06
5.07837e-06
5.08283e-06
5.08714e-06
5.09098e-06
5.09473e-06
5.09756e-06
5.0997e-06
5.10207e-06
5.10207e-06
5.0895e-06
5.10668e-06
5.11916e-06
5.11912e-06
5.11698e-06
5.11396e-06
5.11035e-06
5.10641e-06
5.10211e-06
5.09725e-06
5.09186e-06
5.08638e-06
5.08049e-06
5.07541e-06
5.07052e-06
5.0675e-06
5.0666e-06
5.07031e-06
5.07531e-06
5.08129e-06
5.08689e-06
5.09209e-06
5.09691e-06
5.10223e-06
5.10671e-06
5.11065e-06
5.11398e-06
5.11644e-06
5.11887e-06
5.11954e-06
5.10794e-06
5.12862e-06
5.1406e-06
5.13979e-06
5.13703e-06
5.13365e-06
5.1298e-06
5.12542e-06
5.12038e-06
5.1148e-06
5.10878e-06
5.10318e-06
5.09678e-06
5.09055e-06
5.08484e-06
5.08162e-06
5.08119e-06
5.08491e-06
5.09073e-06
5.09686e-06
5.10294e-06
5.10886e-06
5.11494e-06
5.12055e-06
5.12558e-06
5.12976e-06
5.13361e-06
5.13652e-06
5.13937e-06
5.1412e-06
5.1292e-06
5.15497e-06
5.16555e-06
5.16411e-06
5.16141e-06
5.15804e-06
5.15374e-06
5.14848e-06
5.14286e-06
5.1372e-06
5.13069e-06
5.12402e-06
5.11713e-06
5.1103e-06
5.10402e-06
5.10025e-06
5.10022e-06
5.1035e-06
5.10985e-06
5.11677e-06
5.12389e-06
5.13036e-06
5.13728e-06
5.14308e-06
5.14826e-06
5.15352e-06
5.15778e-06
5.16151e-06
5.16476e-06
5.16669e-06
5.1546e-06
5.18594e-06
5.19604e-06
5.19463e-06
5.19168e-06
5.18736e-06
5.18219e-06
5.17668e-06
5.17094e-06
5.16463e-06
5.15749e-06
5.14966e-06
5.14268e-06
5.13563e-06
5.12877e-06
5.12357e-06
5.12414e-06
5.12864e-06
5.13517e-06
5.14233e-06
5.15006e-06
5.15708e-06
5.16424e-06
5.17102e-06
5.17689e-06
5.18246e-06
5.18695e-06
5.19139e-06
5.19514e-06
5.19731e-06
5.18613e-06
5.22377e-06
5.23465e-06
5.23163e-06
5.22736e-06
5.2224e-06
5.21743e-06
5.21182e-06
5.20511e-06
5.19762e-06
5.1905e-06
5.18292e-06
5.1752e-06
5.16697e-06
5.16001e-06
5.15486e-06
5.15526e-06
5.16042e-06
5.16692e-06
5.17427e-06
5.18277e-06
5.19091e-06
5.19792e-06
5.20479e-06
5.21191e-06
5.21764e-06
5.22279e-06
5.22751e-06
5.23173e-06
5.23419e-06
5.22376e-06
5.27079e-06
5.28185e-06
5.27621e-06
5.2722e-06
5.26742e-06
5.26132e-06
5.2546e-06
5.24737e-06
5.23992e-06
5.23247e-06
5.22518e-06
5.21763e-06
5.2097e-06
5.20317e-06
5.19911e-06
5.19893e-06
5.20341e-06
5.20986e-06
5.21725e-06
5.22459e-06
5.23225e-06
5.24045e-06
5.24747e-06
5.25475e-06
5.26088e-06
5.2675e-06
5.27247e-06
5.27746e-06
5.28161e-06
5.26999e-06
5.32971e-06
5.34499e-06
5.33778e-06
5.33376e-06
5.32657e-06
5.31867e-06
5.31153e-06
5.3037e-06
5.2969e-06
5.29189e-06
5.28761e-06
5.2878e-06
5.29168e-06
5.29467e-06
5.29924e-06
5.30164e-06
5.29661e-06
5.29093e-06
5.28836e-06
5.28814e-06
5.29168e-06
5.29706e-06
5.30454e-06
5.31163e-06
5.31875e-06
5.32658e-06
5.3331e-06
5.33785e-06
5.34631e-06
5.32965e-06
5.4216e-06
5.46502e-06
5.44664e-06
5.45042e-06
5.43243e-06
5.41838e-06
5.41628e-06
5.40925e-06
5.4069e-06
5.42433e-06
5.46147e-06
5.53453e-06
5.65041e-06
5.76418e-06
5.8502e-06
5.87857e-06
5.78488e-06
5.65889e-06
5.5475e-06
5.46413e-06
5.43082e-06
5.40823e-06
5.40858e-06
5.41713e-06
5.41768e-06
5.43093e-06
5.45183e-06
5.447e-06
5.46634e-06
5.42214e-06
5.68149e-06
5.84978e-06
5.77019e-06
5.87161e-06
5.76765e-06
5.73225e-06
5.80696e-06
5.79415e-06
5.839e-06
6.05022e-06
6.35838e-06
6.944e-06
7.80017e-06
8.49403e-06
8.89597e-06
9.00493e-06
8.59891e-06
7.83965e-06
7.03453e-06
6.41432e-06
6.11285e-06
5.86056e-06
5.79072e-06
5.80683e-06
5.73003e-06
5.76345e-06
5.87559e-06
5.77116e-06
5.85848e-06
5.66767e-06
6.80276e-06
7.20381e-06
6.97115e-06
7.5298e-06
7.15883e-06
7.24059e-06
7.74387e-06
7.75497e-06
8.47225e-06
9.2435e-06
1.04967e-05
1.29569e-05
1.47551e-05
1.64442e-05
1.68257e-05
1.73327e-05
1.62488e-05
1.51365e-05
1.25172e-05
1.08932e-05
9.66853e-06
8.61827e-06
7.74621e-06
7.72655e-06
7.23848e-06
7.12471e-06
7.6105e-06
6.97228e-06
7.21819e-06
6.75762e-06
1.03587e-05
1.0039e-05
1.10985e-05
1.2152e-05
1.18227e-05
1.35119e-05
1.43183e-05
1.45882e-05
1.79553e-05
2.1474e-05
2.04408e-05
2.61277e-05
2.50596e-05
2.8332e-05
2.83324e-05
2.85205e-05
2.70767e-05
2.75197e-05
2.41513e-05
2.21032e-05
2.20618e-05
1.80622e-05
1.45978e-05
1.43576e-05
1.30806e-05
1.15813e-05
1.26474e-05
1.12489e-05
1.00516e-05
1.03341e-05
1.55172e-05
1.56357e-05
1.96715e-05
1.91132e-05
1.90643e-05
2.3888e-05
2.40249e-05
2.61922e-05
2.88228e-05
3.71353e-05
2.90227e-05
4.01011e-05
3.28996e-05
3.91813e-05
3.46815e-05
3.83566e-05
3.29384e-05
3.939e-05
3.13801e-05
3.25104e-05
3.77037e-05
2.85619e-05
2.75463e-05
2.50274e-05
2.33135e-05
2.21391e-05
2.02324e-05
1.99597e-05
1.59132e-05
1.55651e-05
1.99844e-05
3.13691e-05
2.65151e-05
2.57163e-05
2.48349e-05
3.08613e-05
3.39393e-05
3.6218e-05
3.81469e-05
4.44806e-05
3.71376e-05
5.23899e-05
4.95473e-05
4.77819e-05
4.40501e-05
4.78063e-05
4.38088e-05
5.1669e-05
3.5623e-05
3.9057e-05
4.47497e-05
3.70614e-05
3.6995e-05
3.25989e-05
3.16419e-05
3.00511e-05
2.69155e-05
2.71596e-05
3.16989e-05
2.00732e-05
2.29089e-05
2.8586e-05
3.3423e-05
2.98332e-05
3.04721e-05
3.77622e-05
3.88445e-05
3.8836e-05
3.98842e-05
6.21702e-05
4.94986e-05
7.63317e-05
4.95352e-05
6.45159e-05
4.61714e-05
6.62727e-05
4.85377e-05
6.91016e-05
4.06909e-05
4.41975e-05
5.76358e-05
4.20898e-05
4.04345e-05
3.6382e-05
3.89832e-05
3.19856e-05
3.37723e-05
3.62533e-05
3.00327e-05
2.28017e-05
3.12733e-05
2.92005e-05
3.59945e-05
3.43068e-05
3.6806e-05
4.19327e-05
3.94726e-05
4.59456e-05
3.83471e-05
5.07689e-05
4.27315e-05
4.75587e-05
4.25994e-05
4.97699e-05
4.42868e-05
5.29593e-05
4.85748e-05
4.37117e-05
4.49534e-05
4.17435e-05
4.87753e-05
4.36469e-05
5.03383e-05
3.70943e-05
4.20624e-05
3.70044e-05
3.43063e-05
3.67528e-05
3.12883e-05
3.24148e-05
3.48597e-05
3.03819e-05
3.19386e-05
3.70931e-05
3.9506e-05
5.20327e-05
4.70143e-05
4.2365e-05
4.44239e-05
4.64243e-05
3.87325e-05
4.51673e-05
4.45823e-05
4.74121e-05
4.06659e-05
4.74117e-05
4.45342e-05
4.70814e-05
4.51604e-05
4.73068e-05
4.88742e-05
4.12059e-05
4.10758e-05
4.52704e-05
5.509e-05
3.98314e-05
3.72212e-05
3.28375e-05
2.86756e-05
3.59309e-05
1.91474e-05
2.27449e-05
2.58561e-05
2.68417e-05
2.8088e-05
2.92557e-05
3.00578e-05
3.04131e-05
3.27983e-05
3.62201e-05
3.49847e-05
3.68463e-05
3.82945e-05
3.83255e-05
3.9089e-05
3.98681e-05
3.85846e-05
3.70243e-05
3.7507e-05
3.47704e-05
3.52458e-05
3.18429e-05
3.0534e-05
3.01044e-05
2.99545e-05
2.89653e-05
2.71451e-05
2.62758e-05
2.29182e-05
1.9294e-05
1.60004e-05
1.83595e-05
2.09747e-05
2.25027e-05
2.13603e-05
2.24729e-05
2.44047e-05
2.56011e-05
2.68129e-05
2.91427e-05
2.99185e-05
3.13341e-05
3.21906e-05
3.33476e-05
3.52142e-05
3.53435e-05
3.31882e-05
3.14004e-05
3.09605e-05
2.89927e-05
2.85685e-05
2.68428e-05
2.57126e-05
2.44381e-05
2.2732e-05
2.1489e-05
2.24176e-05
2.11267e-05
1.84752e-05
1.59709e-05
1.41374e-05
1.55003e-05
1.67662e-05
1.84421e-05
1.63484e-05
1.66505e-05
1.87704e-05
2.10978e-05
2.35459e-05
2.56205e-05
2.63521e-05
2.70792e-05
2.73406e-05
2.81966e-05
2.91893e-05
2.91316e-05
2.80169e-05
2.70131e-05
2.65636e-05
2.58526e-05
2.52677e-05
2.35034e-05
2.11195e-05
1.8841e-05
1.6631e-05
1.64357e-05
1.83971e-05
1.6798e-05
1.56264e-05
1.43024e-05
1.29767e-05
1.36353e-05
1.39126e-05
1.46055e-05
1.37995e-05
1.34202e-05
1.41929e-05
1.59322e-05
1.86669e-05
2.16191e-05
2.37171e-05
2.50173e-05
2.5562e-05
2.59972e-05
2.60837e-05
2.59912e-05
2.5944e-05
2.54906e-05
2.46478e-05
2.33297e-05
2.14381e-05
1.84969e-05
1.59136e-05
1.42643e-05
1.34788e-05
1.38483e-05
1.4687e-05
1.39156e-05
1.36396e-05
1.29964e-05
1.21918e-05
1.21855e-05
1.22587e-05
1.24609e-05
1.2215e-05
1.20117e-05
1.22979e-05
1.29026e-05
1.43151e-05
1.68038e-05
1.96315e-05
2.216e-05
2.39237e-05
2.4891e-05
2.49977e-05
2.49443e-05
2.48789e-05
2.38502e-05
2.20143e-05
1.93521e-05
1.66008e-05
1.42454e-05
1.28616e-05
1.22834e-05
1.20385e-05
1.2246e-05
1.24495e-05
1.2307e-05
1.22163e-05
1.21638e-05
1.13414e-05
1.13698e-05
1.12485e-05
1.13336e-05
1.12465e-05
1.12571e-05
1.13684e-05
1.16081e-05
1.2123e-05
1.31972e-05
1.51769e-05
1.7787e-05
2.04142e-05
2.24236e-05
2.32177e-05
2.30286e-05
2.23966e-05
2.04753e-05
1.7688e-05
1.50682e-05
1.31121e-05
1.2093e-05
1.15692e-05
1.13627e-05
1.12345e-05
1.12323e-05
1.1304e-05
1.12696e-05
1.13416e-05
1.13968e-05
1.07958e-05
1.06802e-05
1.06375e-05
1.06482e-05
1.06479e-05
1.07238e-05
1.07636e-05
1.08959e-05
1.11159e-05
1.14691e-05
1.21892e-05
1.3582e-05
1.5653e-05
1.77927e-05
1.91914e-05
1.91077e-05
1.77513e-05
1.56475e-05
1.35409e-05
1.21616e-05
1.14035e-05
1.10568e-05
1.08901e-05
1.07671e-05
1.06974e-05
1.06155e-05
1.06721e-05
1.06384e-05
1.07302e-05
1.07884e-05
1.03466e-05
1.01558e-05
1.01254e-05
1.01229e-05
1.01552e-05
1.02078e-05
1.0252e-05
1.03663e-05
1.0448e-05
1.05706e-05
1.07678e-05
1.11967e-05
1.20043e-05
1.30806e-05
1.40163e-05
1.40263e-05
1.30489e-05
1.19547e-05
1.11994e-05
1.07731e-05
1.0579e-05
1.04163e-05
1.03477e-05
1.02404e-05
1.01918e-05
1.01546e-05
1.00971e-05
1.01369e-05
1.01796e-05
1.03211e-05
9.9112e-06
9.69267e-06
9.6128e-06
9.61753e-06
9.69601e-06
9.73804e-06
9.77578e-06
9.84041e-06
9.86959e-06
9.92255e-06
9.98598e-06
1.00859e-05
1.02365e-05
1.05054e-05
1.07758e-05
1.07786e-05
1.05094e-05
1.02133e-05
1.00732e-05
9.94449e-06
9.90884e-06
9.85398e-06
9.82835e-06
9.77324e-06
9.70335e-06
9.69661e-06
9.61493e-06
9.64176e-06
9.70129e-06
9.89822e-06
9.46447e-06
9.2171e-06
9.18883e-06
9.19957e-06
9.23934e-06
9.27864e-06
9.30398e-06
9.32463e-06
9.34235e-06
9.35936e-06
9.35223e-06
9.34971e-06
9.34124e-06
9.37535e-06
9.41796e-06
9.40894e-06
9.37918e-06
9.33575e-06
9.35315e-06
9.34491e-06
9.35194e-06
9.34836e-06
9.32778e-06
9.30587e-06
9.25699e-06
9.20575e-06
9.20312e-06
9.202e-06
9.24889e-06
9.46906e-06
9.06092e-06
8.83677e-06
8.77212e-06
8.75443e-06
8.82241e-06
8.85373e-06
8.84505e-06
8.83284e-06
8.83307e-06
8.81746e-06
8.77645e-06
8.74605e-06
8.71057e-06
8.67817e-06
8.65131e-06
8.64043e-06
8.66156e-06
8.69544e-06
8.73225e-06
8.76899e-06
8.81016e-06
8.84721e-06
8.84326e-06
8.82359e-06
8.82932e-06
8.79344e-06
8.79287e-06
8.78058e-06
8.81759e-06
9.05151e-06
8.67858e-06
8.43817e-06
8.36592e-06
8.38595e-06
8.43211e-06
8.40754e-06
8.38852e-06
8.3815e-06
8.36503e-06
8.31858e-06
8.2593e-06
8.21048e-06
8.14891e-06
8.08644e-06
8.05152e-06
8.06144e-06
8.09638e-06
8.15436e-06
8.20631e-06
8.2635e-06
8.31652e-06
8.35944e-06
8.3836e-06
8.39742e-06
8.40909e-06
8.39416e-06
8.38082e-06
8.37215e-06
8.42292e-06
8.66502e-06
8.29163e-06
8.05476e-06
8.01417e-06
8.02497e-06
8.01242e-06
7.99731e-06
7.99078e-06
7.9661e-06
7.91974e-06
7.85616e-06
7.79358e-06
7.72984e-06
7.64774e-06
7.57839e-06
7.54544e-06
7.55449e-06
7.58518e-06
7.64487e-06
7.71419e-06
7.79105e-06
7.86504e-06
7.92306e-06
7.95656e-06
7.98981e-06
8.00458e-06
8.00047e-06
7.99628e-06
8.00553e-06
8.06966e-06
8.3005e-06
7.9259e-06
7.72593e-06
7.67816e-06
7.65601e-06
7.64721e-06
7.64926e-06
7.6188e-06
7.56899e-06
7.51687e-06
7.45333e-06
7.3828e-06
7.3061e-06
7.219e-06
7.15152e-06
7.11494e-06
7.114e-06
7.14729e-06
7.21578e-06
7.2976e-06
7.37654e-06
7.45188e-06
7.52223e-06
7.57149e-06
7.61181e-06
7.63482e-06
7.64212e-06
7.65046e-06
7.67019e-06
7.73198e-06
7.94015e-06
7.58993e-06
7.41061e-06
7.34672e-06
7.3282e-06
7.32958e-06
7.30321e-06
7.26177e-06
7.21655e-06
7.16122e-06
7.08661e-06
7.00655e-06
6.92598e-06
6.84202e-06
6.77378e-06
6.73046e-06
6.72302e-06
6.76087e-06
6.83649e-06
6.92516e-06
7.00767e-06
7.08597e-06
7.1596e-06
7.21599e-06
7.25885e-06
7.28955e-06
7.31076e-06
7.32973e-06
7.35031e-06
7.40291e-06
7.59356e-06
7.28658e-06
7.10815e-06
7.05792e-06
7.04753e-06
7.02453e-06
6.98028e-06
6.9479e-06
6.90214e-06
6.83793e-06
6.76234e-06
6.68804e-06
6.60925e-06
6.52336e-06
6.44922e-06
6.40285e-06
6.3972e-06
6.43784e-06
6.51207e-06
6.59905e-06
6.68256e-06
6.76366e-06
6.83787e-06
6.89598e-06
6.94235e-06
6.9801e-06
7.00995e-06
7.03341e-06
7.0542e-06
7.10301e-06
7.27891e-06
7.0044e-06
6.849e-06
6.8092e-06
6.78121e-06
6.73516e-06
6.70931e-06
6.67995e-06
6.62644e-06
6.56126e-06
6.49291e-06
6.41927e-06
6.33292e-06
6.24438e-06
6.17439e-06
6.13431e-06
6.13264e-06
6.17244e-06
6.24326e-06
6.32834e-06
6.41183e-06
6.49197e-06
6.56457e-06
6.62245e-06
6.66982e-06
6.71005e-06
6.74326e-06
6.76976e-06
6.79269e-06
6.8378e-06
6.99243e-06
6.743e-06
6.61974e-06
6.5701e-06
6.52815e-06
6.49809e-06
6.48325e-06
6.44673e-06
6.3946e-06
6.33368e-06
6.2643e-06
6.18333e-06
6.09677e-06
6.02015e-06
5.96108e-06
5.92236e-06
5.9162e-06
5.95076e-06
6.01823e-06
6.10028e-06
6.17899e-06
6.25212e-06
6.32107e-06
6.38199e-06
6.43419e-06
6.47673e-06
6.50956e-06
6.53489e-06
6.55649e-06
6.5953e-06
6.72709e-06
6.51523e-06
6.4013e-06
6.34836e-06
6.31911e-06
6.30607e-06
6.27944e-06
6.24118e-06
6.19297e-06
6.13196e-06
6.06121e-06
5.98414e-06
5.9099e-06
5.84376e-06
5.78434e-06
5.74014e-06
5.73234e-06
5.76839e-06
5.83504e-06
5.9115e-06
5.98285e-06
6.0504e-06
6.11787e-06
6.1802e-06
6.23132e-06
6.26928e-06
6.29724e-06
6.32001e-06
6.34062e-06
6.37451e-06
6.48619e-06
6.29727e-06
6.19204e-06
6.16221e-06
6.14893e-06
6.12722e-06
6.09312e-06
6.05945e-06
6.01359e-06
5.95699e-06
5.89428e-06
5.82809e-06
5.76229e-06
5.69552e-06
5.632e-06
5.59002e-06
5.59016e-06
5.63071e-06
5.69342e-06
5.76115e-06
5.82521e-06
5.88786e-06
5.95028e-06
6.00645e-06
6.05064e-06
6.08323e-06
6.10884e-06
6.13118e-06
6.15097e-06
6.17934e-06
6.27231e-06
6.10448e-06
6.02676e-06
6.00716e-06
5.98759e-06
5.95746e-06
5.93144e-06
5.9041e-06
5.86493e-06
5.8165e-06
5.75832e-06
5.69485e-06
5.62972e-06
5.56357e-06
5.50642e-06
5.47578e-06
5.48295e-06
5.52018e-06
5.57218e-06
5.62948e-06
5.6885e-06
5.74884e-06
5.80702e-06
5.85682e-06
5.89506e-06
5.92386e-06
5.9472e-06
5.96733e-06
5.98425e-06
6.00732e-06
6.08436e-06
5.94166e-06
5.88761e-06
5.85621e-06
5.83598e-06
5.81528e-06
5.7979e-06
5.77304e-06
5.7388e-06
5.692e-06
5.63417e-06
5.57541e-06
5.51832e-06
5.4633e-06
5.41925e-06
5.39728e-06
5.40266e-06
5.43001e-06
5.47e-06
5.51899e-06
5.57512e-06
5.63289e-06
5.68513e-06
5.72694e-06
5.75866e-06
5.78386e-06
5.80523e-06
5.82354e-06
5.83872e-06
5.85853e-06
5.922e-06
5.79947e-06
5.74235e-06
5.72246e-06
5.71177e-06
5.69896e-06
5.68021e-06
5.65351e-06
5.61888e-06
5.57289e-06
5.52429e-06
5.48029e-06
5.43684e-06
5.39301e-06
5.35601e-06
5.33358e-06
5.33202e-06
5.3506e-06
5.38353e-06
5.42865e-06
5.48118e-06
5.53225e-06
5.57539e-06
5.60984e-06
5.63884e-06
5.66484e-06
5.68726e-06
5.70461e-06
5.71763e-06
5.73339e-06
5.78328e-06
5.66613e-06
5.62127e-06
5.62025e-06
5.61023e-06
5.59651e-06
5.57408e-06
5.54704e-06
5.51479e-06
5.47909e-06
5.44638e-06
5.41319e-06
5.37358e-06
5.3313e-06
5.29457e-06
5.27011e-06
5.26507e-06
5.28084e-06
5.31333e-06
5.35742e-06
5.40475e-06
5.44747e-06
5.48285e-06
5.51401e-06
5.54424e-06
5.57221e-06
5.59394e-06
5.60759e-06
5.61588e-06
5.62654e-06
5.66458e-06
5.5568e-06
5.543e-06
5.53264e-06
5.52112e-06
5.50696e-06
5.48553e-06
5.46232e-06
5.43885e-06
5.41844e-06
5.39614e-06
5.36242e-06
5.31926e-06
5.27777e-06
5.24511e-06
5.22437e-06
5.22088e-06
5.23708e-06
5.26849e-06
5.30751e-06
5.34621e-06
5.37993e-06
5.40964e-06
5.43895e-06
5.46838e-06
5.49403e-06
5.51165e-06
5.52102e-06
5.52609e-06
5.53394e-06
5.56316e-06
5.48049e-06
5.46404e-06
5.44572e-06
5.44213e-06
5.4327e-06
5.41696e-06
5.39871e-06
5.38351e-06
5.37075e-06
5.34816e-06
5.31131e-06
5.27107e-06
5.23875e-06
5.21583e-06
5.20138e-06
5.19966e-06
5.21319e-06
5.23787e-06
5.26735e-06
5.29626e-06
5.32307e-06
5.34948e-06
5.37642e-06
5.40173e-06
5.422e-06
5.43541e-06
5.44308e-06
5.4484e-06
5.45584e-06
5.47806e-06
5.40849e-06
5.37601e-06
5.37677e-06
5.38276e-06
5.37961e-06
5.36771e-06
5.35045e-06
5.33604e-06
5.32056e-06
5.29495e-06
5.26311e-06
5.23589e-06
5.21639e-06
5.20098e-06
5.18886e-06
5.18547e-06
5.19394e-06
5.21127e-06
5.23307e-06
5.25634e-06
5.28038e-06
5.30487e-06
5.32801e-06
5.34741e-06
5.36194e-06
5.37218e-06
5.37973e-06
5.38619e-06
5.39276e-06
5.40761e-06
5.33468e-06
5.31846e-06
5.33693e-06
5.34364e-06
5.33942e-06
5.32404e-06
5.30537e-06
5.28999e-06
5.27276e-06
5.25138e-06
5.23221e-06
5.21861e-06
5.20606e-06
5.19085e-06
5.17643e-06
5.17095e-06
5.17745e-06
5.19217e-06
5.2112e-06
5.23222e-06
5.25385e-06