/*--------------------------------*- C++ -*----------------------------------*\
| =========                 |                                                 |
| \\      /  F ield         | OpenFOAM: The Open Source CFD Toolbox           |
|  \\    /   O peration     | Version:  2312                                  |
|   \\  /    A nd           | Website:  www.openfoam.com                      |
|    \\/     M anipulation  |                                                 |
\*---------------------------------------------------------------------------*/
FoamFile
{
    version     2.0;
    format      ascii;
    arch        "LSB;label=32;scalar=64";
    class       volScalarField;
    location    "1.4126785425";
    object      p;
}
// * * * * * * * * * * * * * * * * * * * * * * * * * * * * * * * * * * * * * //

dimensions      [1 -1 -2 0 0 0 0];

internalField   nonuniform List<scalar> 
90000
(
4850.02
4850.02
4850.02
4850.02
4850.01
4850.01
4850.01
4850.01
4850.01
4850.01
4850.01
4850.01
4850.01
4850.01
4850.01
4850.01
4850.01
4850.01
4850.01
4850.01
4850.01
4850.01
4850.01
4850.01
4850.01
4850.01
4850.02
4850.02
4850.02
4850.01
4751.91
4751.91
4751.91
4751.91
4751.91
4751.91
4751.91
4751.91
4751.91
4751.91
4751.91
4751.91
4751.91
4751.91
4751.91
4751.91
4751.91
4751.91
4751.91
4751.91
4751.91
4751.91
4751.91
4751.91
4751.91
4751.91
4751.91
4751.92
4751.92
4751.92
4653.81
4653.81
4653.81
4653.81
4653.81
4653.81
4653.81
4653.81
4653.81
4653.81
4653.81
4653.81
4653.81
4653.81
4653.81
4653.81
4653.81
4653.81
4653.81
4653.81
4653.81
4653.81
4653.81
4653.81
4653.81
4653.81
4653.81
4653.81
4653.82
4653.82
4555.7
4555.7
4555.7
4555.7
4555.71
4555.71
4555.71
4555.71
4555.71
4555.71
4555.71
4555.71
4555.71
4555.71
4555.71
4555.71
4555.71
4555.71
4555.71
4555.71
4555.71
4555.71
4555.71
4555.71
4555.71
4555.71
4555.71
4555.71
4555.71
4555.71
4457.6
4457.6
4457.6
4457.6
4457.61
4457.61
4457.61
4457.61
4457.61
4457.61
4457.62
4457.62
4457.62
4457.62
4457.62
4457.62
4457.62
4457.61
4457.61
4457.61
4457.61
4457.61
4457.61
4457.61
4457.61
4457.61
4457.61
4457.61
4457.61
4457.61
4359.5
4359.5
4359.51
4359.51
4359.51
4359.51
4359.51
4359.51
4359.51
4359.51
4359.51
4359.52
4359.52
4359.52
4359.52
4359.52
4359.52
4359.52
4359.51
4359.51
4359.51
4359.51
4359.51
4359.51
4359.51
4359.51
4359.51
4359.51
4359.51
4359.51
4261.41
4261.41
4261.41
4261.41
4261.41
4261.41
4261.41
4261.41
4261.41
4261.41
4261.41
4261.41
4261.41
4261.42
4261.42
4261.42
4261.42
4261.42
4261.41
4261.41
4261.41
4261.41
4261.41
4261.41
4261.41
4261.41
4261.41
4261.41
4261.41
4261.41
4163.31
4163.31
4163.31
4163.31
4163.31
4163.31
4163.31
4163.31
4163.31
4163.31
4163.31
4163.31
4163.31
4163.31
4163.31
4163.31
4163.31
4163.31
4163.31
4163.31
4163.31
4163.31
4163.31
4163.31
4163.31
4163.31
4163.31
4163.31
4163.31
4163.31
4065.22
4065.22
4065.22
4065.22
4065.21
4065.21
4065.21
4065.21
4065.21
4065.21
4065.21
4065.21
4065.21
4065.21
4065.21
4065.21
4065.21
4065.21
4065.21
4065.21
4065.21
4065.21
4065.21
4065.21
4065.21
4065.21
4065.21
4065.21
4065.21
4065.21
3967.12
3967.12
3967.12
3967.12
3967.12
3967.11
3967.11
3967.11
3967.11
3967.11
3967.11
3967.11
3967.11
3967.11
3967.11
3967.11
3967.11
3967.12
3967.12
3967.12
3967.11
3967.11
3967.11
3967.11
3967.11
3967.11
3967.11
3967.11
3967.11
3967.11
3869.01
3869.01
3869.01
3869.01
3869.01
3869.01
3869.01
3869.01
3869.01
3869.01
3869.01
3869.01
3869.01
3869.01
3869.01
3869.01
3869.02
3869.02
3869.02
3869.02
3869.02
3869.01
3869.01
3869.01
3869.01
3869.01
3869.01
3869.01
3869.01
3869.01
3770.91
3770.91
3770.91
3770.91
3770.91
3770.91
3770.91
3770.91
3770.91
3770.91
3770.91
3770.91
3770.91
3770.91
3770.91
3770.92
3770.92
3770.92
3770.92
3770.92
3770.92
3770.92
3770.92
3770.91
3770.91
3770.91
3770.91
3770.91
3770.91
3770.91
3672.8
3672.8
3672.8
3672.8
3672.8
3672.8
3672.81
3672.81
3672.81
3672.81
3672.81
3672.81
3672.81
3672.82
3672.82
3672.82
3672.82
3672.82
3672.82
3672.82
3672.82
3672.82
3672.82
3672.81
3672.81
3672.81
3672.81
3672.81
3672.81
3672.81
3574.69
3574.69
3574.69
3574.7
3574.7
3574.7
3574.71
3574.71
3574.71
3574.71
3574.71
3574.72
3574.72
3574.72
3574.72
3574.72
3574.72
3574.72
3574.72
3574.72
3574.71
3574.71
3574.71
3574.71
3574.71
3574.71
3574.71
3574.71
3574.71
3574.71
3476.59
3476.59
3476.59
3476.6
3476.6
3476.6
3476.61
3476.61
3476.61
3476.61
3476.62
3476.62
3476.62
3476.62
3476.62
3476.62
3476.62
3476.62
3476.61
3476.61
3476.61
3476.61
3476.61
3476.61
3476.61
3476.61
3476.61
3476.61
3476.61
3476.61
3378.49
3378.49
3378.5
3378.5
3378.5
3378.5
3378.51
3378.51
3378.51
3378.51
3378.52
3378.52
3378.52
3378.52
3378.52
3378.52
3378.52
3378.51
3378.51
3378.51
3378.51
3378.51
3378.51
3378.51
3378.5
3378.5
3378.5
3378.5
3378.5
3378.5
3280.4
3280.4
3280.4
3280.4
3280.4
3280.4
3280.41
3280.41
3280.41
3280.41
3280.41
3280.42
3280.42
3280.42
3280.42
3280.42
3280.41
3280.41
3280.41
3280.41
3280.41
3280.41
3280.4
3280.4
3280.4
3280.4
3280.4
3280.4
3280.4
3280.39
3182.3
3182.3
3182.3
3182.3
3182.3
3182.3
3182.3
3182.31
3182.31
3182.31
3182.31
3182.32
3182.32
3182.32
3182.32
3182.32
3182.31
3182.31
3182.31
3182.31
3182.31
3182.3
3182.3
3182.3
3182.29
3182.29
3182.29
3182.29
3182.29
3182.29
3084.19
3084.19
3084.2
3084.2
3084.2
3084.2
3084.2
3084.2
3084.21
3084.21
3084.21
3084.21
3084.22
3084.22
3084.22
3084.21
3084.21
3084.21
3084.21
3084.21
3084.2
3084.2
3084.2
3084.19
3084.19
3084.19
3084.19
3084.18
3084.18
3084.18
2986.09
2986.09
2986.09
2986.09
2986.09
2986.1
2986.1
2986.1
2986.11
2986.11
2986.11
2986.11
2986.11
2986.11
2986.11
2986.11
2986.11
2986.11
2986.11
2986.11
2986.1
2986.1
2986.1
2986.09
2986.09
2986.09
2986.08
2986.08
2986.08
2986.08
2887.98
2887.98
2887.98
2887.99
2887.99
2887.99
2887.99
2888
2888
2888
2888.01
2888.01
2888.01
2888.01
2888.01
2888.01
2888.01
2888.01
2888.01
2888.01
2888
2888
2887.99
2887.99
2887.99
2887.98
2887.98
2887.98
2887.97
2887.97
2789.87
2789.87
2789.87
2789.88
2789.88
2789.88
2789.89
2789.89
2789.9
2789.9
2789.9
2789.91
2789.91
2789.91
2789.91
2789.91
2789.91
2789.91
2789.91
2789.9
2789.9
2789.9
2789.89
2789.89
2789.88
2789.87
2789.87
2789.87
2789.86
2789.86
2691.76
2691.76
2691.76
2691.76
2691.77
2691.77
2691.78
2691.78
2691.79
2691.8
2691.8
2691.8
2691.81
2691.81
2691.81
2691.81
2691.81
2691.81
2691.8
2691.8
2691.8
2691.79
2691.78
2691.78
2691.77
2691.76
2691.76
2691.75
2691.75
2691.75
2593.64
2593.64
2593.65
2593.65
2593.66
2593.66
2593.67
2593.68
2593.68
2593.69
2593.7
2593.7
2593.71
2593.71
2593.71
2593.71
2593.71
2593.7
2593.7
2593.7
2593.69
2593.68
2593.67
2593.67
2593.66
2593.65
2593.65
2593.64
2593.64
2593.64
2495.52
2495.53
2495.53
2495.54
2495.54
2495.55
2495.56
2495.57
2495.58
2495.59
2495.59
2495.6
2495.61
2495.61
2495.61
2495.61
2495.61
2495.6
2495.6
2495.59
2495.58
2495.57
2495.56
2495.55
2495.54
2495.54
2495.53
2495.53
2495.52
2495.52
2397.41
2397.41
2397.41
2397.42
2397.43
2397.44
2397.45
2397.46
2397.47
2397.48
2397.49
2397.5
2397.51
2397.51
2397.51
2397.51
2397.51
2397.5
2397.5
2397.49
2397.48
2397.46
2397.45
2397.44
2397.43
2397.42
2397.41
2397.41
2397.4
2397.4
2299.28
2299.29
2299.29
2299.3
2299.31
2299.32
2299.33
2299.35
2299.36
2299.37
2299.39
2299.4
2299.4
2299.41
2299.41
2299.41
2299.41
2299.4
2299.39
2299.38
2299.36
2299.35
2299.34
2299.32
2299.31
2299.3
2299.29
2299.28
2299.28
2299.28
2201.16
2201.16
2201.17
2201.18
2201.19
2201.2
2201.22
2201.23
2201.25
2201.27
2201.28
2201.29
2201.3
2201.31
2201.31
2201.31
2201.3
2201.29
2201.28
2201.27
2201.25
2201.24
2201.22
2201.21
2201.19
2201.18
2201.17
2201.16
2201.15
2201.15
2103.03
2103.03
2103.04
2103.05
2103.06
2103.08
2103.1
2103.12
2103.14
2103.15
2103.17
2103.18
2103.19
2103.2
2103.21
2103.2
2103.2
2103.19
2103.17
2103.16
2103.14
2103.12
2103.1
2103.08
2103.06
2103.05
2103.04
2103.02
2103.02
2103.01
2004.89
2004.89
2004.9
2004.92
2004.93
2004.95
2004.97
2004.99
2005.02
2005.04
2005.06
2005.08
2005.09
2005.1
2005.1
2005.1
2005.09
2005.08
2005.07
2005.05
2005.03
2005
2004.98
2004.96
2004.93
2004.91
2004.9
2004.88
2004.88
2004.87
1906.74
1906.75
1906.76
1906.77
1906.79
1906.81
1906.84
1906.87
1906.89
1906.92
1906.94
1906.96
1906.98
1906.99
1907
1907
1906.99
1906.98
1906.96
1906.94
1906.91
1906.88
1906.85
1906.82
1906.8
1906.77
1906.75
1906.74
1906.72
1906.72
1808.58
1808.58
1808.6
1808.62
1808.64
1808.67
1808.7
1808.73
1808.76
1808.8
1808.82
1808.85
1808.87
1808.88
1808.89
1808.89
1808.88
1808.87
1808.84
1808.82
1808.79
1808.75
1808.72
1808.68
1808.65
1808.62
1808.6
1808.58
1808.56
1808.55
1710.4
1710.41
1710.43
1710.45
1710.48
1710.51
1710.55
1710.59
1710.63
1710.67
1710.7
1710.73
1710.76
1710.77
1710.78
1710.78
1710.77
1710.75
1710.72
1710.69
1710.66
1710.62
1710.58
1710.53
1710.49
1710.46
1710.43
1710.4
1710.39
1710.38
1612.21
1612.22
1612.24
1612.27
1612.3
1612.34
1612.39
1612.43
1612.48
1612.53
1612.57
1612.61
1612.64
1612.66
1612.67
1612.67
1612.65
1612.63
1612.6
1612.56
1612.52
1612.47
1612.42
1612.37
1612.32
1612.28
1612.24
1612.21
1612.2
1612.19
1514
1514.01
1514.03
1514.06
1514.11
1514.15
1514.21
1514.27
1514.33
1514.38
1514.43
1514.48
1514.51
1514.54
1514.55
1514.55
1514.53
1514.51
1514.47
1514.43
1514.37
1514.32
1514.25
1514.19
1514.14
1514.09
1514.04
1514.01
1513.98
1513.97
1415.76
1415.77
1415.8
1415.84
1415.89
1415.95
1416.02
1416.08
1416.15
1416.22
1416.28
1416.34
1416.38
1416.41
1416.42
1416.42
1416.41
1416.38
1416.33
1416.28
1416.21
1416.14
1416.07
1416
1415.93
1415.87
1415.82
1415.78
1415.75
1415.73
1317.5
1317.51
1317.54
1317.59
1317.65
1317.72
1317.8
1317.88
1317.96
1318.05
1318.12
1318.18
1318.24
1318.27
1318.29
1318.29
1318.27
1318.23
1318.18
1318.11
1318.04
1317.95
1317.87
1317.78
1317.7
1317.63
1317.57
1317.52
1317.49
1317.47
1219.2
1219.22
1219.25
1219.31
1219.38
1219.46
1219.56
1219.65
1219.75
1219.85
1219.94
1220.02
1220.08
1220.12
1220.14
1220.14
1220.12
1220.08
1220.01
1219.93
1219.84
1219.74
1219.64
1219.54
1219.44
1219.36
1219.29
1219.23
1219.19
1219.17
1120.86
1120.89
1120.93
1120.99
1121.08
1121.17
1121.28
1121.4
1121.51
1121.63
1121.74
1121.83
1121.9
1121.96
1121.99
1121.99
1121.96
1121.9
1121.83
1121.73
1121.62
1121.51
1121.38
1121.26
1121.15
1121.05
1120.97
1120.9
1120.86
1120.84
1022.48
1022.51
1022.56
1022.63
1022.73
1022.84
1022.97
1023.1
1023.24
1023.38
1023.51
1023.62
1023.71
1023.77
1023.81
1023.81
1023.78
1023.71
1023.62
1023.51
1023.38
1023.24
1023.09
1022.95
1022.82
1022.71
1022.61
1022.53
1022.48
1022.45
924.055
924.084
924.14
924.223
924.33
924.46
924.607
924.766
924.93
925.091
925.243
925.378
925.487
925.564
925.605
925.608
925.572
925.497
925.389
925.254
925.099
924.932
924.762
924.597
924.445
924.31
924.199
924.112
924.052
924.02
825.569
825.6
825.662
825.754
825.875
826.023
826.192
826.376
826.567
826.758
826.938
827.098
827.229
827.324
827.374
827.379
827.336
827.247
827.12
826.96
826.776
826.579
826.379
826.186
826.011
825.856
825.729
825.633
825.569
825.534
727.02
727.053
727.117
727.217
727.352
727.518
727.71
727.922
728.145
728.367
728.579
728.77
728.929
729.044
729.107
729.114
729.064
728.961
728.809
728.619
728.402
728.17
727.935
727.711
727.509
727.335
727.193
727.09
727.024
726.985
628.407
628.438
628.5
628.603
628.748
628.932
629.149
629.39
629.647
629.907
630.157
630.384
630.577
630.718
630.797
630.809
630.75
630.628
630.449
630.226
629.97
629.696
629.42
629.16
628.928
628.734
628.582
628.474
628.407
628.37
529.738
529.757
529.802
529.898
530.049
530.25
530.491
530.767
531.064
531.364
531.654
531.928
532.163
532.338
532.436
532.454
532.388
532.243
532.033
531.773
531.474
531.148
530.819
530.516
530.256
530.042
529.881
529.777
529.725
529.703
431.051
431.02
431.015
431.086
431.232
431.451
431.714
432.032
432.382
432.724
433.051
433.389
433.684
433.901
434.021
434.048
433.976
433.806
433.555
433.26
432.914
432.521
432.115
431.754
431.471
431.241
431.076
430.991
430.986
431.006
332.459
332.264
332.139
332.138
332.245
332.504
332.77
333.153
333.599
333.985
334.312
334.769
335.153
335.423
335.546
335.6
335.524
335.329
335.004
334.703
334.321
333.823
333.279
332.82
332.55
332.306
332.152
332.126
332.218
332.395
234.285
233.555
233.183
233.003
232.919
233.313
233.463
234.042
234.738
235.178
235.282
236.132
236.603
236.977
236.899
237.135
237.008
236.88
236.262
236.152
235.797
235.088
234.219
233.491
233.405
233.176
233.091
233.2
233.489
234.183
137.949
134.671
134.458
133.672
133.023
133.263
132.865
134.562
135.745
136.822
135.148
138.022
137.731
139.069
137.268
139.053
137.872
138.984
136.325
137.817
138.099
136.175
134.932
132.736
133.298
134.181
133.969
134.622
134.576
137.779
52.5003
47.4248
47.5877
45.1747
44.2493
43.5261
43.131
46.3533
46.7902
49.0538
44.1493
49.617
48.9576
50.5959
47.2672
50.3737
48.7725
50.9498
46.2772
49.0319
51.3646
47.2488
46.6631
42.172
43.8061
46.693
45.509
47.8069
47.5838
52.2988
0.651751
-2.36133
0.248627
0.329396
0.30593
-0.674486
-1.4074
0.396384
0.680922
-0.0212503
-1.97218
-0.506883
-1.53327
-0.0098626
-0.563261
-0.082495
-0.132333
1.70576
-0.0740791
0.526902
2.17215
1.0971
0.648319
-1.17972
-0.0926921
0.750619
0.302335
0.201576
-2.39466
0.462409
-6.23357
-5.5655
-5.72704
-5.16061
-5.30041
-5.38499
-5.33259
-5.25084
-5.29552
-6.56253
-5.71704
-6.31513
-6.02154
-6.40349
-5.80828
-6.3674
-5.61897
-5.58796
-5.23711
-5.32114
-6.15569
-5.14122
-5.07634
-5.10558
-5.39639
-5.62077
-5.2505
-5.93324
-5.75118
-6.36656
-5.20481
-5.07254
-5.13678
-5.20438
-5.16337
-5.17292
-5.10923
-5.17113
-5.22817
-5.09691
-5.08809
-5.12199
-5.12128
-5.11876
-5.11298
-5.07128
-5.12075
-5.16406
-5.12301
-5.14578
-5.16871
-5.20581
-5.14034
-5.09925
-5.18356
-5.14521
-5.19736
-5.13022
-5.09296
-5.21481
-5.20453
-5.20911
-5.20363
-5.22282
-5.21704
-5.21323
-5.20888
-5.21591
-5.22195
-5.19378
-5.18937
-5.19441
-5.19103
-5.1899
-5.1888
-5.19056
-5.19497
-5.20474
-5.20167
-5.20868
-5.20764
-5.21693
-5.21561
-5.21387
-5.2173
-5.20964
-5.21897
-5.20093
-5.20445
-5.20312
-5.31673
-5.31679
-5.31625
-5.32084
-5.31933
-5.31609
-5.31358
-5.31609
-5.31472
-5.30483
-5.30184
-5.30214
-5.29973
-5.29855
-5.29703
-5.29765
-5.30045
-5.304
-5.30428
-5.30772
-5.30887
-5.31575
-5.31719
-5.31425
-5.31601
-5.31779
-5.31971
-5.31488
-5.31535
-5.31577
-5.41632
-5.41617
-5.41613
-5.41692
-5.41635
-5.41449
-5.41337
-5.41303
-5.41163
-5.40821
-5.40628
-5.40525
-5.404
-5.40318
-5.40273
-5.40319
-5.40468
-5.40631
-5.40739
-5.40896
-5.4104
-5.41296
-5.41376
-5.4136
-5.41426
-5.41568
-5.41615
-5.41536
-5.41554
-5.41579
-5.51577
-5.51564
-5.51554
-5.51552
-5.51509
-5.51409
-5.5132
-5.51251
-5.5115
-5.51007
-5.50898
-5.50829
-5.50767
-5.50723
-5.50704
-5.50734
-5.50819
-5.50907
-5.50982
-5.51065
-5.51146
-5.51247
-5.51307
-5.5134
-5.51392
-5.51471
-5.51502
-5.51507
-5.51527
-5.51543
-5.61554
-5.61545
-5.61531
-5.61511
-5.61475
-5.61414
-5.61355
-5.61302
-5.61237
-5.61166
-5.61116
-5.61085
-5.61063
-5.61055
-5.61059
-5.61078
-5.61118
-5.61154
-5.61187
-5.61224
-5.61263
-5.61309
-5.61347
-5.61376
-5.6141
-5.61453
-5.6148
-5.61497
-5.61515
-5.61523
-5.7154
-5.71532
-5.71522
-5.71506
-5.71481
-5.71446
-5.71417
-5.71385
-5.71351
-5.71321
-5.71301
-5.71293
-5.71297
-5.71304
-5.71318
-5.71332
-5.71345
-5.71357
-5.71365
-5.71375
-5.7139
-5.71407
-5.71421
-5.71433
-5.71448
-5.71469
-5.71484
-5.71498
-5.71508
-5.71517
-5.81532
-5.81531
-5.81525
-5.81517
-5.81506
-5.81492
-5.8148
-5.81469
-5.81463
-5.81459
-5.81463
-5.8147
-5.81482
-5.81498
-5.81513
-5.8152
-5.81525
-5.81526
-5.81522
-5.81517
-5.81511
-5.81506
-5.815
-5.81495
-5.81493
-5.81497
-5.815
-5.81505
-5.81508
-5.81512
-5.91529
-5.9153
-5.91531
-5.91532
-5.91533
-5.91535
-5.91537
-5.91545
-5.91558
-5.91573
-5.91592
-5.91613
-5.91634
-5.91652
-5.91667
-5.91673
-5.91671
-5.91664
-5.91649
-5.91633
-5.9161
-5.9159
-5.91569
-5.91551
-5.91536
-5.91525
-5.9152
-5.91515
-5.91514
-5.9151
-6.01528
-6.01531
-6.01536
-6.01543
-6.01553
-6.01565
-6.01581
-6.01604
-6.01628
-6.01655
-6.01685
-6.01717
-6.01746
-6.01767
-6.0178
-6.01787
-6.01781
-6.01766
-6.01743
-6.01717
-6.01685
-6.01653
-6.01622
-6.01592
-6.01568
-6.01546
-6.01531
-6.01521
-6.01515
-6.01509
-6.11521
-6.11524
-6.11531
-6.11544
-6.11562
-6.11582
-6.11608
-6.11638
-6.1167
-6.11707
-6.11746
-6.11783
-6.11814
-6.11837
-6.11852
-6.11857
-6.11849
-6.11828
-6.118
-6.11766
-6.11729
-6.1169
-6.11653
-6.11616
-6.11583
-6.11556
-6.11532
-6.11517
-6.11508
-6.11502
-6.21501
-6.21506
-6.21518
-6.21533
-6.21554
-6.21581
-6.21613
-6.21648
-6.21688
-6.2173
-6.21771
-6.21809
-6.21843
-6.21869
-6.21885
-6.21887
-6.21876
-6.21852
-6.21823
-6.21786
-6.21746
-6.21703
-6.2166
-6.21619
-6.2158
-6.21547
-6.21521
-6.21502
-6.2149
-6.21483
-6.31472
-6.31478
-6.3149
-6.31506
-6.31532
-6.31563
-6.31596
-6.31635
-6.31678
-6.31722
-6.31764
-6.31804
-6.31839
-6.31864
-6.31878
-6.31879
-6.31867
-6.31844
-6.31813
-6.31774
-6.31733
-6.31689
-6.31643
-6.31599
-6.31559
-6.31523
-6.31495
-6.31473
-6.31459
-6.31452
-6.4143
-6.41437
-6.41448
-6.41467
-6.41494
-6.41524
-6.41559
-6.416
-6.41643
-6.41686
-6.41729
-6.4177
-6.41803
-6.41825
-6.41838
-6.4184
-6.41829
-6.41806
-6.41774
-6.41736
-6.41694
-6.4165
-6.41604
-6.4156
-6.4152
-6.41483
-6.41453
-6.41431
-6.41416
-6.4141
-6.51375
-6.51381
-6.51393
-6.51413
-6.51437
-6.51467
-6.51504
-6.51544
-6.51586
-6.51628
-6.5167
-6.51709
-6.51738
-6.51759
-6.51772
-6.51774
-6.51762
-6.5174
-6.5171
-6.51674
-6.51634
-6.5159
-6.51545
-6.51503
-6.51463
-6.51427
-6.51397
-6.51375
-6.51362
-6.51356
-6.61307
-6.61314
-6.61326
-6.61343
-6.61367
-6.61398
-6.61433
-6.6147
-6.6151
-6.6155
-6.6159
-6.61624
-6.61651
-6.61671
-6.61684
-6.61685
-6.61673
-6.61653
-6.61626
-6.61592
-6.61553
-6.61511
-6.61469
-6.61428
-6.6139
-6.61355
-6.61326
-6.61306
-6.61293
-6.61287
-6.71228
-6.71235
-6.71245
-6.71261
-6.71285
-6.71314
-6.71346
-6.71382
-6.71419
-6.71455
-6.7149
-6.71522
-6.71547
-6.71566
-6.71576
-6.71576
-6.71566
-6.71549
-6.71524
-6.71492
-6.71455
-6.71416
-6.71377
-6.71338
-6.71301
-6.71268
-6.71242
-6.71223
-6.7121
-6.71204
-6.8114
-6.81144
-6.81153
-6.8117
-6.81191
-6.81217
-6.81248
-6.81281
-6.81313
-6.81346
-6.81378
-6.81407
-6.8143
-6.81446
-6.81454
-6.81454
-6.81446
-6.81431
-6.81408
-6.81377
-6.81343
-6.81307
-6.8127
-6.81234
-6.81199
-6.81169
-6.81145
-6.81127
-6.81115
-6.81109
-6.9104
-6.91044
-6.91054
-6.91067
-6.91085
-6.91109
-6.91139
-6.91168
-6.91197
-6.91226
-6.91255
-6.9128
-6.913
-6.91314
-6.91321
-6.91321
-6.91314
-6.913
-6.91279
-6.91251
-6.91219
-6.91186
-6.91152
-6.91118
-6.91086
-6.91059
-6.91037
-6.9102
-6.91009
-6.91002
-7.00931
-7.00936
-7.00944
-7.00954
-7.0097
-7.00993
-7.01019
-7.01045
-7.01071
-7.01097
-7.01121
-7.01143
-7.0116
-7.01174
-7.0118
-7.01179
-7.01171
-7.01158
-7.01138
-7.01113
-7.01085
-7.01054
-7.01022
-7.00992
-7.00963
-7.00939
-7.00919
-7.00903
-7.00891
-7.00886
-7.10815
-7.10819
-7.10823
-7.10832
-7.10848
-7.10868
-7.1089
-7.10913
-7.10936
-7.10958
-7.10979
-7.10998
-7.11014
-7.11025
-7.11029
-7.11027
-7.11019
-7.11007
-7.1099
-7.10967
-7.10941
-7.10913
-7.10884
-7.10857
-7.10831
-7.10808
-7.10789
-7.10775
-7.10765
-7.1076
-7.20688
-7.2069
-7.20695
-7.20704
-7.20717
-7.20733
-7.20752
-7.20772
-7.20792
-7.20812
-7.2083
-7.20847
-7.2086
-7.20867
-7.2087
-7.20868
-7.20862
-7.20851
-7.20835
-7.20814
-7.2079
-7.20764
-7.20738
-7.20713
-7.20689
-7.20668
-7.20651
-7.20638
-7.2063
-7.20626
-7.30554
-7.30556
-7.30562
-7.30568
-7.30577
-7.30591
-7.30608
-7.30626
-7.30643
-7.3066
-7.30675
-7.30687
-7.30696
-7.30702
-7.30704
-7.30704
-7.30698
-7.30687
-7.30671
-7.30652
-7.30631
-7.30608
-7.30585
-7.30561
-7.30539
-7.3052
-7.30506
-7.30495
-7.30488
-7.30485
-7.40413
-7.40416
-7.40419
-7.40423
-7.40431
-7.40443
-7.40458
-7.40474
-7.40488
-7.405
-7.40511
-7.4052
-7.40527
-7.40533
-7.40536
-7.40534
-7.40527
-7.40515
-7.405
-7.40484
-7.40466
-7.40446
-7.40425
-7.40403
-7.40384
-7.40367
-7.40355
-7.40346
-7.4034
-7.40337
-7.50264
-7.50265
-7.50267
-7.50271
-7.50279
-7.5029
-7.50302
-7.50314
-7.50324
-7.50334
-7.50342
-7.5035
-7.50356
-7.50361
-7.50362
-7.50358
-7.50349
-7.50338
-7.50325
-7.50312
-7.50296
-7.50278
-7.50259
-7.5024
-7.50224
-7.50211
-7.50201
-7.50193
-7.50188
-7.50185
-7.60107
-7.60108
-7.60111
-7.60115
-7.60122
-7.60129
-7.60138
-7.60147
-7.60156
-7.60165
-7.60172
-7.60178
-7.60182
-7.60184
-7.60182
-7.60176
-7.60168
-7.60159
-7.60149
-7.60137
-7.60122
-7.60106
-7.60089
-7.60074
-7.60062
-7.60052
-7.60043
-7.60036
-7.60031
-7.60029
-7.69944
-7.69946
-7.6995
-7.69953
-7.69957
-7.69962
-7.69968
-7.69977
-7.69986
-7.69994
-7.7
-7.70003
-7.70003
-7.70001
-7.69998
-7.69993
-7.69987
-7.6998
-7.69971
-7.69959
-7.69946
-7.69931
-7.69918
-7.69907
-7.69898
-7.69889
-7.69882
-7.69875
-7.69871
-7.69869
-7.79778
-7.7978
-7.79781
-7.79784
-7.79788
-7.79792
-7.79797
-7.79805
-7.79813
-7.7982
-7.79822
-7.79822
-7.79821
-7.79819
-7.79816
-7.79812
-7.79808
-7.79801
-7.79792
-7.79781
-7.79768
-7.79757
-7.79747
-7.79738
-7.7973
-7.79722
-7.79715
-7.7971
-7.79707
-7.79706
-7.89608
-7.89607
-7.89609
-7.89613
-7.89617
-7.8962
-7.89624
-7.8963
-7.89636
-7.89639
-7.89641
-7.89641
-7.89641
-7.8964
-7.89637
-7.89634
-7.89629
-7.89622
-7.89613
-7.89603
-7.89593
-7.89584
-7.89575
-7.89567
-7.89559
-7.89552
-7.89546
-7.89542
-7.8954
-7.8954
-7.99433
-7.99433
-7.99438
-7.99442
-7.99445
-7.99447
-7.99448
-7.99451
-7.99455
-7.99458
-7.99461
-7.99463
-7.99464
-7.99463
-7.9946
-7.99455
-7.99449
-7.99443
-7.99435
-7.99427
-7.99419
-7.99411
-7.99403
-7.99394
-7.99386
-7.99379
-7.99375
-7.99372
-7.99371
-7.99371
-8.09258
-8.09261
-8.09265
-8.09268
-8.09269
-8.09269
-8.0927
-8.09271
-8.09274
-8.09278
-8.09282
-8.09285
-8.09286
-8.09283
-8.09279
-8.09275
-8.0927
-8.09265
-8.09259
-8.09252
-8.09245
-8.09237
-8.09229
-8.0922
-8.09212
-8.09206
-8.09202
-8.092
-8.09198
-8.09197
-8.19085
-8.19087
-8.19089
-8.1909
-8.19091
-8.19092
-8.19093
-8.19095
-8.19097
-8.191
-8.19103
-8.19104
-8.19103
-8.191
-8.19096
-8.19094
-8.1909
-8.19087
-8.19082
-8.19076
-8.19069
-8.19061
-8.19053
-8.19045
-8.19038
-8.19033
-8.19028
-8.19025
-8.19022
-8.1902
-8.28909
-8.28909
-8.28911
-8.28912
-8.28915
-8.28917
-8.28919
-8.2892
-8.2892
-8.2892
-8.2892
-8.28919
-8.28917
-8.28915
-8.28914
-8.28913
-8.2891
-8.28907
-8.28902
-8.28895
-8.28889
-8.28882
-8.28875
-8.28869
-8.28863
-8.28858
-8.28853
-8.28848
-8.28844
-8.28841
-8.38731
-8.38732
-8.38734
-8.38737
-8.3874
-8.38742
-8.38743
-8.38741
-8.38739
-8.38736
-8.38733
-8.38731
-8.3873
-8.3873
-8.38729
-8.38728
-8.38725
-8.3872
-8.38715
-8.38709
-8.38704
-8.38699
-8.38695
-8.38691
-8.38687
-8.38681
-8.38676
-8.3867
-8.38666
-8.38664
-8.48555
-8.48558
-8.48559
-8.4856
-8.48561
-8.48561
-8.4856
-8.48557
-8.48553
-8.48549
-8.48546
-8.48544
-8.48543
-8.48542
-8.4854
-8.48537
-8.48533
-8.48527
-8.48523
-8.48519
-8.48516
-8.48514
-8.48512
-8.4851
-8.48506
-8.48502
-8.48497
-8.48493
-8.4849
-8.48489
-8.58378
-8.58379
-8.58378
-8.58377
-8.58375
-8.58374
-8.58373
-8.58371
-8.58368
-8.58365
-8.58361
-8.58358
-8.58355
-8.58352
-8.58348
-8.58344
-8.58339
-8.58335
-8.58332
-8.5833
-8.58329
-8.58328
-8.58327
-8.58325
-8.58323
-8.5832
-8.58318
-8.58316
-8.58315
-8.58315
-8.68193
-8.68191
-8.68189
-8.68187
-8.68186
-8.68187
-8.68187
-8.68187
-8.68185
-8.68181
-8.68176
-8.68171
-8.68166
-8.68162
-8.68157
-8.68152
-8.68148
-8.68146
-8.68144
-8.68143
-8.68142
-8.68141
-8.68139
-8.68138
-8.68137
-8.68137
-8.68138
-8.68138
-8.68139
-8.68139
-8.78001
-8.77999
-8.77998
-8.77998
-8.77999
-8.78
-8.78001
-8.78
-8.77998
-8.77994
-8.77989
-8.77983
-8.77978
-8.77972
-8.77968
-8.77964
-8.77961
-8.77959
-8.77957
-8.77955
-8.77953
-8.77951
-8.7795
-8.7795
-8.77951
-8.77953
-8.77955
-8.77958
-8.77959
-8.77959
-8.87809
-8.87809
-8.87809
-8.8781
-8.87811
-8.87812
-8.87811
-8.87809
-8.87806
-8.87803
-8.87799
-8.87795
-8.87791
-8.87786
-8.87782
-8.87778
-8.87775
-8.87771
-8.87768
-8.87765
-8.87763
-8.87761
-8.87761
-8.87762
-8.87764
-8.87767
-8.8777
-8.87773
-8.87773
-8.87773
-8.97618
-8.97618
-8.97619
-8.97621
-8.97621
-8.9762
-8.97617
-8.97615
-8.97613
-8.97612
-8.97611
-8.97608
-8.97605
-8.97601
-8.97597
-8.97592
-8.97587
-8.97583
-8.97579
-8.97576
-8.97574
-8.97574
-8.97574
-8.97576
-8.97579
-8.97581
-8.97582
-8.97583
-8.97583
-8.97582
-9.07426
-9.07426
-9.07427
-9.07429
-9.07429
-9.07427
-9.07425
-9.07424
-9.07424
-9.07424
-9.07423
-9.07421
-9.07418
-9.07414
-9.07409
-9.07404
-9.07399
-9.07394
-9.07391
-9.0739
-9.07389
-9.0739
-9.07391
-9.07392
-9.07393
-9.07393
-9.07393
-9.07392
-9.07391
-9.0739
-9.17235
-9.17235
-9.17237
-9.17238
-9.17238
-9.17237
-9.17237
-9.17237
-9.17236
-9.17235
-9.17232
-9.1723
-9.17226
-9.17221
-9.17217
-9.17212
-9.17209
-9.17206
-9.17205
-9.17205
-9.17206
-9.17208
-9.17209
-9.17209
-9.17208
-9.17206
-9.17204
-9.17202
-9.17201
-9.172
-9.27048
-9.27049
-9.2705
-9.27051
-9.27051
-9.27051
-9.2705
-9.27049
-9.27046
-9.27043
-9.27039
-9.27034
-9.2703
-9.27026
-9.27023
-9.27021
-9.27019
-9.27019
-9.2702
-9.27021
-9.27023
-9.27024
-9.27024
-9.27024
-9.27022
-9.2702
-9.27018
-9.27016
-9.27015
-9.27015
-9.36863
-9.36864
-9.36864
-9.36863
-9.36863
-9.36862
-9.36861
-9.36858
-9.36855
-9.3685
-9.36846
-9.36841
-9.36838
-9.36835
-9.36834
-9.36833
-9.36833
-9.36833
-9.36834
-9.36836
-9.36837
-9.36837
-9.36837
-9.36836
-9.36835
-9.36834
-9.36833
-9.36832
-9.36832
-9.36833
-9.46675
-9.46675
-9.46673
-9.46671
-9.4667
-9.46669
-9.46667
-9.46665
-9.46663
-9.46661
-9.46658
-9.46655
-9.46653
-9.46651
-9.4665
-9.46649
-9.46648
-9.46648
-9.46647
-9.46647
-9.46647
-9.46647
-9.46647
-9.46647
-9.46647
-9.46648
-9.46649
-9.4665
-9.4665
-9.46651
-9.56481
-9.56479
-9.56477
-9.56475
-9.56474
-9.56473
-9.56473
-9.56473
-9.56474
-9.56474
-9.56474
-9.56473
-9.56472
-9.5647
-9.56468
-9.56466
-9.56464
-9.56462
-9.56459
-9.56458
-9.56456
-9.56456
-9.56456
-9.56457
-9.56459
-9.56461
-9.56463
-9.56465
-9.56467
-9.56467
-9.66286
-9.66284
-9.66282
-9.66281
-9.6628
-9.6628
-9.66281
-9.66283
-9.66285
-9.66287
-9.66288
-9.66288
-9.66287
-9.66286
-9.66284
-9.66281
-9.66278
-9.66275
-9.66273
-9.66271
-9.66269
-9.66269
-9.66269
-9.66271
-9.66273
-9.66275
-9.66278
-9.6628
-9.66281
-9.66282
-9.76094
-9.76093
-9.76093
-9.76092
-9.76092
-9.76093
-9.76093
-9.76095
-9.76096
-9.76097
-9.76097
-9.76097
-9.76097
-9.76096
-9.76095
-9.76094
-9.76092
-9.76091
-9.7609
-9.76089
-9.76088
-9.76088
-9.76089
-9.76089
-9.7609
-9.76091
-9.76092
-9.76093
-9.76094
-9.76094
4850.02
4850.02
4850.02
4850.02
4850.02
4850.01
4850.01
4850.01
4850.01
4850.01
4850.01
4850.01
4850
4850
4850.01
4850.01
4850.01
4850.01
4850.01
4850.01
4850.01
4850.01
4850.01
4850.01
4850.01
4850.02
4850.02
4850.02
4850.02
4850.02
4751.91
4751.91
4751.91
4751.91
4751.91
4751.91
4751.91
4751.91
4751.91
4751.91
4751.91
4751.91
4751.91
4751.91
4751.91
4751.91
4751.91
4751.91
4751.91
4751.91
4751.91
4751.91
4751.91
4751.91
4751.91
4751.91
4751.91
4751.91
4751.92
4751.91
4653.81
4653.8
4653.81
4653.81
4653.81
4653.81
4653.81
4653.81
4653.81
4653.81
4653.81
4653.81
4653.81
4653.81
4653.81
4653.81
4653.81
4653.81
4653.81
4653.81
4653.81
4653.81
4653.81
4653.81
4653.81
4653.81
4653.81
4653.81
4653.81
4653.81
4555.7
4555.7
4555.7
4555.7
4555.71
4555.71
4555.71
4555.71
4555.71
4555.71
4555.71
4555.71
4555.71
4555.71
4555.71
4555.71
4555.71
4555.71
4555.71
4555.71
4555.71
4555.71
4555.71
4555.71
4555.71
4555.71
4555.71
4555.71
4555.71
4555.71
4457.6
4457.6
4457.6
4457.6
4457.61
4457.61
4457.61
4457.61
4457.61
4457.61
4457.62
4457.62
4457.62
4457.62
4457.62
4457.62
4457.62
4457.61
4457.61
4457.61
4457.61
4457.61
4457.61
4457.61
4457.61
4457.61
4457.61
4457.61
4457.61
4457.61
4359.5
4359.5
4359.51
4359.51
4359.51
4359.51
4359.51
4359.51
4359.51
4359.51
4359.51
4359.52
4359.52
4359.52
4359.52
4359.52
4359.52
4359.52
4359.51
4359.51
4359.51
4359.51
4359.51
4359.51
4359.51
4359.51
4359.51
4359.51
4359.51
4359.51
4261.41
4261.41
4261.41
4261.41
4261.41
4261.41
4261.41
4261.41
4261.41
4261.41
4261.41
4261.41
4261.41
4261.42
4261.42
4261.42
4261.42
4261.41
4261.41
4261.41
4261.41
4261.41
4261.41
4261.41
4261.41
4261.41
4261.41
4261.41
4261.41
4261.41
4163.31
4163.31
4163.31
4163.31
4163.31
4163.31
4163.31
4163.31
4163.31
4163.31
4163.31
4163.31
4163.31
4163.31
4163.31
4163.31
4163.31
4163.31
4163.31
4163.31
4163.31
4163.31
4163.31
4163.31
4163.31
4163.31
4163.31
4163.31
4163.31
4163.31
4065.22
4065.22
4065.22
4065.22
4065.21
4065.21
4065.21
4065.21
4065.21
4065.21
4065.21
4065.21
4065.21
4065.21
4065.21
4065.21
4065.21
4065.21
4065.21
4065.21
4065.21
4065.21
4065.21
4065.21
4065.21
4065.21
4065.21
4065.21
4065.21
4065.21
3967.12
3967.12
3967.12
3967.12
3967.12
3967.11
3967.11
3967.11
3967.11
3967.11
3967.11
3967.11
3967.11
3967.11
3967.11
3967.11
3967.12
3967.12
3967.12
3967.12
3967.11
3967.11
3967.11
3967.11
3967.11
3967.11
3967.11
3967.11
3967.11
3967.11
3869.01
3869.01
3869.01
3869.01
3869.01
3869.01
3869.01
3869.01
3869.01
3869.01
3869.01
3869.01
3869.01
3869.01
3869.01
3869.02
3869.02
3869.02
3869.02
3869.02
3869.02
3869.01
3869.01
3869.01
3869.01
3869.01
3869.01
3869.01
3869.01
3869.01
3770.91
3770.91
3770.91
3770.91
3770.91
3770.91
3770.91
3770.91
3770.91
3770.91
3770.91
3770.91
3770.91
3770.91
3770.92
3770.92
3770.92
3770.92
3770.92
3770.92
3770.92
3770.92
3770.92
3770.92
3770.91
3770.91
3770.91
3770.91
3770.91
3770.91
3672.8
3672.8
3672.8
3672.8
3672.8
3672.8
3672.81
3672.81
3672.81
3672.81
3672.81
3672.81
3672.82
3672.82
3672.82
3672.82
3672.82
3672.82
3672.82
3672.82
3672.82
3672.82
3672.82
3672.81
3672.81
3672.81
3672.81
3672.81
3672.81
3672.81
3574.69
3574.69
3574.69
3574.7
3574.7
3574.7
3574.71
3574.71
3574.71
3574.71
3574.72
3574.72
3574.72
3574.72
3574.72
3574.72
3574.72
3574.72
3574.72
3574.72
3574.72
3574.71
3574.71
3574.71
3574.71
3574.71
3574.71
3574.71
3574.71
3574.71
3476.59
3476.59
3476.59
3476.6
3476.6
3476.6
3476.61
3476.61
3476.61
3476.61
3476.62
3476.62
3476.62
3476.62
3476.62
3476.62
3476.62
3476.62
3476.61
3476.61
3476.61
3476.61
3476.61
3476.61
3476.61
3476.61
3476.61
3476.61
3476.61
3476.61
3378.49
3378.5
3378.5
3378.5
3378.5
3378.51
3378.51
3378.51
3378.51
3378.51
3378.52
3378.52
3378.52
3378.52
3378.52
3378.52
3378.52
3378.51
3378.51
3378.51
3378.51
3378.51
3378.51
3378.51
3378.51
3378.5
3378.5
3378.5
3378.5
3378.5
3280.4
3280.4
3280.4
3280.4
3280.4
3280.4
3280.41
3280.41
3280.41
3280.41
3280.42
3280.42
3280.42
3280.42
3280.42
3280.42
3280.41
3280.41
3280.41
3280.41