/*--------------------------------*- C++ -*----------------------------------*\
| =========                 |                                                 |
| \\      /  F ield         | OpenFOAM: The Open Source CFD Toolbox           |
|  \\    /   O peration     | Version:  2312                                  |
|   \\  /    A nd           | Website:  www.openfoam.com                      |
|    \\/     M anipulation  |                                                 |
\*---------------------------------------------------------------------------*/
FoamFile
{
    version     2.0;
    format      ascii;
    arch        "LSB;label=32;scalar=64";
    class       volScalarField;
    location    "1.4126785425";
    object      p_rgh;
}
// * * * * * * * * * * * * * * * * * * * * * * * * * * * * * * * * * * * * * //

dimensions      [1 -1 -2 0 0 0 0];

internalField   nonuniform List<scalar> 
90000
(
4899.07
4899.07
4899.07
4899.07
4899.07
4899.07
4899.06
4899.06
4899.06
4899.06
4899.06
4899.06
4899.05
4899.05
4899.06
4899.06
4899.06
4899.06
4899.06
4899.06
4899.06
4899.06
4899.06
4899.06
4899.06
4899.07
4899.07
4899.07
4899.07
4899.06
4899.07
4899.07
4899.07
4899.07
4899.07
4899.07
4899.06
4899.06
4899.06
4899.06
4899.06
4899.05
4899.05
4899.05
4899.05
4899.06
4899.06
4899.06
4899.06
4899.06
4899.06
4899.06
4899.06
4899.06
4899.07
4899.07
4899.07
4899.07
4899.06
4899.04
4899.07
4899.07
4899.07
4899.07
4899.07
4899.06
4899.06
4899.06
4899.06
4899.06
4899.06
4899.05
4899.05
4899.05
4899.05
4899.05
4899.05
4899.06
4899.06
4899.06
4899.06
4899.06
4899.06
4899.06
4899.07
4899.07
4899.07
4899.09
4899.11
4899.07
4899.06
4899.06
4899.06
4899.06
4899.06
4899.06
4899.06
4899.06
4899.06
4899.06
4899.06
4899.06
4899.06
4899.05
4899.05
4899.05
4899.05
4899.05
4899.05
4899.05
4899.06
4899.06
4899.06
4899.06
4899.07
4899.07
4899.07
4899.06
4899.09
4899.07
4899.06
4899.05
4899.05
4899.05
4899.05
4899.06
4899.06
4899.06
4899.06
4899.07
4899.07
4899.07
4899.06
4899.06
4899.06
4899.05
4899.05
4899.05
4899.05
4899.05
4899.06
4899.06
4899.06
4899.07
4899.07
4899.07
4899.08
4899.07
4899.08
4899.07
4899.05
4899.03
4899.04
4899.04
4899.05
4899.05
4899.06
4899.06
4899.07
4899.07
4899.08
4899.08
4899.07
4899.07
4899.07
4899.06
4899.06
4899.06
4899.06
4899.06
4899.06
4899.06
4899.07
4899.07
4899.07
4899.07
4899.07
4899.07
4899.06
4899.06
4899.04
4899.02
4899.03
4899.03
4899.04
4899.05
4899.06
4899.06
4899.07
4899.08
4899.08
4899.08
4899.08
4899.08
4899.08
4899.07
4899.07
4899.06
4899.06
4899.06
4899.06
4899.07
4899.07
4899.07
4899.07
4899.07
4899.07
4899.06
4899.05
4899.05
4899.04
4899.02
4899.03
4899.03
4899.04
4899.04
4899.05
4899.06
4899.07
4899.07
4899.08
4899.08
4899.08
4899.08
4899.08
4899.07
4899.07
4899.06
4899.06
4899.06
4899.06
4899.06
4899.07
4899.07
4899.07
4899.06
4899.06
4899.05
4899.05
4899.05
4899.03
4899.03
4899.04
4899.04
4899.04
4899.05
4899.05
4899.05
4899.05
4899.06
4899.06
4899.07
4899.07
4899.07
4899.07
4899.07
4899.06
4899.06
4899.06
4899.05
4899.05
4899.06
4899.06
4899.05
4899.05
4899.04
4899.04
4899.04
4899.05
4899.05
4899.05
4899.06
4899.07
4899.07
4899.06
4899.06
4899.06
4899.05
4899.05
4899.05
4899.05
4899.06
4899.06
4899.06
4899.06
4899.06
4899.06
4899.06
4899.06
4899.05
4899.05
4899.05
4899.04
4899.03
4899.03
4899.02
4899.02
4899.03
4899.04
4899.04
4899.07
4899.11
4899.11
4899.1
4899.09
4899.08
4899.07
4899.06
4899.05
4899.05
4899.05
4899.05
4899.05
4899.06
4899.06
4899.07
4899.07
4899.07
4899.07
4899.07
4899.06
4899.05
4899.04
4899.03
4899.02
4899.02
4899.02
4899.03
4899.03
4899.03
4899.1
4899.14
4899.13
4899.13
4899.11
4899.1
4899.08
4899.07
4899.06
4899.05
4899.05
4899.05
4899.05
4899.05
4899.06
4899.07
4899.08
4899.08
4899.08
4899.08
4899.07
4899.06
4899.05
4899.04
4899.03
4899.04
4899.04
4899.04
4899.04
4899.04
4899.11
4899.14
4899.13
4899.11
4899.1
4899.08
4899.07
4899.06
4899.05
4899.04
4899.04
4899.04
4899.04
4899.04
4899.05
4899.06
4899.08
4899.09
4899.09
4899.09
4899.08
4899.07
4899.06
4899.06
4899.06
4899.06
4899.06
4899.05
4899.04
4899.04
4899.1
4899.09
4899.07
4899.06
4899.05
4899.04
4899.04
4899.04
4899.04
4899.04
4899.03
4899.03
4899.03
4899.03
4899.04
4899.06
4899.07
4899.08
4899.08
4899.08
4899.08
4899.07
4899.07
4899.07
4899.07
4899.06
4899.04
4899.03
4899.02
4899.02
4899.06
4899
4898.99
4898.99
4899
4899.01
4899.02
4899.03
4899.04
4899.04
4899.04
4899.04
4899.04
4899.04
4899.05
4899.06
4899.07
4899.08
4899.08
4899.08
4899.07
4899.07
4899.07
4899.07
4899.06
4899.04
4899.02
4899
4899
4899
4899
4898.93
4898.94
4898.96
4898.98
4899.01
4899.03
4899.05
4899.06
4899.06
4899.06
4899.06
4899.06
4899.06
4899.07
4899.07
4899.08
4899.07
4899.07
4899.07
4899.07
4899.08
4899.08
4899.08
4899.06
4899.05
4899.03
4899.03
4899.03
4899.05
4898.96
4898.91
4898.94
4898.96
4899
4899.03
4899.05
4899.06
4899.07
4899.07
4899.06
4899.06
4899.07
4899.07
4899.08
4899.08
4899.07
4899.06
4899.06
4899.06
4899.07
4899.08
4899.09
4899.09
4899.08
4899.08
4899.08
4899.09
4899.11
4899.13
4898.96
4898.93
4898.96
4898.99
4899.01
4899.03
4899.04
4899.05
4899.04
4899.04
4899.05
4899.06
4899.07
4899.08
4899.08
4899.07
4899.05
4899.04
4899.04
4899.04
4899.05
4899.06
4899.06
4899.06
4899.06
4899.07
4899.09
4899.11
4899.12
4899.09
4898.98
4898.97
4898.98
4899
4899.01
4899.01
4899.02
4899.02
4899.02
4899.04
4899.06
4899.08
4899.1
4899.1
4899.09
4899.06
4899.04
4899.03
4899.02
4899.02
4899.03
4899.02
4899.01
4899.01
4899.01
4899.02
4899.03
4899.03
4899.01
4898.95
4899
4898.99
4898.99
4899
4899.01
4899.01
4899.02
4899.03
4899.05
4899.08
4899.11
4899.13
4899.13
4899.11
4899.08
4899.06
4899.04
4899.03
4899.03
4899.02
4899.01
4898.99
4898.98
4898.97
4898.97
4898.98
4898.98
4898.95
4898.91
4898.9
4899
4899.02
4899.02
4899.04
4899.05
4899.06
4899.07
4899.08
4899.1
4899.12
4899.14
4899.13
4899.11
4899.08
4899.05
4899.04
4899.04
4899.05
4899.05
4899.04
4899.02
4899
4898.99
4899
4899.01
4899.02
4899
4898.97
4898.96
4899.02
4899.02
4899.07
4899.08
4899.09
4899.1
4899.1
4899.1
4899.11
4899.11
4899.11
4899.1
4899.08
4899.05
4899.03
4899.02
4899.04
4899.06
4899.08
4899.08
4899.06
4899.04
4899.02
4899.03
4899.05
4899.06
4899.05
4899.03
4899.03
4899.05
4899.08
4899.05
4899.12
4899.12
4899.11
4899.1
4899.09
4899.09
4899.08
4899.08
4899.07
4899.06
4899.03
4899.01
4899.02
4899.04
4899.08
4899.1
4899.11
4899.09
4899.06
4899.04
4899.05
4899.07
4899.08
4899.06
4899.03
4899.02
4899.02
4899.02
4898.98
4899.07
4899.11
4899.09
4899.08
4899.06
4899.06
4899.06
4899.07
4899.07
4899.07
4899.05
4899.03
4899.03
4899.05
4899.07
4899.09
4899.09
4899.07
4899.04
4899.03
4899.05
4899.08
4899.1
4899.09
4899.05
4899.02
4899
4898.98
4898.94
4898.94
4899.04
4899.04
4899.03
4899.02
4899.02
4899.04
4899.06
4899.07
4899.08
4899.07
4899.05
4899.03
4899.03
4899.04
4899.05
4899.04
4899.01
4898.98
4898.98
4899.02
4899.07
4899.11
4899.11
4899.08
4899.04
4899.02
4898.99
4898.96
4898.96
4899.02
4898.99
4898.96
4898.96
4898.97
4898.98
4899.01
4899.03
4899.04
4899.04
4899.03
4899.01
4899.01
4899.03
4899.04
4899.03
4899
4898.98
4898.98
4899.02
4899.08
4899.12
4899.12
4899.07
4899.03
4899
4898.98
4898.95
4898.95
4899
4898.96
4898.93
4898.87
4898.88
4898.89
4898.91
4898.94
4898.96
4898.98
4898.99
4899
4899.02
4899.05
4899.08
4899.09
4899.08
4899.06
4899.06
4899.09
4899.13
4899.15
4899.14
4899.08
4899.02
4898.98
4898.96
4898.94
4898.92
4898.94
4898.92
4898.82
4898.86
4898.78
4898.79
4898.82
4898.85
4898.89
4898.93
4898.96
4898.99
4899.03
4899.07
4899.11
4899.14
4899.14
4899.13
4899.12
4899.13
4899.16
4899.16
4899.13
4899.07
4899.01
4898.99
4898.97
4898.95
4898.94
4898.93
4898.89
4898.81
4898.86
4898.79
4898.73
4898.77
4898.81
4898.85
4898.89
4898.92
4898.94
4898.98
4899.02
4899.06
4899.09
4899.1
4899.1
4899.1
4899.11
4899.12
4899.11
4899.07
4899
4898.96
4898.94
4898.95
4898.94
4898.9
4898.91
4898.9
4898.8
4898.82
4898.93
4898.75
4898.74
4898.78
4898.81
4898.82
4898.83
4898.85
4898.88
4898.93
4898.98
4899.02
4899.05
4899.06
4899.07
4899.08
4899.09
4899.08
4899.03
4898.97
4898.92
4898.9
4898.87
4898.86
4898.85
4898.81
4898.82
4898.81
4898.77
4898.89
4898.82
4898.74
4898.74
4898.74
4898.73
4898.73
4898.75
4898.8
4898.86
4898.93
4898.99
4899.03
4899.05
4899.06
4899.07
4899.09
4899.09
4899.07
4899.02
4898.98
4898.95
4898.93
4898.85
4898.79
4898.8
4898.76
4898.74
4898.77
4898.81
4898.8
4898.72
4898.7
4898.63
4898.63
4898.65
4898.7
4898.77
4898.83
4898.89
4898.93
4898.95
4898.96
4898.98
4899
4899.04
4899.06
4899.07
4899.07
4899.06
4899.05
4899
4898.94
4898.83
4898.75
4898.8
4898.74
4898.67
4898.74
4898.74
4898.63
4898.68
4898.58
4898.55
4898.6
4898.67
4898.73
4898.77
4898.79
4898.78
4898.78
4898.79
4898.83
4898.89
4898.97
4899.03
4899.06
4899.06
4899.06
4899.05
4899.01
4898.89
4898.81
4898.76
4898.69
4898.72
4898.65
4898.6
4898.66
4898.57
4898.57
4898.6
4898.5
4898.56
4898.62
4898.65
4898.65
4898.63
4898.62
4898.62
4898.66
4898.73
4898.84
4898.95
4899.02
4899.05
4899.04
4899.02
4898.98
4898.92
4898.85
4898.7
4898.67
4898.73
4898.63
4898.59
4898.57
4898.57
4898.56
4898.51
4898.52
4898.5
4898.46
4898.51
4898.5
4898.49
4898.49
4898.51
4898.54
4898.6
4898.67
4898.78
4898.88
4898.97
4899
4898.99
4898.97
4898.97
4898.94
4898.86
4898.82
4898.74
4898.74
4898.81
4898.62
4898.53
4898.58
4898.56
4898.48
4898.45
4898.4
4898.43
4898.34
4898.33
4898.34
4898.38
4898.43
4898.46
4898.49
4898.54
4898.62
4898.72
4898.81
4898.88
4898.9
4898.93
4898.94
4899
4898.99
4898.9
4898.89
4898.87
4898.81
4898.8
4898.6
4898.54
4898.59
4898.47
4898.38
4898.31
4898.36
4898.35
4898.14
4898.19
4898.25
4898.28
4898.28
4898.28
4898.33
4898.42
4898.55
4898.65
4898.72
4898.78
4898.81
4898.93
4898.95
4898.99
4898.96
4898.85
4898.87
4898.86
4898.7
4898.64
4898.54
4898.49
4898.45
4898.27
4898.23
4898.21
4898.26
4898.16
4897.98
4898.05
4898.04
4898.02
4898.04
4898.14
4898.27
4898.4
4898.49
4898.55
4898.6
4898.72
4898.76
4898.93
4898.95
4898.9
4898.9
4898.83
4898.84
4898.8
4898.54
4898.45
4898.45
4898.31
4898.18
4898.07
4898.06
4898.03
4897.94
4897.95
4897.77
4897.74
4897.72
4897.79
4897.93
4898.08
4898.18
4898.24
4898.31
4898.42
4898.53
4898.73
4898.72
4898.82
4898.9
4898.81
4898.84
4898.8
4898.71
4898.59
4898.37
4898.29
4898.3
4898.08
4897.92
4897.9
4897.83
4897.73
4897.74
4897.91
4897.43
4897.4
4897.5
4897.64
4897.76
4897.84
4897.89
4897.99
4898.16
4898.35
4898.42
4898.58
4898.64
4898.64
4898.85
4898.74
4898.66
4898.61
4898.5
4898.36
4898.29
4898.17
4898.05
4897.85
4897.67
4897.68
4897.54
4897.51
4897.63
4897.64
4897.07
4897.14
4897.23
4897.32
4897.39
4897.47
4897.6
4897.79
4897.98
4898.16
4898.22
4898.32
4898.62
4898.5
4898.63
4898.62
4898.53
4898.5
4898.48
4898.27
4898.13
4897.98
4897.74
4897.66
4897.43
4897.39
4897.27
4897.28
4897.2
4897.08
4896.72
4896.77
4896.85
4896.92
4896.99
4897.1
4897.33
4897.55
4897.66
4897.85
4898.11
4898.21
4898.5
4898.45
4898.37
4898.56
4898.55
4898.36
4898.27
4898.08
4897.89
4897.84
4897.55
4897.37
4897.13
4896.98
4897.02
4896.95
4896.69
4896.45
4896.29
4896.35
4896.39
4896.45
4896.6
4896.76
4896.94
4897.14
4897.41
4897.73
4897.82
4898.02
4898.11
4898.39
4898.27
4898.32
4898.32
4898.13
4898.05
4897.97
4897.71
4897.43
4897.12
4896.83
4896.88
4896.64
4896.41
4896.24
4896.44
4896.06
4895.8
4895.84
4895.81
4895.96
4896.16
4896.27
4896.46
4896.78
4896.96
4897.32
4897.28
4897.78
4897.92
4898.04
4898.06
4898.04
4898.11
4898.04
4897.76
4897.47
4897.32
4897.05
4896.76
4896.38
4896.28
4896.2
4895.89
4895.79
4895.85
4895.51
4895.18
4895.24
4895.33
4895.32
4895.35
4895.76
4896.01
4896.22
4896.43
4897.03
4897.1
4897.24
4897.75
4897.66
4897.83
4897.95
4897.82
4897.73
4897.56
4897.18
4896.9
4896.58
4896.27
4896.15
4895.52
4895.35
4895.37
4895.53
4895.12
4894.45
4894.53
4894.61
4894.59
4894.59
4894.65
4895
4895.25
4895.74
4895.75
4896.17
4896.83
4896.83
4897.16
4897.5
4897.44
4897.52
4897.69
4897.21
4896.99
4896.86
4896.43
4895.95
4895.6
4895.29
4894.94
4894.83
4894.67
4894.47
4894.86
4894.21
4894.04
4893.89
4893.66
4893.84
4893.79
4894.2
4894.27
4894.88
4895.2
4895.69
4895.63
4896.53
4896.86
4896.79
4897.2
4897.24
4896.98
4896.95
4896.78
4896.24
4895.96
4895.51
4894.94
4894.43
4894.26
4893.73
4893.71
4893.8
4894
4894.36
4893.98
4893.27
4892.76
4892.75
4892.67
4893.06
4893.2
4893.79
4894.46
4894.93
4894.98
4895.88
4896.35
4896.75
4896.65
4896.88
4896.75
4896.6
4896.01
4895.93
4895.55
4894.83
4893.92
4893.2
4893.15
4893.03
4892.84
4892.75
4893.2
4893.94
4895.66
4891.28
4892.12
4891.31
4890.87
4890.26
4889.4
4892.39
4893.16
4894.65
4892.63
4895.84
4894.59
4896.92
4894.38
4896.9
4894.29
4896.79
4892.5
4895.67
4895.92
4893.49
4892.71
4889.72
4890.21
4892.03
4891.58
4892.25
4890.89
4895.63
4260.58
3438.89
3978.71
3777.55
3702.7
3627.36
3326.01
3903.46
3808.04
4273
3524.75
4413.32
3556.94
4411.46
3353.2
4365.49
3435.47
4352.33
3279.81
4138.88
4278.55
3764.97
3942.5
3346.7
3504.09
3918.19
3795.83
4005.35
3407.29
4263
1514.16
329.175
825.494
423.317
536.48
371.948
260.46
642.58
418.871
1097.68
289.211
1234.18
384.653
1213.63
313.872
1148.5
344.701
1122.75
286.94
739.924
1179.16
406.245
676.162
231.042
351.973
737.151
440.719
864.088
325.682
1502.23
81.1044
25.248
25.1042
17.0582
28.957
24.8261
30.5281
27.8933
41.453
45.0858
35.3331
86.7568
31.3083
85.8772
37.0099
91.654
27.8311
68.087
24.2615
49.9796
50.8693
37.3906
21.0942
30.0076
37.5657
30.9727
20.9574
27.6309
22.4637
80.3684
0.17657
5.82519
1.10311
0.785939
5.07836
1.20253
7.25989
0.592919
8.07181
19.1504
2.7348
14.9669
1.01291
10.4063
1.06312
20.245
1.59506
5.34141
1.23883
4.55611
23.4199
4.12052
1.30927
9.4196
5.99359
4.53658
0.614389
1.91887
1.35005
0.163819
0.0384913
0.0407895
0.090428
0.075617
0.278656
0.0628661
0.0630956
0.142725
0.754939
0.404074
0.800603
0.868158
0.187734
0.466484
0.0914952
0.122287
0.177596
0.0982068
0.126354
0.272404
0.336764
1.06938
0.552366
0.0423292
0.0466592
0.1522
0.0547387
0.0852735
0.0460403
0.0410054
0.0302701
0.0300998
0.0481315
0.0280909
0.0317638
0.0271014
0.0393248
0.0487769
0.147212
0.0526426
0.136084
0.111875
0.110506
0.0736327
0.0643231
0.0553916
0.0999416
0.0688314
0.100853
0.0554512
0.0515081
0.242631
0.0662476
0.0329981
0.0284623
0.0293958
0.0282951
0.0415518
0.0315062
0.0312578
0.0287871
0.029373
0.0297822
0.0281961
0.0282626
0.0300586
0.0312705
0.0353475
0.0435963
0.0370983
0.0416878
0.0490381
0.0729943
0.0635999
0.0615611
0.0511912
0.0699658
0.0608944
0.060002
0.0400341
0.0351725
0.0492487
0.0348695
0.0310253
0.0302912
0.0289857
0.0290816
0.0314337
0.0298776
0.0293546
0.0268791
0.0270353
0.0274411
0.0278627
0.0280885
0.0285603
0.0294485
0.0301774
0.0315123
0.0327224
0.0345289
0.0373612
0.0399775
0.0451916
0.0600097
0.0554439
0.0443484
0.0349402
0.03425
0.0325703
0.0314289
0.0308083
0.0296369
0.0292541
0.0287287
0.0287605
0.0286996
0.0279802
0.0274286
0.0272244
0.0252172
0.0253064
0.0254403
0.0257655
0.0261337
0.0266259
0.0272035
0.0277271
0.0283876
0.0291046
0.0296233
0.0300026
0.0302104
0.0307825
0.0436612
0.0450642
0.0303713
0.0292485
0.0289196
0.0285278
0.0281414
0.0276641
0.0272844
0.0269935
0.0266583
0.0263749
0.0261122
0.0257846
0.0256118
0.0255197
0.0234479
0.0235291
0.0236299
0.0237867
0.0240397
0.0243901
0.0246849
0.0250037
0.0253358
0.0256436
0.0258461
0.0259274
0.0258933
0.0258334
0.0258955
0.026131
0.0254262
0.0252869
0.0251987
0.0251038
0.0249493
0.0247774
0.024643
0.0245224
0.0243681
0.0241595
0.024014
0.023869
0.0237783
0.0236778
0.021633
0.0216396
0.0217038
0.0217782
0.021893
0.0220315
0.0221495
0.0222585
0.0223204
0.022356
0.0223213
0.0222489
0.022128
0.0219744
0.0218373
0.0217642
0.021702
0.0216922
0.0217338
0.0217764
0.0218381
0.0218867
0.0219542
0.0219954
0.0220171
0.0219822
0.0219518
0.0218966
0.0218697
0.0218312
0.0197616
0.0197464
0.0197359
0.0197261
0.0197205
0.0197005
0.0196809
0.0196009
0.0194744
0.0193236
0.0191322
0.0189248
0.0187128
0.0185291
0.0183819
0.0183213
0.0183398
0.0184071
0.0185586
0.0187228
0.0189454
0.0191506
0.0193564
0.0195363
0.0196883
0.0198013
0.0198481
0.0198992
0.0199143
0.0199536
0.0178748
0.0178436
0.0177868
0.017717
0.0176208
0.0174984
0.0173391
0.0171101
0.0168738
0.0166013
0.0163002
0.0159837
0.01569
0.0154807
0.0153459
0.0152822
0.015341
0.0154879
0.0157174
0.0159787
0.016296
0.0166173
0.0169251
0.0172251
0.0174743
0.0176856
0.0178396
0.0179391
0.0180015
0.0180617
0.0160364
0.0160108
0.0159374
0.0158136
0.0156345
0.0154287
0.0151721
0.0148668
0.0145474
0.0141767
0.0137885
0.0134235
0.0131129
0.012877
0.0127292
0.0126754
0.0127626
0.0129749
0.0132516
0.0135892
0.0139584
0.0143476
0.0147224
0.0150907
0.0154232
0.0156946
0.0159344
0.0160769
0.0161676
0.0162327
0.0143444
0.0142902
0.0141723
0.014019
0.0138086
0.0135357
0.0132198
0.0128668
0.0124749
0.0120525
0.01164
0.0112556
0.0109233
0.0106609
0.0105046
0.0104783
0.0105899
0.0108272
0.011117
0.011488
0.011888
0.0123183
0.0127525
0.0131645
0.013551
0.0138794
0.0141424
0.0143289
0.0144526
0.0145216
0.0127317
0.012666
0.0125504
0.0123918
0.0121258
0.0118186
0.0114853
0.0111024
0.0106715
0.0102346
0.00981401
0.00940749
0.0090607
0.00881102
0.00867448
0.00866334
0.00877715
0.009013
0.00932073
0.00970867
0.0101221
0.0105639
0.0110237
0.0114603
0.011858
0.0122169
0.0125002
0.0127163
0.0128635
0.012932
0.0112499
0.0111848
0.0110745
0.0108813
0.0106075
0.0103149
0.0099638
0.00955429
0.00911698
0.00868529
0.00826022
0.00785151
0.00752345
0.00730125
0.00717066
0.00714832
0.00726059
0.00749433
0.0078101
0.00819447
0.008609
0.00905412
0.00951315
0.00994947
0.0103487
0.0107155
0.0110158
0.0112424
0.011389
0.0114508
0.00989868
0.00984269
0.00971797
0.00952397
0.00928169
0.00897578
0.00860691
0.00820698
0.00779325
0.007372
0.00694886
0.00656428
0.00627189
0.00606492
0.00593191
0.00590981
0.00603028
0.00625487
0.00655343
0.00691374
0.00731351
0.00774997
0.00819842
0.00862245
0.0090187
0.00938207
0.0096798
0.00989602
0.0100311
0.0100924
0.0086767
0.00861381
0.00849124
0.00832497
0.00808333
0.00776803
0.00742135
0.00704991
0.00665308
0.00624685
0.00585142
0.00550572
0.00523942
0.00503866
0.00491138
0.00490026
0.00501722
0.00521661
0.00548874
0.00583289
0.00622122
0.00663692
0.00706045
0.00746599
0.00785093
0.00820159
0.00848513
0.00868718
0.00881592
0.0088814
0.00756506
0.00750071
0.00740452
0.00724271
0.00699668
0.00671018
0.00638991
0.00603493
0.00566416
0.00529837
0.00494502
0.00463027
0.0043798
0.00419184
0.00408649
0.00408875
0.00419012
0.00435831
0.00460527
0.00493329
0.00530284
0.00568939
0.00608338
0.00646927
0.00683746
0.00716747
0.00743156
0.00762181
0.00774719
0.00781206
0.00655444
0.006514
0.00641918
0.00625188
0.00603672
0.0057823
0.00547458
0.00514401
0.00481673
0.00449145
0.00416988
0.00388193
0.0036538
0.00349119
0.00340685
0.00341123
0.00349383
0.00364171
0.00387113
0.00417754
0.00452055
0.00487808
0.00524668
0.00561276
0.00595821
0.00626098
0.00650213
0.00668002
0.00680085
0.00686302
0.00565346
0.00561483
0.00551438
0.00537713
0.00520183
0.00495506
0.00466326
0.00437156
0.00408236
0.00378775
0.0035011
0.00325198
0.00305426
0.00291239
0.00283736
0.00283804
0.00291083
0.00305007
0.00326366
0.00354239
0.00385504
0.00418659
0.00453266
0.00487435
0.00518909
0.00545992
0.00567842
0.00584585
0.00596402
0.00602591
0.00484143
0.00478751
0.00471213
0.00461412
0.00445138
0.00421609
0.00395739
0.00370081
0.0034417
0.0031807
0.00293829
0.00272457
0.00254523
0.00241467
0.00235105
0.0023613
0.00243853
0.00257365
0.0027687
0.00301905
0.00330472
0.00361092
0.00392705
0.00423422
0.00451533
0.00476046
0.00496399
0.00512342
0.00523618
0.00529437
0.00410031
0.00406301
0.0040201
0.00393138
0.00377247
0.00357218
0.00335004
0.00312268
0.0028942
0.00267208
0.00246429
0.00227187
0.00210778
0.00199867
0.00195776
0.00198019
0.0020552
0.00217759
0.0023527
0.00258002
0.00284259
0.00312232
0.00340684
0.00368384
0.0039419
0.00417087
0.00436053
0.00450497
0.0046033
0.00465323
0.00346519
0.00344712
0.00339939
0.00330654
0.00317888
0.00301975
0.00282771
0.00262674
0.00242651
0.00223304
0.00205004
0.00188269
0.00175214
0.00167661
0.00165268
0.0016712
0.00173197
0.00184059
0.00200269
0.00221342
0.00245473
0.0027093
0.00296811
0.00322332
0.00346351
0.00367455
0.00384366
0.00396687
0.00404883
0.0040913
0.00291259
0.00288639
0.00283212
0.00276547
0.00267705
0.00254289
0.00237227
0.00219182
0.00201546
0.00185209
0.00170434
0.00157824
0.00148618
0.00143041
0.00140514
0.00141493
0.00147265
0.00158296
0.00173959
0.00193049
0.00214255
0.00236779
0.00260226
0.00283753
0.00305811
0.00324727
0.0033937
0.00349717
0.00356663
0.00360256
0.00242378
0.002389
0.00236074
0.00232078
0.00224466
0.00212075
0.00196954
0.00181321
0.00167096
0.00154886
0.00144203
0.00135015
0.00127603
0.00122054
0.00119224
0.00120993
0.00128434
0.00140377
0.00154912
0.00171102
0.00188965
0.00208798
0.00230244
0.00251803
0.0027148
0.00287769
0.00300021
0.00308716
0.00314589
0.00317672
0.00200933
0.00199526
0.00197926
0.00193716
0.00186013
0.00175484
0.00163316
0.00151192
0.00140688
0.00131497
0.0012297
0.00115236
0.00108675
0.00104042
0.00103012
0.00107111
0.00115937
0.00127399
0.00139784
0.00153178
0.0016875
0.00186896
0.0020645
0.00225245
0.00241485
0.00254497
0.00264451
0.00271919
0.00277212
0.00280014
0.00167837
0.00167495
0.00164298
0.00159609
0.00153425
0.00146132
0.00137393
0.00128127
0.00119143
0.00110458
0.00102749
0.000968142
0.000929104
0.000914852
0.000934368
0.000990329
0.00107196
0.00116434
0.00126427
0.00138236
0.00152786
0.00169464
0.00186242
0.00201156
0.00213422
0.00223438
0.00231879
0.00238809
0.00243822
0.00246342
0.00140742
0.00138568
0.00135397
0.00131908
0.00127983
0.00123129
0.00116519
0.00108237
0.000989844
0.000905876
0.000849912
0.000824961
0.000822453
0.000837739
0.00087104
0.000920355
0.000981135
0.00105248
0.00114157
0.00125636
0.00139427
0.00153908
0.00167181
0.00178261
0.00187489
0.00195764
0.00203433
0.00209899
0.00214302
0.00216185
0.00116723
0.00115126
0.00113525
0.00110519
0.00107225
0.00103316
0.000978407
0.00090159
0.00081581
0.000753107
0.000728659
0.000730952
0.000744282
0.00076336
0.000790275
0.000826718
0.000874994
0.000941616
0.00103209
0.00114434
0.00126646
0.00138311
0.00148454
0.00157114
0.00164987
0.00172562
0.00179512
0.00184904
0.00188073
0.001891
0.000974585
0.000979964
0.000956586
0.000915842
0.000877857
0.000846277
0.000807031
0.000749594
0.000691603
0.000655441
0.000642541
0.000640554
0.00064267
0.000653082
0.000675322
0.000711018
0.000763017
0.000834313
0.000923586
0.00102321
0.00112255
0.00121458
0.00129901
0.00137945
0.00145792
0.00153027
0.00158902
0.00162773
0.00164624
0.00165022
0.000823391
0.000820288
0.000774315
0.000727212
0.000697695
0.000684633
0.000667703
0.00063831
0.000604414
0.000572873
0.000543372
0.000519109
0.000510444
0.000522325
0.00055296
0.000598342
0.000655637
0.000723611
0.000799624
0.000879479
0.000959417
0.00103973
0.00112264
0.0012075
0.00128802
0.00135503
0.00140179
0.00142853
0.00144051
0.00144473
0.000665457
0.000640801
0.000598271
0.00056684
0.000557195
0.000559199
0.00055435
0.000538207
0.00050988
0.000469895
0.000426846
0.000396965
0.000394071
0.000418188
0.000458484
0.0005043
0.000552688
0.00060469
0.000662193
0.000726369
0.000798282
0.000878344
0.000964558
0.00105064
0.00112712
0.0011864
0.0012264
0.00125206
0.00126888
0.00128015
0.000497925
0.00048178
0.000459444
0.000446547
0.00044205
0.000433718
0.000420074
0.000404924
0.000383394
0.000352407
0.000321322
0.00030975
0.000323386
0.000352626
0.000385115
0.000414946
0.000445084
0.000482017
0.000530239
0.000590379
0.000661589
0.000740955
0.000823042
0.000900582
0.000967188
0.00102137
0.00106505
0.0011011
0.00113065
0.00115103
0.000357522
0.000358347
0.000344761
0.000329042
0.000304599
0.000275486
0.000257627
0.000253299
0.000251769
0.000248427
0.000250518
0.000262548
0.000280887
0.000298094
0.000311137
0.000324775
0.000346783
0.000382721
0.000433352
0.000495433
0.000563605
0.00063249
0.00069814
0.000758854
0.000815309
0.000868997
0.000921703
0.00097091
0.00101194
0.00103669
0.000235868
0.000225224
0.000206427
0.000182462
0.000150281
0.000125284
0.000122032
0.000137942
0.00016313
0.000190604
0.000216975
0.000237377
0.000247945
0.000251012
0.000255265
0.000270685
0.000302688
0.000349458
0.000404428
0.000460337
0.000511825
0.000557115
0.000597881
0.000638746
0.000684562
0.000737215
0.000793971
0.000848018
0.000890089
0.000911364
9.52489e-05
6.95213e-05
6.0186e-05
4.9104e-05
3.77375e-05
3.86104e-05
5.47426e-05
8.24403e-05
0.000118172
0.000157113
0.000190909
0.000212313
0.000222034
0.000229541
0.000246467
0.000278709
0.000324346
0.000375323
0.000422404
0.000459759
0.0004865
0.000506452
0.000525863
0.000551051
0.000586237
0.000630423
0.000678067
0.000720929
0.000750869
0.000762871
-2.96176e-05
-4.01637e-05
-2.843e-05
-1.51215e-05
-2.30763e-06
9.56764e-06
2.11282e-05
3.83695e-05
6.69527e-05
0.000104594
0.000142546
0.000174245
0.000201213
0.000230868
0.000268746
0.000314374
0.000361631
0.000402638
0.000432322
0.000450394
0.000460351
0.000468634
0.000479367
0.000496242
0.000519401
0.000545824
0.000570648
0.000589449
0.000599733
0.000602029
-7.54678e-05
-6.18341e-05
-3.98618e-05
-2.0205e-05
-1.11742e-05
-1.50071e-05
-2.26261e-05
-1.92521e-05
3.12729e-06
4.16064e-05
8.7808e-05
0.000136113
0.000185144
0.0002349
0.000284247
0.000329488
0.000366439
0.000393053
0.000410609
0.000422826
0.000433422
0.000444911
0.000457174
0.000468221
0.000475688
0.000477701
0.000474031
0.000466841
0.000459917
0.000457325
-5.73423e-05
-4.41733e-05
-3.11739e-05
-2.65374e-05
-3.57962e-05
-5.20874e-05
-6.16496e-05
-5.36939e-05
-2.72499e-05
1.32551e-05
6.22665e-05
0.00011607
0.000171614
0.000225061
0.000272229
0.000310297
0.000339235
0.000361837
0.00038185
0.000402002
0.000422382
0.000440364
0.000451808
0.000452955
0.00044223
0.000421595
0.000396281
0.000373261
0.000359413
0.0003584
-3.80148e-05
-3.67248e-05
-3.97e-05
-5.13605e-05
-6.48469e-05
-7.00603e-05
-5.9535e-05
-3.7075e-05
-8.5628e-06
2.32011e-05
5.89392e-05
9.97739e-05
0.000144555
0.000189927
0.0002321
0.000269692
0.000303674
0.000335915
0.000367466
0.00039761
0.000422988
0.000439051
0.000441957
0.000430698
0.000406879
0.000376214
0.0003462
0.000324224
0.000315492
0.000320193
-2.82976e-05
-2.93535e-05
-4.22195e-05
-5.90329e-05
-6.31528e-05
-4.9103e-05
-2.43439e-05
-6.12747e-07
1.65106e-05
2.94535e-05
4.45664e-05
6.71602e-05
9.87973e-05
0.000138452
0.000182955
0.000229511
0.000276017
0.000320054
0.000358861
0.000389253
0.000408026
0.000413341
0.000405567
0.000387688
0.000364601
0.00034213
0.000325694
0.00031851
0.000321063
0.00032999
-9.19773e-06
-6.38628e-06
-2.46887e-05
-3.92834e-05
-3.59595e-05
-1.95407e-05
-2.10365e-06
8.19696e-06
1.14729e-05
1.3435e-05
2.08593e-05
3.87768e-05
6.91126e-05
0.000110719
0.000160129
0.000212742
0.00026315
0.000306097
0.000337415
0.000354972
0.000359001
0.000352444
0.000339931
0.000326825
0.000317852
0.000315853
0.000321171
0.000331751
0.00034362
0.000352188
3.0813e-06
-1.18247e-06
-2.03815e-05
-3.0428e-05
-2.89479e-05
-2.35224e-05
-1.95567e-05
-1.62613e-05
-9.64595e-06
3.57719e-06
2.50185e-05
5.49412e-05
9.27564e-05
0.000136425
0.000182496
0.000226308
0.000262732
0.000287521
0.00029854
0.000296922
0.000286684
0.000273788
0.000264294
0.000262771
0.000271162
0.000287979
0.000309429
0.000329968
0.00034403
0.000348246
-2.51602e-05
-4.22277e-05
-5.37391e-05
-5.651e-05
-5.62773e-05
-5.63155e-05
-5.24773e-05
-3.9179e-05
-1.36607e-05
2.20673e-05
6.36412e-05
0.000106832
0.000148595
0.000186662
0.000218846
0.000242775
0.000256332
0.000258673
0.000250901
0.000236442
0.00022024
0.000208382
0.000205169
0.00021232
0.000228893
0.000251331
0.000274369
0.00029247
0.000301399
0.000300875
-7.87423e-05
-9.35987e-05
-9.0154e-05
-8.12253e-05
-7.54263e-05
-6.99167e-05
-5.72415e-05
-3.27959e-05
3.71982e-06
4.77366e-05
9.3274e-05
0.000135313
0.000170548
0.000197302
0.00021499
0.000223679
0.000223983
0.000217731
0.000206891
0.000194707
0.000184113
0.000178429
0.000179118
0.000185967
0.000197134
0.000209625
0.00022011
0.000225877
0.000225813
0.000221751
-9.94594e-05
-9.68695e-05
-7.73509e-05
-5.84451e-05
-4.56769e-05
-3.53802e-05
-2.2692e-05
-4.97098e-06
1.81181e-05
4.47857e-05
7.233e-05
9.84222e-05
0.000121024
0.000139088
0.000152549
0.000162026
0.000168505
0.000173061
0.000176392
0.000179026
0.000181106
0.00018254
0.000182885
0.000181546
0.000177981
0.000171932
0.000163618
0.000154016
0.000145063
0.000139394
-6.41872e-05
-4.4684e-05
-1.917e-05
1.56632e-06
1.46243e-05
2.05474e-05
2.04821e-05
1.66303e-05
1.20527e-05
1.01799e-05
1.31423e-05
2.13497e-05
3.41155e-05
5.03091e-05
6.90979e-05
8.98927e-05
0.00011226
0.000134896
0.00015628
0.000174267
0.000186627
0.000191621
0.000188395
0.00017725
0.000159677
0.000138099
0.000115467
9.54132e-05
8.11714e-05
7.53736e-05
-1.12365e-05
8.96283e-06
2.80993e-05
4.26211e-05
4.97403e-05
4.74444e-05
3.56079e-05
1.69186e-05
-3.64543e-06
-2.07874e-05
-3.05479e-05
-3.13311e-05
-2.32492e-05
-7.64839e-06
1.39377e-05
3.99704e-05
6.86219e-05
9.74275e-05
0.00012381
0.00014488
0.000158099
0.000161837
0.000155769
0.000141011
0.00011993
9.56035e-05
7.17698e-05
5.18899e-05
3.88564e-05
3.44892e-05
8.42812e-06
1.5786e-05
2.28641e-05
2.7741e-05
2.86578e-05
2.45608e-05
1.5801e-05
4.10397e-06
-7.86797e-06
-1.75411e-05
-2.31211e-05
-2.38733e-05
-1.99008e-05
-1.17988e-05
-5.11731e-07
1.29002e-05
2.72482e-05
4.11747e-05
5.33521e-05
6.24948e-05
6.76124e-05
6.81846e-05
6.42946e-05
5.66766e-05
4.65904e-05
3.5513e-05
2.50342e-05
1.66015e-05
1.13185e-05
9.85655e-06
4899.07
4899.07
4899.07
4899.07
4899.07
4899.07
4899.06
4899.06
4899.06
4899.06
4899.05
4899.05
4899.05
4899.05
4899.05
4899.06
4899.06
4899.06
4899.06
4899.06
4899.06
4899.06
4899.06
4899.06
4899.06
4899.07
4899.07
4899.07
4899.07
4899.08
4899.07
4899.07
4899.07
4899.07
4899.07
4899.07
4899.06
4899.06
4899.06
4899.06
4899.05
4899.05
4899.05
4899.05
4899.05
4899.06
4899.06
4899.06
4899.06
4899.06
4899.06
4899.06
4899.06
4899.06
4899.07
4899.07
4899.07
4899.07
4899.07
4899.07
4899.07
4899.07
4899.07
4899.07
4899.07
4899.06
4899.06
4899.06
4899.06
4899.06
4899.05
4899.05
4899.05
4899.05
4899.05
4899.05
4899.05
4899.05
4899.05
4899.06
4899.06
4899.06
4899.06
4899.06
4899.07
4899.07
4899.07
4899.07
4899.09
4899.07
4899.06
4899.06
4899.06
4899.06
4899.06
4899.06
4899.06
4899.06
4899.06
4899.06
4899.06
4899.06
4899.05
4899.05
4899.05
4899.05
4899.05
4899.05
4899.05
4899.05
4899.06
4899.06