/*--------------------------------*- C++ -*----------------------------------*\
| =========                 |                                                 |
| \\      /  F ield         | OpenFOAM: The Open Source CFD Toolbox           |
|  \\    /   O peration     | Version:  2312                                  |
|   \\  /    A nd           | Website:  www.openfoam.com                      |
|    \\/     M anipulation  |                                                 |
\*---------------------------------------------------------------------------*/
FoamFile
{
    version     2.0;
    format      ascii;
    arch        "LSB;label=32;scalar=64";
    class       volVectorField;
    location    "1.4126785425";
    object      U;
}
// * * * * * * * * * * * * * * * * * * * * * * * * * * * * * * * * * * * * * //

dimensions      [0 1 -1 0 0 0 0];

internalField   nonuniform List<vector> 
90000
(
(-3.24966e-05 4.203e-05 -3.24966e-05)
(-1.44587e-05 -1.50715e-05 -2.10059e-05)
(3.09829e-05 -1.05513e-06 -1.77182e-05)
(3.57386e-05 -1.30298e-07 -1.52573e-05)
(4.8375e-05 -1.8714e-06 -1.12799e-05)
(5.64561e-05 -4.48116e-06 -6.96243e-06)
(6.37785e-05 -6.92079e-06 -2.4523e-06)
(6.92702e-05 -8.1144e-06 1.62e-06)
(7.05468e-05 -7.28937e-06 4.64287e-06)
(6.57485e-05 -4.16468e-06 6.16011e-06)
(5.45692e-05 5.97736e-07 6.11295e-06)
(3.78781e-05 5.72017e-06 4.98282e-06)
(1.7764e-05 9.97737e-06 2.83683e-06)
(-1.63577e-06 1.1825e-05 -1.6034e-07)
(-1.61364e-05 1.04612e-05 -3.61364e-06)
(-2.27516e-05 6.73336e-06 -5.79716e-06)
(-2.00797e-05 1.37536e-06 -6.10853e-06)
(-1.07877e-05 -3.92849e-06 -4.40503e-06)
(-5.49796e-07 -6.82752e-06 -6.73002e-07)
(4.29922e-06 -5.69711e-06 3.53734e-06)
(-8.19972e-07 -7.44005e-07 6.31793e-06)
(-1.90813e-05 6.13752e-06 6.51086e-06)
(-4.90402e-05 1.29838e-05 3.87465e-06)
(-8.19299e-05 1.60279e-05 -1.93076e-06)
(-0.000106805 1.19936e-05 -9.66943e-06)
(-0.000111436 7.97066e-07 -1.74588e-05)
(-8.17656e-05 -1.65647e-05 -2.78843e-05)
(-3.45118e-05 -2.43152e-05 -5.75371e-05)
(0.000132873 -1.3724e-05 -0.000127264)
(0.000141312 0.000268686 -0.000290948)
(4.5891e-06 6.59059e-05 4.58909e-06)
(7.5862e-06 -3.38157e-05 4.54696e-06)
(5.86074e-06 -1.01188e-05 3.69681e-06)
(5.88078e-06 -7.92018e-06 2.46236e-06)
(7.13625e-06 -1.14402e-05 1.74945e-06)
(1.05455e-05 -1.61567e-05 9.38058e-07)
(1.59443e-05 -2.03755e-05 1.36766e-07)
(2.27175e-05 -2.20021e-05 -6.04101e-07)
(2.99582e-05 -1.96972e-05 -1.11767e-06)
(3.6529e-05 -1.30655e-05 -8.74896e-07)
(4.11644e-05 -3.38026e-06 1.95352e-07)
(4.33089e-05 6.38848e-06 2.0779e-06)
(4.25967e-05 1.30622e-05 4.70174e-06)
(3.8967e-05 1.48062e-05 8.16683e-06)
(3.24821e-05 1.04091e-05 1.14719e-05)
(2.28982e-05 1.77159e-06 1.40614e-05)
(1.10418e-05 -8.20222e-06 1.5464e-05)
(-1.48139e-06 -1.6398e-05 1.51157e-05)
(-1.343e-05 -1.90802e-05 1.28087e-05)
(-2.41897e-05 -1.41777e-05 9.43283e-06)
(-3.36182e-05 -2.85549e-06 6.08822e-06)
(-4.18632e-05 1.1467e-05 3.77295e-06)
(-4.90084e-05 2.34731e-05 2.47473e-06)
(-5.32085e-05 2.48947e-05 2.96207e-06)
(-5.34777e-05 1.22901e-05 5.92664e-06)
(-5.26435e-05 -1.4022e-05 1.43147e-05)
(-4.69994e-05 -5.57138e-05 2.76695e-05)
(-7.92124e-05 -0.000118674 6.22053e-05)
(6.21219e-05 -0.000177244 7.74996e-05)
(0.000126949 0.000547878 4.8624e-05)
(1.53556e-05 3.16816e-05 1.53556e-05)
(9.29385e-06 -3.04163e-05 9.11683e-06)
(-1.46921e-05 -1.24347e-05 7.54968e-06)
(-2.18919e-05 -1.07982e-05 5.0458e-06)
(-2.88942e-05 -1.4759e-05 2.54129e-06)
(-3.23317e-05 -2.03601e-05 -4.28104e-07)
(-3.103e-05 -2.58537e-05 -3.27104e-06)
(-2.41328e-05 -2.88548e-05 -5.63736e-06)
(-1.17781e-05 -2.85039e-05 -7.06172e-06)
(5.31625e-06 -2.39666e-05 -7.1163e-06)
(2.50708e-05 -1.65665e-05 -5.54155e-06)
(4.41621e-05 -8.82341e-06 -2.19773e-06)
(5.94326e-05 -3.10261e-06 2.69612e-06)
(6.70316e-05 -1.00423e-06 7.30098e-06)
(6.38145e-05 -2.65059e-06 1.12722e-05)
(4.95876e-05 -6.71766e-06 1.38814e-05)
(2.63171e-05 -1.12045e-05 1.38181e-05)
(-1.61681e-06 -1.44259e-05 1.10876e-05)
(-2.74295e-05 -1.40055e-05 6.51537e-06)
(-4.47484e-05 -9.01735e-06 1.20957e-06)
(-5.02697e-05 -4.36017e-07 -3.2667e-06)
(-4.37078e-05 9.23925e-06 -5.0775e-06)
(-2.69702e-05 1.49831e-05 -4.31398e-06)
(-5.13306e-06 9.70259e-06 -1.7817e-06)
(1.58941e-05 -6.91405e-06 8.99072e-07)
(3.10217e-05 -3.0092e-05 2.0735e-06)
(3.86249e-05 -5.54723e-05 8.70103e-06)
(-3.26665e-05 -0.00016336 3.96174e-05)
(-7.46044e-05 -0.000400563 9.77657e-05)
(-1.90349e-05 0.000444176 0.000157621)
(1.64629e-05 -4.05688e-06 1.64629e-05)
(6.28902e-06 -1.29586e-05 9.95776e-06)
(-2.48543e-05 -1.54027e-06 8.16676e-06)
(-3.59203e-05 -1.05128e-06 5.59833e-06)
(-4.68477e-05 -5.31578e-06 2.40289e-06)
(-5.42923e-05 -1.25298e-05 -1.08307e-06)
(-5.66004e-05 -2.08655e-05 -4.23297e-06)
(-5.22264e-05 -2.8058e-05 -7.05277e-06)
(-4.07736e-05 -3.31326e-05 -9.01733e-06)
(-2.28295e-05 -3.45369e-05 -9.84126e-06)
(-9.07166e-08 -3.26528e-05 -9.38269e-06)
(2.40659e-05 -2.8175e-05 -7.46481e-06)
(4.47387e-05 -2.11923e-05 -4.38861e-06)
(5.72766e-05 -1.29251e-05 -1.08802e-06)
(5.85739e-05 -3.98813e-06 1.43238e-06)
(4.76019e-05 4.61136e-06 1.6842e-06)
(2.64991e-05 1.07718e-05 2.10952e-07)
(6.99524e-07 1.36795e-05 -2.4384e-06)
(-2.23845e-05 1.33126e-05 -5.44457e-06)
(-3.58311e-05 1.07119e-05 -8.00279e-06)
(-3.53441e-05 7.20904e-06 -9.63653e-06)
(-1.98132e-05 3.73181e-06 -9.72582e-06)
(7.17398e-06 -5.88198e-07 -7.90885e-06)
(3.7076e-05 -9.33955e-06 -4.26741e-06)
(6.10557e-05 -2.32889e-05 8.89009e-07)
(7.81122e-05 -3.84204e-05 1.38519e-06)
(0.000103044 -3.54274e-05 -1.60478e-05)
(0.000109208 -5.01188e-05 -1.96724e-05)
(-5.75925e-05 -0.000353926 -1.1331e-06)
(-0.000109099 0.000219976 7.36016e-05)
(1.42277e-05 -3.5644e-05 1.42277e-05)
(4.3455e-06 7.94301e-06 8.81594e-06)
(-2.35327e-05 1.09524e-05 7.64607e-06)
(-3.35282e-05 1.02728e-05 5.87544e-06)
(-4.40607e-05 6.27121e-06 3.89009e-06)
(-5.22094e-05 -1.68395e-06 1.57038e-06)
(-5.69995e-05 -1.24872e-05 -7.58166e-07)
(-5.76436e-05 -2.38996e-05 -2.19251e-06)
(-5.33506e-05 -3.36967e-05 -4.39601e-06)
(-4.34727e-05 -4.08541e-05 -5.9243e-06)
(-2.89379e-05 -4.37805e-05 -7.09458e-06)
(-1.18012e-05 -4.1277e-05 -7.60666e-06)
(4.92984e-06 -3.26744e-05 -7.97893e-06)
(1.80567e-05 -1.76423e-05 -8.15247e-06)
(2.55458e-05 1.94247e-06 -8.71101e-06)
(2.58319e-05 2.20429e-05 -9.26294e-06)
(1.89668e-05 3.75947e-05 -9.43136e-06)
(7.94814e-06 4.48704e-05 -9.5205e-06)
(-1.99386e-06 4.17496e-05 -9.83489e-06)
(-5.75084e-06 3.01138e-05 -9.99412e-06)
(1.78401e-07 1.43996e-05 -9.80571e-06)
(1.63157e-05 -7.22793e-07 -9.00531e-06)
(3.89656e-05 -1.25834e-05 -7.65921e-06)
(6.22756e-05 -2.14698e-05 -5.43259e-06)
(7.86936e-05 -2.85277e-05 -1.16247e-06)
(8.12945e-05 -4.01691e-05 6.21548e-06)
(7.69165e-05 -4.12337e-05 3.88195e-06)
(0.000100636 3.62368e-05 -8.12613e-06)
(-1.34015e-05 -0.000151447 -1.75742e-05)
(-7.87657e-05 0.000105915 1.16343e-05)
(7.23024e-06 -5.74059e-05 7.23023e-06)
(1.91916e-06 2.4172e-05 4.60822e-06)
(-1.14044e-05 2.01154e-05 4.92342e-06)
(-1.49296e-05 1.75998e-05 4.9578e-06)
(-1.98382e-05 1.37135e-05 5.32855e-06)
(-2.52101e-05 5.51053e-06 5.43088e-06)
(-3.10804e-05 -6.39682e-06 5.40126e-06)
(-3.72431e-05 -1.98471e-05 5.34372e-06)
(-4.34441e-05 -3.19823e-05 4.94754e-06)
(-4.83086e-05 -4.20224e-05 3.36175e-06)
(-5.02229e-05 -4.75847e-05 5.72961e-07)
(-4.83001e-05 -4.66699e-05 -2.44919e-06)
(-4.19447e-05 -3.78068e-05 -5.62231e-06)
(-3.12493e-05 -2.03184e-05 -8.62878e-06)
(-1.75545e-05 3.95453e-06 -1.08008e-05)
(-3.04636e-06 2.9395e-05 -1.19149e-05)
(9.81516e-06 4.95957e-05 -1.1301e-05)
(1.94303e-05 5.86668e-05 -9.51833e-06)
(2.6427e-05 5.37828e-05 -7.19371e-06)
(3.23685e-05 3.77843e-05 -4.95824e-06)
(3.88498e-05 1.68752e-05 -3.47705e-06)
(4.72282e-05 -2.68236e-06 -2.67617e-06)
(5.71311e-05 -1.64242e-05 -2.46535e-06)
(6.63603e-05 -2.22648e-05 -2.83984e-06)
(7.20256e-05 -1.98866e-05 -4.10632e-06)
(6.87586e-05 -1.5468e-05 -3.76272e-06)
(2.89357e-05 -1.75734e-05 -1.41781e-06)
(3.50562e-05 5.6942e-05 -1.42503e-05)
(-1.00859e-05 -1.47175e-05 -2.88646e-05)
(-4.97991e-05 8.70234e-05 -1.83268e-05)
(-4.44606e-06 -5.99827e-05 -4.44607e-06)
(-2.81154e-06 2.98313e-05 -3.10272e-06)
(6.54831e-06 2.08039e-05 -1.16662e-06)
(1.35162e-05 1.66549e-05 4.00105e-07)
(1.89804e-05 1.24397e-05 3.13585e-06)
(2.00084e-05 4.93856e-06 6.09603e-06)
(1.49158e-05 -5.2918e-06 8.84447e-06)
(3.45269e-06 -1.68193e-05 1.09033e-05)
(-1.34904e-05 -2.77943e-05 1.19224e-05)
(-3.38046e-05 -3.70326e-05 1.13399e-05)
(-5.40228e-05 -4.2903e-05 9.23181e-06)
(-6.94787e-05 -4.41782e-05 5.01438e-06)
(-7.5478e-05 -3.89234e-05 -2.86952e-07)
(-6.97986e-05 -2.59626e-05 -4.75202e-06)
(-5.352e-05 -6.2534e-06 -7.51071e-06)
(-2.93967e-05 1.60493e-05 -7.93603e-06)
(-1.64618e-06 3.47975e-05 -6.45988e-06)
(2.42865e-05 4.44655e-05 -3.18403e-06)
(4.45826e-05 4.17847e-05 8.99979e-07)
(5.7581e-05 2.88178e-05 4.34911e-06)
(6.36154e-05 1.06658e-05 6.59565e-06)
(6.40959e-05 -6.54745e-06 7.4584e-06)
(6.05365e-05 -1.66165e-05 7.3792e-06)
(5.28809e-05 -1.6934e-05 6.63065e-06)
(4.08861e-05 -6.41889e-06 3.695e-06)
(2.83946e-05 1.7557e-05 -2.50612e-06)
(-6.30084e-06 3.26015e-05 -7.28379e-06)
(-2.00429e-05 9.13539e-05 -1.7029e-05)
(-3.01519e-05 6.62764e-05 -2.58863e-05)
(-2.88775e-05 7.5614e-05 -1.62256e-05)
(-1.81532e-05 -3.57499e-05 -1.81532e-05)
(-1.01909e-05 2.36294e-05 -1.35416e-05)
(2.32067e-05 1.25236e-05 -1.11771e-05)
(4.12373e-05 7.97689e-06 -8.30195e-06)
(5.77178e-05 4.11273e-06 -3.9624e-06)
(6.62088e-05 -2.49234e-07 7.75904e-07)
(6.4016e-05 -4.98826e-06 5.40612e-06)
(5.00774e-05 -1.05151e-05 9.23402e-06)
(2.58764e-05 -1.58867e-05 1.15429e-05)
(-5.08465e-06 -2.12266e-05 1.18319e-05)
(-3.77185e-05 -2.65771e-05 1.02362e-05)
(-6.54237e-05 -3.16976e-05 7.29055e-06)
(-8.22732e-05 -3.48892e-05 3.99834e-06)
(-8.47451e-05 -3.3275e-05 5.64472e-07)
(-7.21984e-05 -2.59569e-05 -1.77643e-06)
(-4.76398e-05 -1.3959e-05 -1.98738e-06)
(-1.5938e-05 -1.10133e-06 -9.92395e-08)
(1.67272e-05 7.7824e-06 3.13637e-06)
(4.41225e-05 9.39398e-06 6.94019e-06)
(6.19805e-05 3.27355e-06 1.0276e-05)
(6.88984e-05 -7.56797e-06 1.31657e-05)
(6.61126e-05 -1.77669e-05 1.5086e-05)
(5.51533e-05 -2.08549e-05 1.56271e-05)
(3.67819e-05 -1.33357e-05 1.45688e-05)
(1.13265e-05 4.97227e-06 1.16734e-05)
(-1.34133e-05 3.6847e-05 4.89719e-06)
(-3.74464e-05 6.59609e-05 -1.01034e-06)
(-4.32985e-05 0.00010049 -7.53805e-06)
(-2.72819e-05 8.4165e-05 -7.92431e-06)
(-9.86481e-06 4.96799e-05 4.01344e-06)
(-2.77763e-05 1.4287e-05 -2.77763e-05)
(-1.35705e-05 5.91706e-06 -2.18578e-05)
(3.71873e-05 -1.38202e-06 -1.96048e-05)
(6.13583e-05 -4.85957e-06 -1.57072e-05)
(8.43065e-05 -5.98574e-06 -1.09141e-05)
(9.66556e-05 -4.52077e-06 -5.68978e-06)
(9.6616e-05 -7.15526e-07 -7.49875e-07)
(8.35131e-05 3.75686e-06 2.71086e-06)
(5.89659e-05 6.96797e-06 5.47764e-06)
(2.68705e-05 6.87289e-06 7.01714e-06)
(-7.50957e-06 1.59929e-06 7.3775e-06)
(-3.81412e-05 -9.26502e-06 6.71577e-06)
(-6.00277e-05 -2.38362e-05 5.93629e-06)
(-7.04441e-05 -3.67524e-05 5.19731e-06)
(-6.83787e-05 -4.47781e-05 4.60911e-06)
(-5.47428e-05 -4.58924e-05 4.25906e-06)
(-3.25196e-05 -4.11335e-05 5.03453e-06)
(-6.0607e-06 -3.48138e-05 6.46976e-06)
(1.9528e-05 -3.07083e-05 8.24084e-06)
(3.96307e-05 -3.06514e-05 1.00848e-05)
(5.0895e-05 -3.29579e-05 1.15987e-05)
(5.11817e-05 -3.38578e-05 1.31255e-05)
(4.02722e-05 -2.84323e-05 1.36709e-05)
(2.0381e-05 -1.25608e-05 1.24092e-05)
(-5.10854e-06 1.34698e-05 9.68032e-06)
(-2.73559e-05 4.44686e-05 5.46501e-06)
(-3.81244e-05 6.96152e-05 3.93971e-06)
(-2.87623e-05 7.52079e-05 6.15676e-06)
(-3.16823e-06 4.99294e-05 1.31638e-05)
(5.85534e-06 1.52786e-05 1.59704e-05)
(-2.87411e-05 7.45326e-05 -2.87411e-05)
(-1.0444e-05 -2.15275e-05 -2.15046e-05)
(4.43224e-05 -2.0262e-05 -1.8477e-05)
(6.76627e-05 -2.14832e-05 -1.42511e-05)
(8.93429e-05 -1.73301e-05 -9.74076e-06)
(9.94033e-05 -7.81422e-06 -5.61427e-06)
(9.85104e-05 5.86394e-06 -2.16183e-06)
(8.78593e-05 2.08303e-05 6.0282e-07)
(6.96632e-05 3.24413e-05 2.08849e-06)
(4.70802e-05 3.67562e-05 3.62358e-06)
(2.27337e-05 3.05538e-05 5.67212e-06)
(-1.26136e-06 1.37613e-05 7.88044e-06)
(-2.26121e-05 -1.0096e-05 9.85437e-06)
(-3.98655e-05 -3.478e-05 1.13167e-05)
(-5.18535e-05 -5.47279e-05 1.18278e-05)
(-5.66992e-05 -6.66719e-05 1.12433e-05)
(-5.29334e-05 -7.03299e-05 9.30321e-06)
(-4.02991e-05 -6.85542e-05 6.7915e-06)
(-2.14914e-05 -6.4727e-05 4.64441e-06)
(-1.37374e-06 -6.03513e-05 3.39499e-06)
(1.41809e-05 -5.51047e-05 2.87574e-06)
(2.05578e-05 -4.61843e-05 2.41288e-06)
(1.60921e-05 -3.06102e-05 9.46858e-07)
(4.24337e-06 -6.47034e-06 -1.23774e-06)
(-8.96454e-06 2.35103e-05 -3.53439e-06)
(-1.57616e-05 4.60342e-05 -3.58852e-06)
(-8.8766e-06 5.29355e-05 1.05749e-06)
(8.67039e-06 3.69176e-05 6.98843e-06)
(1.68631e-05 1.36961e-05 1.07523e-05)
(7.97516e-06 5.94986e-06 4.75655e-06)
(-1.26853e-05 0.000111644 -1.26853e-05)
(6.32996e-06 -5.78134e-05 -4.0394e-06)
(4.213e-05 -4.58974e-05 -1.07982e-06)
(5.36383e-05 -4.27191e-05 1.7327e-06)
(6.16624e-05 -3.24358e-05 4.38139e-06)
(6.21687e-05 -1.49293e-05 5.4258e-06)
(5.81072e-05 7.17577e-06 4.97214e-06)
(5.23907e-05 2.83179e-05 3.60192e-06)
(4.70099e-05 4.44198e-05 3.12909e-06)
(4.21829e-05 5.09431e-05 4.09163e-06)
(3.62216e-05 4.42597e-05 6.24095e-06)
(2.66061e-05 2.55039e-05 9.61102e-06)
(1.10443e-05 -6.52584e-07 1.28725e-05)
(-1.05492e-05 -2.8345e-05 1.44184e-05)
(-3.519e-05 -5.14963e-05 1.41123e-05)
(-5.71378e-05 -6.79896e-05 1.13134e-05)
(-7.05709e-05 -7.75796e-05 6.68963e-06)
(-7.2105e-05 -8.19035e-05 1.48606e-06)
(-6.23075e-05 -8.19617e-05 -3.10617e-06)
(-4.56652e-05 -7.73275e-05 -6.20582e-06)
(-2.82857e-05 -6.73965e-05 -8.28719e-06)
(-1.55535e-05 -4.99571e-05 -9.96923e-06)
(-9.57614e-06 -2.4377e-05 -1.19567e-05)
(-6.56404e-06 5.56228e-06 -1.29315e-05)
(-1.50152e-06 3.1736e-05 -1.18689e-05)
(9.94699e-06 4.25952e-05 -8.28266e-06)
(2.57092e-05 3.66104e-05 -3.02086e-06)
(3.30183e-05 2.31149e-05 5.35994e-07)
(2.03293e-05 2.2915e-05 -2.10471e-06)
(4.32843e-06 2.79611e-05 -7.22743e-06)
(1.80125e-05 9.39986e-05 1.80125e-05)
(2.97226e-05 -9.60762e-05 2.29752e-05)
(2.20615e-05 -7.65286e-05 2.63086e-05)
(1.23053e-05 -6.63033e-05 2.49632e-05)
(-2.66982e-06 -5.05571e-05 2.2058e-05)
(-1.49318e-05 -2.8017e-05 1.67471e-05)
(-2.16565e-05 -2.43864e-06 1.00797e-05)
(-1.9321e-05 2.08986e-05 4.47068e-06)
(-7.38505e-06 3.71191e-05 5.52978e-07)
(9.86769e-06 4.37486e-05 -3.92095e-07)
(2.58736e-05 3.94921e-05 1.27311e-06)
(3.30741e-05 2.67611e-05 4.06788e-06)
(2.65725e-05 8.84479e-06 6.13806e-06)
(6.99382e-06 -1.00914e-05 6.35098e-06)
(-2.13843e-05 -2.76432e-05 3.7083e-06)
(-5.09478e-05 -4.29406e-05 -6.80015e-07)
(-7.33866e-05 -5.65249e-05 -5.77544e-06)
(-8.37459e-05 -6.81987e-05 -1.03239e-05)
(-8.12371e-05 -7.61903e-05 -1.34715e-05)
(-6.93366e-05 -7.67268e-05 -1.50088e-05)
(-5.33912e-05 -6.70648e-05 -1.57393e-05)
(-3.72493e-05 -4.70596e-05 -1.59594e-05)
(-2.15248e-05 -1.91215e-05 -1.50861e-05)
(-4.9235e-06 8.45109e-06 -1.30811e-05)
(1.55188e-05 2.67414e-05 -8.4682e-06)
(3.66137e-05 3.13817e-05 -3.14564e-06)
(4.80549e-05 2.91545e-05 1.24078e-06)
(4.09965e-05 3.67425e-05 1.47477e-06)
(2.072e-05 5.68118e-05 -2.07421e-06)
(5.06117e-06 4.68157e-05 1.48405e-06)
(4.98306e-05 4.16769e-06 4.98306e-05)
(4.37257e-05 -0.000120447 4.60663e-05)
(-1.91308e-05 -9.85932e-05 4.17426e-05)
(-4.9094e-05 -8.11076e-05 3.37143e-05)
(-8.38238e-05 -5.94951e-05 2.39986e-05)
(-0.000105695 -3.45011e-05 1.27106e-05)
(-0.000111114 -1.10623e-05 1.83018e-06)
(-9.83728e-05 8.57064e-06 -7.10653e-06)
(-7.01184e-05 2.15655e-05 -1.20433e-05)
(-3.34318e-05 2.72074e-05 -1.35622e-05)
(9.31707e-07 2.89037e-05 -1.29192e-05)
(2.22687e-05 2.99914e-05 -1.2095e-05)
(2.5954e-05 2.98343e-05 -1.18809e-05)
(1.39811e-05 2.79699e-05 -1.30499e-05)
(-7.93925e-06 2.1441e-05 -1.52884e-05)
(-3.21505e-05 9.18926e-06 -1.75389e-05)
(-5.1838e-05 -9.10782e-06 -1.90634e-05)
(-6.29192e-05 -3.03645e-05 -1.97496e-05)
(-6.50222e-05 -4.89885e-05 -1.94128e-05)
(-6.02205e-05 -5.8566e-05 -1.83665e-05)
(-5.08473e-05 -5.56113e-05 -1.67529e-05)
(-3.72247e-05 -4.15991e-05 -1.46471e-05)
(-1.83397e-05 -2.17459e-05 -1.14752e-05)
(5.34312e-06 -4.34513e-06 -7.20225e-06)
(3.06188e-05 6.12705e-06 -1.54521e-06)
(4.93231e-05 1.23195e-05 4.24397e-06)
(5.18231e-05 2.42911e-05 7.37347e-06)
(3.94269e-05 4.92895e-05 7.78956e-06)
(2.58305e-05 6.80228e-05 9.57084e-06)
(1.10353e-05 4.70406e-05 1.41539e-05)
(5.79718e-05 -0.000123449 5.79718e-05)
(2.8053e-05 -0.000101725 3.79069e-05)
(-7.40456e-05 -8.10532e-05 2.9036e-05)
(-0.00011688 -5.9945e-05 1.6883e-05)
(-0.000157042 -3.60251e-05 3.41389e-06)
(-0.000177222 -1.42175e-05 -8.89951e-06)
(-0.000174001 3.64714e-07 -1.77031e-05)
(-0.000147925 6.82115e-06 -2.18294e-05)
(-0.000106465 1.03264e-05 -2.32402e-05)
(-6.04311e-05 1.42639e-05 -2.31191e-05)
(-1.90882e-05 2.46148e-05 -2.19636e-05)
(8.33463e-06 4.17684e-05 -2.13812e-05)
(1.95111e-05 6.11894e-05 -2.17711e-05)
(1.89676e-05 7.60821e-05 -2.26876e-05)
(1.13262e-05 7.97231e-05 -2.30607e-05)
(1.16622e-06 6.94091e-05 -2.23845e-05)
(-8.74755e-06 4.64597e-05 -2.05656e-05)
(-1.7431e-05 1.65205e-05 -1.78465e-05)
(-2.53102e-05 -1.1208e-05 -1.47949e-05)
(-3.1789e-05 -2.98821e-05 -1.23686e-05)
(-3.44096e-05 -3.65024e-05 -1.08628e-05)
(-2.99729e-05 -3.33967e-05 -9.59442e-06)
(-1.65222e-05 -2.57395e-05 -8.07933e-06)
(4.25295e-06 -1.85111e-05 -6.08198e-06)
(2.52109e-05 -1.16523e-05 -3.78421e-06)
(3.64404e-05 2.95236e-06 -2.4799e-06)
(3.55436e-05 2.98575e-05 -2.74745e-06)
(2.9904e-05 5.65732e-05 -1.15422e-06)
(2.15275e-05 6.67188e-05 3.71304e-06)
(8.5542e-06 5.60927e-05 -3.34727e-06)
(3.16194e-05 -0.00020003 3.16194e-05)
(-1.86696e-05 -2.06131e-05 7.356e-06)
(-0.000117959 -9.23037e-06 -3.29804e-06)
(-0.000158083 7.33641e-06 -1.48698e-05)
(-0.000186978 2.27269e-05 -2.20065e-05)
(-0.00019258 2.87995e-05 -2.45075e-05)
(-0.00017537 2.32282e-05 -2.47366e-05)
(-0.000140756 1.09074e-05 -2.30695e-05)
(-9.8994e-05 2.42825e-06 -1.95875e-05)
(-5.94238e-05 5.47377e-06 -1.69583e-05)
(-2.67552e-05 2.41562e-05 -1.57553e-05)
(-3.58417e-06 5.3276e-05 -1.64986e-05)
(1.24419e-05 8.57608e-05 -1.77321e-05)
(2.5266e-05 0.000110092 -1.79913e-05)
(3.52478e-05 0.000117921 -1.61906e-05)
(4.12634e-05 0.000107689 -1.25642e-05)
(4.06927e-05 8.31176e-05 -7.88956e-06)
(3.14345e-05 5.06416e-05 -3.19945e-06)
(1.43479e-05 2.04837e-05 5.78885e-08)
(-5.98811e-06 -1.65431e-06 1.06704e-06)
(-2.31473e-05 -1.49614e-05 -4.71105e-07)
(-3.08888e-05 -2.06581e-05 -3.48942e-06)
(-2.69155e-05 -2.1628e-05 -6.64757e-06)
(-1.54489e-05 -1.74547e-05 -9.24059e-06)
(-3.73616e-06 -4.4732e-06 -1.19238e-05)
(2.9835e-06 2.23012e-05 -1.5429e-05)
(3.79445e-06 5.61945e-05 -1.86527e-05)
(5.5636e-06 7.88224e-05 -1.85597e-05)
(-1.88343e-06 9.2772e-05 -2.06733e-05)
(-6.24237e-06 9.12341e-05 -2.7772e-05)
(-1.06336e-05 -0.00017463 -1.06336e-05)
(-6.57489e-05 9.81746e-05 -2.67444e-05)
(-0.000124067 8.9037e-05 -2.77378e-05)
(-0.000146182 8.99726e-05 -2.91179e-05)
(-0.000152437 8.36984e-05 -2.69225e-05)
(-0.000139362 6.3413e-05 -2.21176e-05)
(-0.000113968 3.34429e-05 -1.52958e-05)
(-8.58463e-05 4.97531e-06 -8.73593e-06)
(-6.11532e-05 -1.05972e-05 -3.53914e-06)
(-4.27423e-05 -6.34858e-06 -1.39164e-06)
(-2.96532e-05 1.81013e-05 -2.74791e-06)
(-1.65446e-05 5.32813e-05 -5.89135e-06)
(2.19056e-06 8.91524e-05 -8.67937e-06)
(2.6827e-05 0.000113437 -8.42355e-06)
(5.14912e-05 0.000120896 -5.21025e-06)
(6.87916e-05 0.000112071 2.56836e-07)
(7.2741e-05 9.16299e-05 6.26182e-06)
(6.10112e-05 6.53818e-05 1.02344e-05)
(3.63464e-05 4.08909e-05 1.13188e-05)
(6.44952e-06 2.10986e-05 9.46289e-06)
(-1.83926e-05 5.20516e-06 6.28936e-06)
(-3.14019e-05 -6.54292e-06 2.6338e-06)
(-3.39124e-05 -1.20913e-05 -2.60978e-07)
(-3.21602e-05 -5.19086e-06 -2.78597e-06)
(-3.15062e-05 1.79435e-05 -6.12642e-06)
(-3.25031e-05 5.19757e-05 -1.01877e-05)
(-3.13291e-05 8.4546e-05 -1.31019e-05)
(-2.72991e-05 0.000108381 -1.55396e-05)
(-2.21586e-05 0.000130367 -2.02814e-05)
(-1.05508e-05 0.000111018 -1.00203e-05)
(-3.40479e-05 -6.90741e-05 -3.40479e-05)
(-7.47162e-05 0.000202272 -3.35329e-05)
(-8.56233e-05 0.000166274 -2.95926e-05)
(-8.37289e-05 0.000144876 -2.48814e-05)
(-7.06703e-05 0.000112418 -1.68733e-05)
(-5.12154e-05 6.88255e-05 -7.91677e-06)
(-3.32802e-05 2.3329e-05 1.83708e-07)
(-2.40008e-05 -1.02133e-05 5.60437e-06)
(-2.52063e-05 -2.40117e-05 7.17935e-06)
(-3.23287e-05 -1.40157e-05 3.44897e-06)
(-3.60812e-05 1.40385e-05 -2.62923e-06)
(-2.81915e-05 4.73669e-05 -7.75714e-06)
(-6.01293e-06 7.62758e-05 -9.49476e-06)
(2.60632e-05 9.39592e-05 -7.74924e-06)
(5.701e-05 9.99078e-05 -2.71683e-06)
(7.64081e-05 9.64909e-05 3.14708e-06)
(7.87167e-05 8.65723e-05 7.09891e-06)
(6.44375e-05 7.26281e-05 8.55613e-06)
(4.04978e-05 5.65159e-05 8.50793e-06)
(1.5969e-05 3.78669e-05 7.96537e-06)
(-1.91544e-06 1.72655e-05 7.9426e-06)
(-1.1207e-05 -2.12105e-06 9.70697e-06)
(-1.64274e-05 -1.21782e-05 1.26448e-05)
(-2.40903e-05 -3.78509e-06 1.4326e-05)
(-3.54681e-05 2.3036e-05 1.36268e-05)
(-4.34675e-05 5.50415e-05 1.28291e-05)
(-4.24996e-05 8.05356e-05 1.27923e-05)
(-3.50855e-05 0.000100821 1.38799e-05)
(-1.06723e-05 0.000110321 1.76953e-05)
(3.95244e-06 7.03715e-05 3.6613e-05)
(-3.46949e-05 4.71696e-05 -3.46949e-05)
(-4.88395e-05 0.000252812 -2.61995e-05)
(-2.71131e-05 0.000199927 -2.09409e-05)
(-1.42735e-05 0.000159914 -1.48541e-05)
(3.59529e-06 0.000110593 -8.29173e-06)
(1.72434e-05 5.82796e-05 -2.89094e-06)
(2.07479e-05 1.37046e-05 -8.34162e-08)
(1.11666e-05 -9.96321e-06 -2.66884e-07)
(-8.62616e-06 -1.359e-05 -4.38404e-06)
(-2.71955e-05 1.95509e-06 -8.90989e-06)
(-3.36478e-05 2.4021e-05 -1.29039e-05)
(-2.34787e-05 4.35288e-05 -1.35803e-05)
(1.29639e-06 5.74774e-05 -1.11239e-05)
(3.05734e-05 6.66374e-05 -5.74574e-06)
(5.356e-05 7.35442e-05 -7.10384e-08)
(6.36385e-05 7.91679e-05 3.15168e-06)
(6.07718e-05 8.22783e-05 4.03997e-06)
(4.98178e-05 7.9207e-05 3.34088e-06)
(3.78297e-05 6.6924e-05 2.64535e-06)
(2.98375e-05 4.43237e-05 3.9808e-06)
(2.58956e-05 1.57568e-05 7.59714e-06)
(2.10277e-05 -9.62738e-06 1.24394e-05)
(9.52022e-06 -2.11979e-05 1.61852e-05)
(-8.65436e-06 -1.23347e-05 1.70409e-05)
(-2.55812e-05 9.04963e-06 1.65442e-05)
(-3.12961e-05 2.64821e-05 1.7476e-05)
(-2.39779e-05 3.46357e-05 2.17654e-05)
(-8.1577e-06 3.72696e-05 2.83119e-05)
(1.54157e-05 2.35246e-05 3.89813e-05)
(1.49686e-05 1.15725e-05 3.32452e-05)
(-2.78911e-05 0.000124089 -2.78911e-05)
(-2.10233e-05 0.000257425 -1.87146e-05)
(1.33473e-05 0.000202241 -1.74442e-05)
(2.48663e-05 0.000156171 -1.49813e-05)
(4.02319e-05 0.000104208 -1.26405e-05)
(4.60662e-05 5.72139e-05 -1.0996e-05)
(4.08944e-05 2.55282e-05 -1.02569e-05)
(2.65811e-05 1.39873e-05 -1.04764e-05)
(9.12539e-06 1.57846e-05 -1.1167e-05)
(-3.70636e-06 2.4891e-05 -1.10075e-05)
(-5.3894e-06 3.05231e-05 -7.72943e-06)
(5.48016e-06 3.02143e-05 -1.58179e-06)
(2.132e-05 3.11781e-05 5.35484e-06)
(3.16271e-05 3.56213e-05 1.15119e-05)
(3.31021e-05 4.78464e-05 1.27313e-05)
(2.84883e-05 6.38077e-05 9.96828e-06)
(2.31727e-05 7.61052e-05 5.35689e-06)
(2.27285e-05 7.6928e-05 2.17567e-06)
(2.85278e-05 6.32001e-05 1.72428e-06)
(3.61918e-05 3.79915e-05 3.19673e-06)
(3.80488e-05 9.59322e-06 5.81105e-06)
(2.65156e-05 -9.71252e-06 6.39815e-06)
(3.22859e-06 -1.11824e-05 2.85033e-06)
(-2.05464e-05 2.91195e-06 -4.81865e-06)
(-3.17535e-05 1.42079e-05 -8.69916e-06)
(-2.59275e-05 1.20102e-05 -7.31462e-06)
(-1.15386e-05 5.70839e-06 -3.53081e-06)
(4.56726e-06 6.65156e-08 -1.65405e-06)
(1.08537e-06 -2.68219e-06 -6.52983e-06)
(-5.43441e-06 3.49636e-05 -2.85044e-05)
(-2.25489e-05 0.000170278 -2.25489e-05)
(-1.02354e-05 0.000243683 -1.88215e-05)
(2.6468e-05 0.000194831 -1.90636e-05)
(4.00717e-05 0.000150689 -1.73225e-05)
(5.58865e-05 0.000102368 -1.46869e-05)
(6.28415e-05 6.32926e-05 -1.07865e-05)
(6.04855e-05 3.98524e-05 -7.0648e-06)
(5.20064e-05 3.05975e-05 -3.12506e-06)
(4.32038e-05 2.67201e-05 1.47857e-06)
(3.9031e-05 2.10008e-05 8.09038e-06)
(3.89528e-05 1.14638e-05 1.5541e-05)
(3.7283e-05 -2.36168e-06 2.29623e-05)
(2.74194e-05 -5.41564e-06 2.73613e-05)
(8.15725e-06 4.16927e-06 2.406e-05)
(-1.31672e-05 2.71468e-05 1.66629e-05)
(-2.62574e-05 5.15237e-05 7.40649e-06)
(-2.37193e-05 6.51809e-05 5.3193e-07)
(-7.62844e-06 6.25861e-05 -2.12564e-06)
(1.31926e-05 4.77861e-05 -1.33924e-06)
(2.55157e-05 2.88707e-05 3.16508e-07)
(1.89966e-05 1.64423e-05 -2.66461e-07)
(-4.34181e-06 1.85805e-05 -6.61445e-06)
(-3.1703e-05 3.19355e-05 -1.59959e-05)
(-4.6394e-05 4.33783e-05 -2.18042e-05)
(-3.991e-05 3.67789e-05 -2.26588e-05)
(-2.18389e-05 2.33664e-05 -2.10548e-05)
(-9.40819e-06 2.34585e-05 -2.12749e-05)
(-7.31146e-06 4.14753e-05 -2.6329e-05)
(-2.55884e-05 7.90524e-05 -4.17862e-05)
(-2.23125e-05 9.4394e-05 -4.36458e-05)
(-1.93678e-05 0.000204239 -1.93677e-05)
(-3.88881e-06 0.000222059 -1.52497e-05)
(3.70076e-05 0.000181075 -1.26488e-05)
(5.53414e-05 0.000136276 -6.91452e-06)
(7.3011e-05 8.90771e-05 -3.35694e-07)
(8.09773e-05 5.18213e-05 5.24589e-06)
(8.08397e-05 2.89253e-05 9.95025e-06)
(7.72579e-05 1.56204e-05 1.42727e-05)
(7.31636e-05 3.14243e-06 1.9525e-05)
(6.81087e-05 -1.26085e-05 2.51211e-05)
(5.70395e-05 -2.66541e-05 3.0307e-05)
(3.31315e-05 -3.43847e-05 2.8962e-05)
(-3.33794e-06 -2.32407e-05 2.17265e-05)
(-3.99982e-05 2.32599e-06 1.05576e-05)
(-6.46118e-05 3.40431e-05 -3.16383e-06)
(-6.85133e-05 5.19867e-05 -1.09348e-05)
(-4.98474e-05 5.45165e-05 -1.26344e-05)
(-2.07283e-05 4.63166e-05 -1.0853e-05)
(3.05214e-07 3.80405e-05 -7.07334e-06)
(1.18788e-06 3.73343e-05 -7.12433e-06)
(-1.63759e-05 4.81862e-05 -1.24272e-05)
(-3.96906e-05 6.65706e-05 -1.99032e-05)
(-5.09504e-05 7.54688e-05 -2.33691e-05)
(-4.06853e-05 6.37076e-05 -2.02606e-05)
(-1.92628e-05 3.64222e-05 -1.30226e-05)
(-6.51825e-06 2.75009e-05 -7.44844e-06)
(-8.97912e-06 4.79094e-05 -9.92909e-06)
(-2.01033e-05 9.03168e-05 -1.58137e-05)
(-2.22411e-05 0.000137254 -2.12492e-05)
(-9.42779e-06 9.65403e-05 -9.43032e-06)
(-7.58412e-06 0.000219298 -7.5841e-06)
(1.56718e-05 0.000184419 1.2196e-06)
(5.5865e-05 0.000147827 6.76104e-06)
(7.41783e-05 0.000100825 1.25701e-05)
(8.45511e-05 5.42471e-05 1.72042e-05)
(8.38346e-05 1.85059e-05 2.04045e-05)
(7.7632e-05 -3.76246e-06 2.12435e-05)
(7.12385e-05 -1.87678e-05 2.12123e-05)
(6.49129e-05 -3.17165e-05 2.10541e-05)
(5.31664e-05 -4.0839e-05 1.99127e-05)
(2.95212e-05 -3.87124e-05 1.62631e-05)
(-7.90969e-06 -2.12658e-05 7.90347e-06)
(-4.97605e-05 1.16752e-05 -3.77692e-06)
(-8.03089e-05 4.15157e-05 -1.38156e-05)
(-8.64931e-05 5.96064e-05 -1.68454e-05)
(-6.77541e-05 5.48995e-05 -1.62018e-05)
(-3.77605e-05 4.10252e-05 -1.04217e-05)
(-1.48894e-05 3.48781e-05 -4.85389e-06)
(-1.28335e-05 4.29039e-05 -3.78648e-06)
(-2.97194e-05 6.54387e-05 -1.05176e-05)
(-5.01163e-05 9.01542e-05 -1.91435e-05)
(-5.55122e-05 0.000101006 -2.27832e-05)
(-3.6955e-05 8.21577e-05 -1.77223e-05)
(-5.98274e-06 4.27913e-05 -5.99434e-06)
(1.24616e-05 1.44103e-05 5.26981e-06)
(6.64007e-06 2.44775e-05 5.09175e-06)
(-8.79317e-06 5.83845e-05 8.83208e-07)
(-1.90833e-05 9.41034e-05 1.92946e-06)
(-5.54452e-06 0.000113026 7.61376e-06)
(5.67585e-06 7.12876e-05 8.65248e-06)
(1.04842e-05 0.000195427 1.04842e-05)
(4.04683e-05 0.000123917 1.80321e-05)
(6.75054e-05 9.30621e-05 2.25504e-05)
(7.50977e-05 5.13627e-05 2.52202e-05)
(7.04082e-05 1.33265e-05 2.47895e-05)
(5.71714e-05 -1.27342e-05 2.05828e-05)
(4.3735e-05 -2.92701e-05 1.54923e-05)
(3.4848e-05 -4.02886e-05 1.11515e-05)
(2.73263e-05 -4.5121e-05 8.44385e-06)
(1.3069e-05 -3.72136e-05 5.99053e-06)
(-1.23001e-05 -1.18433e-05 1.76143e-06)
(-4.39251e-05 2.39834e-05 -5.12614e-06)
(-6.83847e-05 5.69222e-05 -8.89529e-06)
(-7.35815e-05 6.78826e-05 -9.03895e-06)
(-5.65321e-05 5.64533e-05 -3.08406e-06)
(-2.86053e-05 3.18766e-05 5.30489e-06)
(-1.02561e-05 1.34283e-05 1.35055e-05)
(-1.50012e-05 2.27262e-05 1.44369e-05)
(-3.83479e-05 5.54673e-05 5.85482e-06)
(-6.1755e-05 9.27021e-05 -6.62438e-06)
(-6.68128e-05 0.000109629 -1.31326e-05)
(-4.43418e-05 9.19557e-05 -9.63115e-06)
(-5.62488e-06 4.60549e-05 9.05026e-07)
(1.94043e-05 5.47584e-06 1.01455e-05)
(1.28049e-05 2.37076e-06 8.48088e-06)
(-9.32203e-06 3.3054e-05 -1.12395e-06)
(-2.15624e-05 6.14786e-05 -5.03079e-06)
(-1.82373e-05 7.32861e-05 -2.27705e-06)
(-3.58935e-06 7.84656e-05 -2.25487e-06)
(2.98955e-06 6.3778e-05 -4.93184e-06)
(2.24964e-05 0.000126111 2.24964e-05)
(5.02096e-05 5.66147e-05 2.60372e-05)
(5.84806e-05 3.6118e-05 2.61589e-05)
(5.43866e-05 1.07685e-05 2.39062e-05)
(3.87557e-05 -1.00101e-05 1.89197e-05)
(1.97547e-05 -2.42703e-05 1.3124e-05)
(6.02946e-06 -3.64283e-05 9.01618e-06)
(-8.71459e-07 -4.6016e-05 7.56194e-06)
(-7.35049e-06 -4.50147e-05 7.45449e-06)
(-2.05829e-05 -2.57456e-05 6.66979e-06)
(-3.97114e-05 9.80941e-06 4.16218e-06)
(-5.56731e-05 4.42189e-05 1.65538e-06)
(-5.56898e-05 5.80581e-05 2.65383e-06)
(-3.6027e-05 4.24493e-05 8.52767e-06)
(-7.50497e-06 7.93611e-06 1.68577e-05)
(8.72467e-06 -1.86241e-05 2.38009e-05)
(-2.44002e-06 -1.86407e-05 2.18689e-05)
(-3.16962e-05 2.06961e-05 1.24296e-05)
(-5.97279e-05 7.10285e-05 4.21882e-08)
(-6.64114e-05 9.79412e-05 -3.80627e-06)
(-4.24626e-05 8.38399e-05 2.39533e-06)
(-3.51091e-06 3.76836e-05 1.3505e-05)
(2.01509e-05 -8.9125e-06 2.33585e-05)
(9.03172e-06 -1.97861e-05 2.07021e-05)
(-2.04825e-05 6.7901e-06 9.67814e-06)
(-3.93697e-05 4.09825e-05 3.03952e-06)
(-4.12447e-05 5.35429e-05 3.49726e-07)
(-3.67642e-05 5.36629e-05 -2.88176e-06)
(-1.29739e-05 5.86397e-05 -1.56853e-06)
(4.27185e-06 4.21427e-05 1.78052e-05)
(2.49948e-05 3.83971e-05 2.49949e-05)
(4.46147e-05 5.48892e-06 2.42779e-05)
(3.8905e-05 -4.05468e-06 2.28936e-05)
(2.92146e-05 -1.06535e-05 2.0053e-05)
(1.23216e-05 -1.64326e-05 1.62375e-05)
(-3.95387e-06 -2.61369e-05 1.33687e-05)
(-1.47853e-05 -4.13508e-05 1.22532e-05)
(-2.32404e-05 -5.34385e-05 1.26834e-05)
(-3.53156e-05 -4.88536e-05 1.16313e-05)
(-5.15326e-05 -2.26276e-05 7.85016e-06)
(-6.39707e-05 1.27183e-05 2.44524e-06)
(-6.12733e-05 3.48955e-05 1.30414e-07)
(-3.84874e-05 2.67043e-05 2.94233e-06)
(-6.92849e-06 -6.37509e-06 8.27198e-06)
(1.37146e-05 -3.89319e-05 1.25896e-05)
(7.47405e-06 -4.17973e-05 8.70086e-06)
(-1.82875e-05 -8.72073e-06 -1.1796e-06)
(-4.07428e-05 4.32696e-05 -9.6312e-06)
(-4.22775e-05 7.72418e-05 -8.72497e-06)
(-1.42594e-05 6.83774e-05 1.7887e-06)
(2.60222e-05 2.28984e-05 1.67816e-05)
(4.63601e-05 -2.71389e-05 2.9231e-05)
(2.75604e-05 -4.46742e-05 2.98026e-05)