/*--------------------------------*- C++ -*----------------------------------*\
| =========                 |                                                 |
| \\      /  F ield         | OpenFOAM: The Open Source CFD Toolbox           |
|  \\    /   O peration     | Version:  2312                                  |
|   \\  /    A nd           | Website:  www.openfoam.com                      |
|    \\/     M anipulation  |                                                 |
\*---------------------------------------------------------------------------*/
FoamFile
{
    version     2.0;
    format      ascii;
    arch        "LSB;label=32;scalar=64";
    class       volScalarField;
    location    "0.0470981";
    object      alpha.water;
}
// * * * * * * * * * * * * * * * * * * * * * * * * * * * * * * * * * * * * * //

dimensions      [0 0 0 0 0 0 0];

internalField   nonuniform List<scalar> 
90000
(
1
1
1
1
1
1
1
1
1
1
1
1
1
1
1
1
1
1
1
1
1
1
1
1
1
1
1
1
1
1
1
1
1
1
1
1
1
1
1
1
1
1
1
1
1
1
1
1
1
1
1
1
1
1
1
1
1
1
1
1
1
1
1
1
1
1
1
1
1
1
1
1
1
1
1
1
1
1
1
1
1
1
1
1
1
1
1
1
1
1
1
1
1
1
1
1
1
1
1
1
1
1
1
1
1
1
1
1
1
1
1
1
1
1
1
1
1
1
1
1
1
1
1
1
1
1
1
1
1
1
1
1
1
1
1
1
1
1
1
1
1
1
1
1
1
1
1
1
1
1
1
1
1
1
1
1
1
1
1
1
1
1
1
1
1
1
1
1
1
1
1
1
1
1
1
1
1
1
1
1
1
1
1
1
1
1
1
1
1
1
1
1
1
1
1
1
1
1
1
1
1
1
1
1
1
1
1
1
1
1
1
1
1
1
1
1
1
1
1
1
1
1
1
1
1
1
1
1
1
1
1
1
1
1
1
1
1
1
1
1
1
1
1
1
1
1
1
1
1
1
1
1
1
1
1
1
1
1
1
1
1
1
1
1
1
1
1
1
1
1
1
1
1
1
1
1
1
1
1
1
1
1
1
1
1
1
1
1
1
1
1
1
1
1
1
1
1
1
1
1
1
1
1
1
1
1
1
1
1
1
1
1
1
1
1
1
1
1
1
1
1
1
1
1
1
1
1
1
1
1
1
1
1
1
1
1
1
1
1
1
1
1
1
1
1
1
1
1
1
1
1
1
1
1
1
1
1
1
1
1
1
1
1
1
1
1
1
1
1
1
1
1
1
1
1
1
1
1
1
1
1
1
1
1
1
1
1
1
1
1
1
1
1
1
1
1
1
1
1
1
1
1
1
1
1
1
1
1
1
1
1
1
1
1
1
1
1
1
1
1
1
1
1
1
1
1
1
1
1
1
1
1
1
1
1
1
1
1
1
1
1
1
1
1
1
1
1
1
1
1
1
1
1
1
1
1
1
1
1
1
1
1
1
1
1
1
1
1
1
1
1
1
1
1
1
1
1
1
1
1
1
1
1
1
1
1
1
1
1
1
1
1
1
1
1
1
1
1
1
1
1
1
1
1
1
1
1
1
1
1
1
1
1
1
1
1
1
1
1
1
1
1
1
1
1
1
1
1
1
1
1
1
1
1
1
1
1
1
1
1
1
1
1
1
1
1
1
1
1
1
1
1
1
1
1
1
1
1
1
1
1
1
1
1
1
1
1
1
1
1
1
1
1
1
1
1
1
1
1
1
1
1
1
1
1
1
1
1
1
1
1
1
1
1
1
1
1
1
1
1
1
1
1
1
1
1
1
1
1
1
1
1
1
1
1
1
1
1
1
1
1
1
1
1
1
1
1
1
1
1
1
1
1
1
1
1
1
1
1
1
1
1
1
1
1
1
1
1
1
1
1
1
1
1
1
1
1
1
1
1
1
1
1
1
1
1
1
1
1
1
1
1
1
1
1
1
1
1
1
1
1
1
1
1
1
1
1
1
1
1
1
1
1
1
1
1
1
1
1
1
1
1
1
1
1
1
1
1
1
1
1
1
1
1
1
1
1
1
1
1
1
1
1
1
1
1
1
1
1
1
1
1
1
1
1
1
1
1
1
1
1
1
1
1
1
1
1
1
1
1
1
1
1
1
1
1
1
1
1
1
1
1
1
1
1
1
1
1
1
1
1
1
1
1
1
1
1
1
1
1
1
1
1
1
1
1
1
1
1
1
1
1
1
1
1
1
1
1
1
1
1
1
1
1
1
1
1
1
1
1
1
1
1
1
1
1
1
1
1
1
1
1
1
1
1
1
1
1
1
1
1
1
1
1
1
1
1
1
1
1
1
1
1
1
1
1
1
1
1
1
1
1
1
1
1
1
1
1
1
1
1
1
1
1
1
1
1
1
1
1
1
1
1
1
1
1
1
1
1
1
1
1
1
1
1
1
1
1
1
1
1
1
1
1
1
1
1
1
1
1
1
1
1
1
1
1
1
1
1
1
1
1
1
1
1
1
1
1
1
1
1
1
1
1
1
1
1
1
1
1
1
1
1
1
1
1
1
1
1
1
1
1
1
1
1
1
1
1
1
1
1
1
1
1
1
1
1
1
1
1
1
1
1
1
1
1
1
1
1
1
1
1
1
1
1
1
1
1
1
1
1
1
1
1
1
1
1
1
1
1
1
1
1
1
1
1
1
1
1
1
1
1
1
1
1
1
1
1
1
1
1
1
1
1
1
1
1
1
1
1
1
1
1
1
1
1
1
1
1
1
1
1
1
1
1
1
1
1
1
1
1
1
1
1
1
1
1
1
1
1
1
1
1
1
1
1
1
1
1
1
1
1
1
1
1
1
1
1
1
1
1
1
1
1
1
1
1
1
1
1
1
1
1
1
1
1
1
1
1
1
1
1
1
1
1
1
1
1
1
1
1
1
1
1
1
1
1
1
1
1
1
1
1
1
1
1
1
1
1
1
1
1
1
1
1
1
1
1
1
1
1
1
1
1
1
1
1
1
1
1
1
1
1
1
1
1
1
1
1
1
1
1
1
1
1
1
1
1
1
1
1
1
1
1
1
1
1
1
1
1
1
1
1
1
1
1
1
1
1
1
1
1
1
1
1
1
1
1
1
1
1
1
1
1
1
1
1
1
1
1
1
1
1
1
1
1
1
1
1
1
1
1
1
1
1
1
1
1
1
1
1
1
1
1
1
1
1
1
1
1
1
1
1
1
1
1
1
1
1
1
1
1
1
1
1
1
1
1
1
1
1
1
1
1
1
1
1
1
1
1
1
1
1
1
1
1
1
1
1
1
1
1
1
1
1
1
1
1
1
1
1
1
1
1
1
1
1
1
1
1
1
1
1
1
1
1
1
1
1
1
1
1
1
1
1
1
1
1
1
1
1
1
1
1
1
1
1
1
1
1
1
1
1
1
1
1
1
1
1
1
1
1
1
1
1
1
1
1
1
1
1
1
1
1
1
1
1
1
1
1
1
1
1
1
1
1
1
1
1
1
1
1
1
1
1
1
1
1
1
1
1
1
1
1
1
1
1
1
1
1
1
1
1
1
1
1
1
1
1
1
1
1
1
1
1
1
1
1
1
1
1
1
1
1
1
1
1
1
1
0.999999
1
1
1
1
1
1
1
1
1
1
1
1
1
1
1
1
1
1
1
1
1
1
1
1
1
1
1
1
0.999999
0.999999
1
1
1
1
1
1
1
1
1
1
1
1
1
1
1
1
1
1
1
1
1
1
1
1
1
1
1
1
1
1
0.999856
0.99996
0.99994
0.999987
0.99998
0.999979
0.999979
0.999979
0.99998
0.999982
0.999983
0.999984
0.999985
0.999985
0.999986
0.999985
0.999985
0.999984
0.999983
0.999982
0.999981
0.999979
0.999978
0.999976
0.99996
0.999933
0.999918
0.999891
0.999864
0.999856
0.000176427
8.45127e-05
9.97764e-05
5.67359e-05
6.09227e-05
6.16474e-05
6.04168e-05
5.92084e-05
5.68355e-05
5.4376e-05
5.21384e-05
5.00425e-05
4.83952e-05
4.73522e-05
4.68428e-05
4.68958e-05
4.78702e-05
4.9425e-05
5.09381e-05
5.29711e-05
5.53176e-05
5.7968e-05
6.0732e-05
6.38219e-05
7.99377e-05
0.000106067
0.000121778
0.000147649
0.00017374
0.00018356
1.56353e-13
5.96151e-11
3.6353e-13
1.0031e-10
3.70563e-11
5.92867e-11
5.13598e-11
5.44507e-11
5.73103e-11
5.8525e-11
6.04262e-11
6.17979e-11
6.24435e-11
6.25837e-11
6.30991e-11
6.25842e-11
6.39805e-11
6.30132e-11
6.32394e-11
6.41797e-11
6.46292e-11
6.64014e-11
6.90265e-11
8.29527e-11
6.02557e-11
5.18024e-12
9.11659e-12
1.22608e-13
1.79565e-14
3.84508e-14
5.39464e-16
1.56353e-13
1.62205e-15
3.6353e-13
1.76272e-13
2.90069e-13
2.58158e-13
2.80956e-13
3.05291e-13
3.20714e-13
3.39974e-13
3.547e-13
3.6442e-13
3.69049e-13
3.75117e-13
3.72491e-13
3.78135e-13
3.68644e-13
3.64969e-13
3.63582e-13
3.56831e-13
3.53591e-13
3.62896e-13
4.21879e-13
2.95877e-13
2.53936e-14
3.51362e-15
4.59515e-16
6.8621e-17
9.63067e-15
2.70067e-18
5.39464e-16
9.53158e-18
1.62205e-15
1.15025e-15
1.95349e-15
1.79594e-15
2.02157e-15
2.27007e-15
2.46175e-15
2.68138e-15
2.86145e-15
2.99263e-15
3.07062e-15
3.14282e-15
3.11623e-15
3.14468e-15
3.03656e-15
2.95964e-15
2.88769e-15
2.76048e-15
2.67571e-15
2.60424e-15
2.94643e-15
2.00777e-15
1.79356e-16
2.36918e-17
2.76784e-18
3.72537e-19
1.20747e-16
2.15867e-20
1.35365e-17
7.2796e-20
1.81912e-17
9.70639e-18
1.69714e-17
1.61296e-17
1.88523e-17
2.19205e-17
2.45881e-17
2.7579e-17
3.01783e-17
3.218e-17
3.44908e-17
3.90385e-17
3.87759e-17
3.87994e-17
3.79461e-17
3.67927e-17
3.57446e-17
3.40976e-17
3.21807e-17
3.06238e-17
3.08726e-17
2.94283e-17
7.74348e-18
6.80951e-19
2.08816e-20
2.60172e-21
1.69977e-18
6.27005e-22
1.68405e-19
6.43744e-22
3.01816e-19
1.24795e-19
2.09745e-19
1.95221e-19
2.39735e-19
2.8896e-19
3.40086e-19
4.03766e-19
4.69738e-19
5.33716e-19
5.93533e-19
6.51565e-19
6.47283e-19
6.47184e-19
6.20894e-19
5.89595e-19
5.57376e-19
5.14138e-19
4.71939e-19
4.33528e-19
4.45012e-19
3.47872e-19
6.5997e-20
4.89964e-21
1.87376e-22
2.19918e-23
1.21264e-20
1.29624e-24
1.87889e-21
6.33858e-24
3.6582e-21
1.53958e-21
2.77805e-21
2.72162e-21
3.49642e-21
4.39989e-21
5.35545e-21
6.52209e-21
7.72941e-21
8.87651e-21
9.88718e-21
1.07851e-20
1.07087e-20
1.06116e-20
9.97772e-21
9.24594e-21
8.47006e-21
7.52299e-21
6.63464e-21
5.82154e-21
5.78532e-21
4.15942e-21
6.48384e-22
4.23559e-23
1.8609e-24
2.0839e-25
8.88958e-23
1.52171e-26
2.33379e-23
6.68847e-26
4.80296e-23
2.06642e-23
3.99939e-23
4.13266e-23
5.5145e-23
7.23571e-23
9.13405e-23
1.14759e-22
1.39454e-22
1.6296e-22
1.82917e-22
1.99298e-22
1.97672e-22
1.94032e-22
1.78789e-22
1.61581e-22
1.43307e-22
1.22443e-22
1.03589e-22
8.68967e-23
8.31055e-23
5.52179e-23
7.05173e-24
2.60465e-25
2.0081e-26
2.11401e-27
7.4069e-25
2.38401e-28
3.1231e-25
6.98625e-28
6.83192e-25
3.03027e-25
6.19457e-25
6.72622e-25
9.32463e-25
1.27669e-24
1.6761e-24
2.17983e-24
2.72562e-24
3.25196e-24
3.69254e-24
4.03408e-24
4.00334e-24
3.89673e-24
3.52241e-24
3.10345e-24
2.66314e-24
2.18776e-24
1.77422e-24
1.42669e-24
1.30383e-24
7.9816e-25
8.80697e-26
3.39401e-27
2.19812e-28
2.1268e-29
6.83373e-27
1.49802e-30
4.19346e-27
6.92893e-30
9.93904e-27
4.55217e-27
9.80225e-27
1.11711e-26
1.61689e-26
2.31853e-26
3.17725e-26
4.29127e-26
5.53679e-26
6.76051e-26
7.7808e-26
8.53518e-26
8.46754e-26
8.1562e-26
7.21309e-26
6.17424e-26
5.10857e-26
4.0225e-26
3.11807e-26
2.39505e-26
2.09264e-26
1.19071e-26
1.10896e-27
4.5842e-29
2.30729e-30
1.96485e-31
6.80314e-29
9.84898e-33
5.8372e-29
6.12352e-32
1.48382e-28
7.02588e-29
1.58334e-28
1.89132e-28
2.85962e-28
4.29382e-28
6.14334e-28
8.62045e-28
1.1483e-27
1.4357e-27
1.67585e-27
1.84691e-27
1.83078e-27
1.74485e-27
1.50881e-27
1.25358e-27
9.99252e-28
7.53737e-28
5.58385e-28
4.09686e-28
3.42472e-28
1.81995e-28
1.39742e-29
6.34126e-31
2.22131e-32
1.47075e-33
7.12265e-31
9.61866e-35
8.5007e-31
6.76901e-34
2.26423e-30
1.11011e-30
2.59351e-30
3.24002e-30
5.10456e-30
8.00418e-30
1.19324e-29
1.73683e-29
2.38557e-29
3.05242e-29
3.61387e-29
4.00402e-29
3.97093e-29
3.74596e-29
3.17351e-29
2.56369e-29
1.97222e-29
1.42791e-29
1.01369e-29
7.13175e-30
5.72964e-30
2.84377e-30
1.81213e-31
9.17625e-33
2.67733e-34
1.37057e-35
7.72291e-33
1.32199e-36
1.26083e-32
1.37686e-35
3.48211e-32
1.78185e-32
4.20049e-32
5.52636e-32
9.06763e-32
1.48408e-31
2.30604e-31
3.48184e-31
4.92892e-31
6.45817e-31
7.76715e-31
8.65697e-31
8.59037e-31
8.03331e-31
6.68833e-31
5.26057e-31
3.90881e-31
2.72098e-31
1.8521e-31
1.24947e-31
9.55781e-32
4.50187e-32
3.01035e-33
1.69132e-34
3.79604e-36
1.96536e-37
8.55375e-35
2.99478e-38
1.74686e-34
2.54063e-36
4.93173e-34
2.74584e-34
6.37815e-34
8.8138e-34
1.48551e-33
2.5136e-33
4.0354e-33
6.27032e-33
9.10072e-33
1.21585e-32
1.48101e-32
1.65872e-32
1.63772e-32
1.51249e-32
1.23442e-32
9.46124e-33
6.81751e-33
4.58685e-33
3.01209e-33
1.96504e-33
1.45613e-33
6.583e-34
4.52281e-35
4.18397e-36
1.04297e-37
7.84066e-39
9.5337e-37
4.56612e-40
2.24777e-36
5.78375e-38
6.49512e-36
3.79181e-36
8.80426e-36
1.26524e-35
2.18746e-35
3.82383e-35
6.33633e-35
1.01367e-34
1.51025e-34
2.06086e-34
2.54792e-34
2.87559e-34
2.81356e-34
2.56037e-34
2.04637e-34
1.52925e-34
1.07183e-34
7.00499e-35
4.4596e-35
2.82785e-35
2.03602e-35
8.94841e-36
5.95737e-37
5.32616e-38
1.42416e-39
1.00992e-40
1.04704e-38
5.46655e-42
2.71632e-38
8.53703e-40
7.99726e-38
4.86538e-38
1.12484e-37
1.67094e-37
2.94582e-37
5.28582e-37
8.9852e-37
1.47154e-36
2.23938e-36
3.10885e-36
3.89038e-36
4.41783e-36
4.28015e-36
3.83893e-36
3.03606e-36
2.23433e-36
1.53388e-36
9.78247e-37
6.07051e-37
3.7609e-37
2.63876e-37
1.12325e-37
7.30411e-39
6.23695e-40
1.66408e-41
1.14218e-42
1.11538e-40
6.10955e-44
3.06529e-40
1.20541e-41
9.13504e-40
5.75368e-40
1.31727e-39
2.00753e-39
3.5818e-39
6.54446e-39
1.13241e-38
1.88498e-38
2.9116e-38
4.09145e-38
5.16396e-38
5.88949e-38
5.64372e-38
5.05455e-38
3.95027e-38
2.86604e-38
1.93612e-38
1.21369e-38
7.39871e-39
4.51408e-39
3.11941e-39
1.2903e-39
8.26782e-41
6.87946e-42
1.83961e-43
1.20831e-44
1.13416e-42
6.3346e-46
3.20122e-42
1.49468e-43
9.58321e-42
6.2018e-42
1.39814e-41
2.16746e-41
3.88071e-41
7.15552e-41
1.24927e-40
2.09621e-40
3.26262e-40
4.61349e-40
5.84867e-40
6.68524e-40
6.3674e-40
5.67839e-40
4.40322e-40
3.16838e-40
2.12191e-40
1.31853e-40
7.96725e-41
4.83049e-41
3.31648e-41
1.3464e-41
8.54505e-43
7.00012e-44
1.88463e-45
1.18567e-46
1.08537e-44
6.01279e-48
3.05773e-44
1.63264e-45
9.1223e-44
6.02034e-44
1.32881e-43
2.07691e-43
3.69845e-43
6.81636e-43
1.18934e-42
1.9935e-42
3.10129e-42
4.38379e-42
5.55602e-42
6.34963e-42
6.02459e-42
5.3491e-42
4.13473e-42
2.97051e-42
1.98859e-42
1.23632e-42
7.47758e-43
4.54927e-43
3.13257e-43
1.26421e-43
7.96484e-45
6.48988e-46
1.76474e-47
1.06506e-48
9.64074e-47
5.16007e-50
2.63723e-46
1.56762e-47
7.77987e-46
5.19938e-46
1.11704e-45
1.74476e-45
3.06209e-45
5.58579e-45
9.6435e-45
1.59912e-44
2.46491e-44
3.45784e-44
4.35863e-44
4.96644e-44
4.69319e-44
4.15897e-44
3.22065e-44
2.32691e-44
1.57096e-44
9.86862e-45
6.03596e-45
3.72239e-45
2.59607e-45
1.05058e-45
6.62784e-47
5.41023e-48
1.49089e-49
8.6258e-51
7.83707e-49
3.95459e-52
2.02843e-48
1.31657e-49
5.87252e-48
3.94898e-48
8.20982e-48
1.2704e-47
2.17733e-47
3.89241e-47
6.58116e-47
1.06878e-46
1.61722e-46
2.23393e-46
2.7847e-46
3.15427e-46
2.96725e-46
2.6312e-46
2.0521e-46
1.50248e-46
1.03256e-46
6.62191e-47
4.1392e-47
2.61437e-47
1.86539e-47
7.63465e-48
4.87565e-49
4.0027e-50
1.12232e-51
6.21064e-53
5.7535e-51
2.67593e-54
1.37563e-50
9.61085e-52
3.88e-50
2.61003e-50
5.22002e-50
7.93465e-50
1.31601e-49
2.28281e-49
3.74055e-49
5.88709e-49
8.65902e-49
1.16793e-48
1.43087e-48
1.60597e-48
1.50277e-48
1.33696e-48
1.05601e-48
7.89907e-49
5.5804e-49
3.69293e-49
2.38468e-49
1.55877e-49
1.14965e-49
4.79882e-50
3.12385e-51
2.5987e-52
7.44246e-54
3.93922e-55
3.76637e-53
1.58244e-56
8.14205e-53
6.05687e-54
2.22152e-52
1.48699e-52
2.84429e-52
4.21154e-52
6.69872e-52
1.11638e-51
1.75397e-51
2.64621e-51
3.7442e-51
4.88654e-51
5.84393e-51
6.47553e-51
6.02078e-51
5.38884e-51
4.33636e-51
3.34269e-51
2.45303e-51
1.69397e-51
1.14262e-51
7.81137e-52
6.01887e-52
2.58346e-52
1.72569e-53
1.46495e-54
4.30242e-56
2.16945e-57
2.17208e-55
8.10284e-59
4.16735e-55
3.27281e-56
1.09232e-54
7.24011e-55
1.31686e-54
1.88359e-54
2.84753e-54
4.51432e-54
6.72658e-54
9.61771e-54
1.29459e-53
1.61864e-53
1.87531e-53
2.04307e-53
1.88491e-53
1.70191e-53
1.40425e-53
1.12606e-53
8.68034e-54
6.32921e-54
4.51081e-54
3.25989e-54
2.65379e-54
1.18082e-54
8.14556e-56
7.12468e-57
2.14672e-58
1.02872e-59
1.09152e-57
3.56219e-61
1.82895e-57
1.5061e-58
4.57425e-57
2.98904e-57
5.14043e-57
7.04285e-57
1.00303e-56
1.49766e-56
2.0927e-56
2.80175e-56
3.54461e-56
4.19913e-56
4.67258e-56
4.98124e-56
4.55213e-56
4.15806e-56
3.54206e-56
2.98558e-56
2.44757e-56
1.90825e-56
1.45435e-56
1.12319e-56
9.77804e-57
4.54621e-57
3.25818e-58
2.95942e-59
9.17531e-61
4.16688e-62
4.75156e-60
1.33382e-63
6.82823e-60
5.86395e-61
1.6187e-59
1.03865e-59
1.67978e-59
2.18513e-59
2.90635e-59
4.04637e-59
5.2403e-59
6.48583e-59
7.61064e-59
8.43628e-59
8.92636e-59
9.25914e-59
8.36159e-59
7.74971e-59
6.86694e-59
6.15465e-59
5.44112e-59
4.59956e-59
3.79705e-59
3.16802e-59
2.98949e-59
1.4636e-59
1.09588e-60
1.03961e-61
3.33545e-63
1.43053e-64
1.7736e-62
4.22113e-66
2.15198e-62
1.91927e-63
4.80409e-62
3.01644e-62
4.56437e-62
5.58441e-62
6.87797e-62
8.83977e-62
1.04804e-61
1.18286e-61
1.2685e-61
1.29686e-61
1.28932e-61
1.29241e-61
1.14989e-61
1.08409e-61
1.00778e-61
9.73145e-62
9.43048e-62
8.77717e-62
7.9566e-62
7.24891e-62
7.53473e-62
3.91243e-62
3.0762e-63
3.06473e-64
1.02136e-65
4.12929e-67
5.60281e-65
1.12044e-68
5.6816e-65
5.24686e-66
1.18678e-64
7.27075e-65
1.02475e-64
1.16665e-64
1.31953e-64
1.55032e-64
1.66059e-64
1.68489e-64
1.62304e-64
1.50266e-64
1.38702e-64
1.33098e-64
1.16247e-64
1.11554e-64
1.10091e-64
1.15783e-64
1.25845e-64
1.31159e-64
1.32397e-64
1.33164e-64
1.55653e-64
8.62288e-65
7.15161e-66
7.52288e-67
2.61399e-68
9.93264e-70
1.48588e-67
2.47488e-71
1.24676e-67
1.19018e-68
2.42113e-67
1.44408e-67
1.88955e-67
1.97678e-67
2.03344e-67
2.16846e-67
2.0613e-67
1.84481e-67
1.57946e-67
1.29949e-67
1.08729e-67
9.8879e-68
8.41003e-68
8.24957e-68
8.70247e-68
1.02939e-67
1.26518e-67
1.5086e-67
1.7503e-67
1.95493e-67
2.57349e-67
1.55516e-67
1.36579e-68
1.5251e-69
5.54634e-71
1.97159e-72
3.28135e-70
4.51123e-74
2.25486e-70
2.22444e-71
4.04415e-70
2.34501e-70
2.7926e-70
2.70089e-70
2.53438e-70
2.3518e-70
2.01432e-70
1.55402e-70
1.14207e-70
8.15843e-71
6.0611e-71
5.14083e-71
4.21216e-71
4.21397e-71
4.80621e-71
6.49135e-71
9.38586e-71
1.32459e-70
1.7715e-70
2.32584e-70
3.36641e-70
2.2763e-70
2.12333e-71
2.53088e-72
9.67179e-74
3.18957e-75
5.9829e-73
6.72363e-77
3.33001e-73
3.39902e-74
5.4773e-73
3.08625e-73
3.29729e-73
2.97086e-73
2.4648e-73
2.04055e-73
1.48779e-73
9.77669e-74
6.03909e-74
3.62384e-74
2.31162e-74
1.7865e-74
1.38148e-74
1.39396e-74
1.7294e-74
2.76089e-74
4.91852e-74
8.50686e-74
1.36015e-73
2.17461e-73
3.46711e-73
2.67857e-73
2.6592e-74
3.40358e-75
1.37274e-76
4.27204e-78
8.92333e-76
8.10797e-80
3.97314e-76
4.20863e-77
5.94622e-76
3.25836e-76
3.08749e-76
2.61045e-76
1.86077e-76
1.3402e-76
8.28057e-77
4.50347e-77
2.25974e-77
1.0904e-77
5.67525e-78
3.85731e-78
2.69493e-78
2.60257e-78
3.42836e-78
6.87635e-78
1.66474e-77
3.80765e-77
7.64229e-77
1.57097e-76
2.75813e-76
2.50573e-76
2.64877e-77
3.66523e-78
1.56799e-79
5.03913e-81
1.07727e-78
7.81277e-83
3.78137e-79
4.17847e-80
5.10175e-79
2.72549e-79
2.25893e-79
1.78479e-79
1.07412e-79
6.60713e-80
3.37298e-80
1.46523e-80
5.81542e-81
2.33514e-81
1.02301e-81
6.21598e-82
4.21535e-82
3.8875e-82
3.96855e-82
1.18803e-81
3.57216e-81
1.05076e-80
2.94485e-80
8.60457e-80
1.64658e-79
1.83868e-79
2.0649e-80
3.11428e-81
1.42166e-82
4.73338e-84
1.03969e-81
5.9238e-86
2.82571e-82
3.28353e-83
3.39751e-82
1.77829e-82
1.26682e-82
9.34005e-83
4.61707e-83
2.36884e-83
9.65409e-84
3.49814e-84
1.0932e-84
3.12988e-85
9.64661e-86
4.51496e-86
2.94593e-86
2.93194e-86
2.063e-86
1.18778e-85
5.74589e-85
2.19681e-84
6.86559e-84
3.28346e-83
7.43291e-83
1.01937e-82
1.23336e-83
2.04832e-84
1.00545e-85
3.48136e-87
7.89968e-85
3.46485e-89
1.62435e-85
2.00871e-86
1.71426e-85
8.87047e-86
5.30771e-86
3.65266e-86
1.42446e-86
6.24578e-87
2.11124e-87
5.41056e-88
1.07811e-88
1.65823e-89
1.9411e-90
8.8961e-92
6.61871e-92
4.94602e-91
5.34236e-94
2.48933e-90
4.14833e-89
2.89564e-88
1.34798e-87
7.4121e-87
2.6034e-86
4.02812e-86
5.47925e-87
1.01615e-87
5.41877e-89
1.96063e-90
4.63337e-88
1.52212e-92
6.98562e-89
9.36126e-90
6.33297e-89
3.33409e-89
1.60336e-89
1.02273e-89
3.39449e-90
1.16286e-90
2.70186e-91
3.99257e-92
2.80996e-93
3.13766e-95
8.57909e-97
5.13846e-97
4.39119e-97
5.4048e-97
3.11142e-95
1.05001e-98
4.81871e-95
1.48667e-92
1.42992e-91
1.30563e-90
6.77612e-90
1.11243e-89
1.73279e-90
3.66389e-91
2.15441e-92
8.19566e-94
2.04298e-91
4.83506e-96
2.15938e-92
3.21837e-93
1.63326e-92
9.40527e-93
3.83058e-93
2.05031e-93
5.22451e-94
1.20518e-94
1.4649e-95
3.6245e-97
8.73528e-100
2.4258e-100
8.53074e-101
4.68527e-101
4.04006e-101
5.32358e-101
1.02208e-100
3.66726e-100
3.16242e-97
1.1111e-99
4.62193e-96
1.26524e-94
1.48586e-93
2.55943e-93
4.17536e-94
9.0918e-95
6.02878e-96
2.43006e-97
6.52212e-95
1.17268e-99
5.15824e-96
7.88916e-97
3.60363e-96
1.91821e-96
6.11188e-97
2.47462e-97
4.09243e-98
4.31706e-99
7.11679e-101
4.284e-103
9.36672e-104
2.16591e-104
6.4825e-105
3.24004e-105
2.81432e-105
4.02818e-105
8.58234e-105
2.60069e-104
1.31211e-103
7.9729e-101
1.49366e-103
2.47152e-99
2.02143e-97
4.06192e-97
8.58751e-98
2.10087e-98
1.40562e-99
4.74377e-101
1.58898e-98
2.05731e-103
8.82616e-100
1.26327e-100
4.98053e-100
2.37981e-100
5.17591e-101
1.31738e-101
6.56713e-103
5.34571e-105
2.29549e-106
4.50316e-107
7.94981e-108
1.49215e-108
3.76066e-109
1.70336e-109
1.48014e-109
2.31504e-109
5.45681e-109
1.83017e-108
1.00734e-107
6.81512e-107
5.64371e-105
2.3753e-103
1.40315e-101
3.44832e-101
1.06015e-101
3.06781e-102
2.28943e-103
5.24641e-105
2.81567e-102
2.0835e-107
8.57754e-104
1.13837e-104
3.41543e-104
1.3728e-104
1.13548e-105
5.30349e-107
4.6122e-109
1.19219e-109
2.3698e-110
3.75055e-111
5.27818e-112
7.98437e-113
1.70952e-113
7.17378e-114
6.02081e-114
1.0267e-113
2.62743e-113
9.21573e-113
6.46786e-112
6.24297e-111
4.28115e-110
2.83061e-109
2.97157e-106
7.93751e-106
6.04221e-106
2.29838e-106
2.04111e-107
2.1192e-109
2.91413e-106
8.09804e-112
3.00607e-108
3.61546e-109
3.42729e-109
8.55804e-110
5.65067e-112
1.95582e-112
5.55248e-113
1.20506e-113
1.95735e-114
2.47771e-115
2.77822e-116
3.52395e-117
7.31929e-118
3.33108e-118
2.885e-118
4.06656e-118
1.03766e-117
3.15668e-117
2.83702e-116
4.4479e-115
4.12132e-114
3.15567e-113
2.17028e-112
5.09962e-112
1.11469e-111
3.62121e-111
5.63516e-112
3.91393e-113
1.29162e-110
2.70436e-119
1.2687e-114
1.38921e-115
4.50503e-115
2.20146e-115
7.28722e-116
2.23116e-116
5.43171e-117
9.82857e-118
1.29736e-118
1.32014e-119
1.26135e-120
1.75776e-121
5.37655e-122
3.24868e-122
3.0686e-122
4.0667e-122
5.51017e-122
9.97374e-122
8.2916e-121
2.45141e-119
3.20391e-118
3.06377e-117
2.55687e-116
6.82555e-116
5.6802e-116
1.05194e-115
3.30773e-117
5.85774e-119
3.56921e-115
3.90602e-123
1.81137e-118
1.80573e-119
5.86615e-119
2.59434e-119
7.74142e-120
2.0789e-120
4.31924e-121
6.49351e-122
7.03079e-123
6.24276e-124
7.17856e-125
1.77583e-125
7.94328e-126
5.34769e-126
5.1635e-126
7.20638e-126
1.21306e-125
1.34722e-125
2.72087e-125
1.08313e-123
2.02606e-122
2.43603e-121
2.46222e-120
7.51476e-120
6.92017e-120
1.38177e-119
4.6979e-121
7.1561e-123
5.18851e-119
4.69084e-127
2.14677e-122
1.94311e-123
6.31699e-123
2.5196e-123
6.76412e-124
1.58771e-124
2.81196e-125
3.55931e-126
3.45723e-127
3.85276e-128
8.32713e-129
2.94779e-129
1.41504e-129
9.58474e-130
9.30613e-130
1.32295e-129
2.54349e-129
5.32148e-129
6.98873e-129
5.4001e-128
1.08475e-126
1.5966e-125
1.93747e-124
6.81209e-124
6.9738e-124
1.50552e-123
5.63174e-125
7.26004e-127
6.28542e-123
4.70701e-131
2.12229e-126
1.74176e-127
5.65497e-127
2.02744e-127
4.89614e-128
1.00646e-128
1.54943e-129
1.8231e-130
2.26888e-131
4.72552e-132
1.43452e-132
5.34209e-133
2.55095e-133
1.71699e-133
1.67341e-133
2.411e-133
4.79035e-133
1.20203e-132
3.04734e-132
6.11036e-132
5.86393e-131
8.8921e-130
1.22147e-128
5.11051e-128
5.87419e-128
1.36754e-127
5.87417e-129
6.16185e-131
6.37369e-127
3.98385e-135
1.76699e-130
1.31437e-131
4.2533e-131
1.36817e-131
2.99923e-132
5.56575e-133
8.36764e-134
1.29234e-134
2.8834e-135
8.27886e-136
2.62892e-136
9.68627e-137
4.57306e-137
3.05883e-137
2.99103e-137
4.36023e-137
8.83541e-137
2.30876e-136
6.96381e-136
2.02811e-135
5.01914e-135
4.77804e-134
6.582e-133
3.2191e-132
4.15888e-132
1.05925e-131
5.80608e-133
4.43187e-135
5.45961e-131
2.89841e-139
1.26333e-134
8.56869e-136
2.75634e-135
8.02672e-136
1.68265e-136
3.26126e-137
6.66289e-138
1.72678e-138
5.11974e-139
1.53466e-139
4.81101e-140
1.74604e-140
8.15711e-141
5.42723e-141
5.32208e-141
7.84032e-141
1.61613e-140
4.32051e-140
1.35683e-139
4.43673e-139
1.39167e-138
4.38635e-138
3.39112e-137
1.8304e-136
2.58909e-136
7.37002e-136
6.47988e-137
2.75887e-139
4.02544e-135
1.8917e-143
8.11462e-139
5.22089e-140
1.65465e-139
4.62552e-140
1.11942e-140
3.05472e-141
9.60782e-142
3.12198e-142
9.61076e-143
2.84222e-143
8.75297e-144
3.13426e-144
1.45208e-144
9.62763e-145
9.46954e-145
1.40632e-144
2.94208e-144
8.01874e-144
2.5768e-143
8.7131e-143
2.89251e-142
9.03127e-142
3.43718e-141
1.3225e-140
1.92758e-140
5.30178e-140
9.59862e-141
1.53782e-143
2.70001e-139
5.93452e-147
5.26665e-143
3.52734e-144
1.12968e-143
3.59742e-144
1.2694e-144
4.85449e-145
1.80437e-145
6.16437e-146
1.98372e-146
6.43707e-147
4.80322e-147
4.35395e-147
4.21676e-147
4.16902e-147
4.16787e-147
4.21452e-147
4.3453e-147
4.773e-147
6.34058e-147
1.84504e-146
5.92261e-146
1.83019e-145
5.73265e-145
1.58199e-144
2.23553e-144
5.24647e-144
1.79936e-144
2.59205e-146
1.82928e-143
3.27857e-148
6.88636e-147
6.17303e-145
7.40941e-145
4.33688e-145
1.84741e-145
7.08917e-146
2.61868e-146
1.03638e-146
4.54279e-147
1.95088e-147
7.38756e-148
2.81469e-148
1.315e-148
8.71753e-149
8.64076e-149
1.30125e-148
2.75155e-148
7.20475e-148
1.9115e-147
4.47366e-147
1.02525e-146
2.64035e-146
7.48329e-146
2.1784e-145
5.46989e-145
5.30204e-145
2.67897e-146
2.24298e-146
2.71444e-146
1
1
1
1
1
1
1
1
1
1
1
1
1
1
1
1
1
1
1
1
1
1
1
1
1
1
1
1
1
1
1
1
1
1
1
1
1
1
1
1
1
1
1
1
1
1
1
1
1
1
1
1
1
1
1
1
1
1
1
1
1
1
1
1
1
1
1
1
1
1
1
1
1
1
1
1
1
1
1
1
1
1
1
1
1
1
1
1
1
1
1
1
1
1
1
1
1
1
1
1
1
1
1
1
1
1
1
1
1
1
1
1
1
1
1
1
1
1
1
1
1
1
1
1
1
1
1
1
1
1
1
1
1
1
1
1
1
1
1
1
1
1
1
1
1
1
1
1
1
1
1
1
1
1
1
1
1
1
1
1
1
1
1
1
1
1
1
1
1
1
1
1
1
1
1
1
1
1
1
1
1
1
1
1
1
1
1
1
1
1
1
1
1
1
1
1
1
1
1
1
1
1
1
1
1
1
1
1
1
1
1
1
1
1
1
1
1
1
1
1
1
1
1
1
1
1
1
1
1
1
1
1
1
1
1
1
1
1
1
1
1
1
1
1
1
1
1
1
1
1
1
1
1
1
1
1
1
1
1
1
1
1
1
1
1
1
1
1
1
1
1
1
1
1
1
1
1
1
1
1
1
1
1
1
1
1
1
1
1
1
1
1
1
1
1
1
1
1
1
1
1
1
1
1
1
1
1
1
1
1
1
1
1
1
1
1
1
1
1
1
1
1
1
1
1
1
1
1
1
1
1
1
1
1
1
1
1
1
1
1
1
1
1
1
1
1
1
1
1
1
1
1
1
1
1
1
1
1
1
1
1
1
1
1
1
1
1
1
1
1
1
1
1
1
1
1
1
1
1
1
1
1
1
1
1
1
1
1
1
1
1
1
1
1
1
1
1
1
1
1
1
1
1
1
1
1
1
1
1
1
1
1
1
1
1
1
1
1
1
1
1
1
1
1
1
1
1
1
1
1
1
1
1
1
1
1
1
1
1
1
1
1
1
1
1
1
1
1
1
1
1
1
1
1
1
1
1
1
1
1
1
1
1
1
1
1
1
1
1
1
1
1
1
1
1
1
1
1
1
1
1
1
1
1
1
1
1
1
1
1
1
1
1
1
1
1
1
1
1
1
1
1
1
1
1
1
1
1
1
1
1
1
1
1
1
1
1
1
1
1
1
1
1
1
1
1
1
1
1
1
1
1
1
1
1
1
1
1
1
1
1
1
1
1
1
1
1
1
1
1
1
1
1
1
1
1
1
1
1
1
1
1
1
1
1
1
1
1
1
1
1
1
1
1
1
1
1
1
1
1
1
1
1
1
1
1
1
1
1
1
1
1
1
1
1
1
1
1
1
1
1
1
1
1
1
1
1
1
1
1
1
1
1
1
1
1
1
1
1
1
1
1
1
1
1
1
1
1
1
1
1
1
1
1
1
1
1
1
1
1
1
1
1
1
1
1
1
1
1
1
1
1
1
1
1
1
1
1
1
1
1
1
1
1
1
1
1
1
1
1
1
1
1
1
1
1
1
1
1
1
1
1
1
1
1
1
1
1
1
1
1
1
1
1
1
1
1
1
1
1
1
1
1
1
1
1
1
1
1
1
1
1
1
1
1
1
1
1
1
1
1
1
1
1
1
1
1
1
1
1
1
1
1
1
1
1
1
1
1
1
1
1
1
1
1
1
1
1
1
1
1
1
1
1
1
1
1
1
1
1
1
1
1
1
1
1
1
1
1
1
1
1
1
1
1
1
1
1
1
1
1
1
1
1
1
1
1
1
1
1
1
1
1
1
1
1
1
1
1
1
1
1
1
1
1
1
1
1
1
1
1
1
1
1
1
1
1
1
1
1
1
1
1
1
1
1
1
1
1
1
1
1
1
1
1
1
1
1
1
1
1
1
1
1
1
1
1
1
1
1
1
1
1
1
1
1
1
1
1
1
1
1
1
1
1
1
1
1
1
1
1
1
1
1
1
1
1
1
1
1
1
1
1
1
1
1
1
1
1
1
1
1
1
1
1
1
1
1
1
1
1
1
1
1
1
1
1
1
1
1
1
1
1
1
1
1
1
1
1
1
1
1
1
1
1
1
1
1
1
1
1
1
1
1
1
1
1
1
1
1
1
1
1
1
1
1
1
1
1
1
1
1
1
1
1
1
1
1
1
1
1
1
1
1
1
1
1
1
1
1
1
1
1
1
1
1
1
1
1
1
1
1
1
1
1
1
1
1
1
1
1
1
1
1
1
1
1
1
1
1
1
1
1
1
1
1
1
1
1
1
1
1
1
1
1
1
1
1
1
1
1
1
1
1
1
1
1
1
1
1
1
1
1
1
1
1
1
1
1
1
1
1
1
1
1
1
1
1
1
1
1
1
1
1
1
1
1
1
1
1
1
1
1
1
1
1
1
1
1
1
1
1
1
1
1
1
1
1
1
1
1
1
1
1
1
1
1
1
1
1
1
1
1
1
1
1
1
1
1
1
1
1
1
1
1
1
1
1
1
1
1
1
1
1
1
1
1
1
1
1
1
1
1
1
1
1
1
1
1
1
1
1
1
1
1
1
1
1
1
1
1
1
1
1
1
1
1
1
1
1
1
1
1
1
1
1
1
1
1
1
1
1
1
1
1
1
1
1
1
1
1
1
1
1
1
1
1
1
1
1
1
1
1
1
1
1
1
1
1
1
1
1
1
1
1
1
1
1
1
1
1
1
1
1
1
1
1
1
1
1
1
1
1
1
1
1
1
1
1
1
1
1
1
1
1
1
1
1
1
1
1
1
1
1
1
1
1
1
1
1
1
1
1
1
1
1
1
1
1
1
1
1
1
1
1
1
1
1
1
1
1
1
1
1
1
1
1
1
1
1
1
1
1
1
1
1
1
1
1
1
1
1
1
1
1
1
1
1
1
1
1
1
1
1
1
1
1
1
1
1
1
1
1
1
1
1
1
1
1
1
1
1
1
1
1
1
1
1
1
1
1
1
1
1
1
1
1
1
1
1
1
1
1
1
1
1
1
1
1
1
1
1
1
1
1
1
1
1
1
1
1
1
1
1
1
1
1
1
1
1
1
1
1
1
1
1
1
1
1
1
1
1
1
1
1
1
1
1
1
1
1
1
0.999999
0.999999
0.999999
1
1
1
1
1
1
1
1
1
1
1
1
1
1
1
1
1
1
1
1
0.999999
0.999999
0.999999
0.999999
0.999998
1
1
1
1
1
1
1
1
1
1
1
1
1
1
1
1
1
1
1
1
1
1
1
1
1
1
1
1
1
1
1
1
1
1
1
1
1
1
1
1
1
1
1
1
1
1
1
1
1
1
1
1
1
1
1
1
1
1
1
1
0.99996
1
0.999981
1
0.999993
0.999991
0.99999
0.99999
0.999991
0.999992
0.999992
0.999992
0.999992
0.999992
0.999992
0.999992
0.999992
0.999993
0.999992
0.999991
0.99999
0.999989
0.999988
0.999988
0.999982
0.999989
0.999978
0.999937
0.999901
0.999831
8.45126e-05
4.47145e-05
6.21037e-05
4.51762e-05
4.93073e-05
5.05024e-05
5.0068e-05
4.85982e-05
4.64396e-05
4.42947e-05
4.22858e-05
4.09277e-05
3.99201e-05
3.91162e-05
3.88896e-05
3.88877e-05
3.90431e-05
3.97999e-05
4.12963e-05
4.33703e-05
4.55576e-05
4.78139e-05
5.01087e-05
5.24222e-05
5.86489e-05
5.51989e-05
6.64398e-05
0.00010465
0.000139953
0.000202748
5.96152e-11
2.09622e-10
6.54531e-11
1.44449e-10
8.83434e-11
7.89988e-11
8.28458e-11
8.53569e-11
8.58827e-11
8.69107e-11
8.71326e-11
8.28148e-11
8.00073e-11
7.81945e-11
7.54247e-11
7.46882e-11
7.85827e-11
8.28711e-11
8.48665e-11
8.5589e-11
8.5502e-11
8.85833e-11
9.18971e-11
1.02491e-10
1.0342e-10
1.52857e-10
1.70778e-10
5.53584e-11
8.4574e-12
4.01239e-14
1.56353e-13
9.39567e-13
2.96073e-13
6.72933e-13
4.23562e-13
3.89458e-13
4.18057e-13
4.44222e-13
4.59763e-13
4.7831e-13
4.91061e-13
4.75567e-13
4.66068e-13
4.5979e-13
4.47135e-13
4.43582e-13
4.64403e-13
4.84205e-13
4.88695e-13
4.83183e-13
4.7169e-13
4.74505e-13
4.7072e-13
5.20359e-13
5.13317e-13
7.4288e-13
7.87176e-13
1.22608e-13
1.79565e-14
3.09537e-16
5.39464e-16
5.82996e-15
1.62205e-15
4.37922e-15
2.84112e-15
2.69282e-15
2.98376e-15
3.27647e-15
3.50729e-15
3.76e-15
3.96244e-15
3.91629e-15
3.9001e-15
3.88893e-15
3.8008e-15
3.77114e-15
3.9342e-15
4.06774e-15
4.04737e-15
3.92584e-15
3.74391e-15
3.6625e-15
3.56275e-15
3.70996e-15
3.54338e-15
4.94587e-15
3.51321e-15
4.59515e-16
6.8621e-17
8.1295e-17
1.35365e-17
4.59323e-17
1.26191e-17
3.61673e-17
2.41289e-17
2.35819e-17
2.71232e-17
3.08683e-17
3.4261e-17
3.79425e-17
4.11529e-17
4.16576e-17
4.22435e-17
4.26974e-17
4.20799e-17
4.17826e-17
4.33536e-17
4.43197e-17
4.33321e-17
4.11164e-17
3.81774e-17
3.6299e-17
3.42465e-17
3.45546e-17
3.26607e-17
4.21745e-17
3.83814e-17
3.18711e-17
5.76745e-18
3.38047e-19
1.68405e-19
5.70263e-19
1.78684e-19
4.15766e-19
2.67967e-19
2.48233e-19
2.9678e-19
3.51455e-19
4.05604e-19
4.65666e-19
5.21513e-19
5.42592e-19
5.65647e-19
6.28338e-19
6.74344e-19
6.6945e-19
6.82366e-19
6.9743e-19
6.78951e-19
6.72872e-19
6.10948e-19
5.77276e-19
5.39607e-19
5.32612e-19
4.93901e-19
5.88851e-19
6.44913e-19
3.62738e-19
5.47573e-20
1.20194e-21
1.87889e-21
6.77063e-21
2.17299e-21
5.30854e-21
3.60148e-21
3.54947e-21
4.3553e-21
5.24628e-21
6.20866e-21
7.4191e-21
8.60584e-21
9.37262e-21
1.03378e-20
1.13814e-20
1.20364e-20
1.19408e-20
1.21157e-20
1.2124e-20
1.16012e-20
1.09132e-20
9.59916e-21
8.66429e-21
7.72185e-21
7.27692e-21
6.36755e-21
7.52478e-21
7.66279e-21
4.00007e-21
5.7111e-22
9.09427e-24
2.33379e-23
8.88146e-23
2.88423e-23
7.38968e-23
5.22454e-23
5.48446e-23
7.04908e-23
8.93755e-23
1.10857e-22
1.37857e-22
1.66259e-22
1.86061e-22
2.06567e-22
2.28163e-22
2.40185e-22
2.3825e-22
2.40009e-22
2.35708e-22
2.20962e-22
1.9837e-22
1.68469e-22
1.45177e-22
1.23188e-22
1.10613e-22
9.13381e-23
1.05146e-22
1.00875e-22
4.84398e-23
6.36976e-24
8.37295e-26
3.12311e-25
1.21051e-24
3.99942e-25
1.07733e-24
7.94832e-25
8.80422e-25
1.18633e-24
1.58355e-24
2.0636e-24
2.68303e-24
3.37478e-24
3.90181e-24
4.42567e-24
4.89866e-24
5.15856e-24
5.11757e-24
5.12045e-24
4.95918e-24
4.49613e-24
3.85217e-24
3.14894e-24
2.58754e-24
2.08697e-24
1.78533e-24
1.39761e-24
1.55869e-24
1.41786e-24
6.31111e-25
7.57564e-26
8.76185e-28
4.19347e-27
1.68798e-26
5.70514e-27
1.61313e-26
1.24213e-26
1.44611e-26
2.04569e-26
2.87889e-26
3.95095e-26
5.38861e-26
7.08533e-26
8.48785e-26
9.86418e-26
1.10448e-25
1.16151e-25
1.15158e-25
1.14776e-25
1.08598e-25
9.50536e-26
7.78136e-26
6.07863e-26
4.75128e-26
3.63457e-26
2.9583e-26
2.20233e-26
2.37881e-26
2.06669e-26
8.65273e-27
9.60512e-28
1.00733e-29
5.83721e-29
2.45768e-28
8.49988e-29
2.49878e-28
2.00402e-28
2.44257e-28
3.62189e-28
5.36409e-28
7.74337e-28
1.10726e-27
1.52116e-27
1.88901e-27
2.2517e-27
2.56195e-27
2.69791e-27
2.6761e-27
2.64448e-27
2.44393e-27
2.06683e-27
1.62102e-27
1.20731e-27
8.98011e-28
6.51957e-28
5.04942e-28
3.57908e-28
3.73698e-28
3.11392e-28
1.23272e-28
1.28866e-29
1.22868e-31
8.50072e-31
3.69149e-30
1.29806e-30
3.93314e-30
3.27816e-30
4.16792e-30
6.46052e-30
1.0037e-29
1.51926e-29
2.27111e-29
3.25108e-29
4.17874e-29
5.10943e-29
5.90815e-29
6.2545e-29
6.20751e-29
6.07234e-29
5.48911e-29
4.49502e-29
3.38745e-29
2.41212e-29
1.7121e-29
1.18354e-29
8.77216e-30
5.94838e-30
6.00104e-30
4.83326e-30
1.78971e-30
1.78354e-31
1.52543e-33
1.26083e-32
5.42941e-32
2.0018e-32
6.05552e-32
5.25545e-32
6.93899e-32
1.1212e-31
1.82628e-31
2.89479e-31