/*--------------------------------*- C++ -*----------------------------------*\
| =========                 |                                                 |
| \\      /  F ield         | OpenFOAM: The Open Source CFD Toolbox           |
|  \\    /   O peration     | Version:  2312                                  |
|   \\  /    A nd           | Website:  www.openfoam.com                      |
|    \\/     M anipulation  |                                                 |
\*---------------------------------------------------------------------------*/
FoamFile
{
    version     2.0;
    format      ascii;
    arch        "LSB;label=32;scalar=64";
    class       surfaceScalarField;
    location    "0.0470981";
    object      alphaPhi0.water;
}
// * * * * * * * * * * * * * * * * * * * * * * * * * * * * * * * * * * * * * //

dimensions      [0 3 -1 0 0 0 0];

oriented        oriented;

internalField   nonuniform List<scalar> 
263100
(
-1.10076e-13
2.20146e-13
-1.10077e-13
4.41252e-15
-2.89195e-13
-9.5384e-14
1.8533e-14
-1.5069e-13
-8.53374e-14
4.63773e-14
-1.44939e-13
-1.0179e-13
6.79023e-14
-1.41294e-13
-9.99006e-14
9.12771e-14
-1.43096e-13
-1.00225e-13
1.25149e-13
-1.46605e-13
-1.08625e-13
1.52073e-13
-1.4582e-13
-1.03545e-13
1.92789e-13
-1.55373e-13
-1.08478e-13
2.33287e-13
-1.56689e-13
-1.0847e-13
2.76756e-13
-1.61079e-13
-1.0854e-13
3.20589e-13
-1.64165e-13
-1.07169e-13
3.64118e-13
-1.67249e-13
-1.0524e-13
4.05478e-13
-1.68574e-13
-1.03342e-13
4.42454e-13
-1.68708e-13
-1.00508e-13
4.73751e-13
-1.67752e-13
-9.75001e-14
4.98343e-13
-1.66462e-13
-9.37799e-14
5.15089e-13
-1.64919e-13
-8.91287e-14
5.23053e-13
-1.63391e-13
-8.3489e-14
5.21611e-13
-1.61386e-13
-7.76624e-14
5.09468e-13
-1.5788e-13
-7.19868e-14
4.87705e-13
-1.53498e-13
-6.81818e-14
4.52831e-13
-1.49503e-13
-6.03745e-14
4.07323e-13
-1.47146e-13
-5.32485e-14
3.53199e-13
-1.45179e-13
-4.75745e-14
2.95837e-13
-1.44207e-13
-4.60873e-14
2.38e-13
-1.4495e-13
-4.54316e-14
1.84516e-13
-1.5531e-13
-3.97446e-14
1.49876e-13
-1.68022e-13
-4.59834e-14
-8.12602e-14
-1.74535e-14
5.37488e-14
-1.59538e-13
5.37486e-14
4.52569e-14
-7.69014e-13
4.83803e-14
5.16108e-14
-6.12713e-13
5.60909e-14
6.88619e-14
-6.03937e-13
4.369e-14
8.74516e-14
-6.05802e-13
4.60863e-14
1.11524e-13
-6.14658e-13
4.61905e-14
1.40443e-13
-6.23561e-13
4.48014e-14
1.70008e-13
-6.26153e-13
4.55085e-14
2.06505e-13
-6.43523e-13
4.43309e-14
2.43628e-13
-6.49098e-13
4.5279e-14
2.83584e-13
-6.58704e-13
4.50378e-14
3.24383e-13
-6.66437e-13
4.62361e-14
3.63538e-13
-6.71862e-13
4.73929e-14
3.98821e-13
-6.74312e-13
4.9374e-14
4.32486e-13
-6.78726e-13
5.21752e-14
4.63053e-13
-6.79891e-13
5.43001e-14
4.8704e-13
-6.77269e-13
5.65065e-14
5.02531e-13
-6.72625e-13
5.89281e-14
5.08334e-13
-6.66514e-13
6.11379e-14
5.0316e-13
-6.58331e-13
6.31392e-14
4.87177e-13
-6.4792e-13
6.43901e-14
4.61807e-13
-6.38526e-13
6.63268e-14
4.27357e-13
-6.28637e-13
6.73496e-14
3.81584e-13
-6.18051e-13
6.86015e-14
3.23609e-13
-6.05391e-13
6.862e-14
2.58785e-13
-5.98854e-13
6.87969e-14
1.89924e-13
-5.98448e-13
7.10047e-14
1.19822e-13
-6.14156e-13
7.73324e-14
6.52227e-14
-6.39158e-13
7.42082e-14
-4.6289e-13
7.42269e-14
8.93244e-14
-5.58474e-13
8.93243e-14
5.83383e-14
-1.1964e-12
7.14041e-14
6.4255e-14
-1.04885e-12
7.97827e-14
8.28892e-14
-1.04334e-12
7.1454e-14
1.06729e-13
-1.05303e-12
7.24694e-14
1.26144e-13
-1.06129e-12
7.54228e-14
1.51316e-13
-1.07868e-12
7.62374e-14
1.82001e-13
-1.09002e-12
7.76174e-14
2.15884e-13
-1.11291e-12
7.83393e-14
2.49945e-13
-1.1226e-12
7.98693e-14
2.80988e-13
-1.13243e-12
8.07696e-14
3.16364e-13
-1.14893e-12
8.29128e-14
3.54807e-13
-1.16075e-12
8.37219e-14
3.92676e-13
-1.16607e-12
8.44571e-14
4.25725e-13
-1.16964e-12
8.56341e-14
4.52612e-13
-1.16957e-12
8.77318e-14
4.72448e-13
-1.16495e-12
8.99889e-14
4.84327e-13
-1.15693e-12
9.18265e-14
4.88131e-13
-1.14669e-12
9.30799e-14
4.81085e-13
-1.13279e-12
9.55953e-14
4.65332e-13
-1.11734e-12
9.67889e-14
4.38861e-13
-1.09945e-12
9.6726e-14
4.01143e-13
-1.08197e-12
9.83564e-14
3.54595e-13
-1.06503e-12
9.91039e-14
3.02964e-13
-1.04956e-12
9.99485e-14
2.46643e-13
-1.03948e-12
1.00013e-13
1.80794e-13
-1.02809e-12
9.78507e-14
1.00958e-13
-1.028e-12
9.57192e-14
2.0781e-14
-1.04069e-12
8.38629e-14
-8.41338e-13
7.0612e-14
1.04001e-13
-9.76732e-13
1.04001e-13
6.92842e-14
-1.61611e-12
8.57146e-14
7.11992e-14
-1.47764e-12
9.26059e-14
9.26902e-14
-1.48145e-12
8.35887e-14
1.06634e-13
-1.48992e-12
8.83461e-14
1.2729e-13
-1.50715e-12
8.99305e-14
1.51825e-13
-1.53157e-12
9.11262e-14
1.82912e-13
-1.55282e-12
9.26876e-14
2.09261e-13
-1.57462e-12
9.49399e-14
2.41904e-13
-1.59445e-12
9.63966e-14
2.79659e-13
-1.61304e-12
9.77109e-14
3.16521e-13
-1.63119e-12
9.80302e-14
3.51864e-13
-1.64574e-12
9.98045e-14
3.86895e-13
-1.65501e-12
1.01348e-13
4.18347e-13
-1.65914e-12
1.02662e-13
4.44618e-13
-1.65799e-12
1.03885e-13
4.64173e-13
-1.65112e-12
1.05485e-13
4.76097e-13
-1.64036e-12
1.0755e-13
4.8068e-13
-1.62528e-12
1.07287e-13
4.73348e-13
-1.60576e-12
1.10903e-13
4.54907e-13
-1.58202e-12
1.11162e-13
4.27418e-13
-1.55716e-12
1.10893e-13
3.89151e-13
-1.53147e-12
1.11372e-13
3.4112e-13
-1.50639e-12
1.11179e-13
2.85017e-13
-1.48577e-12
1.12569e-13
2.21057e-13
-1.47026e-12
1.13797e-13
1.54734e-13
-1.45786e-12
1.14284e-13
7.76219e-14
-1.44784e-12
1.14582e-13
4.18635e-15
-1.45656e-12
1.06797e-13
-1.24132e-12
8.99116e-14
1.09997e-13
-1.39762e-12
1.09997e-13
7.64009e-14
-2.01437e-12
8.37739e-14
7.27012e-14
-1.89451e-12
1.04745e-13
9.00195e-14
-1.90597e-12
9.27763e-14
1.0808e-13
-1.92231e-12
9.8277e-14
1.26392e-13
-1.94283e-12
1.00852e-13
1.50307e-13
-1.97639e-12
1.0241e-13
1.74524e-13
-2.00262e-12
1.05363e-13
2.03274e-13
-2.0336e-12
1.08778e-13
2.34808e-13
-2.06257e-12
1.12666e-13
2.70263e-13
-2.08954e-12
1.14792e-13
3.06869e-13
-2.11257e-12
1.16319e-13
3.43164e-13
-2.13061e-12
1.17626e-13
3.78329e-13
-2.14239e-12
1.18512e-13
4.10399e-13
-2.14646e-12
1.18645e-13
4.37986e-13
-2.14208e-12
1.16938e-13
4.59801e-13
-2.1317e-12
1.16251e-13
4.7418e-13
-2.11597e-12
1.15827e-13
4.80195e-13
-2.0983e-12
1.18762e-13
4.70242e-13
-2.06844e-12
1.21615e-13
4.51902e-13
-2.03921e-12
1.21862e-13
4.22908e-13
-2.00555e-12
1.21263e-13
3.85049e-13
-1.96929e-12
1.17352e-13
3.3819e-13
-1.93898e-12
1.19159e-13
2.82474e-13
-1.9122e-12
1.20162e-13
2.16682e-13
-1.88627e-12
1.18457e-13
1.45987e-13
-1.8675e-12
1.16018e-13
6.93748e-14
-1.8513e-12
1.15108e-13
-9.75554e-15
-1.84957e-12
1.06878e-13
-1.63987e-12
8.92374e-14
1.06921e-13
-1.80019e-12
1.06921e-13
7.50231e-14
-2.3869e-12
8.06262e-14
6.79872e-14
-2.27947e-12
9.81133e-14
7.51635e-14
-2.29444e-12
8.89241e-14
8.82838e-14
-2.32056e-12
9.10443e-14
1.08246e-13
-2.34992e-12
9.28279e-14
1.27481e-13
-2.38627e-12
9.43039e-14
1.55533e-13
-2.42584e-12
9.71445e-14
1.85625e-13
-2.46044e-12
9.76352e-14
2.18081e-13
-2.49379e-12
9.70744e-14
2.54117e-13
-2.5277e-12
9.80439e-14
2.92485e-13
-2.55672e-12
9.95247e-14
3.31634e-13
-2.57974e-12
1.01193e-13
3.69585e-13
-2.59476e-12
1.02824e-13
4.05265e-13
-2.60117e-12
1.04476e-13
4.3555e-13
-2.59848e-12
1.08546e-13
4.6008e-13
-2.58828e-12
1.11497e-13
4.74852e-13
-2.56741e-12
1.13178e-13
4.79959e-13
-2.54541e-12
1.15625e-13
4.74648e-13
-2.51069e-12
1.18338e-13
4.56023e-13
-2.46783e-12
1.15289e-13
4.29026e-13
-2.42677e-12
1.13695e-13
3.94637e-13
-2.38621e-12
1.14411e-13
3.46928e-13
-2.34823e-12
1.17895e-13
2.92254e-13
-2.3165e-12
1.17969e-13
2.23918e-13
-2.27411e-12
1.13576e-13
1.4803e-13
-2.24721e-12
1.11762e-13
6.67244e-14
-2.22429e-12
1.09632e-13
-1.67607e-14
-2.21215e-12
1.00947e-13
-2.02699e-12
8.76904e-14
9.93519e-14
-2.174e-12
9.93518e-14
5.94084e-14
-2.71861e-12
7.43675e-14
5.12013e-14
-2.62896e-12
8.77234e-14
5.32024e-14
-2.64597e-12
8.11457e-14
5.97604e-14
-2.67844e-12
8.11026e-14
7.49092e-14
-2.71575e-12
8.05107e-14
9.30818e-14
-2.75929e-12
8.25374e-14
1.23681e-13
-2.82023e-12
8.98236e-14
1.55015e-13
-2.85684e-12
9.0119e-14
1.91657e-13
-2.89817e-12
9.00609e-14
2.31028e-13
-2.93774e-12
9.05318e-14
2.73226e-13
-2.97328e-12
9.20316e-14
3.16317e-13
-3.00167e-12
9.3958e-14
3.59222e-13
-3.02118e-12
9.57615e-14
3.99699e-13
-3.02962e-12
9.72048e-14
4.33643e-13
-3.02757e-12
1.01338e-13
4.58793e-13
-3.01411e-12
1.03864e-13
4.8054e-13
-2.99303e-12
1.04111e-13
4.87731e-13
-2.96056e-12
1.05275e-13
4.87134e-13
-2.9196e-12
1.03908e-13
4.7573e-13
-2.87001e-12
1.05117e-13
4.51978e-13
-2.82135e-12
1.07149e-13
4.17208e-13
-2.77366e-12
1.08498e-13
3.68173e-13
-2.72325e-12
1.07966e-13
3.05313e-13
-2.67848e-12
1.06641e-13
2.37848e-13
-2.63493e-12
1.08328e-13
1.60979e-13
-2.59847e-12
1.068e-13
7.9473e-14
-2.56996e-12
1.04872e-13
-1.71142e-15
-2.55627e-12
1.024e-13
-2.3701e-12
7.72215e-14
8.84843e-14
-2.5112e-12
8.84843e-14
3.87418e-14
-3.00461e-12
6.59133e-14
2.49858e-14
-2.93633e-12
7.59567e-14
2.0902e-14
-2.95765e-12
7.22684e-14
2.55088e-14
-3.00137e-12
7.28364e-14
3.89178e-14
-3.04934e-12
7.50354e-14
5.94784e-14
-3.10267e-12
7.53648e-14
7.86333e-14
-3.16037e-12
7.18556e-14
1.12624e-13
-3.21545e-12
7.46341e-14
1.53433e-13
-3.2682e-12
7.63008e-14
1.98824e-13
-3.31762e-12
7.89578e-14
2.4672e-13
-3.36088e-12
8.19487e-14
2.95322e-13
-3.39537e-12
8.47371e-14
3.43762e-13
-3.41958e-12
8.66549e-14
3.89253e-13
-3.42967e-12
8.81815e-14
4.31425e-13
-3.42957e-12
9.03623e-14
4.68317e-13
-3.41436e-12
9.08516e-14
4.94813e-13
-3.38714e-12
9.21306e-14
5.05769e-13
-3.34325e-12
9.32628e-14
5.08114e-13
-3.29702e-12
9.35823e-14
5.0091e-13
-3.24106e-12
9.37761e-14
4.80919e-13
-3.18273e-12
9.40412e-14
4.46092e-13
-3.12281e-12
9.3987e-14
4.0006e-13
-3.06261e-12
9.29365e-14
3.36887e-13
-3.00408e-12
9.41141e-14
2.65047e-13
-2.95404e-12
9.45028e-14
1.84119e-13
-2.9086e-12
9.3168e-14
1.00038e-13
-2.87753e-12
9.26404e-14
6.46335e-15
-2.84797e-12
8.5493e-14
-2.67226e-12
6.34511e-14
7.38758e-14
-2.80386e-12
7.38756e-14
1.23952e-14
-3.23937e-12
5.33692e-14
-1.18244e-14
-3.19267e-12
5.98644e-14
-2.35802e-14
-3.22133e-12
5.65272e-14
-2.70614e-14
-3.27537e-12
5.63586e-14
-1.90746e-14
-3.33476e-12
5.69088e-14
-2.19863e-15
-3.40023e-12
5.76144e-14
2.4102e-14
-3.47002e-12
5.84696e-14
6.0345e-14
-3.53783e-12
6.04433e-14
1.07095e-13
-3.6051e-12
6.12349e-14
1.58136e-13
-3.66419e-12
6.37663e-14
2.12237e-13
-3.7159e-12
6.68241e-14
2.68147e-13
-3.75719e-12
6.91255e-14
3.22241e-13
-3.78469e-12
7.11677e-14
3.78743e-13
-3.79984e-12
7.06234e-14
4.28041e-13
-3.7972e-12
7.20685e-14
4.74409e-13
-3.78124e-12
7.11221e-14
5.10675e-13
-3.74866e-12
7.27865e-14
5.3424e-13
-3.69764e-12
7.52536e-14
5.43894e-13
-3.64212e-12
7.67552e-14
5.41043e-13
-3.57669e-12
7.67319e-14
5.23279e-13
-3.5056e-12
7.60148e-14
4.9031e-13
-3.43241e-12
7.53148e-14
4.42151e-13
-3.35949e-12
7.53576e-14
3.79519e-13
-3.28949e-12
7.62233e-14
3.0139e-13
-3.22662e-12
7.71154e-14
2.12386e-13
-3.17191e-12
7.71987e-14
1.25717e-13
-3.14647e-12
7.92207e-14
2.68088e-14
-3.09408e-12
6.76236e-14
-2.92125e-12
4.88484e-14
5.18932e-14
-3.0378e-12
5.18931e-14
-2.05894e-14
-3.4187e-12
3.41085e-14
-5.98732e-14
-3.39066e-12
3.94517e-14
-8.08757e-14
-3.43284e-12
3.65823e-14
-9.21793e-14
-3.49895e-12
3.63569e-14
-9.07064e-14
-3.57095e-12
3.70149e-14
-7.77812e-14
-3.65127e-12
3.74717e-14
-5.25963e-14
-3.73642e-12
3.84702e-14
-7.74403e-15
-3.82467e-12
3.84286e-14
4.39781e-14
-3.90491e-12
4.08632e-14
1.03532e-13
-3.97748e-12
4.3318e-14
1.6872e-13
-4.04016e-12
4.61336e-14
2.37256e-13
-4.08964e-12
4.81037e-14
3.06877e-13
-4.12277e-12
4.93708e-14
3.74284e-13
-4.13954e-12
4.9781e-14
4.37766e-13
-4.13705e-12
5.04365e-14
4.92885e-13
-4.11631e-12
5.0689e-14
5.38869e-13
-4.07864e-12
5.15208e-14
5.75119e-13
-4.02238e-12
5.28282e-14
5.93484e-13
-3.95371e-12
5.44105e-14
5.96991e-13
-3.87614e-12
5.41209e-14
5.84087e-13
-3.79024e-12
5.29993e-14
5.54158e-13
-3.70256e-12
5.3099e-14
5.11791e-13
-3.62001e-12
5.36667e-14
4.48126e-13
-3.52761e-12
5.05561e-14
3.60385e-13
-3.44934e-12
5.74901e-14
2.56535e-13
-3.38301e-12
6.03921e-14
1.3812e-13
-3.33313e-12
4.91394e-14
2.81006e-14
-3.2869e-12
4.57273e-14
-3.13554e-12
3.18251e-14
2.93755e-14
-3.21302e-12
2.93754e-14
-6.11425e-14
-3.53437e-12
1.08224e-14
-1.12006e-13
-3.53167e-12
1.43135e-14
-1.4952e-13
-3.58328e-12
1.23932e-14
-1.74647e-13
-3.66457e-12
1.19876e-14
-1.80138e-13
-3.75649e-12
1.32503e-14
-1.67488e-13
-3.85711e-12
1.18778e-14
-1.38398e-13
-3.96178e-12
1.24486e-14
-9.36725e-14
-4.06803e-12
1.38952e-14
-3.53239e-14
-4.16805e-12
1.58324e-14
3.44231e-14
-4.2578e-12
1.79559e-14
1.12842e-13
-4.33429e-12
2.0321e-14
1.96723e-13
-4.39438e-12
2.23506e-14
2.82898e-13
-4.4349e-12
2.38733e-14
3.67517e-13
-4.45501e-12
2.50329e-14
4.47991e-13
-4.45315e-12
2.6117e-14
5.20297e-13
-4.42856e-12
2.69444e-14
5.81346e-13
-4.38345e-12
2.7477e-14
6.29706e-13
-4.31793e-12
2.77629e-14
6.61066e-13
-4.23583e-12
2.83214e-14
6.73313e-13
-4.14248e-12
2.88712e-14
6.64416e-13
-4.03729e-12
2.82713e-14
6.33878e-13
-3.93181e-12
2.9963e-14
5.78676e-13
-3.82614e-12
2.94861e-14
5.05595e-13
-3.72132e-12
3.30252e-14
4.05524e-13
-3.62301e-12
3.8253e-14
3.00335e-13
-3.54645e-12
3.15389e-14
1.79125e-13
-3.47909e-12
2.87245e-14
5.22652e-14
-3.42616e-12
2.65237e-14
-3.2896e-12
9.86209e-15
3.65714e-16
-3.3182e-12
3.65535e-16
-1.05973e-13
-3.58864e-12
-1.63484e-14
-1.73834e-13
-3.61059e-12
-1.41621e-14
-2.25943e-13
-3.67406e-12
-1.599e-14
-2.6874e-13
-3.76765e-12
-1.69532e-14
-2.81984e-13
-3.88893e-12
-1.6084e-14
-2.76858e-13
-4.01255e-12
-1.57428e-14
-2.4881e-13
-4.14394e-12
-1.49127e-14
-1.99087e-13
-4.27482e-12
-1.30543e-14
-1.32084e-13
-4.39853e-12
-1.15242e-14
-5.01608e-14
-4.50865e-12
-1.02705e-14
4.40857e-14
-4.6021e-12
-8.74581e-15
1.47102e-13
-4.67627e-12
-6.86941e-15
2.54689e-13
-4.72695e-12
-5.21195e-15
3.61886e-13
-4.75201e-12
-3.93547e-15
4.6462e-13
-4.75062e-12
-2.92497e-15
5.58959e-13
-4.7224e-12
-1.74449e-15
6.40731e-13
-4.66835e-12
-1.33354e-15
7.057e-13
-4.58968e-12
-6.25287e-16
7.50755e-13
-4.49122e-12
2.13439e-16
7.71317e-13
-4.37708e-12
1.47426e-15
7.68024e-13
-4.25139e-12
2.73043e-15
7.36814e-13
-4.12023e-12
3.12431e-15
6.77939e-13
-3.98961e-12
4.02575e-15
5.93966e-13
-3.86357e-12
6.1141e-15
4.90716e-13
-3.74825e-12
6.81531e-15
3.67139e-13
-3.6499e-12
3.98333e-15
2.2487e-13
-3.56354e-12
2.54682e-15
7.90979e-14
-3.50548e-12
-1.08074e-16
-3.37937e-12
-1.6161e-14
-3.5548e-14
-3.34186e-12
-3.5548e-14
-1.62928e-13
-3.57522e-12
-4.95201e-14
-2.55923e-13
-3.62259e-12
-4.38016e-14
-3.25293e-13
-3.70754e-12
-4.38241e-14
-3.72676e-13
-3.82504e-12
-4.67322e-14
-4.08761e-13
-3.95131e-12
-5.18944e-14
-4.13504e-13
-4.11153e-12
-5.18373e-14
-3.85147e-13
-4.28219e-12
-4.91386e-14
-3.30847e-13
-4.44328e-12
-4.62083e-14
-2.50061e-13
-4.60053e-12
-4.48131e-14
-1.52548e-13
-4.73194e-12
-4.5109e-14
-3.95467e-14
-4.84375e-12
-4.57719e-14
8.61581e-14
-4.93546e-12
-4.47508e-14
2.20808e-13
-5.00172e-12
-4.24665e-14
3.57025e-13
-5.03482e-12
-4.04137e-14
4.88182e-13
-5.03396e-12
-3.89356e-14
6.09545e-13
-5.00082e-12
-3.76409e-14
7.16872e-13
-4.9374e-12
-3.6026e-14
8.04181e-13
-4.84324e-12
-3.41494e-14
8.65196e-13
-4.72275e-12
-3.22728e-14
8.96657e-13
-4.5823e-12
-3.11413e-14
8.96908e-13
-4.42826e-12
-3.00454e-14
8.64729e-13
-4.26767e-12
-2.8577e-14
7.99988e-13
-4.10711e-12
-2.74384e-14
7.05025e-13
-3.95278e-12
-2.69248e-14
5.83576e-13
-3.81154e-12
-2.74585e-14
4.36188e-13
-3.68762e-12
-2.79918e-14
2.8173e-13
-3.59318e-12
-2.98202e-14
1.13431e-13
-3.519e-12
-3.30778e-14
-3.39424e-12
-4.89375e-14
-7.94929e-14
-3.27077e-12
-7.94927e-14
-2.33512e-13
-3.48271e-12
-9.40937e-14
-3.62574e-13
-3.54737e-12
-8.78496e-14
-4.59766e-13
-3.65794e-12
-9.18821e-14
-5.30841e-13
-3.80862e-12
-9.05785e-14
-5.61256e-13
-3.98174e-12
-8.32183e-14
-5.66652e-13
-4.17443e-12
-8.19686e-14
-5.41493e-13
-4.37788e-12
-8.37922e-14
-4.76939e-13
-4.58075e-12
-8.3105e-14
-3.97858e-13
-4.76125e-12
-8.09361e-14
-2.85311e-13
-4.93231e-12
-8.04243e-14
-1.4175e-13
-5.08071e-12
-7.8927e-14
1.91939e-14
-5.19581e-12
-7.72294e-14
1.88061e-13
-5.27523e-12
-7.67919e-14
3.59082e-13
-5.31513e-12
-7.69009e-14
5.26599e-13
-5.31532e-12
-7.66236e-14
6.8247e-13
-5.27514e-12
-7.55837e-14
8.18839e-13
-5.19641e-12
-7.42814e-14
9.30191e-13
-5.08068e-12
-7.32672e-14
1.00941e-12
-4.93135e-12
-7.21093e-14
1.05324e-12
-4.75822e-12
-7.12265e-14
1.05889e-12
-4.56938e-12
-6.92659e-14
1.02539e-12
-4.37241e-12
-6.75742e-14
9.52484e-13
-4.17392e-12
-6.70362e-14
8.42379e-13
-3.98201e-12
-6.81873e-14
7.0081e-13
-3.80919e-12
-6.87347e-14
5.35339e-13
-3.6611e-12
-6.94368e-14
3.51673e-13
-3.54648e-12
-7.21307e-14
1.44856e-13
-3.44869e-12
-7.36214e-14
-3.33477e-12
-8.8718e-14
-1.29601e-13
-3.09574e-12
-1.29601e-13
-3.1813e-13
-3.30492e-12
-1.43037e-13
-4.8187e-13
-3.39098e-12
-1.32627e-13
-6.08441e-13
-3.53384e-12
-1.35154e-13
-7.04268e-13
-3.72232e-12
-1.34873e-13
-7.58908e-13
-3.93794e-12
-1.32347e-13
-7.76868e-13
-4.17513e-12
-1.31779e-13
-7.54042e-13
-4.42348e-12
-1.32452e-13
-6.89196e-13
-4.67156e-12
-1.31368e-13
-5.80154e-13
-4.9057e-12
-1.295e-13
-4.38414e-13
-5.11749e-12
-1.2808e-13
-2.67636e-13
-5.29782e-12
-1.29882e-13
-7.00009e-14
-5.44598e-12
-1.28441e-13
1.41217e-13
-5.54465e-12
-1.27987e-13
3.57397e-13
-5.59469e-12
-1.27872e-13
5.6994e-13
-5.5968e-12
-1.26724e-13
7.67199e-13
-5.54625e-12
-1.25354e-13
9.41615e-13
-5.44809e-12
-1.24713e-13
1.08376e-12
-5.30329e-12
-1.23773e-13
1.18842e-12
-5.12014e-12
-1.22034e-13
1.24963e-12
-4.90779e-12
-1.19307e-13
1.26293e-12
-4.67392e-12
-1.17364e-13
1.22734e-12
-4.42926e-12
-1.16588e-13
1.14547e-12
-4.18478e-12
-1.16502e-13
1.01957e-12
-3.94955e-12
-1.15906e-13
8.54368e-13
-3.73808e-12
-1.15193e-13
6.57421e-13
-3.55731e-12
-1.16394e-13
4.3522e-13
-3.4159e-12
-1.18611e-13
1.89788e-13
-3.29746e-12
-1.16992e-13
-3.18813e-12
-1.32218e-13
-1.87587e-13
-2.80435e-12
-1.87587e-13
-4.22347e-13
-3.029e-12
-1.99644e-13
-6.30079e-13
-3.13991e-12
-1.87439e-13
-7.96365e-13
-3.31782e-12
-1.91187e-13
-9.24324e-13
-3.552e-12
-1.91598e-13
-1.00354e-12
-3.81683e-12
-1.8987e-13
-1.03352e-12
-4.11171e-12
-1.89644e-13
-1.01107e-12
-4.4169e-12
-1.90808e-13
-9.32747e-13
-4.72373e-12
-1.90428e-13
-8.06752e-13
-5.01667e-12
-1.87889e-13
-6.36302e-13
-5.28016e-12
-1.88153e-13
-4.2709e-13
-5.50292e-12
-1.89707e-13
-1.79072e-13
-5.69414e-12
-1.90568e-13
8.51945e-14
-5.81503e-12
-1.90099e-13
3.55469e-13
-5.87625e-12
-1.90184e-13
6.22703e-13
-5.88201e-12
-1.87997e-13
8.70541e-13
-5.8167e-12
-1.86879e-13
1.09045e-12
-5.69357e-12
-1.86559e-13
1.27351e-12
-5.51563e-12
-1.84915e-13
1.4105e-12
-5.29065e-12
-1.8227e-13
1.49357e-12
-5.02737e-12
-1.80277e-13
1.51713e-12
-4.73513e-12
-1.79408e-13
1.48165e-12
-4.43135e-12
-1.79186e-13
1.39238e-12
-4.13473e-12
-1.77133e-13
1.24961e-12
-3.84927e-12
-1.73606e-13
1.05247e-12
-3.58331e-12
-1.73493e-13
8.12268e-13
-3.3606e-12
-1.72555e-13
5.31171e-13
-3.17695e-12
-1.74216e-13
2.46561e-13
-3.05989e-12
-1.69775e-13
-2.93684e-12
-1.84843e-13
-2.53618e-13
-2.38408e-12
-2.53618e-13
-5.47394e-13
-2.63975e-12
-2.65708e-13
-8.11682e-13
-2.77726e-12
-2.52827e-13
-1.02269e-12
-2.99953e-12
-2.58641e-13
-1.18507e-12
-3.28978e-12
-2.5989e-13
-1.293e-12
-3.60898e-12
-2.58507e-13
-1.3479e-12
-3.96594e-12
-2.58633e-13
-1.32992e-12
-4.34524e-12
-2.63631e-13
-1.23834e-12
-4.72809e-12
-2.63968e-13
-1.08631e-12
-5.09109e-12
-2.63806e-13
-8.77144e-13
-5.4192e-12
-2.64564e-13
-6.11314e-13
-5.70214e-12
-2.66701e-13
-3.09066e-13
-5.93788e-12
-2.6399e-13
1.85482e-14
-6.09083e-12
-2.63057e-13
3.5082e-13
-6.16385e-12
-2.61398e-13
6.87604e-13
-6.18117e-12
-2.58971e-13
9.97248e-13
-6.08794e-12
-2.63274e-13
1.27366e-12
-5.93218e-12
-2.65194e-13
1.50596e-12
-5.71332e-12
-2.63801e-13
1.68582e-12
-5.44278e-12
-2.58084e-13
1.79731e-12
-5.11277e-12
-2.56907e-13
1.83661e-12
-4.74894e-12
-2.55975e-13
1.80557e-12
-4.37471e-12
-2.55279e-13
1.70184e-12
-4.01023e-12
-2.49743e-13
1.53289e-12
-3.66568e-12
-2.43167e-13
1.30178e-12
-3.33805e-12
-2.42221e-13
1.01292e-12
-3.05944e-12
-2.40011e-13
6.86527e-13
-2.83555e-12
-2.42219e-13
3.16862e-13
-2.68276e-12
-2.34671e-13
-2.55915e-12
-2.50511e-13
-3.31794e-13
-1.81447e-12
-3.31794e-13
-6.99205e-13
-2.1142e-12
-3.48039e-13
-1.04265e-12
-2.27332e-12
-3.32275e-13
-1.32978e-12
-2.54158e-12
-3.38891e-13
-1.53777e-12
-2.92018e-12
-3.39078e-13
-1.68284e-12
-3.29804e-12
-3.41613e-13
-1.74829e-12
-3.74148e-12
-3.44768e-13
-1.72552e-12
-4.21084e-12
-3.49516e-13
-1.6194e-12
-4.67909e-12
-3.50444e-13
-1.43269e-12
-5.13105e-12
-3.5219e-13
-1.17326e-12
-5.53869e-12
-3.54265e-13
-8.48539e-13
-5.89113e-12
-3.56126e-13
-4.81512e-13
-6.17275e-12
-3.58286e-13
-7.76933e-14
-6.36781e-12
-3.59092e-13
3.45196e-13
-6.46541e-12
-3.59428e-13
7.60077e-13
-6.47886e-12
-3.60193e-13
1.15143e-12
-6.36741e-12
-3.58519e-13
1.5037e-12
-6.17966e-12
-3.53942e-13
1.79921e-12
-5.91106e-12
-3.48528e-13
2.0244e-12
-5.57044e-12
-3.49215e-13
2.16798e-12
-5.16088e-12
-3.47391e-13
2.23442e-12
-4.71856e-12
-3.48233e-13
2.20749e-12
-4.25419e-12
-3.44073e-13
2.09397e-12
-3.80739e-12
-3.38952e-13
1.88291e-12
-3.36711e-12
-3.36413e-13
1.59529e-12
-2.96779e-12
-3.30401e-13
1.25212e-12
-2.6411e-12
-3.21728e-13
8.57547e-13
-2.3686e-12
-3.18079e-13
4.08617e-13
-2.16701e-12
-3.13039e-13
-2.02908e-12
-3.29283e-13
-4.27351e-13
-1.06514e-12
-4.27351e-13
-8.89846e-13
-1.42158e-12
-4.49128e-13
-1.32448e-12
-1.60706e-12
-4.29084e-13
-1.67991e-12
-1.94017e-12
-4.39033e-13
-1.98172e-12
-2.37568e-12
-4.4571e-13
-2.16459e-12
-2.86956e-12
-4.46587e-13
-2.24787e-12
-3.41786e-12
-4.51917e-13
-2.22721e-12
-3.99264e-12
-4.57064e-13
-2.09104e-12
-4.57722e-12
-4.59354e-13
-1.86433e-12
-5.12817e-12
-4.61417e-13
-1.54585e-12
-5.63285e-12
-4.65459e-13
-1.14759e-12
-6.06824e-12
-4.6874e-13
-6.88125e-13
-6.41373e-12
-4.72206e-13
-1.83022e-13
-6.65888e-12
-4.74295e-13
3.43577e-13
-6.78185e-12
-4.76693e-13
8.53878e-13
-6.78025e-12
-4.80652e-13
1.3467e-12
-6.66365e-12
-4.72161e-13
1.78856e-12
-6.43389e-12
-4.65771e-13
2.16047e-12
-6.09863e-12
-4.64184e-13
2.44629e-12
-5.67555e-12
-4.61681e-13
2.63638e-12
-5.17541e-12
-4.57034e-13
2.71514e-12
-4.63322e-12
-4.45335e-13
2.69975e-12
-4.07549e-12
-4.43682e-13
2.55645e-12
-3.50519e-12
-4.38264e-13
2.30862e-12
-2.96389e-12
-4.33617e-13
1.97108e-12
-2.47855e-12
-4.28296e-13
1.54299e-12
-2.06097e-12
-4.27488e-13
1.0539e-12
-1.72973e-12
-4.25574e-13
5.07403e-13
-1.48373e-12
-4.14483e-13
-1.32521e-12
-4.32478e-13
-5.41261e-13
-1.04704e-13
-5.41261e-13
-1.13611e-12
-5.16665e-13
-5.69741e-13
-1.68116e-12
-7.46915e-13
-5.48582e-13
-2.13748e-12
-1.15358e-12
-5.58661e-13
-2.50003e-12
-1.68519e-12
-5.66577e-13
-2.73813e-12
-2.29598e-12
-5.71643e-13
-2.8505e-12
-2.97276e-12
-5.79519e-13
-2.83021e-12
-3.6784e-12
-5.87528e-13
-2.68046e-12
-4.38887e-12
-5.93993e-13
-2.40445e-12
-5.0703e-12
-6.00166e-13
-2.00806e-12
-5.69919e-12
-6.05641e-13
-1.5138e-12
-6.23453e-12
-6.10079e-13
-9.46144e-13
-6.65377e-12
-6.15963e-13
-3.1015e-13
-6.97505e-12
-6.14876e-13
3.30743e-13
-7.108e-12
-6.16203e-13
9.70779e-13
-7.11402e-12
-6.13077e-13
1.58236e-12
-6.97381e-12
-6.12187e-13
2.1363e-12
-6.69192e-12
-6.09507e-13
2.60612e-12
-6.27989e-12
-6.04301e-13
2.96787e-12
-5.75851e-12
-5.9626e-13
3.21641e-12
-5.15522e-12
-5.87366e-13
3.3321e-12
-4.49043e-12
-5.77289e-13
3.30055e-12
-3.79325e-12
-5.68777e-13
3.13362e-12
-3.09659e-12
-5.58834e-13
2.8379e-12
-2.43054e-12
-5.53986e-13
2.41772e-12
-1.82677e-12
-5.47237e-13
1.89764e-12
-1.31582e-12
-5.41322e-13
1.30178e-12
-9.07766e-13
-5.44491e-13
6.31431e-13
-6.0281e-13
-5.31483e-13
-4.12568e-13
-5.53104e-13
-6.82525e-13
1.11487e-12
-6.82525e-13
-1.43039e-12
6.33454e-13
-7.16084e-13
-2.11428e-12
3.47233e-13
-6.92029e-13
-2.688e-12
-1.49591e-13
-7.0623e-13
-3.13599e-12
-8.0683e-13
-7.16441e-13
-3.44407e-12
-1.543e-12
-7.27805e-13
-3.59542e-12
-2.37512e-12
-7.39099e-13
-3.57625e-12
-3.24535e-12
-7.50263e-13
-3.39217e-12
-4.11548e-12
-7.5771e-13
-3.04893e-12
-4.95741e-12
-7.65942e-13
-2.56516e-12
-5.72632e-12
-7.75019e-13
-1.94662e-12
-6.3982e-12
-7.79278e-13
-1.24261e-12
-6.90107e-12
-7.86946e-13
-4.87791e-13
-7.2711e-12
-7.95386e-13
3.15705e-13
-7.46061e-12
-7.93731e-13
1.11546e-12
-7.47057e-12
-7.9143e-13
1.87649e-12
-7.29974e-12
-7.87629e-13
2.56593e-12
-6.95567e-12
-7.81692e-13
3.1523e-12
-6.45223e-12
-7.7316e-13
3.61105e-12
-5.81652e-12
-7.62718e-13
3.91672e-12
-5.07296e-12
-7.52034e-13
4.06343e-12
-4.2604e-12
-7.41687e-13
4.03331e-12
-3.39946e-12
-7.28558e-13
3.83402e-12
-2.54774e-12
-7.14689e-13
3.47326e-12
-1.73616e-12
-6.99878e-13
2.96486e-12
-9.97843e-13
-6.88526e-13
2.3268e-12
-3.61035e-13
-6.87414e-13
1.60131e-12
1.34465e-13
-6.89755e-13
7.83306e-13
5.09471e-13
-6.69014e-13
7.40671e-13
-6.87262e-13
-8.49232e-13
2.63658e-12
-8.49233e-13
-1.78444e-12
2.07394e-12
-8.8724e-13
-2.63833e-12
1.72078e-12
-8.6284e-13
-3.35574e-12
1.11732e-12
-8.86524e-13
-3.93088e-12
3.25202e-13
-9.03396e-13
-4.30849e-12
-5.94366e-13
-9.13852e-13
-4.49703e-12
-1.60926e-12
-9.28926e-13
-4.48411e-12
-2.67113e-12
-9.42625e-13
-4.25927e-12
-3.7398e-12
-9.57219e-13
-3.8466e-12
-4.76607e-12
-9.68917e-13
-3.24608e-12
-5.71911e-12
-9.79895e-13
-2.49802e-12
-6.53037e-12
-9.92964e-13
-1.6309e-12
-7.15101e-12
-9.99181e-13
-6.83625e-13
-7.60061e-12
-1.00539e-12
3.06807e-13
-7.83717e-12
-1.00734e-12
1.29561e-12
-7.85246e-12
-1.0059e-12
2.23865e-12
-7.64627e-12
-1.0005e-12
3.09294e-12
-7.22678e-12
-9.91869e-13
3.8223e-12
-6.61481e-12
-9.80133e-13
4.3912e-12
-5.83684e-12
-9.66416e-13
4.7748e-12
-4.92454e-12
-9.53561e-13
4.95118e-12
-3.92183e-12
-9.39013e-13
4.92381e-12
-2.87739e-12
-9.20828e-13
4.68528e-12
-1.83228e-12
-9.06165e-13
4.23937e-12
-8.31934e-13
-8.9179e-13
3.61722e-12
6.46846e-14
-8.77817e-13
2.83988e-12
8.41679e-13
-8.66009e-13
1.94535e-12
1.44957e-12
-8.62667e-13
9.57126e-13
1.88623e-12
-8.32844e-13
2.17795e-12
-8.60441e-13
-1.05671e-12
4.53365e-12
-1.05671e-12
-2.22131e-12
3.87549e-12
-1.09899e-12
-3.28064e-12
3.43771e-12
-1.07456e-12
-4.17184e-12
2.69759e-12
-1.10065e-12
-4.88014e-12
1.73349e-12
-1.12065e-12
-5.35786e-12
6.04035e-13
-1.13804e-12
-5.59077e-12
-6.45397e-13
-1.15623e-12
-5.58482e-12
-1.92805e-12
-1.17695e-12
-5.32359e-12
-3.23183e-12
-1.19752e-12
-4.82356e-12
-4.484e-12
-1.21704e-12
-4.07353e-12
-5.67918e-12
-1.23027e-12
-3.14007e-12
-6.66231e-12
-1.24502e-12
-2.07425e-12
-7.40249e-12
-1.26127e-12
-9.17349e-13
-7.93994e-12
-1.26883e-12
3.00209e-13
-8.23878e-12
-1.27224e-12
1.51674e-12
-8.26086e-12
-1.26976e-12
2.67764e-12
-8.0106e-12
-1.2637e-12
3.73135e-12
-7.50103e-12
-1.25233e-12
4.62939e-12
-6.75428e-12
-1.23759e-12
5.33145e-12
-5.80421e-12
-1.2201e-12
5.8088e-12
-4.69223e-12
-1.2012e-12
6.04163e-12
-3.47149e-12
-1.18029e-12
6.0126e-12
-2.19521e-12
-1.15601e-12
5.72272e-12
-9.18361e-13
-1.13382e-12
5.18368e-12
3.04377e-13
-1.11403e-12
4.42033e-12
1.40335e-12
-1.09685e-12
3.4732e-12
2.34177e-12
-1.07786e-12
2.3806e-12
3.08903e-12
-1.07549e-12
1.16479e-12
3.61021e-12
-1.04304e-12
3.96729e-12
-1.0854e-12
-1.31427e-12
6.89875e-12
-1.31427e-12
-2.75115e-12
6.12874e-12
-1.36393e-12
-4.05354e-12
5.58106e-12
-1.33966e-12
-5.15707e-12
4.67052e-12
-1.36538e-12
-6.03225e-12
3.49092e-12
-1.38817e-12
-6.61792e-12
2.09497e-12
-1.40972e-12
-6.93379e-12
5.95636e-13
-1.43736e-12
-6.92199e-12
-9.85315e-13
-1.46862e-12
-6.59215e-12
-2.58036e-12
-1.49542e-12
-5.94429e-12
-4.12596e-12
-1.52494e-12
-5.07621e-12
-5.51402e-12
-1.55538e-12
-3.98007e-12
-6.70202e-12
-1.57951e-12
-2.66763e-12
-7.64592e-12
-1.59336e-12
-1.22319e-12
-8.30877e-12
-1.60229e-12
2.82233e-13
-8.66714e-12
-1.60704e-12
1.78104e-12
-8.68696e-12
-1.60679e-12
3.20919e-12
-8.37919e-12
-1.59845e-12
4.50474e-12
-7.7553e-12
-1.58587e-12
5.61125e-12
-6.84448e-12
-1.56777e-12
6.48259e-12
-5.69159e-12
-1.54348e-12
7.0718e-12
-4.33351e-12
-1.51637e-12
7.35886e-12
-2.84561e-12
-1.49062e-12
7.33018e-12
-1.29527e-12
-1.45854e-12
6.98391e-12
2.53989e-13
-1.42346e-12
6.33237e-12
1.74517e-12
-1.39549e-12
5.4053e-12
3.0886e-12
-1.37045e-12
4.23472e-12
4.24568e-12
-1.35225e-12
2.88632e-12
5.15061e-12
-1.34193e-12
1.42567e-12
5.74446e-12
-1.31166e-12
6.21085e-12
-1.36145e-12
-1.63903e-12
9.8621e-12
-1.63903e-12
-3.41631e-12
8.97241e-12
-1.68912e-12
-5.01618e-12
8.27556e-12
-1.66998e-12
-6.36121e-12
7.13867e-12
-1.70061e-12
-7.42705e-12
5.69379e-12
-1.72715e-12
-8.17173e-12
4.00833e-12
-1.76085e-12
-8.54334e-12
2.16343e-12
-1.79698e-12
-8.53536e-12
2.35884e-13
-1.83231e-12
-8.14043e-12
-1.70868e-12
-1.87016e-12
-7.39527e-12
-3.57083e-12
-1.90763e-12
-6.31315e-12
-5.26091e-12
-1.9437e-12
-4.94118e-12
-6.70737e-12
-1.97395e-12
-3.34321e-12
-7.8523e-12
-1.9981e-12
-1.58388e-12
-8.66523e-12
-2.00952e-12
2.67801e-13
-9.1167e-12
-2.00977e-12
2.10036e-12
-9.11713e-12
-2.01187e-12
3.84845e-12
-8.73205e-12
-2.00761e-12
5.43594e-12
-7.96555e-12
-1.99404e-12
6.79532e-12
-6.85664e-12
-1.97065e-12
7.87574e-12
-5.46555e-12
-1.93889e-12
8.60177e-12
-3.79275e-12
-1.91002e-12
8.9528e-12
-1.97459e-12
-1.87694e-12
8.92755e-12
-1.07363e-13
-1.8293e-12
8.51385e-12
1.77882e-12
-1.78964e-12
7.71338e-12
3.61294e-12
-1.75699e-12
6.59358e-12
5.22731e-12
-1.71857e-12
5.18394e-12
6.6406e-12
-1.69671e-12
3.55609e-12
7.75033e-12
-1.69476e-12
1.74127e-12
8.48696e-12
-1.65568e-12
9.04403e-12
-1.70093e-12
-2.06839e-12
1.3638e-11
-2.06839e-12
-4.2301e-12
1.25937e-11
-2.11661e-12
-6.17793e-12
1.17004e-11
-2.09661e-12
-7.83476e-12
1.0297e-11
-2.13066e-12
-9.14479e-12
8.52351e-12
-2.16614e-12
-1.00473e-11
6.46405e-12
-2.20746e-12
-1.05082e-11
4.20925e-12
-2.25078e-12
-1.04936e-11
1.84804e-12
-2.29767e-12
-1.00261e-11
-5.03732e-13
-2.34581e-12
-9.10406e-12
-2.77799e-12
-2.39253e-12
-7.78535e-12
-4.81934e-12
-2.43863e-12
-6.09604e-12
-6.60503e-12
-2.46809e-12
-4.13289e-12
-7.99663e-12
-2.49345e-12
-1.98554e-12
-8.97088e-12
-2.51501e-12
2.41111e-13
-9.48313e-12
-2.53243e-12
2.48059e-12
-9.49512e-12
-2.53297e-12
4.62175e-12
-9.02139e-12
-2.52355e-12
6.57382e-12
-8.0862e-12
-2.50532e-12
8.24309e-12
-6.72952e-12
-2.47535e-12
9.5425e-12
-5.01001e-12
-2.44185e-12
1.04423e-11
-2.99362e-12
-2.39563e-12
1.08924e-11
-7.8298e-13
-2.3489e-12
1.08564e-11
1.51635e-12
-2.30566e-12
1.03466e-11
3.82339e-12
-2.26448e-12
9.39167e-12
6.04095e-12
-2.216e-12
8.02301e-12
8.01733e-12
-2.17736e-12
6.30691e-12
9.74094e-12
-2.15056e-12
4.32504e-12
1.11042e-11
-2.13983e-12
2.12011e-12
1.20192e-11
-2.09183e-12
1.26625e-11
-2.1288e-12
-2.628e-12
1.85108e-11
-2.628e-12
-5.23298e-12
1.72671e-11
-2.67189e-12
-7.60332e-12
1.61334e-11
-2.65145e-12
-9.6291e-12