/*--------------------------------*- C++ -*----------------------------------*\
| =========                 |                                                 |
| \\      /  F ield         | OpenFOAM: The Open Source CFD Toolbox           |
|  \\    /   O peration     | Version:  2312                                  |
|   \\  /    A nd           | Website:  www.openfoam.com                      |
|    \\/     M anipulation  |                                                 |
\*---------------------------------------------------------------------------*/
FoamFile
{
    version     2.0;
    format      ascii;
    arch        "LSB;label=32;scalar=64";
    class       volScalarField;
    location    "0.0470981";
    object      epsilon;
}
// * * * * * * * * * * * * * * * * * * * * * * * * * * * * * * * * * * * * * //

dimensions      [0 2 -3 0 0 0 0];

internalField   nonuniform List<scalar> 
90000
(
1.78864e-05
1.78864e-05
1.78864e-05
1.78864e-05
1.78864e-05
1.78864e-05
1.78864e-05
1.78864e-05
1.78864e-05
1.78864e-05
1.78864e-05
1.78864e-05
1.78864e-05
1.78864e-05
1.78864e-05
1.78864e-05
1.78864e-05
1.78864e-05
1.78864e-05
1.78864e-05
1.78864e-05
1.78864e-05
1.78864e-05
1.78864e-05
1.78864e-05
1.78864e-05
1.78864e-05
1.78864e-05
1.78864e-05
1.78864e-05
1.78864e-05
1.78865e-05
1.78865e-05
1.78865e-05
1.78865e-05
1.78865e-05
1.78865e-05
1.78865e-05
1.78866e-05
1.78866e-05
1.78866e-05
1.78866e-05
1.78866e-05
1.78866e-05
1.78866e-05
1.78866e-05
1.78866e-05
1.78866e-05
1.78866e-05
1.78866e-05
1.78866e-05
1.78866e-05
1.78866e-05
1.78866e-05
1.78865e-05
1.78865e-05
1.78865e-05
1.78865e-05
1.78865e-05
1.78864e-05
1.78864e-05
1.78866e-05
1.78866e-05
1.78866e-05
1.78866e-05
1.78866e-05
1.78866e-05
1.78866e-05
1.78866e-05
1.78866e-05
1.78866e-05
1.78866e-05
1.78866e-05
1.78866e-05
1.78866e-05
1.78866e-05
1.78866e-05
1.78866e-05
1.78866e-05
1.78866e-05
1.78866e-05
1.78866e-05
1.78866e-05
1.78866e-05
1.78866e-05
1.78866e-05
1.78866e-05
1.78866e-05
1.78866e-05
1.78864e-05
1.78864e-05
1.78866e-05
1.78866e-05
1.78866e-05
1.78866e-05
1.78866e-05
1.78866e-05
1.78866e-05
1.78866e-05
1.78866e-05
1.78866e-05
1.78866e-05
1.78866e-05
1.78866e-05
1.78866e-05
1.78866e-05
1.78866e-05
1.78866e-05
1.78866e-05
1.78866e-05
1.78866e-05
1.78866e-05
1.78866e-05
1.78866e-05
1.78866e-05
1.78866e-05
1.78866e-05
1.78866e-05
1.78866e-05
1.78864e-05
1.78864e-05
1.78866e-05
1.78866e-05
1.78866e-05
1.78866e-05
1.78866e-05
1.78866e-05
1.78866e-05
1.78866e-05
1.78866e-05
1.78866e-05
1.78866e-05
1.78866e-05
1.78866e-05
1.78866e-05
1.78866e-05
1.78866e-05
1.78866e-05
1.78866e-05
1.78866e-05
1.78866e-05
1.78866e-05
1.78866e-05
1.78866e-05
1.78866e-05
1.78866e-05
1.78866e-05
1.78866e-05
1.78866e-05
1.78864e-05
1.78864e-05
1.78866e-05
1.78866e-05
1.78866e-05
1.78866e-05
1.78866e-05
1.78866e-05
1.78866e-05
1.78866e-05
1.78866e-05
1.78866e-05
1.78866e-05
1.78866e-05
1.78866e-05
1.78866e-05
1.78866e-05
1.78866e-05
1.78866e-05
1.78866e-05
1.78866e-05
1.78866e-05
1.78866e-05
1.78866e-05
1.78866e-05
1.78866e-05
1.78866e-05
1.78866e-05
1.78866e-05
1.78866e-05
1.78864e-05
1.78864e-05
1.78866e-05
1.78866e-05
1.78866e-05
1.78866e-05
1.78866e-05
1.78866e-05
1.78866e-05
1.78866e-05
1.78866e-05
1.78866e-05
1.78866e-05
1.78866e-05
1.78866e-05
1.78866e-05
1.78866e-05
1.78866e-05
1.78866e-05
1.78866e-05
1.78866e-05
1.78866e-05
1.78866e-05
1.78866e-05
1.78866e-05
1.78866e-05
1.78866e-05
1.78866e-05
1.78866e-05
1.78866e-05
1.78864e-05
1.78864e-05
1.78866e-05
1.78866e-05
1.78866e-05
1.78866e-05
1.78866e-05
1.78866e-05
1.78866e-05
1.78866e-05
1.78866e-05
1.78866e-05
1.78866e-05
1.78866e-05
1.78866e-05
1.78866e-05
1.78866e-05
1.78866e-05
1.78866e-05
1.78866e-05
1.78866e-05
1.78866e-05
1.78866e-05
1.78866e-05
1.78866e-05
1.78866e-05
1.78866e-05
1.78866e-05
1.78866e-05
1.78866e-05
1.78864e-05
1.78864e-05
1.78866e-05
1.78866e-05
1.78866e-05
1.78866e-05
1.78866e-05
1.78866e-05
1.78866e-05
1.78866e-05
1.78866e-05
1.78866e-05
1.78866e-05
1.78866e-05
1.78866e-05
1.78866e-05
1.78866e-05
1.78866e-05
1.78866e-05
1.78866e-05
1.78866e-05
1.78866e-05
1.78866e-05
1.78866e-05
1.78866e-05
1.78866e-05
1.78866e-05
1.78866e-05
1.78866e-05
1.78866e-05
1.78864e-05
1.78864e-05
1.78866e-05
1.78866e-05
1.78866e-05
1.78866e-05
1.78866e-05
1.78866e-05
1.78866e-05
1.78866e-05
1.78866e-05
1.78866e-05
1.78866e-05
1.78866e-05
1.78866e-05
1.78866e-05
1.78866e-05
1.78866e-05
1.78866e-05
1.78866e-05
1.78866e-05
1.78866e-05
1.78866e-05
1.78866e-05
1.78866e-05
1.78866e-05
1.78866e-05
1.78866e-05
1.78866e-05
1.78866e-05
1.78864e-05
1.78864e-05
1.78866e-05
1.78866e-05
1.78866e-05
1.78866e-05
1.78866e-05
1.78866e-05
1.78866e-05
1.78866e-05
1.78866e-05
1.78866e-05
1.78866e-05
1.78866e-05
1.78866e-05
1.78866e-05
1.78866e-05
1.78866e-05
1.78866e-05
1.78866e-05
1.78866e-05
1.78866e-05
1.78866e-05
1.78866e-05
1.78866e-05
1.78866e-05
1.78866e-05
1.78866e-05
1.78866e-05
1.78866e-05
1.78864e-05
1.78864e-05
1.78866e-05
1.78866e-05
1.78866e-05
1.78866e-05
1.78866e-05
1.78866e-05
1.78866e-05
1.78866e-05
1.78866e-05
1.78866e-05
1.78866e-05
1.78866e-05
1.78866e-05
1.78866e-05
1.78866e-05
1.78866e-05
1.78866e-05
1.78866e-05
1.78866e-05
1.78866e-05
1.78866e-05
1.78866e-05
1.78866e-05
1.78866e-05
1.78866e-05
1.78866e-05
1.78866e-05
1.78866e-05
1.78864e-05
1.78864e-05
1.78866e-05
1.78866e-05
1.78866e-05
1.78866e-05
1.78866e-05
1.78866e-05
1.78866e-05
1.78866e-05
1.78866e-05
1.78866e-05
1.78866e-05
1.78866e-05
1.78866e-05
1.78866e-05
1.78866e-05
1.78866e-05
1.78866e-05
1.78866e-05
1.78866e-05
1.78866e-05
1.78866e-05
1.78866e-05
1.78866e-05
1.78866e-05
1.78866e-05
1.78866e-05
1.78866e-05
1.78866e-05
1.78864e-05
1.78864e-05
1.78866e-05
1.78866e-05
1.78866e-05
1.78866e-05
1.78866e-05
1.78866e-05
1.78866e-05
1.78866e-05
1.78866e-05
1.78866e-05
1.78866e-05
1.78866e-05
1.78866e-05
1.78866e-05
1.78866e-05
1.78866e-05
1.78866e-05
1.78866e-05
1.78866e-05
1.78866e-05
1.78866e-05
1.78866e-05
1.78866e-05
1.78866e-05
1.78866e-05
1.78866e-05
1.78866e-05
1.78866e-05
1.78864e-05
1.78864e-05
1.78866e-05
1.78866e-05
1.78866e-05
1.78866e-05
1.78866e-05
1.78866e-05
1.78866e-05
1.78866e-05
1.78866e-05
1.78866e-05
1.78866e-05
1.78866e-05
1.78866e-05
1.78866e-05
1.78866e-05
1.78866e-05
1.78866e-05
1.78866e-05
1.78866e-05
1.78866e-05
1.78866e-05
1.78866e-05
1.78866e-05
1.78866e-05
1.78866e-05
1.78866e-05
1.78866e-05
1.78866e-05
1.78864e-05
1.78864e-05
1.78866e-05
1.78866e-05
1.78866e-05
1.78866e-05
1.78866e-05
1.78866e-05
1.78866e-05
1.78866e-05
1.78866e-05
1.78866e-05
1.78866e-05
1.78866e-05
1.78866e-05
1.78866e-05
1.78866e-05
1.78866e-05
1.78866e-05
1.78866e-05
1.78866e-05
1.78866e-05
1.78866e-05
1.78866e-05
1.78866e-05
1.78866e-05
1.78866e-05
1.78866e-05
1.78866e-05
1.78866e-05
1.78864e-05
1.78864e-05
1.78866e-05
1.78866e-05
1.78866e-05
1.78866e-05
1.78866e-05
1.78866e-05
1.78866e-05
1.78866e-05
1.78866e-05
1.78866e-05
1.78866e-05
1.78866e-05
1.78866e-05
1.78866e-05
1.78866e-05
1.78866e-05
1.78866e-05
1.78866e-05
1.78866e-05
1.78866e-05
1.78866e-05
1.78866e-05
1.78866e-05
1.78866e-05
1.78866e-05
1.78866e-05
1.78866e-05
1.78866e-05
1.78864e-05
1.78864e-05
1.78866e-05
1.78866e-05
1.78866e-05
1.78866e-05
1.78866e-05
1.78866e-05
1.78866e-05
1.78866e-05
1.78866e-05
1.78866e-05
1.78866e-05
1.78866e-05
1.78866e-05
1.78866e-05
1.78866e-05
1.78866e-05
1.78866e-05
1.78866e-05
1.78866e-05
1.78866e-05
1.78866e-05
1.78866e-05
1.78866e-05
1.78866e-05
1.78866e-05
1.78866e-05
1.78866e-05
1.78866e-05
1.78864e-05
1.78864e-05
1.78866e-05
1.78866e-05
1.78866e-05
1.78866e-05
1.78866e-05
1.78866e-05
1.78866e-05
1.78866e-05
1.78866e-05
1.78866e-05
1.78866e-05
1.78866e-05
1.78866e-05
1.78866e-05
1.78866e-05
1.78866e-05
1.78866e-05
1.78866e-05
1.78866e-05
1.78866e-05
1.78866e-05
1.78866e-05
1.78866e-05
1.78866e-05
1.78866e-05
1.78866e-05
1.78866e-05
1.78866e-05
1.78864e-05
1.78864e-05
1.78866e-05
1.78866e-05
1.78866e-05
1.78866e-05
1.78866e-05
1.78866e-05
1.78866e-05
1.78866e-05
1.78866e-05
1.78866e-05
1.78866e-05
1.78866e-05
1.78866e-05
1.78866e-05
1.78866e-05
1.78866e-05
1.78866e-05
1.78866e-05
1.78866e-05
1.78866e-05
1.78866e-05
1.78866e-05
1.78866e-05
1.78866e-05
1.78866e-05
1.78866e-05
1.78866e-05
1.78866e-05
1.78864e-05
1.78864e-05
1.78866e-05
1.78866e-05
1.78866e-05
1.78866e-05
1.78866e-05
1.78866e-05
1.78866e-05
1.78866e-05
1.78866e-05
1.78866e-05
1.78866e-05
1.78866e-05
1.78866e-05
1.78866e-05
1.78866e-05
1.78866e-05
1.78866e-05
1.78866e-05
1.78866e-05
1.78866e-05
1.78866e-05
1.78866e-05
1.78866e-05
1.78866e-05
1.78866e-05
1.78866e-05
1.78866e-05
1.78866e-05
1.78864e-05
1.78864e-05
1.78866e-05
1.78866e-05
1.78866e-05
1.78866e-05
1.78866e-05
1.78866e-05
1.78866e-05
1.78866e-05
1.78866e-05
1.78866e-05
1.78866e-05
1.78866e-05
1.78866e-05
1.78866e-05
1.78866e-05
1.78866e-05
1.78866e-05
1.78866e-05
1.78866e-05
1.78866e-05
1.78866e-05
1.78866e-05
1.78866e-05
1.78866e-05
1.78866e-05
1.78866e-05
1.78866e-05
1.78866e-05
1.78864e-05
1.78864e-05
1.78866e-05
1.78866e-05
1.78866e-05
1.78866e-05
1.78866e-05
1.78866e-05
1.78866e-05
1.78866e-05
1.78866e-05
1.78866e-05
1.78866e-05
1.78866e-05
1.78866e-05
1.78866e-05
1.78866e-05
1.78866e-05
1.78866e-05
1.78866e-05
1.78866e-05
1.78866e-05
1.78866e-05
1.78866e-05
1.78866e-05
1.78866e-05
1.78866e-05
1.78866e-05
1.78866e-05
1.78866e-05
1.78864e-05
1.78864e-05
1.78866e-05
1.78866e-05
1.78866e-05
1.78866e-05
1.78866e-05
1.78866e-05
1.78866e-05
1.78866e-05
1.78866e-05
1.78866e-05
1.78866e-05
1.78866e-05
1.78866e-05
1.78866e-05
1.78866e-05
1.78866e-05
1.78866e-05
1.78866e-05
1.78866e-05
1.78866e-05
1.78866e-05
1.78866e-05
1.78866e-05
1.78866e-05
1.78866e-05
1.78866e-05
1.78866e-05
1.78866e-05
1.78864e-05
1.78864e-05
1.78866e-05
1.78866e-05
1.78866e-05
1.78866e-05
1.78866e-05
1.78866e-05
1.78866e-05
1.78866e-05
1.78866e-05
1.78866e-05
1.78866e-05
1.78866e-05
1.78866e-05
1.78866e-05
1.78866e-05
1.78866e-05
1.78866e-05
1.78866e-05
1.78866e-05
1.78866e-05
1.78866e-05
1.78866e-05
1.78866e-05
1.78866e-05
1.78866e-05
1.78866e-05
1.78866e-05
1.78866e-05
1.78864e-05
1.78864e-05
1.78866e-05
1.78866e-05
1.78866e-05
1.78866e-05
1.78866e-05
1.78866e-05
1.78866e-05
1.78866e-05
1.78866e-05
1.78866e-05
1.78866e-05
1.78866e-05
1.78866e-05
1.78866e-05
1.78866e-05
1.78866e-05
1.78866e-05
1.78866e-05
1.78866e-05
1.78866e-05
1.78866e-05
1.78866e-05
1.78866e-05
1.78866e-05
1.78866e-05
1.78866e-05
1.78866e-05
1.78866e-05
1.78864e-05
1.78864e-05
1.78866e-05
1.78866e-05
1.78866e-05
1.78866e-05
1.78866e-05
1.78866e-05
1.78866e-05
1.78866e-05
1.78866e-05
1.78866e-05
1.78866e-05
1.78866e-05
1.78866e-05
1.78866e-05
1.78866e-05
1.78866e-05
1.78866e-05
1.78866e-05
1.78866e-05
1.78866e-05
1.78866e-05
1.78866e-05
1.78866e-05
1.78866e-05
1.78866e-05
1.78866e-05
1.78866e-05
1.78866e-05
1.78864e-05
1.78864e-05
1.78866e-05
1.78866e-05
1.78866e-05
1.78866e-05
1.78866e-05
1.78866e-05
1.78866e-05
1.78866e-05
1.78866e-05
1.78866e-05
1.78866e-05
1.78866e-05
1.78866e-05
1.78866e-05
1.78866e-05
1.78866e-05
1.78866e-05
1.78866e-05
1.78866e-05
1.78866e-05
1.78866e-05
1.78866e-05
1.78866e-05
1.78866e-05
1.78866e-05
1.78866e-05
1.78866e-05
1.78866e-05
1.78864e-05
1.78864e-05
1.78866e-05
1.78866e-05
1.78866e-05
1.78866e-05
1.78866e-05
1.78866e-05
1.78866e-05
1.78866e-05
1.78866e-05
1.78866e-05
1.78866e-05
1.78866e-05
1.78866e-05
1.78866e-05
1.78866e-05
1.78866e-05
1.78866e-05
1.78866e-05
1.78866e-05
1.78866e-05
1.78866e-05
1.78866e-05
1.78866e-05
1.78866e-05
1.78866e-05
1.78866e-05
1.78866e-05
1.78866e-05
1.78864e-05
1.78864e-05
1.78866e-05
1.78866e-05
1.78866e-05
1.78866e-05
1.78866e-05
1.78866e-05
1.78866e-05
1.78866e-05
1.78866e-05
1.78866e-05
1.78866e-05
1.78866e-05
1.78866e-05
1.78866e-05
1.78866e-05
1.78866e-05
1.78866e-05
1.78866e-05
1.78866e-05
1.78866e-05
1.78866e-05
1.78866e-05
1.78866e-05
1.78866e-05
1.78866e-05
1.78866e-05
1.78866e-05
1.78866e-05
1.78864e-05
1.78864e-05
1.78866e-05
1.78866e-05
1.78866e-05
1.78866e-05
1.78866e-05
1.78866e-05
1.78866e-05
1.78866e-05
1.78866e-05
1.78866e-05
1.78866e-05
1.78866e-05
1.78866e-05
1.78866e-05
1.78866e-05
1.78866e-05
1.78866e-05
1.78866e-05
1.78866e-05
1.78866e-05
1.78866e-05
1.78866e-05
1.78866e-05
1.78866e-05
1.78866e-05
1.78866e-05
1.78866e-05
1.78866e-05
1.78864e-05
1.78864e-05
1.78866e-05
1.78866e-05
1.78866e-05
1.78866e-05
1.78866e-05
1.78866e-05
1.78866e-05
1.78866e-05
1.78866e-05
1.78866e-05
1.78866e-05
1.78866e-05
1.78866e-05
1.78866e-05
1.78866e-05
1.78866e-05
1.78866e-05
1.78866e-05
1.78866e-05
1.78866e-05
1.78866e-05
1.78866e-05
1.78866e-05
1.78866e-05
1.78866e-05
1.78866e-05
1.78866e-05
1.78866e-05
1.78864e-05
1.78864e-05
1.78866e-05
1.78866e-05
1.78866e-05
1.78866e-05
1.78866e-05
1.78866e-05
1.78866e-05
1.78866e-05
1.78866e-05
1.78866e-05
1.78866e-05
1.78866e-05
1.78866e-05
1.78866e-05
1.78866e-05
1.78866e-05
1.78866e-05
1.78866e-05
1.78866e-05
1.78866e-05
1.78866e-05
1.78866e-05
1.78866e-05
1.78866e-05
1.78866e-05
1.78866e-05
1.78866e-05
1.78866e-05
1.78864e-05
1.78864e-05
1.78866e-05
1.78866e-05
1.78866e-05
1.78866e-05
1.78866e-05
1.78866e-05
1.78866e-05
1.78866e-05
1.78866e-05
1.78866e-05
1.78866e-05
1.78866e-05
1.78866e-05
1.78866e-05
1.78866e-05
1.78866e-05
1.78866e-05
1.78866e-05
1.78866e-05
1.78866e-05
1.78866e-05
1.78866e-05
1.78866e-05
1.78866e-05
1.78866e-05
1.78866e-05
1.78866e-05
1.78866e-05
1.78864e-05
1.78864e-05
1.78866e-05
1.78866e-05
1.78866e-05
1.78866e-05
1.78866e-05
1.78866e-05
1.78866e-05
1.78866e-05
1.78866e-05
1.78866e-05
1.78866e-05
1.78866e-05
1.78866e-05
1.78866e-05
1.78866e-05
1.78866e-05
1.78866e-05
1.78866e-05
1.78866e-05
1.78866e-05
1.78866e-05
1.78866e-05
1.78866e-05
1.78866e-05
1.78866e-05
1.78866e-05
1.78866e-05
1.78866e-05
1.78864e-05
1.78864e-05
1.78866e-05
1.78866e-05
1.78866e-05
1.78866e-05
1.78866e-05
1.78866e-05
1.78866e-05
1.78866e-05
1.78866e-05
1.78866e-05
1.78866e-05
1.78866e-05
1.78866e-05
1.78866e-05
1.78866e-05
1.78866e-05
1.78866e-05
1.78866e-05
1.78866e-05
1.78866e-05
1.78866e-05
1.78866e-05
1.78866e-05
1.78866e-05
1.78866e-05
1.78866e-05
1.78866e-05
1.78866e-05
1.78864e-05
1.78864e-05
1.78866e-05
1.78866e-05
1.78866e-05
1.78866e-05
1.78866e-05
1.78866e-05
1.78866e-05
1.78866e-05
1.78866e-05
1.78866e-05
1.78866e-05
1.78866e-05
1.78866e-05
1.78866e-05
1.78866e-05
1.78866e-05
1.78866e-05
1.78866e-05
1.78866e-05
1.78866e-05
1.78866e-05
1.78866e-05
1.78866e-05
1.78866e-05
1.78866e-05
1.78866e-05
1.78866e-05
1.78866e-05
1.78864e-05
1.78864e-05
1.78866e-05
1.78866e-05
1.78866e-05
1.78866e-05
1.78866e-05
1.78866e-05
1.78866e-05
1.78866e-05
1.78866e-05
1.78866e-05
1.78866e-05
1.78866e-05
1.78866e-05
1.78866e-05
1.78866e-05
1.78866e-05
1.78866e-05
1.78866e-05
1.78866e-05
1.78866e-05
1.78866e-05
1.78866e-05
1.78866e-05
1.78866e-05
1.78866e-05
1.78866e-05
1.78866e-05
1.78866e-05
1.78864e-05
1.78864e-05
1.78866e-05
1.78866e-05
1.78866e-05
1.78866e-05
1.78866e-05
1.78866e-05
1.78866e-05
1.78866e-05
1.78866e-05
1.78866e-05
1.78866e-05
1.78866e-05
1.78866e-05
1.78866e-05
1.78866e-05
1.78866e-05
1.78866e-05
1.78866e-05
1.78866e-05
1.78866e-05
1.78866e-05
1.78866e-05
1.78866e-05
1.78866e-05
1.78866e-05
1.78866e-05
1.78866e-05
1.78866e-05
1.78864e-05
1.78864e-05
1.78866e-05
1.78866e-05
1.78866e-05
1.78866e-05
1.78866e-05
1.78866e-05
1.78866e-05
1.78866e-05
1.78866e-05
1.78866e-05
1.78866e-05
1.78866e-05
1.78866e-05
1.78866e-05
1.78866e-05
1.78866e-05
1.78866e-05
1.78866e-05
1.78866e-05
1.78866e-05
1.78866e-05
1.78866e-05
1.78866e-05
1.78866e-05
1.78866e-05
1.78866e-05
1.78866e-05
1.78866e-05
1.78864e-05
1.78864e-05
1.78866e-05
1.78866e-05
1.78866e-05
1.78866e-05
1.78866e-05
1.78866e-05
1.78866e-05
1.78866e-05
1.78866e-05
1.78866e-05
1.78866e-05
1.78866e-05
1.78866e-05
1.78866e-05
1.78866e-05
1.78866e-05
1.78866e-05
1.78866e-05
1.78866e-05
1.78866e-05
1.78866e-05
1.78866e-05
1.78866e-05
1.78866e-05
1.78866e-05
1.78866e-05
1.78866e-05
1.78866e-05
1.78864e-05
1.78864e-05
1.78866e-05
1.78866e-05
1.78866e-05
1.78866e-05
1.78866e-05
1.78866e-05
1.78866e-05
1.78866e-05
1.78866e-05
1.78866e-05
1.78866e-05
1.78866e-05
1.78866e-05
1.78866e-05
1.78866e-05
1.78866e-05
1.78866e-05
1.78866e-05
1.78866e-05
1.78866e-05
1.78866e-05
1.78866e-05
1.78866e-05
1.78866e-05
1.78866e-05
1.78866e-05
1.78866e-05
1.78866e-05
1.78864e-05
1.78864e-05
1.78866e-05
1.78866e-05
1.78866e-05
1.78866e-05
1.78866e-05
1.78866e-05
1.78866e-05
1.78866e-05
1.78866e-05
1.78866e-05
1.78866e-05
1.78866e-05
1.78866e-05
1.78866e-05
1.78866e-05
1.78866e-05
1.78866e-05
1.78866e-05
1.78866e-05
1.78866e-05
1.78866e-05
1.78866e-05
1.78866e-05
1.78866e-05
1.78866e-05
1.78866e-05
1.78866e-05
1.78866e-05
1.78864e-05
1.78864e-05
1.78866e-05
1.78866e-05
1.78866e-05
1.78866e-05
1.78866e-05
1.78866e-05
1.78866e-05
1.78866e-05
1.78866e-05
1.78866e-05
1.78866e-05
1.78866e-05
1.78866e-05
1.78866e-05
1.78866e-05
1.78866e-05
1.78866e-05
1.78866e-05
1.78866e-05
1.78866e-05
1.78866e-05
1.78866e-05
1.78866e-05
1.78866e-05
1.78866e-05
1.78866e-05
1.78866e-05
1.78866e-05
1.78864e-05
1.78864e-05
1.78866e-05
1.78866e-05
1.78866e-05
1.78866e-05
1.78866e-05
1.78866e-05
1.78866e-05
1.78866e-05
1.78866e-05
1.78866e-05
1.78866e-05
1.78866e-05
1.78866e-05
1.78866e-05
1.78866e-05
1.78866e-05
1.78866e-05
1.78866e-05
1.78866e-05
1.78866e-05
1.78866e-05
1.78866e-05
1.78866e-05
1.78866e-05
1.78866e-05
1.78866e-05
1.78866e-05
1.78866e-05
1.78864e-05
1.78864e-05
1.78866e-05
1.78866e-05
1.78866e-05
1.78866e-05
1.78866e-05
1.78866e-05
1.78866e-05
1.78866e-05
1.78866e-05
1.78866e-05
1.78866e-05
1.78866e-05
1.78866e-05
1.78866e-05
1.78866e-05
1.78866e-05
1.78866e-05
1.78866e-05
1.78866e-05
1.78866e-05
1.78866e-05
1.78866e-05
1.78866e-05
1.78866e-05
1.78866e-05
1.78866e-05
1.78866e-05
1.78866e-05
1.78864e-05
1.78864e-05
1.78866e-05
1.78866e-05
1.78866e-05
1.78866e-05
1.78866e-05
1.78866e-05
1.78866e-05
1.78866e-05
1.78866e-05
1.78866e-05
1.78866e-05
1.78866e-05
1.78866e-05
1.78866e-05
1.78866e-05
1.78866e-05
1.78866e-05
1.78866e-05
1.78866e-05
1.78866e-05
1.78866e-05
1.78866e-05
1.78866e-05
1.78866e-05
1.78866e-05
1.78866e-05
1.78866e-05
1.78866e-05
1.78864e-05
1.78864e-05
1.78866e-05
1.78866e-05
1.78866e-05
1.78866e-05
1.78866e-05
1.78866e-05
1.78866e-05
1.78866e-05
1.78866e-05
1.78866e-05
1.78866e-05
1.78866e-05
1.78866e-05
1.78866e-05
1.78866e-05
1.78866e-05
1.78866e-05
1.78866e-05
1.78866e-05
1.78866e-05
1.78866e-05
1.78866e-05
1.78866e-05
1.78866e-05
1.78866e-05
1.78866e-05
1.78866e-05
1.78866e-05
1.78865e-05
1.78865e-05
1.78866e-05
1.78866e-05
1.78866e-05
1.78866e-05
1.78866e-05
1.78866e-05
1.78866e-05
1.78866e-05
1.78866e-05
1.78866e-05
1.78866e-05
1.78866e-05
1.78866e-05
1.78866e-05
1.78866e-05
1.78866e-05
1.78866e-05
1.78866e-05
1.78866e-05
1.78866e-05
1.78866e-05
1.78866e-05
1.78866e-05
1.78866e-05
1.78866e-05
1.78866e-05
1.78866e-05
1.78866e-05
1.78864e-05
1.7889e-05
1.78882e-05
1.7888e-05
1.78873e-05
1.78877e-05
1.78871e-05
1.78874e-05
1.78874e-05
1.78874e-05
1.78874e-05
1.78873e-05
1.78872e-05
1.78871e-05
1.7887e-05
1.7887e-05
1.7887e-05
1.7887e-05
1.78872e-05
1.78873e-05
1.78873e-05
1.78874e-05
1.78874e-05
1.78874e-05
1.78874e-05
1.78877e-05
1.7888e-05
1.78882e-05
1.78886e-05
1.78891e-05
1.78889e-05
1.79332e-05
1.79343e-05
1.79406e-05
1.79977e-05
1.80346e-05
1.80663e-05
1.80884e-05
1.80973e-05
1.80981e-05
1.80901e-05
1.80733e-05
1.8048e-05
1.80164e-05
1.79829e-05
1.79576e-05
1.79582e-05
1.79836e-05
1.80163e-05
1.80483e-05
1.80734e-05
1.809e-05
1.80968e-05
1.80916e-05
1.80711e-05
1.80354e-05
1.80035e-05
1.79628e-05
1.79336e-05
1.79286e-05
1.79231e-05
1.80298e-05
1.80855e-05
1.81245e-05
1.81803e-05
1.82116e-05
1.82544e-05
1.82798e-05
1.82962e-05
1.82991e-05
1.82874e-05
1.82614e-05
1.82235e-05
1.81789e-05
1.81361e-05
1.81084e-05
1.81096e-05
1.81368e-05
1.81809e-05
1.82264e-05
1.82646e-05
1.82917e-05
1.83024e-05
1.83006e-05
1.82919e-05
1.82722e-05
1.82185e-05
1.81757e-05
1.81248e-05
1.80384e-05
1.79473e-05
1.81166e-05
1.81763e-05
1.82082e-05
1.82517e-05
1.8287e-05
1.83175e-05
1.83439e-05
1.8362e-05
1.83687e-05
1.83633e-05
1.83459e-05
1.83193e-05
1.8289e-05
1.82618e-05
1.82451e-05
1.82445e-05
1.82615e-05
1.82894e-05
1.83202e-05
1.83474e-05
1.83649e-05
1.83715e-05
1.83659e-05
1.83479e-05
1.83183e-05
1.82845e-05
1.82486e-05
1.82179e-05
1.82035e-05
1.81487e-05
1.82677e-05
1.83077e-05
1.83307e-05
1.83615e-05
1.83935e-05
1.84246e-05
1.84519e-05
1.84722e-05
1.84833e-05
1.84843e-05
1.84757e-05
1.84603e-05
1.84417e-05
1.84249e-05
1.84147e-05
1.84142e-05
1.84242e-05
1.84414e-05
1.84605e-05
1.84766e-05
1.84858e-05
1.84857e-05
1.84753e-05
1.84567e-05
1.84271e-05
1.83901e-05
1.83516e-05
1.83116e-05
1.8286e-05
1.82697e-05
1.84152e-05
1.84249e-05
1.84474e-05
1.84766e-05
1.85082e-05
1.85398e-05
1.85687e-05
1.85927e-05
1.86097e-05
1.86187e-05
1.862e-05
1.86151e-05
1.86067e-05
1.85983e-05
1.8593e-05
1.85931e-05
1.85988e-05
1.86077e-05
1.86167e-05
1.86223e-05
1.8622e-05
1.86143e-05
1.8598e-05
1.85749e-05
1.85458e-05
1.85122e-05
1.84789e-05
1.8447e-05
1.84202e-05
1.84005e-05
1.85173e-05
1.85258e-05
1.85463e-05
1.85737e-05
1.86054e-05
1.86389e-05
1.86718e-05
1.87015e-05
1.87262e-05
1.87446e-05
1.87564e-05
1.87623e-05
1.87637e-05
1.87629e-05
1.87617e-05
1.87614e-05
1.87622e-05
1.87628e-05
1.8761e-05
1.87548e-05
1.87429e-05
1.87248e-05
1.87006e-05
1.86714e-05
1.8639e-05
1.86051e-05
1.85728e-05
1.85458e-05
1.85261e-05
1.85136e-05
1.86252e-05
1.8634e-05
1.86533e-05
1.868e-05
1.87124e-05
1.87482e-05
1.87851e-05
1.88208e-05
1.88534e-05
1.88812e-05
1.89033e-05
1.89195e-05
1.89304e-05
1.89367e-05
1.89395e-05
1.89394e-05
1.89363e-05
1.89297e-05
1.89186e-05
1.89019e-05
1.88794e-05
1.88514e-05
1.8819e-05
1.87836e-05
1.87471e-05
1.87113e-05
1.86784e-05
1.86514e-05
1.86326e-05
1.86221e-05
1.87261e-05
1.87352e-05
1.87546e-05
1.8782e-05
1.8816e-05
1.88547e-05
1.88961e-05
1.89382e-05
1.89788e-05
1.9016e-05
1.90483e-05
1.90747e-05
1.90945e-05
1.91077e-05
1.91142e-05
1.91142e-05
1.91075e-05
1.90942e-05
1.9074e-05
1.90473e-05
1.90145e-05
1.89768e-05
1.89358e-05
1.88937e-05
1.88523e-05
1.88136e-05
1.87794e-05
1.87517e-05
1.87323e-05
1.87218e-05
1.88128e-05
1.88225e-05
1.88425e-05
1.88709e-05
1.89068e-05
1.89486e-05
1.89946e-05
1.90429e-05
1.90911e-05
1.91372e-05
1.91791e-05
1.92149e-05
1.9243e-05
1.92625e-05
1.92724e-05
1.92723e-05
1.92623e-05
1.92428e-05
1.92144e-05
1.91782e-05
1.91359e-05
1.90892e-05
1.90403e-05
1.89916e-05
1.89452e-05
1.89032e-05
1.88671e-05
1.88386e-05
1.88188e-05
1.88081e-05
1.88824e-05
1.8893e-05
1.89134e-05
1.89426e-05
1.89801e-05
1.90245e-05
1.90744e-05
1.91277e-05
1.91823e-05
1.92358e-05
1.92857e-05
1.93294e-05
1.93645e-05
1.93892e-05
1.94019e-05
1.94019e-05
1.93891e-05
1.93644e-05
1.93291e-05
1.92851e-05
1.92349e-05
1.91809e-05
1.91256e-05
1.90717e-05
1.90213e-05
1.89764e-05
1.89387e-05
1.89092e-05
1.88891e-05
1.88782e-05
1.89334e-05
1.89445e-05
1.89648e-05
1.89945e-05
1.90328e-05
1.90787e-05
1.91309e-05
1.91875e-05
1.92463e-05
1.93048e-05
1.93601e-05
1.94092e-05
1.94492e-05
1.94774e-05
1.9492e-05
1.9492e-05
1.94774e-05
1.94491e-05
1.94091e-05
1.93598e-05
1.93043e-05
1.92454e-05
1.91861e-05
1.9129e-05
1.90763e-05
1.90299e-05
1.89912e-05
1.89613e-05
1.8941e-05
1.89298e-05
1.89642e-05
1.89754e-05
1.89953e-05
1.90247e-05
1.90628e-05
1.91087e-05
1.91612e-05
1.92186e-05
1.92788e-05
1.93391e-05
1.93965e-05
1.94478e-05
1.94897e-05
1.95194e-05
1.95348e-05
1.95348e-05
1.95194e-05
1.94897e-05
1.94478e-05
1.93964e-05
1.93389e-05
1.92784e-05
1.92179e-05
1.91602e-05
1.91072e-05
1.90608e-05
1.90224e-05
1.89928e-05
1.89727e-05
1.89615e-05
1.89745e-05
1.89855e-05
1.90046e-05
1.90327e-05
1.90693e-05
1.91134e-05
1.9164e-05
1.92194e-05
1.92775e-05
1.93358e-05
1.93914e-05
1.9441e-05
1.94816e-05
1.95104e-05
1.95253e-05
1.95253e-05
1.95104e-05
1.94816e-05
1.9441e-05
1.93913e-05
1.93357e-05
1.92773e-05
1.92191e-05
1.91635e-05
1.91126e-05
1.90681e-05
1.90313e-05
1.9003e-05
1.89838e-05
1.89727e-05
1.89652e-05
1.89757e-05
1.89933e-05
1.90193e-05
1.9053e-05
1.90937e-05
1.91402e-05
1.91909e-05
1.92438e-05
1.92966e-05
1.93467e-05
1.93912e-05
1.94275e-05
1.94531e-05
1.94664e-05
1.94663e-05
1.9453e-05
1.94274e-05
1.93912e-05
1.93466e-05
1.92966e-05
1.92437e-05
1.91907e-05
1.91399e-05
1.90933e-05
1.90524e-05
1.90185e-05
1.89923e-05
1.89746e-05
1.8964e-05
1.89381e-05
1.89477e-05
1.89634e-05
1.89865e-05
1.90164e-05
1.90522e-05
1.90928e-05
1.91366e-05
1.91818e-05
1.92264e-05
1.92681e-05
1.93048e-05
1.93343e-05
1.9355e-05
1.93657e-05
1.93657e-05
1.93549e-05
1.93342e-05
1.93047e-05
1.9268e-05
1.92263e-05
1.91817e-05
1.91365e-05
1.90927e-05
1.9052e-05
1.90161e-05
1.8986e-05
1.89628e-05
1.8947e-05
1.89372e-05
1.88955e-05
1.89039e-05
1.89173e-05
1.89371e-05
1.89625e-05
1.89925e-05
1.90259e-05
1.90614e-05
1.90972e-05
1.91318e-05
1.91633e-05
1.91904e-05
1.92117e-05
1.92264e-05
1.92339e-05
1.92339e-05
1.92263e-05
1.92116e-05
1.91902e-05
1.91632e-05
1.91316e-05
1.90971e-05
1.90612e-05
1.90257e-05
1.89923e-05
1.89622e-05
1.89368e-05
1.8917e-05
1.89035e-05
1.88948e-05
1.88402e-05
1.88475e-05
1.88585e-05
1.88746e-05
1.88951e-05
1.89188e-05
1.89445e-05
1.89711e-05
1.89969e-05
1.90207e-05
1.90415e-05
1.90583e-05
1.90709e-05
1.90792e-05
1.90833e-05
1.90833e-05
1.90791e-05
1.90708e-05
1.90581e-05
1.90412e-05
1.90205e-05
1.89966e-05
1.89708e-05
1.89443e-05
1.89185e-05
1.88949e-05
1.88745e-05
1.88583e-05
1.88473e-05
1.88399e-05
1.87757e-05
1.87817e-05
1.87904e-05
1.88028e-05
1.88183e-05
1.88357e-05
1.88538e-05
1.88715e-05
1.88876e-05
1.89011e-05
1.89114e-05
1.89184e-05
1.89227e-05
1.89248e-05
1.89256e-05
1.89256e-05
1.89247e-05
1.89225e-05
1.89183e-05
1.89112e-05
1.89008e-05
1.88873e-05
1.88712e-05
1.88535e-05
1.88354e-05
1.8818e-05
1.88027e-05
1.87902e-05
1.87817e-05
1.87755e-05
1.87049e-05
1.87099e-05
1.87162e-05
1.87252e-05
1.87359e-05
1.87474e-05
1.87585e-05
1.87682e-05
1.87755e-05
1.87797e-05
1.87807e-05
1.87791e-05
1.8776e-05
1.87727e-05
1.87707e-05
1.87706e-05
1.87727e-05
1.87759e-05
1.8779e-05
1.87806e-05
1.87795e-05
1.87752e-05
1.87679e-05
1.87583e-05
1.87471e-05
1.87357e-05
1.8725e-05
1.87161e-05
1.87099e-05
1.87049e-05
1.86308e-05
1.86348e-05
1.8639e-05
1.86449e-05
1.86514e-05
1.86577e-05
1.86627e-05
1.86656e-05
1.86654e-05
1.86619e-05
1.86554e-05
1.86467e-05
1.86376e-05
1.86299e-05
1.86255e-05
1.86255e-05
1.86299e-05
1.86375e-05
1.86466e-05
1.86553e-05
1.86618e-05
1.86652e-05
1.86654e-05
1.86625e-05
1.86575e-05
1.86512e-05
1.86447e-05
1.86389e-05
1.86347e-05
1.86308e-05
1.8556e-05
1.8559e-05
1.85614e-05
1.85645e-05
1.85675e-05
1.85695e-05
1.85696e-05
1.8567e-05
1.8561e-05
1.85517e-05
1.85394e-05
1.85254e-05
1.85118e-05
1.85008e-05
1.84946e-05
1.84946e-05
1.85007e-05
1.85117e-05
1.85254e-05
1.85393e-05
1.85516e-05
1.8561e-05
1.85669e-05
1.85695e-05
1.85694e-05
1.85674e-05
1.85644e-05
1.85612e-05
1.85589e-05
1.8556e-05
1.84824e-05
1.84847e-05
1.84855e-05
1.84865e-05
1.84867e-05
1.84853e-05
1.84817e-05
1.8475e-05
1.84648e-05
1.84513e-05
1.8435e-05
1.84175e-05
1.84008e-05
1.83875e-05
1.83801e-05
1.83801e-05
1.83875e-05
1.84007e-05
1.84174e-05
1.8435e-05
1.84512e-05
1.84648e-05
1.84749e-05
1.84816e-05
1.84852e-05
1.84866e-05
1.84863e-05
1.84854e-05
1.84845e-05
1.84824e-05
1.84119e-05
1.84134e-05
1.84131e-05
1.84124e-05
1.84105e-05
1.84067e-05
1.84004e-05
1.8391e-05
1.83781e-05
1.8362e-05
1.83434e-05
1.83237e-05
1.83052e-05
1.82906e-05
1.82825e-05
1.82825e-05
1.82905e-05
1.83051e-05
1.83236e-05
1.83432e-05
1.83619e-05
1.8378e-05
1.83909e-05
1.84004e-05
1.84067e-05
1.84104e-05
1.84123e-05
1.8413e-05
1.84132e-05
1.84118e-05
1.83456e-05
1.83466e-05
1.83455e-05
1.83436e-05
1.83402e-05
1.83348e-05
1.83268e-05
1.83158e-05
1.83014e-05
1.8284e-05
1.82643e-05
1.82438e-05
1.82245e-05
1.82094e-05
1.82009e-05
1.82009e-05
1.82093e-05
1.82244e-05
1.82436e-05
1.82641e-05
1.82839e-05
1.83013e-05
1.83156e-05
1.83267e-05
1.83348e-05
1.83402e-05
1.83435e-05
1.83454e-05
1.83464e-05
1.83456e-05
1.82846e-05
1.82851e-05
1.82835e-05
1.82808e-05
1.82765e-05
1.82701e-05
1.82612e-05
1.82494e-05
1.82346e-05
1.82169e-05
1.81972e-05
1.81767e-05
1.81576e-05
1.81424e-05
1.81339e-05
1.81339e-05
1.81423e-05
1.81574e-05
1.81765e-05
1.81969e-05
1.82167e-05
1.82344e-05
1.82492e-05
1.82611e-05
1.827e-05
1.82764e-05
1.82807e-05
1.82833e-05
1.82849e-05
1.82845e-05
1.82291e-05
1.82294e-05
1.82274e-05
1.82242e-05
1.82195e-05
1.82127e-05
1.82035e-05
1.81916e-05
1.8177e-05
1.81599e-05
1.81408e-05
1.81211e-05
1.81027e-05
1.80879e-05
1.80796e-05
1.80796e-05
1.80878e-05
1.81024e-05
1.81208e-05
1.81405e-05
1.81596e-05
1.81768e-05
1.81914e-05
1.82033e-05
1.82125e-05
1.82193e-05
1.82241e-05
1.82272e-05
1.82292e-05
1.8229e-05
1.81795e-05
1.81795e-05
1.81774e-05
1.81741e-05
1.81691e-05
1.81623e-05
1.81533e-05
1.81418e-05
1.81279e-05
1.81118e-05
1.8094e-05
1.80755e-05
1.80581e-05
1.80441e-05
1.80362e-05
1.80361e-05
1.8044e-05
1.80579e-05
1.80752e-05
1.80936e-05
1.81115e-05
1.81276e-05
1.81416e-05
1.8153e-05
1.81621e-05
1.81689e-05
1.81738e-05
1.81772e-05
1.81793e-05
1.81793e-05
1.81355e-05
1.81354e-05
1.81333e-05
1.813e-05
1.81251e-05
1.81185e-05
1.811e-05
1.80993e-05
1.80864e-05
1.80716e-05
1.80553e-05
1.80384e-05
1.80223e-05
1.80093e-05
1.80017e-05
1.80017e-05
1.80091e-05
1.80221e-05
1.80381e-05
1.8055e-05
1.80713e-05
1.80861e-05
1.8099e-05
1.81097e-05
1.81182e-05
1.81248e-05
1.81297e-05
1.8133e-05
1.81351e-05
1.81353e-05
1.8097e-05
1.80969e-05
1.80948e-05
1.80916e-05
1.8087e-05
1.80808e-05
1.80729e-05
1.80632e-05
1.80516e-05
1.80383e-05
1.80236e-05
1.80084e-05
1.79938e-05
1.79817e-05
1.79746e-05
1.79746e-05
1.79816e-05
1.79936e-05
1.80081e-05
1.80233e-05
1.80379e-05
1.80512e-05
1.80628e-05
1.80726e-05
1.80805e-05
1.80866e-05
1.80912e-05
1.80944e-05
1.80965e-05
1.80967e-05
1.80635e-05
1.80634e-05
1.80614e-05
1.80584e-05
1.80542e-05
1.80486e-05
1.80415e-05
1.80328e-05
1.80225e-05
1.80107e-05
1.79978e-05
1.79843e-05
1.79712e-05
1.79602e-05
1.79536e-05
1.79535e-05
1.796e-05
1.7971e-05
1.7984e-05
1.79974e-05
1.80103e-05
1.80221e-05
1.80324e-05
1.80411e-05
1.80482e-05
1.80538e-05
1.8058e-05
1.8061e-05
1.80629e-05
1.80631e-05
1.80346e-05
1.80345e-05
1.80327e-05
1.803e-05
1.80262e-05
1.80212e-05
1.80149e-05
1.80073e-05
1.79983e-05
1.7988e-05
1.79768e-05
1.79651e-05
1.79536e-05
1.79436e-05
1.79373e-05
1.79373e-05
1.79434e-05
1.79533e-05
1.79648e-05
1.79765e-05
1.79877e-05
1.79979e-05
1.80069e-05
1.80145e-05
1.80208e-05
1.80258e-05
1.80296e-05
1.80323e-05
1.8034e-05
1.80342e-05
1.80098e-05
1.80098e-05