/*--------------------------------*- C++ -*----------------------------------*\
| =========                 |                                                 |
| \\      /  F ield         | OpenFOAM: The Open Source CFD Toolbox           |
|  \\    /   O peration     | Version:  2312                                  |
|   \\  /    A nd           | Website:  www.openfoam.com                      |
|    \\/     M anipulation  |                                                 |
\*---------------------------------------------------------------------------*/
FoamFile
{
    version     2.0;
    format      ascii;
    arch        "LSB;label=32;scalar=64";
    class       volScalarField;
    location    "0.0470981";
    object      k;
}
// * * * * * * * * * * * * * * * * * * * * * * * * * * * * * * * * * * * * * //

dimensions      [0 2 -2 0 0 0 0];

internalField   nonuniform List<scalar> 
90000
(
3.66483e-05
3.66483e-05
3.66483e-05
3.66483e-05
3.66483e-05
3.66483e-05
3.66483e-05
3.66483e-05
3.66483e-05
3.66483e-05
3.66483e-05
3.66483e-05
3.66483e-05
3.66483e-05
3.66483e-05
3.66483e-05
3.66483e-05
3.66483e-05
3.66483e-05
3.66483e-05
3.66483e-05
3.66483e-05
3.66483e-05
3.66483e-05
3.66483e-05
3.66483e-05
3.66483e-05
3.66483e-05
3.66483e-05
3.66483e-05
3.66483e-05
3.66487e-05
3.66487e-05
3.66487e-05
3.66487e-05
3.66487e-05
3.66487e-05
3.66487e-05
3.66487e-05
3.66487e-05
3.66487e-05
3.66487e-05
3.66487e-05
3.66487e-05
3.66487e-05
3.66487e-05
3.66487e-05
3.66487e-05
3.66487e-05
3.66487e-05
3.66487e-05
3.66487e-05
3.66487e-05
3.66487e-05
3.66487e-05
3.66487e-05
3.66487e-05
3.66487e-05
3.66487e-05
3.66483e-05
3.66483e-05
3.66487e-05
3.66487e-05
3.66487e-05
3.66487e-05
3.66487e-05
3.66487e-05
3.66487e-05
3.66487e-05
3.66487e-05
3.66487e-05
3.66487e-05
3.66487e-05
3.66487e-05
3.66487e-05
3.66487e-05
3.66487e-05
3.66487e-05
3.66487e-05
3.66487e-05
3.66487e-05
3.66487e-05
3.66487e-05
3.66487e-05
3.66487e-05
3.66487e-05
3.66487e-05
3.66487e-05
3.66487e-05
3.66483e-05
3.66483e-05
3.66487e-05
3.66487e-05
3.66487e-05
3.66487e-05
3.66487e-05
3.66487e-05
3.66487e-05
3.66487e-05
3.66487e-05
3.66487e-05
3.66487e-05
3.66487e-05
3.66487e-05
3.66487e-05
3.66487e-05
3.66487e-05
3.66487e-05
3.66487e-05
3.66487e-05
3.66487e-05
3.66487e-05
3.66487e-05
3.66487e-05
3.66487e-05
3.66487e-05
3.66487e-05
3.66487e-05
3.66487e-05
3.66483e-05
3.66483e-05
3.66487e-05
3.66487e-05
3.66487e-05
3.66487e-05
3.66487e-05
3.66487e-05
3.66487e-05
3.66487e-05
3.66487e-05
3.66487e-05
3.66487e-05
3.66487e-05
3.66487e-05
3.66487e-05
3.66487e-05
3.66487e-05
3.66487e-05
3.66487e-05
3.66487e-05
3.66487e-05
3.66487e-05
3.66487e-05
3.66487e-05
3.66487e-05
3.66487e-05
3.66487e-05
3.66487e-05
3.66487e-05
3.66483e-05
3.66483e-05
3.66487e-05
3.66487e-05
3.66487e-05
3.66487e-05
3.66487e-05
3.66487e-05
3.66487e-05
3.66487e-05
3.66487e-05
3.66487e-05
3.66487e-05
3.66487e-05
3.66487e-05
3.66487e-05
3.66487e-05
3.66487e-05
3.66487e-05
3.66487e-05
3.66487e-05
3.66487e-05
3.66487e-05
3.66487e-05
3.66487e-05
3.66487e-05
3.66487e-05
3.66487e-05
3.66487e-05
3.66487e-05
3.66483e-05
3.66483e-05
3.66487e-05
3.66487e-05
3.66487e-05
3.66487e-05
3.66487e-05
3.66487e-05
3.66487e-05
3.66487e-05
3.66487e-05
3.66487e-05
3.66487e-05
3.66487e-05
3.66487e-05
3.66487e-05
3.66487e-05
3.66487e-05
3.66487e-05
3.66487e-05
3.66487e-05
3.66487e-05
3.66487e-05
3.66487e-05
3.66487e-05
3.66487e-05
3.66487e-05
3.66487e-05
3.66487e-05
3.66487e-05
3.66483e-05
3.66483e-05
3.66487e-05
3.66487e-05
3.66487e-05
3.66487e-05
3.66487e-05
3.66487e-05
3.66487e-05
3.66487e-05
3.66487e-05
3.66487e-05
3.66487e-05
3.66487e-05
3.66487e-05
3.66487e-05
3.66487e-05
3.66487e-05
3.66487e-05
3.66487e-05
3.66487e-05
3.66487e-05
3.66487e-05
3.66487e-05
3.66487e-05
3.66487e-05
3.66487e-05
3.66487e-05
3.66487e-05
3.66487e-05
3.66483e-05
3.66483e-05
3.66487e-05
3.66487e-05
3.66487e-05
3.66487e-05
3.66487e-05
3.66487e-05
3.66487e-05
3.66487e-05
3.66487e-05
3.66487e-05
3.66487e-05
3.66487e-05
3.66487e-05
3.66487e-05
3.66487e-05
3.66487e-05
3.66487e-05
3.66487e-05
3.66487e-05
3.66487e-05
3.66487e-05
3.66487e-05
3.66487e-05
3.66487e-05
3.66487e-05
3.66487e-05
3.66487e-05
3.66487e-05
3.66483e-05
3.66483e-05
3.66487e-05
3.66487e-05
3.66487e-05
3.66487e-05
3.66487e-05
3.66487e-05
3.66487e-05
3.66487e-05
3.66487e-05
3.66487e-05
3.66487e-05
3.66487e-05
3.66487e-05
3.66487e-05
3.66487e-05
3.66487e-05
3.66487e-05
3.66487e-05
3.66487e-05
3.66487e-05
3.66487e-05
3.66487e-05
3.66487e-05
3.66487e-05
3.66487e-05
3.66487e-05
3.66487e-05
3.66487e-05
3.66483e-05
3.66483e-05
3.66487e-05
3.66487e-05
3.66487e-05
3.66487e-05
3.66487e-05
3.66487e-05
3.66487e-05
3.66487e-05
3.66487e-05
3.66487e-05
3.66487e-05
3.66487e-05
3.66487e-05
3.66487e-05
3.66487e-05
3.66487e-05
3.66487e-05
3.66487e-05
3.66487e-05
3.66487e-05
3.66487e-05
3.66487e-05
3.66487e-05
3.66487e-05
3.66487e-05
3.66487e-05
3.66487e-05
3.66487e-05
3.66483e-05
3.66483e-05
3.66487e-05
3.66487e-05
3.66487e-05
3.66487e-05
3.66487e-05
3.66487e-05
3.66487e-05
3.66487e-05
3.66487e-05
3.66487e-05
3.66487e-05
3.66487e-05
3.66487e-05
3.66487e-05
3.66487e-05
3.66487e-05
3.66487e-05
3.66487e-05
3.66487e-05
3.66487e-05
3.66487e-05
3.66487e-05
3.66487e-05
3.66487e-05
3.66487e-05
3.66487e-05
3.66487e-05
3.66487e-05
3.66483e-05
3.66483e-05
3.66487e-05
3.66487e-05
3.66487e-05
3.66487e-05
3.66487e-05
3.66487e-05
3.66487e-05
3.66487e-05
3.66487e-05
3.66487e-05
3.66487e-05
3.66487e-05
3.66487e-05
3.66487e-05
3.66487e-05
3.66487e-05
3.66487e-05
3.66487e-05
3.66487e-05
3.66487e-05
3.66487e-05
3.66487e-05
3.66487e-05
3.66487e-05
3.66487e-05
3.66487e-05
3.66487e-05
3.66487e-05
3.66483e-05
3.66483e-05
3.66487e-05
3.66487e-05
3.66487e-05
3.66487e-05
3.66487e-05
3.66487e-05
3.66487e-05
3.66487e-05
3.66487e-05
3.66487e-05
3.66487e-05
3.66487e-05
3.66487e-05
3.66487e-05
3.66487e-05
3.66487e-05
3.66487e-05
3.66487e-05
3.66487e-05
3.66487e-05
3.66487e-05
3.66487e-05
3.66487e-05
3.66487e-05
3.66487e-05
3.66487e-05
3.66487e-05
3.66487e-05
3.66483e-05
3.66483e-05
3.66487e-05
3.66487e-05
3.66487e-05
3.66487e-05
3.66487e-05
3.66487e-05
3.66487e-05
3.66487e-05
3.66487e-05
3.66487e-05
3.66487e-05
3.66487e-05
3.66487e-05
3.66487e-05
3.66487e-05
3.66487e-05
3.66487e-05
3.66487e-05
3.66487e-05
3.66487e-05
3.66487e-05
3.66487e-05
3.66487e-05
3.66487e-05
3.66487e-05
3.66487e-05
3.66487e-05
3.66487e-05
3.66483e-05
3.66483e-05
3.66487e-05
3.66487e-05
3.66487e-05
3.66487e-05
3.66487e-05
3.66487e-05
3.66487e-05
3.66487e-05
3.66487e-05
3.66487e-05
3.66487e-05
3.66487e-05
3.66487e-05
3.66487e-05
3.66487e-05
3.66487e-05
3.66487e-05
3.66487e-05
3.66487e-05
3.66487e-05
3.66487e-05
3.66487e-05
3.66487e-05
3.66487e-05
3.66487e-05
3.66487e-05
3.66487e-05
3.66487e-05
3.66483e-05
3.66483e-05
3.66487e-05
3.66487e-05
3.66487e-05
3.66487e-05
3.66487e-05
3.66487e-05
3.66487e-05
3.66487e-05
3.66487e-05
3.66487e-05
3.66487e-05
3.66487e-05
3.66487e-05
3.66487e-05
3.66487e-05
3.66487e-05
3.66487e-05
3.66487e-05
3.66487e-05
3.66487e-05
3.66487e-05
3.66487e-05
3.66487e-05
3.66487e-05
3.66487e-05
3.66487e-05
3.66487e-05
3.66487e-05
3.66483e-05
3.66483e-05
3.66487e-05
3.66487e-05
3.66487e-05
3.66487e-05
3.66487e-05
3.66487e-05
3.66487e-05
3.66487e-05
3.66487e-05
3.66487e-05
3.66487e-05
3.66487e-05
3.66487e-05
3.66487e-05
3.66487e-05
3.66487e-05
3.66487e-05
3.66487e-05
3.66487e-05
3.66487e-05
3.66487e-05
3.66487e-05
3.66487e-05
3.66487e-05
3.66487e-05
3.66487e-05
3.66487e-05
3.66487e-05
3.66483e-05
3.66483e-05
3.66487e-05
3.66487e-05
3.66487e-05
3.66487e-05
3.66487e-05
3.66487e-05
3.66487e-05
3.66487e-05
3.66487e-05
3.66487e-05
3.66487e-05
3.66487e-05
3.66487e-05
3.66487e-05
3.66487e-05
3.66487e-05
3.66487e-05
3.66487e-05
3.66487e-05
3.66487e-05
3.66487e-05
3.66487e-05
3.66487e-05
3.66487e-05
3.66487e-05
3.66487e-05
3.66487e-05
3.66487e-05
3.66483e-05
3.66483e-05
3.66487e-05
3.66487e-05
3.66487e-05
3.66487e-05
3.66487e-05
3.66487e-05
3.66487e-05
3.66487e-05
3.66487e-05
3.66487e-05
3.66487e-05
3.66487e-05
3.66487e-05
3.66487e-05
3.66487e-05
3.66487e-05
3.66487e-05
3.66487e-05
3.66487e-05
3.66487e-05
3.66487e-05
3.66487e-05
3.66487e-05
3.66487e-05
3.66487e-05
3.66487e-05
3.66487e-05
3.66487e-05
3.66483e-05
3.66483e-05
3.66487e-05
3.66487e-05
3.66487e-05
3.66487e-05
3.66487e-05
3.66487e-05
3.66487e-05
3.66487e-05
3.66487e-05
3.66487e-05
3.66487e-05
3.66487e-05
3.66487e-05
3.66487e-05
3.66487e-05
3.66487e-05
3.66487e-05
3.66487e-05
3.66487e-05
3.66487e-05
3.66487e-05
3.66487e-05
3.66487e-05
3.66487e-05
3.66487e-05
3.66487e-05
3.66487e-05
3.66487e-05
3.66483e-05
3.66483e-05
3.66487e-05
3.66487e-05
3.66487e-05
3.66487e-05
3.66487e-05
3.66487e-05
3.66487e-05
3.66487e-05
3.66487e-05
3.66487e-05
3.66487e-05
3.66487e-05
3.66487e-05
3.66487e-05
3.66487e-05
3.66487e-05
3.66487e-05
3.66487e-05
3.66487e-05
3.66487e-05
3.66487e-05
3.66487e-05
3.66487e-05
3.66487e-05
3.66487e-05
3.66487e-05
3.66487e-05
3.66487e-05
3.66483e-05
3.66483e-05
3.66487e-05
3.66487e-05
3.66487e-05
3.66487e-05
3.66487e-05
3.66487e-05
3.66487e-05
3.66487e-05
3.66487e-05
3.66487e-05
3.66487e-05
3.66487e-05
3.66487e-05
3.66487e-05
3.66487e-05
3.66487e-05
3.66487e-05
3.66487e-05
3.66487e-05
3.66487e-05
3.66487e-05
3.66487e-05
3.66487e-05
3.66487e-05
3.66487e-05
3.66487e-05
3.66487e-05
3.66487e-05
3.66483e-05
3.66483e-05
3.66487e-05
3.66487e-05
3.66487e-05
3.66487e-05
3.66487e-05
3.66487e-05
3.66487e-05
3.66487e-05
3.66487e-05
3.66487e-05
3.66487e-05
3.66487e-05
3.66487e-05
3.66487e-05
3.66487e-05
3.66487e-05
3.66487e-05
3.66487e-05
3.66487e-05
3.66487e-05
3.66487e-05
3.66487e-05
3.66487e-05
3.66487e-05
3.66487e-05
3.66487e-05
3.66487e-05
3.66487e-05
3.66483e-05
3.66483e-05
3.66487e-05
3.66487e-05
3.66487e-05
3.66487e-05
3.66487e-05
3.66487e-05
3.66487e-05
3.66487e-05
3.66487e-05
3.66487e-05
3.66487e-05
3.66487e-05
3.66487e-05
3.66487e-05
3.66487e-05
3.66487e-05
3.66487e-05
3.66487e-05
3.66487e-05
3.66487e-05
3.66487e-05
3.66487e-05
3.66487e-05
3.66487e-05
3.66487e-05
3.66487e-05
3.66487e-05
3.66487e-05
3.66483e-05
3.66483e-05
3.66487e-05
3.66487e-05
3.66487e-05
3.66487e-05
3.66487e-05
3.66487e-05
3.66487e-05
3.66487e-05
3.66487e-05
3.66487e-05
3.66487e-05
3.66487e-05
3.66487e-05
3.66487e-05
3.66487e-05
3.66487e-05
3.66487e-05
3.66487e-05
3.66487e-05
3.66487e-05
3.66487e-05
3.66487e-05
3.66487e-05
3.66487e-05
3.66487e-05
3.66487e-05
3.66487e-05
3.66487e-05
3.66483e-05
3.66483e-05
3.66487e-05
3.66487e-05
3.66487e-05
3.66487e-05
3.66487e-05
3.66487e-05
3.66487e-05
3.66487e-05
3.66487e-05
3.66487e-05
3.66487e-05
3.66487e-05
3.66487e-05
3.66487e-05
3.66487e-05
3.66487e-05
3.66487e-05
3.66487e-05
3.66487e-05
3.66487e-05
3.66487e-05
3.66487e-05
3.66487e-05
3.66487e-05
3.66487e-05
3.66487e-05
3.66487e-05
3.66487e-05
3.66483e-05
3.66483e-05
3.66487e-05
3.66487e-05
3.66487e-05
3.66487e-05
3.66487e-05
3.66487e-05
3.66487e-05
3.66487e-05
3.66487e-05
3.66487e-05
3.66487e-05
3.66487e-05
3.66487e-05
3.66487e-05
3.66487e-05
3.66487e-05
3.66487e-05
3.66487e-05
3.66487e-05
3.66487e-05
3.66487e-05
3.66487e-05
3.66487e-05
3.66487e-05
3.66487e-05
3.66487e-05
3.66487e-05
3.66487e-05
3.66483e-05
3.66483e-05
3.66487e-05
3.66487e-05
3.66487e-05
3.66487e-05
3.66487e-05
3.66487e-05
3.66487e-05
3.66487e-05
3.66487e-05
3.66487e-05
3.66487e-05
3.66487e-05
3.66487e-05
3.66487e-05
3.66487e-05
3.66487e-05
3.66487e-05
3.66487e-05
3.66487e-05
3.66487e-05
3.66487e-05
3.66487e-05
3.66487e-05
3.66487e-05
3.66487e-05
3.66487e-05
3.66487e-05
3.66487e-05
3.66483e-05
3.66483e-05
3.66487e-05
3.66487e-05
3.66487e-05
3.66487e-05
3.66487e-05
3.66487e-05
3.66487e-05
3.66487e-05
3.66487e-05
3.66487e-05
3.66487e-05
3.66487e-05
3.66487e-05
3.66487e-05
3.66487e-05
3.66487e-05
3.66487e-05
3.66487e-05
3.66487e-05
3.66487e-05
3.66487e-05
3.66487e-05
3.66487e-05
3.66487e-05
3.66487e-05
3.66487e-05
3.66487e-05
3.66487e-05
3.66483e-05
3.66483e-05
3.66487e-05
3.66487e-05
3.66487e-05
3.66487e-05
3.66487e-05
3.66487e-05
3.66487e-05
3.66487e-05
3.66487e-05
3.66487e-05
3.66487e-05
3.66487e-05
3.66487e-05
3.66487e-05
3.66487e-05
3.66487e-05
3.66487e-05
3.66487e-05
3.66487e-05
3.66487e-05
3.66487e-05
3.66487e-05
3.66487e-05
3.66487e-05
3.66487e-05
3.66487e-05
3.66487e-05
3.66487e-05
3.66484e-05
3.66484e-05
3.66487e-05
3.66487e-05
3.66487e-05
3.66487e-05
3.66487e-05
3.66487e-05
3.66487e-05
3.66487e-05
3.66487e-05
3.66487e-05
3.66487e-05
3.66487e-05
3.66487e-05
3.66487e-05
3.66487e-05
3.66487e-05
3.66487e-05
3.66487e-05
3.66487e-05
3.66487e-05
3.66487e-05
3.66487e-05
3.66487e-05
3.66487e-05
3.66487e-05
3.66487e-05
3.66487e-05
3.66487e-05
3.66484e-05
3.66484e-05
3.66487e-05
3.66487e-05
3.66487e-05
3.66487e-05
3.66487e-05
3.66487e-05
3.66487e-05
3.66487e-05
3.66487e-05
3.66487e-05
3.66487e-05
3.66487e-05
3.66487e-05
3.66487e-05
3.66487e-05
3.66487e-05
3.66487e-05
3.66487e-05
3.66487e-05
3.66487e-05
3.66487e-05
3.66487e-05
3.66487e-05
3.66487e-05
3.66487e-05
3.66487e-05
3.66487e-05
3.66487e-05
3.66484e-05
3.66484e-05
3.66487e-05
3.66487e-05
3.66487e-05
3.66487e-05
3.66487e-05
3.66487e-05
3.66487e-05
3.66487e-05
3.66487e-05
3.66487e-05
3.66487e-05
3.66487e-05
3.66487e-05
3.66487e-05
3.66487e-05
3.66487e-05
3.66487e-05
3.66487e-05
3.66487e-05
3.66487e-05
3.66487e-05
3.66487e-05
3.66487e-05
3.66487e-05
3.66487e-05
3.66487e-05
3.66487e-05
3.66487e-05
3.66484e-05
3.66484e-05
3.66487e-05
3.66487e-05
3.66487e-05
3.66487e-05
3.66487e-05
3.66487e-05
3.66487e-05
3.66487e-05
3.66487e-05
3.66487e-05
3.66487e-05
3.66487e-05
3.66487e-05
3.66487e-05
3.66487e-05
3.66487e-05
3.66487e-05
3.66487e-05
3.66487e-05
3.66487e-05
3.66487e-05
3.66487e-05
3.66487e-05
3.66487e-05
3.66487e-05
3.66487e-05
3.66487e-05
3.66487e-05
3.66484e-05
3.66484e-05
3.66487e-05
3.66487e-05
3.66487e-05
3.66487e-05
3.66487e-05
3.66487e-05
3.66487e-05
3.66487e-05
3.66487e-05
3.66487e-05
3.66487e-05
3.66487e-05
3.66487e-05
3.66487e-05
3.66487e-05
3.66487e-05
3.66487e-05
3.66487e-05
3.66487e-05
3.66487e-05
3.66487e-05
3.66487e-05
3.66487e-05
3.66487e-05
3.66487e-05
3.66487e-05
3.66487e-05
3.66487e-05
3.66484e-05
3.66484e-05
3.66487e-05
3.66487e-05
3.66487e-05
3.66487e-05
3.66487e-05
3.66487e-05
3.66487e-05
3.66487e-05
3.66487e-05
3.66487e-05
3.66487e-05
3.66487e-05
3.66487e-05
3.66487e-05
3.66487e-05
3.66487e-05
3.66487e-05
3.66487e-05
3.66487e-05
3.66487e-05
3.66487e-05
3.66487e-05
3.66487e-05
3.66487e-05
3.66487e-05
3.66487e-05
3.66487e-05
3.66487e-05
3.66484e-05
3.66484e-05
3.66487e-05
3.66487e-05
3.66487e-05
3.66487e-05
3.66487e-05
3.66487e-05
3.66487e-05
3.66487e-05
3.66487e-05
3.66487e-05
3.66487e-05
3.66487e-05
3.66487e-05
3.66487e-05
3.66487e-05
3.66487e-05
3.66487e-05
3.66487e-05
3.66487e-05
3.66487e-05
3.66487e-05
3.66487e-05
3.66487e-05
3.66487e-05
3.66487e-05
3.66487e-05
3.66487e-05
3.66487e-05
3.66484e-05
3.66484e-05
3.66487e-05
3.66487e-05
3.66487e-05
3.66487e-05
3.66487e-05
3.66487e-05
3.66487e-05
3.66487e-05
3.66487e-05
3.66487e-05
3.66487e-05
3.66487e-05
3.66487e-05
3.66487e-05
3.66487e-05
3.66487e-05
3.66487e-05
3.66487e-05
3.66487e-05
3.66487e-05
3.66487e-05
3.66487e-05
3.66487e-05
3.66487e-05
3.66487e-05
3.66487e-05
3.66487e-05
3.66487e-05
3.66484e-05
3.66484e-05
3.66487e-05
3.66487e-05
3.66487e-05
3.66487e-05
3.66487e-05
3.66487e-05
3.66487e-05
3.66487e-05
3.66487e-05
3.66487e-05
3.66487e-05
3.66487e-05
3.66487e-05
3.66487e-05
3.66487e-05
3.66487e-05
3.66487e-05
3.66487e-05
3.66487e-05
3.66487e-05
3.66487e-05
3.66487e-05
3.66487e-05
3.66487e-05
3.66487e-05
3.66487e-05
3.66487e-05
3.66487e-05
3.66484e-05
3.66484e-05
3.66487e-05
3.66487e-05
3.66487e-05
3.66487e-05
3.66487e-05
3.66487e-05
3.66487e-05
3.66487e-05
3.66487e-05
3.66487e-05
3.66487e-05
3.66487e-05
3.66487e-05
3.66487e-05
3.66487e-05
3.66487e-05
3.66487e-05
3.66487e-05
3.66487e-05
3.66487e-05
3.66487e-05
3.66487e-05
3.66487e-05
3.66487e-05
3.66487e-05
3.66487e-05
3.66487e-05
3.66487e-05
3.66484e-05
3.66484e-05
3.66487e-05
3.66487e-05
3.66487e-05
3.66487e-05
3.66487e-05
3.66487e-05
3.66487e-05
3.66487e-05
3.66487e-05
3.66487e-05
3.66487e-05
3.66487e-05
3.66487e-05
3.66487e-05
3.66487e-05
3.66487e-05
3.66487e-05
3.66487e-05
3.66487e-05
3.66487e-05
3.66487e-05
3.66487e-05
3.66487e-05
3.66487e-05
3.66487e-05
3.66487e-05
3.66487e-05
3.66487e-05
3.66484e-05
3.66484e-05
3.66487e-05
3.66487e-05
3.66487e-05
3.66487e-05
3.66487e-05
3.66487e-05
3.66487e-05
3.66487e-05
3.66487e-05
3.66487e-05
3.66487e-05
3.66487e-05
3.66487e-05
3.66487e-05
3.66487e-05
3.66487e-05
3.66487e-05
3.66487e-05
3.66487e-05
3.66487e-05
3.66487e-05
3.66487e-05
3.66487e-05
3.66487e-05
3.66487e-05
3.66487e-05
3.66487e-05
3.66487e-05
3.66484e-05
3.66484e-05
3.66487e-05
3.66487e-05
3.66487e-05
3.66487e-05
3.66487e-05
3.66487e-05
3.66487e-05
3.66487e-05
3.66487e-05
3.66487e-05
3.66487e-05
3.66487e-05
3.66487e-05
3.66487e-05
3.66487e-05
3.66487e-05
3.66487e-05
3.66487e-05
3.66487e-05
3.66487e-05
3.66487e-05
3.66487e-05
3.66487e-05
3.66487e-05
3.66487e-05
3.66487e-05
3.66487e-05
3.66487e-05
3.66484e-05
3.66484e-05
3.66488e-05
3.66488e-05
3.66488e-05
3.66488e-05
3.66488e-05
3.66488e-05
3.66488e-05
3.66487e-05
3.66487e-05
3.66487e-05
3.66487e-05
3.66487e-05
3.66487e-05
3.66487e-05
3.66487e-05
3.66487e-05
3.66487e-05
3.66487e-05
3.66487e-05
3.66487e-05
3.66488e-05
3.66488e-05
3.66488e-05
3.66488e-05
3.66488e-05
3.66488e-05
3.66488e-05
3.66488e-05
3.66484e-05
3.66484e-05
3.66488e-05
3.66488e-05
3.66488e-05
3.66488e-05
3.66488e-05
3.66488e-05
3.66488e-05
3.66488e-05
3.66488e-05
3.66488e-05
3.66488e-05
3.66487e-05
3.66487e-05
3.66487e-05
3.66487e-05
3.66487e-05
3.66487e-05
3.66488e-05
3.66488e-05
3.66488e-05
3.66488e-05
3.66488e-05
3.66488e-05
3.66488e-05
3.66488e-05
3.66488e-05
3.66488e-05
3.66488e-05
3.66484e-05
3.66484e-05
3.66488e-05
3.66488e-05
3.66488e-05
3.66488e-05
3.66488e-05
3.66488e-05
3.66488e-05
3.66488e-05
3.66488e-05
3.66488e-05
3.66488e-05
3.66487e-05
3.66487e-05
3.66487e-05
3.66487e-05
3.66487e-05
3.66487e-05
3.66488e-05
3.66488e-05
3.66488e-05
3.66488e-05
3.66488e-05
3.66488e-05
3.66488e-05
3.66488e-05
3.66488e-05
3.66488e-05
3.66488e-05
3.66484e-05
3.66485e-05
3.66488e-05
3.66489e-05
3.66488e-05
3.66489e-05
3.66488e-05
3.66488e-05
3.66488e-05
3.66488e-05
3.66488e-05
3.66488e-05
3.66488e-05
3.66488e-05
3.66488e-05
3.66488e-05
3.66488e-05
3.66488e-05
3.66488e-05
3.66488e-05
3.66488e-05
3.66488e-05
3.66488e-05
3.66488e-05
3.66488e-05
3.66488e-05
3.66488e-05
3.66488e-05
3.66488e-05
3.66488e-05
3.66485e-05
3.66486e-05
3.66488e-05
3.66489e-05
3.66488e-05
3.66489e-05
3.66488e-05
3.66488e-05
3.66488e-05
3.66488e-05
3.66488e-05
3.66488e-05
3.66488e-05
3.66488e-05
3.66488e-05
3.66488e-05
3.66488e-05
3.66488e-05
3.66488e-05
3.66488e-05
3.66488e-05
3.66488e-05
3.66488e-05
3.66488e-05
3.66488e-05
3.66488e-05
3.66488e-05
3.66488e-05
3.66488e-05
3.66488e-05
3.66485e-05
3.66492e-05
3.66463e-05
3.66467e-05
3.66486e-05
3.66468e-05
3.66479e-05
3.66474e-05
3.66475e-05
3.66476e-05
3.66476e-05
3.66475e-05
3.66474e-05
3.66473e-05
3.66472e-05
3.6647e-05
3.6647e-05
3.66471e-05
3.66473e-05
3.66474e-05
3.66476e-05
3.66476e-05
3.66475e-05
3.66474e-05
3.66474e-05
3.66474e-05
3.66476e-05
3.66479e-05
3.66488e-05
3.66497e-05
3.66497e-05
3.67615e-05
3.67015e-05
3.67261e-05
3.68237e-05
3.69018e-05
3.69682e-05
3.70086e-05
3.70272e-05
3.7029e-05
3.70136e-05
3.69835e-05
3.69383e-05
3.68814e-05
3.68201e-05
3.67745e-05
3.67753e-05
3.68207e-05
3.68798e-05
3.6938e-05
3.69842e-05
3.70133e-05
3.7024e-05
3.70129e-05
3.69701e-05
3.68994e-05
3.68406e-05
3.67714e-05
3.6726e-05
3.67207e-05
3.67072e-05
3.69407e-05
3.71018e-05
3.71144e-05
3.72519e-05
3.7299e-05
3.73812e-05
3.7438e-05
3.74736e-05
3.7479e-05
3.74569e-05
3.7407e-05
3.73317e-05
3.72412e-05
3.71577e-05
3.71002e-05
3.71019e-05
3.71559e-05
3.72418e-05
3.73347e-05
3.74104e-05
3.74635e-05
3.74822e-05
3.74764e-05
3.74609e-05
3.74166e-05
3.7313e-05
3.72214e-05
3.70987e-05
3.69017e-05
3.67019e-05
3.71196e-05
3.72163e-05
3.72836e-05
3.73694e-05
3.74402e-05
3.75075e-05
3.75627e-05
3.75983e-05
3.76127e-05
3.76042e-05
3.75716e-05
3.7519e-05
3.74615e-05
3.74072e-05
3.73758e-05
3.73732e-05
3.74031e-05
3.74585e-05
3.75208e-05
3.75746e-05
3.76076e-05
3.76159e-05
3.76035e-05
3.75675e-05
3.75127e-05
3.74422e-05
3.73687e-05
3.73218e-05
3.73298e-05
3.71191e-05
3.74223e-05
3.74686e-05
3.75254e-05
3.75969e-05
3.76643e-05
3.77265e-05
3.77806e-05
3.78215e-05
3.78458e-05
3.78516e-05
3.7838e-05
3.78092e-05
3.77747e-05
3.77424e-05
3.77225e-05
3.77214e-05
3.77399e-05
3.7773e-05
3.78089e-05
3.78397e-05
3.78544e-05
3.78507e-05
3.78279e-05
3.7788e-05
3.77284e-05
3.7656e-05
3.75689e-05
3.74652e-05
3.74546e-05
3.73989e-05
3.76852e-05
3.77167e-05
3.7766e-05
3.78222e-05
3.78835e-05
3.79468e-05
3.80069e-05
3.80581e-05
3.80963e-05
3.81184e-05
3.81235e-05
3.81154e-05
3.81002e-05
3.80864e-05
3.80789e-05
3.80792e-05
3.80873e-05
3.81017e-05
3.8117e-05
3.8126e-05
3.81215e-05
3.81011e-05
3.80638e-05
3.80148e-05
3.79561e-05
3.78913e-05
3.78289e-05
3.77629e-05
3.77194e-05
3.76753e-05
3.79044e-05
3.79412e-05
3.79745e-05
3.80271e-05
3.8091e-05
3.81603e-05
3.82287e-05
3.82908e-05
3.83426e-05
3.83817e-05
3.84068e-05
3.84202e-05
3.84251e-05
3.84254e-05
3.84244e-05
3.84234e-05
3.84232e-05
3.84222e-05
3.84173e-05
3.84037e-05
3.83777e-05
3.83388e-05
3.82873e-05
3.82269e-05
3.81618e-05
3.80932e-05
3.8026e-05
3.79686e-05
3.79294e-05
3.79049e-05
3.815e-05
3.81572e-05
3.81935e-05
3.82478e-05
3.83143e-05
3.83879e-05
3.84637e-05
3.85369e-05
3.86038e-05
3.86612e-05
3.8707e-05
3.8741e-05
3.87645e-05
3.87793e-05
3.87866e-05
3.87872e-05
3.8781e-05
3.87673e-05
3.87446e-05
3.87109e-05
3.86649e-05
3.86072e-05
3.85393e-05
3.84648e-05
3.83889e-05
3.8315e-05
3.82454e-05
3.81864e-05
3.81443e-05
3.81206e-05
3.83257e-05
3.83312e-05
3.83744e-05
3.84323e-05
3.85029e-05
3.85828e-05
3.86681e-05
3.87546e-05
3.88383e-05
3.89153e-05
3.89824e-05
3.90372e-05
3.90784e-05
3.9106e-05
3.91197e-05
3.91196e-05
3.91053e-05
3.90769e-05
3.90347e-05
3.89792e-05
3.89116e-05
3.88342e-05
3.87499e-05
3.86626e-05
3.85773e-05
3.84988e-05
3.84299e-05
3.83741e-05
3.83347e-05
3.83141e-05
3.84828e-05
3.84989e-05
3.85432e-05
3.86021e-05
3.86754e-05
3.87605e-05
3.88539e-05
3.89519e-05
3.90503e-05
3.91446e-05
3.92305e-05
3.93039e-05
3.93615e-05
3.9401e-05
3.94209e-05
3.94204e-05
3.93992e-05
3.93583e-05
3.92994e-05
3.9225e-05
3.91385e-05
3.90437e-05
3.89448e-05
3.88462e-05
3.87525e-05
3.86683e-05
3.85971e-05
3.85415e-05
3.85035e-05
3.84848e-05
3.86247e-05
3.86485e-05
3.86905e-05
3.87491e-05
3.88238e-05
3.89122e-05
3.90115e-05
3.91181e-05
3.92276e-05
3.93351e-05
3.94356e-05
3.95236e-05
3.95944e-05
3.96439e-05
3.96693e-05
3.96691e-05
3.96432e-05
3.95931e-05
3.95217e-05
3.94332e-05
3.93323e-05
3.92243e-05
3.91143e-05
3.90069e-05
3.89066e-05
3.88175e-05
3.87428e-05
3.8685e-05
3.86458e-05
3.8626e-05
3.87309e-05
3.87571e-05
3.87969e-05
3.88548e-05
3.89299e-05
3.902e-05
3.91226e-05
3.92342e-05
3.93504e-05
3.94662e-05
3.95759e-05
3.96734e-05
3.97527e-05
3.98089e-05
3.9838e-05
3.98382e-05
3.98093e-05
3.97534e-05
3.96742e-05
3.95767e-05
3.94669e-05
3.93507e-05
3.9234e-05
3.91216e-05
3.90178e-05
3.89262e-05
3.88497e-05
3.87906e-05
3.87502e-05
3.87281e-05
3.87903e-05
3.8816e-05
3.88541e-05
3.89109e-05
3.89849e-05
3.90744e-05
3.91769e-05
3.92891e-05
3.94068e-05
3.95248e-05
3.96373e-05
3.97379e-05
3.98202e-05
3.98786e-05
3.99091e-05
3.99093e-05
3.98794e-05
3.98215e-05
3.97396e-05
3.96393e-05
3.95268e-05
3.94087e-05
3.92906e-05
3.91778e-05
3.90744e-05
3.89836e-05
3.89081e-05
3.88496e-05
3.88097e-05
3.87863e-05
3.88037e-05
3.88278e-05
3.8864e-05
3.89182e-05
3.89889e-05
3.90745e-05
3.91726e-05
3.92799e-05
3.93926e-05
3.95056e-05
3.96133e-05
3.97096e-05
3.97883e-05
3.98442e-05
3.98733e-05
3.98735e-05
3.98449e-05
3.97894e-05
3.9711e-05
3.9615e-05
3.95075e-05
3.93944e-05
3.92816e-05
3.91739e-05
3.90753e-05
3.8989e-05
3.89172e-05
3.88619e-05
3.88241e-05
3.88008e-05
3.87765e-05
3.87987e-05
3.88321e-05
3.88821e-05
3.89472e-05
3.90257e-05
3.91152e-05
3.92128e-05
3.93146e-05
3.94161e-05
3.95122e-05
3.95976e-05
3.96671e-05
3.97163e-05
3.97418e-05
3.97419e-05
3.97167e-05
3.96677e-05
3.95984e-05
3.95132e-05
3.94172e-05
3.93157e-05
3.92139e-05
3.91163e-05
3.90265e-05
3.89477e-05
3.88821e-05
3.88315e-05
3.87972e-05
3.87751e-05
3.8715e-05
3.8735e-05
3.87647e-05
3.88091e-05
3.88666e-05
3.89353e-05
3.90129e-05
3.90966e-05
3.91828e-05
3.92676e-05
3.93468e-05
3.94162e-05
3.94722e-05
3.95114e-05
3.95316e-05
3.95316e-05
3.95115e-05
3.94723e-05
3.94165e-05
3.93471e-05
3.9268e-05
3.91833e-05
3.90971e-05
3.90135e-05
3.89358e-05
3.8867e-05
3.88094e-05
3.87648e-05
3.87346e-05
3.87144e-05
3.86249e-05
3.86425e-05
3.86678e-05
3.87056e-05
3.8754e-05
3.88111e-05
3.88746e-05
3.89417e-05
3.90094e-05
3.90743e-05
3.91333e-05
3.91837e-05
3.92233e-05
3.92505e-05
3.92644e-05
3.92644e-05
3.92505e-05
3.92232e-05
3.91836e-05
3.91332e-05
3.90742e-05
3.90094e-05
3.89418e-05
3.88747e-05
3.88112e-05
3.87541e-05
3.87058e-05
3.8668e-05
3.86425e-05
3.86247e-05
3.85119e-05
3.85269e-05
3.85476e-05
3.85782e-05
3.86169e-05
3.86616e-05
3.87101e-05
3.87596e-05
3.88076e-05
3.88515e-05
3.88894e-05
3.89198e-05
3.89423e-05
3.89569e-05
3.89641e-05
3.8964e-05
3.89568e-05
3.8942e-05
3.89195e-05
3.8889e-05
3.88512e-05
3.88073e-05
3.87593e-05
3.87098e-05
3.86614e-05
3.86168e-05
3.85783e-05
3.85477e-05
3.85271e-05
3.85118e-05
3.83819e-05
3.83945e-05
3.84105e-05
3.8434e-05
3.84629e-05
3.84954e-05
3.8529e-05
3.85615e-05
3.85905e-05
3.86143e-05
3.86319e-05
3.86433e-05
3.86496e-05
3.86522e-05
3.8653e-05
3.8653e-05
3.86521e-05
3.86493e-05
3.8643e-05
3.86315e-05
3.86139e-05
3.859e-05
3.8561e-05
3.85285e-05
3.8495e-05
3.84626e-05
3.84338e-05
3.84105e-05
3.83947e-05
3.83819e-05
3.82409e-05
3.82512e-05
3.82628e-05
3.82795e-05
3.82994e-05
3.83204e-05
3.83405e-05
3.83575e-05
3.83696e-05
3.83756e-05
3.83754e-05
3.83701e-05
3.83622e-05
3.83544e-05
3.83497e-05
3.83496e-05
3.83543e-05
3.8362e-05
3.83698e-05
3.8375e-05
3.83751e-05
3.83691e-05
3.8357e-05
3.834e-05
3.83199e-05
3.82989e-05
3.82792e-05
3.82626e-05
3.82512e-05
3.8241e-05
3.80943e-05
3.81026e-05
3.81101e-05
3.81208e-05
3.81326e-05
3.81437e-05
3.81521e-05
3.8156e-05
3.81539e-05
3.81453e-05
3.81306e-05
3.81119e-05
3.80925e-05
3.80763e-05
3.80671e-05
3.80671e-05
3.80762e-05
3.80923e-05
3.81117e-05
3.81303e-05
3.81449e-05
3.81535e-05
3.81556e-05
3.81516e-05
3.81432e-05
3.81321e-05
3.81204e-05
3.81098e-05
3.81023e-05
3.80943e-05
3.79468e-05
3.79533e-05
3.79573e-05
3.79628e-05
3.79679e-05
3.79708e-05
3.79699e-05
3.79634e-05
3.79504e-05
3.79306e-05
3.7905e-05
3.78763e-05
3.78484e-05
3.78259e-05
3.78134e-05
3.78134e-05
3.78259e-05
3.78483e-05
3.78762e-05
3.79048e-05
3.79303e-05
3.79501e-05
3.79631e-05
3.79695e-05
3.79705e-05
3.79675e-05
3.79624e-05
3.7957e-05
3.79529e-05
3.79468e-05
3.78025e-05
3.78073e-05
3.78086e-05
3.78099e-05
3.78097e-05
3.78063e-05
3.77982e-05
3.77842e-05
3.77633e-05
3.77357e-05
3.77028e-05
3.76674e-05
3.76337e-05
3.76071e-05
3.75922e-05
3.75922e-05
3.7607e-05
3.76336e-05
3.76672e-05
3.77026e-05
3.77356e-05
3.77631e-05
3.7784e-05
3.7798e-05
3.7806e-05
3.78093e-05
3.78096e-05
3.78082e-05
3.78068e-05
3.78024e-05
3.76645e-05
3.76679e-05
3.7667e-05
3.76652e-05
3.7661e-05
3.76531e-05
3.76401e-05
3.76209e-05
3.75951e-05
3.75628e-05
3.75255e-05
3.74862e-05
3.74494e-05
3.74203e-05
3.7404e-05
3.7404e-05
3.74201e-05
3.74492e-05
3.74861e-05
3.75253e-05
3.75626e-05
3.75949e-05
3.76208e-05
3.76399e-05
3.76529e-05
3.76608e-05
3.76649e-05
3.76667e-05
3.76674e-05
3.76643e-05
3.75352e-05
3.75374e-05
3.7535e-05
3.7531e-05
3.75241e-05
3.75132e-05
3.74971e-05
3.7475e-05
3.74465e-05
3.74119e-05
3.73729e-05
3.73321e-05
3.7294e-05
3.72639e-05
3.72471e-05
3.72471e-05
3.72638e-05
3.72938e-05
3.73319e-05
3.73726e-05
3.74117e-05
3.74462e-05
3.74748e-05
3.74969e-05
3.7513e-05
3.75239e-05
3.75308e-05
3.75347e-05
3.7537e-05
3.7535e-05
3.74162e-05
3.74175e-05
3.74141e-05
3.74087e-05
3.74001e-05
3.73874e-05
3.73698e-05
3.73464e-05
3.73171e-05
3.72823e-05
3.72434e-05
3.7203e-05
3.71652e-05
3.71352e-05
3.71184e-05
3.71183e-05
3.7135e-05
3.71649e-05
3.72026e-05
3.7243e-05
3.72819e-05
3.73168e-05
3.73461e-05
3.73695e-05
3.73872e-05
3.73998e-05
3.74084e-05
3.74138e-05
3.74171e-05
3.74159e-05
3.73082e-05
3.73089e-05
3.7305e-05
3.72987e-05
3.72893e-05
3.72759e-05
3.72578e-05
3.72345e-05
3.72058e-05
3.71722e-05
3.71348e-05
3.70961e-05
3.70597e-05
3.70306e-05
3.70142e-05
3.70141e-05
3.70304e-05
3.70594e-05
3.70956e-05
3.71343e-05
3.71717e-05
3.72054e-05
3.72342e-05
3.72575e-05
3.72756e-05
3.7289e-05
3.72984e-05
3.73046e-05
3.73085e-05
3.73079e-05
3.72116e-05
3.72119e-05
3.72077e-05
3.72012e-05
3.71915e-05
3.71782e-05
3.71605e-05
3.71382e-05
3.7111e-05
3.70794e-05
3.70445e-05
3.70083e-05
3.69742e-05
3.69466e-05
3.69309e-05
3.69308e-05
3.69464e-05
3.69738e-05
3.70079e-05
3.7044e-05
3.70789e-05
3.71105e-05
3.71377e-05
3.71601e-05
3.71778e-05
3.71911e-05
3.72008e-05
3.72073e-05
3.72115e-05
3.72113e-05
3.71261e-05
3.71262e-05
3.7122e-05
3.71155e-05
3.71061e-05
3.70933e-05
3.70766e-05
3.70558e-05
3.70308e-05
3.70019e-05
3.697e-05
3.69369e-05
3.69054e-05
3.68797e-05
3.68648e-05
3.68647e-05
3.68794e-05
3.69051e-05
3.69365e-05
3.69695e-05
3.70014e-05
3.70303e-05
3.70553e-05
3.70761e-05
3.70928e-05
3.71056e-05
3.7115e-05
3.71215e-05
3.71257e-05
3.71257e-05
3.70511e-05
3.70512e-05
3.70471e-05
3.70409e-05
3.7032e-05
3.70201e-05
3.70048e-05
3.69859e-05
3.69633e-05
3.69374e-05
3.69089e-05
3.68791e-05
3.68505e-05
3.68268e-05
3.68128e-05
3.68127e-05
3.68265e-05
3.68502e-05
3.68787e-05
3.69084e-05
3.69369e-05
3.69628e-05
3.69854e-05
3.70043e-05
3.70196e-05
3.70315e-05
3.70404e-05
3.70466e-05
3.70505e-05
3.70507e-05
3.69859e-05
3.6986e-05
3.69822e-05
3.69764e-05
3.69683e-05
3.69575e-05
3.69437e-05
3.69269e-05
3.69069e-05
3.68841e-05
3.68589e-05
3.68326e-05
3.6807e-05
3.67853e-05
3.67721e-05
3.67721e-05
3.67851e-05
3.68067e-05
3.68322e-05
3.68585e-05
3.68836e-05
3.69065e-05
3.69264e-05
3.69432e-05
3.69569e-05
3.69677e-05
3.69758e-05
3.69816e-05
3.69853e-05
3.69855e-05
3.69295e-05
3.69297e-05
3.69263e-05
3.69211e-05
3.69138e-05
3.69042e-05
3.68921e-05
3.68774e-05
3.686e-05
3.68402e-05
3.68184e-05
3.67954e-05
3.67728e-05
3.67531e-05
3.67407e-05
3.67407e-05
3.6753e-05
3.67725e-05
3.67951e-05
3.6818e-05
3.68398e-05
3.68596e-05
3.68769e-05
3.68916e-05
3.69037e-05
3.69132e-05
3.69205e-05
3.69256e-05
3.6929e-05
3.69291e-05
3.68812e-05
3.68815e-05
3.68784e-05