/*--------------------------------*- C++ -*----------------------------------*\
| =========                 |                                                 |
| \\      /  F ield         | OpenFOAM: The Open Source CFD Toolbox           |
|  \\    /   O peration     | Version:  2312                                  |
|   \\  /    A nd           | Website:  www.openfoam.com                      |
|    \\/     M anipulation  |                                                 |
\*---------------------------------------------------------------------------*/
FoamFile
{
    version     2.0;
    format      ascii;
    arch        "LSB;label=32;scalar=64";
    class       volScalarField;
    location    "0.0470981";
    object      nut;
}
// * * * * * * * * * * * * * * * * * * * * * * * * * * * * * * * * * * * * * //

dimensions      [0 2 -1 0 0 0 0];

internalField   nonuniform List<scalar> 
90000
(
6.75816e-06
6.75816e-06
6.75816e-06
6.75816e-06
6.75816e-06
6.75816e-06
6.75816e-06
6.75816e-06
6.75816e-06
6.75816e-06
6.75816e-06
6.75816e-06
6.75816e-06
6.75816e-06
6.75816e-06
6.75816e-06
6.75816e-06
6.75816e-06
6.75816e-06
6.75816e-06
6.75816e-06
6.75816e-06
6.75816e-06
6.75816e-06
6.75816e-06
6.75816e-06
6.75816e-06
6.75816e-06
6.75816e-06
6.75816e-06
6.75816e-06
6.75822e-06
6.75822e-06
6.75822e-06
6.75822e-06
6.75822e-06
6.75823e-06
6.75823e-06
6.75823e-06
6.75823e-06
6.75823e-06
6.75823e-06
6.75823e-06
6.75823e-06
6.75823e-06
6.75823e-06
6.75823e-06
6.75823e-06
6.75823e-06
6.75823e-06
6.75823e-06
6.75823e-06
6.75823e-06
6.75823e-06
6.75823e-06
6.75823e-06
6.75823e-06
6.75823e-06
6.75822e-06
6.75816e-06
6.75816e-06
6.75823e-06
6.75823e-06
6.75823e-06
6.75823e-06
6.75823e-06
6.75823e-06
6.75823e-06
6.75823e-06
6.75823e-06
6.75823e-06
6.75823e-06
6.75823e-06
6.75823e-06
6.75823e-06
6.75823e-06
6.75823e-06
6.75823e-06
6.75823e-06
6.75823e-06
6.75823e-06
6.75823e-06
6.75823e-06
6.75823e-06
6.75823e-06
6.75823e-06
6.75823e-06
6.75823e-06
6.75823e-06
6.75816e-06
6.75816e-06
6.75823e-06
6.75823e-06
6.75823e-06
6.75823e-06
6.75823e-06
6.75823e-06
6.75823e-06
6.75823e-06
6.75823e-06
6.75823e-06
6.75823e-06
6.75823e-06
6.75823e-06
6.75823e-06
6.75823e-06
6.75823e-06
6.75823e-06
6.75823e-06
6.75823e-06
6.75823e-06
6.75823e-06
6.75823e-06
6.75823e-06
6.75823e-06
6.75823e-06
6.75823e-06
6.75823e-06
6.75823e-06
6.75816e-06
6.75816e-06
6.75823e-06
6.75823e-06
6.75823e-06
6.75823e-06
6.75823e-06
6.75823e-06
6.75823e-06
6.75823e-06
6.75823e-06
6.75823e-06
6.75823e-06
6.75823e-06
6.75823e-06
6.75823e-06
6.75823e-06
6.75823e-06
6.75823e-06
6.75823e-06
6.75823e-06
6.75823e-06
6.75823e-06
6.75823e-06
6.75823e-06
6.75823e-06
6.75823e-06
6.75823e-06
6.75823e-06
6.75823e-06
6.75816e-06
6.75816e-06
6.75823e-06
6.75823e-06
6.75823e-06
6.75823e-06
6.75823e-06
6.75823e-06
6.75823e-06
6.75823e-06
6.75823e-06
6.75823e-06
6.75823e-06
6.75823e-06
6.75823e-06
6.75823e-06
6.75823e-06
6.75823e-06
6.75823e-06
6.75823e-06
6.75823e-06
6.75823e-06
6.75823e-06
6.75823e-06
6.75823e-06
6.75823e-06
6.75823e-06
6.75823e-06
6.75823e-06
6.75823e-06
6.75816e-06
6.75816e-06
6.75823e-06
6.75823e-06
6.75823e-06
6.75823e-06
6.75823e-06
6.75823e-06
6.75823e-06
6.75823e-06
6.75823e-06
6.75823e-06
6.75823e-06
6.75823e-06
6.75823e-06
6.75823e-06
6.75823e-06
6.75823e-06
6.75823e-06
6.75823e-06
6.75823e-06
6.75823e-06
6.75823e-06
6.75823e-06
6.75823e-06
6.75823e-06
6.75823e-06
6.75823e-06
6.75823e-06
6.75823e-06
6.75816e-06
6.75816e-06
6.75823e-06
6.75823e-06
6.75823e-06
6.75823e-06
6.75823e-06
6.75823e-06
6.75823e-06
6.75823e-06
6.75823e-06
6.75823e-06
6.75823e-06
6.75823e-06
6.75823e-06
6.75823e-06
6.75823e-06
6.75823e-06
6.75823e-06
6.75823e-06
6.75823e-06
6.75823e-06
6.75823e-06
6.75823e-06
6.75823e-06
6.75823e-06
6.75823e-06
6.75823e-06
6.75823e-06
6.75823e-06
6.75816e-06
6.75816e-06
6.75823e-06
6.75823e-06
6.75823e-06
6.75823e-06
6.75823e-06
6.75823e-06
6.75823e-06
6.75823e-06
6.75823e-06
6.75823e-06
6.75823e-06
6.75823e-06
6.75823e-06
6.75823e-06
6.75823e-06
6.75823e-06
6.75823e-06
6.75823e-06
6.75823e-06
6.75823e-06
6.75823e-06
6.75823e-06
6.75823e-06
6.75823e-06
6.75823e-06
6.75823e-06
6.75823e-06
6.75823e-06
6.75816e-06
6.75816e-06
6.75823e-06
6.75823e-06
6.75823e-06
6.75823e-06
6.75823e-06
6.75823e-06
6.75823e-06
6.75823e-06
6.75823e-06
6.75823e-06
6.75823e-06
6.75823e-06
6.75823e-06
6.75823e-06
6.75823e-06
6.75823e-06
6.75823e-06
6.75823e-06
6.75823e-06
6.75823e-06
6.75823e-06
6.75823e-06
6.75823e-06
6.75823e-06
6.75823e-06
6.75823e-06
6.75823e-06
6.75823e-06
6.75816e-06
6.75816e-06
6.75823e-06
6.75823e-06
6.75823e-06
6.75823e-06
6.75823e-06
6.75823e-06
6.75823e-06
6.75823e-06
6.75823e-06
6.75823e-06
6.75823e-06
6.75823e-06
6.75823e-06
6.75823e-06
6.75823e-06
6.75823e-06
6.75823e-06
6.75823e-06
6.75823e-06
6.75823e-06
6.75823e-06
6.75823e-06
6.75823e-06
6.75823e-06
6.75823e-06
6.75823e-06
6.75823e-06
6.75823e-06
6.75816e-06
6.75816e-06
6.75823e-06
6.75823e-06
6.75823e-06
6.75823e-06
6.75823e-06
6.75823e-06
6.75823e-06
6.75823e-06
6.75823e-06
6.75823e-06
6.75823e-06
6.75823e-06
6.75823e-06
6.75823e-06
6.75823e-06
6.75823e-06
6.75823e-06
6.75823e-06
6.75823e-06
6.75823e-06
6.75823e-06
6.75823e-06
6.75823e-06
6.75823e-06
6.75823e-06
6.75823e-06
6.75823e-06
6.75823e-06
6.75816e-06
6.75816e-06
6.75823e-06
6.75823e-06
6.75823e-06
6.75823e-06
6.75823e-06
6.75823e-06
6.75823e-06
6.75823e-06
6.75823e-06
6.75823e-06
6.75823e-06
6.75823e-06
6.75823e-06
6.75823e-06
6.75823e-06
6.75823e-06
6.75823e-06
6.75823e-06
6.75823e-06
6.75823e-06
6.75823e-06
6.75823e-06
6.75823e-06
6.75823e-06
6.75823e-06
6.75823e-06
6.75823e-06
6.75823e-06
6.75816e-06
6.75816e-06
6.75823e-06
6.75823e-06
6.75823e-06
6.75823e-06
6.75823e-06
6.75823e-06
6.75823e-06
6.75823e-06
6.75823e-06
6.75823e-06
6.75823e-06
6.75823e-06
6.75823e-06
6.75823e-06
6.75823e-06
6.75823e-06
6.75823e-06
6.75823e-06
6.75823e-06
6.75823e-06
6.75823e-06
6.75823e-06
6.75823e-06
6.75823e-06
6.75823e-06
6.75823e-06
6.75823e-06
6.75823e-06
6.75816e-06
6.75816e-06
6.75823e-06
6.75823e-06
6.75823e-06
6.75823e-06
6.75823e-06
6.75823e-06
6.75823e-06
6.75823e-06
6.75823e-06
6.75823e-06
6.75823e-06
6.75823e-06
6.75823e-06
6.75823e-06
6.75823e-06
6.75823e-06
6.75823e-06
6.75823e-06
6.75823e-06
6.75823e-06
6.75823e-06
6.75823e-06
6.75823e-06
6.75823e-06
6.75823e-06
6.75823e-06
6.75823e-06
6.75823e-06
6.75816e-06
6.75816e-06
6.75823e-06
6.75823e-06
6.75823e-06
6.75823e-06
6.75823e-06
6.75823e-06
6.75823e-06
6.75823e-06
6.75823e-06
6.75823e-06
6.75823e-06
6.75823e-06
6.75823e-06
6.75823e-06
6.75823e-06
6.75823e-06
6.75823e-06
6.75823e-06
6.75823e-06
6.75823e-06
6.75823e-06
6.75823e-06
6.75823e-06
6.75823e-06
6.75823e-06
6.75823e-06
6.75823e-06
6.75823e-06
6.75816e-06
6.75816e-06
6.75823e-06
6.75823e-06
6.75823e-06
6.75823e-06
6.75823e-06
6.75823e-06
6.75823e-06
6.75823e-06
6.75823e-06
6.75823e-06
6.75823e-06
6.75823e-06
6.75823e-06
6.75823e-06
6.75823e-06
6.75823e-06
6.75823e-06
6.75823e-06
6.75823e-06
6.75823e-06
6.75823e-06
6.75823e-06
6.75823e-06
6.75823e-06
6.75823e-06
6.75823e-06
6.75823e-06
6.75823e-06
6.75816e-06
6.75816e-06
6.75823e-06
6.75823e-06
6.75823e-06
6.75823e-06
6.75823e-06
6.75823e-06
6.75823e-06
6.75823e-06
6.75823e-06
6.75823e-06
6.75823e-06
6.75823e-06
6.75823e-06
6.75823e-06
6.75823e-06
6.75823e-06
6.75823e-06
6.75823e-06
6.75823e-06
6.75823e-06
6.75823e-06
6.75823e-06
6.75823e-06
6.75823e-06
6.75823e-06
6.75823e-06
6.75823e-06
6.75823e-06
6.75816e-06
6.75816e-06
6.75823e-06
6.75823e-06
6.75823e-06
6.75823e-06
6.75823e-06
6.75823e-06
6.75823e-06
6.75823e-06
6.75823e-06
6.75823e-06
6.75823e-06
6.75823e-06
6.75823e-06
6.75823e-06
6.75823e-06
6.75823e-06
6.75823e-06
6.75823e-06
6.75823e-06
6.75823e-06
6.75823e-06
6.75823e-06
6.75823e-06
6.75823e-06
6.75823e-06
6.75823e-06
6.75823e-06
6.75823e-06
6.75816e-06
6.75816e-06
6.75823e-06
6.75823e-06
6.75823e-06
6.75823e-06
6.75823e-06
6.75823e-06
6.75823e-06
6.75823e-06
6.75823e-06
6.75823e-06
6.75823e-06
6.75823e-06
6.75823e-06
6.75823e-06
6.75823e-06
6.75823e-06
6.75823e-06
6.75823e-06
6.75823e-06
6.75823e-06
6.75823e-06
6.75823e-06
6.75823e-06
6.75823e-06
6.75823e-06
6.75823e-06
6.75823e-06
6.75823e-06
6.75816e-06
6.75816e-06
6.75823e-06
6.75823e-06
6.75823e-06
6.75823e-06
6.75823e-06
6.75823e-06
6.75823e-06
6.75823e-06
6.75823e-06
6.75823e-06
6.75823e-06
6.75823e-06
6.75823e-06
6.75823e-06
6.75823e-06
6.75823e-06
6.75823e-06
6.75823e-06
6.75823e-06
6.75823e-06
6.75823e-06
6.75823e-06
6.75823e-06
6.75823e-06
6.75823e-06
6.75823e-06
6.75823e-06
6.75823e-06
6.75816e-06
6.75816e-06
6.75823e-06
6.75823e-06
6.75823e-06
6.75823e-06
6.75823e-06
6.75823e-06
6.75823e-06
6.75823e-06
6.75823e-06
6.75823e-06
6.75823e-06
6.75823e-06
6.75823e-06
6.75823e-06
6.75823e-06
6.75823e-06
6.75823e-06
6.75823e-06
6.75823e-06
6.75823e-06
6.75823e-06
6.75823e-06
6.75823e-06
6.75823e-06
6.75823e-06
6.75823e-06
6.75823e-06
6.75823e-06
6.75816e-06
6.75816e-06
6.75823e-06
6.75823e-06
6.75823e-06
6.75823e-06
6.75823e-06
6.75823e-06
6.75823e-06
6.75823e-06
6.75823e-06
6.75823e-06
6.75823e-06
6.75823e-06
6.75823e-06
6.75823e-06
6.75823e-06
6.75823e-06
6.75823e-06
6.75823e-06
6.75823e-06
6.75823e-06
6.75823e-06
6.75823e-06
6.75823e-06
6.75823e-06
6.75823e-06
6.75823e-06
6.75823e-06
6.75823e-06
6.75816e-06
6.75816e-06
6.75823e-06
6.75823e-06
6.75823e-06
6.75823e-06
6.75823e-06
6.75823e-06
6.75823e-06
6.75823e-06
6.75823e-06
6.75823e-06
6.75823e-06
6.75823e-06
6.75823e-06
6.75823e-06
6.75823e-06
6.75823e-06
6.75823e-06
6.75823e-06
6.75823e-06
6.75823e-06
6.75823e-06
6.75823e-06
6.75823e-06
6.75823e-06
6.75823e-06
6.75823e-06
6.75823e-06
6.75823e-06
6.75816e-06
6.75816e-06
6.75823e-06
6.75823e-06
6.75823e-06
6.75823e-06
6.75823e-06
6.75823e-06
6.75823e-06
6.75823e-06
6.75823e-06
6.75823e-06
6.75823e-06
6.75823e-06
6.75823e-06
6.75823e-06
6.75823e-06
6.75823e-06
6.75823e-06
6.75823e-06
6.75823e-06
6.75823e-06
6.75823e-06
6.75823e-06
6.75823e-06
6.75823e-06
6.75823e-06
6.75823e-06
6.75823e-06
6.75823e-06
6.75816e-06
6.75816e-06
6.75823e-06
6.75823e-06
6.75823e-06
6.75823e-06
6.75823e-06
6.75823e-06
6.75823e-06
6.75823e-06
6.75823e-06
6.75823e-06
6.75823e-06
6.75823e-06
6.75823e-06
6.75823e-06
6.75823e-06
6.75823e-06
6.75823e-06
6.75823e-06
6.75823e-06
6.75823e-06
6.75823e-06
6.75823e-06
6.75823e-06
6.75823e-06
6.75823e-06
6.75823e-06
6.75823e-06
6.75823e-06
6.75816e-06
6.75816e-06
6.75823e-06
6.75823e-06
6.75823e-06
6.75823e-06
6.75823e-06
6.75823e-06
6.75823e-06
6.75823e-06
6.75823e-06
6.75823e-06
6.75823e-06
6.75823e-06
6.75823e-06
6.75823e-06
6.75823e-06
6.75823e-06
6.75823e-06
6.75823e-06
6.75823e-06
6.75823e-06
6.75823e-06
6.75823e-06
6.75823e-06
6.75823e-06
6.75823e-06
6.75823e-06
6.75823e-06
6.75823e-06
6.75816e-06
6.75816e-06
6.75823e-06
6.75823e-06
6.75823e-06
6.75823e-06
6.75823e-06
6.75823e-06
6.75823e-06
6.75823e-06
6.75823e-06
6.75823e-06
6.75823e-06
6.75823e-06
6.75823e-06
6.75823e-06
6.75823e-06
6.75823e-06
6.75823e-06
6.75823e-06
6.75823e-06
6.75823e-06
6.75823e-06
6.75823e-06
6.75823e-06
6.75823e-06
6.75823e-06
6.75823e-06
6.75823e-06
6.75823e-06
6.75816e-06
6.75816e-06
6.75823e-06
6.75823e-06
6.75823e-06
6.75823e-06
6.75823e-06
6.75823e-06
6.75823e-06
6.75823e-06
6.75823e-06
6.75823e-06
6.75823e-06
6.75823e-06
6.75823e-06
6.75823e-06
6.75823e-06
6.75823e-06
6.75823e-06
6.75823e-06
6.75823e-06
6.75823e-06
6.75823e-06
6.75823e-06
6.75823e-06
6.75823e-06
6.75823e-06
6.75823e-06
6.75823e-06
6.75823e-06
6.75817e-06
6.75817e-06
6.75823e-06
6.75823e-06
6.75823e-06
6.75823e-06
6.75823e-06
6.75823e-06
6.75823e-06
6.75823e-06
6.75823e-06
6.75823e-06
6.75823e-06
6.75823e-06
6.75823e-06
6.75823e-06
6.75823e-06
6.75823e-06
6.75823e-06
6.75823e-06
6.75823e-06
6.75823e-06
6.75823e-06
6.75823e-06
6.75823e-06
6.75823e-06
6.75823e-06
6.75823e-06
6.75823e-06
6.75823e-06
6.75817e-06
6.75817e-06
6.75823e-06
6.75823e-06
6.75823e-06
6.75823e-06
6.75823e-06
6.75823e-06
6.75823e-06
6.75823e-06
6.75823e-06
6.75823e-06
6.75823e-06
6.75823e-06
6.75823e-06
6.75823e-06
6.75823e-06
6.75823e-06
6.75823e-06
6.75823e-06
6.75823e-06
6.75823e-06
6.75823e-06
6.75823e-06
6.75823e-06
6.75823e-06
6.75823e-06
6.75823e-06
6.75823e-06
6.75823e-06
6.75817e-06
6.75817e-06
6.75823e-06
6.75823e-06
6.75823e-06
6.75823e-06
6.75823e-06
6.75823e-06
6.75823e-06
6.75823e-06
6.75823e-06
6.75823e-06
6.75823e-06
6.75823e-06
6.75823e-06
6.75823e-06
6.75823e-06
6.75823e-06
6.75823e-06
6.75823e-06
6.75823e-06
6.75823e-06
6.75823e-06
6.75823e-06
6.75823e-06
6.75823e-06
6.75823e-06
6.75823e-06
6.75823e-06
6.75823e-06
6.75817e-06
6.75817e-06
6.75823e-06
6.75823e-06
6.75823e-06
6.75823e-06
6.75823e-06
6.75823e-06
6.75823e-06
6.75823e-06
6.75823e-06
6.75823e-06
6.75823e-06
6.75823e-06
6.75823e-06
6.75823e-06
6.75823e-06
6.75823e-06
6.75823e-06
6.75823e-06
6.75823e-06
6.75823e-06
6.75823e-06
6.75823e-06
6.75823e-06
6.75823e-06
6.75823e-06
6.75823e-06
6.75823e-06
6.75823e-06
6.75817e-06
6.75817e-06
6.75823e-06
6.75823e-06
6.75823e-06
6.75823e-06
6.75823e-06
6.75823e-06
6.75823e-06
6.75823e-06
6.75823e-06
6.75823e-06
6.75823e-06
6.75823e-06
6.75823e-06
6.75823e-06
6.75823e-06
6.75823e-06
6.75823e-06
6.75823e-06
6.75823e-06
6.75823e-06
6.75823e-06
6.75823e-06
6.75823e-06
6.75823e-06
6.75823e-06
6.75823e-06
6.75823e-06
6.75823e-06
6.75817e-06
6.75817e-06
6.75823e-06
6.75823e-06
6.75823e-06
6.75823e-06
6.75823e-06
6.75823e-06
6.75823e-06
6.75823e-06
6.75823e-06
6.75823e-06
6.75823e-06
6.75823e-06
6.75823e-06
6.75823e-06
6.75823e-06
6.75823e-06
6.75823e-06
6.75823e-06
6.75823e-06
6.75823e-06
6.75823e-06
6.75823e-06
6.75823e-06
6.75823e-06
6.75823e-06
6.75823e-06
6.75823e-06
6.75823e-06
6.75817e-06
6.75817e-06
6.75823e-06
6.75823e-06
6.75823e-06
6.75823e-06
6.75823e-06
6.75823e-06
6.75823e-06
6.75823e-06
6.75823e-06
6.75823e-06
6.75823e-06
6.75823e-06
6.75823e-06
6.75823e-06
6.75823e-06
6.75823e-06
6.75823e-06
6.75823e-06
6.75823e-06
6.75823e-06
6.75823e-06
6.75823e-06
6.75823e-06
6.75823e-06
6.75823e-06
6.75823e-06
6.75823e-06
6.75823e-06
6.75817e-06
6.75817e-06
6.75823e-06
6.75823e-06
6.75823e-06
6.75823e-06
6.75823e-06
6.75823e-06
6.75823e-06
6.75823e-06
6.75823e-06
6.75823e-06
6.75823e-06
6.75823e-06
6.75823e-06
6.75823e-06
6.75823e-06
6.75823e-06
6.75823e-06
6.75823e-06
6.75823e-06
6.75823e-06
6.75823e-06
6.75823e-06
6.75823e-06
6.75823e-06
6.75823e-06
6.75823e-06
6.75823e-06
6.75823e-06
6.75817e-06
6.75817e-06
6.75823e-06
6.75823e-06
6.75823e-06
6.75823e-06
6.75823e-06
6.75823e-06
6.75823e-06
6.75823e-06
6.75823e-06
6.75823e-06
6.75823e-06
6.75823e-06
6.75823e-06
6.75823e-06
6.75823e-06
6.75823e-06
6.75823e-06
6.75823e-06
6.75823e-06
6.75823e-06
6.75823e-06
6.75823e-06
6.75823e-06
6.75823e-06
6.75823e-06
6.75823e-06
6.75823e-06
6.75823e-06
6.75817e-06
6.75817e-06
6.75823e-06
6.75823e-06
6.75823e-06
6.75823e-06
6.75823e-06
6.75823e-06
6.75823e-06
6.75823e-06
6.75823e-06
6.75823e-06
6.75823e-06
6.75823e-06
6.75823e-06
6.75823e-06
6.75823e-06
6.75823e-06
6.75823e-06
6.75823e-06
6.75823e-06
6.75823e-06
6.75823e-06
6.75823e-06
6.75823e-06
6.75823e-06
6.75823e-06
6.75823e-06
6.75823e-06
6.75823e-06
6.75817e-06
6.75817e-06
6.75823e-06
6.75823e-06
6.75823e-06
6.75823e-06
6.75823e-06
6.75823e-06
6.75823e-06
6.75823e-06
6.75823e-06
6.75823e-06
6.75823e-06
6.75823e-06
6.75823e-06
6.75823e-06
6.75823e-06
6.75823e-06
6.75823e-06
6.75823e-06
6.75823e-06
6.75823e-06
6.75823e-06
6.75823e-06
6.75823e-06
6.75823e-06
6.75823e-06
6.75823e-06
6.75823e-06
6.75823e-06
6.75817e-06
6.75817e-06
6.75823e-06
6.75823e-06
6.75823e-06
6.75823e-06
6.75823e-06
6.75823e-06
6.75823e-06
6.75823e-06
6.75823e-06
6.75823e-06
6.75823e-06
6.75823e-06
6.75823e-06
6.75823e-06
6.75823e-06
6.75823e-06
6.75823e-06
6.75823e-06
6.75823e-06
6.75823e-06
6.75823e-06
6.75823e-06
6.75823e-06
6.75823e-06
6.75823e-06
6.75823e-06
6.75823e-06
6.75823e-06
6.75817e-06
6.75817e-06
6.75823e-06
6.75823e-06
6.75823e-06
6.75823e-06
6.75823e-06
6.75823e-06
6.75823e-06
6.75823e-06
6.75823e-06
6.75823e-06
6.75823e-06
6.75823e-06
6.75823e-06
6.75823e-06
6.75823e-06
6.75823e-06
6.75823e-06
6.75823e-06
6.75823e-06
6.75823e-06
6.75823e-06
6.75823e-06
6.75823e-06
6.75823e-06
6.75823e-06
6.75823e-06
6.75823e-06
6.75823e-06
6.75817e-06
6.75817e-06
6.75823e-06
6.75823e-06
6.75823e-06
6.75823e-06
6.75823e-06
6.75823e-06
6.75823e-06
6.75823e-06
6.75823e-06
6.75823e-06
6.75823e-06
6.75823e-06
6.75823e-06
6.75823e-06
6.75823e-06
6.75823e-06
6.75823e-06
6.75823e-06
6.75823e-06
6.75823e-06
6.75823e-06
6.75823e-06
6.75823e-06
6.75823e-06
6.75823e-06
6.75823e-06
6.75823e-06
6.75823e-06
6.75817e-06
6.75817e-06
6.75823e-06
6.75823e-06
6.75823e-06
6.75823e-06
6.75823e-06
6.75823e-06
6.75823e-06
6.75823e-06
6.75823e-06
6.75823e-06
6.75823e-06
6.75823e-06
6.75823e-06
6.75823e-06
6.75823e-06
6.75823e-06
6.75823e-06
6.75823e-06
6.75823e-06
6.75823e-06
6.75823e-06
6.75823e-06
6.75823e-06
6.75823e-06
6.75823e-06
6.75823e-06
6.75823e-06
6.75823e-06
6.75817e-06
6.75818e-06
6.75824e-06
6.75824e-06
6.75824e-06
6.75824e-06
6.75824e-06
6.75824e-06
6.75824e-06
6.75824e-06
6.75824e-06
6.75824e-06
6.75824e-06
6.75824e-06
6.75823e-06
6.75823e-06
6.75823e-06
6.75823e-06
6.75824e-06
6.75824e-06
6.75824e-06
6.75824e-06
6.75824e-06
6.75824e-06
6.75824e-06
6.75824e-06
6.75824e-06
6.75824e-06
6.75824e-06
6.75824e-06
6.75818e-06
6.75818e-06
6.75824e-06
6.75824e-06
6.75824e-06
6.75825e-06
6.75824e-06
6.75825e-06
6.75824e-06
6.75824e-06
6.75824e-06
6.75824e-06
6.75824e-06
6.75824e-06
6.75824e-06
6.75824e-06
6.75824e-06
6.75824e-06
6.75824e-06
6.75824e-06
6.75824e-06
6.75824e-06
6.75824e-06
6.75825e-06
6.75825e-06
6.75825e-06
6.75825e-06
6.75825e-06
6.75825e-06
6.75825e-06
6.75819e-06
6.75818e-06
6.75824e-06
6.75825e-06
6.75824e-06
6.75824e-06
6.75824e-06
6.75824e-06
6.75824e-06
6.75824e-06
6.75824e-06
6.75824e-06
6.75824e-06
6.75823e-06
6.75823e-06
6.75823e-06
6.75823e-06
6.75823e-06
6.75823e-06
6.75823e-06
6.75824e-06
6.75824e-06
6.75824e-06
6.75824e-06
6.75824e-06
6.75824e-06
6.75824e-06
6.75824e-06
6.75824e-06
6.75824e-06
6.75818e-06
6.75819e-06
6.75824e-06
6.75826e-06
6.75825e-06
6.75826e-06
6.75824e-06
6.75825e-06
6.75825e-06
6.75825e-06
6.75825e-06
6.75824e-06
6.75824e-06
6.75824e-06
6.75824e-06
6.75824e-06
6.75824e-06
6.75824e-06
6.75824e-06
6.75824e-06
6.75824e-06
6.75825e-06
6.75825e-06
6.75825e-06
6.75825e-06
6.75825e-06
6.75825e-06
6.75825e-06
6.75825e-06
6.75825e-06
6.75819e-06
6.75821e-06
6.75826e-06
6.75827e-06
6.75825e-06
6.75826e-06
6.75825e-06
6.75826e-06
6.75826e-06
6.75826e-06
6.75825e-06
6.75825e-06
6.75825e-06
6.75825e-06
6.75825e-06
6.75825e-06
6.75825e-06
6.75825e-06
6.75825e-06
6.75825e-06
6.75825e-06
6.75826e-06
6.75826e-06
6.75826e-06
6.75826e-06
6.75826e-06
6.75826e-06
6.75826e-06
6.75826e-06
6.75826e-06
6.7582e-06
6.75747e-06
6.75672e-06
6.75697e-06
6.75791e-06
6.75708e-06
6.75773e-06
6.75743e-06
6.75746e-06
6.75749e-06
6.7575e-06
6.75752e-06
6.75751e-06
6.75751e-06
6.75748e-06
6.75745e-06
6.75742e-06
6.75746e-06
6.75747e-06
6.7575e-06
6.75753e-06
6.75752e-06
6.75749e-06
6.75744e-06
6.75741e-06
6.75731e-06
6.75729e-06
6.75732e-06
6.75748e-06
6.75764e-06
6.75773e-06
6.78218e-06
6.75968e-06
6.76637e-06
6.78079e-06
6.79564e-06
6.80816e-06
6.8147e-06
6.81822e-06
6.8186e-06
6.81591e-06
6.81119e-06
6.80407e-06
6.79497e-06
6.78504e-06
6.77778e-06
6.77783e-06
6.785e-06
6.79445e-06
6.80383e-06
6.81138e-06
6.81583e-06
6.81724e-06
6.81507e-06
6.80706e-06
6.79447e-06
6.78483e-06
6.77466e-06
6.76896e-06
6.76889e-06
6.76601e-06
6.81179e-06
6.85016e-06
6.8401e-06
6.86973e-06
6.87528e-06
6.88938e-06
6.90075e-06
6.90768e-06
6.90859e-06
6.90484e-06
6.89627e-06
6.8828e-06
6.86631e-06
6.85168e-06
6.84091e-06
6.84112e-06
6.85074e-06
6.86576e-06
6.88282e-06
6.89631e-06
6.90569e-06
6.90852e-06
6.90706e-06
6.9046e-06
6.89574e-06
6.87781e-06
6.86022e-06
6.83419e-06
6.79416e-06
6.75494e-06
6.84497e-06
6.85809e-06
6.87085e-06
6.88606e-06
6.89883e-06
6.91214e-06
6.92256e-06
6.92882e-06
6.9316e-06
6.93049e-06
6.92505e-06
6.91571e-06
6.90591e-06
6.8962e-06
6.89092e-06
6.89019e-06
6.89479e-06
6.90465e-06
6.91604e-06
6.9256e-06
6.93113e-06
6.93169e-06
6.92925e-06
6.92279e-06
6.91377e-06
6.90052e-06
6.887e-06
6.88128e-06
6.8897e-06
6.8327e-06
6.89951e-06
6.9015e-06
6.91377e-06
6.92849e-06
6.94125e-06
6.95243e-06
6.96208e-06
6.96949e-06
6.97427e-06
6.97604e-06
6.97425e-06
6.96947e-06
6.96376e-06
6.9582e-06
6.95469e-06
6.95452e-06
6.95754e-06
6.96324e-06
6.96926e-06
6.97452e-06
6.9765e-06
6.97515e-06
6.97068e-06
6.96301e-06
6.95218e-06
6.93948e-06
6.92192e-06
6.89878e-06
6.90453e-06
6.89014e-06
6.94076e-06
6.94872e-06
6.95837e-06
6.96807e-06
6.97874e-06
6.99016e-06
7.00139e-06
7.01126e-06
7.0189e-06
7.02361e-06
7.02501e-06
7.02387e-06
7.02146e-06
7.01955e-06
7.01878e-06
7.01883e-06
7.01972e-06
7.02163e-06
7.02388e-06
7.02509e-06
7.02351e-06
7.01892e-06
7.01136e-06
7.00201e-06
6.99134e-06
6.98013e-06
6.96968e-06
6.95744e-06
6.9515e-06
6.94266e-06
6.98304e-06
6.99338e-06
6.99794e-06
7.00697e-06
7.01856e-06
7.03145e-06
7.04429e-06
7.05594e-06
7.06571e-06
7.07315e-06
7.07799e-06
7.08071e-06
7.08194e-06
7.08239e-06
7.08247e-06
7.0822e-06
7.08181e-06
7.08125e-06
7.08011e-06
7.07744e-06
7.07235e-06
7.06483e-06
7.05498e-06
7.04373e-06
7.03197e-06
7.01949e-06
7.00688e-06
6.99592e-06
6.98893e-06
6.98461e-06
7.03286e-06
7.03215e-06
7.03826e-06
7.0482e-06
7.06048e-06
7.07411e-06
7.08813e-06
7.10164e-06
7.11398e-06
7.12464e-06
7.13319e-06
7.13961e-06
7.14418e-06
7.14721e-06
7.14887e-06
7.14912e-06
7.14801e-06
7.14545e-06
7.14129e-06
7.13516e-06
7.12671e-06
7.11599e-06
7.10322e-06
7.08911e-06
7.07492e-06
7.06118e-06
7.0479e-06
7.03636e-06
7.02793e-06
7.02318e-06
7.05949e-06
7.05812e-06
7.06672e-06
7.07773e-06
7.09095e-06
7.10578e-06
7.12157e-06
7.13757e-06
7.15308e-06
7.16744e-06
7.17998e-06
7.1902e-06
7.19792e-06
7.2031e-06
7.20572e-06
7.20568e-06
7.20294e-06
7.19752e-06
7.18954e-06
7.17919e-06
7.16666e-06
7.15236e-06
7.13673e-06
7.12045e-06
7.10464e-06
7.09032e-06
7.07782e-06
7.06769e-06
7.06048e-06
7.05687e-06
7.08472e-06
7.08701e-06
7.09577e-06
7.10677e-06
7.12025e-06
7.1358e-06
7.15287e-06
7.1708e-06
7.18886e-06
7.20623e-06
7.22209e-06
7.23562e-06
7.24622e-06
7.25346e-06
7.25707e-06
7.25688e-06
7.25286e-06
7.24516e-06
7.23416e-06
7.22037e-06
7.20446e-06
7.18714e-06
7.16914e-06
7.15117e-06
7.13414e-06
7.11899e-06
7.10635e-06
7.09662e-06
7.09007e-06
7.08724e-06
7.11074e-06
7.11553e-06
7.12333e-06
7.13389e-06
7.14726e-06
7.16309e-06
7.18089e-06
7.20005e-06
7.21979e-06
7.23924e-06
7.25744e-06
7.2734e-06
7.28623e-06
7.29518e-06
7.29976e-06
7.29969e-06
7.29495e-06
7.28581e-06
7.27283e-06
7.25677e-06
7.23855e-06
7.21913e-06
7.19941e-06
7.1802e-06
7.16225e-06
7.14633e-06
7.13306e-06
7.12287e-06
7.116e-06
7.11283e-06
7.13065e-06
7.13613e-06
7.14311e-06
7.15329e-06
7.16648e-06
7.18237e-06
7.2005e-06
7.22027e-06
7.24092e-06
7.26154e-06
7.28109e-06
7.29849e-06
7.31267e-06
7.3227e-06
7.32793e-06
7.32799e-06
7.32287e-06
7.31293e-06
7.29883e-06
7.28149e-06
7.26197e-06
7.24137e-06
7.2207e-06
7.20083e-06
7.18246e-06
7.16622e-06
7.15264e-06
7.14211e-06
7.1349e-06
7.13099e-06
7.14092e-06
7.1462e-06
7.15268e-06
7.16254e-06
7.17545e-06
7.1911e-06
7.20907e-06
7.22876e-06
7.24943e-06
7.27019e-06
7.28999e-06
7.30771e-06
7.32223e-06
7.33256e-06
7.33797e-06
7.33807e-06
7.33286e-06
7.32271e-06
7.30835e-06
7.29074e-06
7.27101e-06
7.25028e-06
7.22959e-06
7.20981e-06
7.19166e-06
7.17569e-06
7.16236e-06
7.152e-06
7.14485e-06
7.14047e-06
7.14198e-06
7.14673e-06
7.15283e-06
7.16221e-06
7.17449e-06
7.18937e-06
7.20643e-06
7.22511e-06
7.24471e-06
7.26437e-06
7.2831e-06
7.29985e-06
7.31356e-06
7.32331e-06
7.32841e-06
7.32849e-06
7.32356e-06
7.31397e-06
7.30039e-06
7.28374e-06
7.26507e-06
7.24544e-06
7.22584e-06
7.20712e-06
7.18997e-06
7.17492e-06
7.16239e-06
7.15267e-06
7.14599e-06
7.14157e-06
7.13549e-06
7.13968e-06
7.14533e-06
7.15397e-06
7.16524e-06
7.17882e-06
7.19429e-06
7.21113e-06
7.22868e-06
7.24616e-06
7.26269e-06
7.27737e-06
7.28933e-06
7.29779e-06
7.3022e-06
7.30225e-06
7.29794e-06
7.28957e-06
7.27769e-06
7.26307e-06
7.24658e-06
7.22914e-06
7.21161e-06
7.19477e-06
7.17927e-06
7.16564e-06
7.15429e-06
7.1455e-06
7.13953e-06
7.13537e-06
7.12305e-06
7.12677e-06
7.13181e-06
7.13946e-06
7.14935e-06
7.16116e-06
7.17448e-06
7.18879e-06
7.20351e-06
7.21794e-06
7.23139e-06
7.24317e-06
7.25264e-06
7.25928e-06
7.26271e-06
7.26273e-06
7.25933e-06
7.25273e-06
7.2433e-06
7.23156e-06
7.21813e-06
7.20372e-06
7.18903e-06
7.17473e-06
7.16143e-06
7.14963e-06
7.13974e-06
7.13207e-06
7.1269e-06
7.12314e-06
7.10591e-06
7.10918e-06
7.11346e-06
7.11993e-06
7.1282e-06
7.13794e-06
7.14873e-06
7.1601e-06
7.1715e-06
7.18238e-06
7.19223e-06
7.20061e-06
7.20716e-06
7.21166e-06
7.21394e-06
7.21394e-06
7.21166e-06
7.20717e-06
7.20063e-06
7.19226e-06
7.18242e-06
7.17155e-06
7.16017e-06
7.14883e-06
7.13806e-06
7.12835e-06
7.12011e-06
7.11367e-06
7.10936e-06
7.10606e-06
7.0851e-06
7.0879e-06
7.09137e-06
7.09656e-06
7.10311e-06
7.11065e-06
7.11879e-06
7.12705e-06
7.135e-06
7.14219e-06
7.14831e-06
7.15317e-06
7.1567e-06
7.15897e-06
7.16007e-06
7.16007e-06
7.15896e-06
7.15668e-06
7.15313e-06
7.14828e-06
7.14216e-06
7.13497e-06
7.12704e-06
7.11878e-06
7.11067e-06
7.10316e-06
7.09665e-06
7.09148e-06
7.08803e-06
7.0852e-06
7.06157e-06
7.06391e-06
7.06656e-06
7.0705e-06
7.07534e-06
7.08074e-06
7.08629e-06
7.09158e-06
7.09622e-06
7.09991e-06
7.10251e-06
7.10405e-06
7.10475e-06
7.10494e-06
7.10493e-06
7.10492e-06
7.10491e-06
7.10471e-06
7.104e-06
7.10245e-06
7.09984e-06
7.09614e-06
7.09151e-06
7.08623e-06
7.0807e-06
7.07532e-06
7.07051e-06
7.0666e-06
7.06397e-06
7.06162e-06
7.0363e-06
7.03821e-06
7.04009e-06
7.04286e-06
7.04613e-06
7.04956e-06
7.05276e-06
7.05538e-06
7.05709e-06
7.05771e-06
7.05724e-06
7.05592e-06
7.05417e-06
7.05255e-06
7.05157e-06
7.05156e-06
7.05252e-06
7.05413e-06
7.05586e-06
7.05717e-06
7.05763e-06
7.057e-06
7.05528e-06
7.05267e-06
7.04947e-06
7.04606e-06
7.04282e-06
7.04008e-06
7.03822e-06
7.03632e-06
7.0102e-06
7.01173e-06
7.01293e-06
7.01466e-06
7.01655e-06
7.01827e-06
7.01948e-06
7.01985e-06
7.01914e-06
7.01726e-06
7.01433e-06
7.0107e-06
7.00699e-06
7.00393e-06
7.00219e-06
7.00218e-06
7.00391e-06
7.00696e-06
7.01066e-06
7.01427e-06
7.01719e-06
7.01906e-06
7.01976e-06
7.01938e-06
7.01817e-06
7.01646e-06
7.01459e-06
7.01288e-06
7.0117e-06
7.0102e-06
6.98409e-06
6.9853e-06
6.98591e-06
6.98676e-06
6.9875e-06
6.98782e-06
6.98743e-06
6.98605e-06
6.98349e-06
6.97973e-06
6.97495e-06
6.96964e-06
6.96449e-06
6.96037e-06
6.95806e-06
6.95805e-06
6.96035e-06
6.96447e-06
6.96961e-06
6.97491e-06
6.97967e-06
6.98343e-06
6.98598e-06
6.98735e-06
6.98774e-06
6.98741e-06
6.98667e-06
6.98583e-06
6.98522e-06
6.98408e-06
6.95866e-06
6.95957e-06
6.95971e-06
6.95985e-06
6.95969e-06
6.95895e-06
6.95736e-06
6.9547e-06
6.95084e-06
6.94578e-06
6.93978e-06
6.93335e-06
6.92726e-06
6.92243e-06
6.91974e-06
6.91973e-06
6.92241e-06
6.92724e-06
6.93332e-06
6.93975e-06
6.94574e-06
6.95079e-06
6.95465e-06
6.9573e-06
6.95888e-06
6.95961e-06
6.95977e-06
6.95962e-06
6.95946e-06
6.95862e-06
6.93441e-06
6.93507e-06
6.93485e-06
6.93447e-06
6.93364e-06
6.93213e-06
6.92973e-06
6.92623e-06
6.92154e-06
6.91572e-06
6.90903e-06
6.90198e-06
6.89536e-06
6.89013e-06
6.88722e-06
6.88722e-06
6.89012e-06
6.89534e-06
6.90195e-06
6.909e-06
6.91569e-06
6.92151e-06
6.92619e-06
6.92968e-06
6.93208e-06
6.93357e-06
6.93439e-06
6.93476e-06
6.93496e-06
6.93436e-06
6.91174e-06
6.91219e-06
6.91172e-06
6.91097e-06
6.90969e-06
6.9077e-06
6.90479e-06
6.90082e-06
6.89572e-06
6.88956e-06
6.8826e-06
6.87534e-06
6.86854e-06
6.86317e-06
6.86016e-06
6.86016e-06
6.86315e-06
6.86852e-06
6.87531e-06
6.88256e-06
6.88952e-06
6.89568e-06
6.90078e-06
6.90474e-06
6.90764e-06
6.90963e-06
6.9109e-06
6.91165e-06
6.91209e-06
6.91169e-06
6.8909e-06
6.8912e-06
6.89057e-06
6.88958e-06
6.88803e-06
6.88576e-06
6.88261e-06
6.87847e-06
6.87327e-06
6.8671e-06
6.8602e-06
6.85305e-06
6.84634e-06
6.841e-06
6.838e-06
6.838e-06
6.84098e-06
6.8463e-06
6.853e-06
6.86016e-06
6.86705e-06
6.87322e-06
6.87842e-06
6.88256e-06
6.88571e-06
6.88798e-06
6.88952e-06
6.8905e-06
6.8911e-06
6.89086e-06
6.87203e-06
6.87222e-06
6.8715e-06
6.87039e-06
6.86871e-06
6.86634e-06
6.86314e-06
6.85903e-06
6.85397e-06
6.84803e-06
6.84144e-06
6.8346e-06
6.82816e-06
6.82301e-06
6.82009e-06
6.82008e-06
6.82298e-06
6.82813e-06
6.83455e-06
6.84138e-06
6.84798e-06
6.85391e-06
6.85897e-06
6.86309e-06
6.86628e-06
6.86865e-06
6.87033e-06
6.87144e-06
6.87213e-06
6.87199e-06
6.85515e-06
6.85527e-06
6.85452e-06
6.85337e-06
6.85167e-06
6.84932e-06
6.84622e-06
6.8423e-06
6.83753e-06
6.83198e-06
6.82584e-06
6.81947e-06
6.81344e-06
6.80856e-06
6.80577e-06
6.80576e-06
6.80854e-06
6.8134e-06
6.81943e-06
6.82579e-06
6.83192e-06
6.83747e-06
6.84224e-06
6.84616e-06
6.84926e-06
6.85161e-06
6.8533e-06
6.85446e-06
6.85519e-06
6.85512e-06
6.84022e-06
6.84031e-06
6.83956e-06
6.83843e-06
6.83678e-06
6.83454e-06
6.83163e-06
6.828e-06
6.82362e-06
6.81856e-06
6.81297e-06
6.80716e-06
6.8016e-06
6.79705e-06
6.7944e-06
6.7944e-06
6.79703e-06
6.80157e-06
6.80711e-06
6.81292e-06
6.81851e-06
6.82356e-06
6.82794e-06
6.83157e-06
6.83448e-06
6.83672e-06
6.83836e-06
6.8395e-06
6.84022e-06
6.8402e-06
6.82713e-06
6.8272e-06
6.82649e-06
6.82541e-06
6.82387e-06
6.8218e-06
6.81914e-06
6.81585e-06
6.81192e-06
6.80739e-06
6.8024e-06
6.79718e-06
6.79214e-06
6.78794e-06
6.78545e-06
6.78545e-06
6.78792e-06
6.79211e-06
6.79714e-06
6.80236e-06
6.80735e-06
6.81187e-06
6.8158e-06
6.81909e-06
6.82174e-06
6.82381e-06
6.82535e-06
6.82642e-06
6.82711e-06
6.8271e-06
6.81573e-06
6.81581e-06
6.81515e-06
6.81416e-06
6.81276e-06
6.81089e-06
6.80851e-06
6.80559e-06
6.80212e-06
6.79814e-06
6.79375e-06
6.78913e-06
6.78462e-06
6.78078e-06
6.77845e-06
6.77844e-06
6.78077e-06
6.7846e-06
6.78911e-06
6.79372e-06
6.79811e-06
6.80208e-06
6.80554e-06
6.80846e-06
6.81083e-06
6.81269e-06
6.81409e-06
6.81508e-06
6.81572e-06
6.81571e-06
6.80588e-06
6.80597e-06
6.80538e-06
6.80449e-06
6.80324e-06
6.80159e-06
6.79951e-06
6.79696e-06
6.79395e-06
6.79051e-06
6.7867e-06
6.78267e-06
6.77869e-06
6.77519e-06
6.77299e-06
6.77299e-06
6.77519e-06
6.77867e-06
6.78266e-06
6.78668e-06
6.79048e-06
6.79392e-06
6.79692e-06
6.79946e-06
6.80154e-06
6.80318e-06
6.80442e-06
6.80531e-06
6.80588e-06
6.80586e-06
6.79741e-06
6.79752e-06
6.79699e-06