/*--------------------------------*- C++ -*----------------------------------*\
| =========                 |                                                 |
| \\      /  F ield         | OpenFOAM: The Open Source CFD Toolbox           |
|  \\    /   O peration     | Version:  2312                                  |
|   \\  /    A nd           | Website:  www.openfoam.com                      |
|    \\/     M anipulation  |                                                 |
\*---------------------------------------------------------------------------*/
FoamFile
{
    version     2.0;
    format      ascii;
    arch        "LSB;label=32;scalar=64";
    class       volScalarField;
    location    "0.0470981";
    object      p;
}
// * * * * * * * * * * * * * * * * * * * * * * * * * * * * * * * * * * * * * //

dimensions      [1 -1 -2 0 0 0 0];

internalField   nonuniform List<scalar> 
90000
(
4851.1
4851.1
4851.1
4851.1
4851.1
4851.1
4851.1
4851.1
4851.1
4851.1
4851.1
4851.1
4851.1
4851.1
4851.1
4851.1
4851.1
4851.1
4851.1
4851.1
4851.1
4851.1
4851.1
4851.1
4851.1
4851.1
4851.1
4851.1
4851.1
4851.1
4753
4753
4753
4753
4753
4753
4753
4753
4753
4753
4753
4753
4753
4753
4753
4753
4753
4753
4753
4753
4753
4753
4753
4753
4753
4753
4753
4753
4753
4753
4654.9
4654.9
4654.9
4654.9
4654.9
4654.9
4654.9
4654.9
4654.9
4654.9
4654.9
4654.9
4654.9
4654.9
4654.9
4654.9
4654.9
4654.9
4654.9
4654.9
4654.9
4654.9
4654.9
4654.9
4654.9
4654.9
4654.9
4654.9
4654.9
4654.9
4556.8
4556.8
4556.8
4556.8
4556.8
4556.8
4556.8
4556.8
4556.8
4556.8
4556.8
4556.8
4556.8
4556.8
4556.8
4556.8
4556.8
4556.8
4556.8
4556.8
4556.8
4556.8
4556.8
4556.8
4556.8
4556.8
4556.8
4556.8
4556.8
4556.8
4458.7
4458.7
4458.7
4458.7
4458.7
4458.7
4458.7
4458.7
4458.7
4458.7
4458.7
4458.7
4458.7
4458.7
4458.7
4458.7
4458.7
4458.7
4458.7
4458.7
4458.7
4458.7
4458.7
4458.7
4458.7
4458.7
4458.7
4458.7
4458.7
4458.7
4360.6
4360.6
4360.6
4360.6
4360.6
4360.6
4360.6
4360.6
4360.6
4360.6
4360.6
4360.6
4360.6
4360.6
4360.6
4360.6
4360.6
4360.6
4360.6
4360.6
4360.6
4360.6
4360.6
4360.6
4360.6
4360.6
4360.6
4360.6
4360.6
4360.6
4262.5
4262.5
4262.5
4262.5
4262.5
4262.5
4262.5
4262.5
4262.5
4262.5
4262.5
4262.5
4262.5
4262.5
4262.5
4262.5
4262.5
4262.5
4262.5
4262.5
4262.5
4262.5
4262.5
4262.5
4262.5
4262.5
4262.5
4262.5
4262.5
4262.5
4164.4
4164.4
4164.4
4164.4
4164.4
4164.4
4164.4
4164.4
4164.4
4164.4
4164.4
4164.4
4164.4
4164.4
4164.4
4164.4
4164.4
4164.4
4164.4
4164.4
4164.4
4164.4
4164.4
4164.4
4164.4
4164.4
4164.4
4164.4
4164.4
4164.4
4066.3
4066.3
4066.3
4066.3
4066.3
4066.3
4066.3
4066.3
4066.3
4066.3
4066.3
4066.3
4066.3
4066.3
4066.3
4066.3
4066.3
4066.3
4066.3
4066.3
4066.3
4066.3
4066.3
4066.3
4066.3
4066.3
4066.3
4066.3
4066.3
4066.3
3968.2
3968.2
3968.2
3968.2
3968.2
3968.2
3968.2
3968.2
3968.2
3968.2
3968.2
3968.2
3968.2
3968.2
3968.2
3968.2
3968.2
3968.2
3968.2
3968.2
3968.2
3968.2
3968.2
3968.2
3968.2
3968.2
3968.2
3968.2
3968.2
3968.2
3870.1
3870.1
3870.1
3870.1
3870.1
3870.1
3870.1
3870.1
3870.1
3870.1
3870.1
3870.1
3870.1
3870.1
3870.1
3870.1
3870.1
3870.1
3870.1
3870.1
3870.1
3870.1
3870.1
3870.1
3870.1
3870.1
3870.1
3870.1
3870.1
3870.1
3772
3772
3772
3772
3772
3772
3772
3772
3772
3772
3772
3772
3772
3772
3772
3772
3772
3772
3772
3772
3772
3772
3772
3772
3772
3772
3772
3772
3772
3772
3673.9
3673.9
3673.9
3673.9
3673.9
3673.9
3673.9
3673.9
3673.9
3673.9
3673.9
3673.9
3673.9
3673.9
3673.9
3673.9
3673.9
3673.9
3673.9
3673.9
3673.9
3673.9
3673.9
3673.9
3673.9
3673.9
3673.9
3673.9
3673.9
3673.9
3575.8
3575.8
3575.8
3575.8
3575.8
3575.8
3575.8
3575.8
3575.8
3575.8
3575.8
3575.8
3575.8
3575.8
3575.8
3575.8
3575.8
3575.8
3575.8
3575.8
3575.8
3575.8
3575.8
3575.8
3575.8
3575.8
3575.8
3575.8
3575.8
3575.8
3477.7
3477.7
3477.7
3477.7
3477.7
3477.7
3477.7
3477.7
3477.7
3477.7
3477.7
3477.7
3477.7
3477.7
3477.7
3477.7
3477.7
3477.7
3477.7
3477.7
3477.7
3477.7
3477.7
3477.7
3477.7
3477.7
3477.7
3477.7
3477.7
3477.7
3379.6
3379.6
3379.6
3379.6
3379.6
3379.6
3379.6
3379.6
3379.6
3379.6
3379.6
3379.6
3379.6
3379.6
3379.6
3379.6
3379.6
3379.6
3379.6
3379.6
3379.6
3379.6
3379.6
3379.6
3379.6
3379.6
3379.6
3379.6
3379.6
3379.6
3281.5
3281.5
3281.5
3281.5
3281.5
3281.5
3281.5
3281.5
3281.5
3281.5
3281.5
3281.5
3281.5
3281.5
3281.5
3281.5
3281.5
3281.5
3281.5
3281.5
3281.5
3281.5
3281.5
3281.5
3281.5
3281.5
3281.5
3281.5
3281.5
3281.5
3183.4
3183.4
3183.4
3183.4
3183.4
3183.4
3183.4
3183.4
3183.4
3183.4
3183.4
3183.4
3183.4
3183.4
3183.4
3183.4
3183.4
3183.4
3183.4
3183.4
3183.4
3183.4
3183.4
3183.4
3183.4
3183.4
3183.4
3183.4
3183.4
3183.4
3085.3
3085.3
3085.3
3085.3
3085.3
3085.3
3085.3
3085.3
3085.3
3085.3
3085.3
3085.3
3085.3
3085.3
3085.3
3085.3
3085.3
3085.3
3085.3
3085.3
3085.3
3085.3
3085.3
3085.3
3085.3
3085.3
3085.3
3085.3
3085.3
3085.3
2987.2
2987.2
2987.2
2987.2
2987.2
2987.2
2987.2
2987.2
2987.2
2987.2
2987.2
2987.2
2987.2
2987.2
2987.2
2987.2
2987.2
2987.2
2987.2
2987.2
2987.2
2987.2
2987.2
2987.2
2987.2
2987.2
2987.2
2987.2
2987.2
2987.2
2889.1
2889.1
2889.1
2889.1
2889.1
2889.1
2889.1
2889.1
2889.1
2889.1
2889.1
2889.1
2889.1
2889.1
2889.1
2889.1
2889.1
2889.1
2889.1
2889.1
2889.1
2889.1
2889.1
2889.1
2889.1
2889.1
2889.1
2889.1
2889.1
2889.1
2791
2791
2791
2791
2791
2791
2791
2791
2791
2791
2791
2791
2791
2791
2791
2791
2791
2791
2791
2791
2791
2791
2791
2791
2791
2791
2791
2791
2791
2791
2692.9
2692.9
2692.9
2692.9
2692.9
2692.9
2692.9
2692.9
2692.9
2692.9
2692.9
2692.9
2692.9
2692.9
2692.9
2692.9
2692.9
2692.9
2692.9
2692.9
2692.9
2692.9
2692.9
2692.9
2692.9
2692.9
2692.9
2692.9
2692.9
2692.9
2594.81
2594.81
2594.81
2594.81
2594.81
2594.81
2594.81
2594.81
2594.81
2594.81
2594.81
2594.81
2594.81
2594.81
2594.81
2594.81
2594.81
2594.81
2594.81
2594.81
2594.81
2594.81
2594.81
2594.81
2594.81
2594.81
2594.81
2594.81
2594.81
2594.81
2496.71
2496.71
2496.71
2496.71
2496.71
2496.71
2496.71
2496.71
2496.71
2496.71
2496.71
2496.71
2496.71
2496.71
2496.71
2496.71
2496.71
2496.71
2496.71
2496.71
2496.71
2496.71
2496.71
2496.71
2496.71
2496.71
2496.71
2496.71
2496.71
2496.71
2398.61
2398.61
2398.61
2398.61
2398.61
2398.61
2398.61
2398.61
2398.61
2398.61
2398.61
2398.61
2398.61
2398.61
2398.61
2398.61
2398.61
2398.61
2398.61
2398.61
2398.61
2398.61
2398.61
2398.61
2398.61
2398.61
2398.61
2398.61
2398.61
2398.61
2300.51
2300.51
2300.51
2300.51
2300.51
2300.51
2300.51
2300.51
2300.51
2300.51
2300.51
2300.51
2300.51
2300.51
2300.51
2300.51
2300.51
2300.51
2300.51
2300.51
2300.51
2300.51
2300.51
2300.51
2300.51
2300.51
2300.51
2300.51
2300.51
2300.51
2202.41
2202.41
2202.41
2202.41
2202.41
2202.41
2202.41
2202.41
2202.41
2202.41
2202.41
2202.41
2202.41
2202.41
2202.41
2202.41
2202.41
2202.41
2202.41
2202.41
2202.41
2202.41
2202.41
2202.41
2202.41
2202.41
2202.41
2202.41
2202.41
2202.41
2104.31
2104.31
2104.31
2104.31
2104.31
2104.31
2104.31
2104.31
2104.31
2104.31
2104.31
2104.31
2104.31
2104.31
2104.31
2104.31
2104.31
2104.31
2104.31
2104.31
2104.31
2104.31
2104.31
2104.31
2104.31
2104.31
2104.31
2104.31
2104.31
2104.31
2006.21
2006.21
2006.21
2006.21
2006.21
2006.21
2006.21
2006.21
2006.21
2006.21
2006.21
2006.21
2006.21
2006.21
2006.21
2006.21
2006.21
2006.21
2006.21
2006.21
2006.21
2006.21
2006.21
2006.21
2006.21
2006.21
2006.21
2006.21
2006.21
2006.21
1908.11
1908.11
1908.11
1908.11
1908.11
1908.11
1908.11
1908.11
1908.11
1908.11
1908.11
1908.11
1908.11
1908.11
1908.11
1908.11
1908.11
1908.11
1908.11
1908.11
1908.11
1908.11
1908.11
1908.11
1908.11
1908.11
1908.11
1908.11
1908.11
1908.11
1810.01
1810.01
1810.01
1810.01
1810.01
1810.01
1810.01
1810.01
1810.01
1810.01
1810.01
1810.01
1810.01
1810.01
1810.01
1810.01
1810.01
1810.01
1810.01
1810.01
1810.01
1810.01
1810.01
1810.01
1810.01
1810.01
1810.01
1810.01
1810.01
1810.01
1711.91
1711.91
1711.91
1711.91
1711.91
1711.91
1711.91
1711.91
1711.91
1711.91
1711.91
1711.91
1711.91
1711.91
1711.91
1711.91
1711.91
1711.91
1711.91
1711.91
1711.91
1711.91
1711.91
1711.91
1711.91
1711.91
1711.91
1711.91
1711.91
1711.91
1613.81
1613.81
1613.81
1613.81
1613.81
1613.81
1613.81
1613.81
1613.81
1613.81
1613.81
1613.81
1613.81
1613.81
1613.81
1613.81
1613.81
1613.81
1613.81
1613.81
1613.81
1613.81
1613.81
1613.81
1613.81
1613.81
1613.81
1613.81
1613.81
1613.81
1515.71
1515.71
1515.71
1515.71
1515.71
1515.71
1515.71
1515.71
1515.71
1515.71
1515.71
1515.71
1515.71
1515.71
1515.71
1515.71
1515.71
1515.71
1515.71
1515.71
1515.71
1515.71
1515.71
1515.71
1515.71
1515.71
1515.71
1515.71
1515.71
1515.71
1417.61
1417.61
1417.61
1417.61
1417.61
1417.61
1417.61
1417.61
1417.61
1417.61
1417.61
1417.61
1417.61
1417.61
1417.61
1417.61
1417.61
1417.61
1417.61
1417.61
1417.61
1417.61
1417.61
1417.61
1417.61
1417.61
1417.61
1417.61
1417.61
1417.61
1319.51
1319.51
1319.51
1319.51
1319.51
1319.51
1319.51
1319.51
1319.51
1319.51
1319.51
1319.52
1319.52
1319.52
1319.52
1319.52
1319.52
1319.52
1319.52
1319.52
1319.51
1319.51
1319.51
1319.51
1319.51
1319.51
1319.51
1319.51
1319.51
1319.51
1221.41
1221.41
1221.41
1221.41
1221.41
1221.41
1221.41
1221.41
1221.42
1221.42
1221.42
1221.42
1221.42
1221.42
1221.42
1221.42
1221.42
1221.42
1221.42
1221.42
1221.42
1221.42
1221.41
1221.41
1221.41
1221.41
1221.41
1221.41
1221.41
1221.41
1123.31
1123.31
1123.31
1123.31
1123.31
1123.31
1123.32
1123.32
1123.32
1123.32
1123.32
1123.32
1123.32
1123.32
1123.32
1123.32
1123.32
1123.32
1123.32
1123.32
1123.32
1123.32
1123.32
1123.32
1123.31
1123.31
1123.31
1123.31
1123.31
1123.31
1025.21
1025.21
1025.21
1025.21
1025.22
1025.22
1025.22
1025.22
1025.22
1025.22
1025.22
1025.22
1025.22
1025.22
1025.22
1025.22
1025.22
1025.22
1025.22
1025.22
1025.22
1025.22
1025.22
1025.22
1025.22
1025.22
1025.21
1025.21
1025.21
1025.21
927.115
927.115
927.115
927.116
927.116
927.116
927.117
927.117
927.117
927.118
927.118
927.119
927.119
927.119
927.119
927.119
927.119
927.119
927.119
927.118
927.118
927.118
927.117
927.117
927.116
927.116
927.116
927.115
927.115
927.115
829.015
829.016
829.016
829.016
829.016
829.017
829.017
829.018
829.018
829.019
829.019
829.02
829.02
829.02
829.02
829.02
829.02
829.02
829.02
829.019
829.019
829.018
829.018
829.017
829.017
829.017
829.016
829.016
829.016
829.016
730.916
730.916
730.916
730.916
730.917
730.917
730.918
730.918
730.919
730.919
730.92
730.92
730.921
730.921
730.921
730.921
730.921
730.921
730.921
730.92
730.92
730.919
730.919
730.918
730.917
730.917
730.917
730.916
730.916
730.916
632.816
632.816
632.816
632.816
632.817
632.817
632.818
632.819
632.819
632.82
632.82
632.821
632.821
632.822
632.822
632.822
632.822
632.821
632.821
632.821
632.82
632.819
632.819
632.818
632.817
632.817
632.817
632.816
632.816
632.816
534.715
534.715
534.716
534.716
534.716
534.717
534.718
534.718
534.719
534.72
534.721
534.721
534.722
534.722
534.722
534.722
534.722
534.722
534.721
534.721
534.72
534.719
534.719
534.718
534.717
534.717
534.716
534.716
534.715
534.715
436.615
436.615
436.615
436.616
436.616
436.617
436.618
436.618
436.619
436.62
436.621
436.622
436.622
436.623
436.623
436.623
436.623
436.622
436.622
436.621
436.62
436.62
436.619
436.618
436.617
436.616
436.616
436.615
436.615
436.615
338.514
338.514
338.515
338.515
338.516
338.517
338.517
338.518
338.519
338.52
338.521
338.522
338.523
338.523
338.523
338.523
338.523
338.523
338.522
338.521
338.521
338.52
338.519
338.518
338.517
338.516
338.516
338.515
338.515
338.514
240.412
240.412
240.412
240.413
240.414
240.415
240.416
240.417
240.418
240.419
240.42
240.421
240.422
240.422
240.423
240.423
240.422
240.422
240.421
240.42
240.419
240.418
240.417
240.416
240.415
240.414
240.414
240.413
240.412
240.412
142.309
142.309
142.31
142.311
142.312
142.313
142.314
142.315
142.316
142.317
142.319
142.32
142.32
142.321
142.321
142.321
142.321
142.321
142.32
142.319
142.318
142.317
142.315
142.314
142.313
142.312
142.311
142.31
142.309
142.309
44.2112
44.2097
44.2097
44.2089
44.2102
44.2109
44.2122
44.2135
44.2147
44.216
44.2172
44.2183
44.2191
44.2198
44.2201
44.2202
44.2199
44.2193
44.2185
44.2174
44.2163
44.2151
44.2139
44.2128
44.2122
44.2118
44.2116
44.2119
44.2124
44.2129
-4.89087
-4.89207
-4.892
-4.89222
-4.89128
-4.89028
-4.88907
-4.88778
-4.88642
-4.88506
-4.88379
-4.88266
-4.88175
-4.88108
-4.88071
-4.88068
-4.88098
-4.88159
-4.88247
-4.88357
-4.88478
-4.88605
-4.88731
-4.88845
-4.88922
-4.88975
-4.89001
-4.88974
-4.88924
-4.88881
-4.99586
-4.99549
-4.99463
-4.99375
-4.99275
-4.99165
-4.99042
-4.98904
-4.98757
-4.98612
-4.98475
-4.98354
-4.98255
-4.98184
-4.98144
-4.9814
-4.98173
-4.9824
-4.98337
-4.98456
-4.98589
-4.98729
-4.98871
-4.99012
-4.99147
-4.99268
-4.99363
-4.99435
-4.9948
-4.99504
-5.09472
-5.09409
-5.09334
-5.09252
-5.0916
-5.09056
-5.08934
-5.08797
-5.08655
-5.08514
-5.08381
-5.08263
-5.08167
-5.08097
-5.0806
-5.08055
-5.08085
-5.08151
-5.08247
-5.08362
-5.08491
-5.08626
-5.08764
-5.08901
-5.09033
-5.09148
-5.0924
-5.09326
-5.09396
-5.09371
-5.19394
-5.19325
-5.19269
-5.19204
-5.1912
-5.19017
-5.18898
-5.18767
-5.18633
-5.185
-5.18374
-5.18261
-5.1817
-5.18103
-5.18067
-5.18064
-5.18094
-5.18157
-5.18246
-5.18355
-5.18477
-5.18605
-5.18736
-5.18865
-5.18988
-5.19095
-5.19177
-5.19237
-5.19313
-5.19317
-5.29346
-5.29316
-5.29271
-5.29206
-5.29125
-5.29028
-5.28919
-5.28801
-5.28679
-5.28556
-5.28438
-5.28332
-5.28246
-5.28185
-5.28153
-5.2815
-5.28177
-5.28234
-5.28315
-5.28416
-5.28528
-5.28645
-5.28763
-5.28881
-5.28994
-5.29095
-5.2918
-5.29245
-5.29307
-5.29327
-5.39423
-5.39413
-5.3937
-5.39311
-5.39237
-5.39152
-5.39055
-5.3895
-5.38839
-5.38726
-5.38618
-5.38522
-5.38443
-5.38388
-5.38358
-5.38356
-5.38381
-5.38433
-5.38508
-5.38601
-5.38703
-5.3881
-5.38917
-5.39021
-5.3912
-5.39207
-5.39278
-5.39333
-5.39377
-5.39399
-5.49573
-5.49553
-5.49516
-5.49467
-5.49406
-5.49335
-5.49253
-5.49162
-5.49066
-5.48969
-5.48875
-5.48791
-5.48723
-5.48675
-5.4865
-5.48649
-5.48672
-5.48718
-5.48785
-5.48866
-5.48956
-5.49049
-5.49141
-5.49228
-5.49309
-5.4938
-5.49436
-5.49476
-5.49505
-5.49518
-5.59707
-5.59685
-5.5966
-5.59626
-5.59581
-5.59526
-5.59463
-5.59392
-5.59317
-5.5924
-5.59166
-5.59099
-5.59044
-5.59005
-5.58984
-5.58982
-5.59
-5.59035
-5.59087
-5.59151
-5.59222
-5.59295
-5.59368
-5.59436
-5.59499
-5.59555
-5.596
-5.59634
-5.59657
-5.59668
-5.69861
-5.69849
-5.69834
-5.69813
-5.69783
-5.69745
-5.69701
-5.69652
-5.696
-5.69546
-5.69495
-5.69447
-5.69408
-5.69379
-5.69363
-5.6936
-5.69371
-5.69394
-5.69429
-5.69472
-5.69521
-5.69572
-5.69623
-5.69671
-5.69716
-5.69757
-5.69791
-5.69818
-5.69837
-5.69848
-5.8006
-5.80058
-5.80052
-5.8004
-5.80023
-5.80002
-5.79976
-5.79948
-5.79918
-5.79888
-5.79859
-5.79832
-5.79809
-5.79792
-5.79782
-5.79779
-5.79784
-5.79796
-5.79814
-5.79838
-5.79864
-5.79893
-5.79922
-5.7995
-5.79976
-5.79999
-5.8002
-5.80038
-5.8005
-5.80058
-5.90289
-5.90292
-5.90292
-5.90289
-5.90284
-5.90278
-5.9027
-5.90262
-5.90254
-5.90246
-5.90238
-5.90231
-5.90225
-5.9022
-5.90216
-5.90214
-5.90214
-5.90216
-5.90219
-5.90224
-5.9023
-5.90237
-5.90244
-5.90252
-5.90259
-5.90266
-5.90272
-5.90278
-5.90282
-5.90284
-6.00518
-6.00525
-6.0053
-6.00535
-6.00542
-6.0055
-6.00559
-6.00571
-6.00583
-6.00596
-6.00608
-6.0062
-6.00628
-6.00634
-6.00637
-6.00636
-6.00632
-6.00624
-6.00613
-6.00601
-6.00588
-6.00574
-6.00561
-6.00549
-6.00538
-6.00529
-6.00522
-6.00516
-6.00511
-6.00508
-6.10728
-6.10736
-6.10746
-6.1076
-6.10778
-6.10799
-6.10825
-6.10854
-6.10885
-6.10917
-6.10947
-6.10975
-6.10997
-6.11013
-6.11021
-6.1102
-6.11012
-6.10996
-6.10973
-6.10945
-6.10914
-6.10882
-6.1085
-6.10821
-6.10794
-6.1077
-6.10751
-6.10735
-6.10724
-6.10716
-6.2091
-6.20919
-6.20934
-6.20956
-6.20984
-6.21018
-6.21058
-6.21102
-6.21149
-6.21197
-6.21242
-6.21283
-6.21316
-6.2134
-6.21352
-6.21352
-6.2134
-6.21316
-6.21283
-6.21242
-6.21196
-6.21149
-6.21101
-6.21056
-6.21016
-6.2098
-6.2095
-6.20927
-6.2091
-6.209
-6.31063
-6.31074
-6.31093
-6.31121
-6.31157
-6.31202
-6.31253
-6.31309
-6.31368
-6.31428
-6.31485
-6.31536
-6.31578
-6.31607
-6.31622
-6.31623
-6.31607
-6.31578
-6.31537
-6.31486
-6.31429
-6.31369
-6.31309
-6.31253
-6.31201
-6.31156
-6.31118
-6.31088
-6.31068
-6.31056
-6.41188
-6.41199
-6.41222
-6.41255
-6.41297
-6.41349
-6.41408
-6.41473
-6.41541
-6.4161
-6.41674
-6.41732
-6.41779
-6.41812
-6.4183
-6.4183
-6.41813
-6.4178
-6.41733
-6.41675
-6.4161
-6.41542
-6.41474
-6.41409
-6.41349
-6.41297
-6.41253
-6.41219
-6.41196
-6.41183
-6.51284
-6.51297
-6.51321
-6.51357
-6.51404
-6.5146
-6.51525
-6.51595
-6.51668
-6.51741
-6.5181
-6.51871
-6.51921
-6.51956
-6.51974
-6.51975
-6.51957
-6.51922
-6.51872
-6.51811
-6.51742
-6.51669
-6.51595
-6.51525
-6.5146
-6.51403
-6.51356
-6.51319
-6.51294
-6.51281
-6.61353
-6.61366
-6.61391
-6.61429
-6.61477
-6.61536
-6.61602
-6.61674
-6.61749
-6.61824
-6.61894
-6.61956
-6.62007
-6.62042
-6.62061
-6.62061
-6.62042
-6.62007
-6.61957
-6.61895
-6.61824
-6.6175
-6.61675
-6.61602
-6.61535
-6.61477
-6.61427
-6.61389
-6.61363
-6.6135
-6.71393
-6.71406
-6.71432
-6.71469
-6.71518
-6.71576
-6.71643
-6.71714
-6.71789
-6.71862
-6.71931
-6.71992
-6.72041
-6.72076
-6.72094
-6.72094
-6.72076
-6.72041
-6.71992
-6.71931
-6.71862
-6.71789
-6.71714
-6.71642
-6.71576
-6.71517
-6.71467
-6.71429
-6.71403
-6.7139
-6.81406
-6.81418
-6.81443
-6.8148
-6.81528
-6.81585
-6.81649
-6.81718
-6.8179
-6.8186
-6.81926
-6.81984
-6.82031
-6.82064
-6.82081
-6.82081
-6.82064
-6.82031
-6.81984
-6.81926
-6.8186
-6.81789
-6.81717
-6.81648
-6.81583
-6.81526
-6.81478
-6.81441
-6.81415
-6.81402
-6.91393
-6.91405
-6.91429
-6.91464
-6.91509
-6.91563
-6.91624
-6.9169
-6.91757
-6.91823
-6.91885
-6.91939
-6.91982
-6.92013
-6.92028
-6.92028
-6.92012
-6.91982
-6.91938
-6.91884
-6.91822
-6.91756
-6.91688
-6.91622
-6.91561
-6.91507
-6.91461
-6.91426
-6.91402
-6.91389
-7.01356
-7.01367
-7.0139
-7.01423
-7.01465
-7.01516
-7.01572
-7.01633
-7.01695
-7.01756
-7.01812
-7.01862
-7.01902
-7.01929
-7.01943
-7.01943
-7.01929
-7.01901
-7.01861
-7.01811
-7.01754
-7.01693
-7.0163
-7.0157
-7.01513
-7.01462
-7.01419
-7.01386
-7.01364
-7.01352
-7.11297
-7.11308
-7.11328
-7.11359
-7.11398
-7.11444
-7.11496
-7.11551
-7.11608
-7.11663
-7.11714
-7.11759
-7.11794
-7.11819
-7.11832
-7.11832
-7.11818
-7.11793
-7.11757
-7.11712
-7.1166
-7.11605
-7.11548
-7.11492
-7.1144
-7.11394
-7.11355
-7.11324
-7.11304
-7.11293
-7.21219
-7.21228
-7.21247
-7.21274
-7.2131
-7.21352
-7.21398
-7.21448
-7.21499
-7.21548
-7.21594
-7.21633
-7.21665
-7.21687
-7.21698
-7.21698
-7.21686
-7.21664
-7.21631
-7.21591
-7.21545
-7.21495
-7.21444
-7.21394
-7.21347
-7.21305
-7.2127
-7.21242
-7.21224
-7.21214
-7.31122
-7.3113
-7.31147
-7.31172
-7.31203
-7.31241
-7.31282
-7.31327
-7.31371
-7.31415
-7.31455
-7.3149
-7.31518
-7.31537
-7.31547
-7.31547
-7.31536
-7.31517
-7.31488
-7.31453
-7.31412
-7.31368
-7.31323
-7.31278
-7.31236
-7.31199
-7.31167
-7.31142
-7.31125
-7.31117
-7.41008
-7.41016
-7.41031
-7.41053
-7.41081
-7.41114
-7.4115
-7.41189
-7.41229
-7.41267
-7.41302
-7.41332
-7.41357
-7.41373
-7.41382
-7.41382
-7.41372
-7.41355
-7.4133
-7.41299
-7.41264
-7.41225
-7.41185
-7.41146
-7.41109
-7.41076
-7.41048
-7.41026
-7.41011
-7.41003
-7.5088
-7.50887
-7.509
-7.50919
-7.50944
-7.50972
-7.51004
-7.51038
-7.51073
-7.51106
-7.51136
-7.51162
-7.51183
-7.51198
-7.51205
-7.51205
-7.51197
-7.51182
-7.5116
-7.51133
-7.51102
-7.51069
-7.51034
-7.51
-7.50968
-7.50939
-7.50914
-7.50895
-7.50882
-7.50875
-7.60738
-7.60744
-7.60756
-7.60772
-7.60794
-7.60819
-7.60846
-7.60876
-7.60905
-7.60934
-7.6096
-7.60983
-7.61
-7.61013
-7.61019
-7.61019
-7.61012
-7.60999
-7.6098
-7.60957
-7.60931
-7.60902
-7.60872
-7.60842
-7.60814
-7.60789
-7.60768
-7.60751
-7.60739
-7.60734
-7.70585
-7.7059
-7.706
-7.70614
-7.70633
-7.70654
-7.70678
-7.70703
-7.70728
-7.70753
-7.70775
-7.70794
-7.7081
-7.7082
-7.70825
-7.70825
-7.70819
-7.70808
-7.70793
-7.70773
-7.7075
-7.70725
-7.707
-7.70674
-7.7065
-7.70628
-7.7061
-7.70595
-7.70585
-7.7058
-7.80421
-7.80425
-7.80434
-7.80446
-7.80462
-7.8048
-7.805
-7.80522
-7.80543
-7.80564
-7.80583
-7.80599
-7.80612
-7.80621
-7.80626
-7.80625
-7.80621
-7.80611
-7.80598
-7.80581
-7.80562
-7.8054
-7.80519
-7.80497
-7.80476
-7.80458
-7.80442
-7.80429
-7.80421
-7.80416
-7.90247
-7.90251
-7.90258
-7.90269
-7.90282
-7.90298
-7.90315
-7.90333
-7.90351
-7.90369
-7.90385
-7.90399
-7.9041
-7.90417
-7.90421
-7.90421
-7.90416
-7.90409
-7.90397
-7.90383
-7.90367
-7.90349
-7.9033
-7.90312
-7.90294
-7.90279
-7.90265
-7.90254
-7.90247
-7.90243
-8.00065
-8.00068
-8.00074
-8.00083
-8.00095
-8.00108
-8.00122
-8.00138
-8.00153
-8.00168
-8.00181
-8.00193
-8.00202
-8.00208
-8.00212
-8.00211
-8.00208
-8.00201
-8.00192
-8.0018
-8.00166
-8.00151
-8.00135
-8.0012
-8.00105
-8.00092
-8.0008
-8.00071
-8.00065
-8.00061
-8.09875
-8.09878
-8.09883
-8.09891
-8.099
-8.09912
-8.09924
-8.09937
-8.0995
-8.09962
-8.09973
-8.09983
-8.09991
-8.09996
-8.09999
-8.09999
-8.09996
-8.0999
-8.09982
-8.09972
-8.09961
-8.09948
-8.09935
-8.09922
-8.09909
-8.09898
-8.09888
-8.0988
-8.09875
-8.09872
-8.19679
-8.19681
-8.19686
-8.19692
-8.197
-8.1971
-8.1972
-8.19731
-8.19742
-8.19752
-8.19761
-8.1977
-8.19776
-8.1978
-8.19783
-8.19783
-8.1978
-8.19776
-8.19769
-8.19761
-8.19751
-8.1974
-8.19729
-8.19718
-8.19708
-8.19698
-8.1969
-8.19683
-8.19679
-8.19676
-8.29477
-8.29479
-8.29483
-8.29488
-8.29495
-8.29503
-8.29511
-8.2952
-8.2953
-8.29538
-8.29546
-8.29553
-8.29558
-8.29562
-8.29564
-8.29564
-8.29562
-8.29558
-8.29552
-8.29545
-8.29537
-8.29529
-8.29519
-8.2951
-8.29501
-8.29493
-8.29486
-8.29481
-8.29477
-8.29475
-8.3927
-8.39272
-8.39275
-8.39279
-8.39285
-8.39292
-8.39299
-8.39306
-8.39314
-8.39321
-8.39328
-8.39334
-8.39338
-8.39341
-8.39343
-8.39343
-8.39341
-8.39338
-8.39333
-8.39327
-8.39321
-8.39313
-8.39306
-8.39298
-8.3929
-8.39284
-8.39278
-8.39273
-8.3927
-8.39268
-8.49059
-8.4906
-8.49063
-8.49066
-8.49071
-8.49077
-8.49083
-8.49089
-8.49095
-8.49101
-8.49107
-8.49112
-8.49115
-8.49118
-8.49119
-8.49119
-8.49118
-8.49115
-8.49111
-8.49107
-8.49101
-8.49095
-8.49089
-8.49082
-8.49076
-8.4907
-8.49065
-8.49062
-8.49059
-8.49057
-8.58843
-8.58845
-8.58847
-8.5885
-8.58854
-8.58859
-8.58864
-8.58869
-8.58874
-8.58879
-8.58884
-8.58888
-8.58891
-8.58893
-8.58894
-8.58894
-8.58893
-8.58891
-8.58888
-8.58884
-8.58879
-8.58874
-8.58869
-8.58863
-8.58858
-8.58853
-8.58849
-8.58846
-8.58844
-8.58843
-8.68625
-8.68626
-8.68628
-8.68631
-8.68634
-8.68638
-8.68642
-8.68646
-8.68651
-8.68655
-8.68659
-8.68662
-8.68665
-8.68666
-8.68667
-8.68667
-8.68666
-8.68665
-8.68662
-8.68659
-8.68655
-8.68651
-8.68646
-8.68642
-8.68638
-8.68634
-8.6863
-8.68628
-8.68626
-8.68625
-8.78404
-8.78405
-8.78407
-8.78409
-8.78412
-8.78415
-8.78418
-8.78422
-8.78425
-8.78429
-8.78432
-8.78435
-8.78437
-8.78438
-8.78439
-8.78439
-8.78438
-8.78437
-8.78435
-8.78432
-8.78429
-8.78425
-8.78422
-8.78418
-8.78415
-8.78411
-8.78409
-8.78406
-8.78405
-8.78404
-8.88181
-8.88182
-8.88183
-8.88185
-8.88187
-8.8819
-8.88192
-8.88195
-8.88198
-8.88201
-8.88204
-8.88206
-8.88208
-8.88209
-8.8821
-8.8821
-8.88209
-8.88208
-8.88206
-8.88204
-8.88201
-8.88199
-8.88196
-8.88193
-8.8819
-8.88187
-8.88185
-8.88183
-8.88182
-8.88181
-8.97956
-8.97957
-8.97958
-8.97959
-8.97961
-8.97963
-8.97965
-8.97968
-8.9797
-8.97972
-8.97974
-8.97976
-8.97978
-8.97979
-8.97979
-8.97979
-8.97979
-8.97978
-8.97976
-8.97975
-8.97973
-8.9797
-8.97968
-8.97965
-8.97963
-8.97961
-8.97959
-8.97958
-8.97957
-8.97956
-9.07729
-9.0773
-9.0773
-9.07732
-9.07733
-9.07735
-9.07737
-9.07739
-9.07741
-9.07742
-9.07744
-9.07746
-9.07747
-9.07748
-9.07748
-9.07748
-9.07748
-9.07747
-9.07746
-9.07744
-9.07743
-9.07741
-9.07739
-9.07737
-9.07735
-9.07733
-9.07732
-9.07731
-9.0773
-9.07729
-9.17501
-9.17501
-9.17502
-9.17503
-9.17504
-9.17506
-9.17507
-9.17509
-9.1751
-9.17512
-9.17513
-9.17514
-9.17515
-9.17516
-9.17516
-9.17516
-9.17516
-9.17515
-9.17514
-9.17513
-9.17512
-9.17511
-9.17509
-9.17507
-9.17506
-9.17505
-9.17503
-9.17502
-9.17502
-9.17501
-9.27272
-9.27272
-9.27273
-9.27273
-9.27274
-9.27275
-9.27277
-9.27278
-9.27279
-9.2728
-9.27281
-9.27282
-9.27283
-9.27284
-9.27284
-9.27284
-9.27284
-9.27283
-9.27282
-9.27282
-9.2728
-9.27279
-9.27278
-9.27277
-9.27276
-9.27275
-9.27274
-9.27273
-9.27272
-9.27272
-9.37042
-9.37042
-9.37042
-9.37043
-9.37044
-9.37044
-9.37045
-9.37046
-9.37047
-9.37048
-9.37049
-9.3705
-9.3705
-9.37051
-9.37051
-9.37051
-9.37051
-9.3705
-9.3705
-9.37049
-9.37048
-9.37048
-9.37047
-9.37046
-9.37045
-9.37044
-9.37043
-9.37043
-9.37042
-9.37042
-9.46811
-9.46811
-9.46811
-9.46812
-9.46812
-9.46813
-9.46814
-9.46814
-9.46815
-9.46816
-9.46816
-9.46817
-9.46817
-9.46818
-9.46818
-9.46818
-9.46818
-9.46817
-9.46817
-9.46816
-9.46816
-9.46815
-9.46815
-9.46814
-9.46813
-9.46813
-9.46812
-9.46812
-9.46811
-9.46811
-9.5658
-9.5658
-9.5658
-9.5658
-9.56581
-9.56581
-9.56581
-9.56582
-9.56582
-9.56583
-9.56583
-9.56584
-9.56584
-9.56584
-9.56584
-9.56584
-9.56584
-9.56584
-9.56584
-9.56583
-9.56583
-9.56583
-9.56582
-9.56582
-9.56581
-9.56581
-9.5658
-9.5658
-9.5658
-9.5658
-9.66348
-9.66348
-9.66348
-9.66348
-9.66348
-9.66349
-9.66349
-9.66349
-9.6635
-9.6635
-9.6635
-9.6635
-9.6635
-9.66351
-9.66351
-9.66351
-9.66351
-9.66351
-9.6635
-9.6635
-9.6635
-9.6635
-9.66349
-9.66349
-9.66349
-9.66349
-9.66348
-9.66348
-9.66348
-9.66348
-9.76116
-9.76116
-9.76116
-9.76116
-9.76116
-9.76116
-9.76116
-9.76116
-9.76117
-9.76117
-9.76117
-9.76117
-9.76117
-9.76117
-9.76117
-9.76117
-9.76117
-9.76117
-9.76117
-9.76117
-9.76117
-9.76117
-9.76116
-9.76116
-9.76116
-9.76116
-9.76116
-9.76116
-9.76116
-9.76116
4851.1
4851.1
4851.1
4851.1
4851.1
4851.1
4851.1
4851.1
4851.1
4851.1
4851.1
4851.1
4851.1
4851.1
4851.1
4851.1
4851.1
4851.1
4851.1
4851.1
4851.1
4851.1
4851.1
4851.1
4851.1
4851.1
4851.1
4851.1
4851.1
4851.1
4753
4753
4753
4753
4753
4753
4753
4753
4753
4753
4753
4753
4753
4753
4753
4753
4753
4753
4753
4753
4753
4753
4753
4753
4753
4753
4753
4753
4753
4753
4654.9
4654.9
4654.9
4654.9
4654.9
4654.9
4654.9
4654.9
4654.9
4654.9
4654.9
4654.9
4654.9
4654.9
4654.9
4654.9
4654.9
4654.9
4654.9
4654.9
4654.9
4654.9
4654.9
4654.9
4654.9
4654.9
4654.9
4654.9
4654.9
4654.9
4556.8
4556.8
4556.8
4556.8
4556.8
4556.8
4556.8
4556.8
4556.8
4556.8
4556.8
4556.8
4556.8
4556.8
4556.8
4556.8
4556.8
4556.8
4556.8
4556.8
4556.8
4556.8
4556.8
4556.8
4556.8
4556.8
4556.8
4556.8
4556.8
4556.8
4458.7
4458.7
4458.7
4458.7
4458.7
4458.7
4458.7
4458.7
4458.7
4458.7
4458.7
4458.7
4458.7
4458.7
4458.7
4458.7
4458.7
4458.7
4458.7
4458.7
4458.7
4458.7
4458.7
4458.7
4458.7
4458.7
4458.7
4458.7
4458.7
4458.7
4360.6
4360.6
4360.6
4360.6
4360.6
4360.6
4360.6
4360.6
4360.6
4360.6
4360.6
4360.6
4360.6
4360.6
4360.6
4360.6
4360.6
4360.6
4360.6
4360.6
4360.6
4360.6
4360.6
4360.6
4360.6
4360.6
4360.6
4360.6
4360.6
4360.6
4262.5
4262.5
4262.5
4262.5
4262.5
4262.5
4262.5
4262.5
4262.5
4262.5
4262.5
4262.5
4262.5
4262.5
4262.5
4262.5
4262.5
4262.5
4262.5
4262.5
4262.5
4262.5
4262.5
4262.5
4262.5
4262.5
4262.5
4262.5
4262.5
4262.5
4164.4
4164.4
4164.4
4164.4
4164.4
4164.4
4164.4
4164.4
4164.4
4164.4
4164.4
4164.4
4164.4
4164.4
4164.4
4164.4
4164.4
4164.4
4164.4
4164.4
4164.4
4164.4
4164.4
4164.4
4164.4
4164.4
4164.4
4164.4
4164.4
4164.4
4066.3
4066.3
4066.3
4066.3
4066.3
4066.3
4066.3
4066.3
4066.3
4066.3
4066.3
4066.3
4066.3
4066.3
4066.3
4066.3
4066.3
4066.3
4066.3
4066.3
4066.3
4066.3
4066.3
4066.3
4066.3
4066.3
4066.3
4066.3
4066.3
4066.3
3968.2
3968.2
3968.2
3968.2
3968.2
3968.2
3968.2
3968.2
3968.2
3968.2
3968.2
3968.2
3968.2
3968.2
3968.2
3968.2
3968.2
3968.2
3968.2
3968.2
3968.2
3968.2
3968.2
3968.2
3968.2
3968.2
3968.2
3968.2
3968.2
3968.2
3870.1
3870.1
3870.1
3870.1
3870.1
3870.1
3870.1
3870.1
3870.1
3870.1
3870.1
3870.1
3870.1
3870.1
3870.1
3870.1
3870.1
3870.1
3870.1
3870.1
3870.1
3870.1
3870.1
3870.1
3870.1
3870.1
3870.1
3870.1
3870.1
3870.1
3772
3772
3772
3772
3772
3772
3772
3772
3772
3772
3772
3772
3772
3772
3772
3772
3772
3772
3772
3772
3772
3772
3772
3772
3772
3772
3772
3772
3772
3772
3673.9
3673.9
3673.9
3673.9
3673.9
3673.9
3673.9
3673.9
3673.9
3673.9
3673.9
3673.9
3673.9
3673.9
3673.9
3673.9
3673.9
3673.9
3673.9
3673.9
3673.9
3673.9
3673.9
3673.9
3673.9
3673.9
3673.9
3673.9
3673.9
3673.9
3575.8
3575.8
3575.8
3575.8
3575.8
3575.8
3575.8
3575.8
3575.8
3575.8
3575.8
3575.8
3575.8
3575.8
3575.8
3575.8
3575.8
3575.8
3575.8
3575.8
3575.8
3575.8
3575.8
3575.8
3575.8
3575.8
3575.8
3575.8
3575.8
3575.8
3477.7
3477.7
3477.7
3477.7
3477.7
3477.7
3477.7
3477.7
3477.7
3477.7
3477.7
3477.7
3477.7
3477.7
3477.7
3477.7
3477.7
3477.7
3477.7
3477.7
3477.7
3477.7
3477.7
3477.7
3477.7
3477.7
3477.7
3477.7
3477.7
3477.7
3379.6
3379.6
3379.6
3379.6
3379.6
3379.6
3379.6
3379.6
3379.6
3379.6
3379.6
3379.6
3379.6
3379.6
3379.6
3379.6
3379.6
3379.6
3379.6
3379.6
3379.6
3379.6
3379.6
3379.6
3379.6
3379.6
3379.6
3379.6
3379.6
3379.6
3281.5
3281.5
3281.5
3281.5
3281.5
3281.5
3281.5
3281.5
3281.5
3281.5
3281.5
3281.5
3281.5
3281.5
3281.5
3281.5
3281.5
3281.5
3281.5
3281.5
3281.5
3281.5
3281.5
3281.5
3281.5
3281.5
3281.5
3281.5
3281.5
3281.5
3183.4
3183.4
3183.4
3183.4
3183.4
3183.4
3183.4
3183.4
3183.4
3183.4
3183.4
3183.4
3183.4
3183.4
3183.4
3183.4
3183.4
3183.4
3183.4
3183.4
3183.4
3183.4
3183.4
3183.4
3183.4
3183.4
3183.4
3183.4
3183.4
3183.4
3085.3
3085.3
3085.3
3085.3
3085.3
3085.3
3085.3
3085.3
3085.3
3085.3
3085.3
3085.3
3085.3
3085.3
3085.3
3085.3
3085.3
3085.3
3085.3
3085.3
3085.3
3085.3
3085.3
3085.3
3085.3
3085.3
3085.3
3085.3
3085.3
3085.3
2987.2
2987.2
2987.2
2987.2
2987.2
2987.2
2987.2
2987.2
2987.2
2987.2
2987.2
2987.2
2987.2
2987.2
2987.2
2987.2
2987.2
2987.2
2987.2
2987.2
2987.2
2987.2
2987.2
2987.2
2987.2
2987.2
2987.2
2987.2
2987.2
2987.2
2889.1
2889.1
2889.1
2889.1
2889.1
2889.1
2889.1
2889.1
2889.1
2889.1
2889.1
2889.1
2889.1
2889.1
2889.1
2889.1
2889.1
2889.1
2889.1
2889.1
2889.1
2889.1
2889.1
2889.1
2889.1
2889.1
2889.1
2889.1
2889.1
2889.1
2791
2791
2791
2791
2791
2791
2791
2791
2791
2791
2791
2791
2791
2791
2791
2791
2791
2791
2791
2791
2791
2791
2791
2791
2791
2791
2791
2791
2791
2791
2692.9
2692.9
2692.9
2692.9
2692.9
2692.9
2692.9
2692.9
2692.9
2692.9
2692.9
2692.9
2692.9
2692.9
2692.9
2692.9
2692.9
2692.9
2692.9
2692.9
2692.9
2692.9
2692.9
2692.9
2692.9
2692.9
2692.9
2692.9
2692.9
2692.9
2594.81