/*--------------------------------*- C++ -*----------------------------------*\
| =========                 |                                                 |
| \\      /  F ield         | OpenFOAM: The Open Source CFD Toolbox           |
|  \\    /   O peration     | Version:  2312                                  |
|   \\  /    A nd           | Website:  www.openfoam.com                      |
|    \\/     M anipulation  |                                                 |
\*---------------------------------------------------------------------------*/
FoamFile
{
    version     2.0;
    format      ascii;
    arch        "LSB;label=32;scalar=64";
    class       volScalarField;
    location    "0.0470981";
    object      p_rgh;
}
// * * * * * * * * * * * * * * * * * * * * * * * * * * * * * * * * * * * * * //

dimensions      [1 -1 -2 0 0 0 0];

internalField   nonuniform List<scalar> 
90000
(
4900.15
4900.15
4900.15
4900.15
4900.15
4900.15
4900.15
4900.15
4900.15
4900.15
4900.15
4900.15
4900.15
4900.15
4900.15
4900.15
4900.15
4900.15
4900.15
4900.15
4900.15
4900.15
4900.15
4900.15
4900.15
4900.15
4900.15
4900.15
4900.15
4900.15
4900.15
4900.15
4900.15
4900.15
4900.15
4900.15
4900.15
4900.15
4900.15
4900.15
4900.15
4900.15
4900.15
4900.15
4900.15
4900.15
4900.15
4900.15
4900.15
4900.15
4900.15
4900.15
4900.15
4900.15
4900.15
4900.15
4900.15
4900.15
4900.15
4900.15
4900.15
4900.15
4900.15
4900.15
4900.15
4900.15
4900.15
4900.15
4900.15
4900.15
4900.15
4900.15
4900.15
4900.15
4900.15
4900.15
4900.15
4900.15
4900.15
4900.15
4900.15
4900.15
4900.15
4900.15
4900.15
4900.15
4900.15
4900.15
4900.15
4900.15
4900.15
4900.15
4900.15
4900.15
4900.15
4900.15
4900.15
4900.15
4900.15
4900.15
4900.15
4900.15
4900.15
4900.15
4900.15
4900.15
4900.15
4900.15
4900.15
4900.15
4900.15
4900.15
4900.15
4900.15
4900.15
4900.15
4900.15
4900.15
4900.15
4900.15
4900.15
4900.15
4900.15
4900.15
4900.15
4900.15
4900.15
4900.15
4900.15
4900.15
4900.15
4900.15
4900.15
4900.15
4900.15
4900.15
4900.15
4900.15
4900.15
4900.15
4900.15
4900.15
4900.15
4900.15
4900.15
4900.15
4900.15
4900.15
4900.15
4900.15
4900.15
4900.15
4900.15
4900.15
4900.15
4900.15
4900.15
4900.15
4900.15
4900.15
4900.15
4900.15
4900.15
4900.15
4900.15
4900.15
4900.15
4900.15
4900.15
4900.15
4900.15
4900.15
4900.15
4900.15
4900.15
4900.15
4900.15
4900.15
4900.15
4900.15
4900.15
4900.15
4900.15
4900.15
4900.15
4900.15
4900.15
4900.15
4900.15
4900.15
4900.15
4900.15
4900.15
4900.15
4900.15
4900.15
4900.15
4900.15
4900.15
4900.15
4900.15
4900.15
4900.15
4900.15
4900.15
4900.15
4900.15
4900.15
4900.15
4900.15
4900.15
4900.15
4900.15
4900.15
4900.15
4900.15
4900.15
4900.15
4900.15
4900.15
4900.15
4900.15
4900.15
4900.15
4900.15
4900.15
4900.15
4900.15
4900.15
4900.15
4900.15
4900.15
4900.15
4900.15
4900.15
4900.15
4900.15
4900.15
4900.15
4900.15
4900.15
4900.15
4900.15
4900.15
4900.15
4900.15
4900.15
4900.15
4900.15
4900.15
4900.15
4900.15
4900.15
4900.15
4900.15
4900.15
4900.15
4900.15
4900.15
4900.15
4900.15
4900.15
4900.15
4900.15
4900.15
4900.15
4900.15
4900.15
4900.15
4900.15
4900.15
4900.15
4900.15
4900.15
4900.15
4900.15
4900.15
4900.15
4900.15
4900.15
4900.15
4900.15
4900.15
4900.15
4900.15
4900.15
4900.15
4900.15
4900.15
4900.15
4900.15
4900.15
4900.15
4900.15
4900.15
4900.15
4900.15
4900.15
4900.15
4900.15
4900.15
4900.15
4900.15
4900.15
4900.15
4900.15
4900.15
4900.15
4900.15
4900.15
4900.15
4900.15
4900.15
4900.15
4900.15
4900.15
4900.15
4900.15
4900.15
4900.15
4900.15
4900.15
4900.15
4900.15
4900.15
4900.15
4900.15
4900.15
4900.15
4900.15
4900.15
4900.15
4900.15
4900.15
4900.15
4900.15
4900.15
4900.15
4900.15
4900.15
4900.15
4900.15
4900.15
4900.15
4900.15
4900.15
4900.15
4900.15
4900.15
4900.15
4900.15
4900.15
4900.15
4900.15
4900.15
4900.15
4900.15
4900.15
4900.15
4900.15
4900.15
4900.15
4900.15
4900.15
4900.15
4900.15
4900.15
4900.15
4900.15
4900.15
4900.15
4900.15
4900.15
4900.15
4900.15
4900.15
4900.15
4900.15
4900.15
4900.15
4900.15
4900.15
4900.15
4900.15
4900.15
4900.15
4900.15
4900.15
4900.15
4900.15
4900.15
4900.15
4900.15
4900.15
4900.15
4900.15
4900.15
4900.15
4900.15
4900.15
4900.15
4900.15
4900.15
4900.15
4900.15
4900.15
4900.15
4900.15
4900.15
4900.15
4900.15
4900.15
4900.15
4900.15
4900.15
4900.15
4900.15
4900.15
4900.15
4900.15
4900.15
4900.15
4900.15
4900.15
4900.15
4900.15
4900.15
4900.15
4900.15
4900.15
4900.15
4900.15
4900.15
4900.15
4900.15
4900.15
4900.15
4900.15
4900.15
4900.15
4900.15
4900.15
4900.15
4900.15
4900.15
4900.15
4900.15
4900.15
4900.15
4900.15
4900.15
4900.15
4900.15
4900.15
4900.15
4900.15
4900.15
4900.15
4900.15
4900.15
4900.15
4900.15
4900.15
4900.15
4900.15
4900.15
4900.15
4900.15
4900.15
4900.15
4900.15
4900.15
4900.15
4900.15
4900.15
4900.15
4900.15
4900.15
4900.15
4900.15
4900.15
4900.15
4900.15
4900.15
4900.15
4900.15
4900.15
4900.15
4900.15
4900.15
4900.15
4900.15
4900.15
4900.15
4900.15
4900.15
4900.15
4900.15
4900.15
4900.15
4900.15
4900.15
4900.15
4900.15
4900.15
4900.15
4900.15
4900.15
4900.15
4900.15
4900.15
4900.15
4900.15
4900.15
4900.15
4900.15
4900.15
4900.15
4900.15
4900.15
4900.15
4900.15
4900.15
4900.15
4900.15
4900.15
4900.15
4900.15
4900.15
4900.15
4900.15
4900.15
4900.15
4900.15
4900.15
4900.15
4900.15
4900.15
4900.15
4900.15
4900.15
4900.15
4900.15
4900.15
4900.15
4900.15
4900.15
4900.15
4900.15
4900.15
4900.15
4900.15
4900.15
4900.15
4900.15
4900.15
4900.15
4900.15
4900.15
4900.15
4900.15
4900.15
4900.15
4900.15
4900.15
4900.15
4900.15
4900.15
4900.15
4900.15
4900.15
4900.15
4900.15
4900.15
4900.15
4900.15
4900.15
4900.15
4900.15
4900.15
4900.15
4900.15
4900.15
4900.15
4900.15
4900.15
4900.15
4900.15
4900.15
4900.15
4900.15
4900.15
4900.15
4900.15
4900.15
4900.15
4900.15
4900.15
4900.15
4900.15
4900.15
4900.15
4900.15
4900.15
4900.15
4900.15
4900.15
4900.15
4900.15
4900.15
4900.15
4900.15
4900.15
4900.15
4900.15
4900.15
4900.15
4900.15
4900.15
4900.15
4900.15
4900.15
4900.15
4900.15
4900.15
4900.15
4900.15
4900.15
4900.15
4900.15
4900.15
4900.15
4900.15
4900.15
4900.15
4900.15
4900.15
4900.15
4900.15
4900.15
4900.15
4900.15
4900.15
4900.15
4900.15
4900.15
4900.15
4900.15
4900.15
4900.15
4900.15
4900.15
4900.15
4900.15
4900.15
4900.15
4900.15
4900.15
4900.15
4900.15
4900.15
4900.15
4900.15
4900.15
4900.15
4900.15
4900.15
4900.15
4900.15
4900.15
4900.15
4900.15
4900.15
4900.15
4900.15
4900.15
4900.15
4900.15
4900.15
4900.15
4900.15
4900.15
4900.15
4900.15
4900.15
4900.15
4900.15
4900.15
4900.15
4900.15
4900.16
4900.16
4900.16
4900.16
4900.16
4900.16
4900.16
4900.16
4900.16
4900.16
4900.16
4900.16
4900.16
4900.16
4900.16
4900.16
4900.16
4900.16
4900.16
4900.16
4900.16
4900.16
4900.16
4900.16
4900.16
4900.16
4900.16
4900.16
4900.16
4900.16
4900.16
4900.16
4900.16
4900.16
4900.16
4900.16
4900.16
4900.16
4900.16
4900.16
4900.16
4900.16
4900.16
4900.16
4900.16
4900.16
4900.16
4900.16
4900.16
4900.16
4900.16
4900.16
4900.16
4900.16
4900.16
4900.16
4900.16
4900.16
4900.16
4900.16
4900.16
4900.16
4900.16
4900.16
4900.16
4900.16
4900.16
4900.16
4900.16
4900.16
4900.16
4900.16
4900.16
4900.16
4900.16
4900.16
4900.16
4900.16
4900.16
4900.16
4900.16
4900.16
4900.16
4900.16
4900.16
4900.16
4900.16
4900.16
4900.16
4900.16
4900.16
4900.16
4900.16
4900.16
4900.16
4900.16
4900.16
4900.16
4900.16
4900.16
4900.16
4900.16
4900.16
4900.16
4900.16
4900.16
4900.16
4900.16
4900.16
4900.16
4900.16
4900.16
4900.16
4900.16
4900.16
4900.16
4900.16
4900.16
4900.16
4900.16
4900.16
4900.16
4900.16
4900.16
4900.16
4900.16
4900.16
4900.16
4900.16
4900.16
4900.16
4900.16
4900.16
4900.16
4900.16
4900.16
4900.16
4900.16
4900.16
4900.16
4900.16
4900.16
4900.16
4900.16
4900.16
4900.16
4900.16
4900.16
4900.16
4900.16
4900.16
4900.16
4900.16
4900.16
4900.16
4900.16
4900.16
4900.16
4900.16
4900.16
4900.16
4900.16
4900.16
4900.16
4900.16
4900.16
4900.16
4900.16
4900.16
4900.16
4900.16
4900.16
4900.16
4900.16
4900.16
4900.16
4900.16
4900.16
4900.16
4900.16
4900.16
4900.16
4900.16
4900.16
4900.16
4900.16
4900.16
4900.16
4900.16
4900.16
4900.16
4900.16
4900.16
4900.16
4900.16
4900.16
4900.16
4900.16
4900.16
4900.16
4900.16
4900.16
4900.16
4900.16
4900.16
4900.16
4900.16
4900.16
4900.16
4900.16
4900.16
4900.16
4900.16
4900.16
4900.16
4900.16
4900.16
4900.16
4900.16
4900.16
4900.16
4900.16
4900.16
4900.16
4900.16
4900.16
4900.16
4900.16
4900.16
4900.16
4900.16
4900.16
4900.16
4900.16
4900.16
4900.16
4900.16
4900.16
4900.16
4900.16
4900.16
4900.16
4900.16
4900.16
4900.16
4900.16
4900.16
4900.16
4900.16
4900.16
4900.16
4900.16
4900.16
4900.16
4900.16
4900.16
4900.16
4900.16
4900.16
4900.16
4900.16
4900.16
4900.16
4900.16
4900.16
4900.16
4900.16
4900.16
4900.16
4900.16
4900.16
4900.16
4900.16
4900.16
4900.16
4900.16
4900.16
4900.16
4900.16
4900.16
4900.16
4900.16
4900.16
4900.16
4900.16
4900.16
4900.16
4900.16
4900.16
4900.16
4900.16
4900.16
4900.16
4900.16
4900.16
4900.16
4900.16
4900.16
4900.16
4900.16
4900.16
4900.16
4900.16
4900.16
4900.16
4900.16
4900.16
4900.16
4900.16
4900.16
4900.16
4900.16
4900.16
4900.16
4900.16
4900.16
4900.16
4900.16
4900.16
4900.16
4900.16
4900.16
4900.16
4900.16
4900.16
4900.16
4900.16
4900.16
4900.16
4900.16
4900.16
4900.16
4900.16
4900.16
4900.16
4900.16
4900.16
4900.16
4900.16
4900.16
4900.16
4900.16
4900.16
4900.16
4900.16
4900.16
4900.16
4900.16
4900.16
4900.16
4900.16
4900.16
4900.16
4900.16
4900.16
4900.16
4900.16
4900.16
4900.16
4900.16
4900.16
4900.16
4900.16
4900.16
4900.16
4900.16
4900.16
4900.16
4900.16
4900.16
4900.16
4900.16
4900.16
4900.16
4900.16
4900.16
4900.16
4900.16
4900.16
4900.16
4900.16
4900.16
4900.16
4900.16
4900.16
4900.16
4900.16
4900.16
4900.16
4900.16
4900.16
4900.16
4900.16
4900.16
4900.16
4900.16
4900.16
4900.16
4900.16
4900.16
4900.17
4900.17
4900.17
4900.17
4900.17
4900.17
4900.17
4900.17
4900.17
4900.17
4900.16
4900.16
4900.16
4900.16
4900.16
4900.16
4900.16
4900.16
4900.16
4900.16
4900.16
4900.16
4900.16
4900.16
4900.16
4900.16
4900.16
4900.16
4900.17
4900.17
4900.17
4900.17
4900.17
4900.17
4900.17
4900.17
4900.17
4900.17
4900.17
4900.17
4900.17
4900.17
4900.17
4900.16
4900.16
4900.16
4900.16
4900.16
4900.16
4900.16
4900.16
4900.16
4900.16
4900.16
4900.16
4900.17
4900.17
4900.17
4900.17
4900.17
4900.17
4900.17
4900.17
4900.17
4900.17
4900.17
4900.17
4900.17
4900.17
4900.17
4900.17
4900.17
4900.17
4900.17
4900.17
4900.16
4900.16
4900.16
4900.16
4900.16
4900.16
4900.16
4900.16
4900.17
4900.17
4900.17
4900.17
4900.17
4900.17
4900.17
4900.17
4900.17
4900.17
4900.17
4900.17
4900.17
4900.17
4900.17
4900.17
4900.17
4900.17
4900.17
4900.17
4900.17
4900.17
4900.17
4900.17
4900.17
4900.17
4900.16
4900.17
4900.17
4900.17
4900.17
4900.17
4900.17
4900.17
4900.17
4900.17
4900.17
4900.17
4900.17
4900.17
4900.17
4900.17
4900.17
4900.17
4900.17
4900.17
4900.17
4900.17
4900.17
4900.17
4900.17
4900.17
4900.17
4900.17
4900.17
4900.17
4900.17
4900.17
4900.17
4900.17
4900.17
4900.17
4900.17
4900.17
4900.17
4900.17
4900.17
4900.17
4900.17
4900.17
4900.17
4900.17
4900.17
4900.17
4900.17
4900.17
4900.17
4900.17
4900.17
4900.17
4900.17
4900.17
4900.17
4900.17
4900.17
4900.17
4900.17
4900.17
4900.17
4900.17
4900.17
4900.17
4900.17
4900.17
4900.17
4900.17
4900.17
4900.17
4900.17
4900.17
4900.17
4900.17
4900.17
4900.17
4900.17
4900.17
4900.17
4900.17
4900.17
4900.17
4900.17
4900.17
4900.17
4900.17
4900.17
4900.17
4900.17
4900.17
4900.17
4900.17
4900.17
4900.17
4900.17
4900.17
4900.17
4900.17
4900.17
4900.17
4900.17
4900.17
4900.17
4900.17
4900.17
4900.17
4900.17
4900.17
4900.17
4900.17
4900.17
4900.17
4900.17
4900.17
4900.17
4900.17
4900.17
4900.17
4900.17
4900.17
4900.17
4900.17
4900.17
4900.17
4900.17
4900.17
4900.17
4900.17
4900.17
4900.17
4900.17
4900.17
4900.17
4900.17
4900.17
4900.17
4900.17
4900.17
4900.17
4900.17
4900.17
4900.17
4900.17
4900.17
4900.17
4900.17
4900.17
4900.17
4900.17
4900.16
4900.17
4900.17
4900.17
4900.17
4900.17
4900.17
4900.17
4900.17
4900.17
4900.17
4900.17
4900.17
4900.17
4900.17
4900.17
4900.17
4900.17
4900.17
4900.17
4900.17
4900.17
4900.17
4900.17
4900.17
4900.17
4900.17
4900.17
4900.17
4900.17
4900.16
4900.16
4900.16
4900.16
4900.17
4900.17
4900.17
4900.17
4900.17
4900.17
4900.17
4900.17
4900.17
4900.17
4900.17
4900.17
4900.17
4900.17
4900.17
4900.17
4900.17
4900.17
4900.17
4900.17
4900.17
4900.17
4900.16
4900.16
4900.16
4900.16
4900.16
4900.16
4900.16
4900.16
4900.16
4900.16
4900.16
4900.17
4900.17
4900.17
4900.17
4900.17
4900.17
4900.17
4900.17
4900.17
4900.17
4900.17
4900.17
4900.17
4900.17
4900.17
4900.17
4900.17
4900.16
4900.16
4900.16
4900.16
4900.16
4900.16
4900.16
4900.17
4900.16
4900.17
4900.16
4900.17
4900.17
4900.17
4900.17
4900.17
4900.17
4900.17
4900.17
4900.17
4900.17
4900.17
4900.17
4900.17
4900.17
4900.17
4900.17
4900.17
4900.17
4900.17
4900.17
4900.17
4900.17
4900.17
4900.17
4900.17
4899.46
4899.96
4899.87
4900.09
4900.06
4900.06
4900.06
4900.06
4900.07
4900.08
4900.08
4900.09
4900.1
4900.1
4900.1
4900.1
4900.1
4900.09
4900.09
4900.08
4900.07
4900.07
4900.06
4900.05
4899.97
4899.84
4899.77
4899.64
4899.5
4899.47
0.936331
0.480243
0.555856
0.342623
0.364281
0.368869
0.36399
0.359301
0.348919
0.338104
0.328297
0.319051
0.311817
0.307319
0.305165
0.305462
0.309987
0.317072
0.323674
0.332641
0.34304
0.354889
0.367305
0.38146
0.460447
0.589235
0.666735
0.795043
0.924672
0.973696
0.0562937
0.0566592
0.0575168
0.0583998
0.0593953
0.0604988
0.0617299
0.063108
0.0645766
0.0660308
0.0673963
0.0686113
0.0696053
0.0703098
0.0707082
0.070748
0.0704172
0.0697511
0.0687766
0.0675858
0.066261
0.064859
0.0634416
0.0620335
0.0606818
0.059466
0.0585158
0.0578048
0.0573474
0.0571082
0.0555334
0.0561646
0.0569053
0.0577252
0.0586473
0.0596863
0.0609086
0.0622789
0.0637048
0.0651141
0.0664426
0.0676248
0.0685818
0.0692768
0.0696536
0.0696993
0.0693953
0.0687377
0.0677841
0.0666292
0.065344
0.0639926
0.0626074
0.0612431
0.0599182
0.0587738
0.0578466
0.0569909
0.05629
0.0565445
0.0544059
0.0550961
0.055659
0.0563081
0.0571479
0.0581768
0.0593715
0.0606773
0.0620234
0.0633527
0.0646126
0.0657371
0.0666507
0.0673157
0.0676809
0.0677118
0.0674064
0.0667798
0.0658894
0.0647983
0.0635846
0.062302
0.0609893
0.0596999
0.0584741
0.0573965
0.0565818
0.0559778
0.0552196
0.0551761
0.0529899
0.0532906
0.0537432
0.0543854
0.0552017
0.0561669
0.0572569
0.0584369
0.0596634
0.060892
0.0620704
0.0631271
0.0639882
0.0645975
0.0649211
0.0649475
0.064676
0.0641134
0.0632975
0.0622908
0.0611735
0.0600021
0.0588155
0.0576399
0.0565148
0.0554987
0.0546466
0.0539976
0.0533843
0.0531819
0.0503197
0.0504169
0.0508461
0.0514434
0.052176
0.0530306
0.0539965
0.0550527
0.0561647
0.0572884
0.0583684
0.059334
0.060119
0.0606736
0.0609687
0.0609927
0.0607411
0.060222
0.059469
0.0585425
0.0575164
0.0564485
0.0553812
0.0543365
0.0533476
0.0524776
0.0517679
0.0512234
0.0507791
0.0505648
0.046919
0.0471213
0.0474899
0.0479803
0.0485865
0.0493038
0.050124
0.0510295
0.0519899
0.0529637
0.0539006
0.0547392
0.0554206
0.0559003
0.0561518
0.0561634
0.0559325
0.0554695
0.054804
0.0539882
0.0530865
0.0521564
0.0512429
0.0503698
0.0495573
0.0488505
0.0482924
0.047887
0.0476026
0.0474656
0.043684
0.0438952
0.0441482
0.0444946
0.0449421
0.0454878
0.0461225
0.0468294
0.0475828
0.048349
0.0490888
0.0497564
0.0503053
0.0506975
0.0509087
0.0509279
0.0507541
0.0503972
0.0498806
0.0492427
0.0485319
0.047796
0.0470749
0.0463926
0.0457608
0.0452019
0.044747
0.0444104
0.0441849
0.0440726
0.0402442
0.0403627
0.0405066
0.0407242
0.0410218
0.0413955
0.0418358
0.0423282
0.0428533
0.0433875
0.0439047
0.0443753
0.0447682
0.0450558
0.0452187
0.0452472
0.0451407
0.0449065
0.0445606
0.0441276
0.0436384
0.0431255
0.0426181
0.0421359
0.0416877
0.0412827
0.0409377
0.0406667
0.0404759
0.0403692
0.0363472
0.0363717
0.0364347
0.0365503
0.0367185
0.0369338
0.0371881
0.0374708
0.0377698
0.0380723
0.0383649
0.0386327
0.0388597
0.0390304
0.0391328
0.0391602
0.0391117
0.0389917
0.0388086
0.0385749
0.0383061
0.0380193
0.037731
0.0374538
0.0371941
0.0369556
0.0367456
0.0365731
0.0364458
0.0363692
0.0321616
0.0321264
0.0321287
0.0321571
0.0322067
0.0322721
0.0323476
0.0324282
0.0325098
0.0325896
0.0326658
0.0327369
0.0328003
0.0328521
0.0328888
0.0329076
0.0329079
0.0328905
0.032857
0.0328092
0.0327495
0.0326809
0.0326077
0.0325339
0.032462
0.032393
0.0323289
0.0322738
0.0322323
0.0322076
0.0279704
0.0279039
0.0278548
0.0278
0.0277338
0.027653
0.0275561
0.0274439
0.0273201
0.0271911
0.0270658
0.0269541
0.0268652
0.0268058
0.0267801
0.0267897
0.0268341
0.0269111
0.0270153
0.0271394
0.0272741
0.0274103
0.0275408
0.0276611
0.027768
0.0278592
0.027934
0.0279927
0.0280363
0.0280654
0.0239701
0.0238884
0.0237904
0.0236535
0.0234749
0.0232551
0.0229971
0.0227077
0.0223973
0.0220806
0.0217756
0.0215022
0.0212793
0.0211227
0.0210434
0.0210466
0.0211322
0.0212947
0.021523
0.0218011
0.0221102
0.022431
0.0227464
0.0230433
0.0233124
0.0235472
0.023744
0.0239003
0.0240147
0.024086
0.020248
0.0201552
0.020009
0.0197949
0.0195141
0.0191705
0.0187716
0.0183292
0.0178597
0.0173846
0.0169294
0.0165219
0.0161889
0.0159533
0.0158314
0.0158315
0.0159535
0.0161893
0.0165228
0.0169311
0.0173875
0.0178646
0.0183375
0.0187855
0.0191933
0.0195498
0.0198479
0.0200826
0.0202506
0.02035
0.0168196
0.0167136
0.016524
0.0162443
0.0158788
0.0154347
0.0149229
0.0143594
0.0137655
0.0131679
0.0125978
0.0120888
0.0116731
0.0113788
0.0112258
0.0112247
0.0113756
0.0116683
0.0120829
0.0125915
0.0131617
0.0137604
0.0143565
0.0149239
0.0154418
0.0158948
0.0162724
0.0165673
0.0167745
0.0168911
0.0136748
0.0135555
0.0133322
0.0130037
0.012576
0.0120588
0.0114659
0.0108166
0.0101359
0.00945422
0.00880651
0.00822973
0.0077596
0.00742685
0.00725387
0.00725242
0.00742269
0.00775328
0.00822197
0.00879806
0.00944585
0.0101284
0.0108111
0.0114634
0.0120607
0.0125842
0.01302
0.0133585
0.0135933
0.0137207
0.0108083
0.0106798
0.0104352
0.0100757
0.00960873
0.00904583
0.00840324
0.00770264
0.00697141
0.00624233
0.00555219
0.00493946
0.00444106
0.00408874
0.00390573
0.00390425
0.00408446
0.0044345
0.00493135
0.00554337
0.00623366
0.00696379
0.007697
0.00840062
0.00904731
0.00961548
0.0100889
0.0104559
0.0107086
0.0108421
0.00822296
0.00809132
0.00783675
0.00746219
0.00697637
0.00639232
0.00572797
0.00500657
0.00425682
0.00351233
0.00281022
0.00218879
0.00168454
0.00132873
0.00114421
0.00114301
0.00132525
0.00167917
0.00218212
0.002803
0.00350541
0.0042511
0.00500299
0.00572748
0.00639591
0.00698498
0.00747672
0.00785786
0.00811912
0.00825493
0.00591982
0.00578995
0.00553434
0.00515778
0.00467005
0.00408529
0.00342242
0.00270541
0.00196326
0.00122924
0.000539534
-6.89579e-05
-0.0005614
-0.000908098
-0.0010874
-0.00108796
-0.000909721
-0.000563873
-7.19044e-05
0.000536641
0.00122704
0.00196245
0.00270675
0.00342668
0.00409328
0.00468255
0.00517548
0.00555775
0.00581914
0.00595341
0.00389095
0.00376587
0.00351598
0.00314772
0.00267162
0.0021024
0.00145932
0.000766327
5.17957e-05
-0.000652219
-0.00131138
-0.00189107
-0.00235891
-0.00268746
-0.0028568
-0.0028565
-0.00268656
-0.00235732
-0.00188865
-0.00130789
-0.000647364
5.83712e-05
0.000775033
0.00147062
0.00211679
0.00268961
0.00316974
0.00354235
0.00379672
0.00392618
0.00212051
0.0020019
0.00176287
0.00141091
0.000956836
0.000415449
-0.00019421
-0.000848884
-0.00152146
-0.00218178
-0.00279795
-0.00333818
-0.00377299
-0.00407756
-0.00423394
-0.00423277
-0.00407404
-0.00376716
-0.00333007
-0.00278759
-0.0021692
-0.00150666
-0.000831823
-0.000174802
0.000437336
0.000981359
0.00143821
0.00179303
0.00203497
0.0021572
0.000588994
0.000477996
0.000253685
-7.61384e-05
-0.000500751
-0.00100568
-0.00157256
-0.00217934
-0.00280063
-0.0034086
-0.00397415
-0.00446859
-0.00486552
-0.00514286
-0.00528471
-0.00528277
-0.00513708
-0.00485601
-0.0044555
-0.0039577
-0.00338905
-0.00277826
-0.0021544
-0.00154531
-0.000976309
-0.000469442
-4.30391e-05
0.000288422
0.000514264
0.00062774
-0.000723405
-0.000825944
-0.00103295
-0.00133682
-0.00172722
-0.00219031
-0.0027088
-0.00326212
-0.00382698
-0.00437807
-0.00488927
-0.00533501
-0.00569198
-0.0059408
-0.00606756
-0.00606504
-0.0059333
-0.00567964
-0.00531808
-0.00486807
-0.00435301
-0.00379849
-0.00323068
-0.00267487
-0.00215436
-0.00168968
-0.00129809
-0.000993379
-0.000785814
-0.000681898
-0.00183564
-0.00192924
-0.00211753
-0.00239342
-0.00274715
-0.00316578
-0.00363332
-0.00413094
-0.00463755
-0.00513048
-0.00558653
-0.00598324
-0.00630023
-0.00652068
-0.00663256
-0.00662964
-0.00651199
-0.00628594
-0.00596363
-0.00556198
-0.00510146
-0.00460461
-0.00409467
-0.00359432
-0.00312469
-0.00270456
-0.00234991
-0.00207363
-0.00188537
-0.00179129
-0.00276585
-0.00285042
-0.00301954
-0.00326684
-0.00358329
-0.00395702
-0.00437347
-0.00481565
-0.0052647
-0.00570057
-0.00610289
-0.00645209
-0.00673055
-0.00692378
-0.00702148
-0.00701832
-0.00691437
-0.00671507
-0.00643083
-0.00607627
-0.00566908
-0.00522894
-0.00477627
-0.00433116
-0.0039125
-0.00353723
-0.00321993
-0.00297242
-0.00280365
-0.0027193
-0.00353134
-0.00360708
-0.00375731
-0.00397651
-0.00425648
-0.00458649
-0.00495344
-0.00534224
-0.00573622
-0.0061178
-0.00646927
-0.00677374
-0.00701607
-0.0071839
-0.00726845
-0.0072652
-0.00717421
-0.00700012
-0.00675181
-0.00644178
-0.00608525
-0.00569922
-0.00530146
-0.00490959
-0.0045403
-0.00420869
-0.00392784
-0.00370846
-0.00355868
-0.0034837
-0.00414845
-0.00421577
-0.00434794
-0.00454031
-0.00478556
-0.00507412
-0.0053944
-0.00573309
-0.00607563
-0.00640676
-0.00671121
-0.00697448
-0.00718368
-0.0073283
-0.00740092
-0.00739771
-0.00731873
-0.00716792
-0.0069528
-0.006684
-0.00637451
-0.00603891
-0.00569253
-0.0053507
-0.005028
-0.00473775
-0.00449154
-0.00429892
-0.00416717
-0.00410099
-0.00463238
-0.00469183
-0.0048071
-0.00497444
-0.00518738
-0.0054375
-0.00571466
-0.00600726
-0.0063027
-0.00658784
-0.00684958
-0.0070756
-0.00725493
-0.00737871
-0.00744068
-0.00743764
-0.00736963
-0.00723996
-0.007055
-0.0068237
-0.0065571
-0.00626763
-0.00596842
-0.00567267
-0.00539303
-0.00514112
-0.00492709
-0.00475935
-0.00464435
-0.00458628
-0.00499706
-0.00504927
-0.00514902
-0.00529342
-0.00547685
-0.00569198
-0.00593002
-0.00618098
-0.006434
-0.00667786
-0.00690142
-0.00709422
-0.00724701
-0.00735234
-0.00740496
-0.00740218
-0.00734405
-0.00723334
-0.00707538
-0.00687771
-0.00664964
-0.0064017
-0.00614508
-0.00589105
-0.00565052
-0.00543349
-0.00524878
-0.00510374
-0.00500401
-0.0049533
-0.00525519
-0.00530078
-0.00538651
-0.00551024
-0.00566717
-0.00585097
-0.0060541
-0.00626798
-0.00648336
-0.00669069
-0.00688055
-0.0070441
-0.0071736
-0.00726279
-0.00730728
-0.00730484
-0.0072555
-0.00716157
-0.0070275
-0.0068596
-0.00666569
-0.00645464
-0.00623591
-0.00601911
-0.00581351
-0.00562772
-0.00546931
-0.00534463
-0.00525861
-0.0052145
-0.0054183
-0.00545788
-0.00553112
-0.00563654
-0.00577004
-0.00592621
-0.00609861
-0.00627993
-0.00646232
-0.00663771
-0.00679816
-0.00693627
-0.00704554
-0.00712075
-0.00715826
-0.00715619
-0.00711458
-0.00703534
-0.00692216
-0.00678031
-0.00661631
-0.00643762
-0.0062522
-0.00606815
-0.00589335
-0.00573512
-0.00559997
-0.00549333
-0.00541946
-0.00538121
-0.0054969
-0.00553109
-0.00559336
-0.00568278
-0.00579584
-0.00592795
-0.00607363
-0.00622669
-0.0063805
-0.00652827
-0.00666334
-0.00677952
-0.0068714
-0.00693464
-0.00696619
-0.00696451
-0.0069296
-0.00686306
-0.00676795
-0.00664864
-0.00651057
-0.00635994
-0.00620344
-0.00604788
-0.00589991
-0.00576574
-0.0056509
-0.00556006
-0.00549687
-0.00546381
-0.00550069
-0.00553007
-0.00558284
-0.00565841
-0.00575383
-0.00586521
-0.0059879
-0.00611668
-0.00624597
-0.00637007
-0.00648344
-0.00658089
-0.00665794
-0.00671098
-0.00673749
-0.00673617
-0.00670703
-0.00665138
-0.00657175
-0.00647176
-0.00635592
-0.00622939
-0.00609777
-0.00596674
-0.00584192
-0.00572855
-0.00563132
-0.00555419
-0.00550032
-0.00547184
-0.00543857
-0.00546372
-0.00550829
-0.00557198
-0.0056523
-0.00574596
-0.00584902
-0.0059571
-0.00606552
-0.00616951
-0.00626444
-0.00634601
-0.00641049
-0.00645488
-0.00647712
-0.00647613
-0.0064519
-0.00640552
-0.00633906
-0.0062555
-0.00615858
-0.0060526
-0.00594221
-0.00583217
-0.00572718
-0.00563166
-0.00554959
-0.00548431
-0.00543852
-0.00541407
-0.00531874
-0.00534018
-0.00537772
-0.00543128
-0.00549874
-0.00557733
-0.00566373
-0.00575426
-0.005845
-0.00593198
-0.00601132
-0.00607947
-0.00613333
-0.00617044
-0.00618909
-0.00618837
-0.0061683
-0.00612975
-0.00607442
-0.00600477
-0.00592388
-0.00583532
-0.00574296
-0.00565078
-0.0055627
-0.00548245
-0.00541336
-0.00535829
-0.00531949
-0.00529857
-0.00514871
-0.0051669
-0.00519846
-0.00524339
-0.00529994
-0.00536575
-0.00543804
-0.00551373
-0.00558954
-0.00566215
-0.00572836
-0.0057852
-0.00583014
-0.00586113
-0.00587675
-0.00587628
-0.00585969
-0.00582772
-0.00578175
-0.00572383
-0.00565648
-0.00558266
-0.00550557
-0.00542854
-0.00535486
-0.00528762
-0.00522964
-0.00518331
-0.00515056
-0.00513274
-0.0049353
-0.00495069
-0.00497714
-0.00501475
-0.00506203
-0.00511701
-0.00517737
-0.00524051
-0.00530371
-0.00536421
-0.00541935
-0.0054667
-0.00550414
-0.00553
-0.00554308
-0.0055428
-0.00552914
-0.00550269
-0.00546459
-0.00541653
-0.00536059
-0.00529922
-0.00523507
-0.00517089
-0.00510942
-0.00505326
-0.00500475
-0.00496592
-0.00493837
-0.00492325
-0.00468467
-0.00469764
-0.00471975
-0.00475113
-0.00479054
-0.00483634
-0.00488658
-0.00493911
-0.00499167
-0.00504196
-0.0050878
-0.00512716
-0.0051583
-0.00517983
-0.00519078
-0.00519066
-0.00517945
-0.00515763
-0.00512615
-0.00508639
-0.00504007
-0.0049892
-0.00493598
-0.00488269
-0.00483159
-0.00478485
-0.00474442
-0.00471199
-0.00468891
-0.00467614
-0.00440226
-0.00441315
-0.00443156
-0.00445764
-0.00449037
-0.00452837
-0.00457005
-0.00461361
-0.00465717
-0.00469886
-0.00473685
-0.00476948
-0.00479532
-0.00481321
-0.00482237
-0.00482237
-0.00481322
-0.0047953
-0.00476938
-0.0047366
-0.00469839
-0.00465638
-0.00461239
-0.00456831
-0.00452601
-0.00448727
-0.00445372
-0.00442675
-0.00440748
-0.00439675
-0.00409282
-0.00410193
-0.00411718
-0.00413876
-0.00416582
-0.00419722
-0.00423165
-0.00426762
-0.00430359
-0.00433801
-0.00436938
-0.00439633
-0.00441769
-0.00443252
-0.00444016
-0.00444027
-0.00443284
-0.00441819
-0.00439696
-0.00437006
-0.00433867
-0.00430414
-0.00426795
-0.00423165
-0.00419678
-0.00416482
-0.0041371
-0.00411477
-0.00409877
-0.00408979
-0.00376052
-0.00376809
-0.00378066
-0.00379842
-0.00382067
-0.00384649
-0.00387477
-0.00390432
-0.00393387
-0.00396215
-0.00398793
-0.00401009
-0.00402768
-0.00403992
-0.00404627
-0.00404646
-0.00404047
-0.00402857
-0.00401127
-0.00398933
-0.00396368
-0.00393544
-0.00390583
-0.0038761
-0.00384751
-0.00382128
-0.00379849
-0.00378011
-0.00376689
-0.0037594
-0.00340895
-0.00341521
-0.0034255
-0.00344002
-0.0034582
-0.00347928
-0.00350237
-0.00352649
-0.00355061
-0.0035737
-0.00359475
-0.00361287
-0.00362726
-0.00363731
-0.00364257
-0.00364282
-0.00363804
-0.00362844
-0.00361444
-0.00359665
-0.00357584
-0.0035529
-0.00352882
-0.00350462
-0.00348133
-0.00345994
-0.00344133
-0.00342628
-0.00341543
-0.00340924
-0.00304124
-0.00304637
-0.00305473
-0.0030665
-0.00308122
-0.0030983
-0.00311699
-0.00313652
-0.00315605
-0.00317475
-0.00319181
-0.0032065
-0.0032182
-0.00322638
-0.00323071
-0.00323099
-0.00322721
-0.00321953
-0.0032083
-0.003194
-0.00317724
-0.00315876
-0.00313934
-0.00311981
-0.00310099
-0.00308368
-0.00306861
-0.00305639
-0.00304755
-0.00304246
-0.00266014
-0.00266428
-0.00267098
-0.00268041
-0.00269221
-0.00270588
-0.00272086
-0.0027365
-0.00275214
-0.00276712
-0.0027808
-0.00279259
-0.00280199
-0.0028086
-0.00281212
-0.00281241
-0.00280945
-0.00280338
-0.00279446
-0.00278308
-0.00276974
-0.002755
-0.00273951
-0.00272391
-0.00270887
-0.00269502
-0.00268294
-0.00267313
-0.002666
-0.00266187
-0.00226802
-0.0022713
-0.00227658
-0.00228402
-0.00229333
-0.00230411
-0.00231591
-0.00232824
-0.00234058
-0.0023524
-0.0023632
-0.00237252
-0.00237997
-0.00238521
-0.00238804
-0.00238831
-0.00238602
-0.00238129
-0.00237431
-0.0023654
-0.00235493
-0.00234336
-0.00233119
-0.00231892
-0.00230708
-0.00229617
-0.00228665
-0.0022789
-0.00227324
-0.00226994
-0.00186703
-0.00186955
-0.00187361
-0.00187933
-0.00188649
-0.00189479
-0.00190388
-0.00191337
-0.00192288
-0.00193198
-0.00194031
-0.0019475
-0.00195326
-0.00195733
-0.00195953
-0.00195977
-0.00195804
-0.00195443
-0.0019491
-0.00194227
-0.00193425
-0.00192538
-0.00191603
-0.00190661
-0.00189752
-0.00188913
-0.0018818
-0.00187582
-0.00187145
-0.00186887
-0.00145907
-0.00146092
-0.00146392
-0.00146814
-0.00147344
-0.00147957
-0.0014863
-0.00149332
-0.00150036
-0.0015071
-0.00151327
-0.0015186
-0.00152287
-0.00152591
-0.00152751
-0.00152771
-0.00152649
-0.00152384
-0.00151991
-0.00151489
-0.00150897
-0.00150243
-0.00149553
-0.00148858
-0.00148187
-0.00147568
-0.00147026
-0.00146583
-0.00146258
-0.00146065
-0.00104589
-0.00104714
-0.00104919
-0.00105208
-0.00105572
-0.00105994
-0.00106456
-0.00106939
-0.00107422
-0.00107886
-0.0010831
-0.00108677
-0.00108971
-0.00109176
-0.00109292
-0.00109307
-0.00109222
-0.00109044
-0.00108775
-0.00108431
-0.00108026
-0.00107577
-0.00107104
-0.00106628
-0.00106167
-0.00105742
-0.0010537
-0.00105066
-0.00104842
-0.00104707
-0.000629069
-0.000629767
-0.000630955
-0.000632645
-0.000634766
-0.000637227
-0.000639925
-0.000642746
-0.000645571
-0.000648282
-0.000650763
-0.000652905
-0.000654619
-0.000655832
-0.000656509
-0.000656603
-0.00065611
-0.000655068
-0.000653515
-0.000651512
-0.000649151
-0.000646537
-0.000643782
-0.000641005
-0.000638322
-0.000635845
-0.000633675
-0.000631897
-0.00063058
-0.00062977
-0.00021009
-0.0002103
-0.000210685
-0.000211236
-0.000211928
-0.000212731
-0.000213612
-0.000214534
-0.000215457
-0.000216344
-0.000217156
-0.000217857
-0.000218417
-0.000218813
-0.000219036
-0.00021907
-0.000218913
-0.000218579
-0.000218078
-0.000217428
-0.000216662
-0.000215812
-0.000214916
-0.000214013
-0.000213139
-0.000212333
-0.000211626
-0.000211045
-0.000210611
-0.000210328
4900.15
4900.15
4900.15
4900.15
4900.15
4900.15
4900.15
4900.15
4900.15
4900.15
4900.15
4900.15
4900.15
4900.15
4900.15
4900.15
4900.15
4900.15
4900.15
4900.15
4900.15
4900.15
4900.15
4900.15
4900.15
4900.15
4900.15
4900.15
4900.15
4900.15
4900.15
4900.15
4900.15
4900.15
4900.15