/*--------------------------------*- C++ -*----------------------------------*\
| =========                 |                                                 |
| \\      /  F ield         | OpenFOAM: The Open Source CFD Toolbox           |
|  \\    /   O peration     | Version:  2312                                  |
|   \\  /    A nd           | Website:  www.openfoam.com                      |
|    \\/     M anipulation  |                                                 |
\*---------------------------------------------------------------------------*/
FoamFile
{
    version     2.0;
    format      ascii;
    arch        "LSB;label=32;scalar=64";
    class       surfaceScalarField;
    location    "0.0470981";
    object      phi;
}
// * * * * * * * * * * * * * * * * * * * * * * * * * * * * * * * * * * * * * //

dimensions      [0 3 -1 0 0 0 0];

oriented        oriented;

internalField   nonuniform List<scalar> 
263100
(
-1.35861e-13
2.71761e-13
-1.35861e-13
-1.6495e-14
-2.19885e-13
-1.17759e-13
-5.04727e-15
-8.32966e-14
-1.07027e-13
1.86257e-14
-7.67706e-14
-1.23105e-13
3.61159e-14
-7.28772e-14
-1.21297e-13
5.50233e-14
-7.44494e-14
-1.21868e-13
8.50937e-14
-7.77335e-14
-1.3025e-13
1.08124e-13
-7.68057e-14
-1.25231e-13
1.44777e-13
-8.63735e-14
-1.30463e-13
1.81867e-13
-8.77615e-14
-1.30682e-13
2.2245e-13
-9.22389e-14
-1.30939e-13
2.63777e-13
-9.54616e-14
-1.29803e-13
3.05313e-13
-9.87504e-14
-1.2815e-13
3.45333e-13
-1.00337e-13
-1.26549e-13
3.81708e-13
-1.00773e-13
-1.24017e-13
4.13179e-13
-1.0015e-13
-1.21306e-13
4.38718e-13
-9.92211e-14
-1.17879e-13
4.57182e-13
-9.80701e-14
-1.13523e-13
4.67656e-13
-9.69638e-14
-1.0818e-13
4.6954e-13
-9.54054e-14
-1.02641e-13
4.6154e-13
-9.23609e-14
-9.72326e-14
4.44706e-13
-8.84493e-14
-9.36622e-14
4.15491e-13
-8.493e-14
-8.60498e-14
3.76293e-13
-8.30507e-14
-7.90713e-14
3.29012e-13
-8.15395e-14
-7.34753e-14
2.78808e-13
-8.09512e-14
-7.19614e-14
2.28049e-13
-8.19084e-14
-7.11253e-14
1.80931e-13
-9.21606e-14
-6.5054e-14
1.50244e-13
-1.03754e-13
-7.02586e-14
-1.58326e-14
-3.88195e-14
2.95475e-14
-6.26788e-15
2.95477e-14
2.55708e-14
-5.99986e-13
2.76456e-14
2.83174e-14
-4.44814e-13
3.58108e-14
4.11539e-14
-4.35134e-13
2.35345e-14
5.55286e-14
-4.36197e-13
2.59617e-14
7.52043e-14
-4.44372e-13
2.58768e-14
1.00089e-13
-4.53003e-13
2.43816e-14
1.25596e-13
-4.55362e-13
2.49948e-14
1.58046e-13
-4.72582e-13
2.35341e-14
1.91764e-13
-4.78228e-13
2.42517e-14
2.28794e-13
-4.87995e-13
2.38042e-14
2.67044e-13
-4.95965e-13
2.47446e-14
3.0419e-13
-5.0173e-13
2.56086e-14
3.38152e-13
-5.04617e-13
2.72842e-14
3.71256e-13
-5.09553e-13
2.97792e-14
4.02043e-13
-5.11317e-13
3.1606e-14
4.27022e-13
-5.09357e-13
3.35203e-14
4.44276e-13
-5.0543e-13
3.56532e-14
4.52634e-13
-5.00091e-13
3.75779e-14
4.50829e-13
-4.92728e-13
3.93077e-14
4.3903e-13
-4.83179e-13
4.03133e-14
4.18621e-13
-4.74689e-13
4.20379e-14
3.89858e-13
-4.6575e-13
4.28846e-14
3.50435e-13
-4.56159e-13
4.40029e-14
2.99378e-13
-4.44518e-13
4.39546e-14
2.41868e-13
-4.38966e-13
4.41653e-14
1.80461e-13
-4.39431e-13
4.65494e-14
1.17694e-13
-4.55723e-13
5.32007e-14
6.99842e-14
-4.80731e-13
5.11018e-14
-3.09185e-13
5.43957e-14
6.84192e-14
-3.2153e-13
6.84191e-14
4.00784e-14
-9.44218e-13
5.32406e-14
4.18739e-14
-7.97037e-13
6.19585e-14
5.57451e-14
-7.90258e-13
5.37623e-14
7.51659e-14
-7.98945e-13
5.48198e-14
8.98439e-14
-8.06401e-13
5.75472e-14
1.10804e-13
-8.23483e-13
5.82719e-14
1.37362e-13
-8.34592e-13
5.96102e-14
1.67072e-13
-8.57399e-13
6.00586e-14
1.97642e-13
-8.67313e-13
6.13733e-14
2.25684e-13
-8.77495e-13
6.20858e-14
2.58437e-13
-8.94437e-13
6.39791e-14
2.94819e-13
-9.06827e-13
6.45001e-14
3.31337e-13
-9.12837e-13
6.49284e-14
3.63813e-13
-9.17197e-13
6.57893e-14
3.90923e-13
-9.17993e-13
6.75748e-14
4.11763e-13
-9.14309e-13
6.95245e-14
4.25415e-13
-9.07279e-13
7.10558e-14
4.31782e-13
-8.98084e-13
7.20056e-14
4.2811e-13
-8.85283e-13
7.42303e-14
4.16536e-13
-8.71011e-13
7.51592e-14
3.95008e-13
-8.54362e-13
7.48618e-14
3.62955e-13
-8.38213e-13
7.62887e-14
3.22748e-13
-8.22706e-13
7.68711e-14
2.78066e-13
-8.08739e-13
7.76173e-14
2.2915e-13
-8.00188e-13
7.76821e-14
1.70974e-13
-7.90311e-13
7.56567e-14
9.9027e-14
-7.91649e-13
7.38044e-14
2.65594e-14
-8.05618e-13
6.29207e-14
-6.12768e-13
5.28012e-14
8.71044e-14
-6.6963e-13
8.71046e-14
5.27628e-14
-1.29421e-12
7.07952e-14
5.00494e-14
-1.15555e-12
7.79736e-14
6.63371e-14
-1.15794e-12
6.90359e-14
7.55253e-14
-1.1654e-12
7.38634e-14
9.10863e-14
-1.18185e-12
7.52244e-14
1.11183e-13
-1.20611e-12
7.63499e-14
1.38001e-13
-1.22731e-12
7.79247e-14
1.59976e-13
-1.24929e-12
7.99106e-14
1.89004e-13
-1.26969e-12
8.11741e-14
2.23669e-13
-1.28895e-12
8.2329e-14
2.57808e-13
-1.30787e-12
8.24123e-14
2.91011e-13
-1.32333e-12
8.39015e-14
3.24639e-13
-1.33358e-12
8.51333e-14
3.55488e-13
-1.33878e-12
8.61195e-14
3.81973e-13
-1.33874e-12
8.70138e-14
4.02531e-13
-1.333e-12
8.82875e-14
4.16223e-13
-1.3234e-12
9.00227e-14
4.23355e-13
-1.30952e-12
8.94273e-14
4.19372e-13
-1.29127e-12
9.27195e-14
4.0507e-13
-1.26888e-12
9.26762e-14
3.82469e-13
-1.24546e-12
9.2131e-14
3.498e-13
-1.22134e-12
9.23555e-14
3.08059e-13
-1.19797e-12
9.19435e-14
2.58881e-13
-1.17919e-12
9.31817e-14
2.02331e-13
-1.16561e-12
9.43548e-14
1.43738e-13
-1.15523e-12
9.49209e-14
7.46266e-14
-1.14728e-12
9.5444e-14
8.9125e-15
-1.15813e-12
8.84797e-14
-9.50479e-13
7.42407e-14
9.76017e-14
-1.03629e-12
9.76018e-14
6.19232e-14
-1.63965e-12
7.26386e-14
5.29288e-14
-1.51906e-12
9.37923e-14
6.44429e-14
-1.52914e-12
8.17891e-14
7.73478e-14
-1.54466e-12
8.74091e-14
9.01561e-14
-1.5646e-12
8.97733e-14
1.09318e-13
-1.59837e-12
9.12712e-14
1.29059e-13
-1.62496e-12
9.42847e-14
1.53195e-13
-1.65657e-12
9.7436e-14
1.80989e-13
-1.68662e-12
1.01156e-13
2.13264e-13
-1.71477e-12
1.03153e-13
2.47058e-13
-1.73901e-12
1.04456e-13
2.8115e-13
-1.75837e-12
1.05481e-13
3.14885e-13
-1.7715e-12
1.06052e-13
3.46357e-13
-1.77692e-12
1.05851e-13
3.74184e-13
-1.77386e-12
1.03808e-13
3.97026e-13
-1.76476e-12
1.02785e-13
4.13183e-13
-1.75027e-12
1.02015e-13
4.21732e-13
-1.73386e-12
1.04591e-13
4.15091e-13
-1.70529e-12
1.07086e-13
4.00827e-13
-1.67741e-12
1.06988e-13
3.76631e-13
-1.6452e-12
1.0606e-13
3.44267e-13
-1.61053e-12
1.01835e-13
3.03597e-13
-1.58198e-12
1.03359e-13
2.54713e-13
-1.55714e-12
1.04153e-13
1.96237e-13
-1.53332e-12
1.02328e-13
1.33186e-13
-1.51687e-12
9.98762e-14
6.44708e-14
-1.50318e-12
9.90981e-14
-6.98354e-15
-1.50418e-12
9.14942e-14
-1.30254e-12
7.59743e-14
9.95805e-14
-1.40403e-12
9.95802e-14
6.2684e-14
-1.97932e-12
7.36656e-14
4.95313e-14
-1.87075e-12
9.12234e-14
5.01876e-14
-1.88456e-12
8.18787e-14
5.76955e-14
-1.91026e-12
8.41792e-14
7.16553e-14
-1.93947e-12
8.57622e-14
8.57345e-14
-1.97663e-12
8.71794e-14
1.0905e-13
-2.01717e-12
9.01232e-14
1.34271e-13
-2.05309e-12
9.03482e-14
1.62872e-13
-2.08822e-12
8.9641e-14
1.95672e-13
-2.12396e-12
9.05105e-14
2.31175e-13
-2.1548e-12
9.17797e-14
2.68109e-13
-2.17965e-12
9.31693e-14
3.04668e-13
-2.19646e-12
9.44865e-14
3.39826e-13
-2.20456e-12
9.58033e-14
3.70444e-13
-2.20342e-12
9.95366e-14
3.96083e-13
-2.19463e-12
1.02146e-13
4.12681e-13
-2.17504e-12
1.03465e-13
4.20333e-13
-2.15425e-12
1.05525e-13
4.18308e-13
-2.1207e-12
1.0784e-13
4.03696e-13
-2.07903e-12
1.04397e-13
3.81396e-13
-2.03919e-12
1.02418e-13
3.52371e-13
-1.99995e-12
1.02758e-13
3.10704e-13
-1.96348e-12
1.05903e-13
2.62684e-13
-1.93345e-12
1.05726e-13
2.01435e-13
-1.89302e-12
1.01167e-13
1.32948e-13
-1.86842e-12
9.92708e-14
5.92956e-14
-1.84817e-12
9.71758e-14
-1.66584e-14
-1.83908e-12
8.88642e-14
-1.66202e-12
7.70304e-14
9.7422e-14
-1.76404e-12
9.74218e-14
4.9084e-14
-2.29994e-12
7.17824e-14
3.382e-14
-2.20884e-12
8.50952e-14
2.84715e-14
-2.22509e-12
7.82404e-14
2.88789e-14
-2.25773e-12
7.84407e-14
3.742e-14
-2.29554e-12
7.76452e-14
4.99484e-14
-2.34073e-12
7.9596e-14
7.55174e-14
-2.40349e-12
8.70211e-14
1.0171e-13
-2.44229e-12
8.70319e-14
1.34413e-13
-2.48631e-12
8.6835e-14
1.70549e-13
-2.52856e-12
8.72285e-14
2.09903e-13
-2.56668e-12
8.85246e-14
2.50852e-13
-2.59755e-12
9.01698e-14
2.92501e-13
-2.61939e-12
9.16566e-14
3.32637e-13
-2.62993e-12
9.27612e-14
3.6711e-13
-2.62972e-12
9.65538e-14
3.93547e-13
-2.61781e-12
9.87287e-14
4.17252e-13
-2.59802e-12
9.85955e-14
4.27068e-13
-2.56663e-12
9.93416e-14
4.2979e-13
-2.52657e-12
9.75371e-14
4.22382e-13
-2.47775e-12
9.83135e-14
4.0325e-13
-2.42981e-12
9.99229e-14
3.73707e-13
-2.38287e-12
1.00856e-13
3.30523e-13
-2.33338e-12
9.99476e-14
2.74049e-13
-2.28979e-12
9.83406e-14
2.13307e-13
-2.24777e-12
9.9819e-14
1.43423e-13
-2.21335e-12
9.81244e-14
6.916e-14
-2.18745e-12
9.61112e-14
-4.75122e-15
-2.17691e-12
9.37062e-14
-1.99849e-12
6.91184e-14
9.19323e-14
-2.10981e-12
9.19324e-14
3.01459e-14
-2.59775e-12
6.76447e-14
8.28006e-15
-2.52778e-12
7.75199e-14
-4.12652e-15
-2.54887e-12
7.34191e-14
-6.31526e-15
-2.59357e-12
7.42821e-14
-2.36026e-16
-2.64289e-12
7.62471e-14
1.41095e-14
-2.69894e-12
7.64506e-14
2.79184e-14
-2.75953e-12
7.3096e-14
5.64993e-14
-2.81788e-12
7.55425e-14
9.33322e-14
-2.87441e-12
7.70522e-14
1.35575e-13
-2.92753e-12
7.96389e-14
1.80749e-13
-2.97427e-12
8.24199e-14
2.27392e-13
-3.01201e-12
8.49103e-14
2.74835e-13
-3.03919e-12
8.64922e-14
3.20302e-13
-3.05189e-12
8.76615e-14
3.63344e-13
-3.05397e-12
8.94842e-14
4.01844e-13
-3.04045e-12
8.96053e-14
4.30569e-13
-3.01446e-12
9.04817e-14
4.4436e-13
-2.97139e-12
9.11706e-14
4.50173e-13
-2.9256e-12
9.10297e-14
4.47039e-13
-2.86977e-12
9.0778e-14
4.31641e-13
-2.81139e-12
9.06196e-14
4.01899e-13
-2.75138e-12
9.01514e-14
3.61462e-13
-2.69127e-12
8.87219e-14
3.04289e-13
-2.63314e-12
8.96046e-14
2.38654e-13
-2.584e-12
8.97428e-14
1.64122e-13
-2.54013e-12
8.81575e-14
8.66984e-14
-2.51135e-12
8.74192e-14
1.06206e-17
-2.4848e-12
8.00215e-14
-2.31603e-12
5.76688e-14
8.24613e-14
-2.43352e-12
8.24612e-14
5.12058e-15
-2.86717e-12
5.91752e-14
-2.84104e-14
-2.81863e-12
6.53491e-14
-4.9639e-14
-2.84774e-12
6.14345e-14
-6.06735e-14
-2.90373e-12
6.1594e-14
-6.08605e-14
-2.96547e-12
6.18362e-14
-5.08474e-14
-3.0349e-12
6.23219e-14
-3.02129e-14
-3.10878e-12
6.33203e-14
3.6287e-16
-3.18104e-12
6.4875e-14
4.31628e-14
-3.2533e-12
6.54578e-14
9.12487e-14
-3.31723e-12
6.79022e-14
1.4287e-13
-3.37341e-12
7.07239e-14
1.97136e-13
-3.41882e-12
7.269e-14
2.50644e-13
-3.45e-12
7.4357e-14
3.0761e-13
-3.46829e-12
7.34194e-14
3.58307e-13
-3.46814e-12
7.44801e-14
4.06801e-13
-3.45397e-12
7.31504e-14
4.45758e-13
-3.42246e-12
7.44044e-14
4.72547e-13
-3.37183e-12
7.64271e-14
4.85969e-13
-3.31612e-12
7.74796e-14
4.87375e-13
-3.25002e-12
7.7038e-14
4.74235e-13
-3.17795e-12
7.59345e-14
4.462e-13
-3.10369e-12
7.48571e-14
4.03302e-13
-3.02989e-12
7.45423e-14
3.46158e-13
-2.95941e-12
7.51132e-14
2.73571e-13
-2.89666e-12
7.57247e-14
1.9023e-13
-2.84284e-12
7.54964e-14
1.09474e-13
-2.81914e-12
7.72143e-14
1.69166e-14
-2.76938e-12
6.50801e-14
-2.60229e-12
4.50901e-14
6.52878e-14
-2.72024e-12
6.52876e-14
-2.70681e-14
-3.10323e-12
4.36405e-14
-7.70223e-14
-3.07325e-12
4.84805e-14
-1.08844e-13
-3.11662e-12
4.48289e-14
-1.28557e-13
-3.18573e-12
4.4943e-14
-1.36221e-13
-3.26112e-12
4.517e-14
-1.30864e-13
-3.3467e-12
4.52755e-14
-1.11662e-13
-3.43714e-12
4.6377e-14
-7.2717e-14
-3.53104e-12
4.57923e-14
-2.4842e-14
-3.6175e-12
4.79368e-14
3.20664e-14
-3.69606e-12
5.02652e-14
9.51513e-14
-3.76421e-12
5.27984e-14
1.6251e-13
-3.81867e-12
5.43762e-14
2.32131e-13
-3.85617e-12
5.52142e-14
3.00695e-13
-3.87658e-12
5.51902e-14
3.66332e-13
-3.87683e-12
5.54428e-14
4.24329e-13
-3.85786e-12
5.53194e-14
4.7369e-13
-3.82098e-12
5.57693e-14
5.13745e-13
-3.76459e-12
5.66772e-14
5.36329e-13
-3.69502e-12
5.78667e-14
5.44378e-13
-3.61593e-12
5.72241e-14
5.36176e-13
-3.52812e-12
5.57835e-14
5.1102e-13
-3.43841e-12
5.55608e-14
4.73516e-13
-3.35401e-12
5.58064e-14
4.14734e-13
-3.26021e-12
5.2417e-14
3.31773e-13
-3.18118e-12
5.90707e-14
2.32733e-13
-3.11493e-12
6.16467e-14
1.19324e-13
-3.06611e-12
5.00418e-14
1.49359e-14
-3.02197e-12
4.58451e-14
-2.87492e-12
2.98379e-14
4.71179e-14
-2.96887e-12
4.71179e-14
-6.74267e-14
-3.29645e-12
2.36162e-14
-1.30455e-13
-3.29173e-12
2.64161e-14
-1.80322e-13
-3.34526e-12
2.34813e-14
-2.14794e-13
-3.43053e-12
2.34082e-14
-2.30496e-13
-3.52682e-12
2.40703e-14
-2.26142e-13
-3.6339e-12
2.2197e-14
-2.03354e-13
-3.74493e-12
2.28066e-14
-1.64759e-13
-3.85792e-12
2.3551e-14
-1.10077e-13
-3.9653e-12
2.50894e-14
-4.255e-14
-4.06211e-12
2.70244e-14
3.42795e-14
-4.14502e-12
2.9039e-14
1.17611e-13
-4.21086e-12
3.06007e-14
2.04566e-13
-4.25636e-12
3.16293e-14
2.91258e-13
-4.2805e-12
3.23168e-14
3.74882e-13
-4.28155e-12
3.29984e-14
4.51052e-13
-4.25865e-12
3.34901e-14
5.16372e-13
-4.21404e-12
3.37096e-14
5.69287e-13
-4.14792e-12
3.36805e-14
6.0544e-13
-4.06431e-12
3.39378e-14
6.22598e-13
-3.96874e-12
3.42272e-14
6.18526e-13
-3.86085e-12
3.3399e-14
5.9261e-13
-3.7525e-12
3.48518e-14
5.41855e-13
-3.64408e-12
3.41272e-14
4.73008e-13
-3.53695e-12
3.74594e-14
3.76877e-13
-3.43697e-12
4.24746e-14
2.75513e-13
-3.35964e-12
3.5481e-14
1.58213e-13
-3.29265e-12
3.22955e-14
3.60515e-14
-3.24133e-12
2.90678e-14
-3.10759e-12
9.38854e-15
2.18879e-14
-3.16652e-12
2.18878e-14
-1.12666e-13
-3.44737e-12
-8.18578e-16
-1.94288e-13
-3.4672e-12
5.031e-16
-2.60427e-13
-3.53323e-12
-2.57162e-15
-3.13571e-13
-3.63166e-12
-3.21987e-15
-3.38195e-13
-3.75808e-12
-3.15722e-15
-3.42084e-13
-3.88919e-12
-3.47154e-15
-3.20668e-13
-4.02778e-12
-2.69011e-15
-2.77296e-13
-4.16628e-12
-1.72951e-15
-2.13715e-13
-4.29831e-12
-7.44842e-16
-1.33478e-13
-4.41638e-12
2.26437e-16
-4.01756e-14
-4.51699e-12
1.3024e-15
6.30774e-14
-4.59752e-12
2.6108e-15
1.72408e-13
-4.65363e-12
3.69525e-15
2.82798e-13
-4.68299e-12
4.4605e-15
3.89882e-13
-4.68461e-12
5.08055e-15
4.89257e-13
-4.65802e-12
5.98089e-15
5.7635e-13
-4.60429e-12
6.16266e-15
6.46747e-13
-4.52475e-12
6.65156e-15
6.97268e-13
-4.42444e-12
7.28838e-15
7.23195e-13
-4.30766e-12
8.39675e-15
7.24928e-13
-4.17875e-12
9.54773e-15
6.98251e-13
-4.0441e-12
9.84256e-15
6.43435e-13
-3.91002e-12
1.06498e-14
5.63021e-13
-3.7809e-12
1.26902e-14
4.62772e-13
-3.66317e-12
1.33149e-14
3.41868e-13
-3.56341e-12
1.02806e-14
2.02215e-13
-3.47694e-12
8.44048e-15
6.00185e-14
-3.42014e-12
4.48996e-15
-3.29532e-12
-1.55234e-14
-1.09369e-14
-3.2996e-12
-1.0937e-14
-1.70593e-13
-3.54744e-12
-3.18297e-14
-2.78994e-13
-3.59268e-12
-2.71152e-14
-3.64151e-13
-3.68076e-12
-2.85839e-14
-4.22926e-13
-3.80378e-12
-3.11927e-14
-4.7163e-13
-3.93577e-12
-3.73927e-14
-4.86073e-13
-4.10423e-12
-3.81432e-14
-4.64687e-13
-4.28266e-12
-3.55996e-14
-4.16962e-13
-4.45193e-12
-3.38011e-14
-3.39307e-13
-4.6181e-12
-3.31427e-14
-2.42851e-13
-4.75801e-12
-3.38501e-14
-1.30029e-13
-4.87741e-12
-3.50873e-14
-3.17362e-15
-4.97578e-12
-3.47572e-14
1.34323e-13
-5.04765e-12
-3.31386e-14
2.74989e-13
-5.08514e-12
-3.16435e-14
4.11816e-13
-5.08732e-12
-3.05522e-14
5.39484e-13
-5.05582e-12
-2.94933e-14
6.5326e-13
-4.99271e-12
-2.80405e-14
7.46944e-13
-4.89768e-12
-2.63046e-14
8.14184e-13
-4.77531e-12
-2.4534e-14
8.51564e-13
-4.63212e-12
-2.34287e-14
8.57143e-13
-4.47468e-12
-2.22688e-14
8.29489e-13
-4.31033e-12
-2.06919e-14
7.68446e-13
-4.146e-12
-1.94256e-14
6.76319e-13
-3.98826e-12
-1.87558e-14
5.56819e-13
-3.84434e-12
-1.92299e-14
4.10821e-13
-3.71879e-12
-1.99151e-14
2.57592e-13
-3.62404e-12
-2.2201e-14
9.16765e-14
-3.55083e-12
-2.70153e-14
-3.42567e-12
-4.77304e-14
-5.27125e-14
-3.35203e-12
-5.27124e-14
-2.42721e-13
-3.58245e-12
-7.4955e-14
-3.88796e-13
-3.64525e-12
-6.98044e-14
-5.03519e-13
-3.75958e-12
-7.54209e-14
-5.87014e-13
-3.91635e-12
-7.3802e-14
-6.313e-13
-4.09558e-12
-6.77181e-14
-6.47017e-13
-4.29696e-12
-6.74132e-14
-6.29138e-13
-4.50839e-12
-6.94874e-14
-5.71374e-13
-4.71954e-12
-7.01796e-14
-4.95095e-13
-4.90909e-12
-6.8959e-14
-3.8289e-13
-5.08872e-12
-6.89972e-14
-2.38653e-13
-5.24465e-12
-6.81986e-14
-7.5571e-14
-5.36624e-12
-6.73105e-14
9.72968e-14
-5.4511e-12
-6.76301e-14
2.74051e-13
-5.49524e-12
-6.83478e-14
4.48559e-13
-5.49839e-12
-6.84674e-14
6.11992e-13
-5.45985e-12
-6.76422e-14
7.55934e-13
-5.38155e-12
-6.64581e-14
8.74624e-13
-5.26514e-12
-6.55191e-14
9.60871e-13
-5.11417e-12
-6.4367e-14
1.01124e-12
-4.93855e-12
-6.33593e-14
1.02258e-12
-4.74655e-12
-6.11327e-14
9.93629e-13
-4.54607e-12
-5.91059e-14
9.24034e-13
-4.34409e-12
-5.82325e-14
8.15986e-13
-4.14912e-12
-5.90817e-14
6.75286e-13
-3.97392e-12
-5.95144e-14
5.09979e-13
-3.82439e-12
-6.0363e-14
3.2626e-13
-3.70942e-12
-6.35456e-14
1.20733e-13
-3.61229e-12
-6.6788e-14
-3.49616e-12
-8.75194e-14
-1.02099e-13
-3.3105e-12
-1.02099e-13
-3.29613e-13
-3.54232e-12
-1.23539e-13
-5.11796e-13
-3.62735e-12
-1.14228e-13
-6.57499e-13
-3.77483e-12
-1.18393e-13
-7.66647e-13
-3.97001e-12
-1.17697e-13
-8.3632e-13
-4.19205e-12
-1.16644e-13
-8.65087e-13
-4.43811e-12
-1.17103e-13
-8.49743e-13
-4.69431e-12
-1.1806e-13
-7.91856e-13
-4.95033e-12
-1.1856e-13
-6.85234e-13
-5.19311e-12
-1.17817e-13
-5.43058e-13
-5.41295e-12
-1.17045e-13
-3.70709e-13
-5.6002e-12
-1.19629e-13
-1.69955e-13
-5.75424e-12
-1.19083e-13
4.63614e-14
-5.85777e-12
-1.19461e-13
2.6946e-13
-5.91162e-12
-1.20004e-13
4.90196e-13
-5.91643e-12
-1.19276e-13
6.96154e-13
-5.86748e-12
-1.18118e-13
8.79165e-13
-5.76988e-12
-1.1757e-13
1.02955e-12
-5.62473e-12
-1.16646e-13
1.142e-12
-5.44039e-12
-1.14817e-13
1.21032e-12
-5.22615e-12
-1.11827e-13
1.22962e-12
-4.98986e-12
-1.09457e-13
1.19853e-12
-4.74254e-12
-1.08201e-13
1.11955e-12
-4.49551e-12
-1.07687e-13
9.94984e-13
-4.2581e-12
-1.06765e-13
8.29754e-13
-4.04492e-12
-1.05959e-13
6.32027e-13
-3.86303e-12
-1.07308e-13
4.08722e-13
-3.7212e-12
-1.10011e-13
1.63654e-13
-3.60306e-12
-1.10323e-13
-3.48983e-12
-1.31948e-13
-1.61755e-13
-3.15601e-12
-1.61755e-13
-4.37243e-13
-3.40794e-12
-1.8163e-13
-6.64467e-13
-3.51958e-12
-1.70371e-13
-8.51186e-13
-3.70353e-12
-1.75702e-13
-9.93089e-13
-3.94535e-12
-1.7548e-13
-1.08826e-12
-4.21707e-12
-1.75328e-13
-1.12927e-12
-4.52102e-12
-1.76094e-13
-1.11431e-12
-4.83374e-12
-1.77464e-13
-1.043e-12
-5.14788e-12
-1.78772e-13
-9.18964e-13
-5.44864e-12
-1.77441e-13
-7.47267e-13
-5.71922e-12
-1.78381e-13
-5.35606e-13
-5.94788e-12
-1.80742e-13
-2.83582e-13
-6.14396e-12
-1.82549e-13
-1.32783e-14
-6.26882e-12
-1.82975e-13
2.64899e-13
-6.33313e-12
-1.83781e-13
5.41303e-13
-6.34111e-12
-1.82063e-13
7.98754e-13
-6.27717e-12
-1.81189e-13
1.02806e-12
-6.15468e-12
-1.80973e-13
1.22005e-12
-5.97672e-12
-1.7934e-13
1.3654e-12
-5.75118e-12
-1.76587e-13
1.45599e-12
-5.48691e-12
-1.74315e-13
1.48572e-12
-5.19336e-12
-1.73022e-13
1.45464e-12
-4.88815e-12
-1.72357e-13
1.36793e-12
-4.59019e-12
-1.69947e-13
1.226e-12
-4.30353e-12
-1.66178e-13
1.02831e-12
-4.03648e-12
-1.66028e-13
7.86744e-13
-3.81281e-12
-1.65262e-13
5.03712e-13
-3.62853e-12
-1.67513e-13
2.187e-13
-3.51126e-12
-1.65337e-13
-3.3827e-12
-1.87624e-13
-2.33289e-13
-2.86542e-12
-2.33289e-13
-5.67585e-13
-3.15397e-12
-2.52264e-13
-8.51824e-13
-3.29526e-12
-2.39952e-13
-1.08408e-12
-3.52591e-12
-2.47156e-13
-1.26059e-12
-3.82547e-12
-2.47432e-13
-1.38497e-12
-4.15263e-12
-2.4759e-13
-1.45071e-12
-4.51923e-12
-2.48504e-13
-1.43992e-12
-4.90595e-12
-2.53495e-13
-1.35517e-12
-5.2956e-12
-2.5547e-13
-1.20452e-12
-5.66557e-12
-2.56469e-13
-9.93273e-13
-5.99969e-12
-2.57835e-13
-7.24166e-13
-6.28729e-12
-2.60743e-13
-4.17152e-13
-6.5266e-12
-2.58993e-13
-8.27685e-14
-6.68227e-12
-2.59017e-13
2.5813e-13
-6.75728e-12
-2.5816e-13
6.04763e-13
-6.77595e-12
-2.5629e-13
9.24605e-13
-6.6835e-12
-2.6093e-13
1.21088e-12
-6.52812e-12
-2.63063e-13
1.45246e-12
-6.30935e-12
-2.61826e-13
1.64093e-12
-6.03873e-12
-2.56186e-13
1.7601e-12
-5.70849e-12
-2.54959e-13
1.80563e-12
-5.34429e-12
-2.53864e-13
1.77897e-12
-4.96959e-12
-2.52998e-13
1.6777e-12
-4.60456e-12
-2.47357e-13
1.50948e-12
-4.25933e-12
-2.4075e-13
1.27766e-12
-3.9307e-12
-2.39966e-13
9.87177e-13
-3.65086e-12
-2.38189e-13
6.58347e-13
-3.42567e-12
-2.41389e-13
2.87881e-13
-3.27137e-12
-2.36602e-13
-3.13976e-12
-2.60164e-13
-3.22743e-13
-2.40177e-12
-3.22743e-13
-7.27694e-13
-2.74123e-12
-3.43992e-13
-1.09079e-12
-2.90874e-12
-3.28175e-13
-1.3993e-12
-3.18897e-12
-3.35845e-13
-1.62102e-12
-3.57974e-12
-3.34596e-13
-1.78244e-12
-3.96773e-12
-3.38445e-13
-1.85793e-12
-4.42227e-12
-3.41972e-13
-1.84166e-12
-4.89978e-12
-3.46332e-13
-1.74181e-12
-5.37504e-12
-3.48628e-13
-1.55566e-12
-5.83361e-12
-3.51293e-13
-1.29319e-12
-6.24645e-12
-3.53756e-13
-9.64332e-13
-6.6024e-12
-3.56224e-13
-5.91843e-13
-6.88619e-12
-3.59263e-13
-1.8068e-13
-7.0824e-12
-3.61021e-13
2.51311e-13
-7.18039e-12
-3.6221e-13
6.76391e-13
-7.19367e-12
-3.63636e-13
1.07813e-12
-7.0817e-12
-3.62473e-13
1.44031e-12
-6.8933e-12
-3.5837e-13
1.74505e-12
-6.6241e-12
-3.53475e-13
1.97877e-12
-6.28296e-12
-3.54699e-13
2.13001e-12
-5.87289e-12
-3.5334e-13
2.20274e-12
-5.42992e-12
-3.54546e-13
2.1803e-12
-4.9647e-12
-3.50741e-13
2.06942e-12
-4.51682e-12
-3.4604e-13
1.8593e-12
-4.0751e-12
-3.44003e-13
1.57117e-12
-3.67373e-12
-3.38768e-13
1.22657e-12
-3.34431e-12
-3.31247e-13
8.29849e-13
-3.06829e-12
-3.29239e-13
3.80544e-13
-2.86184e-12
-3.27259e-13
-2.71134e-12
-3.50691e-13
-4.37542e-13
-1.71066e-12
-4.37542e-13
-9.31022e-13
-2.11479e-12
-4.61324e-13
-1.38417e-12
-2.31475e-12
-4.40371e-13
-1.76036e-12
-2.66484e-12
-4.50886e-13
-2.07481e-12
-3.11693e-12
-4.55534e-13
-2.27314e-12
-3.62479e-12
-4.57253e-13
-2.36501e-12
-4.18727e-12
-4.62278e-13
-2.34961e-12
-4.77261e-12
-4.66429e-13
-2.21856e-12
-5.366e-12
-4.69516e-13
-1.99112e-12
-5.92458e-12
-4.71962e-13
-1.66831e-12
-6.43474e-12
-4.75913e-13
-1.26481e-12
-6.87322e-12
-4.79397e-13
-7.99033e-13
-7.2198e-12
-4.83448e-13
-2.85994e-13
-7.46449e-12
-4.86325e-13
2.50059e-13
-7.58582e-12
-4.8954e-13
7.70659e-13
-7.58181e-12
-4.94263e-13
1.27373e-12
-7.46234e-12
-4.86551e-13
1.72518e-12
-7.22959e-12
-4.81085e-13
2.10596e-12
-6.89137e-12
-4.80627e-13
2.40009e-12
-6.46533e-12
-4.79385e-13
2.5978e-12
-5.96207e-12
-4.75985e-13
2.68298e-12
-5.41641e-12
-4.65453e-13
2.67231e-12
-4.85484e-12
-4.65002e-13
2.53199e-12
-4.28039e-12
-4.60953e-13
2.2856e-12
-3.73439e-12
-4.57862e-13
1.94828e-12
-3.24332e-12
-4.54441e-13
1.51985e-12
-2.81859e-12
-4.5578e-13
1.03013e-12
-2.4784e-12
-4.5599e-13
4.84607e-13
-2.22113e-12
-4.47676e-13
-2.04329e-12
-4.70997e-13
-5.80445e-13
-7.28958e-13
-5.80445e-13
-1.19571e-12
-1.1966e-12
-6.06741e-13
-1.75744e-12
-1.44834e-12
-5.83654e-13
-2.23324e-12
-1.87838e-12
-5.93702e-13
-2.60679e-12
-2.43282e-12
-5.9891e-13
-2.85869e-12
-3.06372e-12
-6.04122e-13
-2.97754e-12
-3.76031e-12
-6.10786e-13
-2.96064e-12
-4.48172e-12
-6.16973e-13
-2.81406e-12
-5.20563e-12
-6.23357e-13
-2.53528e-12
-5.8984e-12
-6.29053e-13
-2.13258e-12
-6.53537e-12
-6.33641e-13
-1.63132e-12
-7.07529e-12
-6.37573e-13
-1.05597e-12
-7.4959e-12
-6.43473e-13
-4.11069e-13
-7.81582e-12
-6.42806e-13
2.39837e-13
-7.94519e-12
-6.44823e-13
8.90341e-13
-7.94595e-12
-6.42598e-13
1.51202e-12
-7.79927e-12
-6.42898e-13
2.07526e-12
-7.51003e-12
-6.41817e-13
2.5537e-12
-7.09e-12
-6.38621e-13
2.92367e-12
-6.55994e-12
-6.32848e-13
3.17995e-12
-5.94718e-12
-6.26286e-13
3.30227e-12
-5.2721e-12
-6.18553e-13
3.27577e-12
-4.56398e-12
-6.1256e-13
3.1124e-12
-3.8558e-12
-6.05431e-13
2.81912e-12
-3.17728e-12
-6.03591e-13
2.40076e-12
-2.55934e-12
-5.99997e-13
1.8826e-12
-2.03205e-12
-5.96972e-13
1.28838e-12
-1.60534e-12
-6.02272e-13
6.20354e-13
-1.27974e-12
-5.91246e-13
-1.06233e-12
-6.15225e-13
-7.60846e-13
6.28483e-13
-7.60846e-13
-1.51503e-12
8.55982e-14
-7.87069e-13
-2.21362e-12
-2.28953e-13
-7.60086e-13
-2.80539e-12
-7.56434e-13
-7.73716e-13
-3.26264e-12
-1.44447e-12
-7.80682e-13
-3.58241e-12
-2.20961e-12
-7.91498e-13
-3.73765e-12
-3.07048e-12
-8.0064e-13
-3.71942e-12
-3.96548e-12
-8.09138e-13
-3.53562e-12
-4.85774e-12
-8.15517e-13
-3.18651e-12
-5.71877e-12
-8.22226e-13
-2.69332e-12
-6.50224e-12
-8.29401e-13
-2.06481e-12
-7.18354e-12
-8.32215e-13
-1.35054e-12
-7.69076e-12
-8.39113e-13
-5.84793e-13
-8.06036e-12
-8.47436e-13
2.30188e-13
-8.24514e-12
-8.46264e-13
1.04139e-12
-8.24662e-12
-8.45019e-13
1.81313e-12
-8.06409e-12
-8.42916e-13
2.51229e-12
-7.70557e-12
-8.39398e-13
3.1077e-12
-7.18525e-12
-8.33949e-13
3.57517e-12
-6.53045e-12
-8.27043e-13
3.88914e-12
-5.76581e-12
-8.20122e-13
4.04303e-12
-4.93044e-12
-8.13733e-13
4.01863e-12
-4.04533e-12
-8.04895e-13
3.82402e-12
-3.16822e-12
-7.95576e-13
3.46748e-12
-2.32963e-12
-7.8518e-13
2.96328e-12
-1.56214e-12
-7.77883e-13
2.32971e-12
-8.94238e-13
-7.79997e-13
1.60753e-12
-3.665e-13
-7.84295e-13
7.91855e-13
4.09574e-14
-7.64463e-13
3.08308e-13
-7.80469e-13
-9.74783e-13
2.44104e-12
-9.74783e-13
-1.90049e-12
1.81674e-12
-1.00002e-12
-2.76809e-12
1.43053e-12
-9.72078e-13
-3.50292e-12
7.89638e-13
-9.95037e-13
-4.08638e-12
-4.20861e-14
-1.00865e-12
-4.47383e-12
-1.00159e-12
-1.01827e-12
-4.6636e-12
-2.05733e-12
-1.03055e-12
-4.64888e-12
-3.15687e-12
-1.04109e-12
-4.42059e-12
-4.26087e-12
-1.05386e-12
-3.99764e-12
-5.31889e-12
-1.06312e-12
-3.38295e-12
-6.29785e-12
-1.07121e-12
-2.62008e-12
-7.12803e-12
-1.08184e-12
-1.73806e-12
-7.75998e-12
-1.08639e-12
-7.75689e-13
-8.21306e-12
-1.09179e-12
2.2982e-13
-8.44535e-12
-1.09385e-12
1.23311e-12
-8.44896e-12
-1.09344e-12
2.18943e-12
-8.22419e-12
-1.09007e-12
3.05564e-12
-7.77987e-12
-1.08453e-12
3.79599e-12
-7.13749e-12
-1.07686e-12
4.37536e-12
-6.32426e-12
-1.06795e-12
4.76876e-12
-5.37254e-12
-1.06039e-12
4.9537e-12
-4.32699e-12
-1.05151e-12
4.93354e-12
-3.237e-12
-1.03936e-12
4.70158e-12
-2.1442e-12
-1.03071e-12
4.26205e-12
-1.09422e-12
-1.0217e-12
3.64599e-12
-1.4651e-13
-1.0123e-12
2.87433e-12
6.81434e-13
-1.00405e-12
1.98308e-12
1.3385e-12
-1.00254e-12
9.95186e-13
1.82202e-12
-9.71666e-13
2.16125e-12
-9.89405e-13
-1.23173e-12
4.80666e-12
-1.23173e-12
-2.37298e-12
4.09707e-12
-1.25672e-12
-3.4477e-12
3.62647e-12
-1.22897e-12
-4.35784e-12
2.84518e-12
-1.25488e-12
-5.0756e-12
1.834e-12
-1.27248e-12
-5.56265e-12
6.53457e-13
-1.28954e-12
-5.79483e-12
-6.50415e-13
-1.30497e-12
-5.78468e-12
-1.9862e-12
-1.32279e-12
-5.51581e-12
-3.34207e-12
-1.34149e-12
-4.99983e-12
-4.64301e-12
-1.35823e-12
-4.22895e-12
-5.88041e-12
-1.36807e-12
-3.27329e-12
-6.89704e-12
-1.37973e-12
-2.1848e-12
-7.6603e-12
-1.39357e-12
-1.00511e-12
-8.20913e-12
-1.3996e-12
2.34873e-13
-8.50685e-12
-1.40252e-12
1.47269e-12
-8.51511e-12
-1.40067e-12
2.653e-12
-8.23865e-12
-1.3965e-12
3.72405e-12
-7.69134e-12
-1.38838e-12
4.63777e-12
-6.89643e-12
-1.37821e-12
5.35429e-12
-5.88912e-12
-1.36633e-12
5.84482e-12
-4.71223e-12
-1.35371e-12
6.08908e-12
-3.42034e-12
-1.33948e-12
6.06974e-12
-2.06831e-12
-1.32209e-12
5.78852e-12
-7.12877e-13
-1.30647e-12
5.25705e-12
5.8958e-13
-1.2923e-12
4.49947e-12
1.76743e-12
-1.27994e-12
3.55644e-12
2.78112e-12
-1.26472e-12
2.46501e-12
3.598e-12
-1.2631e-12
1.24496e-12
4.18277e-12
-1.2256e-12
4.5994e-12
-1.24736e-12
-1.53054e-12
7.81623e-12
-1.53054e-12
-2.93752e-12
7.02052e-12
-1.56064e-12
-4.26169e-12
6.44838e-12
-1.5344e-12
-5.3896e-12
5.49907e-12
-1.56135e-12
-6.27895e-12
4.2693e-12
-1.58361e-12
-6.87621e-12
2.81391e-12
-1.60641e-12
-7.19121e-12
1.24786e-12
-1.63228e-12
-7.1741e-12
-4.0168e-13
-1.66199e-12
-6.83278e-12
-2.06661e-12
-1.68806e-12
-6.16264e-12
-3.6802e-12
-1.71566e-12
-5.26525e-12
-5.13003e-12
-1.74332e-12
-4.13663e-12
-6.37005e-12
-1.76469e-12
-2.78982e-12
-7.35314e-12
-1.77613e-12
-1.31006e-12
-8.03946e-12
-1.78324e-12
2.30509e-13
-8.40345e-12
-1.78696e-12
1.76296e-12
-8.40982e-12
-1.78669e-12
3.22206e-12
-8.06935e-12
-1.7796e-12
4.54535e-12
-7.39427e-12
-1.76975e-12
5.67664e-12
-6.41524e-12
-1.75587e-12
6.57017e-12
-5.17907e-12
-1.73693e-12
7.17891e-12
-3.72498e-12
-1.71577e-12
7.48226e-12
-2.13111e-12
-1.69613e-12
7.46639e-12
-4.6815e-13
-1.67014e-12
7.12983e-12
1.19656e-12
-1.64075e-12
6.48458e-12
2.80228e-12
-1.61753e-12
5.55973e-12
4.25595e-12
-1.59641e-12
4.38826e-12
5.51552e-12
-1.5803e-12
3.03496e-12
6.51215e-12
-1.5671e-12
1.56002e-12
7.18408e-12
-1.5258e-12
7.71536e-12
-1.54384e-12
-1.8728e-12
1.15533e-11
-1.8728e-12
-3.62815e-12
1.06828e-11
-1.90505e-12
-5.26307e-12
9.97973e-12
-1.88665e-12
-6.64357e-12
8.81483e-12
-1.9207e-12
-7.73349e-12
7.32383e-12
-1.94957e-12
-8.4964e-12
5.57647e-12
-1.98741e-12
-8.87007e-12
3.65714e-12
-2.02389e-12
-8.85805e-12
1.64912e-12
-2.06028e-12
-8.44936e-12
-3.8031e-13
-2.10006e-12
-7.67593e-12
-2.32785e-12
-2.13813e-12
-6.55498e-12
-4.09852e-12
-2.17372e-12
-5.13768e-12
-5.61592e-12
-2.20314e-12
-3.48958e-12
-6.81751e-12
-2.22628e-12
-1.67697e-12
-7.66829e-12
-2.23657e-12
2.29027e-13
-8.13498e-12
-2.23581e-12
2.11459e-12
-8.1254e-12
-2.23729e-12
3.91228e-12
-7.70385e-12
-2.23322e-12
5.54474e-12
-6.87469e-12
-2.22098e-12
6.94424e-12
-5.67836e-12
-2.20007e-12
8.05986e-12
-4.17762e-12
-2.17159e-12
8.81561e-12
-2.37654e-12
-2.14624e-12
9.18979e-12
-4.1618e-13
-2.11645e-12
9.18035e-12
1.60159e-12
-2.0719e-12
8.77537e-12
3.64048e-12
-2.03499e-12
7.97669e-12
5.62361e-12
-2.00395e-12
6.85173e-12
7.37833e-12
-1.96553e-12
5.43086e-12
8.91839e-12
-1.94054e-12
3.78324e-12
1.01355e-11
-1.92988e-12
1.93408e-12
1.09533e-11
-1.8739e-12
1.15657e-11
-1.87816e-12
-2.27814e-12
1.6125e-11
-2.27814e-12
-4.44813e-12
1.5163e-11
-2.31617e-12
-6.45282e-12
1.42907e-11
-2.30125e-12
-8.16316e-12
1.2879e-11
-2.34165e-12
-9.51371e-12
1.10721e-11
-2.38327e-12
-1.04468e-11
8.9567e-12
-2.43294e-12
-1.09166e-11
6.62752e-12
-2.47993e-12
-1.09024e-11
4.1813e-12
-2.5316e-12
-1.04214e-11
1.73686e-12
-2.5857e-12
-9.46652e-12
-6.33365e-13
-2.63711e-12
-8.09948e-12
-2.76784e-12
-2.6867e-12
-6.35045e-12
-4.6381e-12
-2.71899e-12
-4.31821e-12
-6.09997e-12
-2.74633e-12
-2.0948e-12
-7.12438e-12
-2.76881e-12
2.11598e-13
-7.66144e-12
-2.78614e-12
2.53078e-12
-7.66873e-12
-2.7858e-12
4.74813e-12
-7.15816e-12
-2.77514e-12
6.77038e-12
-6.15321e-12
-2.7557e-12
8.50245e-12
-4.69496e-12
-2.72458e-12
9.85606e-12
-2.84509e-12
-2.68977e-12
1.07998e-11
-6.74497e-13
-2.64189e-12
1.12815e-11
1.70736e-12
-2.59289e-12
1.12638e-11
4.18708e-12
-2.54687e-12
1.07592e-11
6.67543e-12
-2.50232e-12
9.79736e-12
9.0671e-12
-2.44866e-12
8.40996e-12
1.12028e-11
-2.40222e-12
6.66254e-12
1.30627e-11
-2.36461e-12
4.63294e-12
1.45302e-11
-2.33966e-12
2.36196e-12
1.551e-11
-2.2706e-12
1.61816e-11
-2.26165e-12
-2.7566e-12
2.16415e-11
-2.7566e-12
-5.42847e-12
2.05556e-11
-2.80613e-12
-7.88656e-12
1.94765e-11
-2.79727e-12
-9.99099e-12
1.77685e-11
-2.84729e-12
-1.16552e-11