/*--------------------------------*- C++ -*----------------------------------*\
| =========                 |                                                 |
| \\      /  F ield         | OpenFOAM: The Open Source CFD Toolbox           |
|  \\    /   O peration     | Version:  2312                                  |
|   \\  /    A nd           | Website:  www.openfoam.com                      |
|    \\/     M anipulation  |                                                 |
\*---------------------------------------------------------------------------*/
FoamFile
{
    version     2.0;
    format      ascii;
    arch        "LSB;label=32;scalar=64";
    class       volVectorField;
    location    "0.0470981";
    object      U;
}
// * * * * * * * * * * * * * * * * * * * * * * * * * * * * * * * * * * * * * //

dimensions      [0 1 -1 0 0 0 0];

internalField   nonuniform List<vector> 
90000
(
(-2.63673e-11 2.21616e-09 -2.63672e-11)
(-7.32545e-10 -1.09875e-09 -3.20308e-11)
(-5.47465e-10 -2.57852e-10 3.48317e-11)
(2.43944e-10 -1.70708e-10 -5.72081e-11)
(2.39203e-10 -1.51774e-10 -4.21779e-11)
(4.03019e-10 -1.40787e-10 -3.75374e-11)
(5.74932e-10 -1.38069e-10 -7.65153e-11)
(8.44076e-10 -1.22201e-10 -4.94992e-11)
(1.20253e-09 -1.64036e-10 -7.95495e-11)
(1.58879e-09 -1.57084e-10 -7.98309e-11)
(2.01655e-09 -1.71572e-10 -8.25084e-11)
(2.43133e-09 -1.76953e-10 -7.78101e-11)
(2.8493e-09 -1.76416e-10 -7.1189e-11)
(3.26017e-09 -1.76701e-10 -6.68101e-11)
(3.63788e-09 -1.87642e-10 -5.66778e-11)
(3.97419e-09 -1.96945e-10 -4.47773e-11)
(4.26288e-09 -1.97082e-10 -2.83e-11)
(4.48648e-09 -1.88417e-10 -7.38661e-12)
(4.63672e-09 -1.74462e-10 2.02494e-11)
(4.71094e-09 -1.61006e-10 4.92758e-11)
(4.67208e-09 -1.50683e-10 7.62668e-11)
(4.51407e-09 -1.39878e-10 1.05373e-10)
(4.282e-09 -1.27373e-10 1.34673e-10)
(3.953e-09 -1.16258e-10 1.72245e-10)
(3.51608e-09 -9.18841e-11 2.10095e-10)
(3.01857e-09 -1.04967e-10 2.32564e-10)
(2.51364e-09 -1.59801e-10 2.48166e-10)
(2.03474e-09 -2.87522e-10 2.68182e-10)
(1.69544e-09 -4.54618e-10 2.73291e-10)
(8.01913e-10 -2.44136e-10 3.29692e-10)
(8.25791e-10 2.42856e-09 8.25792e-10)
(1.8583e-10 -3.96947e-09 7.07699e-10)
(-3.66888e-10 -2.3543e-09 7.85743e-10)
(4.61545e-10 -2.2501e-09 7.23607e-10)
(4.34233e-10 -2.24677e-09 7.384e-10)
(6.02324e-10 -2.29318e-09 7.45822e-10)
(7.73042e-10 -2.33676e-09 7.52466e-10)
(1.02928e-09 -2.32279e-09 7.52633e-10)
(1.36153e-09 -2.44333e-09 7.50995e-10)
(1.70922e-09 -2.46559e-09 7.57918e-10)
(2.09942e-09 -2.52255e-09 7.52926e-10)
(2.48006e-09 -2.57361e-09 7.49572e-10)
(2.85985e-09 -2.62845e-09 7.44177e-10)
(3.21495e-09 -2.6625e-09 7.45885e-10)
(3.54756e-09 -2.67739e-09 7.61155e-10)
(3.86729e-09 -2.67076e-09 7.66604e-10)
(4.14989e-09 -2.65686e-09 7.68405e-10)
(4.36309e-09 -2.63994e-09 7.72973e-10)
(4.49068e-09 -2.62447e-09 7.77841e-10)
(4.53154e-09 -2.60436e-09 7.84164e-10)
(4.46049e-09 -2.55858e-09 7.86691e-10)
(4.27982e-09 -2.50097e-09 7.90213e-10)
(4.03239e-09 -2.43893e-09 7.9818e-10)
(3.71008e-09 -2.40025e-09 8.0809e-10)
(3.25473e-09 -2.37613e-09 8.08748e-10)
(2.69608e-09 -2.35545e-09 8.06219e-10)
(2.09836e-09 -2.34663e-09 8.20603e-10)
(1.54091e-09 -2.44021e-09 8.5098e-10)
(9.63125e-10 -2.56939e-09 8.28316e-10)
(3.24557e-10 -1.46165e-09 7.52731e-10)
(1.00064e-09 -1.45771e-09 1.00064e-09)
(4.76231e-10 -7.67129e-09 7.89098e-10)
(-2.33762e-10 -6.16164e-09 8.78249e-10)
(5.46103e-10 -6.11038e-09 8.40523e-10)
(5.46086e-10 -6.16838e-09 8.4421e-10)
(7.18596e-10 -6.26079e-09 8.78056e-10)
(9.40233e-10 -6.39687e-09 8.84327e-10)
(1.182e-09 -6.45933e-09 8.88526e-10)
(1.45605e-09 -6.66377e-09 8.88573e-10)
(1.78227e-09 -6.75848e-09 8.94811e-10)
(2.1179e-09 -6.90874e-09 8.9318e-10)
(2.42143e-09 -7.00625e-09 9.07113e-10)
(2.76886e-09 -7.07495e-09 9.04841e-10)
(3.1356e-09 -7.11819e-09 8.99196e-10)
(3.48033e-09 -7.13351e-09 8.9209e-10)
(3.77716e-09 -7.1176e-09 8.95057e-10)
(4.01698e-09 -7.08642e-09 9.03698e-10)
(4.1855e-09 -7.05026e-09 9.08435e-10)
(4.27967e-09 -7.00844e-09 9.08854e-10)
(4.32198e-09 -6.92916e-09 9.17644e-10)
(4.25904e-09 -6.80486e-09 9.23835e-10)
(4.06793e-09 -6.66144e-09 9.2292e-10)
(3.78974e-09 -6.53076e-09 9.28023e-10)
(3.42376e-09 -6.432e-09 9.28282e-10)
(2.99664e-09 -6.37788e-09 9.34626e-10)
(2.53235e-09 -6.31421e-09 9.33644e-10)
(1.99161e-09 -6.27188e-09 9.144e-10)
(1.47968e-09 -6.30468e-09 8.87237e-10)
(6.45421e-10 -6.4126e-09 8.1645e-10)
(1.99366e-11 -4.49174e-09 6.89484e-10)
(1.04789e-09 -5.06047e-09 1.04789e-09)
(6.4012e-10 -1.13027e-08 8.60607e-10)
(-7.12266e-11 -9.88275e-09 9.20801e-10)
(6.16136e-10 -9.86584e-09 8.55662e-10)
(6.30705e-10 -9.97373e-09 8.85573e-10)
(7.80804e-10 -1.01081e-08 8.99298e-10)
(9.5895e-10 -1.02813e-08 9.1147e-10)
(1.18592e-09 -1.0435e-08 9.1897e-10)
(1.44508e-09 -1.06617e-08 9.32877e-10)
(1.73728e-09 -1.08243e-08 9.39906e-10)
(2.06316e-09 -1.10195e-08 9.46786e-10)
(2.4117e-09 -1.11606e-08 9.36783e-10)
(2.74809e-09 -1.12467e-08 9.4158e-10)
(3.0826e-09 -1.13019e-08 9.45219e-10)
(3.40529e-09 -1.13352e-08 9.46335e-10)
(3.69071e-09 -1.13358e-08 9.47312e-10)
(3.91628e-09 -1.12944e-08 9.5076e-10)
(4.06782e-09 -1.12192e-08 9.54094e-10)
(4.17196e-09 -1.10991e-08 9.44883e-10)
(4.23582e-09 -1.09233e-08 9.66583e-10)
(4.17549e-09 -1.07167e-08 9.67777e-10)
(3.96356e-09 -1.05037e-08 9.63392e-10)
(3.65662e-09 -1.03143e-08 9.64442e-10)
(3.27209e-09 -1.01484e-08 9.57595e-10)
(2.82699e-09 -9.99285e-09 9.68084e-10)
(2.31573e-09 -9.87545e-09 9.79752e-10)
(1.71999e-09 -9.83332e-09 9.90739e-10)
(1.17008e-09 -9.85707e-09 9.86464e-10)
(4.23981e-10 -1.00671e-08 9.45754e-10)
(-3.71832e-11 -8.01762e-09 8.07644e-10)
(1.08587e-09 -8.62589e-09 1.08587e-09)
(7.42193e-10 -1.47729e-08 8.47993e-10)
(-2.11214e-11 -1.34784e-08 9.29966e-10)
(5.92263e-10 -1.35468e-08 8.57281e-10)
(5.97265e-10 -1.36882e-08 8.83791e-10)
(7.6726e-10 -1.38865e-08 8.99872e-10)
(9.36222e-10 -1.41442e-08 9.09514e-10)
(1.14227e-09 -1.43671e-08 9.29069e-10)
(1.40557e-09 -1.46263e-08 9.49722e-10)
(1.67112e-09 -1.48704e-08 9.71544e-10)
(1.97383e-09 -1.50941e-08 9.8249e-10)
(2.30577e-09 -1.53008e-08 9.86564e-10)
(2.64636e-09 -1.54687e-08 9.89571e-10)
(2.98833e-09 -1.55821e-08 9.91099e-10)
(3.31374e-09 -1.5636e-08 9.8868e-10)
(3.6037e-09 -1.56259e-08 9.76268e-10)
(3.83524e-09 -1.55526e-08 9.68349e-10)
(4.0015e-09 -1.5419e-08 9.60565e-10)
(4.12346e-09 -1.52443e-08 9.71034e-10)
(4.1971e-09 -1.49929e-08 9.8719e-10)
(4.13318e-09 -1.47384e-08 9.92995e-10)
(3.90782e-09 -1.44852e-08 9.88786e-10)
(3.59043e-09 -1.42262e-08 9.83978e-10)
(3.22056e-09 -1.39747e-08 9.91973e-10)
(2.7979e-09 -1.37254e-08 1.00734e-09)
(2.27821e-09 -1.35123e-08 1.01595e-09)
(1.65204e-09 -1.33719e-08 1.02165e-09)
(1.02243e-09 -1.32624e-08 1.02313e-09)
(2.46205e-10 -1.33392e-08 9.77251e-10)
(-1.11932e-10 -1.13099e-08 8.4287e-10)
(1.06926e-09 -1.22505e-08 1.06926e-09)
(7.43789e-10 -1.81525e-08 8.20324e-10)
(-6.80827e-11 -1.70031e-08 9.31109e-10)
(4.94761e-10 -1.71243e-08 8.64256e-10)
(5.05098e-10 -1.73325e-08 8.84642e-10)
(6.08103e-10 -1.75804e-08 9.01272e-10)
(7.55194e-10 -1.79427e-08 9.03395e-10)
(9.67072e-10 -1.82855e-08 9.20942e-10)
(1.22209e-09 -1.86133e-08 9.25061e-10)
(1.49155e-09 -1.89291e-08 9.2302e-10)
(1.79616e-09 -1.92435e-08 9.25898e-10)
(2.13905e-09 -1.95143e-08 9.29531e-10)
(2.50263e-09 -1.97347e-08 9.34373e-10)
(2.8715e-09 -1.98892e-08 9.39994e-10)
(3.22924e-09 -1.99654e-08 9.46325e-10)
(3.55094e-09 -1.99463e-08 9.63134e-10)
(3.81124e-09 -1.98429e-08 9.73873e-10)
(3.98313e-09 -1.96473e-08 9.8087e-10)
(4.1319e-09 -1.94451e-08 9.89735e-10)
(4.22309e-09 -1.91451e-08 1.01356e-09)
(4.13784e-09 -1.88682e-08 1.01077e-09)
(3.92467e-09 -1.85297e-08 1.0105e-09)
(3.63877e-09 -1.81449e-08 1.01394e-09)
(3.29547e-09 -1.77437e-08 1.04169e-09)
(2.88052e-09 -1.73982e-08 1.05276e-09)
(2.33637e-09 -1.71415e-08 1.03493e-09)
(1.67953e-09 -1.69459e-08 1.0403e-09)
(9.90718e-10 -1.67783e-08 1.03401e-09)
(1.38786e-10 -1.6738e-08 9.63789e-10)
(-1.78959e-10 -1.46622e-08 8.52566e-10)
(1.00752e-09 -1.58443e-08 1.00752e-09)
(6.59609e-10 -2.13992e-08 7.88522e-10)
(-1.86298e-10 -2.03989e-08 8.94922e-10)
(2.94039e-10 -2.05474e-08 8.39077e-10)
(2.66639e-10 -2.08379e-08 8.56648e-10)
(3.22314e-10 -2.11661e-08 8.71415e-10)
(4.19211e-10 -2.15513e-08 8.57501e-10)
(6.49362e-10 -2.19282e-08 9.1081e-10)
(9.54535e-10 -2.23768e-08 9.20204e-10)
(1.21415e-09 -2.28029e-08 9.20739e-10)
(1.52504e-09 -2.32042e-08 9.20206e-10)
(1.9001e-09 -2.35555e-08 9.25814e-10)
(2.30418e-09 -2.38376e-08 9.35199e-10)
(2.72083e-09 -2.40375e-08 9.44675e-10)
(3.13294e-09 -2.41421e-08 9.53426e-10)
(3.50623e-09 -2.41355e-08 9.71478e-10)
(3.81892e-09 -2.40251e-08 9.78813e-10)
(4.0041e-09 -2.38293e-08 9.88418e-10)
(4.16571e-09 -2.35797e-08 9.87386e-10)
(4.26921e-09 -2.32352e-08 9.80254e-10)
(4.23204e-09 -2.28501e-08 9.90702e-10)
(4.11904e-09 -2.24033e-08 1.00264e-09)
(3.88291e-09 -2.19199e-08 1.01836e-09)
(3.52574e-09 -2.14269e-08 1.02394e-09)
(3.02698e-09 -2.10234e-08 1.0213e-09)
(2.43961e-09 -2.06768e-08 1.04018e-09)
(1.78844e-09 -2.03774e-08 1.03092e-09)
(1.07526e-09 -2.01368e-08 1.02079e-09)
(2.5446e-10 -1.99795e-08 1.02704e-09)
(-9.58738e-11 -1.79993e-08 8.43644e-10)
(9.34544e-10 -1.92854e-08 9.34544e-10)
(5.03383e-10 -2.43961e-08 7.50031e-10)
(-3.95227e-10 -2.35888e-08 8.39066e-10)
(1.63345e-11 -2.37761e-08 7.95968e-10)
(-6.23158e-11 -2.41598e-08 8.13287e-10)
(-4.5235e-11 -2.45853e-08 8.3007e-10)
(7.36398e-11 -2.50641e-08 8.65735e-10)
(2.30602e-10 -2.5542e-08 8.36357e-10)
(4.49534e-10 -2.61057e-08 8.53488e-10)
(7.66255e-10 -2.66369e-08 8.62353e-10)
(1.13712e-09 -2.71215e-08 8.75123e-10)
(1.5685e-09 -2.75481e-08 8.89941e-10)
(2.03584e-09 -2.78935e-08 9.03143e-10)
(2.51913e-09 -2.81486e-08 9.13115e-10)
(3.00668e-09 -2.82735e-08 9.30028e-10)
(3.45647e-09 -2.82982e-08 9.38662e-10)
(3.8119e-09 -2.81903e-08 9.40142e-10)
(4.03969e-09 -2.79905e-08 9.49952e-10)
(4.28151e-09 -2.76403e-08 9.48443e-10)
(4.47558e-09 -2.72223e-08 9.52178e-10)
(4.49478e-09 -2.66878e-08 9.55611e-10)
(4.40106e-09 -2.61331e-08 9.60092e-10)
(4.17842e-09 -2.5576e-08 9.6329e-10)
(3.79656e-09 -2.5031e-08 9.59358e-10)
(3.2923e-09 -2.45317e-08 9.67393e-10)
(2.70728e-09 -2.4064e-08 9.73543e-10)
(2.00603e-09 -2.36621e-08 9.65237e-10)
(1.24935e-09 -2.33413e-08 9.52418e-10)
(3.45003e-10 -2.30393e-08 9.38001e-10)
(-8.64807e-11 -2.12585e-08 7.29614e-10)
(8.52292e-10 -2.25666e-08 8.52291e-10)
(2.65454e-10 -2.7172e-08 6.94787e-10)
(-7.25922e-10 -2.65852e-08 7.65556e-10)
(-3.94526e-10 -2.68388e-08 7.26378e-10)
(-5.61384e-10 -2.73429e-08 7.46008e-10)
(-6.05527e-10 -2.7895e-08 7.5885e-10)
(-5.4873e-10 -2.8522e-08 7.71766e-10)
(-3.84014e-10 -2.92068e-08 7.79343e-10)
(-1.1511e-10 -2.98582e-08 7.927e-10)
(2.30891e-10 -3.05038e-08 7.97987e-10)
(6.55376e-10 -3.10889e-08 8.13521e-10)
(1.15913e-09 -3.15986e-08 8.30863e-10)
(1.69777e-09 -3.20118e-08 8.44461e-10)
(2.27922e-09 -3.23082e-08 8.56242e-10)
(2.85364e-09 -3.24718e-08 8.53206e-10)
(3.3883e-09 -3.25051e-08 8.74475e-10)
(3.84779e-09 -3.23954e-08 8.56907e-10)
(4.18991e-09 -3.21292e-08 8.63605e-10)
(4.51414e-09 -3.16644e-08 8.70279e-10)
(4.78049e-09 -3.1151e-08 8.80014e-10)
(4.89062e-09 -3.05181e-08 8.80442e-10)
(4.83623e-09 -2.98386e-08 8.75535e-10)
(4.61558e-09 -2.91535e-08 8.68267e-10)
(4.23271e-09 -2.84745e-08 8.67065e-10)
(3.70666e-09 -2.78062e-08 8.70991e-10)
(3.07424e-09 -2.72224e-08 8.7515e-10)
(2.32515e-09 -2.66599e-08 8.68804e-10)
(1.56862e-09 -2.61723e-08 8.77051e-10)
(5.81983e-10 -2.59666e-08 8.20521e-10)
(-2.4121e-11 -2.4372e-08 6.38506e-10)
(7.39384e-10 -2.56304e-08 7.39384e-10)
(-6.87036e-11 -2.9718e-08 6.08108e-10)
(-1.16874e-09 -2.93305e-08 6.70884e-10)
(-9.08385e-10 -2.96924e-08 6.35359e-10)
(-1.18795e-09 -3.03126e-08 6.56256e-10)
(-1.3101e-09 -3.09912e-08 6.68774e-10)
(-1.31438e-09 -3.17642e-08 6.72403e-10)
(-1.16046e-09 -3.25934e-08 6.85532e-10)
(-8.82702e-10 -3.34396e-08 6.8165e-10)
(-4.94598e-10 -3.42501e-08 6.99047e-10)
(2.53417e-11 -3.49701e-08 7.1492e-10)
(6.31304e-10 -3.55937e-08 7.326e-10)
(1.29027e-09 -3.6094e-08 7.43678e-10)
(1.98201e-09 -3.64418e-08 7.52432e-10)
(2.67515e-09 -3.66504e-08 7.53564e-10)
(3.3409e-09 -3.66687e-08 7.57658e-10)
(3.9498e-09 -3.65184e-08 7.54625e-10)
(4.46758e-09 -3.618e-08 7.55212e-10)
(4.90072e-09 -3.56385e-08 7.58257e-10)
(5.2435e-09 -3.49995e-08 7.68816e-10)
(5.43762e-09 -3.42602e-08 7.67796e-10)
(5.43378e-09 -3.34503e-08 7.61335e-10)
(5.24312e-09 -3.26206e-08 7.59569e-10)
(4.86906e-09 -3.17685e-08 7.67693e-10)
(4.30655e-09 -3.0967e-08 7.34154e-10)
(3.65885e-09 -3.02325e-08 7.63537e-10)
(2.90327e-09 -2.95458e-08 7.80125e-10)
(1.83303e-09 -2.90528e-08 7.33062e-10)
(5.7028e-10 -2.88222e-08 6.56419e-10)
(-2.50314e-11 -2.73577e-08 5.21351e-10)
(5.96427e-10 -2.84199e-08 5.96427e-10)
(-4.80779e-10 -3.20045e-08 5.01935e-10)
(-1.72289e-09 -3.18182e-08 5.51151e-10)
(-1.54813e-09 -3.22375e-08 5.20673e-10)
(-1.95111e-09 -3.29856e-08 5.40907e-10)
(-2.17349e-09 -3.38408e-08 5.55258e-10)
(-2.25314e-09 -3.48054e-08 5.45336e-10)
(-2.14338e-09 -3.58187e-08 5.51938e-10)
(-1.83962e-09 -3.68625e-08 5.58045e-10)
(-1.37597e-09 -3.7837e-08 5.6927e-10)
(-7.66613e-10 -3.87174e-08 5.8205e-10)
(-4.25149e-11 -3.9478e-08 5.95345e-10)
(7.6123e-10 -4.00878e-08 6.05102e-10)
(1.61388e-09 -4.05135e-08 6.11992e-10)
(2.48215e-09 -4.07464e-08 6.15381e-10)
(3.3333e-09 -4.07599e-08 6.19226e-10)
(4.13269e-09 -4.05515e-08 6.2232e-10)
(4.8417e-09 -4.01421e-08 6.24845e-10)
(5.43207e-09 -3.95274e-08 6.2502e-10)
(5.8838e-09 -3.87589e-08 6.27598e-10)
(6.16752e-09 -3.78861e-08 6.31301e-10)
(6.2257e-09 -3.69349e-08 6.24259e-10)
(6.07332e-09 -3.5927e-08 6.29078e-10)
(5.67924e-09 -3.49197e-08 6.17252e-10)
(5.05488e-09 -3.39466e-08 6.11581e-10)
(4.33331e-09 -3.30329e-08 6.57427e-10)
(3.37056e-09 -3.2307e-08 6.2052e-10)
(2.18849e-09 -3.17816e-08 5.84946e-10)
(8.67983e-10 -3.13001e-08 5.42701e-10)
(7.3385e-11 -2.98908e-08 3.90341e-10)
(4.30768e-10 -3.0722e-08 4.30768e-10)
(-9.70829e-10 -3.38004e-08 3.76834e-10)
(-2.30649e-09 -3.38645e-08 4.20075e-10)
(-2.20683e-09 -3.44191e-08 3.85785e-10)
(-2.86788e-09 -3.53729e-08 3.93094e-10)
(-3.25776e-09 -3.63781e-08 4.00915e-10)
(-3.40151e-09 -3.75664e-08 3.98547e-10)
(-3.31356e-09 -3.8819e-08 4.02954e-10)
(-2.98773e-09 -4.00754e-08 4.09077e-10)
(-2.45314e-09 -4.12688e-08 4.14555e-10)
(-1.73653e-09 -4.23391e-08 4.19211e-10)
(-8.69884e-10 -4.32568e-08 4.23134e-10)
(1.14695e-10 -4.3994e-08 4.28715e-10)
(1.17914e-09 -4.45108e-08 4.32623e-10)
(2.27808e-09 -4.4784e-08 4.35848e-10)
(3.36699e-09 -4.4799e-08 4.39595e-10)
(4.40119e-09 -4.45519e-08 4.48127e-10)
(5.33574e-09 -4.40616e-08 4.52944e-10)
(6.12606e-09 -4.33346e-08 4.58683e-10)
(6.72995e-09 -4.24156e-08 4.63262e-10)
(7.10895e-09 -4.13571e-08 4.71732e-10)
(7.24328e-09 -4.02083e-08 4.77259e-10)
(7.11377e-09 -3.89876e-08 4.75585e-10)
(6.70572e-09 -3.77755e-08 4.73793e-10)
(6.04841e-09 -3.65772e-08 4.74826e-10)
(5.1583e-09 -3.54832e-08 4.80746e-10)
(4.02664e-09 -3.46164e-08 4.51846e-10)
(2.73236e-09 -3.39002e-08 4.29552e-10)
(1.20699e-09 -3.33284e-08 3.88539e-10)
(1.76728e-10 -3.20217e-08 2.4614e-10)
(2.5748e-10 -3.23514e-08 2.5748e-10)
(-1.54349e-09 -3.50049e-08 2.21414e-10)
(-3.11686e-09 -3.53472e-08 2.66122e-10)
(-3.1413e-09 -3.61794e-08 2.32377e-10)
(-3.92942e-09 -3.74427e-08 2.37033e-10)
(-4.47084e-09 -3.87933e-08 1.94823e-10)
(-4.79782e-09 -4.02282e-08 1.85501e-10)
(-4.75543e-09 -4.17085e-08 2.0349e-10)
(-4.39784e-09 -4.32091e-08 2.15981e-10)
(-3.77236e-09 -4.46962e-08 2.1766e-10)
(-2.91187e-09 -4.60191e-08 2.12027e-10)
(-1.86898e-09 -4.71662e-08 2.01456e-10)
(-6.69637e-10 -4.80568e-08 2.0118e-10)
(6.55955e-10 -4.86526e-08 2.08884e-10)
(2.0487e-09 -4.89491e-08 2.17464e-10)
(3.43748e-09 -4.89413e-08 2.27878e-10)
(4.76481e-09 -4.86183e-08 2.41034e-10)
(5.98377e-09 -4.79867e-08 2.56142e-10)
(7.02244e-09 -4.70881e-08 2.72366e-10)
(7.81689e-09 -4.59722e-08 2.87682e-10)
(8.33024e-09 -4.46803e-08 2.95924e-10)
(8.53856e-09 -4.32604e-08 3.00422e-10)
(8.43211e-09 -4.17686e-08 3.04068e-10)
(7.99763e-09 -4.02682e-08 3.04291e-10)
(7.23657e-09 -3.88318e-08 3.0208e-10)
(6.1699e-09 -3.75495e-08 2.9081e-10)
(4.83218e-09 -3.64568e-08 2.68066e-10)
(3.37661e-09 -3.55722e-08 2.44294e-10)
(1.65792e-09 -3.48907e-08 2.27635e-10)
(3.33751e-10 -3.3629e-08 9.81016e-11)
(4.07325e-11 -3.3343e-08 4.07327e-11)
(-2.23375e-09 -3.57484e-08 -1.34416e-11)
(-4.129e-09 -3.63167e-08 5.01712e-11)
(-4.37966e-09 -3.73643e-08 -1.11455e-11)
(-5.46227e-09 -3.88543e-08 -2.10954e-11)
(-6.10303e-09 -4.05663e-08 1.96382e-11)
(-6.40163e-09 -4.23617e-08 3.03501e-11)
(-6.39859e-09 -4.42078e-08 1.95004e-11)
(-6.10583e-09 -4.60721e-08 1.65788e-11)
(-5.43121e-09 -4.78449e-08 8.18491e-12)
(-4.40527e-09 -4.94711e-08 4.75984e-12)
(-3.11896e-09 -5.08863e-08 6.11835e-12)
(-1.57639e-09 -5.1974e-08 7.93638e-12)
(1.08672e-10 -5.27086e-08 4.59914e-12)
(1.85829e-09 -5.30762e-08 2.67321e-12)
(3.61766e-09 -5.30681e-08 9.51728e-12)
(5.32249e-09 -5.26668e-08 2.56586e-11)
(6.87423e-09 -5.18963e-08 4.63369e-11)
(8.17607e-09 -5.0815e-08 6.29149e-11)
(9.18256e-09 -4.94578e-08 7.84352e-11)
(9.85676e-09 -4.78717e-08 8.67953e-11)
(1.01668e-08 -4.61118e-08 9.66914e-11)
(1.00862e-08 -4.42689e-08 1.03593e-10)
(9.59628e-09 -4.24349e-08 1.04795e-10)
(8.70363e-09 -4.06929e-08 9.34827e-11)
(7.45287e-09 -3.91278e-08 7.85879e-11)
(5.92515e-09 -3.77672e-08 6.90148e-11)
(4.24568e-09 -3.66842e-08 4.32253e-11)
(2.2411e-09 -3.58302e-08 2.81692e-11)
(5.48787e-10 -3.46318e-08 -6.71648e-11)
(-2.13747e-10 -3.34448e-08 -2.13747e-10)
(-3.01254e-09 -3.57798e-08 -2.61692e-10)
(-5.26043e-09 -3.65278e-08 -1.68975e-10)
(-5.75418e-09 -3.78205e-08 -2.19497e-10)
(-7.12373e-09 -3.95651e-08 -2.20263e-10)
(-8.0276e-09 -4.15614e-08 -2.17202e-10)
(-8.52177e-09 -4.3808e-08 -2.23321e-10)
(-8.5803e-09 -4.61553e-08 -2.3319e-10)
(-8.18911e-09 -4.84898e-08 -2.43084e-10)
(-7.37288e-09 -5.0638e-08 -2.49153e-10)
(-6.18767e-09 -5.26118e-08 -2.54896e-10)
(-4.61282e-09 -5.43037e-08 -2.6989e-10)
(-2.71105e-09 -5.5669e-08 -2.70902e-10)
(-6.20004e-10 -5.66107e-08 -2.73967e-10)
(1.57982e-09 -5.70981e-08 -2.73629e-10)
(3.80785e-09 -5.71196e-08 -2.5856e-10)
(5.95972e-09 -5.66578e-08 -2.34842e-10)
(7.90426e-09 -5.57702e-08 -2.1464e-10)
(9.55526e-09 -5.44776e-08 -1.97433e-10)
(1.08595e-08 -5.28152e-08 -1.80695e-10)
(1.17626e-08 -5.08504e-08 -1.58124e-10)
(1.22052e-08 -4.86778e-08 -1.39939e-10)
(1.21463e-08 -4.64269e-08 -1.30361e-10)
(1.15913e-08 -4.41994e-08 -1.28755e-10)
(1.05679e-08 -4.20587e-08 -1.32985e-10)
(9.11801e-09 -4.01122e-08 -1.33744e-10)
(7.30157e-09 -3.84462e-08 -1.42285e-10)
(5.3609e-09 -3.71678e-08 -1.67641e-10)
(2.97764e-09 -3.60963e-08 -1.7239e-10)
(7.74404e-10 -3.49474e-08 -2.66197e-10)
(-5.01525e-10 -3.24401e-08 -5.01526e-10)
(-3.9146e-09 -3.48755e-08 -5.29815e-10)
(-6.63416e-09 -3.58362e-08 -4.22179e-10)
(-7.48257e-09 -3.74698e-08 -4.71841e-10)
(-9.22435e-09 -3.96423e-08 -4.77091e-10)
(-1.04218e-08 -4.21116e-08 -4.8041e-10)
(-1.11086e-08 -4.48643e-08 -4.93207e-10)
(-1.12326e-08 -4.77111e-08 -5.09872e-10)
(-1.07823e-08 -5.05549e-08 -5.28945e-10)
(-9.7937e-09 -5.32589e-08 -5.38529e-10)
(-8.33826e-09 -5.56931e-08 -5.56346e-10)
(-6.43836e-09 -5.77581e-08 -5.77059e-10)
(-4.10899e-09 -5.95004e-08 -5.87889e-10)
(-1.48554e-09 -6.06319e-08 -5.97883e-10)
(1.25861e-09 -6.12112e-08 -6.05351e-10)
(4.04219e-09 -6.12544e-08 -5.75728e-10)
(6.71959e-09 -6.06901e-08 -5.48871e-10)
(9.14537e-09 -5.95975e-08 -5.2651e-10)
(1.12448e-08 -5.7997e-08 -5.03266e-10)
(1.29312e-08 -5.59493e-08 -4.78115e-10)
(1.41135e-08 -5.35276e-08 -4.50102e-10)
(1.47125e-08 -5.08712e-08 -4.33016e-10)
(1.4696e-08 -4.81195e-08 -4.22169e-10)
(1.40962e-08 -4.54161e-08 -4.06073e-10)
(1.2957e-08 -4.28011e-08 -3.81881e-10)
(1.12476e-08 -4.03825e-08 -3.89944e-10)
(9.03712e-09 -3.83525e-08 -3.98233e-10)
(6.75504e-09 -3.67249e-08 -4.21668e-10)
(3.85924e-09 -3.55552e-08 -4.05653e-10)
(1.02436e-09 -3.43277e-08 -5.07192e-10)
(-8.09412e-10 -3.01292e-08 -8.09412e-10)
(-4.96269e-09 -3.28164e-08 -8.24956e-10)
(-8.32326e-09 -3.40501e-08 -7.04628e-10)
(-9.6482e-09 -3.61088e-08 -7.62679e-10)
(-1.18377e-08 -3.88052e-08 -7.8075e-10)
(-1.33848e-08 -4.17845e-08 -7.81972e-10)
(-1.43011e-08 -4.51339e-08 -8.06186e-10)
(-1.44948e-08 -4.8629e-08 -8.49363e-10)
(-1.39953e-08 -5.21451e-08 -8.81206e-10)
(-1.28055e-08 -5.54933e-08 -9.08781e-10)
(-1.09938e-08 -5.85063e-08 -9.40974e-10)
(-8.70516e-09 -6.10577e-08 -9.71432e-10)
(-5.81894e-09 -6.30476e-08 -9.73602e-10)
(-2.49553e-09 -6.44744e-08 -9.89582e-10)
(8.68714e-10 -6.52403e-08 -9.63981e-10)
(4.31144e-09 -6.52744e-08 -9.40936e-10)
(7.65797e-09 -6.46063e-08 -9.59284e-10)
(1.0682e-08 -6.32434e-08 -9.42844e-10)
(1.33186e-08 -6.1233e-08 -9.16858e-10)
(1.54732e-08 -5.86851e-08 -8.73097e-10)
(1.7012e-08 -5.57383e-08 -8.28451e-10)
(1.78227e-08 -5.25382e-08 -8.06824e-10)
(1.78748e-08 -4.91614e-08 -7.84952e-10)
(1.72148e-08 -4.57868e-08 -7.467e-10)
(1.59439e-08 -4.25619e-08 -6.90835e-10)
(1.39251e-08 -3.96634e-08 -6.91528e-10)
(1.12674e-08 -3.71688e-08 -6.95143e-10)
(8.40247e-09 -3.51304e-08 -7.28993e-10)
(4.8288e-09 -3.37396e-08 -6.86998e-10)
(1.35535e-09 -3.24652e-08 -7.91997e-10)
(-1.15819e-09 -2.61082e-08 -1.15818e-09)
(-6.22852e-09 -2.92288e-08 -1.20033e-09)
(-1.0448e-08 -3.07693e-08 -1.05515e-09)
(-1.23899e-08 -3.33147e-08 -1.12783e-09)
(-1.50605e-08 -3.65328e-08 -1.1525e-09)
(-1.69821e-08 -4.03613e-08 -1.19543e-09)
(-1.82359e-08 -4.44971e-08 -1.24503e-09)
(-1.85684e-08 -4.88343e-08 -1.29782e-09)
(-1.79882e-08 -5.31772e-08 -1.34479e-09)
(-1.65136e-08 -5.73328e-08 -1.38749e-09)
(-1.42565e-08 -6.10668e-08 -1.42771e-09)
(-1.12946e-08 -6.4256e-08 -1.45985e-09)
(-7.77645e-09 -6.66811e-08 -1.48813e-09)
(-3.85364e-09 -6.8467e-08 -1.47974e-09)
(3.58358e-10 -6.94108e-08 -1.48157e-09)
(4.64233e-09 -6.94009e-08 -1.47623e-09)
(8.77474e-09 -6.85787e-08 -1.45034e-09)
(1.25968e-08 -6.68679e-08 -1.41495e-09)
(1.59336e-08 -6.43696e-08 -1.36424e-09)
(1.8626e-08 -6.11925e-08 -1.32401e-09)
(2.05383e-08 -5.758e-08 -1.29366e-09)
(2.16349e-08 -5.3657e-08 -1.22317e-09)
(2.18831e-08 -4.94608e-08 -1.16744e-09)
(2.11921e-08 -4.52812e-08 -1.09234e-09)
(1.95831e-08 -4.13027e-08 -1.09717e-09)
(1.71175e-08 -3.76884e-08 -1.09238e-09)
(1.39663e-08 -3.45151e-08 -1.04975e-09)
(1.04763e-08 -3.20273e-08 -1.06046e-09)
(5.99338e-09 -3.02587e-08 -1.03455e-09)
(1.6498e-09 -2.89228e-08 -1.12167e-09)
(-1.61333e-09 -2.01742e-08 -1.61333e-09)
(-7.79706e-09 -2.38764e-08 -1.69062e-09)
(-1.30382e-08 -2.57537e-08 -1.51293e-09)
(-1.56629e-08 -2.89198e-08 -1.62185e-09)
(-1.91604e-08 -3.29068e-08 -1.67451e-09)
(-2.16984e-08 -3.76466e-08 -1.71844e-09)
(-2.318e-08 -4.27568e-08 -1.77823e-09)
(-2.36156e-08 -4.80703e-08 -1.83131e-09)
(-2.2927e-08 -5.33662e-08 -1.88624e-09)
(-2.11183e-08 -5.84899e-08 -1.93846e-09)
(-1.83141e-08 -6.31752e-08 -1.9785e-09)
(-1.46618e-08 -6.71699e-08 -2.00793e-09)
(-1.02996e-08 -7.0336e-08 -2.03131e-09)
(-5.41628e-09 -7.25549e-08 -2.04411e-09)
(-1.75465e-10 -7.36068e-08 -2.04998e-09)
(5.10581e-09 -7.36432e-08 -2.05518e-09)
(1.02211e-08 -7.2588e-08 -2.01356e-09)
(1.50019e-08 -7.04755e-08 -1.97849e-09)
(1.91887e-08 -6.74221e-08 -1.93585e-09)
(2.2558e-08 -6.35581e-08 -1.87296e-09)
(2.49643e-08 -5.90477e-08 -1.80747e-09)
(2.64545e-08 -5.41187e-08 -1.71291e-09)
(2.68312e-08 -4.8967e-08 -1.65552e-09)
(2.60055e-08 -4.38187e-08 -1.58748e-09)
(2.41427e-08 -3.89116e-08 -1.55981e-09)
(2.12311e-08 -3.43879e-08 -1.52077e-09)
(1.73424e-08 -3.04579e-08 -1.56501e-09)
(1.29645e-08 -2.73533e-08 -1.57189e-09)
(7.39017e-09 -2.51091e-08 -1.47668e-09)
(2.02076e-09 -2.34938e-08 -1.58093e-09)
(-2.18313e-09 -1.18535e-08 -2.18313e-09)
(-9.7133e-09 -1.62253e-08 -2.27738e-09)
(-1.62641e-08 -1.85384e-08 -2.10189e-09)
(-1.99038e-08 -2.24571e-08 -2.20589e-09)
(-2.41813e-08 -2.74762e-08 -2.26812e-09)
(-2.72956e-08 -3.31474e-08 -2.33095e-09)
(-2.91759e-08 -3.94398e-08 -2.39906e-09)
(-2.97213e-08 -4.5968e-08 -2.46479e-09)
(-2.89234e-08 -5.25006e-08 -2.53031e-09)
(-2.6806e-08 -5.87786e-08 -2.5848e-09)
(-2.33753e-08 -6.45695e-08 -2.6281e-09)
(-1.88193e-08 -6.94799e-08 -2.65095e-09)
(-1.34386e-08 -7.33198e-08 -2.6822e-09)
(-7.32572e-09 -7.59881e-08 -2.69947e-09)
(-8.39961e-10 -7.74306e-08 -2.68569e-09)
(5.6493e-09 -7.75244e-08 -2.67328e-09)
(1.20155e-08 -7.6213e-08 -2.65449e-09)
(1.79472e-08 -7.36141e-08 -2.62172e-09)
(2.31591e-08 -6.98448e-08 -2.57066e-09)
(2.74246e-08 -6.50921e-08 -2.49138e-09)
(3.05183e-08 -5.95113e-08 -2.3999e-09)
(3.23602e-08 -5.339e-08 -2.31925e-09)
(3.28664e-08 -4.70463e-08 -2.25565e-09)
(3.19299e-08 -4.0655e-08 -2.18722e-09)
(2.96516e-08 -3.45295e-08 -2.13422e-09)
(2.61066e-08 -2.89714e-08 -2.11375e-09)
(2.14235e-08 -2.41474e-08 -2.08418e-09)
(1.61446e-08 -2.03059e-08 -2.1161e-09)
(9.23423e-09 -1.73905e-08 -1.99318e-09)
(2.51056e-09 -1.53787e-08 -2.16539e-09)
(-2.89785e-09 -2.08517e-10 -2.89785e-09)
(-1.20791e-08 -5.28978e-09 -3.01371e-09)
(-2.0198e-08 -8.1472e-09 -2.81814e-09)
(-2.50528e-08 -1.28973e-08 -2.92631e-09)
(-3.03328e-08 -1.90229e-08 -2.993e-09)
(-3.42173e-08 -2.61659e-08 -3.08706e-09)
(-3.65986e-08 -3.39596e-08 -3.16869e-09)
(-3.7298e-08 -4.20457e-08 -3.24583e-09)
(-3.63126e-08 -5.00964e-08 -3.31323e-09)
(-3.37068e-08 -5.78264e-08 -3.37438e-09)
(-2.94875e-08 -6.48784e-08 -3.42128e-09)
(-2.38038e-08 -7.09014e-08 -3.41076e-09)
(-1.70732e-08 -7.56546e-08 -3.45705e-09)
(-9.70876e-09 -7.89994e-08 -3.47869e-09)
(-1.80946e-09 -8.07903e-08 -3.49425e-09)
(6.3609e-09 -8.08461e-08 -3.48434e-09)
(1.42802e-08 -7.92161e-08 -3.4609e-09)
(2.16409e-08 -7.59803e-08 -3.42059e-09)
(2.81236e-08 -7.12799e-08 -3.36057e-09)
(3.34343e-08 -6.53378e-08 -3.28149e-09)
(3.72988e-08 -5.84245e-08 -3.18426e-09)
(3.96232e-08 -5.08751e-08 -3.09486e-09)
(4.0297e-08 -4.29068e-08 -3.00495e-09)
(3.92153e-08 -3.49456e-08 -2.92691e-09)
(3.64577e-08 -2.73065e-08 -2.84822e-09)
(3.21653e-08 -2.03159e-08 -2.76282e-09)
(2.64717e-08 -1.43397e-08 -2.7829e-09)
(2.00963e-08 -9.62802e-09 -2.82893e-09)
(1.15905e-08 -5.96964e-09 -2.67488e-09)
(3.14384e-09 -3.53077e-09 -2.89398e-09)
(-3.73055e-09 1.55696e-08 -3.73055e-09)
(-1.4894e-08 9.73536e-09 -3.88093e-09)
(-2.49399e-08 6.22229e-09 -3.65312e-09)
(-3.1299e-08 3.73293e-10 -3.81061e-09)
(-3.79858e-08 -7.18869e-09 -3.92389e-09)
(-4.28494e-08 -1.60058e-08 -4.00262e-09)
(-4.57008e-08 -2.56121e-08 -4.10003e-09)
(-4.65321e-08 -3.55676e-08 -4.19947e-09)
(-4.53417e-08 -4.54954e-08 -4.29542e-09)
(-4.21397e-08 -5.50393e-08 -4.34752e-09)
(-3.69313e-08 -6.38096e-08 -4.39572e-09)
(-3.00331e-08 -7.12925e-08 -4.47979e-09)
(-2.18136e-08 -7.71005e-08 -4.49487e-09)
(-1.25821e-08 -8.12719e-08 -4.51601e-09)
(-2.73303e-09 -8.33309e-08 -4.5235e-09)
(7.31913e-09 -8.33409e-08 -4.51417e-09)
(1.71233e-08 -8.12924e-08 -4.48387e-09)
(2.62503e-08 -7.72728e-08 -4.4349e-09)
(3.42901e-08 -7.14553e-08 -4.36848e-09)
(4.08835e-08 -6.40989e-08 -4.28437e-09)
(4.56604e-08 -5.5505e-08 -4.19527e-09)
(4.85874e-08 -4.61093e-08 -4.07463e-09)
(4.95244e-08 -3.6222e-08 -3.95578e-09)
(4.82401e-08 -2.63401e-08 -3.87316e-09)
(4.49262e-08 -1.68706e-08 -3.80263e-09)
(3.96304e-08 -8.24147e-09 -3.74416e-09)
(3.25806e-08 -8.39761e-10 -3.71782e-09)
(2.4916e-08 5.04181e-09 -3.75941e-09)
(1.44837e-08 9.48798e-09 -3.5679e-09)
(3.92237e-09 1.2497e-08 -3.86084e-09)
(-4.74043e-09 3.63417e-08 -4.74043e-09)
(-1.82982e-08 2.96805e-08 -4.91485e-09)
(-3.07342e-08 2.54037e-08 -4.69076e-09)
(-3.9001e-08 1.8246e-08 -4.86824e-09)
(-4.72608e-08 8.99751e-09 -5.00165e-09)
(-5.32949e-08 -1.68564e-09 -5.12389e-09)
(-5.68342e-08 -1.33403e-08 -5.23359e-09)
(-5.78527e-08 -2.56473e-08 -5.38819e-09)
(-5.64492e-08 -3.79496e-08 -5.48657e-09)
(-5.26188e-08 -4.96373e-08 -5.58593e-09)
(-4.61995e-08 -6.01345e-08 -5.63904e-09)
(-3.75271e-08 -6.9433e-08 -5.71275e-09)
(-2.739e-08 -7.68534e-08 -5.78763e-09)
(-1.60466e-08 -8.19819e-08 -5.81419e-09)
(-3.85549e-09 -8.46528e-08 -5.82453e-09)
(8.54111e-09 -8.47033e-08 -5.80913e-09)
(2.06432e-08 -8.21714e-08 -5.77165e-09)
(3.19095e-08 -7.71891e-08 -5.71216e-09)
(4.18416e-08 -6.99942e-08 -5.62778e-09)
(5.0021e-08 -6.08943e-08 -5.52484e-09)
(5.60028e-08 -5.02654e-08 -5.41001e-09)
(5.96417e-08 -3.8579e-08 -5.28487e-09)
(6.08099e-08 -2.63658e-08 -5.15057e-09)
(5.93115e-08 -1.41356e-08 -5.03945e-09)
(5.52555e-08 -2.35488e-09 -4.9459e-09)
(4.88005e-08 8.34689e-09 -4.88552e-09)
(4.02281e-08 1.7633e-08 -4.8338e-09)
(3.08063e-08 2.49888e-08 -4.89957e-09)
(1.80444e-08 3.03343e-08 -4.63989e-09)
(4.98206e-09 3.41106e-08 -4.90373e-09)
(-5.91729e-09 6.34562e-08 -5.91729e-09)
(-2.2354e-08 5.59145e-08 -6.15893e-09)
(-3.76925e-08 5.06823e-08 -5.95282e-09)
(-4.82584e-08 4.18743e-08 -6.1653e-09)
(-5.84625e-08 3.06252e-08 -6.3153e-09)
(-6.58536e-08 1.76375e-08 -6.46243e-09)
(-7.04002e-08 3.28278e-09 -6.61126e-09)
(-7.18402e-08 -1.1715e-08 -6.81567e-09)
(-6.9983e-08 -2.67998e-08 -6.95548e-09)
(-6.49783e-08 -4.11881e-08 -7.13109e-09)
(-5.72279e-08 -5.41994e-08 -7.26202e-09)
(-4.70992e-08 -6.56076e-08 -7.3611e-09)
(-3.46709e-08 -7.48411e-08 -7.41925e-09)
(-2.05275e-08 -8.11684e-08 -7.45241e-09)
(-5.40474e-09 -8.45149e-08 -7.45547e-09)
(9.97317e-09 -8.45886e-08 -7.43762e-09)
(2.49432e-08 -8.14966e-08 -7.39306e-09)
(3.88685e-08 -7.53841e-08 -7.32158e-09)
(5.1151e-08 -6.6527e-08 -7.21786e-09)
(6.12766e-08 -5.53193e-08 -7.08289e-09)
(6.87332e-08 -4.21634e-08 -6.93126e-09)
(7.32774e-08 -2.77392e-08 -6.7913e-09)
(7.47559e-08 -1.26597e-08 -6.61754e-09)
(7.30098e-08 2.48758e-09 -6.44954e-09)
(6.81008e-08 1.70854e-08 -6.32755e-09)
(6.0242e-08 3.03277e-08 -6.22656e-09)
(4.97398e-08 4.18256e-08 -6.16806e-09)
(3.801e-08 5.10034e-08 -6.12115e-09)
(2.24535e-08 5.72265e-08 -5.81425e-09)
(6.39089e-09 6.19267e-08 -6.11939e-09)
(-7.27745e-09 9.71613e-08 -7.27745e-09)
(-2.71443e-08 8.87995e-08 -7.60046e-09)
(-4.61713e-08 8.23736e-08 -7.42594e-09)
(-5.96224e-08 7.16513e-08 -7.66105e-09)
(-7.20445e-08 5.80297e-08 -7.84061e-09)
(-8.12739e-08 4.21916e-08 -8.06083e-09)
(-8.69406e-08 2.46379e-08 -8.27843e-09)
(-8.87006e-08 6.39053e-09 -8.49888e-09)
(-8.65781e-08 -1.20593e-08 -8.72406e-09)
(-8.06661e-08 -2.97772e-08 -8.93537e-09)
(-7.12227e-08 -4.60381e-08 -9.13106e-09)
(-5.85269e-08 -5.98844e-08 -9.26636e-09)
(-4.31701e-08 -7.08357e-08 -9.42117e-09)
(-2.5865e-08 -7.83678e-08 -9.49033e-09)
(-7.24767e-09 -8.22466e-08 -9.44631e-09)
(1.17302e-08 -8.2376e-08 -9.44844e-09)
(3.01536e-08 -7.86392e-08 -9.39804e-09)
(4.732e-08 -7.11828e-08 -9.30061e-09)