/*--------------------------------*- C++ -*----------------------------------*\
| =========                 |                                                 |
| \\      /  F ield         | OpenFOAM: The Open Source CFD Toolbox           |
|  \\    /   O peration     | Version:  2312                                  |
|   \\  /    A nd           | Website:  www.openfoam.com                      |
|    \\/     M anipulation  |                                                 |
\*---------------------------------------------------------------------------*/
FoamFile
{
    version     2.0;
    format      ascii;
    arch        "LSB;label=32;scalar=64";
    class       volScalarField;
    location    "0.648989";
    object      alpha.water;
}
// * * * * * * * * * * * * * * * * * * * * * * * * * * * * * * * * * * * * * //

dimensions      [0 0 0 0 0 0 0];

internalField   nonuniform List<scalar> 
90000
(
1
0.999978
0.999982
0.999986
0.99999
0.999995
1
1.00001
1.00001
1.00001
1.00001
1.00002
1.00002
1.00002
1.00002
1.00002
1.00002
1.00002
1.00002
1.00001
1.00001
1
1
1
1
1.00001
1.00002
1.00002
1.00003
1.00003
0.999977
0.999969
0.999976
0.999983
0.999992
1
1.00001
1.00002
1.00002
1.00002
1.00003
1.00003
1.00003
1.00003
1.00003
1.00003
1.00003
1.00002
1.00002
1.00001
1.00001
1
1
1.00001
1.00002
1.00003
1.00004
1.00006
1.00011
1.00022
0.999983
0.999982
0.999987
0.999992
0.999998
1
1.00001
1.00001
1.00002
1.00002
1.00002
1.00002
1.00002
1.00002
1.00002
1.00002
1.00002
1.00001
1.00001
1.00001
1
1
1
1.00001
1.00001
1.00001
1.00001
0.999985
0.99993
1.00005
0.99999
0.999995
0.999998
1
1.00001
1.00001
1.00001
1.00001
1.00002
1.00002
1.00002
1.00001
1.00001
1.00001
1.00001
1.00001
1.00001
1
1
1
1
1
1
1
1.00001
1.00001
1.00002
1.00003
0.999979
1.00001
0.999999
1.00001
1.00001
1.00001
1.00001
1.00001
1.00001
1.00001
1.00001
1.00001
1.00001
1.00001
1.00001
1.00001
1
1
1
1
1
1
1.00001
1.00001
1
1
0.999998
0.999992
0.999988
1
0.999982
0.999988
1.00001
1.00002
1.00002
1.00001
1.00001
1.00001
1.00001
1.00001
1.00001
1.00001
1.00001
1.00001
1.00001
1.00001
1.00001
1
1
1
1.00001
1.00001
1.00001
1.00001
1
1
0.999996
0.999991
0.999983
0.999983
0.999975
0.99998
1.00001
1.00002
1.00002
1.00002
1.00001
1.00001
1.00001
1.00001
1.00001
1.00001
1.00001
1.00001
1.00001
1.00001
1.00001
1.00001
1.00001
1.00001
1.00001
1.00001
1.00001
1
1
0.999999
0.999994
0.999991
0.999985
0.99998
0.999977
0.999983
1.00001
1.00003
1.00002
1.00002
1.00001
1.00001
1
1
1
1
1
1.00001
1.00001
1.00001
1.00001
1.00002
1.00002
1.00001
1.00001
1.00001
1
1
1
0.999999
0.999996
0.999993
0.999989
0.999986
0.999986
0.999993
1.00001
1.00003
1.00002
1.00002
1.00002
1.00001
1
0.999999
0.999996
0.999994
0.999995
0.999998
1
1.00001
1.00001
1.00001
1.00001
1.00001
1.00001
1
1
1
0.999999
0.999998
0.999996
0.999994
0.999993
0.999993
0.999996
1
1.00002
1.00004
1.00003
1.00003
1.00002
1.00001
1.00001
0.999998
0.999992
0.999987
0.999986
0.999989
0.999994
0.999999
1
1.00001
1.00001
1
1
1
0.999999
0.999999
0.999998
0.999996
0.999994
0.999993
0.999995
0.999998
1
1
1.00002
1.00005
1.00004
1.00004
1.00003
1.00002
1.00001
0.999999
0.999989
0.999983
0.99998
0.99998
0.999983
0.999987
0.999991
0.999994
0.999996
0.999997
0.999999
1
1
1
0.999999
0.999997
0.999995
0.999996
0.999999
1
1
1
1.00003
1.00005
1.00005
1.00004
1.00003
1.00002
1.00001
0.999999
0.999989
0.999982
0.999978
0.999976
0.999976
0.999978
0.99998
0.999984
0.999988
0.999993
0.999999
1
1.00001
1.00001
1
1
1
1
1.00001
1.00001
1.00001
1.00001
1.00003
1.00004
1.00004
1.00003
1.00002
1.00001
1.00001
0.999997
0.99999
0.999985
0.999981
0.999978
0.999976
0.999975
0.999976
0.99998
0.999986
0.999994
1
1.00001
1.00001
1.00001
1.00001
1.00001
1.00001
1.00001
1.00001
1.00001
1.00001
1.00001
1.00002
1.00002
1.00001
1.00001
1
0.999998
0.999995
0.999994
0.999994
0.999993
0.999991
0.999988
0.999983
0.99998
0.99998
0.999983
0.99999
0.999998
1.00001
1.00001
1.00002
1.00002
1.00002
1.00002
1.00002
1.00002
1.00002
1.00001
1.00001
1
1.00001
0.999979
0.999978
0.999977
0.999977
0.99998
0.999986
0.999994
1
1
1
1
0.999994
0.999989
0.999988
0.999989
0.999994
1
1.00001
1.00001
1.00002
1.00002
1.00002
1.00002
1.00002
1.00002
1.00001
1
0.999997
0.99999
0.999983
0.999943
0.999948
0.999952
0.999959
0.99997
0.999983
0.999996
1.00001
1.00001
1.00001
1.00001
1
0.999994
0.999991
0.999991
0.999992
0.999995
0.999999
1
1.00001
1.00001
1.00001
1.00001
1.00001
1.00001
0.999998
0.999991
0.999984
0.999983
0.999963
0.999923
0.999934
0.999942
0.999954
0.999968
0.999984
0.999996
1
1.00001
1.00001
1
0.999997
0.999993
0.999989
0.999988
0.999987
0.999987
0.99999
0.999993
0.999998
1
1
1
0.999999
0.999993
0.999988
0.999982
0.999979
0.999986
0.999953
0.999925
0.999938
0.999948
0.99996
0.999973
0.999985
0.999994
0.999998
0.999999
0.999998
0.999996
0.999994
0.999992
0.99999
0.999987
0.999985
0.999984
0.999985
0.999988
0.999991
0.999992
0.999992
0.999989
0.999985
0.999981
0.999977
0.999975
0.999978
0.999985
0.999958
0.999943
0.999953
0.999962
0.999972
0.999981
0.999988
0.999992
0.999994
0.999995
0.999996
0.999998
0.999999
0.999998
0.999996
0.999992
0.999988
0.999986
0.999986
0.999986
0.999986
0.999984
0.999981
0.999976
0.999972
0.999969
0.999969
0.99997
0.999974
0.999976
0.99997
0.999965
0.999972
0.999979
0.999986
0.999992
0.999996
0.999998
1
1
1
1.00001
1.00001
1
1
0.999995
0.99999
0.999988
0.999986
0.999983
0.99998
0.999976
0.999972
0.999969
0.999968
0.999969
0.999971
0.999974
0.999973
0.999975
0.999983
0.999985
0.99999
0.999996
1
1.00001
1.00001
1.00001
1.00001
1.00001
1.00001
1.00001
1.00001
1
0.999996
0.999992
0.999989
0.999987
0.999985
0.999981
0.999977
0.999974
0.999972
0.999974
0.999977
0.999982
0.999984
0.999985
0.999981
0.999986
0.999994
1
1
1.00001
1.00002
1.00002
1.00002
1.00002
1.00002
1.00001
1.00001
1.00001
1
0.999994
0.999991
0.999991
0.999992
0.999991
0.999988
0.999984
0.999981
0.99998
0.999983
0.999989
0.999994
0.999997
0.999997
0.999994
0.999991
0.999993
1
1.00001
1.00002
1.00002
1.00002
1.00002
1.00002
1.00002
1.00001
1.00001
1
0.999998
0.999993
0.999991
0.999993
0.999997
0.999999
0.999997
0.999993
0.999989
0.999989
0.999992
0.999999
1.00001
1.00001
1.00001
1.00001
1
0.999998
0.999996
1.00001
1.00002
1.00002
1.00003
1.00002
1.00002
1.00002
1.00001
1.00001
1
0.999998
0.999992
0.99999
0.999992
0.999997
1
1
0.999997
0.999993
0.999993
0.999998
1.00001
1.00001
1.00002
1.00002
1.00002
1.00002
1.00001
1.00001
1.00002
1.00001
1.00003
1.00002
1.00002
1.00002
1.00001
1.00001
1.00001
1
0.999997
0.999991
0.999987
0.999988
0.999993
0.999997
0.999998
0.999996
0.999992
0.999993
0.999998
1.00001
1.00002
1.00002
1.00003
1.00003
1.00003
1.00003
1.00003
1.00003
1.00004
1.00002
1.00002
1.00002
1.00001
1.00001
1
0.999999
0.999997
0.999993
0.999988
0.999985
0.999985
0.999989
0.999995
0.999998
0.999997
0.999994
0.999994
0.999999
1.00001
1.00001
1.00002
1.00002
1.00002
1.00002
1.00002
1.00003
1.00003
1.00004
1.00003
1.00001
1.00001
1
0.999997
0.999992
0.99999
0.99999
0.99999
0.999987
0.999984
0.999984
0.999988
0.999995
1
1
0.999998
0.999997
0.999999
1
1.00001
1.00001
1.00001
1.00001
1.00001
1.00001
1.00001
1.00002
1.00002
1.00002
1
1
0.999994
0.99999
0.999986
0.999985
0.999986
0.999986
0.999985
0.999983
0.999983
0.999987
0.999994
1
1
0.999999
0.999996
0.999996
0.999998
0.999999
0.999997
0.999993
0.999989
0.99999
0.99999
0.99999
0.999997
1.00001
1
0.999996
1
0.999995
0.999984
0.999984
0.999984
0.999984
0.999985
0.999983
0.999981
0.99998
0.999983
0.99999
0.999997
0.999999
0.999996
0.999992
0.99999
0.999991
0.999992
0.999989
0.999984
0.999981
0.999978
0.999978
0.99998
0.999983
0.999994
1
0.999993
0.999999
1.00001
0.99999
0.999983
0.999985
0.999985
0.999985
0.999983
0.99998
0.999978
0.99998
0.999986
0.999993
0.999997
0.999995
0.999991
0.999988
0.999988
0.99999
0.999989
0.999986
0.999982
0.999982
0.999978
0.999975
0.999981
0.999989
0.999996
0.999997
0.999997
1.00001
1.00001
0.999991
0.999987
0.999988
0.999988
0.999987
0.999984
0.999981
0.999981
0.999984
0.99999
0.999994
0.999995
0.999992
0.999989
0.99999
0.999993
0.999994
0.999994
0.999993
0.99999
0.999988
0.999981
0.999977
0.999986
0.999991
0.999987
0.99999
1
1.00001
1
0.999993
0.999992
0.999993
0.999994
0.999993
0.99999
0.999986
0.999984
0.999986
0.999989
0.999991
0.999991
0.999991
0.999992
0.999996
1
1
0.999999
0.999999
0.999993
0.999986
0.99998
0.999979
0.999988
0.999986
0.999977
0.999991
1
0.999995
0.999997
0.999996
1
1
1
0.999999
0.999992
0.999985
0.999982
0.999983
0.999986
0.999989
0.999992
0.999996
1
1
1
1
1
0.999997
0.999987
0.999979
0.999982
0.999984
0.999985
0.99998
0.999981
1
1
0.999997
1
1
1.00001
1.00001
1.00001
0.999999
0.999991
0.999984
0.999983
0.999985
0.999988
0.999992
0.999996
1
1
1
1
1
0.999997
0.999992
0.999983
0.999982
0.999992
0.999988
0.99998
0.999983
0.999994
1
1
0.999996
1
1.00001
1.00001
1.00001
1.00001
0.999999
0.999993
0.999989
0.999988
0.99999
0.999992
0.999995
0.999998
1
1
1
1
1
0.999996
0.999994
0.999992
0.999996
1.00001
0.999992
0.999987
1
1.00001
1
1
1
1
1.00001
1.00002
1.00001
1.00001
1
0.999997
0.999995
0.999995
0.999995
0.999996
0.999996
0.999997
0.999998
1
1
1.00001
1.00001
1
1
1.00001
1.00001
1.00001
0.999994
1
1.00002
1.00001
1
1
1.00001
1.00001
1.00001
1.00002
1.00001
1.00001
1
1
1
1
0.999999
0.999996
0.999995
0.999997
1
1
1.00001
1.00001
1.00001
1
1.00001
1.00001
1
1
0.999998
1.00001
1.00002
1
1
1.00001
1.00001
1.00001
1.00001
1.00002
1.00001
1.00001
1
1.00001
1.00001
1
0.999998
0.999996
0.999995
0.999999
1
1.00001
1.00001
1.00001
1.00001
1
1.00001
1.00001
0.999999
1
1.00001
1.00001
1.00001
1
1.00001
1.00001
1.00001
1.00001
1.00001
1.00001
1.00001
1.00001
1.00001
1.00001
1
1
0.999998
1
1
1
1
1
1.00001
1
1
1
1.00001
1.00001
0.999995
1.00001
1.00001
1
0.999997
1
1
1
1.00001
1.00001
1.00001
1.00001
1.00001
1.00001
1.00001
1
1
1
1
1
1
1
1
1.00001
1.00001
1
1.00001
1.00001
1.00001
1
0.999998
1.00001
1.00001
1
1.00001
1.00001
1.00001
1.00001
1.00002
1.00001
1.00001
1.00001
1.00001
1.00001
1
1
1
1
1
1
1
0.999999
1
1
1.00001
1
1.00001
1
1.00001
0.999996
1
1.00001
1.00001
1.00001
1.00001
1.00001
1.00001
1.00002
1.00002
1.00001
1.00001
1.00001
1.00001
1.00001
1
1
1
1
1
1
0.999997
0.999997
1
1.00001
1
0.999995
1
0.999997
1
0.999998
1.00001
1.00001
1
1.00001
1.00001
0.999998
1.00001
1.00001
1.00001
1
1.00001
1.00001
1.00001
1
1
1
1
1
1
0.999998
0.999996
1
1.00001
1
0.999998
0.999998
1.00001
1
1
1
1.00001
1.00001
1
1
1
1
1.00001
1.00001
1.00001
1
1.00001
1.00001
1
1
1
1
1
1
0.999997
0.999999
0.999999
1.00001
1
1
0.999993
1
1
1
1
1
1
0.999994
0.999996
1
0.999996
1.00001
1
1.00001
1.00001
1
1
1
1
1
1
1
0.999999
1
0.999999
1
0.999999
1.00001
0.999998
1
0.999992
1.00001
1.00001
1
0.999994
0.999997
1
0.999999
1
1
0.999993
1.00001
1.00001
1
0.999999
0.999998
1
1
0.999999
1
1
1
0.999998
0.999999
0.999998
1
0.999998
1
0.999995
0.999999
0.999996
1
1
0.999993
0.999998
1
1
1
1
1
1
0.999997
1
0.999993
0.999998
0.999997
0.999998
1
1
1
1
1
0.999999
0.999999
0.999996
0.999998
0.999997
0.999999
0.999996
0.999996
0.999998
1
0.999997
0.999988
0.999995
1
0.999993
0.999993
0.999992
0.999987
0.999999
1
0.999997
1
0.999993
0.999995
0.99999
0.999995
0.999988
0.999983
0.999983
0.999988
0.999989
0.999994
0.999988
0.99999
0.999998
0.999998
0.999996
0.999995
0.999996
0.999999
0.999995
0.999991
0.999997
0.999999
0.999988
0.999989
0.99999
0.999989
0.999993
0.99999
0.999986
0.999994
0.99999
0.999992
1
1
1
1
1
1
1
1
1
1
0.999994
0.999984
0.999973
0.999966
0.999961
0.999966
0.999964
0.99997
0.999986
0.999994
0.999999
1
1
1
1
1
1
1
1
1
0.88972
0.892372
0.896907
0.901385
0.90647
0.91237
0.916964
0.921061
0.924901
0.928075
0.932463
0.93777
0.941406
0.943368
0.944546
0.944557
0.943355
0.941435
0.937798
0.93247
0.928106
0.924928
0.921076
0.916976
0.912387
0.906468
0.901381
0.896916
0.892354
0.889719
0.260436
0.260562
0.266702
0.278121
0.291712
0.306709
0.322552
0.338728
0.353004
0.364413
0.374198
0.381526
0.38547
0.388706
0.391033
0.391035
0.388696
0.385453
0.381509
0.374177
0.364391
0.352979
0.338702
0.322528
0.306683
0.291687
0.278101
0.266683
0.260537
0.26042
0.0110648
0.00947269
0.00780319
0.00644008
0.00520393
0.00409963
0.00356633
0.00321981
0.00292653
0.00335892
0.00386918
0.00431048
0.00512301
0.00572669
0.00575426
0.00575101
0.00572521
0.00512109
0.00430837
0.00386657
0.00335509
0.00292587
0.00321878
0.00356371
0.0040991
0.00520444
0.00644149
0.00780428
0.00947021
0.011067
0.00323603
0.00264372
0.00192533
0.00140011
0.00102452
0.000761088
0.000603132
0.000487492
0.000410251
0.000363159
0.000455177
0.000516432
0.000375838
0.000289583
0.00031783
0.000318447
0.000289428
0.000375746
0.000516155
0.000455022
0.0003631
0.000410079
0.000487578
0.000603115
0.000761326
0.00102485
0.00140038
0.00192614
0.00264613
0.00323794
0.000839673
0.000720738
0.00046095
0.000294216
0.000186693
0.000120159
8.61406e-05
7.56593e-05
7.02254e-05
8.68487e-05
0.00010616
0.000118338
0.000125931
0.000133823
0.000138108
0.000138091
0.000133868
0.000126027
0.000118504
0.000106297
8.69316e-05
7.03973e-05
7.57712e-05
8.63766e-05
0.000120219
0.00018674
0.00029425
0.000461141
0.000721727
0.000839952
0.000149073
0.000142023
8.58894e-05
4.89313e-05
2.77101e-05
1.55881e-05
1.02655e-05
8.76444e-06
8.38476e-06
1.27224e-05
1.68127e-05
2.16384e-05
3.17088e-05
3.62051e-05
3.74439e-05
3.7452e-05
3.62582e-05
3.17967e-05
2.17687e-05
1.68937e-05
1.28165e-05
8.48983e-06
8.83972e-06
1.03649e-05
1.56306e-05
2.77602e-05
4.90316e-05
8.60774e-05
0.000142429
0.000149107
2.05005e-05
2.18355e-05
1.29053e-05
6.75472e-06
3.46263e-06
1.71774e-06
1.02853e-06
7.97496e-07
7.18491e-07
1.0554e-06
1.74969e-06
2.8182e-06
4.55516e-06
6.11389e-06
7.24704e-06
7.24176e-06
6.12247e-06
4.57563e-06
2.84467e-06
1.76631e-06
1.07124e-06
7.31946e-07
8.07914e-07
1.03967e-06
1.72453e-06
3.46949e-06
6.77067e-06
1.29578e-05
2.19412e-05
2.04819e-05
2.34278e-06
2.76765e-06
1.53676e-06
7.45918e-07
3.46282e-07
1.53314e-07
8.30376e-08
5.59029e-08
4.48308e-08
5.40346e-08
9.21764e-08
1.99177e-07
3.17822e-07
4.67088e-07
7.24199e-07
7.24001e-07
4.67035e-07
3.17836e-07
2.00531e-07
9.34177e-08
5.5033e-08
4.53744e-08
5.65599e-08
8.36154e-08
1.53174e-07
3.47404e-07
7.48912e-07
1.54455e-06
2.78738e-06
2.3395e-06
2.17765e-07
2.86269e-07
1.48386e-07
6.64807e-08
2.77147e-08
1.11505e-08
5.42163e-09
3.63558e-09
3.49011e-09
3.59916e-09
4.09743e-09
5.84912e-09
1.38544e-08
2.75269e-08
4.95316e-08
4.94972e-08
2.75225e-08
1.39015e-08
5.89267e-09
4.15138e-09
3.63453e-09
3.51049e-09
3.64108e-09
5.39812e-09
1.09497e-08
2.7767e-08
6.66823e-08
1.49323e-07
2.88835e-07
2.17678e-07
1.6218e-08
2.37576e-08
1.16078e-08
4.80215e-09
1.81472e-09
6.95707e-10
3.4135e-10
2.68182e-10
2.30725e-10
2.02164e-10
2.69404e-10
4.78505e-10
6.28771e-10
1.34792e-09
2.26192e-09
2.27147e-09
1.34546e-09
6.3174e-10
4.81187e-10
2.7197e-10
2.03856e-10
2.31452e-10
2.62049e-10
3.2058e-10
6.58531e-10
1.80601e-09
4.81706e-09
1.17065e-08
2.40153e-08
1.62186e-08
9.83254e-10
1.60481e-09
7.53478e-10
2.94081e-10
1.11532e-10
5.09142e-11
3.17127e-11
1.90508e-11
1.30587e-11
1.82183e-11
2.86153e-11
4.17126e-11
6.07942e-11
8.98515e-11
1.04401e-10
1.04478e-10
9.01653e-11
6.10387e-11
4.20042e-11
2.89114e-11
1.82803e-11
1.28898e-11
1.85021e-11
2.91292e-11
4.35845e-11
1.05042e-10
2.95056e-10
7.60273e-10
1.62495e-09
9.84876e-10
5.08569e-11
9.23881e-11
4.46815e-11
2.01821e-11
1.08304e-11
4.3073e-12
1.98874e-12
1.53122e-12
1.31299e-12
2.03573e-12
3.94394e-12
6.48693e-12
1.27758e-11
2.05491e-11
2.10829e-11
2.10788e-11
2.05851e-11
1.28109e-11
6.52622e-12
4.00022e-12
2.06155e-12
1.31526e-12
1.46954e-12
1.71554e-12
3.8377e-12
9.88457e-12
1.92e-11
4.50924e-11
9.37282e-11
5.10191e-11
4.64089e-12
7.45551e-12
4.23412e-12
1.61985e-12
1.12028e-12
5.81024e-13
2.87997e-13
2.42713e-13
3.39412e-13
7.00037e-13
1.50207e-12
3.03862e-12
6.16963e-12
1.00019e-11
1.11671e-11
1.11508e-11
1.0014e-11
6.19824e-12
3.05967e-12
1.53207e-12
7.15954e-13
3.46169e-13
2.42413e-13
2.72178e-13
5.25413e-13
1.00559e-12
1.58547e-12
4.27047e-12
7.53362e-12
4.65889e-12
3.47557e-13
5.203e-13
4.57757e-13
1.86956e-13
6.81909e-14
2.47765e-14
1.10518e-14
1.04783e-14
1.94603e-14
4.9812e-14
1.32714e-13
3.65304e-13
7.93633e-13
1.33767e-12
1.886e-12
1.88418e-12
1.34024e-12
8.00618e-13
3.69849e-13
1.36077e-13
5.12833e-14
2.0049e-14
1.06185e-14
1.05557e-14
2.248e-14
6.3398e-14
1.84392e-13
4.63516e-13
5.25347e-13
3.50676e-13
1.53288e-14
3.26521e-14
1.88657e-14
6.38706e-15
1.82879e-15
5.49272e-16
2.42912e-16
2.7259e-16
5.61881e-16
1.56728e-15
5.17308e-15
1.74314e-14
4.42583e-14
8.99885e-14
1.40667e-13
1.40324e-13
9.02311e-14
4.48601e-14
1.77726e-14
5.32667e-15
1.62402e-15
5.81104e-16
2.76534e-16
2.30786e-16
4.9122e-16
1.6937e-15
6.3032e-15
1.91919e-14
3.32804e-14
1.54468e-14
3.3631e-16
8.59997e-16
4.1866e-16
1.26163e-16
3.57962e-17
1.03893e-17
5.18426e-18
7.41738e-18
1.64561e-17
4.63521e-17
1.51061e-16
5.06628e-16
1.42161e-15
3.27112e-15
5.29118e-15
5.28847e-15
3.28226e-15
1.43541e-15
5.18109e-16
1.56394e-16
4.82084e-17
1.71274e-17
7.56251e-18
4.98047e-18
9.16443e-18
3.27181e-17
1.25176e-16
4.27407e-16
8.799e-16
3.4134e-16
5.65301e-18
1.57258e-17
7.58944e-18
2.17897e-18
5.85163e-19
1.65802e-19
1.05105e-19
1.87988e-19
4.36721e-19
1.21308e-18
3.78085e-18
1.22524e-17
3.36456e-17
7.58875e-17
1.23749e-16
1.24448e-16
7.66802e-17
3.40657e-17
1.25906e-17
3.93751e-18
1.25833e-18
4.53204e-19
1.9356e-19
1.02822e-19
1.47022e-19
5.34372e-19
2.16399e-18
7.77272e-18
1.61205e-17
5.72809e-18
7.77293e-20
2.43142e-19
1.1292e-19
3.10108e-20
7.84945e-21
2.30934e-21
2.02888e-21
4.27065e-21
1.0041e-20
2.69085e-20
8.08293e-20
2.52343e-19
6.68164e-19
1.47717e-18
2.39255e-18
2.39091e-18
1.48376e-18
6.7926e-19
2.58906e-19
8.367e-20
2.79067e-20
1.0437e-20
4.45323e-21
2.02591e-21
2.04586e-21
7.17604e-21
3.07671e-20
1.16506e-19
2.49494e-19
7.98319e-20
8.65842e-22
3.03028e-21
1.37484e-21
3.54942e-22
8.79041e-23
2.87615e-23
3.66418e-23
8.58522e-23
1.96058e-22
4.9825e-22
1.42066e-21
4.21731e-21
1.08651e-20
2.35755e-20
3.74921e-20
3.74176e-20
2.36889e-20
1.10903e-20
4.33731e-21
1.46827e-21
5.16299e-22
2.03205e-22
8.93051e-23
3.7679e-23
2.61583e-23
7.98784e-23
3.58369e-22
1.42685e-21
3.16344e-21
9.09799e-22
8.10509e-24
3.0554e-23
1.38599e-23
3.41643e-24
8.21439e-25
3.35115e-25
6.17628e-25
1.48244e-24
3.20972e-24
7.63521e-24
2.04602e-23
5.76662e-23
1.4197e-22
2.94048e-22
4.58076e-22
4.61575e-22
2.97997e-22
1.43332e-22
5.86405e-23
2.12693e-23
7.99544e-24
3.35455e-24
1.54334e-24
6.47568e-25
3.23733e-25
7.40285e-25
3.4187e-24
1.43208e-23
3.27663e-23
8.45339e-24
5.90177e-26
2.62605e-25
1.09841e-25
2.66144e-26
6.29975e-27
3.96106e-27
9.30632e-27
2.13913e-26
4.33366e-26
9.6363e-26
2.4181e-25
6.34648e-25
1.46065e-24
2.90525e-24
4.51405e-24
4.57907e-24
2.99029e-24
1.49166e-24
6.47908e-25
2.52336e-25
1.0162e-25
4.58784e-26
2.25509e-26
9.77063e-27
3.97363e-27
5.88096e-27
2.69299e-26
1.18034e-25
2.77068e-25
6.40158e-26
3.57655e-28
1.7609e-27
7.23999e-28
1.68845e-28
4.45586e-29
4.56593e-29
1.17821e-28
2.57715e-28
4.92426e-28
1.01028e-27
2.29398e-27
5.3952e-27
1.15712e-26
2.22571e-26
3.38253e-26
3.37377e-26
2.25077e-26
1.20186e-26
5.68624e-27
2.41926e-27
1.06266e-27
5.24788e-28
2.78885e-28
1.27013e-28
4.70392e-29
4.21376e-29
1.75792e-28
7.97401e-28
1.92052e-27
3.97346e-28
1.91826e-30
9.45675e-30
4.17924e-30
9.29157e-31
3.00413e-31
4.66826e-31
1.2573e-30
2.63963e-30
4.65773e-30
8.55567e-30
1.72917e-29
3.69027e-29
7.47233e-29
1.35985e-28
1.96672e-28
1.96597e-28
1.39381e-28
8.04235e-29
4.07053e-29
1.8769e-29
9.11247e-30
4.99758e-30
2.88351e-30
1.38832e-30
5.06203e-31
2.88495e-31
9.56223e-31
4.43994e-30
1.09905e-29
2.03541e-30
7.54331e-33
4.60783e-32
1.85839e-32
4.28887e-33
1.91965e-33
4.41893e-33
1.18108e-32
2.26622e-32
3.53417e-32
5.71689e-32
1.04363e-31
2.05346e-31
3.80738e-31
6.32267e-31
8.74915e-31
8.98143e-31
6.69009e-31
4.05599e-31
2.21794e-31
1.15877e-31
6.4277e-32
3.92114e-32
2.44634e-32
1.25744e-32
4.78348e-33
2.01625e-33
4.53548e-33
2.08131e-32
5.18775e-32
8.60078e-33
2.69961e-35
1.84145e-34
6.77755e-35
1.7649e-35
1.29951e-35
3.66461e-35
9.05629e-35
1.57052e-34
2.21733e-34
3.28347e-34
5.42606e-34
9.23107e-34
1.45697e-33
2.18764e-33
2.99441e-33
3.18949e-33
2.49425e-33
1.63565e-33
1.01449e-33
6.07512e-34
3.76033e-34
2.51356e-34
1.71657e-34
9.6894e-35
3.96082e-35
1.43427e-35
1.94949e-35
8.17055e-35
1.99869e-34
3.04797e-35
9.68511e-38
5.51194e-37
2.43145e-37
7.34177e-38
8.68546e-38
2.44583e-37
5.68275e-37
9.27977e-37
1.22516e-36
1.64905e-36
2.32668e-36
3.30126e-36
4.66387e-36
6.82411e-36
9.17315e-36
9.39222e-36
7.40668e-36
5.3528e-36
3.83093e-36
2.60874e-36
1.80231e-36
1.34872e-36
1.03397e-36
6.45941e-37
2.8112e-37
9.54443e-38
7.8352e-38
2.69356e-37
6.49313e-37
9.5744e-38
2.40918e-40
1.58862e-39
7.63682e-40
3.0837e-40
4.96851e-40
1.44517e-39
3.28988e-39
4.94804e-39
5.78107e-39
6.52004e-39
7.54601e-39
9.49068e-39
1.28533e-38
1.73383e-38
2.00688e-38
1.87839e-38
1.61315e-38
1.41737e-38
1.20789e-38
9.27403e-39
7.16484e-39
6.07822e-39
5.26886e-39
3.62085e-39
1.66679e-39
5.6473e-40
3.21643e-40
8.07036e-40
1.90388e-39
2.76542e-40
6.03251e-43
4.80086e-42
2.15602e-42
1.25814e-42
2.54084e-42
7.61056e-42
1.56722e-41
2.08904e-41
2.1197e-41
2.06493e-41
2.18137e-41
2.62693e-41
3.1425e-41
3.3985e-41
3.34282e-41
3.25923e-41
3.33442e-41
3.3599e-41
3.0762e-41
2.57186e-41
2.2993e-41
2.30318e-41
2.31101e-41
1.74599e-41
8.47464e-42
2.95606e-42
1.38759e-42
2.37569e-42
5.11736e-42
7.36727e-43
1.9217e-45
1.17566e-44
6.45419e-45
5.10757e-45
1.21217e-44
3.21314e-44
5.8718e-44
7.21707e-44
6.59705e-44
5.92625e-44
5.89174e-44
6.14243e-44
5.60805e-44
4.85972e-44
4.67875e-44
5.14327e-44
5.59444e-44
5.66744e-44
5.5856e-44
5.67681e-44
6.42358e-44
7.67301e-44
8.71267e-44
7.00011e-44
3.56207e-44
1.3157e-44
5.82246e-45
7.06924e-45
1.27024e-44
1.87996e-45
4.33278e-48
2.66274e-47
1.85171e-47
1.95137e-47
4.45904e-47
1.07331e-46
1.95074e-46
2.22149e-46
1.86873e-46
1.47463e-46
1.23581e-46
9.94856e-47
7.29208e-47
5.8318e-47
5.91231e-47
6.4723e-47
6.58566e-47
6.83877e-47
8.26293e-47
1.09436e-46
1.50872e-46
2.04665e-46
2.43409e-46
2.16736e-46
1.22316e-46
5.02617e-47
2.2581e-47
2.16696e-47
3.06598e-47
4.81357e-48
1.06815e-50
6.38512e-50
5.165e-50
5.88501e-50
1.20636e-49
2.96618e-49
5.22911e-49
5.07953e-49
3.90917e-49
2.59157e-49
1.8437e-49
1.31652e-49
9.34214e-50
7.42113e-50
6.71217e-50
5.97999e-50
5.61545e-50
6.85602e-50
1.07571e-49
1.75001e-49
2.72733e-49
4.16276e-49
5.32825e-49
5.7271e-49
3.74351e-49
1.6853e-49
7.62643e-50
6.36533e-50
7.24756e-50
1.20665e-50
2.6217e-53
1.3388e-52
1.29961e-52
1.38402e-52
2.94065e-52
6.91424e-52
1.0413e-51
9.19268e-52
6.12318e-52
3.64378e-52
2.45551e-52
1.75077e-52
1.19798e-52
7.93327e-53
5.43427e-53
4.20202e-53
4.59001e-53
7.51036e-53
1.43464e-52
2.57701e-52
4.28229e-52
7.15403e-52
1.08556e-51
1.29383e-51
9.55654e-52
4.43422e-52
2.00348e-52
1.58299e-52
1.60498e-52
2.8363e-53
3.99027e-56
2.79225e-55
2.37385e-55
2.76245e-55
5.93582e-55
1.24346e-54
1.76569e-54
1.53805e-54
9.49054e-55
5.41045e-55
3.58641e-55
2.38785e-55
1.36036e-55
7.19037e-56
4.44093e-56
3.91509e-56
5.31203e-56
9.5935e-56
1.82888e-55
3.24041e-55
5.59011e-55
1.03317e-54
1.81861e-54
2.31227e-54
1.83298e-54
8.64652e-55
4.07253e-55
3.3086e-55
3.31664e-55
6.09941e-56
8.3357e-59
5.12282e-58
3.91374e-58
5.06179e-58
9.22752e-58
1.9078e-57
2.69245e-57
2.25995e-57
1.28095e-57
7.1126e-58
4.45903e-58
2.57342e-58
1.2541e-58
6.45996e-59
4.55955e-59
4.6169e-59
6.15894e-59
9.96276e-59
1.80609e-58
3.36112e-58
6.58297e-58
1.40487e-57
2.78015e-57
3.61182e-57
2.91937e-57
1.39471e-57
7.05821e-58
6.09046e-58
6.27231e-58
1.15715e-58
2.22834e-61
5.99531e-61
7.82425e-61
9.37613e-61
1.61048e-60
3.49069e-60
4.17746e-60
3.183e-60
1.64218e-60
8.66666e-61
4.8431e-61
2.47037e-61
1.1804e-61
6.88819e-62
5.44566e-62
5.37038e-62
6.46781e-62
9.88855e-62
1.95827e-61
4.28305e-61
9.60495e-61
2.18149e-60
4.29594e-60
5.28752e-60
4.10799e-60
1.98928e-60
1.09395e-60
9.97216e-61
1.05784e-60
1.93325e-61
1.76309e-64
1.10553e-63
1.60671e-63
1.71818e-63
3.11517e-63
6.1612e-63
6.14615e-63
4.61723e-63
2.31902e-63
1.1556e-63
5.78734e-64
2.74905e-64
1.34301e-64
8.15939e-65
6.1413e-65
5.52563e-65
6.56925e-65
1.11055e-64
2.54693e-64
6.1301e-64
1.37984e-63
2.94054e-63
5.48863e-63
6.41061e-63
5.14924e-63
2.71331e-63
1.63473e-63
1.55597e-63
1.67077e-63
2.98136e-64
2.90294e-67
3.22471e-66
2.75805e-66
2.76239e-66
4.57319e-66
7.58454e-66
7.22162e-66
5.72434e-66
2.8822e-66
1.3318e-66
6.05426e-67
2.69569e-67
1.24947e-67
6.87398e-68
4.59828e-68
4.04619e-68
5.4279e-68
1.09317e-67
2.78348e-67
6.70382e-67
1.4266e-66
2.94791e-66
5.88212e-66
7.36927e-66
7.0266e-66
4.1195e-66
2.56457e-66
2.42935e-66
2.53424e-66
4.33176e-67
9.62136e-70
4.69226e-69
3.55675e-69
3.60922e-69
5.44839e-69
8.45465e-69
8.22265e-69
6.42412e-69
2.99182e-69
1.2141e-69
4.93687e-70
2.03917e-70
8.70047e-71
4.31174e-71
2.79003e-71
2.77359e-71
4.51345e-71
1.03424e-70
2.6658e-70
6.14312e-70
1.29418e-69
2.88645e-69
6.69068e-69
9.75754e-69
1.02893e-68
6.15691e-69
3.70563e-69
3.41617e-69
3.53123e-69
5.94284e-70
1.00474e-72
3.37268e-72
3.94346e-72
4.24166e-72
6.58843e-72
1.00138e-71
9.5901e-72
6.7262e-72
2.76024e-72
9.79626e-73
3.74479e-73
1.55871e-73
6.74716e-74
3.45348e-74
2.45317e-74
2.75494e-74
4.73617e-74
1.03992e-73
2.45031e-73
5.34955e-73
1.17331e-72
2.90593e-72
7.42119e-72
1.14653e-71
1.18078e-71
6.79792e-72
4.17724e-72
4.0266e-72
4.57906e-72
8.01564e-73
5.68684e-76
5.80907e-75
5.78226e-75
5.67636e-75
7.68689e-75
1.00296e-74
9.36793e-75
6.1065e-75
2.31606e-75
7.91491e-76
3.21233e-76
1.46816e-76
6.82072e-77
3.68319e-77
2.70527e-77
2.92564e-77
4.47507e-77
8.41633e-77
1.7912e-76
3.94657e-76
9.44119e-76
2.54696e-75
6.64195e-75
9.7487e-75
9.49094e-75
5.55848e-75
3.97324e-75
4.38686e-75
5.8542e-75
1.06198e-75
1.48231e-78
1.37861e-77
8.77123e-78
7.30242e-78
7.73734e-78
9.29994e-78
9.34091e-78
6.16065e-78
2.30255e-78
8.31121e-79
3.70107e-79
1.76062e-79
8.02443e-80
4.13567e-80
2.80508e-80
2.65868e-80
3.48606e-80
5.89932e-80
1.26023e-79
3.06913e-79
8.1107e-79
2.25701e-78
5.60965e-78
7.55288e-78
7.11847e-78
4.62123e-78
3.72474e-78
4.77719e-78
6.9704e-78
1.23587e-78
4.41772e-81
1.36229e-80
9.23433e-81
6.32112e-81
6.87194e-81
1.0174e-80
1.0889e-80
7.09505e-81
2.66663e-81
1.02809e-81
4.64278e-82
2.06959e-82
8.60864e-83
4.11994e-83
2.63649e-83
2.35097e-83
2.97942e-83
5.16454e-83
1.19468e-82
3.16322e-82
8.53575e-82
2.25683e-81
5.13511e-81
6.59e-81
6.14094e-81
4.29408e-81
3.56485e-81
4.68141e-81
6.66411e-81
1.11259e-81
1.87022e-84
6.43094e-84
7.05559e-84
5.66871e-84
7.64153e-84
1.23568e-83
1.1541e-83
6.38868e-84
2.36428e-84
8.99412e-85
3.69392e-85
1.44437e-85
5.61883e-86
2.7711e-86
1.92203e-86
1.86765e-86
2.55448e-86
4.73541e-86
1.13993e-85
3.02409e-85
7.85444e-85
1.97338e-84
4.38813e-84
5.84842e-84
5.65812e-84
4.08543e-84
3.23918e-84
3.92456e-84
4.92868e-84
7.79129e-85
9.93947e-88
1.11199e-86
9.97561e-87
8.33572e-87
1.2233e-86
1.46149e-86
9.79095e-87
4.26049e-87
1.44417e-87
4.63292e-88
1.49215e-88
4.91183e-89
1.94149e-89
1.14171e-89
9.54837e-90
1.05607e-89
1.54841e-89
2.93837e-89
7.02645e-89
1.83722e-88
4.84344e-88
1.30718e-87
3.29918e-87
5.26919e-87
5.69116e-87
4.15845e-87
3.04939e-87
3.16152e-87
3.29582e-87
4.99959e-88
2.37703e-90
2.27282e-89
1.56839e-89
1.34831e-89
1.63029e-89
1.33983e-89
7.82528e-90
3.20598e-90
9.68036e-91
2.44325e-91
6.23105e-92
1.9132e-92
7.9759e-93
5.03745e-93
4.34146e-93
4.73267e-93
6.72858e-93
1.24844e-92
2.98458e-92
8.20453e-92
2.49892e-91
8.39471e-91
2.69378e-90
5.41769e-90
6.50217e-90
4.6877e-90
3.06887e-90
2.73029e-90
2.4106e-90
3.59254e-91
4.88707e-93
1.79361e-92
1.34753e-92
1.06845e-92
1.21085e-92
1.06864e-92
7.48741e-93
3.14712e-93
8.37775e-94
1.83103e-94
4.43899e-95
1.3705e-95
5.61129e-96
3.13108e-96
2.22816e-96
2.12856e-96
2.91478e-96
5.59505e-96
1.43026e-95
4.34041e-95
1.51506e-94
6.05011e-94
2.31653e-93
5.43212e-93
6.888e-93
4.86312e-93
2.95342e-93
2.50239e-93
2.13875e-93
3.31157e-94
1.79069e-96
8.28385e-96
9.83539e-96
8.61071e-96
1.01522e-95
1.10157e-95
7.98137e-96
2.82407e-96
6.20422e-97
1.27251e-97
3.22559e-98
9.90155e-99
3.52816e-99
1.56152e-99
9.17471e-100
8.60598e-100
1.3338e-99
2.97049e-99
8.42008e-99
2.67088e-98
9.49196e-98
3.84966e-97
1.54739e-96
3.94184e-96
5.26763e-96
4.01711e-96
2.65813e-96
2.46875e-96
2.42185e-96
4.03824e-97
1.24246e-99
1.45531e-98
1.39907e-98
1.13337e-98
1.42888e-98
1.44009e-98
7.22143e-99
1.70129e-99
2.99558e-100
6.03305e-101
1.54708e-101
4.28885e-102
1.22673e-102
4.35407e-103
2.58259e-103
2.92087e-103
5.6406e-103
1.50176e-102
4.50793e-102
1.37091e-101
4.45819e-101
1.68926e-100
6.77272e-100
1.94946e-99
3.02942e-99
3.02872e-99
2.48057e-99
2.82946e-99
3.36207e-99
5.87373e-100
2.8673e-102
2.57983e-101
1.82918e-101
1.4832e-101
1.80666e-101
1.4866e-101
4.5759e-102
7.45762e-103
1.25277e-103
2.60693e-104
6.27064e-105
1.47612e-105
3.65361e-106
1.2651e-106
7.89437e-107
9.99655e-107
2.19079e-106
6.09606e-106
1.81994e-105
5.26064e-105
1.63238e-104
6.18942e-104
2.66154e-103
9.18549e-103
1.96098e-102
2.60005e-102
2.6065e-102
3.54728e-102
4.78721e-102
8.27549e-103
4.81598e-105
1.9975e-104
1.38255e-104
1.22686e-104
1.36424e-104
8.55929e-105
2.28007e-105
4.13973e-106
7.91065e-107
1.56392e-107
3.20691e-108
6.27078e-109
1.35274e-109
4.38096e-110
2.56401e-110
2.99806e-110
5.98836e-110
1.62367e-109
5.1757e-109
1.76953e-108
6.75513e-108
3.0477e-107
1.50038e-106
6.27515e-106
1.65453e-105
2.53508e-105
2.76034e-105
3.9807e-105
5.56708e-105
9.24134e-106
1.68818e-105
1.68738e-105
4.61742e-105
6.82056e-105
4.26381e-105
1.50133e-105
3.24028e-106
5.3969e-107
8.9598e-108
1.52879e-108
2.59169e-109
5.18861e-110
1.48305e-110
6.78551e-111
3.75817e-111
6.61803e-114
1.05548e-113
2.2163e-113
1.84395e-110
1.01987e-109
5.83359e-109
3.22058e-108
1.80173e-107
1.0432e-106
4.74383e-106
1.3327e-105
2.2059e-105
1.62146e-105
7.29113e-106
7.30758e-106
0.999978
0.999967
0.999975
0.999982
0.999991
1
1.00001
1.00002
1.00002
1.00002
1.00003
1.00003
1.00003
1.00003
1.00003
1.00003
1.00003
1.00003
1.00002
1.00002
1.00001
1
1
1.00001
1.00001
1.00003
1.00004
1.00003
0.999998
0.999866
0.999969
0.999968
0.999976
0.999985
0.999996
1.00001
1.00001
1.00002
1.00003
1.00003
1.00003
1.00003
1.00003
1.00004
1.00004
1.00003
1.00003
1.00003
1.00002
1.00001
1.00001
1
1
1.00001
1.00002
1.00003
1.00004
1.00005
1.00006
1.00004
0.999982
0.999984
0.99999
0.999997
1