/*--------------------------------*- C++ -*----------------------------------*\
| =========                 |                                                 |
| \\      /  F ield         | OpenFOAM: The Open Source CFD Toolbox           |
|  \\    /   O peration     | Version:  2312                                  |
|   \\  /    A nd           | Website:  www.openfoam.com                      |
|    \\/     M anipulation  |                                                 |
\*---------------------------------------------------------------------------*/
FoamFile
{
    version     2.0;
    format      ascii;
    arch        "LSB;label=32;scalar=64";
    class       surfaceScalarField;
    location    "0.648989";
    object      alphaPhi0.water;
}
// * * * * * * * * * * * * * * * * * * * * * * * * * * * * * * * * * * * * * //

dimensions      [0 3 -1 0 0 0 0];

oriented        oriented;

internalField   nonuniform List<scalar> 
263100
(
5.72853e-11
-1.14568e-10
5.72853e-11
-8.61076e-10
1.22809e-09
-2.43764e-10
-1.39795e-09
8.84273e-10
-2.92829e-10
-1.69402e-09
7.29982e-10
-3.83465e-10
-1.78392e-09
5.71353e-10
-4.37086e-10
-1.67174e-09
3.68097e-10
-4.44993e-10
-1.38974e-09
1.69392e-10
-4.2767e-10
-1.01239e-09
2.46875e-11
-3.91222e-10
-6.47041e-10
-2.2848e-11
-3.44804e-10
-3.68041e-10
3.23836e-11
-3.26642e-10
-1.91008e-10
1.48601e-10
-3.54079e-10
-9.67124e-11
2.88605e-10
-4.24973e-10
-1.77746e-11
3.93202e-10
-5.2754e-10
1.22337e-10
4.22578e-10
-6.28863e-10
3.78709e-10
3.74914e-10
-7.02622e-10
7.68938e-10
2.57687e-10
-7.16197e-10
1.2289e-09
1.24551e-10
-6.40969e-10
1.62234e-09
4.16504e-11
-4.73394e-10
1.818e-09
5.85299e-11
-2.73135e-10
1.70409e-09
1.99758e-10
-9.04609e-11
1.21704e-09
4.42453e-10
4.44865e-11
3.5743e-10
7.60812e-10
9.23587e-11
-7.68621e-10
1.03242e-09
7.35917e-11
-1.95525e-09
1.15811e-09
-5.97522e-12
-2.83557e-09
9.90858e-10
-1.54962e-10
-3.18552e-09
5.32644e-10
-2.32019e-10
-3.10524e-09
-4.33741e-11
-9.09829e-11
-3.13202e-09
-4.29084e-10
3.91158e-10
-3.79898e-09
-9.73156e-10
1.55837e-09
-1.1008e-08
7.11004e-09
-3.61134e-10
6.79539e-10
-3.61134e-10
-4.92729e-10
1.76177e-09
-3.05457e-10
-5.87569e-10
1.34723e-09
-2.86116e-10
-6.54742e-10
1.077e-09
-2.09637e-10
-6.83931e-10
7.81081e-10
-1.26795e-10
-6.76163e-10
4.54568e-10
-6.13837e-11
-6.33186e-10
1.58491e-10
-2.27454e-11
-5.70958e-10
-3.57686e-11
-1.66707e-11
-4.78471e-10
-1.12954e-10
-4.12734e-11
-3.41229e-10
-8.75439e-11
-8.00489e-11
-1.64714e-10
7.34155e-12
-1.21895e-10
4.18084e-11
1.23336e-10
-1.50632e-10
2.66614e-10
1.97898e-10
-1.57195e-10
4.83168e-10
2.09514e-10
-1.40393e-10
6.70518e-10
1.58393e-10
-1.03689e-10
7.87015e-10
8.6819e-11
-5.9986e-11
8.27218e-10
4.85198e-11
-4.87641e-11
8.07087e-10
1.07851e-10
-9.71656e-11
7.26483e-10
2.88363e-10
-1.7273e-10
5.83443e-10
5.87176e-10
-2.54286e-10
4.06608e-10
9.41116e-10
-3.35255e-10
2.04772e-10
1.28343e-09
-3.51309e-10
3.5412e-11
1.46897e-09
-3.20093e-10
-1.95429e-11
1.37309e-09
-2.32374e-10
7.49524e-11
8.82009e-10
-7.16751e-11
4.27606e-10
4.3403e-11
3.85847e-11
9.79398e-10
-7.30091e-10
2.03948e-11
1.06547e-09
-3.11848e-10
-3.39313e-10
-1.76183e-09
2.29803e-09
-5.97038e-10
-1.31951e-08
3.10415e-10
-2.39727e-10
1.20663e-09
-2.39727e-10
1.23799e-10
1.53698e-09
-8.66596e-11
3.27785e-10
1.17472e-09
7.22759e-12
3.95572e-10
9.34889e-10
9.95132e-11
3.47015e-10
6.80434e-10
1.56893e-10
1.90478e-10
4.1146e-10
1.86796e-10
-3.00874e-11
1.75171e-10
1.6939e-10
-2.28021e-10
-9.46272e-12
1.15995e-10
-3.3589e-10
-1.20226e-10
3.94499e-11
-2.96175e-10
-1.81312e-10
-4.08969e-11
-1.05459e-10
-2.05543e-10
-9.13462e-11
1.92143e-10
-2.12625e-10
-9.18635e-11
4.9896e-10
-2.05241e-10
-4.58552e-11
7.11495e-10
-1.71221e-10
2.2573e-11
7.51221e-10
-9.76683e-11
7.89199e-11
5.96539e-10
3.53541e-11
8.92848e-11
2.99506e-10
2.33012e-10
2.57387e-11
-3.77299e-11
4.66753e-10
-7.50283e-11
-2.72893e-10
7.36445e-10
-2.37315e-10
-2.79643e-10
1.00241e-09
-4.15308e-10
-1.31254e-11
1.20669e-09
-5.36051e-10
5.04448e-10
1.32228e-09
-5.70569e-10
1.18614e-09
1.26018e-09
-5.04479e-10
1.87681e-09
9.4723e-10
-3.14134e-10
2.39131e-09
4.10706e-10
-1.06134e-10
2.56305e-09
-3.28247e-10
1.2838e-10
2.87985e-09
-1.37554e-09
2.53158e-10
4.48331e-09
-1.4294e-09
-5.58851e-10
2.87971e-09
5.10692e-09
-1.26524e-09
-6.40144e-09
-3.92772e-09
-4.68324e-11
1.32189e-09
-4.68324e-11
5.82499e-10
7.66414e-10
1.59699e-10
9.31019e-10
6.16062e-10
2.17698e-10
1.06994e-09
5.09505e-10
2.81643e-10
1.00247e-09
4.20818e-10
3.07244e-10
7.50092e-10
3.39903e-10
2.87893e-10
4.03353e-10
2.47693e-10
2.22525e-10
5.91889e-11
1.4555e-10
1.23482e-10
-1.6637e-10
8.97602e-12
1.85484e-11
-2.13443e-10
-1.55769e-10
-6.71463e-11
-7.79897e-11
-3.24417e-10
-1.15139e-10
1.76075e-10
-4.60866e-10
-1.12723e-10
4.26221e-10
-4.9975e-10
-6.75617e-11
5.70435e-10
-4.17448e-10
-9.29928e-12
5.28408e-10
-1.81722e-10
2.30802e-11
2.92727e-10
1.77463e-10
7.28835e-12
-5.54941e-11
5.66199e-10
-4.73668e-11
-3.90733e-10
9.12372e-10
-1.45123e-10
-5.4445e-10
1.14812e-09
-2.66345e-10
-3.86235e-10
1.21661e-09
-3.61254e-10
1.29545e-10
1.14734e-09
-4.36799e-10
9.54637e-10
9.5618e-10
-4.43077e-10
1.91752e-09
6.77867e-10
-3.77584e-10
2.77735e-09
3.62024e-10
-2.87468e-10
3.27028e-09
1.07041e-10
-2.13346e-10
3.05e-09
-1.98109e-11
-1.12778e-10
2.04587e-09
-5.32813e-10
1.49647e-10
2.01992e-09
-1.7295e-09
3.38766e-10
2.73565e-09
4.21816e-09
2.14611e-10
-1.33218e-09
-2.27267e-09
1.38018e-10
1.05016e-09
1.38018e-10
8.63476e-10
-2.63129e-10
3.16569e-10
1.26198e-09
-1.21592e-10
3.47194e-10
1.43512e-09
-2.73505e-11
3.67489e-10
1.37458e-09
1.32395e-10
3.48249e-10
1.13008e-09
3.03132e-10
2.77009e-10
7.69413e-10
4.17146e-10
1.85473e-10
4.0357e-10
4.28366e-10
7.81813e-11
1.10559e-10
3.07665e-10
-7.8417e-12
-5.71745e-11
7.85722e-11
-6.56437e-11
-9.03028e-11
-1.82387e-10
-1.05849e-10
-2.91149e-11
-4.08292e-10
-1.10891e-10
6.30044e-11
-4.92204e-10
-9.96794e-11
1.05974e-10
-3.77428e-10
-8.81063e-11
6.55726e-11
-6.65752e-11
-8.54993e-11
-5.41618e-11
3.78858e-10
-9.59509e-11
-2.07962e-10
8.26729e-10
-1.19502e-10
-3.04907e-10
1.14576e-09
-1.40675e-10
-2.42932e-10
1.24267e-09
-1.45674e-10
3.94667e-11
1.10239e-09
-1.39365e-10
5.73678e-10
7.93143e-10
-1.36162e-10
1.2987e-09
4.09747e-10
-1.27856e-10
2.04749e-09
1.08107e-10
-1.3087e-10
2.61351e-09
1.22469e-11
-1.75823e-10
2.89885e-09
1.55588e-10
-2.98326e-10
2.80679e-09
6.31534e-10
-5.18449e-10
1.72549e-09
1.35188e-09
-7.46413e-10
1.33855e-10
5.28489e-10
-5.90666e-10
8.91021e-10
3.94929e-09
-4.05818e-10
1.47134e-09
-1.85899e-09
2.32462e-10
5.94431e-10
2.32462e-10
9.04563e-10
-1.27028e-09
3.66432e-10
1.26843e-09
-8.12231e-10
3.62316e-10
1.46215e-09
-5.03397e-10
3.25344e-10
1.48823e-09
-9.72195e-11
2.56395e-10
1.36159e-09
3.23187e-10
1.7222e-10
1.12824e-09
6.52328e-10
7.9814e-11
8.31458e-10
8.0289e-10
2.25534e-11
5.10763e-10
7.58721e-10
-1.04939e-11
2.03323e-10
5.49098e-10
-2.56429e-11
-6.82568e-11
2.63392e-10
-2.49444e-11
-2.95317e-10
8.74029e-12
-3.86716e-11
-4.5176e-10
-1.3061e-10
-6.45159e-11
-5.17227e-10
-9.6773e-11
-9.8516e-11
-4.963e-10
1.12013e-10
-1.17014e-10
-3.93437e-10
4.3503e-10
-1.14006e-10
-2.32747e-10
7.55499e-10
-7.58826e-11
-1.89461e-11
9.30346e-10
-1.61536e-12
2.49228e-10
8.91893e-10
8.14263e-11
5.85317e-10
6.24502e-10
1.59125e-10
9.5062e-10
2.68336e-10
2.03472e-10
1.28907e-09
-5.85121e-11
1.98466e-10
1.53511e-09
-1.45186e-10
9.19938e-11
1.57675e-09
1.01558e-10
-3.88698e-11
1.36573e-09
6.57543e-10
-1.95854e-10
1.07681e-09
1.45761e-09
-4.40221e-10
6.52326e-10
2.71201e-09
-8.41255e-10
-6.28994e-10
2.91658e-09
-1.02853e-09
-2.45251e-10
4.63031e-09
-1.02166e-09
2.66967e-09
-1.45456e-09
2.14376e-10
1.93042e-10
2.14376e-10
7.12929e-10
-2.00279e-09
2.72919e-10
1.01565e-09
-1.28883e-09
2.22842e-10
1.25524e-09
-8.20911e-10
1.41389e-10
1.43422e-09
-2.40773e-10
4.7208e-11
1.52878e-09
3.52465e-10
-1.707e-11
1.50758e-09
8.51745e-10
-4.25803e-11
1.34075e-09
1.16987e-09
-3.23502e-11
1.02866e-09
1.2668e-09
4.14699e-12
5.89242e-10
1.17941e-09
3.66255e-11
6.49807e-11
9.70546e-10
6.05395e-11
-4.46981e-10
7.01603e-10
6.04518e-11
-8.46893e-10
4.42629e-10
4.35749e-11
-1.04525e-09
2.60403e-10
1.13837e-11
-9.89897e-10
1.91712e-10
-2.75304e-11
-7.22315e-10
2.02844e-10
5.505e-12
-3.21321e-10
2.44861e-10
9.49499e-11
1.15946e-10
2.35005e-10
2.11878e-10
5.36137e-10
1.09471e-10
3.14899e-10
8.33949e-10
-8.47814e-11
3.90292e-10
9.56154e-10
-2.74197e-10
4.41683e-10
8.98007e-10
-3.23429e-10
3.89618e-10
7.01395e-10
-1.0603e-10
2.61198e-10
3.81709e-10
4.8518e-10
6.40122e-11
-8.43517e-11
1.41337e-09
-1.51935e-10
-5.44075e-10
2.44312e-09
-3.94331e-10
-6.59443e-10
3.66577e-09
-7.32975e-10
-1.06441e-09
4.24905e-09
-8.66949e-10
-5.21302e-10
4.94605e-09
-8.483e-10
2.96963e-09
-8.34997e-10
4.51491e-11
1.31935e-10
4.51491e-11
3.4571e-10
-2.34146e-09
3.23821e-11
6.19009e-10
-1.47977e-09
-7.8291e-11
9.41469e-10
-9.45507e-10
-1.81821e-10
1.30557e-09
-3.2359e-10
-2.46291e-10
1.6434e-09
3.30012e-10
-2.53672e-10
1.85771e-09
9.23921e-10
-1.90836e-10
1.8485e-09
1.40003e-09
-8.63573e-11
1.57305e-09
1.70396e-09
1.20056e-11
1.05546e-09
1.80841e-09
9.44958e-11
3.6161e-10
1.72699e-09
1.6034e-10
-3.62406e-10
1.46273e-09
1.80362e-10
-9.52011e-10
1.05108e-09
1.67154e-10
-1.28929e-09
5.66935e-10
1.61783e-10
-1.32267e-09
1.0564e-10
1.81387e-10
-1.07745e-09
-2.62889e-10
2.13757e-10
-6.35178e-10
-5.28034e-10
2.7127e-10
-1.37417e-10
-6.92283e-10
3.45474e-10
2.7821e-10
-7.98958e-10
4.15877e-10
5.09611e-10
-8.38724e-10
4.79614e-10
5.17683e-10
-7.51366e-10
4.76006e-10
2.94356e-10
-4.62069e-10
4.22145e-10
-1.14622e-10
9.29099e-11
3.17126e-10
-5.86255e-10
9.13583e-10
1.84395e-10
-9.94522e-10
1.96242e-09
1.67874e-11
-1.34152e-09
3.07114e-09
-1.28173e-10
-1.26456e-09
4.00017e-09
-2.82256e-10
-1.06556e-09
4.46225e-09
-3.12166e-10
-3.15531e-10
4.54536e-09
-2.5987e-10
2.76796e-09
-1.00525e-12
-2.7758e-10
6.76728e-10
-2.7758e-10
-6.12082e-11
-2.32351e-09
-3.36058e-10
1.95548e-10
-1.40992e-09
-4.22346e-10
6.09106e-10
-9.69113e-10
-4.81155e-10
1.10919e-09
-4.16299e-10
-4.84571e-10
1.62253e-09
1.842e-10
-4.19973e-10
2.00556e-09
8.2157e-10
-2.98736e-10
2.12979e-09
1.43193e-09
-1.33546e-10
1.93282e-09
1.95192e-09
1.25063e-11
1.45773e-09
2.27229e-09
1.08248e-10
7.67357e-10
2.32256e-09
2.10558e-10
8.95099e-12
2.05577e-09
2.80021e-10
-6.68037e-10
1.49981e-09
3.2152e-10
-1.14498e-09
7.51924e-10
3.48435e-10
-1.38694e-09
-1.69049e-11
3.78064e-10
-1.37709e-09
-6.82156e-10
3.849e-10
-1.1678e-09
-1.17691e-09
3.90796e-10
-8.55593e-10
-1.45809e-09
3.98646e-10
-5.5556e-10
-1.53334e-09
3.90228e-10
-3.49282e-10
-1.41799e-09
3.51999e-10
-2.81748e-10
-1.11534e-09
3.05647e-10
-3.91544e-10
-5.86883e-10
2.77269e-10
-6.2477e-10
1.62623e-10
2.40237e-10
-9.32307e-10
1.10177e-09
2.27306e-10
-1.17594e-09
2.12731e-09
2.10628e-10
-1.26713e-09
3.08649e-09
2.22791e-10
-1.0603e-09
3.73493e-09
2.18403e-10
-5.99654e-10
3.90646e-09
2.8045e-10
3.69147e-11
3.74093e-09
3.98838e-10
2.51403e-09
5.38119e-10
-5.0188e-10
1.59949e-09
-5.0188e-10
-3.66235e-10
-2.09584e-09
-5.48358e-10
-1.50208e-10
-1.22927e-09
-5.77425e-10
2.46952e-10
-9.73559e-10
-5.71491e-10
7.49241e-10
-5.9692e-10
-4.88204e-10
1.25799e-09
-9.92142e-11
-3.68819e-10
1.65523e-09
5.43969e-10
-2.3166e-10
1.85598e-09
1.25003e-09
-9.52634e-11
1.80297e-09
1.93775e-09
2.49791e-11
1.53294e-09
2.42133e-09
1.06441e-10
1.06874e-09
2.5921e-09
1.98111e-10
4.9324e-10
2.35088e-09
2.92373e-10
-1.17854e-10
1.73952e-09
3.85583e-10
-6.9446e-10
8.95309e-10
4.48146e-10
-1.19351e-09
3.26967e-11
4.67382e-10
-1.57039e-09
-7.30123e-10
4.48712e-10
-1.77027e-09
-1.33432e-09
3.86806e-10
-1.77754e-09
-1.69224e-09
2.70967e-10
-1.61746e-09
-1.82434e-09
1.51237e-10
-1.3963e-09
-1.71691e-09
8.07345e-11
-1.15213e-09
-1.39654e-09
2.14378e-11
-9.42232e-10
-8.34856e-10
1.19095e-11
-8.15825e-10
-3.42223e-11
4.81083e-11
-7.87578e-10
9.27557e-10
1.42144e-10
-7.43656e-10
1.89466e-09
2.14704e-10
-5.93166e-10
2.69381e-09
3.08213e-10
-2.65531e-10
3.10831e-09
4.1822e-10
1.126e-10
3.16015e-09
5.5163e-10
3.94932e-10
3.05342e-09
6.42637e-10
2.48115e-09
6.17698e-10
-4.13657e-10
2.2956e-09
-4.13657e-10
-4.40438e-10
-1.83413e-09
-3.99585e-10
-3.93401e-10
-1.0984e-09
-3.36815e-10
-2.04879e-10
-1.03578e-09
-2.78013e-10
5.70635e-11
-8.29606e-10
-1.67931e-10
3.29862e-10
-4.24419e-10
-6.9065e-11
5.75338e-10
1.98748e-10
-3.80408e-12
7.73644e-10
9.42757e-10
2.06362e-11
9.42652e-10
1.67047e-09
2.05531e-11
1.04253e-09
2.21428e-09
3.64798e-11
1.02532e-09
2.44511e-09
1.01023e-10
8.34148e-10
2.32307e-09
1.69843e-10
4.3158e-10
1.86178e-09
2.56561e-10
-1.61835e-10
1.19767e-09
3.04509e-10
-8.83487e-10
5.18139e-10
2.92268e-10
-1.58647e-09
-1.45941e-10
2.10408e-10
-2.16997e-09
-7.06717e-10
6.15094e-11
-2.48998e-09
-1.19616e-09
-8.79532e-11
-2.48733e-09
-1.52807e-09
-2.59466e-10
-2.21601e-09
-1.65117e-09
-3.65294e-10
-1.7738e-09
-1.53652e-09
-3.97773e-10
-1.28104e-09
-1.12232e-09
-3.49973e-10
-8.21585e-10
-4.19021e-10
-2.41282e-10
-4.24057e-10
4.66605e-10
-9.86655e-11
-7.57238e-11
1.32964e-09
8.1077e-11
2.76722e-10
2.03302e-09
2.17486e-10
5.82386e-10
2.41761e-09
3.5041e-10
6.99566e-10
2.60927e-09
4.47432e-10
5.56881e-10
2.76059e-09
4.60399e-10
2.56892e-09
4.26917e-10
4.61056e-11
2.10129e-09
4.61056e-11
-3.79561e-10
-1.48137e-09
7.47667e-11
-6.79602e-10
-9.84429e-10
1.90662e-10
-9.37349e-10
-9.98308e-10
2.3519e-10
-1.16022e-09
-8.95263e-10
3.08535e-10
-1.28483e-09
-5.60988e-10
2.77377e-10
-1.24875e-09
-2.10185e-11
1.84989e-10
-1.02296e-09
6.39089e-10
5.4006e-11
-5.65761e-10
1.24462e-09
-8.56035e-11
2.87949e-11
1.70115e-09
-1.62064e-10
5.67987e-10
1.97242e-09
-1.58469e-10
8.51978e-10
2.03815e-09
-7.83086e-11
7.63052e-10
1.95583e-09
-4.54694e-11
2.78284e-10
1.75701e-09
-5.739e-11
-4.72419e-10
1.44595e-09
-1.00751e-10
-1.3416e-09
1.05659e-09
-2.17481e-10
-2.11412e-09
5.46988e-10
-3.62892e-10
-2.5818e-09
-1.11217e-10
-5.39108e-10
-2.65889e-09
-7.69481e-10
-6.7623e-10
-2.40038e-09
-1.26913e-09
-7.19946e-10
-1.89653e-09
-1.51237e-09
-6.81821e-10
-1.27802e-09
-1.36889e-09
-5.76693e-10
-6.3377e-10
-8.70873e-10
-4.23321e-10
-2.87895e-11
-1.24541e-10
-2.51598e-10
5.09922e-10
6.58987e-10
-9.78447e-11
9.41665e-10
1.31411e-09
7.69446e-11
1.15227e-09
1.82357e-09
1.95311e-10
1.0619e-09
2.25754e-09
2.6308e-10
7.29207e-10
2.60694e-09
2.99935e-10
2.68944e-09
4.46683e-10
7.45952e-10
6.30673e-10
7.45952e-10
-3.31713e-10
-8.23615e-10
6.76651e-10
-1.1714e-09
-6.2221e-10
7.20192e-10
-1.99906e-09
-5.84909e-10
6.55246e-10
-2.73503e-09
-4.65707e-10
5.26984e-10
-3.24139e-09
-2.00528e-10
3.24721e-10
-3.35937e-09
1.2916e-10
8.61538e-11
-2.99401e-09
4.56507e-10
-1.35861e-10
-2.19048e-09
7.45098e-10
-3.2662e-10
-1.12214e-09
9.82195e-10
-4.2463e-10
-8.88879e-11
1.28149e-09
-4.40137e-10
6.32174e-10
1.65145e-09
-4.18683e-10
8.71709e-10
2.06427e-09
-3.87574e-10
6.29396e-10
2.43134e-09
-4.1129e-10
2.53586e-11
2.61057e-09
-4.85921e-10
-7.17038e-10
2.48363e-09
-5.82033e-10
-1.38506e-09
1.98507e-09
-6.74766e-10
-1.79931e-09
1.11779e-09
-7.56472e-10
-1.90981e-09
1.14372e-10
-7.65067e-10
-1.73477e-09
-7.83343e-10
-6.97578e-10
-1.36969e-09
-1.364e-09
-5.81179e-10
-8.76788e-10
-1.50752e-09
-4.42289e-10
-3.30369e-10
-1.21726e-09
-3.06806e-10
2.36884e-10
-6.45251e-10
-1.7515e-10
7.87743e-10
1.50905e-11
-5.62971e-11
1.21196e-09
6.62429e-10
6.4808e-11
1.39238e-09
1.29247e-09
1.83875e-10
1.29335e-09
1.89122e-09
3.07966e-10
9.50589e-10
2.36833e-09
4.6644e-10
2.95367e-09
6.88512e-10
1.18467e-09
-1.55227e-09
1.18467e-09
-5.69561e-10
5.82401e-10
8.15829e-10
-1.93248e-09
4.68075e-10
6.97714e-10
-3.14391e-09
5.26209e-10
4.96254e-10
-4.15658e-09
6.47015e-10
2.41033e-10
-4.78425e-09
6.9207e-10
-2.39613e-12
-4.88792e-09
6.12172e-10
-2.09763e-10
-4.33158e-09
4.14345e-10
-4.3806e-10
-3.23565e-09
1.9031e-10
-5.42958e-10
-1.89247e-09
1.35639e-10
-5.46883e-10
-6.10994e-10
4.48687e-10
-5.10665e-10
3.40795e-10
1.14639e-09
-4.86458e-10
8.53178e-10
2.05049e-09
-4.94701e-10
9.37067e-10
2.93496e-09
-5.36711e-10
7.06866e-10
3.48905e-09
-5.63701e-10
3.29457e-10
3.55019e-09
-5.9088e-10
-4.5532e-11
3.04035e-09
-5.83091e-10
-3.26532e-10
1.99551e-09
-5.01579e-10
-4.75925e-10
7.38457e-10
-3.70522e-10
-5.20357e-10
-3.82806e-10
-2.31103e-10
-4.7259e-10
-1.15057e-09
-1.16412e-10
-3.59366e-10
-1.45296e-09
-2.16884e-11
-1.37717e-10
-1.34837e-09
3.05617e-11
2.24702e-10
-9.76749e-10
4.81782e-11
6.56212e-10
-4.68507e-10
9.18939e-11
1.04605e-09
1.27095e-10
1.65326e-10
1.24037e-09
8.22942e-10
3.03695e-10
1.19653e-09
1.51217e-09
4.96808e-10
8.37771e-10
2.19544e-09
6.84466e-10
3.38975e-09
5.95557e-10
7.93477e-10
-2.83562e-09
7.93477e-10
-1.19227e-09
2.85891e-09
2.25957e-10
-2.68282e-09
2.34727e-09
6.15242e-11
-3.89886e-09
2.25622e-09
-1.18752e-10
-4.81663e-09
2.16617e-09
-2.8146e-10
-5.26455e-09
1.79584e-09
-4.23761e-10
-5.12506e-09
1.11885e-09
-5.00937e-10
-4.34962e-09
2.45944e-10
-5.33544e-10
-3.21899e-09
-4.83311e-10
-4.28651e-10
-1.95983e-09
-7.52419e-10
-3.57129e-10
-8.11843e-10
-3.83639e-10
-2.8973e-10
9.58943e-11
5.67751e-10
-2.7685e-10
7.11424e-10
1.82836e-09
-3.15432e-10
1.10509e-09
3.01464e-09
-3.81051e-10
1.31407e-09
3.76242e-09
-3.88103e-10
1.41546e-09
3.88053e-09
-3.37582e-10
1.42013e-09
3.34998e-09
-2.06679e-10
1.31331e-09
2.2936e-09
-4.6165e-11
1.09541e-09
1.08021e-09
7.77269e-11
7.6226e-10
-1.80966e-12
2.08392e-10
3.58938e-10
-7.44587e-10
2.80741e-10
2.68166e-11
-1.08947e-09
2.38992e-10
-1.09803e-10
-1.1341e-09
1.50078e-10
5.18186e-12
-9.8828e-10
7.91738e-11
2.96156e-10
-6.70504e-10
7.03374e-11
5.85882e-10
-1.2401e-10
1.26815e-10
6.91993e-10
6.96671e-10
2.14961e-10
5.4527e-10
1.60232e-09
2.862e-10
1.23053e-10
2.69103e-09
1.51497e-10
3.8097e-09
-2.18058e-10
-6.90023e-11
-2.38939e-09
-6.90023e-11
-1.76131e-09
5.45641e-09
-5.25398e-10
-2.91954e-09
4.45256e-09
-6.35239e-10
-3.75503e-09
4.11247e-09
-7.68898e-10
-4.22465e-09
3.59278e-09
-7.70435e-10
-4.24886e-09
2.61911e-09
-6.72575e-10
-3.81117e-09
1.28723e-09
-5.22585e-10
-3.08447e-09
-9.80748e-11
-3.17969e-10
-2.25714e-09
-1.09393e-09
-1.46878e-10
-1.52137e-09
-1.3586e-09
-3.96976e-11
-8.89996e-10
-8.96619e-10
-7.94574e-12
-3.20698e-10
1.87537e-10
-7.19471e-11
2.73679e-10
1.52438e-09
-1.8773e-10
9.35187e-10
2.70817e-09
-2.83018e-10
1.59195e-09
3.44169e-09
-2.94257e-10
2.11924e-09
3.57318e-09
-1.87177e-10
2.43288e-09
3.1214e-09
-2.72839e-11
2.42219e-09
2.29433e-09
1.21622e-10
2.08697e-09
1.35253e-09
2.33854e-10
1.48149e-09
5.44196e-10
2.65983e-10
7.79766e-10
-3.31957e-11
1.93307e-10
2.02307e-10
-4.07765e-10
6.71598e-11
-1.27359e-10
-6.36844e-10
-2.57785e-11
-1.86468e-10
-7.08675e-10
-8.08625e-11
-1.24913e-10
-4.8837e-10
-7.86171e-11
-1.29939e-10
1.41591e-10
-6.5974e-11
-3.04195e-10
1.15577e-09
-8.80446e-11
-6.72626e-10
2.35516e-09
-2.46101e-10
-8.99702e-10
3.56755e-09
-6.53772e-10
3.59494e-09
-8.53321e-10
-8.82266e-10
-4.22721e-10
-8.82266e-10
-1.86784e-09
7.79124e-09
-1.21771e-09
-2.3987e-09
6.20418e-09
-1.13238e-09
-2.6256e-09
5.48738e-09
-1.10029e-09
-2.50191e-09
4.39334e-09
-9.07367e-10
-2.09813e-09
2.86704e-09
-6.47131e-10
-1.6167e-09
1.15928e-09
-3.38279e-10
-1.24068e-09
-3.44151e-10
-8.51511e-11
-1.0378e-09
-1.25996e-09
4.4332e-11
-1.00874e-09
-1.3421e-09
6.17505e-11
-9.56946e-10
-8.19986e-10
-2.06287e-11
-7.25097e-10
2.25101e-10
-1.92794e-10
-1.80393e-10
1.3672e-09
-3.6591e-10
6.30152e-10
2.30117e-09
-4.40219e-10
1.53187e-09
2.8569e-09
-3.90622e-10
2.31028e-09
2.97674e-09
-2.55575e-10
2.77336e-09
2.70943e-09
-9.05043e-11
2.77685e-09
2.23517e-09
6.26329e-11
2.36307e-09
1.67058e-09
1.33331e-10
1.67653e-09
1.16736e-09
1.01872e-10
9.24213e-10
7.37699e-10
3.59374e-12
3.32932e-10
2.88591e-10
-8.47622e-11
-4.44402e-11
-8.90225e-11
-1.13378e-10
-2.89261e-10
-2.50567e-10
-8.88869e-11
-5.82898e-10
6.27518e-11
-7.44083e-11
-1.00374e-09
8.76716e-10
-1.24201e-10
-1.44645e-09
2.0347e-09
-3.13198e-10
-1.70383e-09
3.26546e-09
-6.63349e-10
-1.36199e-09
3.8704e-09
-7.87114e-10
2.67561e-09
-5.22249e-10
-1.39627e-09
2.41265e-09
-1.39627e-09
-1.41039e-09
8.92752e-09
-1.23819e-09
-1.29061e-09
7.07377e-09
-1.11076e-09
-9.67738e-10
6.02504e-09
-9.91505e-10
-4.61557e-10
4.52275e-09
-7.58733e-10
5.83888e-11
2.75786e-09
-5.05773e-10
3.54859e-10
1.07687e-09
-2.64973e-10
2.61544e-10
-1.69523e-10
-8.45258e-11
-1.50288e-10
-7.63069e-10
-5.37906e-11
-6.44971e-10
-6.85522e-10
-1.24338e-10
-1.00219e-09
-1.70621e-10
-2.82206e-10
-9.33515e-10
5.5227e-10
-4.39214e-10
-4.15581e-10
1.22998e-09
-4.82603e-10
4.25304e-10
1.74018e-09
-4.21314e-10
1.35288e-09
2.06585e-09
-2.82851e-10
2.12248e-09
2.1964e-09
-1.08403e-10
2.53853e-09
2.15745e-09
5.59422e-11
2.53724e-09
2.02587e-09
1.56675e-10
2.14349e-09
1.85425e-09
1.58326e-10
1.57099e-09
1.55693e-09
1.24611e-10
9.77708e-10
1.20149e-09
8.87829e-11
4.91274e-10
7.07464e-10
9.18475e-11
5.61609e-11
3.42067e-10
1.2736e-10
-4.62476e-10
3.4817e-10
1.27696e-10
-1.11526e-09
8.65966e-10
7.82795e-11
-1.72388e-09
1.75647e-09
-9.66084e-11
-2.01795e-09
2.7904e-09
-3.83393e-10
-1.75204e-09
3.39451e-09
-3.85408e-10
-8.49672e-10
3.1379e-09
-1.01936e-10
1.84013e-09
2.51976e-10
-1.19976e-09
4.71308e-09
-1.19976e-09
-5.74173e-10
8.95198e-09
-9.29123e-10
-1.16997e-10
7.21733e-09
-8.51049e-10
4.5803e-10
5.956e-09
-7.38757e-10
1.05654e-09
4.30004e-09
-5.75133e-10
1.47175e-09
2.59327e-09
-4.03565e-10
1.50182e-09
1.19247e-09
-2.49048e-10
1.10263e-09
3.24362e-10
-1.59335e-10
4.04543e-10
3.71188e-11
-1.51263e-10
-2.94689e-10
1.38188e-10
-1.85814e-10
-7.26547e-10
3.93185e-10
-2.25498e-10
-7.23379e-10
6.05209e-10
-1.83931e-10
-3.35244e-10
7.80664e-10
-8.26755e-11
3.02523e-10
9.14724e-10
5.73689e-11
9.9532e-10
1.06717e-09
2.1327e-10
1.5445e-09
1.24986e-09
3.46061e-10
1.84366e-09
1.42983e-09
3.993e-10
1.85659e-09
1.59823e-09
3.80885e-10
1.61949e-09
1.68526e-09
3.58467e-10
1.24328e-09
1.58111e-09
3.15208e-10
8.57941e-10
1.29973e-09
3.08452e-10
4.18848e-10
9.53702e-10
3.04698e-10
-1.77513e-10
8.30098e-10
2.91537e-10
-9.26354e-10
1.10979e-09
1.73682e-10
-1.57648e-09
1.73714e-09
-1.00263e-10
-1.90803e-09
2.39552e-09
-2.68146e-10
-1.67421e-09
2.7632e-09
-1.93492e-10
-8.94348e-10
2.64687e-09
6.3323e-11
-1.43787e-10
2.27602e-09
3.79378e-10
1.62642e-09
3.36065e-10
-8.05269e-10
6.14428e-09
-8.05269e-10
5.44595e-11
8.35443e-09
-5.93758e-10
6.52867e-10
6.89477e-09
-5.5973e-10
1.31577e-09
5.50698e-09
-4.64926e-10
1.89507e-09
3.83287e-09
-3.20185e-10
2.18754e-09
2.30119e-09
-1.61965e-10
2.08697e-09
1.2112e-09
-4.06118e-11
1.57825e-09
6.62961e-10
6.96874e-11
8.80812e-10
5.08685e-10
1.27623e-10
2.31907e-10
4.81653e-10
1.96894e-10
-1.77672e-10
3.94186e-10
2.92757e-10
-3.19178e-10
2.17562e-10
4.24891e-10
-2.33089e-10
6.07009e-11
5.66031e-10
1.86248e-11
1.74669e-11
6.28997e-10
3.22044e-10
1.50751e-10
6.39935e-10
6.10584e-10
4.19638e-10
5.8217e-10
8.14635e-10
7.66731e-10
4.78075e-10
8.88776e-10
1.13745e-09
3.68993e-10
8.42451e-10
1.42318e-09
2.73497e-10
6.74613e-10
1.53023e-09
2.08772e-10
3.71519e-10
1.48563e-09
1.60074e-10
-1.39522e-10
1.47134e-09
6.71357e-11
-7.87017e-10
1.65279e-09
-1.38628e-10
-1.36284e-09
1.99636e-09
-3.72522e-10
-1.59281e-09
2.27824e-09
-4.66683e-10
-1.31934e-09
2.32483e-09
-3.75353e-10
-6.36413e-10
2.12177e-09
-1.33495e-10
1.23107e-12
1.93236e-09
1.12456e-10
8.7719e-11
2.14319e-09
1.15209e-10
1.72683e-09
-1.5291e-10
-4.55783e-10
6.86354e-09
-4.55783e-10
4.5135e-10
7.4411e-09
-2.97321e-10
1.118e-09
6.20941e-09
-2.34085e-10
1.78909e-09
4.71374e-09
-9.27427e-11
2.28031e-09
3.08206e-09
8.84183e-11
2.45164e-09
1.73693e-09
2.62023e-10
2.25664e-09
9.03722e-10
3.99307e-10
1.75689e-09
5.5902e-10
5.12337e-10
1.15116e-09
4.28788e-10
5.96542e-10
5.91885e-10
2.81975e-10
6.76582e-10
1.28571e-10
7.61555e-12
7.92547e-10
-2.41929e-10
-3.10117e-10
8.87815e-10
-4.94673e-10
-5.23376e-10
8.82946e-10
-6.10438e-10
-5.5569e-10
7.76852e-10
-5.67172e-10
-3.9546e-10
5.95786e-10
-3.89676e-10
-1.20467e-10
4.1949e-10
-1.68089e-10
2.7745e-10
2.6857e-10
9.20641e-12
7.85397e-10
1.34377e-10
7.38593e-11
1.28812e-09
2.67142e-11
-2.6923e-11
1.68444e-09
-7.46314e-11
-3.35889e-10
1.98283e-09
-2.06892e-10
-8.00795e-10
2.25197e-09
-3.941e-10
-1.20965e-09
2.44542e-09
-5.74779e-10
-1.28551e-09
2.41371e-09
-6.28968e-10
-9.38932e-10
2.13524e-09
-5.00488e-10
-3.38614e-10
1.74982e-09
-2.44407e-10
1.5477e-10
1.53073e-09
-3.10572e-11
2.44421e-10
1.75658e-09
-3.81712e-11
1.92158e-13
2.43075e-09
-3.04514e-10
1.86721e-09
-4.41458e-10
-1.78673e-10
7.05599e-09
-1.78673e-10
7.8111e-10
6.22985e-09
3.07604e-12
1.50261e-09
5.11768e-09
1.66784e-10
2.08628e-09
3.5748e-09
3.91443e-10
2.3769e-09
2.07229e-09
5.99489e-10
2.29225e-09
9.99949e-10
7.39059e-10
1.91864e-09
4.30895e-10
7.86346e-10
1.41539e-09
1.79239e-10
8.32763e-10
9.01919e-10
3.552e-11
8.65447e-10
4.03247e-10
-1.56438e-10
9.18204e-10
-1.06526e-10
-4.02672e-10
9.42891e-10
-6.26503e-10
-6.02826e-10
8.8687e-10
-1.06493e-09
-7.09812e-10
7.37564e-10
-1.30632e-09
-7.8945e-10
5.91939e-10
-1.26038e-09
-7.92946e-10
4.33291e-10
-1.01406e-09
-6.62698e-10
3.22551e-10
-7.33473e-10
-2.68641e-10
2.49528e-10
-5.39926e-10
3.89064e-10
1.78587e-10
-4.97793e-10
1.16222e-09
7.55877e-11
-6.21886e-10
1.86952e-09
-6.95642e-11
-8.7356e-10
2.42363e-09
-2.52432e-10
-1.0765e-09
2.70225e-09
-4.10893e-10
-1.01002e-09
2.57204e-09
-4.3778e-10
-6.119e-10
2.04576e-09
-2.71022e-10
-7.61772e-11
1.43817e-09
1.56295e-13
2.50574e-10
1.16721e-09
1.61457e-10
2.39524e-10
1.34916e-09
7.29264e-11
1.82773e-11
1.96283e-09
-2.1331e-10
-2.13886e-11
2.58483e-09
-4.00733e-10
2.05425e-09
-2.96893e-10
1.17297e-10
6.68804e-09
1.17297e-10
1.12662e-09
4.6329e-09
3.8617e-10
1.79465e-09
3.65005e-09
6.40174e-10
2.11472e-09
2.27659e-09
8.64103e-10
2.01409e-09
1.11035e-09
9.96829e-10
1.56104e-09
3.62045e-10
1.06214e-09
1.00138e-09
1.04556e-11
9.70936e-10
5.14444e-10
-2.06515e-10
8.72234e-10
1.02561e-10
-3.82636e-10
8.41357e-10
-3.11392e-10
-5.42688e-10
8.37165e-10
-7.92943e-10
-6.61144e-10
8.13989e-10
-1.28894e-09
-7.69636e-10
7.68927e-10
-1.61239e-09
-9.42846e-10
6.70829e-10
-1.65916e-09
-1.25024e-09
6.00075e-10
-1.43702e-09
-1.54388e-09
5.83965e-10
-1.11341e-09
-1.54917e-09
5.92318e-10
-8.71133e-10
-1.07436e-09
5.96658e-10
-7.65154e-10
-1.9491e-10
5.34082e-10
-7.83463e-10
8.70705e-10
3.71331e-10
-8.53633e-10
1.78862e-09
1.67128e-10
-8.68082e-10
2.34199e-09
2.38605e-11
-6.6842e-10
2.32972e-09
2.75725e-11
-2.51044e-10
1.82593e-09
1.85544e-10
1.69361e-10
1.16035e-09
3.88014e-10
3.01534e-10
7.83528e-10
4.86038e-10
1.14394e-10
8.91436e-10
3.70249e-10
-1.92888e-10
1.41909e-09
3.08134e-11
-2.64745e-10
2.01329e-09
-2.39348e-10
5.03473e-11
2.32678e-09
-2.18377e-10
2.00336e-09
-1.8299e-11
4.53703e-10
5.66727e-09
4.53703e-10
1.34907e-09
2.81802e-09
7.67472e-10
1.75538e-09
2.11985e-09
1.01863e-09
1.64124e-09
1.14903e-09
1.18877e-09
1.10045e-09
4.88979e-10
1.15701e-09
4.04233e-10
9.82467e-11
9.83974e-10
-2.10081e-10
-2.06825e-10
8.64782e-10
-6.55685e-10
-5.36765e-10
8.09562e-10
-9.80497e-10
-8.22741e-10
8.04665e-10
-1.30062e-09
-9.82415e-10
8.16789e-10
-1.62838e-09
-1.05454e-09
7.98331e-10
-1.84914e-09
-1.21526e-09
7.52297e-10
-1.83759e-09
-1.63112e-09
7.52688e-10
-1.57472e-09
-2.26587e-09
8.09809e-10
-1.18326e-09
-2.81255e-09
9.273e-10
-9.07816e-10
-2.75467e-09
9.98255e-10
-7.63713e-10
-2.06689e-09
9.48079e-10
-7.14152e-10
-9.11568e-10
7.77408e-10
-6.37103e-10
2.95319e-10
5.68356e-10
-4.53002e-10
1.14087e-09
4.49403e-10
-9.80892e-11
1.42175e-09
4.74429e-10
3.54674e-10
1.15121e-09
6.21676e-10
6.72082e-10
6.74097e-10
7.75761e-10
5.88325e-10
4.11803e-10
7.9634e-10
1.86428e-10
4.54244e-10
6.25423e-10
-2.67897e-10
8.07911e-10
3.18899e-10
-5.30982e-10
1.39484e-09
2.6115e-11
-3.42492e-10
1.70142e-09
-9.0048e-11
1.77753e-10
1.56627e-09
3.32323e-11
1.47761e-09
3.35432e-10
7.1747e-10
4.14406e-09
7.1747e-10
1.16938e-09
1.25586e-09
1.03895e-09
1.14846e-09
9.99671e-10
1.11702e-09
6.29057e-10
6.62002e-10
1.02744e-09
-1.93663e-10
4.41726e-10
9.1953e-10
-9.89018e-10
1.66687e-10
7.81966e-10
-1.55569e-09
-2.94522e-10
6.99652e-10
-1.90402e-09
-8.53826e-10
7.00816e-10
-2.14638e-09
-1.28981e-09
7.45482e-10
-2.33612e-09
-1.51437e-09
7.66717e-10
-2.39618e-09
-1.69884e-09
7.55227e-10
-2.22695e-09
-2.1368e-09
7.97525e-10
-1.78117e-09
-2.96316e-09
9.20042e-10
-1.22737e-09
-3.87273e-09
1.08672e-09
-8.1546e-10
-4.37679e-09
1.20921e-09
-5.9702e-10
-4.11822e-09
1.23833e-09
-4.65151e-10
-3.19993e-09
1.1126e-09
-2.46951e-10
-1.98022e-09
9.33502e-10
1.59521e-10
-9.60031e-10
8.6115e-10
7.3528e-10
-4.05494e-10
9.13793e-10
1.30212e-09
-2.84169e-10
1.06505e-09
1.62816e-09
-4.09758e-10
1.19836e-09
1.4776e-09
-4.44201e-10
1.26277e-09
8.64017e-10
-8.75582e-11
1.06649e-09
1.52978e-10
3.43201e-10
6.94507e-10
-2.87337e-10
7.24975e-10
3.85096e-10
-3.85209e-10
1.20141e-09
2.24383e-10
-9.67554e-11
1.14245e-09
2.01625e-10
4.45302e-10
4.46006e-10
3.44716e-10
1.037e-09
7.32907e-10
7.72475e-10
2.5617e-09
7.72475e-10
5.09565e-10
6.88845e-10
8.63123e-10
-2.94508e-11
8.44164e-10
7.54399e-10
-8.35895e-10
9.35767e-10
6.07274e-10
-1.66975e-09
8.80828e-10
4.6283e-10
-2.32914e-09
4.67467e-10
4.06201e-10
-2.76634e-09
-2.94143e-10
4.6569e-10
-3.0663e-09
-1.11051e-09
5.80854e-10
-3.27456e-09
-1.72546e-09
6.76584e-10
-3.3052e-09
-2.16347e-09
7.21132e-10
-3.04155e-09
-2.73925e-09
8.14244e-10
-2.4222e-09
-3.72857e-09
9.94324e-10
-1.625e-09
-4.96898e-09
1.2192e-09
-9.28365e-10
-5.98858e-09
1.43943e-09
-5.03597e-10
-6.31063e-09
1.55753e-09
-2.28088e-10
-5.83177e-09
1.50889e-09
1.11657e-10
-4.86344e-09
1.38414e-09
7.70075e-10
-3.95693e-09
1.33435e-09
1.59746e-09
-3.20069e-09
1.38495e-09
2.4255e-09
-2.81388e-09
1.54966e-09
2.90648e-09
-2.39265e-09
1.64225e-09
2.83123e-09
-1.83398e-09
1.56053e-09
2.25874e-09
-1.20263e-09
1.3881e-09
1.42622e-09
-3.21973e-10
1.09158e-09
6.67438e-10
4.13596e-10
7.31371e-10
2.86257e-10
7.26962e-10
5.03604e-10
2.99195e-10
8.67574e-10
4.68857e-10
4.84951e-10
4.48107e-10
5.51465e-10
6.47139e-10
-3.32008e-10
6.30657e-10
1.45508e-09
5.15341e-10
3.38025e-10
1.91336e-09
3.38025e-10
-6.05522e-10
1.56353e-09
1.80248e-10
-1.48051e-09
1.81254e-09
7.76952e-12
-2.31007e-09
1.94832e-09
-1.03367e-10
-2.97962e-09
1.69315e-09
-9.40696e-11
-3.46231e-09
9.10694e-10
6.5412e-11
-3.84548e-09
-1.86784e-10
3.00719e-10
-4.18353e-09
-1.24177e-09
5.13023e-10
-4.35881e-09
-2.14678e-09
6.61106e-10
-4.18052e-09
-3.08561e-09
8.10053e-10
-3.53182e-09
-4.37638e-09
1.03042e-09
-2.5235e-09
-6.05385e-09
1.32351e-09
-1.53451e-09
-7.59767e-09
1.62416e-09
-8.04177e-10
-8.56685e-09
1.83521e-09