/*--------------------------------*- C++ -*----------------------------------*\
| =========                 |                                                 |
| \\      /  F ield         | OpenFOAM: The Open Source CFD Toolbox           |
|  \\    /   O peration     | Version:  2312                                  |
|   \\  /    A nd           | Website:  www.openfoam.com                      |
|    \\/     M anipulation  |                                                 |
\*---------------------------------------------------------------------------*/
FoamFile
{
    version     2.0;
    format      ascii;
    arch        "LSB;label=32;scalar=64";
    class       volScalarField;
    location    "0.648989";
    object      epsilon;
}
// * * * * * * * * * * * * * * * * * * * * * * * * * * * * * * * * * * * * * //

dimensions      [0 2 -3 0 0 0 0];

internalField   nonuniform List<scalar> 
90000
(
1.19941e-05
1.1995e-05
1.19952e-05
1.19953e-05
1.19954e-05
1.19954e-05
1.19954e-05
1.19953e-05
1.19952e-05
1.19952e-05
1.19951e-05
1.19952e-05
1.19952e-05
1.19952e-05
1.19952e-05
1.19953e-05
1.19954e-05
1.19956e-05
1.19956e-05
1.19956e-05
1.19954e-05
1.19951e-05
1.1995e-05
1.19953e-05
1.19957e-05
1.19959e-05
1.19959e-05
1.19957e-05
1.19955e-05
1.19956e-05
1.19949e-05
1.20191e-05
1.20201e-05
1.20201e-05
1.20201e-05
1.20201e-05
1.20201e-05
1.20202e-05
1.20202e-05
1.20203e-05
1.20203e-05
1.20203e-05
1.20203e-05
1.20204e-05
1.20204e-05
1.20204e-05
1.20204e-05
1.20203e-05
1.20202e-05
1.20202e-05
1.20201e-05
1.20202e-05
1.20201e-05
1.20201e-05
1.20199e-05
1.20197e-05
1.20198e-05
1.20202e-05
1.20191e-05
1.19982e-05
1.19952e-05
1.20205e-05
1.20216e-05
1.20216e-05
1.20215e-05
1.20215e-05
1.20215e-05
1.20215e-05
1.20216e-05
1.20217e-05
1.20216e-05
1.20216e-05
1.20215e-05
1.20215e-05
1.20216e-05
1.20215e-05
1.20214e-05
1.20214e-05
1.20215e-05
1.20216e-05
1.20217e-05
1.20218e-05
1.20218e-05
1.20218e-05
1.20219e-05
1.20221e-05
1.20222e-05
1.20223e-05
1.20209e-05
1.19972e-05
1.19955e-05
1.20208e-05
1.2022e-05
1.2022e-05
1.2022e-05
1.20219e-05
1.20218e-05
1.20218e-05
1.20218e-05
1.20218e-05
1.20217e-05
1.20216e-05
1.20215e-05
1.20215e-05
1.20214e-05
1.20213e-05
1.20213e-05
1.20215e-05
1.20217e-05
1.20218e-05
1.20219e-05
1.2022e-05
1.20221e-05
1.20224e-05
1.20227e-05
1.20228e-05
1.20226e-05
1.20224e-05
1.20212e-05
1.19958e-05
1.19958e-05
1.2021e-05
1.20223e-05
1.20224e-05
1.20223e-05
1.20223e-05
1.20222e-05
1.20221e-05
1.2022e-05
1.20219e-05
1.20217e-05
1.20216e-05
1.20214e-05
1.20213e-05
1.20211e-05
1.20212e-05
1.20214e-05
1.20216e-05
1.20217e-05
1.20218e-05
1.20219e-05
1.2022e-05
1.20223e-05
1.20226e-05
1.20228e-05
1.20228e-05
1.20226e-05
1.2022e-05
1.20214e-05
1.19958e-05
1.1996e-05
1.20212e-05
1.20225e-05
1.20226e-05
1.20226e-05
1.20225e-05
1.20224e-05
1.20223e-05
1.20221e-05
1.20219e-05
1.20216e-05
1.20215e-05
1.20213e-05
1.20212e-05
1.20212e-05
1.20212e-05
1.20213e-05
1.20215e-05
1.20216e-05
1.20217e-05
1.20219e-05
1.20222e-05
1.20224e-05
1.20225e-05
1.20225e-05
1.20224e-05
1.20226e-05
1.20226e-05
1.2022e-05
1.19963e-05
1.19962e-05
1.20215e-05
1.20226e-05
1.20226e-05
1.20226e-05
1.20226e-05
1.20226e-05
1.20224e-05
1.20222e-05
1.20219e-05
1.20216e-05
1.20214e-05
1.20213e-05
1.20213e-05
1.20212e-05
1.20212e-05
1.20212e-05
1.20213e-05
1.20215e-05
1.20218e-05
1.20221e-05
1.20223e-05
1.20223e-05
1.20223e-05
1.20224e-05
1.20227e-05
1.20231e-05
1.20234e-05
1.20224e-05
1.19967e-05
1.19964e-05
1.20216e-05
1.20227e-05
1.20226e-05
1.20226e-05
1.20226e-05
1.20226e-05
1.20225e-05
1.20223e-05
1.2022e-05
1.20217e-05
1.20214e-05
1.20213e-05
1.20213e-05
1.20213e-05
1.20213e-05
1.20212e-05
1.20213e-05
1.20216e-05
1.2022e-05
1.20222e-05
1.20223e-05
1.20223e-05
1.20223e-05
1.20227e-05
1.20231e-05
1.20235e-05
1.20237e-05
1.20225e-05
1.1997e-05
1.19966e-05
1.20217e-05
1.20227e-05
1.20227e-05
1.20227e-05
1.20227e-05
1.20227e-05
1.20226e-05
1.20225e-05
1.20223e-05
1.2022e-05
1.20217e-05
1.20215e-05
1.20214e-05
1.20214e-05
1.20215e-05
1.20216e-05
1.20218e-05
1.2022e-05
1.20222e-05
1.20223e-05
1.20223e-05
1.20223e-05
1.20226e-05
1.2023e-05
1.20234e-05
1.20237e-05
1.20239e-05
1.20227e-05
1.19974e-05
1.19969e-05
1.20218e-05
1.20229e-05
1.20229e-05
1.20228e-05
1.20227e-05
1.20227e-05
1.20227e-05
1.20226e-05
1.20225e-05
1.20224e-05
1.20221e-05
1.20218e-05
1.20216e-05
1.20215e-05
1.20218e-05
1.20221e-05
1.20224e-05
1.20226e-05
1.20226e-05
1.20225e-05
1.20224e-05
1.20225e-05
1.20228e-05
1.20232e-05
1.20236e-05
1.20239e-05
1.2024e-05
1.20229e-05
1.19977e-05
1.19973e-05
1.2022e-05
1.20232e-05
1.20231e-05
1.2023e-05
1.20229e-05
1.20228e-05
1.20227e-05
1.20227e-05
1.20227e-05
1.20226e-05
1.20225e-05
1.20222e-05
1.20219e-05
1.20217e-05
1.20219e-05
1.20224e-05
1.20227e-05
1.20229e-05
1.20229e-05
1.20228e-05
1.20227e-05
1.20227e-05
1.2023e-05
1.20233e-05
1.20237e-05
1.2024e-05
1.20242e-05
1.20231e-05
1.19979e-05
1.19979e-05
1.20225e-05
1.20237e-05
1.20236e-05
1.20235e-05
1.20234e-05
1.20233e-05
1.20231e-05
1.2023e-05
1.20229e-05
1.20228e-05
1.20227e-05
1.20225e-05
1.20222e-05
1.20218e-05
1.20219e-05
1.20223e-05
1.20226e-05
1.20229e-05
1.20229e-05
1.20228e-05
1.20228e-05
1.20229e-05
1.20232e-05
1.20236e-05
1.2024e-05
1.20243e-05
1.20244e-05
1.20233e-05
1.19982e-05
1.19984e-05
1.20232e-05
1.20244e-05
1.20244e-05
1.20244e-05
1.20243e-05
1.20242e-05
1.20239e-05
1.20236e-05
1.20233e-05
1.2023e-05
1.20228e-05
1.20227e-05
1.20224e-05
1.20221e-05
1.2022e-05
1.20221e-05
1.20223e-05
1.20224e-05
1.20225e-05
1.20226e-05
1.20228e-05
1.20231e-05
1.20235e-05
1.20239e-05
1.20243e-05
1.20245e-05
1.20247e-05
1.20235e-05
1.19986e-05
1.19991e-05
1.20242e-05
1.20253e-05
1.20254e-05
1.20254e-05
1.20253e-05
1.20251e-05
1.20248e-05
1.20243e-05
1.20238e-05
1.20232e-05
1.20229e-05
1.20227e-05
1.20226e-05
1.20224e-05
1.20222e-05
1.20223e-05
1.20222e-05
1.20223e-05
1.20225e-05
1.20228e-05
1.20233e-05
1.20237e-05
1.20241e-05
1.20244e-05
1.20247e-05
1.20249e-05
1.20251e-05
1.20239e-05
1.19992e-05
1.2e-05
1.20252e-05
1.20264e-05
1.20264e-05
1.20263e-05
1.20262e-05
1.20258e-05
1.20254e-05
1.20248e-05
1.20241e-05
1.20235e-05
1.2023e-05
1.20227e-05
1.20226e-05
1.20225e-05
1.20225e-05
1.20225e-05
1.20225e-05
1.20227e-05
1.20231e-05
1.20236e-05
1.2024e-05
1.20244e-05
1.20248e-05
1.20251e-05
1.20254e-05
1.20256e-05
1.20258e-05
1.20248e-05
1.20002e-05
1.2001e-05
1.20266e-05
1.20277e-05
1.20275e-05
1.20273e-05
1.20269e-05
1.20263e-05
1.20257e-05
1.20251e-05
1.20245e-05
1.20238e-05
1.20232e-05
1.20228e-05
1.20226e-05
1.20225e-05
1.20226e-05
1.20227e-05
1.2023e-05
1.20234e-05
1.2024e-05
1.20245e-05
1.2025e-05
1.20254e-05
1.20257e-05
1.2026e-05
1.20263e-05
1.20266e-05
1.2027e-05
1.20262e-05
1.20015e-05
1.20024e-05
1.20282e-05
1.20291e-05
1.20287e-05
1.20282e-05
1.20276e-05
1.20269e-05
1.20262e-05
1.20256e-05
1.2025e-05
1.20243e-05
1.20236e-05
1.2023e-05
1.20227e-05
1.20225e-05
1.20226e-05
1.2023e-05
1.20235e-05
1.20241e-05
1.20248e-05
1.20254e-05
1.20259e-05
1.20264e-05
1.20268e-05
1.20272e-05
1.20276e-05
1.20281e-05
1.20287e-05
1.20278e-05
1.20029e-05
1.20042e-05
1.20298e-05
1.20306e-05
1.20301e-05
1.20295e-05
1.20288e-05
1.2028e-05
1.20272e-05
1.20265e-05
1.20258e-05
1.20251e-05
1.20242e-05
1.20235e-05
1.20228e-05
1.20224e-05
1.20225e-05
1.20231e-05
1.2024e-05
1.20248e-05
1.20256e-05
1.20263e-05
1.20269e-05
1.20275e-05
1.2028e-05
1.20285e-05
1.20292e-05
1.20298e-05
1.20303e-05
1.20293e-05
1.20042e-05
1.20062e-05
1.20315e-05
1.20323e-05
1.20318e-05
1.20312e-05
1.20304e-05
1.20296e-05
1.20287e-05
1.20278e-05
1.20269e-05
1.2026e-05
1.2025e-05
1.20239e-05
1.2023e-05
1.20223e-05
1.20224e-05
1.20233e-05
1.20243e-05
1.20254e-05
1.20264e-05
1.20273e-05
1.2028e-05
1.20287e-05
1.20294e-05
1.20302e-05
1.2031e-05
1.20316e-05
1.20319e-05
1.20307e-05
1.20058e-05
1.20087e-05
1.20336e-05
1.20344e-05
1.20339e-05
1.20332e-05
1.20324e-05
1.20315e-05
1.20305e-05
1.20295e-05
1.20283e-05
1.20271e-05
1.20258e-05
1.20245e-05
1.20233e-05
1.20224e-05
1.20225e-05
1.20235e-05
1.20249e-05
1.20262e-05
1.20274e-05
1.20285e-05
1.20294e-05
1.20304e-05
1.20314e-05
1.20323e-05
1.20331e-05
1.20335e-05
1.20337e-05
1.20326e-05
1.20078e-05
1.20116e-05
1.20361e-05
1.20369e-05
1.20364e-05
1.20357e-05
1.20348e-05
1.20338e-05
1.20327e-05
1.20315e-05
1.20301e-05
1.20286e-05
1.2027e-05
1.20254e-05
1.20239e-05
1.20228e-05
1.20228e-05
1.20241e-05
1.20257e-05
1.20273e-05
1.20287e-05
1.20301e-05
1.20314e-05
1.20327e-05
1.20339e-05
1.20349e-05
1.20356e-05
1.2036e-05
1.20362e-05
1.20352e-05
1.20106e-05
1.20151e-05
1.20393e-05
1.20401e-05
1.20395e-05
1.20387e-05
1.20378e-05
1.20367e-05
1.20354e-05
1.20339e-05
1.20322e-05
1.20304e-05
1.20285e-05
1.20266e-05
1.20248e-05
1.20235e-05
1.20236e-05
1.2025e-05
1.20269e-05
1.20288e-05
1.20306e-05
1.20324e-05
1.2034e-05
1.20356e-05
1.20369e-05
1.20379e-05
1.20387e-05
1.20393e-05
1.20397e-05
1.20388e-05
1.20144e-05
1.20194e-05
1.20433e-05
1.20442e-05
1.20435e-05
1.20426e-05
1.20415e-05
1.20402e-05
1.20387e-05
1.20369e-05
1.20349e-05
1.20327e-05
1.20305e-05
1.20283e-05
1.20262e-05
1.20246e-05
1.20246e-05
1.20263e-05
1.20285e-05
1.20308e-05
1.2033e-05
1.20352e-05
1.20373e-05
1.20391e-05
1.20406e-05
1.20418e-05
1.20427e-05
1.20435e-05
1.20441e-05
1.20434e-05
1.20192e-05
1.20246e-05
1.20485e-05
1.20493e-05
1.20485e-05
1.20475e-05
1.20461e-05
1.20446e-05
1.20427e-05
1.20405e-05
1.20382e-05
1.20356e-05
1.2033e-05
1.20303e-05
1.20278e-05
1.20259e-05
1.20258e-05
1.20278e-05
1.20305e-05
1.20332e-05
1.2036e-05
1.20386e-05
1.20411e-05
1.20432e-05
1.20449e-05
1.20464e-05
1.20477e-05
1.20488e-05
1.20496e-05
1.20491e-05
1.20249e-05
1.20311e-05
1.20549e-05
1.20556e-05
1.20547e-05
1.20534e-05
1.20519e-05
1.20499e-05
1.20476e-05
1.2045e-05
1.20422e-05
1.20392e-05
1.2036e-05
1.20328e-05
1.20298e-05
1.20275e-05
1.20274e-05
1.20297e-05
1.20328e-05
1.20362e-05
1.20395e-05
1.20426e-05
1.20455e-05
1.2048e-05
1.20501e-05
1.2052e-05
1.20536e-05
1.2055e-05
1.20561e-05
1.20556e-05
1.20314e-05
1.2039e-05
1.20628e-05
1.20633e-05
1.20623e-05
1.20608e-05
1.20588e-05
1.20565e-05
1.20537e-05
1.20506e-05
1.20472e-05
1.20436e-05
1.20398e-05
1.20358e-05
1.20321e-05
1.20294e-05
1.20293e-05
1.2032e-05
1.20357e-05
1.20397e-05
1.20437e-05
1.20474e-05
1.20508e-05
1.20538e-05
1.20564e-05
1.20587e-05
1.20608e-05
1.20625e-05
1.20638e-05
1.20632e-05
1.20392e-05
1.20486e-05
1.20724e-05
1.20728e-05
1.20716e-05
1.20697e-05
1.20674e-05
1.20645e-05
1.20612e-05
1.20574e-05
1.20533e-05
1.20489e-05
1.20442e-05
1.20395e-05
1.20351e-05
1.20318e-05
1.20318e-05
1.20349e-05
1.20393e-05
1.20441e-05
1.20489e-05
1.20533e-05
1.20574e-05
1.2061e-05
1.20642e-05
1.20671e-05
1.20696e-05
1.20716e-05
1.20729e-05
1.20724e-05
1.20487e-05
1.20603e-05
1.20841e-05
1.20844e-05
1.20828e-05
1.20805e-05
1.20777e-05
1.20742e-05
1.20702e-05
1.20658e-05
1.20608e-05
1.20554e-05
1.20498e-05
1.20441e-05
1.20389e-05
1.20352e-05
1.20351e-05
1.20388e-05
1.20441e-05
1.20498e-05
1.20555e-05
1.20608e-05
1.20657e-05
1.20701e-05
1.20741e-05
1.20776e-05
1.20804e-05
1.20825e-05
1.2084e-05
1.20838e-05
1.20602e-05
1.20745e-05
1.20982e-05
1.20982e-05
1.20962e-05
1.20935e-05
1.20901e-05
1.20861e-05
1.20813e-05
1.2076e-05
1.207e-05
1.20636e-05
1.20569e-05
1.20502e-05
1.20441e-05
1.20397e-05
1.20397e-05
1.20441e-05
1.20503e-05
1.20571e-05
1.20639e-05
1.20702e-05
1.20761e-05
1.20815e-05
1.20862e-05
1.20903e-05
1.20936e-05
1.20959e-05
1.20978e-05
1.20978e-05
1.20744e-05
1.20917e-05
1.2115e-05
1.21147e-05
1.21124e-05
1.21092e-05
1.21052e-05
1.21004e-05
1.20949e-05
1.20885e-05
1.20815e-05
1.20738e-05
1.20659e-05
1.2058e-05
1.20508e-05
1.20458e-05
1.20457e-05
1.20508e-05
1.20581e-05
1.20661e-05
1.20741e-05
1.20817e-05
1.20888e-05
1.20953e-05
1.2101e-05
1.21057e-05
1.21095e-05
1.21125e-05
1.21147e-05
1.21149e-05
1.20919e-05
1.21123e-05
1.21353e-05
1.21347e-05
1.21319e-05
1.21282e-05
1.21235e-05
1.21179e-05
1.21114e-05
1.21039e-05
1.20955e-05
1.20865e-05
1.20771e-05
1.20677e-05
1.20593e-05
1.20534e-05
1.20534e-05
1.20592e-05
1.20677e-05
1.2077e-05
1.20865e-05
1.20956e-05
1.21042e-05
1.21119e-05
1.21185e-05
1.21241e-05
1.21288e-05
1.21324e-05
1.21351e-05
1.21357e-05
1.21129e-05
1.2137e-05
1.21596e-05
1.21587e-05
1.21555e-05
1.21512e-05
1.21457e-05
1.21392e-05
1.21315e-05
1.21226e-05
1.21127e-05
1.2102e-05
1.20908e-05
1.20797e-05
1.20698e-05
1.20631e-05
1.20631e-05
1.20697e-05
1.20795e-05
1.20905e-05
1.21016e-05
1.21124e-05
1.21225e-05
1.21316e-05
1.21394e-05
1.2146e-05
1.21517e-05
1.21561e-05
1.21593e-05
1.21604e-05
1.21377e-05
1.21666e-05
1.21889e-05
1.21877e-05
1.21839e-05
1.21789e-05
1.21725e-05
1.21648e-05
1.21557e-05
1.21453e-05
1.21336e-05
1.21209e-05
1.21077e-05
1.20947e-05
1.20833e-05
1.20756e-05
1.20756e-05
1.20832e-05
1.20944e-05
1.21071e-05
1.21202e-05
1.2133e-05
1.21447e-05
1.21553e-05
1.21645e-05
1.21724e-05
1.21791e-05
1.21843e-05
1.21882e-05
1.21896e-05
1.21672e-05
1.2202e-05
1.22238e-05
1.22222e-05
1.22179e-05
1.22121e-05
1.22047e-05
1.21956e-05
1.21849e-05
1.21727e-05
1.21589e-05
1.21441e-05
1.21287e-05
1.21137e-05
1.21006e-05
1.20919e-05
1.20919e-05
1.21005e-05
1.21134e-05
1.21282e-05
1.21435e-05
1.21582e-05
1.21719e-05
1.21842e-05
1.21951e-05
1.22043e-05
1.22121e-05
1.22181e-05
1.22226e-05
1.22241e-05
1.22024e-05
1.2244e-05
1.22653e-05
1.22633e-05
1.22584e-05
1.22516e-05
1.2243e-05
1.22325e-05
1.22201e-05
1.22059e-05
1.219e-05
1.21729e-05
1.21552e-05
1.2138e-05
1.21231e-05
1.21133e-05
1.21133e-05
1.21231e-05
1.21379e-05
1.2155e-05
1.21726e-05
1.21896e-05
1.22053e-05
1.22196e-05
1.22321e-05
1.22427e-05
1.22515e-05
1.22583e-05
1.22631e-05
1.22649e-05
1.22438e-05
1.22937e-05
1.23142e-05
1.23118e-05
1.23063e-05
1.22986e-05
1.22888e-05
1.22768e-05
1.22627e-05
1.22466e-05
1.22285e-05
1.2209e-05
1.21888e-05
1.21693e-05
1.21525e-05
1.21414e-05
1.21415e-05
1.21526e-05
1.21695e-05
1.2189e-05
1.2209e-05
1.22284e-05
1.22463e-05
1.22626e-05
1.22768e-05
1.22887e-05
1.22986e-05
1.2306e-05
1.23112e-05
1.23132e-05
1.22929e-05
1.23521e-05
1.23717e-05
1.2369e-05
1.23628e-05
1.23544e-05
1.23435e-05
1.23303e-05
1.23145e-05
1.22964e-05
1.2276e-05
1.2254e-05
1.22313e-05
1.22094e-05
1.21906e-05
1.21783e-05
1.21784e-05
1.21909e-05
1.22098e-05
1.22317e-05
1.22543e-05
1.22763e-05
1.22965e-05
1.23149e-05
1.23307e-05
1.2344e-05
1.23548e-05
1.23628e-05
1.23684e-05
1.23707e-05
1.23514e-05
1.24205e-05
1.24389e-05
1.24361e-05
1.24296e-05
1.24206e-05
1.24089e-05
1.23945e-05
1.23772e-05
1.2357e-05
1.23344e-05
1.231e-05
1.22848e-05
1.22605e-05
1.22396e-05
1.22258e-05
1.22258e-05
1.22396e-05
1.22606e-05
1.2285e-05
1.23103e-05
1.23351e-05
1.23576e-05
1.23779e-05
1.23954e-05
1.24098e-05
1.24213e-05
1.243e-05
1.24361e-05
1.24386e-05
1.24205e-05
1.25001e-05
1.25174e-05
1.25146e-05
1.2508e-05
1.24988e-05
1.24865e-05
1.24711e-05
1.24525e-05
1.24307e-05
1.24061e-05
1.23794e-05
1.23517e-05
1.23247e-05
1.23014e-05
1.2286e-05
1.2286e-05
1.23012e-05
1.23243e-05
1.23513e-05
1.23791e-05
1.24063e-05
1.24308e-05
1.24529e-05
1.24718e-05
1.2487e-05
1.24991e-05
1.25084e-05
1.25148e-05
1.25177e-05
1.25008e-05
1.25923e-05
1.26083e-05
1.2606e-05
1.25998e-05
1.25907e-05
1.25784e-05
1.25625e-05
1.25431e-05
1.25201e-05
1.24939e-05
1.24649e-05
1.24347e-05
1.24052e-05
1.23796e-05
1.23628e-05
1.23626e-05
1.23791e-05
1.24043e-05
1.24336e-05
1.24637e-05
1.2493e-05
1.25192e-05
1.25427e-05
1.25623e-05
1.25779e-05
1.25904e-05
1.25997e-05
1.26061e-05
1.26089e-05
1.25931e-05
1.26987e-05
1.27137e-05
1.27121e-05
1.27067e-05
1.26984e-05
1.26868e-05
1.26713e-05
1.26518e-05
1.26281e-05
1.26007e-05
1.25702e-05
1.25381e-05
1.25065e-05
1.2479e-05
1.24607e-05
1.24605e-05
1.24783e-05
1.25056e-05
1.25371e-05
1.25691e-05
1.25997e-05
1.2627e-05
1.26509e-05
1.26705e-05
1.26859e-05
1.26978e-05
1.27063e-05
1.2712e-05
1.27144e-05
1.26995e-05
1.28215e-05
1.28358e-05
1.2835e-05
1.28309e-05
1.28242e-05
1.28143e-05
1.28002e-05
1.27815e-05
1.27583e-05
1.27309e-05
1.26999e-05
1.26667e-05
1.26336e-05
1.26046e-05
1.25855e-05
1.25856e-05
1.26047e-05
1.26335e-05
1.26663e-05
1.26993e-05
1.27304e-05
1.27577e-05
1.27809e-05
1.27994e-05
1.28134e-05
1.28237e-05
1.28305e-05
1.28351e-05
1.28366e-05
1.2822e-05
1.29629e-05
1.29761e-05
1.29768e-05
1.29749e-05
1.29706e-05
1.29636e-05
1.29525e-05
1.29365e-05
1.29155e-05
1.28895e-05
1.28594e-05
1.28262e-05
1.2793e-05
1.27635e-05
1.2744e-05
1.27438e-05
1.27635e-05
1.27932e-05
1.28265e-05
1.28596e-05
1.28895e-05
1.29154e-05
1.29362e-05
1.29519e-05
1.2963e-05
1.29701e-05
1.29746e-05
1.29773e-05
1.29768e-05
1.2963e-05
1.31238e-05
1.31363e-05
1.31398e-05
1.31415e-05
1.31416e-05
1.31389e-05
1.3133e-05
1.31219e-05
1.31054e-05
1.30831e-05
1.30562e-05
1.30251e-05
1.29929e-05
1.29633e-05
1.29438e-05
1.29438e-05
1.29636e-05
1.29932e-05
1.30255e-05
1.30569e-05
1.30836e-05
1.31054e-05
1.31216e-05
1.31323e-05
1.31385e-05
1.31411e-05
1.31413e-05
1.31402e-05
1.31366e-05
1.31238e-05
1.33045e-05
1.33174e-05
1.33256e-05
1.3333e-05
1.33405e-05
1.33453e-05
1.33469e-05
1.33441e-05
1.33355e-05
1.33211e-05
1.33008e-05
1.32749e-05
1.32468e-05
1.32203e-05
1.32031e-05
1.3203e-05
1.32205e-05
1.32472e-05
1.32754e-05
1.33012e-05
1.33217e-05
1.33357e-05
1.33442e-05
1.33466e-05
1.3345e-05
1.33402e-05
1.33333e-05
1.33259e-05
1.33173e-05
1.33046e-05
1.35086e-05
1.35255e-05
1.35412e-05
1.35577e-05
1.3577e-05
1.35949e-05
1.36113e-05
1.36238e-05
1.36309e-05
1.36358e-05
1.36352e-05
1.36316e-05
1.36333e-05
1.36381e-05
1.3651e-05
1.36511e-05
1.36382e-05
1.36332e-05
1.36318e-05
1.36356e-05
1.36361e-05
1.36309e-05
1.36239e-05
1.3611e-05
1.35945e-05
1.35769e-05
1.35582e-05
1.35414e-05
1.35256e-05
1.35087e-05
1.37574e-05
1.37842e-05
1.38151e-05
1.38506e-05
1.38919e-05
1.39421e-05
1.39978e-05
1.40657e-05
1.41437e-05
1.42561e-05
1.44118e-05
1.46248e-05
1.49301e-05
1.5328e-05
1.57494e-05
1.5749e-05
1.53283e-05
1.49305e-05
1.46258e-05
1.44135e-05
1.42575e-05
1.41446e-05
1.4066e-05
1.39976e-05
1.39419e-05
1.38917e-05
1.38507e-05
1.38147e-05
1.37839e-05
1.37572e-05
1.41018e-05
1.41512e-05
1.42312e-05
1.43354e-05
1.44727e-05
1.46764e-05
1.49694e-05
1.54148e-05
1.60714e-05
1.71354e-05
1.88632e-05
2.1502e-05
2.50522e-05
2.96468e-05
3.45714e-05
3.45694e-05
2.96498e-05
2.50645e-05
2.15221e-05
1.88832e-05
1.71497e-05
1.60808e-05
1.54204e-05
1.49718e-05
1.46766e-05
1.44717e-05
1.43342e-05
1.42297e-05
1.41495e-05
1.40995e-05
1.47262e-05
1.48723e-05
1.52231e-05
1.57203e-05
1.64852e-05
1.77241e-05
1.98128e-05
2.32281e-05
2.88888e-05
3.80489e-05
5.42029e-05
8.07741e-05
0.000118035
0.000161521
0.000206845
0.000206859
0.000161582
0.000118231
8.10262e-05
5.44106e-05
3.8183e-05
2.89696e-05
2.32762e-05
1.98378e-05
1.7733e-05
1.64835e-05
1.57147e-05
1.52168e-05
1.48611e-05
1.47117e-05
1.68981e-05
1.78696e-05
2.00003e-05
2.29389e-05
2.79347e-05
3.67213e-05
5.30577e-05
8.22694e-05
0.000133045
0.000218174
0.000371443
0.000621405
0.000956572
0.00132103
0.00163213
0.00163259
0.00132209
0.000958808
0.000624005
0.000373569
0.000219492
0.000133825
8.27129e-05
5.32961e-05
3.68409e-05
2.79699e-05
2.29362e-05
1.99847e-05
1.78231e-05
1.68427e-05
4.06063e-05
6.52691e-05
0.000102184
0.000172061
0.000294362
0.000497239
0.000824768
0.00131822
0.00202086
0.00297684
0.00419448
0.005548
0.0068792
0.00801786
0.00882371
0.00882634
0.00802442
0.00689106
0.0055636
0.00421075
0.00299059
0.00203119
0.00132536
0.000829333
0.000500017
0.000295946
0.000172888
0.000102514
6.52774e-05
4.05042e-05
7.42831e-05
0.000115447
0.000196779
0.000329343
0.000548278
0.000899637
0.00141675
0.00214848
0.00314659
0.00443758
0.00601297
0.00768427
0.0091415
0.0102565
0.0110656
0.0110737
0.0102688
0.00916048
0.00770994
0.006042
0.00446247
0.00316574
0.00216205
0.00142552
0.000905356
0.000551608
0.00033115
0.000197509
0.000115536
7.40646e-05
0.000116698
0.000163136
0.000279527
0.000479858
0.000784007
0.00120201
0.00173949
0.00242813
0.00332744
0.00449362
0.00594698
0.00753175
0.00902772
0.0101768
0.0110357
0.0110469
0.0101956
0.00905005
0.0075604
0.00598332
0.00452732
0.00335218
0.00244653
0.00175253
0.0012108
0.000790009
0.000483781
0.000280964
0.000163374
0.000116663
0.000164148
0.000199357
0.000288859
0.000474818
0.000809146
0.00128661
0.00188459
0.00258418
0.00339385
0.00433288
0.00550221
0.00683968
0.00812717
0.00910872
0.00987115
0.00987912
0.00912805
0.0081586
0.00687568
0.00553866
0.00436495
0.00341938
0.00260441
0.00190094
0.00129834
0.000817275
0.000480014
0.000290318
0.000199336
0.000164509
0.000180609
0.000205092
0.000254031
0.000359947
0.000571215
0.000972529
0.00157977
0.00232568
0.00314666
0.00403014
0.00500517
0.00602837
0.007032
0.00775311
0.00829993
0.00830827
0.00777165
0.00706381
0.00606439
0.00503739
0.00405952
0.00317251
0.00234702
0.00159579
0.000984047
0.000577448
0.000363265
0.000255084
0.000205069
0.000180931
0.000168404
0.000185191
0.000206564
0.000253208
0.000347707
0.000532892
0.000878735
0.00148636
0.00227048
0.00321405
0.00430836
0.0053893
0.00629452
0.00687138
0.00723431
0.00724028
0.00688286
0.00631619
0.00541595
0.00433529
0.00323777
0.00229176
0.00150406
0.000889424
0.000539684
0.000351611
0.000255022
0.000206918
0.000185148
0.000168598
0.000147746
0.000158118
0.000165092
0.000181711
0.000214244
0.000275825
0.000396297
0.000635796
0.00104596
0.00175645
0.00282513
0.00408134
0.00524344
0.00605693
0.00654263
0.00654589
0.00606347
0.00526143
0.00410736
0.00284846
0.0017741
0.00105784
0.000643915
0.000401027
0.000278511
0.000216015
0.000182595
0.000165606
0.000158411
0.000147869
0.000128067
0.000133812
0.000135478
0.000140707
0.000150353
0.000167416
0.000198831
0.000260952
0.000378448
0.000620808
0.00115131
0.00211956
0.00327888
0.00432411
0.00509199
0.00509573
0.0043284
0.00328745
0.00213159
0.00116053
0.000625844
0.000381601
0.000263021
0.000200213
0.000168254
0.000151023
0.000141132
0.000135857
0.000134178
0.000128125
0.000112074
0.0001151
0.0001153
0.000117002
0.000119986
0.000124531
0.000132025
0.000145067
0.00016882
0.00021879
0.000344108
0.000659211
0.00125848
0.00203411
0.00278349
0.00278646
0.00203607
0.00126146
0.000662432
0.000346373
0.000220178
0.000169781
0.00014573
0.000132388
0.000124904
0.000120379
0.000117385
0.00011551
0.000115256
0.000112229
9.91703e-05
0.000100368
0.000100383
0.000101103
0.000102335
0.000103945
0.000106093
0.000108924
0.000113447
0.000122026
0.000142498
0.000195981
0.00032188
0.000562994
0.000879816
0.000880332
0.000563032
0.000322567
0.000196488
0.000142879
0.000122254
0.000113567
0.000109005
0.000106072
0.000104069
0.000102632
0.000101347
0.000100464
0.000100494
9.91902e-05
8.77714e-05
8.79772e-05
8.7687e-05
8.81813e-05
8.88832e-05
8.97214e-05
9.0561e-05
9.13834e-05
9.23037e-05
9.36735e-05
9.65741e-05
0.000103844
0.000120153
0.00015416
0.000207722
0.000207667
0.000154238
0.000120493
0.000104074
9.67131e-05
9.37139e-05
9.23754e-05
9.14861e-05
9.06726e-05
8.99375e-05
8.92295e-05
8.8415e-05
8.78748e-05
8.80149e-05
8.76794e-05
7.71601e-05
7.71046e-05
7.67313e-05
7.69901e-05
7.74737e-05
7.79288e-05
7.82501e-05
7.84739e-05
7.85502e-05
7.84913e-05
7.84209e-05
7.88432e-05
8.05082e-05
8.41488e-05
8.9725e-05
8.97014e-05
8.42718e-05
8.07312e-05
7.89544e-05
7.83836e-05
7.83653e-05
7.8534e-05
7.85842e-05
7.8394e-05
7.81279e-05
7.76793e-05
7.71464e-05
7.68216e-05
7.71225e-05
7.73848e-05
6.82671e-05
6.73035e-05
6.70281e-05
6.72967e-05
6.74463e-05
6.75692e-05
6.75979e-05
6.74702e-05
6.71103e-05
6.64615e-05
6.57129e-05
6.50701e-05
6.46082e-05
6.44187e-05
6.4595e-05
6.45897e-05
6.44307e-05
6.45999e-05
6.50665e-05
6.57417e-05
6.64611e-05
6.7108e-05
6.75027e-05
6.76071e-05
6.75837e-05
6.74493e-05
6.72744e-05
6.71507e-05
6.75379e-05
6.81374e-05
5.9549e-05
5.8908e-05
5.85437e-05
5.85298e-05
5.85359e-05
5.84553e-05
5.82434e-05
5.77876e-05
5.70959e-05
5.62387e-05
5.53173e-05
5.43494e-05
5.33748e-05
5.25978e-05
5.21424e-05
5.21609e-05
5.26658e-05
5.34368e-05
5.43988e-05
5.54349e-05
5.63964e-05
5.72131e-05
5.7827e-05
5.82794e-05
5.85576e-05
5.86441e-05
5.8635e-05
5.86629e-05
5.90937e-05
5.98195e-05
5.22853e-05
5.15809e-05
5.11835e-05
5.10405e-05
5.09488e-05
5.07088e-05
5.02964e-05
4.96785e-05
4.88592e-05
4.78775e-05
4.67885e-05
4.56593e-05
4.45765e-05
4.36831e-05
4.31092e-05
4.31087e-05
4.36962e-05
4.4602e-05
4.57085e-05
4.69009e-05
4.80221e-05
4.89978e-05
4.97757e-05
5.03583e-05
5.07598e-05
5.10119e-05
5.11454e-05
5.12542e-05
5.16533e-05
5.24154e-05
4.60513e-05
4.50695e-05
4.47085e-05
4.46305e-05
4.4434e-05
4.41013e-05
4.35585e-05
4.28507e-05
4.19928e-05
4.09731e-05
3.98401e-05
3.86863e-05
3.75936e-05
3.66811e-05
3.60878e-05
3.60613e-05
3.66394e-05
3.75919e-05
3.87447e-05
3.99432e-05
4.10664e-05
4.20645e-05
4.29359e-05
4.36301e-05
4.41275e-05
4.44475e-05
4.46322e-05
4.47885e-05
4.51864e-05
4.5984e-05
4.03041e-05
3.95285e-05
3.92578e-05
3.90682e-05
3.87736e-05
3.83696e-05
3.78403e-05
3.71785e-05
3.63192e-05
3.52703e-05
3.41595e-05
3.30626e-05
3.20181e-05
3.1125e-05
3.05515e-05
3.05456e-05
3.1113e-05
3.20168e-05
3.30905e-05
3.42313e-05
3.53522e-05
3.63741e-05
3.72488e-05
3.79352e-05
3.84402e-05
3.88061e-05
3.90741e-05
3.93097e-05
3.97047e-05
4.04809e-05
3.56947e-05
3.48913e-05
3.4628e-05
3.43884e-05
3.41037e-05
3.37038e-05
3.31732e-05
3.24736e-05
3.16073e-05
3.06542e-05
2.96664e-05
2.86348e-05
2.76124e-05
2.67475e-05
2.62216e-05
2.62359e-05
2.67657e-05
2.75978e-05
2.85982e-05
2.96812e-05
3.07501e-05
3.17155e-05
3.25312e-05
3.31917e-05
3.37211e-05
3.41452e-05
3.44704e-05
3.4718e-05
3.50483e-05
3.57542e-05
3.16087e-05
3.10783e-05
3.07712e-05
3.05501e-05
3.02387e-05
2.98306e-05
2.93093e-05
2.86567e-05
2.7896e-05
2.70491e-05
2.61036e-05
2.50947e-05
2.4145e-05
2.33946e-05
2.29574e-05
2.2975e-05
2.34387e-05
2.41842e-05
2.50998e-05
2.6097e-05
2.70762e-05
2.7958e-05
2.8706e-05
2.93307e-05
2.98551e-05
3.0282e-05
3.0594e-05
3.08106e-05
3.10851e-05
3.17305e-05
2.83461e-05
2.7809e-05
2.75181e-05
2.72693e-05
2.69668e-05
2.66054e-05
2.61333e-05
2.55579e-05
2.48791e-05
2.4077e-05
2.31775e-05
2.2269e-05
2.1454e-05
2.08084e-05
2.04128e-05
2.04069e-05
2.08134e-05
2.1495e-05
2.23354e-05
2.32337e-05
2.41014e-05
2.48854e-05
2.55677e-05
2.61558e-05
2.66528e-05
2.70471e-05
2.73297e-05
2.75294e-05
2.77745e-05
2.83551e-05
2.56e-05
2.49716e-05
2.4779e-05
2.45636e-05
2.43225e-05
2.39944e-05
2.35646e-05
2.30454e-05
2.24109e-05
2.16655e-05
2.08727e-05
2.00967e-05
1.93895e-05
1.88066e-05
1.84392e-05
1.84304e-05
1.88027e-05
1.94233e-05
2.01735e-05
2.09565e-05
2.1709e-05
2.24048e-05
2.30305e-05
2.35754e-05
2.40265e-05
2.43772e-05
2.46321e-05
2.48182e-05
2.5032e-05
2.55364e-05
2.30805e-05
2.26995e-05
2.25156e-05
2.23694e-05
2.21721e-05
2.18609e-05
2.14753e-05
2.1e-05
2.04215e-05
1.9777e-05
1.91107e-05
1.8444e-05
1.78092e-05
1.72748e-05
1.69425e-05
1.69415e-05
1.7277e-05
1.78221e-05
1.84715e-05
1.91474e-05
1.9805e-05
2.0425e-05
2.09883e-05
2.14741e-05
2.1869e-05
2.2174e-05
2.24e-05
2.25693e-05
2.27546e-05
2.31905e-05
2.1181e-05
2.08341e-05
2.0678e-05
2.05558e-05
2.03479e-05
2.0067e-05
1.97326e-05
1.93152e-05
1.88285e-05
1.82972e-05
1.77275e-05
1.71293e-05
1.65497e-05
1.60707e-05
1.57835e-05
1.5794e-05
1.60916e-05
1.65617e-05
1.71202e-05
1.77074e-05
1.8286e-05
1.8833e-05
1.93264e-05
1.97472e-05
2.0087e-05
2.03523e-05
2.05558e-05
2.07138e-05
2.08773e-05
2.12485e-05
1.96241e-05
1.92216e-05
1.91419e-05
1.9021e-05
1.88307e-05
1.86074e-05
1.832e-05
1.79636e-05
1.75588e-05
1.7104e-05
1.65968e-05
1.60645e-05
1.55641e-05
1.51624e-05
1.49244e-05
1.49377e-05
1.51891e-05
1.5583e-05
1.6057e-05
1.65642e-05
1.70704e-05
1.75482e-05
1.79755e-05
1.83381e-05
1.86335e-05
1.88689e-05
1.9054e-05
1.91978e-05
1.9335e-05
1.96377e-05
1.81826e-05
1.79697e-05
1.78854e-05
1.77664e-05
1.76178e-05
1.74263e-05
1.71662e-05
1.68598e-05
1.65118e-05
1.61111e-05
1.56685e-05
1.52198e-05
1.4805e-05
1.44651e-05
1.42528e-05
1.42524e-05
1.44594e-05
1.47961e-05
1.52094e-05
1.56561e-05
1.61008e-05
1.65157e-05
1.68833e-05
1.71959e-05
1.74542e-05
1.76627e-05
1.78257e-05
1.79474e-05
1.80548e-05
1.82962e-05
1.71398e-05
1.70052e-05
1.68921e-05
1.67773e-05
1.66434e-05
1.64534e-05
1.62195e-05
1.59574e-05
1.56568e-05
1.53129e-05
1.49434e-05
1.45727e-05
1.422e-05
1.39153e-05
1.37168e-05
1.37092e-05
1.3893e-05
1.41975e-05
1.45656e-05
1.49549e-05
1.5334e-05
1.56829e-05
1.59923e-05
1.62598e-05
1.64846e-05
1.66664e-05
1.68054e-05
1.69053e-05
1.69902e-05
1.71851e-05
1.6323e-05
1.61282e-05
1.6044e-05
1.59463e-05
1.58193e-05
1.56522e-05
1.54618e-05
1.52433e-05
1.4988e-05
1.47012e-05
1.43951e-05
1.40795e-05
1.37693e-05
1.34971e-05
1.3322e-05
1.33196e-05
1.34888e-05
1.37596e-05
1.40757e-05
1.44006e-05
1.47129e-05
1.50021e-05
1.52635e-05
1.54938e-05
1.56885e-05
1.58441e-05
1.59608e-05
1.6044e-05
1.61142e-05
1.62709e-05
1.55055e-05
1.53675e-05
1.53089e-05
1.52363e-05
1.51348e-05
1.50099e-05
1.48584e-05
1.46729e-05
1.44561e-05
1.42145e-05
1.39515e-05
1.36741e-05
1.3402e-05
1.31694e-05
1.30242e-05
1.30258e-05
1.31744e-05
1.34065e-05
1.36719e-05
1.39433e-05
1.42069e-05
1.44551e-05
1.46812e-05
1.48784e-05
1.50415e-05
1.51693e-05
1.5265e-05
1.53351e-05
1.53941e-05
1.55168e-05
1.48532e-05
1.4786e-05
1.47289e-05
1.46727e-05
1.45952e-05
1.44938e-05
1.43604e-05
1.41982e-05
1.40139e-05
1.38089e-05
1.35828e-05
1.33447e-05
1.31155e-05
1.29228e-05
1.28025e-05
1.28015e-05
1.29241e-05
1.31196e-05
1.33448e-05
1.35786e-05
1.38083e-05
1.40235e-05
1.42148e-05
1.43761e-05
1.45054e-05
1.46064e-05
1.4685e-05
1.47464e-05
1.47979e-05
1.48932e-05
1.43821e-05
1.42959e-05
1.42563e-05
1.42084e-05
1.41423e-05
1.40506e-05
1.3936e-05
1.38031e-05
1.36529e-05
1.34841e-05
1.32986e-05
1.31051e-05
1.29186e-05
1.27577e-05
1.26505e-05
1.26426e-05
1.27388e-05
1.28995e-05
1.30908e-05
1.32922e-05
1.34893e-05
1.36696e-05
1.38248e-05
1.39517e-05
1.40531e-05
1.4135e-05
1.42036e-05
1.42606e-05
1.43075e-05
1.4381e-05
1.39481e-05
1.38638e-05
1.3847e-05
1.38083e-05
1.37508e-05
1.36765e-05
1.359e-05
1.34881e-05
1.33677e-05
1.32301e-05
1.30801e-05
1.29248e-05
1.27718e-05
1.2633e-05
1.25352e-05
1.25229e-05
1.25973e-05
1.27274e-05
1.28888e-05
1.30602e-05
1.32254e-05
1.33736e-05
1.34992e-05
1.36013e-05
1.36853e-05
1.37569e-05
1.38191e-05
1.38708e-05
1.391e-05
1.39613e-05
1.35709e-05
1.35443e-05
1.35313e-05
1.34994e-05
1.34511e-05
1.33944e-05
1.3327e-05
1.32427e-05
1.31404e-05
1.30237e-05
1.28991e-05
1.27708e-05
1.26416e-05
1.25218e-05
1.24353e-05
1.24237e-05
1.24884e-05
1.25986e-05
1.2735e-05
1.28791e-05
1.30163e-05
1.31385e-05
1.32425e-05
1.33291e-05
1.3402e-05
1.34648e-05
1.35175e-05