/*--------------------------------*- C++ -*----------------------------------*\
| =========                 |                                                 |
| \\      /  F ield         | OpenFOAM: The Open Source CFD Toolbox           |
|  \\    /   O peration     | Version:  2312                                  |
|   \\  /    A nd           | Website:  www.openfoam.com                      |
|    \\/     M anipulation  |                                                 |
\*---------------------------------------------------------------------------*/
FoamFile
{
    version     2.0;
    format      ascii;
    arch        "LSB;label=32;scalar=64";
    class       volScalarField;
    location    "0.648989";
    object      k;
}
// * * * * * * * * * * * * * * * * * * * * * * * * * * * * * * * * * * * * * //

dimensions      [0 2 -2 0 0 0 0];

internalField   nonuniform List<scalar> 
90000
(
2.79168e-05
2.79179e-05
2.79184e-05
2.79186e-05
2.79187e-05
2.79188e-05
2.79187e-05
2.79186e-05
2.79185e-05
2.79184e-05
2.79184e-05
2.79184e-05
2.79185e-05
2.79185e-05
2.79185e-05
2.79186e-05
2.79189e-05
2.79191e-05
2.79193e-05
2.79192e-05
2.79189e-05
2.79184e-05
2.79183e-05
2.79188e-05
2.79195e-05
2.79199e-05
2.79199e-05
2.79196e-05
2.79195e-05
2.79199e-05
2.79177e-05
2.79577e-05
2.79595e-05
2.79596e-05
2.79595e-05
2.79596e-05
2.79596e-05
2.79597e-05
2.79598e-05
2.79599e-05
2.796e-05
2.796e-05
2.79601e-05
2.79601e-05
2.79601e-05
2.79602e-05
2.79601e-05
2.79601e-05
2.79599e-05
2.79598e-05
2.79598e-05
2.79599e-05
2.79599e-05
2.79599e-05
2.79596e-05
2.79593e-05
2.79595e-05
2.79603e-05
2.79583e-05
2.79243e-05
2.79184e-05
2.79603e-05
2.79622e-05
2.79622e-05
2.79621e-05
2.7962e-05
2.7962e-05
2.79621e-05
2.79622e-05
2.79622e-05
2.79622e-05
2.79621e-05
2.7962e-05
2.79621e-05
2.79621e-05
2.7962e-05
2.79618e-05
2.79618e-05
2.7962e-05
2.79622e-05
2.79625e-05
2.79626e-05
2.79626e-05
2.79627e-05
2.79629e-05
2.79632e-05
2.79634e-05
2.79636e-05
2.79615e-05
2.79224e-05
2.79189e-05
2.79608e-05
2.79629e-05
2.79629e-05
2.79629e-05
2.79627e-05
2.79626e-05
2.79625e-05
2.79625e-05
2.79625e-05
2.79624e-05
2.79621e-05
2.79619e-05
2.79619e-05
2.79618e-05
2.79617e-05
2.79617e-05
2.7962e-05
2.79623e-05
2.79626e-05
2.79627e-05
2.79628e-05
2.7963e-05
2.79635e-05
2.7964e-05
2.79641e-05
2.79639e-05
2.79635e-05
2.79617e-05
2.79195e-05
2.79195e-05
2.79612e-05
2.79634e-05
2.79635e-05
2.79635e-05
2.79634e-05
2.79632e-05
2.7963e-05
2.79628e-05
2.79626e-05
2.79623e-05
2.79621e-05
2.79618e-05
2.79615e-05
2.79613e-05
2.79614e-05
2.79618e-05
2.79621e-05
2.79624e-05
2.79625e-05
2.79626e-05
2.79628e-05
2.79632e-05
2.79637e-05
2.7964e-05
2.7964e-05
2.79635e-05
2.79625e-05
2.79616e-05
2.79192e-05
2.79199e-05
2.79615e-05
2.79637e-05
2.79638e-05
2.79638e-05
2.79637e-05
2.79636e-05
2.79633e-05
2.7963e-05
2.79626e-05
2.79622e-05
2.79619e-05
2.79617e-05
2.79615e-05
2.79615e-05
2.79615e-05
2.79618e-05
2.7962e-05
2.79622e-05
2.79624e-05
2.79626e-05
2.7963e-05
2.79633e-05
2.79634e-05
2.79633e-05
2.79633e-05
2.79636e-05
2.79636e-05
2.79626e-05
2.79201e-05
2.79202e-05
2.79619e-05
2.79639e-05
2.79639e-05
2.79639e-05
2.79639e-05
2.79638e-05
2.79636e-05
2.79632e-05
2.79627e-05
2.79621e-05
2.79618e-05
2.79617e-05
2.79617e-05
2.79617e-05
2.79617e-05
2.79617e-05
2.79618e-05
2.79621e-05
2.79625e-05
2.7963e-05
2.79632e-05
2.79632e-05
2.79631e-05
2.79633e-05
2.79638e-05
2.79646e-05
2.7965e-05
2.79634e-05
2.79209e-05
2.79205e-05
2.79622e-05
2.79639e-05
2.79639e-05
2.79639e-05
2.79639e-05
2.79639e-05
2.79638e-05
2.79635e-05
2.7963e-05
2.79625e-05
2.7962e-05
2.79619e-05
2.79619e-05
2.79619e-05
2.79619e-05
2.79618e-05
2.79619e-05
2.79623e-05
2.79628e-05
2.79632e-05
2.79633e-05
2.79632e-05
2.79634e-05
2.7964e-05
2.79648e-05
2.79655e-05
2.79659e-05
2.7964e-05
2.79216e-05
2.79208e-05
2.79623e-05
2.79641e-05
2.7964e-05
2.7964e-05
2.7964e-05
2.79641e-05
2.7964e-05
2.79639e-05
2.79635e-05
2.79631e-05
2.79627e-05
2.79623e-05
2.79622e-05
2.79622e-05
2.79623e-05
2.79625e-05
2.79628e-05
2.7963e-05
2.79633e-05
2.79633e-05
2.79633e-05
2.79635e-05
2.7964e-05
2.79647e-05
2.79655e-05
2.79661e-05
2.79664e-05
2.79643e-05
2.79223e-05
2.79213e-05
2.79625e-05
2.79643e-05
2.79643e-05
2.79641e-05
2.79641e-05
2.79642e-05
2.79642e-05
2.79642e-05
2.7964e-05
2.79638e-05
2.79634e-05
2.7963e-05
2.79625e-05
2.79624e-05
2.79628e-05
2.79634e-05
2.79638e-05
2.7964e-05
2.7964e-05
2.79638e-05
2.79637e-05
2.79639e-05
2.79644e-05
2.79651e-05
2.79658e-05
2.79664e-05
2.79666e-05
2.79646e-05
2.79228e-05
2.79221e-05
2.79628e-05
2.79648e-05
2.79647e-05
2.79645e-05
2.79644e-05
2.79643e-05
2.79643e-05
2.79643e-05
2.79643e-05
2.79642e-05
2.7964e-05
2.79635e-05
2.79629e-05
2.79626e-05
2.7963e-05
2.79636e-05
2.79642e-05
2.79645e-05
2.79645e-05
2.79643e-05
2.79641e-05
2.79642e-05
2.79646e-05
2.79653e-05
2.7966e-05
2.79665e-05
2.79668e-05
2.79648e-05
2.7923e-05
2.79229e-05
2.79635e-05
2.79655e-05
2.79655e-05
2.79654e-05
2.79653e-05
2.79651e-05
2.79648e-05
2.79647e-05
2.79645e-05
2.79644e-05
2.79643e-05
2.79639e-05
2.79634e-05
2.79627e-05
2.79628e-05
2.79634e-05
2.7964e-05
2.79643e-05
2.79644e-05
2.79643e-05
2.79641e-05
2.79643e-05
2.79648e-05
2.79655e-05
2.79662e-05
2.79666e-05
2.79669e-05
2.79648e-05
2.79233e-05
2.79238e-05
2.79647e-05
2.79667e-05
2.79668e-05
2.79668e-05
2.79668e-05
2.79666e-05
2.79662e-05
2.79657e-05
2.79651e-05
2.79647e-05
2.79644e-05
2.79641e-05
2.79637e-05
2.79632e-05
2.79629e-05
2.79632e-05
2.79634e-05
2.79636e-05
2.79637e-05
2.79639e-05
2.79642e-05
2.79647e-05
2.79653e-05
2.79659e-05
2.79665e-05
2.79669e-05
2.79671e-05
2.79651e-05
2.79238e-05
2.79247e-05
2.79662e-05
2.79682e-05
2.79683e-05
2.79684e-05
2.79683e-05
2.79681e-05
2.79676e-05
2.79668e-05
2.79658e-05
2.7965e-05
2.79644e-05
2.79642e-05
2.7964e-05
2.79637e-05
2.79635e-05
2.79635e-05
2.79634e-05
2.79634e-05
2.79637e-05
2.79642e-05
2.79649e-05
2.79655e-05
2.79661e-05
2.79666e-05
2.79671e-05
2.79675e-05
2.79677e-05
2.79658e-05
2.7925e-05
2.79261e-05
2.79678e-05
2.79699e-05
2.797e-05
2.797e-05
2.79697e-05
2.79692e-05
2.79685e-05
2.79675e-05
2.79664e-05
2.79653e-05
2.79645e-05
2.79642e-05
2.79641e-05
2.79641e-05
2.7964e-05
2.7964e-05
2.7964e-05
2.79643e-05
2.79648e-05
2.79655e-05
2.79662e-05
2.79668e-05
2.79673e-05
2.79678e-05
2.79681e-05
2.79685e-05
2.79689e-05
2.79672e-05
2.79267e-05
2.79277e-05
2.797e-05
2.79719e-05
2.79718e-05
2.79714e-05
2.79708e-05
2.79699e-05
2.79689e-05
2.79679e-05
2.79669e-05
2.79659e-05
2.79649e-05
2.79643e-05
2.79642e-05
2.79641e-05
2.79642e-05
2.79645e-05
2.79649e-05
2.79655e-05
2.79663e-05
2.7967e-05
2.79677e-05
2.79683e-05
2.79688e-05
2.79692e-05
2.79697e-05
2.79702e-05
2.79709e-05
2.79696e-05
2.79287e-05
2.79298e-05
2.79727e-05
2.79742e-05
2.79737e-05
2.79729e-05
2.79719e-05
2.79707e-05
2.79696e-05
2.79686e-05
2.79677e-05
2.79667e-05
2.79656e-05
2.79648e-05
2.79643e-05
2.7964e-05
2.79642e-05
2.79649e-05
2.79657e-05
2.79666e-05
2.79676e-05
2.79684e-05
2.79692e-05
2.79698e-05
2.79704e-05
2.79709e-05
2.79717e-05
2.79726e-05
2.79735e-05
2.79721e-05
2.79307e-05
2.79325e-05
2.79753e-05
2.79766e-05
2.79759e-05
2.79749e-05
2.79736e-05
2.79723e-05
2.79711e-05
2.797e-05
2.7969e-05
2.79678e-05
2.79666e-05
2.79654e-05
2.79645e-05
2.79639e-05
2.79641e-05
2.79651e-05
2.79663e-05
2.79676e-05
2.79688e-05
2.79698e-05
2.79707e-05
2.79714e-05
2.79722e-05
2.79731e-05
2.79741e-05
2.79753e-05
2.79761e-05
2.79742e-05
2.79327e-05
2.79358e-05
2.79781e-05
2.79793e-05
2.79785e-05
2.79774e-05
2.79762e-05
2.79748e-05
2.79735e-05
2.79721e-05
2.79707e-05
2.79692e-05
2.79677e-05
2.79661e-05
2.79647e-05
2.79637e-05
2.79639e-05
2.79652e-05
2.79669e-05
2.79685e-05
2.797e-05
2.79713e-05
2.79724e-05
2.79733e-05
2.79745e-05
2.79758e-05
2.79771e-05
2.79781e-05
2.79785e-05
2.79764e-05
2.79351e-05
2.79398e-05
2.79812e-05
2.79825e-05
2.79817e-05
2.79806e-05
2.79793e-05
2.79779e-05
2.79764e-05
2.79747e-05
2.79729e-05
2.7971e-05
2.7969e-05
2.7967e-05
2.79651e-05
2.79637e-05
2.79639e-05
2.79655e-05
2.79676e-05
2.79696e-05
2.79714e-05
2.7973e-05
2.79745e-05
2.7976e-05
2.79776e-05
2.79791e-05
2.79803e-05
2.7981e-05
2.79812e-05
2.79792e-05
2.79381e-05
2.79444e-05
2.7985e-05
2.79864e-05
2.79855e-05
2.79843e-05
2.7983e-05
2.79815e-05
2.79797e-05
2.79778e-05
2.79756e-05
2.79732e-05
2.79707e-05
2.79683e-05
2.7966e-05
2.79642e-05
2.79644e-05
2.79663e-05
2.79688e-05
2.79712e-05
2.79734e-05
2.79755e-05
2.79775e-05
2.79795e-05
2.79814e-05
2.7983e-05
2.7984e-05
2.79846e-05
2.79849e-05
2.79831e-05
2.79422e-05
2.79499e-05
2.79899e-05
2.79913e-05
2.79904e-05
2.79891e-05
2.79876e-05
2.79858e-05
2.79838e-05
2.79814e-05
2.79788e-05
2.7976e-05
2.7973e-05
2.79701e-05
2.79674e-05
2.79654e-05
2.79655e-05
2.79677e-05
2.79705e-05
2.79734e-05
2.79762e-05
2.79789e-05
2.79815e-05
2.7984e-05
2.79861e-05
2.79876e-05
2.79888e-05
2.79895e-05
2.79901e-05
2.79885e-05
2.79481e-05
2.79565e-05
2.79961e-05
2.79975e-05
2.79964e-05
2.7995e-05
2.79932e-05
2.79911e-05
2.79887e-05
2.79859e-05
2.79828e-05
2.79795e-05
2.7976e-05
2.79726e-05
2.79694e-05
2.7967e-05
2.79671e-05
2.79696e-05
2.79729e-05
2.79765e-05
2.798e-05
2.79834e-05
2.79866e-05
2.79894e-05
2.79918e-05
2.79935e-05
2.79949e-05
2.79961e-05
2.7997e-05
2.79958e-05
2.79558e-05
2.79645e-05
2.80039e-05
2.80053e-05
2.80041e-05
2.80024e-05
2.80002e-05
2.79977e-05
2.79948e-05
2.79915e-05
2.79878e-05
2.79839e-05
2.79799e-05
2.79758e-05
2.7972e-05
2.79691e-05
2.79691e-05
2.79721e-05
2.79761e-05
2.79804e-05
2.79847e-05
2.79888e-05
2.79926e-05
2.79959e-05
2.79986e-05
2.80007e-05
2.80026e-05
2.80043e-05
2.80057e-05
2.80048e-05
2.79649e-05
2.79743e-05
2.80136e-05
2.80149e-05
2.80134e-05
2.80114e-05
2.80089e-05
2.80059e-05
2.80024e-05
2.79985e-05
2.79941e-05
2.79895e-05
2.79848e-05
2.79799e-05
2.79753e-05
2.79718e-05
2.79717e-05
2.79752e-05
2.79799e-05
2.7985e-05
2.79901e-05
2.7995e-05
2.79995e-05
2.80033e-05
2.80064e-05
2.80091e-05
2.80116e-05
2.8014e-05
2.80159e-05
2.80149e-05
2.79748e-05
2.79864e-05
2.80256e-05
2.80267e-05
2.8025e-05
2.80227e-05
2.80198e-05
2.80161e-05
2.80119e-05
2.80072e-05
2.8002e-05
2.79965e-05
2.79907e-05
2.79847e-05
2.79791e-05
2.79749e-05
2.79748e-05
2.79787e-05
2.79843e-05
2.79904e-05
2.79966e-05
2.80024e-05
2.80076e-05
2.8012e-05
2.80158e-05
2.80193e-05
2.80225e-05
2.80254e-05
2.80274e-05
2.80263e-05
2.79863e-05
2.80011e-05
2.80403e-05
2.80412e-05
2.80393e-05
2.80366e-05
2.8033e-05
2.80286e-05
2.80235e-05
2.80179e-05
2.80116e-05
2.80049e-05
2.79977e-05
2.79905e-05
2.79837e-05
2.79787e-05
2.79785e-05
2.79832e-05
2.79899e-05
2.79973e-05
2.80047e-05
2.80115e-05
2.80176e-05
2.80229e-05
2.80278e-05
2.80323e-05
2.80362e-05
2.80393e-05
2.80413e-05
2.80401e-05
2.80008e-05
2.80191e-05
2.80584e-05
2.80591e-05
2.80567e-05
2.80533e-05
2.8049e-05
2.80437e-05
2.80377e-05
2.80308e-05
2.80233e-05
2.80151e-05
2.80065e-05
2.79978e-05
2.79898e-05
2.79839e-05
2.79837e-05
2.79894e-05
2.79975e-05
2.80064e-05
2.80152e-05
2.80232e-05
2.80306e-05
2.80372e-05
2.80433e-05
2.80488e-05
2.80533e-05
2.80564e-05
2.80585e-05
2.80578e-05
2.80191e-05
2.80411e-05
2.80803e-05
2.80805e-05
2.80776e-05
2.80735e-05
2.80683e-05
2.8062e-05
2.80548e-05
2.80466e-05
2.80376e-05
2.80278e-05
2.80175e-05
2.80073e-05
2.79979e-05
2.79911e-05
2.79911e-05
2.79978e-05
2.80075e-05
2.8018e-05
2.80283e-05
2.80379e-05
2.80468e-05
2.8055e-05
2.80625e-05
2.80688e-05
2.80737e-05
2.80772e-05
2.80799e-05
2.80799e-05
2.80414e-05
2.80679e-05
2.81065e-05
2.81063e-05
2.81027e-05
2.80978e-05
2.80916e-05
2.80843e-05
2.80757e-05
2.8066e-05
2.80552e-05
2.80437e-05
2.80316e-05
2.80195e-05
2.80085e-05
2.80007e-05
2.80008e-05
2.80086e-05
2.80198e-05
2.80321e-05
2.80442e-05
2.80556e-05
2.80665e-05
2.80765e-05
2.80853e-05
2.80926e-05
2.80982e-05
2.81026e-05
2.81062e-05
2.81065e-05
2.80682e-05
2.81e-05
2.81381e-05
2.81373e-05
2.8133e-05
2.81272e-05
2.812e-05
2.81113e-05
2.81012e-05
2.80898e-05
2.80771e-05
2.80634e-05
2.80491e-05
2.80348e-05
2.80219e-05
2.8013e-05
2.8013e-05
2.8022e-05
2.80349e-05
2.80491e-05
2.80634e-05
2.80772e-05
2.80902e-05
2.81022e-05
2.81124e-05
2.81209e-05
2.81279e-05
2.81336e-05
2.81379e-05
2.81385e-05
2.81006e-05
2.81386e-05
2.8176e-05
2.81747e-05
2.81697e-05
2.81628e-05
2.81544e-05
2.81443e-05
2.81324e-05
2.81189e-05
2.81039e-05
2.80877e-05
2.80707e-05
2.80538e-05
2.80387e-05
2.80285e-05
2.80285e-05
2.80387e-05
2.80536e-05
2.80701e-05
2.8087e-05
2.81035e-05
2.81189e-05
2.81329e-05
2.81448e-05
2.81549e-05
2.81637e-05
2.81707e-05
2.81757e-05
2.81769e-05
2.81397e-05
2.81849e-05
2.82215e-05
2.82197e-05
2.82138e-05
2.82059e-05
2.81961e-05
2.81842e-05
2.81702e-05
2.81542e-05
2.81365e-05
2.81173e-05
2.80972e-05
2.80775e-05
2.80601e-05
2.80484e-05
2.80484e-05
2.806e-05
2.80771e-05
2.80963e-05
2.81162e-05
2.81356e-05
2.81535e-05
2.81697e-05
2.81837e-05
2.81959e-05
2.82064e-05
2.82145e-05
2.82205e-05
2.82224e-05
2.81858e-05
2.82402e-05
2.8276e-05
2.82736e-05
2.82668e-05
2.82577e-05
2.82461e-05
2.82321e-05
2.82156e-05
2.81969e-05
2.8176e-05
2.81536e-05
2.81303e-05
2.81075e-05
2.80876e-05
2.80744e-05
2.80744e-05
2.80874e-05
2.8107e-05
2.81293e-05
2.81524e-05
2.81749e-05
2.81957e-05
2.82144e-05
2.8231e-05
2.82454e-05
2.82576e-05
2.82669e-05
2.82739e-05
2.82763e-05
2.82403e-05
2.83059e-05
2.83407e-05
2.83377e-05
2.83299e-05
2.83193e-05
2.83059e-05
2.82895e-05
2.82704e-05
2.82487e-05
2.82247e-05
2.81988e-05
2.8172e-05
2.8146e-05
2.81234e-05
2.81084e-05
2.81084e-05
2.81232e-05
2.81456e-05
2.81714e-05
2.81981e-05
2.82239e-05
2.82477e-05
2.82695e-05
2.82888e-05
2.83053e-05
2.83192e-05
2.83298e-05
2.83375e-05
2.834e-05
2.83054e-05
2.83837e-05
2.84172e-05
2.84136e-05
2.84047e-05
2.83926e-05
2.83773e-05
2.83586e-05
2.83369e-05
2.83122e-05
2.82848e-05
2.82553e-05
2.82248e-05
2.81954e-05
2.81699e-05
2.81531e-05
2.81532e-05
2.81701e-05
2.81956e-05
2.82251e-05
2.82554e-05
2.82848e-05
2.83119e-05
2.83367e-05
2.83586e-05
2.83773e-05
2.83928e-05
2.84046e-05
2.84128e-05
2.84157e-05
2.83828e-05
2.84754e-05
2.85072e-05
2.85031e-05
2.84933e-05
2.84798e-05
2.84628e-05
2.8442e-05
2.84177e-05
2.83899e-05
2.83591e-05
2.83258e-05
2.82916e-05
2.82587e-05
2.82304e-05
2.82117e-05
2.82119e-05
2.82309e-05
2.82595e-05
2.82926e-05
2.83267e-05
2.83598e-05
2.83903e-05
2.84183e-05
2.84427e-05
2.84634e-05
2.84805e-05
2.84932e-05
2.85022e-05
2.85059e-05
2.84744e-05
2.85831e-05
2.86129e-05
2.86085e-05
2.85979e-05
2.85835e-05
2.8565e-05
2.85423e-05
2.85155e-05
2.84846e-05
2.84504e-05
2.84137e-05
2.8376e-05
2.83395e-05
2.83081e-05
2.82873e-05
2.82874e-05
2.83082e-05
2.83399e-05
2.83768e-05
2.84147e-05
2.84517e-05
2.84856e-05
2.85166e-05
2.85436e-05
2.85662e-05
2.85845e-05
2.85984e-05
2.86085e-05
2.86127e-05
2.8583e-05
2.87088e-05
2.87364e-05
2.8732e-05
2.87212e-05
2.87061e-05
2.86865e-05
2.86621e-05
2.8633e-05
2.85996e-05
2.85626e-05
2.85227e-05
2.84814e-05
2.84411e-05
2.84062e-05
2.83831e-05
2.8383e-05
2.84059e-05
2.84407e-05
2.84811e-05
2.85225e-05
2.8563e-05
2.85999e-05
2.86337e-05
2.8663e-05
2.86871e-05
2.87065e-05
2.87216e-05
2.87325e-05
2.8737e-05
2.87097e-05
2.88547e-05
2.88801e-05
2.88763e-05
2.88658e-05
2.88507e-05
2.88305e-05
2.88051e-05
2.87746e-05
2.87393e-05
2.86999e-05
2.86568e-05
2.8612e-05
2.85682e-05
2.85302e-05
2.85048e-05
2.85045e-05
2.85293e-05
2.85668e-05
2.86104e-05
2.8655e-05
2.86986e-05
2.87381e-05
2.87741e-05
2.88047e-05
2.88296e-05
2.88498e-05
2.88655e-05
2.88765e-05
2.8881e-05
2.88559e-05
2.9024e-05
2.90472e-05
2.90444e-05
2.90347e-05
2.90202e-05
2.90007e-05
2.89755e-05
2.89445e-05
2.89083e-05
2.88671e-05
2.88219e-05
2.87746e-05
2.8728e-05
2.86872e-05
2.86598e-05
2.86594e-05
2.86861e-05
2.87265e-05
2.87732e-05
2.88202e-05
2.88656e-05
2.89066e-05
2.89434e-05
2.89744e-05
2.89992e-05
2.90192e-05
2.90342e-05
2.90442e-05
2.90484e-05
2.90251e-05
2.92199e-05
2.92417e-05
2.92397e-05
2.92314e-05
2.92188e-05
2.92013e-05
2.91777e-05
2.91476e-05
2.91118e-05
2.90707e-05
2.90249e-05
2.89763e-05
2.89279e-05
2.88852e-05
2.8857e-05
2.8857e-05
2.88855e-05
2.89278e-05
2.89758e-05
2.90239e-05
2.90698e-05
2.91109e-05
2.91468e-05
2.91765e-05
2.91999e-05
2.9218e-05
2.92308e-05
2.92397e-05
2.92427e-05
2.92208e-05
2.94466e-05
2.94659e-05
2.9466e-05
2.94605e-05
2.94508e-05
2.94367e-05
2.94171e-05
2.93905e-05
2.93575e-05
2.93184e-05
2.92741e-05
2.92258e-05
2.91778e-05
2.9135e-05
2.91064e-05
2.91062e-05
2.91352e-05
2.91783e-05
2.92264e-05
2.92744e-05
2.93184e-05
2.93573e-05
2.93901e-05
2.94162e-05
2.9436e-05
2.94503e-05
2.94602e-05
2.94666e-05
2.94669e-05
2.94467e-05
2.97061e-05
2.97232e-05
2.97273e-05
2.97265e-05
2.97225e-05
2.97141e-05
2.97011e-05
2.96811e-05
2.96539e-05
2.96202e-05
2.9581e-05
2.95363e-05
2.94902e-05
2.9448e-05
2.94198e-05
2.94199e-05
2.94485e-05
2.94909e-05
2.9537e-05
2.9582e-05
2.9621e-05
2.9654e-05
2.96808e-05
2.97002e-05
2.97137e-05
2.97221e-05
2.97262e-05
2.97277e-05
2.97238e-05
2.97062e-05
2.99999e-05
3.00163e-05
3.00269e-05
3.00338e-05
3.00398e-05
3.00413e-05
3.00384e-05
3.00295e-05
3.00131e-05
2.99906e-05
2.99615e-05
2.99258e-05
2.98874e-05
2.98515e-05
2.98284e-05
2.98286e-05
2.9852e-05
2.98882e-05
2.99265e-05
2.99621e-05
2.99915e-05
3.00135e-05
3.00295e-05
3.00377e-05
3.00409e-05
3.00394e-05
3.00339e-05
3.00273e-05
3.0016e-05
2.99998e-05
3.03358e-05
3.03568e-05
3.03781e-05
3.03971e-05
3.04193e-05
3.04386e-05
3.0456e-05
3.0468e-05
3.04736e-05
3.04796e-05
3.04838e-05
3.04894e-05
3.05087e-05
3.05379e-05
3.05783e-05
3.05786e-05
3.05383e-05
3.05088e-05
3.04898e-05
3.04845e-05
3.04803e-05
3.04738e-05
3.0468e-05
3.04554e-05
3.04381e-05
3.04189e-05
3.03977e-05
3.03784e-05
3.0357e-05
3.03358e-05
3.07444e-05
3.07797e-05
3.0823e-05
3.08687e-05
3.09214e-05
3.0987e-05
3.10608e-05
3.11533e-05
3.12634e-05
3.14354e-05
3.17151e-05
3.21283e-05
3.27212e-05
3.34891e-05
3.42834e-05
3.42834e-05
3.34897e-05
3.27222e-05
3.21303e-05
3.17178e-05
3.14376e-05
3.12648e-05
3.11537e-05
3.10603e-05
3.09867e-05
3.0921e-05
3.08691e-05
3.08226e-05
3.07793e-05
3.07441e-05
3.12955e-05
3.13632e-05
3.1477e-05
3.1621e-05
3.18126e-05
3.21015e-05
3.25226e-05
3.31645e-05
3.4119e-05
3.56897e-05
3.84764e-05
4.27424e-05
4.82747e-05
5.49793e-05
6.16727e-05
6.16728e-05
5.4984e-05
4.82929e-05
4.27725e-05
3.85056e-05
3.57102e-05
3.41325e-05
3.31725e-05
3.25262e-05
3.21022e-05
3.18113e-05
3.16195e-05
3.1475e-05
3.13611e-05
3.12922e-05
3.22571e-05
3.246e-05
3.29558e-05
3.36569e-05
3.47403e-05
3.64787e-05
3.93452e-05
4.38509e-05
5.09201e-05
6.16191e-05
8.01938e-05
0.000108234
0.000142788
0.000178389
0.00021102
0.000211038
0.000178441
0.000142951
0.000108465
8.04032e-05
6.17662e-05
5.10169e-05
4.39121e-05
3.9379e-05
3.64915e-05
3.47387e-05
3.36497e-05
3.29472e-05
3.2445e-05
3.22372e-05
3.51818e-05
3.67468e-05
3.96458e-05
4.35728e-05
5.00081e-05
6.06405e-05
7.83099e-05
0.000105863
0.000147027
0.000206944
0.000300811
0.000431653
0.000576158
0.000711251
0.000813598
0.000813766
0.000711632
0.000577004
0.000432783
0.000301899
0.000207772
0.000147603
0.000106246
7.85477e-05
6.07749e-05
5.00559e-05
4.35734e-05
3.96272e-05
3.66892e-05
3.51105e-05
6.4248e-05
9.05147e-05
0.00012447
0.000179291
0.000259188
0.000369033
0.000515193
0.000699579
0.000922565
0.00118214
0.00146213
0.00173129
0.0019713
0.00216076
0.00228732
0.00228777
0.00216186
0.0019734
0.00173424
0.00146554
0.00118545
0.000925457
0.000701935
0.000516985
0.000370333
0.000260081
0.000179856
0.000124757
9.05493e-05
6.4161e-05
9.1754e-05
0.000126122
0.000181675
0.000258544
0.000366654
0.000512405
0.000693025
0.00091154
0.00116689
0.00144411
0.00173731
0.00201688
0.00224386
0.00241082
0.00252592
0.00252711
0.0024126
0.00224659
0.00202113
0.00174255
0.0014492
0.00117142
0.000915151
0.000695723
0.000514489
0.000368106
0.000259478
0.000182173
0.000126199
9.15918e-05
0.000125228
0.000159883
0.000230853
0.000330878
0.000458405
0.00060872
0.000777407
0.000967771
0.00118644
0.00143746
0.00171262
0.00198685
0.00224766
0.0024472
0.00257841
0.00257938
0.00244949
0.00225094
0.00199185
0.00171966
0.00144459
0.00119224
0.000972352
0.000781018
0.000611587
0.000460519
0.000332542
0.000231624
0.000160039
0.000125175
0.000163813
0.000189353
0.000245729
0.000342028
0.000479975
0.000643958
0.000819232
0.000999417
0.00118551
0.00138052
0.00160794
0.0018551
0.00207871
0.00224258
0.00236479
0.00236527
0.00224519
0.00208341
0.00186083
0.00161511
0.00138744
0.00119121
0.00100461
0.000823784
0.000647581
0.000482938
0.000344307
0.000246529
0.000189436
0.000163997
0.00018159
0.000199993
0.000231807
0.000291295
0.000390431
0.000545128
0.000734666
0.00093331
0.0011254
0.00130872
0.0014969
0.00168587
0.00186358
0.0019871
0.00207746
0.00207851
0.00198957
0.00186875
0.00169228
0.00150312
0.00131524
0.00113134
0.000938677
0.000739521
0.000548962
0.000393204
0.000292917
0.000232247
0.000200031
0.000181848
0.000174484
0.000188523
0.000203206
0.00023226
0.000284033
0.000370289
0.000504875
0.000702038
0.000913937
0.00113631
0.00136705
0.00157143
0.00173343
0.00183114
0.00189005
0.00189104
0.00183268
0.00173706
0.00157662
0.00137279
0.00114191
0.000919577
0.000707356
0.000508893
0.000373356
0.000285955
0.000233373
0.000203475
0.000188553
0.0001747
0.00015852
0.000168191
0.000173293
0.000184531
0.000205088
0.000240186
0.00030044
0.000403053
0.000550278
0.000767793
0.00104482
0.00132569
0.00155723
0.00170428
0.00178451
0.00178511
0.00170526
0.00156004
0.0013311
0.00105061
0.000772654
0.000554332
0.000406345
0.000302728
0.000241792
0.000206186
0.000185137
0.000173613
0.00016841
0.000158653
0.000142096
0.000148057
0.000149055
0.000152604
0.000159002
0.000170108
0.000189115
0.000223602
0.000281625
0.000384567
0.000577372
0.000870248
0.00115898
0.00138577
0.00153641
0.00153719
0.00138677
0.00116098
0.000873273
0.000580564
0.00038666
0.000283075
0.000224866
0.000190029
0.000170702
0.000159575
0.00015285
0.000149366
0.00014838
0.000142164
0.000128296
0.000131796
0.000131624
0.000132435
0.000134379
0.000137196
0.000141914
0.000150113
0.000164085
0.00019301
0.00025831
0.000397107
0.000618989
0.000855858
0.00104991
0.00105041
0.000856172
0.000619852
0.000398277
0.000259309
0.000193767
0.000164685
0.000150548
0.000142234
0.000137484
0.000134648
0.000132786
0.000131807
0.000131936
0.000128408
0.000117006
0.000118764
0.000118541
0.000118684
0.000119324
0.000120103
0.000121348
0.000123021
0.000125894
0.000131797
0.000145578
0.000179036
0.000247886
0.000360333
0.000489348
0.000489618
0.000360333
0.000248111
0.00017928
0.000145794
0.000131943
0.000125999
0.000123081
0.000121358
0.000120267
0.000119546
0.000118913
0.000118562
0.000118871
0.000117058
0.000107018
0.000107684
0.000107181
0.000107496
0.000107635
0.000108075
0.000108501
0.000108884
0.000109517
0.000110555
0.000112811
0.000118331
0.000130189
0.00015321
0.000185791
0.000185801
0.000153289
0.000130415
0.000118463
0.000112903
0.000110595
0.000109581
0.00010899
0.000108611
0.000108296
0.000107979
0.000107569
0.000107403
0.000107755
0.000106944
9.75387e-05
9.792e-05
9.74532e-05
9.74082e-05
9.76495e-05
9.79008e-05
9.80127e-05
9.81327e-05
9.82327e-05
9.82363e-05
9.8282e-05
9.87365e-05
0.000100135
0.000103066
0.000107476
0.000107499
0.000103205
0.000100304
9.88038e-05
9.82648e-05
9.8161e-05
9.82141e-05
9.82289e-05
9.81543e-05
9.80434e-05
9.78245e-05
9.75648e-05
9.74948e-05
9.79065e-05
9.77359e-05
8.94032e-05
8.88449e-05
8.85377e-05
8.85409e-05
8.86674e-05
8.86508e-05
8.8622e-05
8.85486e-05
8.82817e-05
8.78314e-05
8.73481e-05
8.68975e-05
8.65388e-05
8.63972e-05
8.65702e-05
8.65832e-05
8.64508e-05
8.65739e-05
8.69108e-05
8.73819e-05
8.78689e-05
8.83123e-05
8.85834e-05
8.86534e-05
8.86851e-05
8.86441e-05
8.85947e-05
8.86036e-05
8.90646e-05
8.93231e-05
8.14042e-05
8.0962e-05
8.04778e-05
8.04957e-05
8.03637e-05
8.02614e-05
8.01137e-05
7.97721e-05
7.92367e-05
7.8589e-05
7.78521e-05
7.70251e-05
7.61689e-05
7.5476e-05
7.50674e-05
7.50939e-05
7.55612e-05
7.62464e-05
7.70789e-05
7.79589e-05
7.87504e-05
7.93802e-05
7.98273e-05
8.01487e-05
8.03716e-05
8.04647e-05
8.05171e-05
8.06315e-05
8.11227e-05
8.15873e-05
7.4294e-05
7.38765e-05
7.34035e-05
7.32213e-05
7.30865e-05
7.29244e-05
7.25935e-05
7.20822e-05
7.14093e-05
7.05772e-05
6.96061e-05
6.857e-05
6.756e-05
6.67037e-05
6.61359e-05
6.61326e-05
6.67112e-05
6.75837e-05
6.86184e-05
6.96962e-05
7.06742e-05
7.15033e-05
7.2147e-05
7.26217e-05
7.29505e-05
7.31795e-05
7.33216e-05
7.3474e-05
7.39215e-05
7.44944e-05
6.827e-05
6.7318e-05
6.6979e-05
6.67851e-05
6.66497e-05
6.63549e-05
6.58748e-05
6.52729e-05
6.45077e-05
6.35464e-05
6.24522e-05
6.13373e-05
6.02613e-05
5.9325e-05
5.8695e-05
5.86655e-05
5.9272e-05
6.02421e-05
6.13835e-05
6.25478e-05
6.3628e-05
6.45766e-05
6.53822e-05
6.59859e-05
6.63895e-05
6.66529e-05
6.68348e-05
6.70203e-05
6.74566e-05
6.8128e-05
6.23472e-05
6.15838e-05
6.12603e-05
6.10967e-05
6.085e-05
6.04652e-05
5.99916e-05
5.93767e-05
5.85233e-05
5.74552e-05
5.633e-05
5.52101e-05
5.41042e-05
5.31197e-05
5.24809e-05
5.24858e-05
5.31242e-05
5.41045e-05
5.5239e-05
5.64279e-05
5.75778e-05
5.85982e-05
5.94383e-05
6.00726e-05
6.05257e-05
6.08613e-05
6.11256e-05
6.13653e-05
6.17817e-05
6.25317e-05
5.75589e-05
5.6691e-05
5.63492e-05
5.61502e-05
5.58587e-05
5.54661e-05
5.49548e-05
5.42442e-05
5.33324e-05
5.23205e-05
5.12616e-05
5.01233e-05
4.89583e-05
4.79598e-05
4.73603e-05
4.73944e-05
4.80131e-05
4.89526e-05
5.00636e-05
5.12567e-05
5.24222e-05
5.34541e-05
5.43019e-05
5.49703e-05
5.54971e-05
5.59087e-05
5.62141e-05
5.6446e-05
5.67946e-05
5.76463e-05
5.32189e-05
5.23932e-05
5.20777e-05
5.18638e-05
5.15456e-05
5.11406e-05
5.06049e-05
4.99038e-05
4.9068e-05
4.81208e-05
4.70372e-05
4.58524e-05
4.47221e-05
4.38282e-05
4.33091e-05
4.33339e-05
4.38885e-05
4.47737e-05
4.58574e-05
4.70288e-05
4.81601e-05
4.91527e-05
4.99683e-05
5.06301e-05
5.11759e-05
5.16133e-05
5.19239e-05
5.21343e-05
5.24269e-05
5.33102e-05
4.94778e-05
4.86745e-05
4.84e-05
4.81408e-05
4.78164e-05
4.74245e-05
4.68929e-05
4.62346e-05
4.54491e-05
4.45042e-05
4.34234e-05
4.23173e-05
4.13195e-05
4.05216e-05
4.00219e-05
4.00053e-05
4.05115e-05
4.13672e-05
4.2415e-05
4.35155e-05
4.45513e-05
4.54616e-05
4.62365e-05
4.68958e-05
4.74512e-05
4.78907e-05
4.82014e-05
4.84149e-05
4.86876e-05
4.95038e-05
4.62456e-05
4.54244e-05
4.51893e-05
4.49376e-05
4.46536e-05
4.42704e-05
4.37623e-05
4.31461e-05
4.23807e-05
4.1462e-05
4.04702e-05
3.94919e-05
3.85933e-05
3.78384e-05
3.73482e-05
3.73255e-05
3.78117e-05
3.86266e-05
3.95992e-05
4.05927e-05
4.15244e-05
4.23705e-05
4.31236e-05
4.3775e-05
4.43104e-05
4.47211e-05
4.5012e-05
4.52174e-05
4.54631e-05
4.61866e-05
4.32042e-05
4.2638e-05
4.23834e-05
4.22077e-05
4.19813e-05
4.16145e-05
4.11505e-05
4.05678e-05
3.98405e-05
3.90125e-05
3.81475e-05
3.72775e-05
3.644e-05
3.57216e-05
3.5265e-05
3.52587e-05
3.57157e-05
3.64558e-05
3.73237e-05
3.82085e-05
3.90528e-05
3.98383e-05
4.0545e-05
4.11482e-05
4.16309e-05
4.19966e-05
4.2262e-05
4.24586e-05
4.2686e-05
4.3329e-05
4.08182e-05
4.02507e-05
4.00735e-05
3.99324e-05
3.96831e-05
3.93306e-05
3.89058e-05
3.83673e-05
3.77292e-05
3.70263e-05
3.62702e-05
3.54707e-05
3.46853e-05
3.40251e-05
3.36238e-05
3.36379e-05
3.40532e-05
3.47028e-05
3.54622e-05
3.6247e-05
3.70097e-05
3.77243e-05
3.83641e-05
3.89052e-05
3.93374e-05
3.96709e-05
3.99252e-05
4.01227e-05
4.03345e-05
4.08916e-05
3.87714e-05
3.81933e-05
3.811e-05
3.79527e-05
3.76982e-05
3.7398e-05
3.70152e-05
3.65381e-05
3.5994e-05
3.53827e-05
3.4696e-05
3.39647e-05
3.32653e-05
3.26969e-05
3.23589e-05
3.23796e-05
3.27373e-05
3.32905e-05
3.3947e-05
3.46416e-05
3.533e-05
3.5977e-05
3.65535e-05
3.70395e-05
3.74319e-05
3.77414e-05
3.79822e-05
3.81672e-05
3.83471e-05
3.88058e-05
3.68539e-05
3.65598e-05
3.64236e-05
3.62555e-05
3.60526e-05
3.57982e-05
3.54494e-05
3.50334e-05
3.45597e-05
3.40104e-05
3.33926e-05
3.27534e-05
3.21541e-05
3.16621e-05
3.13583e-05
3.13633e-05
3.1666e-05
3.21495e-05
3.27354e-05
3.3363e-05
3.39849e-05
3.45627e-05
3.50716e-05
3.55007e-05
3.58507e-05
3.61292e-05
3.63434e-05
3.65008e-05
3.66434e-05
3.70166e-05
3.54615e-05
3.52251e-05
3.50469e-05
3.48955e-05
3.4724e-05
3.44732e-05
3.41518e-05
3.37862e-05
3.33663e-05
3.28813e-05
3.23509e-05
3.18099e-05
3.12931e-05
3.08498e-05
3.0566e-05
3.05623e-05
3.08351e-05
3.12777e-05
3.18064e-05
3.23614e-05
3.28993e-05
3.33922e-05
3.38262e-05
3.41978e-05
3.45065e-05
3.47533e-05
3.494e-05
3.50736e-05
3.51914e-05
3.55011e-05
3.43173e-05
3.39811e-05
3.38749e-05
3.37549e-05
3.35888e-05
3.33544e-05
3.30778e-05
3.27611e-05
3.2394e-05
3.198e-05
3.1534e-05
3.1072e-05
3.06188e-05
3.02232e-05
2.99707e-05
2.99708e-05
3.02202e-05
3.06145e-05
3.10725e-05
3.15425e-05
3.19933e-05
3.24091e-05
3.27827e-05
3.3109e-05
3.33826e-05
3.35998e-05
3.37621e-05
3.38782e-05
3.39793e-05
3.42326e-05
3.31331e-05
3.29208e-05
3.28553e-05
3.27594e-05
3.26137e-05
3.24264e-05
3.22011e-05
3.19308e-05
3.16162e-05
3.1264e-05
3.08794e-05
3.04734e-05
3.00746e-05
2.97321e-05
2.9516e-05
2.95152e-05
2.97316e-05
3.00726e-05
3.04645e-05
3.08664e-05
3.1256e-05
3.16203e-05
3.19492e-05
3.22335e-05
3.24668e-05
3.26484e-05
3.27839e-05
3.28831e-05
3.29687e-05
3.31677e-05
3.22022e-05
3.21117e-05
3.20267e-05
3.19422e-05
3.18243e-05
3.16733e-05
3.14813e-05
3.12492e-05
3.09821e-05
3.06813e-05
3.03483e-05
2.99968e-05
2.9656e-05
2.93655e-05
2.91793e-05
2.91708e-05
2.935e-05
2.96427e-05
2.99828e-05
3.03354e-05
3.0679e-05
3.09971e-05
3.12767e-05
3.15101e-05
3.16959e-05
3.18405e-05
3.1953e-05
3.20407e-05
3.2116e-05
3.22715e-05
3.1536e-05
3.13954e-05
3.13288e-05
3.12578e-05
3.11604e-05
3.10295e-05
3.08673e-05
3.06755e-05
3.04536e-05
3.02012e-05
2.99236e-05
2.96339e-05
2.93527e-05
2.91064e-05
2.89389e-05
2.89218e-05
2.90666e-05
2.93127e-05
2.96049e-05
2.99097e-05
3.02039e-05
3.04699e-05
3.06965e-05
3.08808e-05
3.10284e-05
3.11484e-05
3.12495e-05
3.13337e-05
3.14041e-05
3.15259e-05
3.08891e-05
3.07445e-05
3.07238e-05
3.06704e-05
3.05876e-05
3.04811e-05
3.03547e-05
3.02016e-05
3.0018e-05
2.98081e-05
2.95805e-05
2.93454e-05
2.91128e-05
2.89001e-05
2.8749e-05
2.873e-05
2.88474e-05
2.90499e-05
2.92968e-05
2.95553e-05
2.98013e-05
3.00201e-05
3.0205e-05
3.03561e-05
3.04818e-05
3.05898e-05
3.06842e-05
3.07624e-05
3.08226e-05
3.09091e-05
3.0313e-05
3.02782e-05
3.02666e-05
3.02184e-05
3.01449e-05
3.00592e-05
2.99566e-05
2.98278e-05
2.96722e-05
2.94962e-05
2.93086e-05
2.91142e-05
2.8917e-05
2.87329e-05
2.86001e-05
2.85842e-05
2.86867e-05
2.88578e-05
2.90658e-05
2.92831e-05
2.94884e-05
2.96705e-05
2.98259e-05
2.9956e-05
3.00662e-05
3.01612e-05