/*--------------------------------*- C++ -*----------------------------------*\
| =========                 |                                                 |
| \\      /  F ield         | OpenFOAM: The Open Source CFD Toolbox           |
|  \\    /   O peration     | Version:  2312                                  |
|   \\  /    A nd           | Website:  www.openfoam.com                      |
|    \\/     M anipulation  |                                                 |
\*---------------------------------------------------------------------------*/
FoamFile
{
    version     2.0;
    format      ascii;
    arch        "LSB;label=32;scalar=64";
    class       volScalarField;
    location    "0.648989";
    object      nut;
}
// * * * * * * * * * * * * * * * * * * * * * * * * * * * * * * * * * * * * * //

dimensions      [0 2 -1 0 0 0 0];

internalField   nonuniform List<scalar> 
90000
(
5.84795e-06
5.84802e-06
5.8481e-06
5.84814e-06
5.84816e-06
5.84818e-06
5.84817e-06
5.84816e-06
5.84815e-06
5.84814e-06
5.84813e-06
5.84814e-06
5.84815e-06
5.84815e-06
5.84816e-06
5.84818e-06
5.84821e-06
5.84825e-06
5.84827e-06
5.84826e-06
5.84822e-06
5.84817e-06
5.84815e-06
5.84823e-06
5.84833e-06
5.8484e-06
5.84841e-06
5.8484e-06
5.84841e-06
5.84852e-06
5.84799e-06
5.85293e-06
5.8532e-06
5.85321e-06
5.85321e-06
5.85322e-06
5.85323e-06
5.85325e-06
5.85327e-06
5.85329e-06
5.8533e-06
5.8533e-06
5.85331e-06
5.85332e-06
5.85332e-06
5.85333e-06
5.85333e-06
5.85332e-06
5.85331e-06
5.85331e-06
5.85332e-06
5.85334e-06
5.85336e-06
5.85337e-06
5.85335e-06
5.85332e-06
5.85336e-06
5.85347e-06
5.85319e-06
5.84913e-06
5.84812e-06
5.85332e-06
5.85358e-06
5.85358e-06
5.85357e-06
5.85356e-06
5.85356e-06
5.85357e-06
5.85358e-06
5.85359e-06
5.85359e-06
5.85358e-06
5.85357e-06
5.85357e-06
5.85358e-06
5.85357e-06
5.85355e-06
5.85354e-06
5.85357e-06
5.85361e-06
5.85364e-06
5.85367e-06
5.85369e-06
5.85371e-06
5.85374e-06
5.85378e-06
5.85381e-06
5.85386e-06
5.85362e-06
5.8488e-06
5.84821e-06
5.8534e-06
5.85369e-06
5.8537e-06
5.85369e-06
5.85367e-06
5.85365e-06
5.85363e-06
5.85362e-06
5.85362e-06
5.8536e-06
5.85357e-06
5.85354e-06
5.85353e-06
5.85352e-06
5.85351e-06
5.85352e-06
5.85356e-06
5.85361e-06
5.85364e-06
5.85366e-06
5.85367e-06
5.8537e-06
5.85376e-06
5.85382e-06
5.85383e-06
5.85379e-06
5.85374e-06
5.85355e-06
5.84828e-06
5.84829e-06
5.85346e-06
5.85376e-06
5.85378e-06
5.85377e-06
5.85375e-06
5.85372e-06
5.85369e-06
5.85365e-06
5.85362e-06
5.85358e-06
5.85355e-06
5.85351e-06
5.85348e-06
5.85347e-06
5.85349e-06
5.85353e-06
5.85358e-06
5.85361e-06
5.85362e-06
5.85363e-06
5.85364e-06
5.85369e-06
5.85374e-06
5.85377e-06
5.85376e-06
5.8537e-06
5.85353e-06
5.85346e-06
5.84815e-06
5.84834e-06
5.8535e-06
5.8538e-06
5.85381e-06
5.85381e-06
5.85379e-06
5.85377e-06
5.85373e-06
5.85368e-06
5.85362e-06
5.85357e-06
5.85353e-06
5.85351e-06
5.85349e-06
5.8535e-06
5.85352e-06
5.85355e-06
5.85358e-06
5.8536e-06
5.85361e-06
5.85363e-06
5.85366e-06
5.85368e-06
5.85368e-06
5.85366e-06
5.85365e-06
5.8537e-06
5.85369e-06
5.85357e-06
5.84829e-06
5.84837e-06
5.85355e-06
5.85381e-06
5.85381e-06
5.85381e-06
5.85381e-06
5.8538e-06
5.85377e-06
5.85372e-06
5.85366e-06
5.85359e-06
5.85355e-06
5.85354e-06
5.85355e-06
5.85356e-06
5.85357e-06
5.85357e-06
5.85358e-06
5.85361e-06
5.85365e-06
5.85368e-06
5.85369e-06
5.85368e-06
5.85366e-06
5.85368e-06
5.85375e-06
5.85387e-06
5.85393e-06
5.85374e-06
5.84845e-06
5.84839e-06
5.85358e-06
5.8538e-06
5.8538e-06
5.8538e-06
5.85382e-06
5.85382e-06
5.85381e-06
5.85378e-06
5.85373e-06
5.85367e-06
5.85362e-06
5.85361e-06
5.85362e-06
5.85363e-06
5.85363e-06
5.85362e-06
5.85362e-06
5.85365e-06
5.8537e-06
5.85372e-06
5.85372e-06
5.85371e-06
5.85374e-06
5.85383e-06
5.85394e-06
5.85406e-06
5.85412e-06
5.85387e-06
5.8486e-06
5.84843e-06
5.8536e-06
5.85382e-06
5.85381e-06
5.85382e-06
5.85384e-06
5.85386e-06
5.85387e-06
5.85386e-06
5.85383e-06
5.85379e-06
5.85374e-06
5.85371e-06
5.85369e-06
5.8537e-06
5.85371e-06
5.85372e-06
5.85374e-06
5.85375e-06
5.85376e-06
5.85375e-06
5.85375e-06
5.85378e-06
5.85386e-06
5.85397e-06
5.85409e-06
5.85419e-06
5.85423e-06
5.85396e-06
5.84871e-06
5.84851e-06
5.85362e-06
5.85386e-06
5.85385e-06
5.85385e-06
5.85386e-06
5.85388e-06
5.8539e-06
5.85391e-06
5.85391e-06
5.85389e-06
5.85386e-06
5.8538e-06
5.85375e-06
5.85372e-06
5.85376e-06
5.85382e-06
5.85386e-06
5.85387e-06
5.85386e-06
5.85383e-06
5.85381e-06
5.85385e-06
5.85393e-06
5.85404e-06
5.85415e-06
5.85423e-06
5.85427e-06
5.85399e-06
5.84875e-06
5.84861e-06
5.85365e-06
5.85391e-06
5.85391e-06
5.85389e-06
5.85388e-06
5.85389e-06
5.85391e-06
5.85393e-06
5.85395e-06
5.85395e-06
5.85392e-06
5.85386e-06
5.85378e-06
5.85372e-06
5.85375e-06
5.85382e-06
5.85388e-06
5.85392e-06
5.85391e-06
5.85388e-06
5.85386e-06
5.85387e-06
5.85395e-06
5.85405e-06
5.85414e-06
5.85421e-06
5.85423e-06
5.85395e-06
5.84872e-06
5.84872e-06
5.85371e-06
5.854e-06
5.854e-06
5.854e-06
5.85399e-06
5.85398e-06
5.85397e-06
5.85396e-06
5.85396e-06
5.85395e-06
5.85393e-06
5.85388e-06
5.8538e-06
5.85371e-06
5.8537e-06
5.85376e-06
5.85383e-06
5.85387e-06
5.85388e-06
5.85386e-06
5.85385e-06
5.85387e-06
5.85394e-06
5.85403e-06
5.85411e-06
5.85416e-06
5.85417e-06
5.85389e-06
5.8487e-06
5.84879e-06
5.85384e-06
5.85413e-06
5.85415e-06
5.85417e-06
5.85418e-06
5.85417e-06
5.85413e-06
5.85407e-06
5.854e-06
5.85394e-06
5.85391e-06
5.85388e-06
5.85384e-06
5.85377e-06
5.85373e-06
5.85374e-06
5.85376e-06
5.85377e-06
5.85379e-06
5.85381e-06
5.85384e-06
5.85388e-06
5.85395e-06
5.85403e-06
5.85409e-06
5.85413e-06
5.85415e-06
5.85388e-06
5.84876e-06
5.84885e-06
5.85399e-06
5.85428e-06
5.85432e-06
5.85435e-06
5.85437e-06
5.85435e-06
5.8543e-06
5.85419e-06
5.85407e-06
5.85396e-06
5.8539e-06
5.85389e-06
5.85388e-06
5.85386e-06
5.85383e-06
5.85382e-06
5.85379e-06
5.85377e-06
5.85379e-06
5.85384e-06
5.85391e-06
5.85397e-06
5.85403e-06
5.85409e-06
5.85413e-06
5.85417e-06
5.8542e-06
5.85396e-06
5.84891e-06
5.849e-06
5.85417e-06
5.85447e-06
5.85451e-06
5.85453e-06
5.85453e-06
5.85448e-06
5.85439e-06
5.85426e-06
5.85412e-06
5.85399e-06
5.85391e-06
5.8539e-06
5.85392e-06
5.85393e-06
5.85393e-06
5.85392e-06
5.85391e-06
5.85392e-06
5.85396e-06
5.85402e-06
5.85408e-06
5.85413e-06
5.85417e-06
5.85421e-06
5.85425e-06
5.8543e-06
5.85435e-06
5.85415e-06
5.84912e-06
5.84918e-06
5.85445e-06
5.85472e-06
5.85472e-06
5.8547e-06
5.85464e-06
5.85453e-06
5.85441e-06
5.85429e-06
5.85417e-06
5.85405e-06
5.85395e-06
5.85392e-06
5.85394e-06
5.85396e-06
5.85398e-06
5.85401e-06
5.85404e-06
5.8541e-06
5.85415e-06
5.85421e-06
5.85425e-06
5.8543e-06
5.85434e-06
5.85437e-06
5.85442e-06
5.8545e-06
5.8546e-06
5.85444e-06
5.84935e-06
5.84936e-06
5.85479e-06
5.855e-06
5.85495e-06
5.85486e-06
5.85473e-06
5.85457e-06
5.85444e-06
5.85434e-06
5.85425e-06
5.85414e-06
5.85403e-06
5.85398e-06
5.85395e-06
5.85395e-06
5.85398e-06
5.85405e-06
5.85413e-06
5.85421e-06
5.85429e-06
5.85435e-06
5.8544e-06
5.85444e-06
5.85449e-06
5.85455e-06
5.85465e-06
5.85477e-06
5.85491e-06
5.85471e-06
5.84953e-06
5.84963e-06
5.85511e-06
5.85527e-06
5.85519e-06
5.85505e-06
5.85489e-06
5.85472e-06
5.85458e-06
5.85447e-06
5.85437e-06
5.85426e-06
5.85415e-06
5.85404e-06
5.85396e-06
5.85391e-06
5.85394e-06
5.85404e-06
5.85417e-06
5.8543e-06
5.8544e-06
5.85449e-06
5.85455e-06
5.8546e-06
5.85467e-06
5.85478e-06
5.85492e-06
5.85508e-06
5.85518e-06
5.85491e-06
5.84971e-06
5.85004e-06
5.85541e-06
5.85556e-06
5.85546e-06
5.85532e-06
5.85516e-06
5.855e-06
5.85485e-06
5.8547e-06
5.85454e-06
5.85441e-06
5.85427e-06
5.85411e-06
5.85396e-06
5.85387e-06
5.8539e-06
5.85404e-06
5.85421e-06
5.85438e-06
5.85452e-06
5.85463e-06
5.85471e-06
5.8548e-06
5.85492e-06
5.85508e-06
5.85525e-06
5.85537e-06
5.85541e-06
5.85512e-06
5.84995e-06
5.8505e-06
5.85572e-06
5.85589e-06
5.85578e-06
5.85564e-06
5.85549e-06
5.85533e-06
5.85517e-06
5.85499e-06
5.8548e-06
5.8546e-06
5.8544e-06
5.85419e-06
5.85399e-06
5.85385e-06
5.85387e-06
5.85405e-06
5.85426e-06
5.85447e-06
5.85464e-06
5.85479e-06
5.85492e-06
5.85507e-06
5.85526e-06
5.85544e-06
5.85559e-06
5.85566e-06
5.85567e-06
5.85538e-06
5.85024e-06
5.851e-06
5.8561e-06
5.85628e-06
5.85617e-06
5.85602e-06
5.85587e-06
5.85571e-06
5.85553e-06
5.85532e-06
5.85508e-06
5.85483e-06
5.85456e-06
5.85431e-06
5.85407e-06
5.85389e-06
5.8539e-06
5.8541e-06
5.85435e-06
5.8546e-06
5.85481e-06
5.85502e-06
5.85522e-06
5.85545e-06
5.85566e-06
5.85583e-06
5.85594e-06
5.85599e-06
5.85599e-06
5.85573e-06
5.85061e-06
5.85158e-06
5.85659e-06
5.85678e-06
5.85665e-06
5.8565e-06
5.85633e-06
5.85614e-06
5.85592e-06
5.85567e-06
5.85538e-06
5.85508e-06
5.85477e-06
5.85448e-06
5.85421e-06
5.85401e-06
5.85401e-06
5.85422e-06
5.8545e-06
5.85479e-06
5.85507e-06
5.85536e-06
5.85564e-06
5.85591e-06
5.85613e-06
5.85629e-06
5.85639e-06
5.85644e-06
5.85648e-06
5.85625e-06
5.8512e-06
5.85226e-06
5.8572e-06
5.8574e-06
5.85726e-06
5.85709e-06
5.85689e-06
5.85665e-06
5.85638e-06
5.85608e-06
5.85575e-06
5.8554e-06
5.85506e-06
5.85472e-06
5.85441e-06
5.85417e-06
5.85418e-06
5.85442e-06
5.85474e-06
5.85511e-06
5.85548e-06
5.85585e-06
5.8562e-06
5.8565e-06
5.85674e-06
5.8569e-06
5.85701e-06
5.85711e-06
5.85721e-06
5.85704e-06
5.85209e-06
5.85308e-06
5.85798e-06
5.85817e-06
5.85802e-06
5.85782e-06
5.85757e-06
5.85729e-06
5.85698e-06
5.85663e-06
5.85626e-06
5.85586e-06
5.85546e-06
5.85507e-06
5.8547e-06
5.85443e-06
5.85443e-06
5.85472e-06
5.8551e-06
5.85554e-06
5.856e-06
5.85646e-06
5.85686e-06
5.8572e-06
5.85746e-06
5.85764e-06
5.85781e-06
5.85799e-06
5.85817e-06
5.85806e-06
5.85312e-06
5.85407e-06
5.85894e-06
5.85912e-06
5.85895e-06
5.85871e-06
5.85844e-06
5.85814e-06
5.85778e-06
5.85737e-06
5.85694e-06
5.85648e-06
5.85601e-06
5.85554e-06
5.8551e-06
5.85476e-06
5.85475e-06
5.85508e-06
5.85553e-06
5.85603e-06
5.85657e-06
5.85711e-06
5.85758e-06
5.85795e-06
5.85823e-06
5.85846e-06
5.85871e-06
5.859e-06
5.85925e-06
5.85912e-06
5.8541e-06
5.85528e-06
5.86012e-06
5.86028e-06
5.8601e-06
5.85987e-06
5.85957e-06
5.85921e-06
5.85878e-06
5.85831e-06
5.8578e-06
5.85725e-06
5.85668e-06
5.8561e-06
5.85555e-06
5.85513e-06
5.85509e-06
5.85546e-06
5.856e-06
5.85661e-06
5.85726e-06
5.85787e-06
5.85838e-06
5.85878e-06
5.85911e-06
5.85944e-06
5.85979e-06
5.86014e-06
5.86037e-06
5.86017e-06
5.85512e-06
5.85674e-06
5.86159e-06
5.86175e-06
5.86158e-06
5.86131e-06
5.86095e-06
5.86052e-06
5.86002e-06
5.85946e-06
5.85884e-06
5.85817e-06
5.85746e-06
5.85674e-06
5.85606e-06
5.85553e-06
5.85547e-06
5.85591e-06
5.85659e-06
5.85735e-06
5.85812e-06
5.8588e-06
5.85937e-06
5.85986e-06
5.86032e-06
5.86079e-06
5.86123e-06
5.86158e-06
5.86174e-06
5.86148e-06
5.85658e-06
5.85858e-06
5.86346e-06
5.86362e-06
5.8634e-06
5.86307e-06
5.86263e-06
5.86212e-06
5.86152e-06
5.86084e-06
5.86008e-06
5.85926e-06
5.8584e-06
5.85753e-06
5.8567e-06
5.85608e-06
5.85603e-06
5.8566e-06
5.85745e-06
5.85838e-06
5.85926e-06
5.86005e-06
5.86075e-06
5.86139e-06
5.86202e-06
5.86263e-06
5.86311e-06
5.8634e-06
5.86353e-06
5.86336e-06
5.85865e-06
5.86088e-06
5.86577e-06
5.86589e-06
5.86561e-06
5.86519e-06
5.86466e-06
5.86404e-06
5.86331e-06
5.86249e-06
5.86158e-06
5.8606e-06
5.85958e-06
5.85855e-06
5.85758e-06
5.85688e-06
5.85687e-06
5.85758e-06
5.8586e-06
5.85967e-06
5.8607e-06
5.86163e-06
5.86249e-06
5.86332e-06
5.86412e-06
5.8648e-06
5.86528e-06
5.86556e-06
5.86581e-06
5.8658e-06
5.86107e-06
5.86373e-06
5.86858e-06
5.86863e-06
5.86826e-06
5.86775e-06
5.86711e-06
5.86635e-06
5.86548e-06
5.8645e-06
5.86343e-06
5.86229e-06
5.86109e-06
5.85987e-06
5.85875e-06
5.85796e-06
5.85799e-06
5.85882e-06
5.85997e-06
5.86119e-06
5.86236e-06
5.86348e-06
5.86454e-06
5.86557e-06
5.8665e-06
5.86724e-06
5.86777e-06
5.86817e-06
5.86858e-06
5.86861e-06
5.86378e-06
5.86718e-06
5.87194e-06
5.87192e-06
5.87146e-06
5.87084e-06
5.87007e-06
5.86917e-06
5.86813e-06
5.86699e-06
5.86574e-06
5.8644e-06
5.86299e-06
5.86156e-06
5.86025e-06
5.85936e-06
5.85939e-06
5.86031e-06
5.86161e-06
5.863e-06
5.86438e-06
5.86573e-06
5.86703e-06
5.86826e-06
5.86932e-06
5.87016e-06
5.87085e-06
5.87146e-06
5.87196e-06
5.87193e-06
5.86716e-06
5.87134e-06
5.87598e-06
5.87589e-06
5.87533e-06
5.87459e-06
5.8737e-06
5.87264e-06
5.87142e-06
5.87007e-06
5.86861e-06
5.86702e-06
5.86534e-06
5.86366e-06
5.86215e-06
5.86114e-06
5.86116e-06
5.86219e-06
5.86366e-06
5.86528e-06
5.86692e-06
5.86855e-06
5.87012e-06
5.87154e-06
5.87275e-06
5.87377e-06
5.8747e-06
5.87547e-06
5.876e-06
5.876e-06
5.87143e-06
5.87632e-06
5.88084e-06
5.88068e-06
5.88003e-06
5.87918e-06
5.87813e-06
5.87688e-06
5.87544e-06
5.87384e-06
5.8721e-06
5.87021e-06
5.86824e-06
5.86629e-06
5.86457e-06
5.86342e-06
5.86343e-06
5.86458e-06
5.86625e-06
5.86814e-06
5.87008e-06
5.872e-06
5.87382e-06
5.87544e-06
5.87685e-06
5.87811e-06
5.87926e-06
5.88013e-06
5.88072e-06
5.88087e-06
5.87638e-06
5.88229e-06
5.88669e-06
5.88646e-06
5.88571e-06
5.88471e-06
5.88348e-06
5.88199e-06
5.88028e-06
5.8784e-06
5.87635e-06
5.87414e-06
5.87186e-06
5.86963e-06
5.86767e-06
5.86637e-06
5.86636e-06
5.86764e-06
5.86954e-06
5.87172e-06
5.87398e-06
5.87621e-06
5.87828e-06
5.88013e-06
5.88182e-06
5.88335e-06
5.88468e-06
5.88567e-06
5.88641e-06
5.88665e-06
5.88216e-06
5.88943e-06
5.89367e-06
5.89338e-06
5.89251e-06
5.89134e-06
5.88988e-06
5.88814e-06
5.88615e-06
5.88397e-06
5.8816e-06
5.87906e-06
5.87645e-06
5.87391e-06
5.87169e-06
5.87021e-06
5.87019e-06
5.87163e-06
5.8738e-06
5.87633e-06
5.87894e-06
5.8815e-06
5.88386e-06
5.88601e-06
5.88802e-06
5.88982e-06
5.89135e-06
5.89251e-06
5.89337e-06
5.89356e-06
5.88931e-06
5.89793e-06
5.90198e-06
5.90162e-06
5.90062e-06
5.89927e-06
5.89759e-06
5.89559e-06
5.89332e-06
5.89082e-06
5.88811e-06
5.88522e-06
5.88226e-06
5.87939e-06
5.8769e-06
5.87524e-06
5.87524e-06
5.87689e-06
5.87939e-06
5.8823e-06
5.88528e-06
5.88816e-06
5.89081e-06
5.89329e-06
5.89561e-06
5.89763e-06
5.89936e-06
5.90067e-06
5.90159e-06
5.90183e-06
5.89792e-06
5.90804e-06
5.91186e-06
5.91144e-06
5.9103e-06
5.90877e-06
5.90686e-06
5.90462e-06
5.90205e-06
5.89922e-06
5.89617e-06
5.89293e-06
5.88962e-06
5.88645e-06
5.8837e-06
5.88188e-06
5.8819e-06
5.88377e-06
5.88657e-06
5.88983e-06
5.89315e-06
5.89632e-06
5.89928e-06
5.9021e-06
5.90469e-06
5.90694e-06
5.90885e-06
5.91029e-06
5.91131e-06
5.91176e-06
5.90797e-06
5.92001e-06
5.92357e-06
5.92309e-06
5.92183e-06
5.92013e-06
5.91801e-06
5.91552e-06
5.91265e-06
5.90948e-06
5.9061e-06
5.90257e-06
5.89896e-06
5.89549e-06
5.89248e-06
5.89046e-06
5.89047e-06
5.89253e-06
5.89561e-06
5.89919e-06
5.9028e-06
5.9063e-06
5.90959e-06
5.91274e-06
5.91564e-06
5.91813e-06
5.92022e-06
5.92184e-06
5.9231e-06
5.92365e-06
5.91997e-06
5.93414e-06
5.93738e-06
5.93687e-06
5.93552e-06
5.93369e-06
5.93138e-06
5.92862e-06
5.92546e-06
5.922e-06
5.91835e-06
5.91456e-06
5.91067e-06
5.90688e-06
5.90357e-06
5.90133e-06
5.90133e-06
5.90356e-06
5.90688e-06
5.91074e-06
5.91462e-06
5.91842e-06
5.92205e-06
5.92551e-06
5.92869e-06
5.93141e-06
5.93367e-06
5.93553e-06
5.93699e-06
5.93748e-06
5.9342e-06
5.95075e-06
5.95364e-06
5.95317e-06
5.95177e-06
5.94982e-06
5.94733e-06
5.94434e-06
5.94095e-06
5.93729e-06
5.93342e-06
5.92939e-06
5.92522e-06
5.92114e-06
5.91756e-06
5.91512e-06
5.91508e-06
5.91746e-06
5.92099e-06
5.92509e-06
5.92921e-06
5.9333e-06
5.93719e-06
5.9409e-06
5.94429e-06
5.94717e-06
5.94963e-06
5.95171e-06
5.95322e-06
5.95372e-06
5.95084e-06
5.9703e-06
5.97284e-06
5.9724e-06
5.97096e-06
5.96891e-06
5.96633e-06
5.96323e-06
5.9597e-06
5.95591e-06
5.95188e-06
5.94766e-06
5.94332e-06
5.93905e-06
5.93525e-06
5.93264e-06
5.93258e-06
5.93513e-06
5.93888e-06
5.94319e-06
5.94748e-06
5.95173e-06
5.95576e-06
5.95962e-06
5.96315e-06
5.96616e-06
5.96877e-06
5.97092e-06
5.97238e-06
5.97295e-06
5.97042e-06
5.99326e-06
5.99546e-06
5.99504e-06
5.99359e-06
5.99155e-06
5.98898e-06
5.98586e-06
5.98228e-06
5.97844e-06
5.97439e-06
5.97014e-06
5.96576e-06
5.96142e-06
5.95752e-06
5.95487e-06
5.95487e-06
5.95757e-06
5.96141e-06
5.96573e-06
5.97003e-06
5.97429e-06
5.97834e-06
5.98223e-06
5.98576e-06
5.9888e-06
5.99144e-06
5.99352e-06
5.995e-06
5.99554e-06
5.99335e-06
6.0202e-06
6.02192e-06
6.02168e-06
6.02033e-06
6.01834e-06
6.01586e-06
6.01293e-06
6.0095e-06
6.00578e-06
6.00187e-06
5.99777e-06
5.99347e-06
5.98931e-06
5.98553e-06
5.98292e-06
5.98292e-06
5.98557e-06
5.98937e-06
5.99353e-06
5.99779e-06
6.00185e-06
6.00574e-06
6.00951e-06
6.01287e-06
6.01581e-06
6.01834e-06
6.02032e-06
6.02171e-06
6.02206e-06
6.02023e-06
6.05166e-06
6.05289e-06
6.05291e-06
6.0518e-06
6.05014e-06
6.04794e-06
6.0454e-06
6.04231e-06
6.03888e-06
6.03543e-06
6.03184e-06
6.028e-06
6.02409e-06
6.02057e-06
6.0181e-06
6.01815e-06
6.02065e-06
6.02422e-06
6.02809e-06
6.03195e-06
6.03552e-06
6.03892e-06
6.04235e-06
6.04533e-06
6.04798e-06
6.05019e-06
6.05176e-06
6.0529e-06
6.05296e-06
6.05168e-06
6.08813e-06
6.08889e-06
6.08943e-06
6.08882e-06
6.08787e-06
6.0863e-06
6.08437e-06
6.08203e-06
6.07932e-06
6.07678e-06
6.07425e-06
6.07158e-06
6.0689e-06
6.06646e-06
6.06496e-06
6.06504e-06
6.06654e-06
6.06901e-06
6.07166e-06
6.07431e-06
6.07688e-06
6.0794e-06
6.08202e-06
6.08422e-06
6.08626e-06
6.08783e-06
6.08876e-06
6.08944e-06
6.08883e-06
6.08808e-06
6.13118e-06
6.13201e-06
6.13346e-06
6.13368e-06
6.13388e-06
6.13362e-06
6.13321e-06
6.13241e-06
6.13149e-06
6.13173e-06
6.13365e-06
6.13752e-06
6.14454e-06
6.15413e-06
6.16458e-06
6.16467e-06
6.15424e-06
6.14461e-06
6.13759e-06
6.13375e-06
6.13184e-06
6.13154e-06
6.13238e-06
6.1331e-06
6.1336e-06
6.13382e-06
6.13368e-06
6.1335e-06
6.13201e-06
6.13109e-06
6.18355e-06
6.18569e-06
6.18926e-06
6.19168e-06
6.19442e-06
6.1983e-06
6.20306e-06
6.20999e-06
6.21946e-06
6.23852e-06
6.28137e-06
6.35225e-06
6.45412e-06
6.58511e-06
6.71654e-06
6.71671e-06
6.58524e-06
6.45435e-06
6.35261e-06
6.28173e-06
6.23876e-06
6.21962e-06
6.21002e-06
6.20299e-06
6.19831e-06
6.19434e-06
6.1918e-06
6.18928e-06
6.18568e-06
6.1835e-06
6.25074e-06
6.25591e-06
6.26597e-06
6.27744e-06
6.29348e-06
6.31937e-06
6.35928e-06
6.42173e-06
6.51902e-06
6.69012e-06
7.06344e-06
7.64685e-06
8.37213e-06
9.17622e-06
9.90174e-06
9.90234e-06
9.17683e-06
8.37433e-06
7.65045e-06
7.06665e-06
6.69223e-06
6.52035e-06
6.42251e-06
6.35968e-06
6.31952e-06
6.29339e-06
6.27739e-06
6.26582e-06
6.2558e-06
6.25047e-06
6.35917e-06
6.37621e-06
6.42101e-06
6.48532e-06
6.58894e-06
6.75704e-06
7.03201e-06
7.45048e-06
8.07777e-06
8.98112e-06
1.06783e-05
1.30526e-05
1.55459e-05
1.77317e-05
1.93751e-05
1.93771e-05
1.77354e-05
1.55556e-05
1.30676e-05
1.06932e-05
8.99236e-06
8.08589e-06
7.45589e-06
7.03523e-06
6.7584e-06
6.58899e-06
6.48483e-06
6.42034e-06
6.37511e-06
6.35761e-06
6.59236e-06
6.80091e-06
7.07293e-06
7.44905e-06
8.05711e-06
9.01259e-06
1.04023e-05
1.226e-05
1.46231e-05
1.76663e-05
2.19249e-05
2.6986e-05
3.12326e-05
3.44648e-05
3.65012e-05
3.65061e-05
3.4474e-05
3.12513e-05
2.70144e-05
2.19582e-05
1.77009e-05
1.4652e-05
1.22827e-05
1.04187e-05
9.02319e-06
8.06234e-06
7.45013e-06
7.07183e-06
6.79731e-06
6.58727e-06
9.1489e-06
1.12973e-05
1.36455e-05
1.68144e-05
2.05395e-05
2.46495e-05
2.89635e-05
3.3414e-05
3.79053e-05
4.22497e-05
4.58707e-05
4.86235e-05
5.08405e-05
5.24081e-05
5.33634e-05
5.33687e-05
5.24183e-05
5.08613e-05
4.86524e-05
4.59066e-05
4.22912e-05
3.79494e-05
3.34582e-05
2.90048e-05
2.46855e-05
2.05707e-05
1.68395e-05
1.36644e-05
1.13045e-05
9.14713e-06
1.02001e-05
1.24006e-05
1.50958e-05
1.82668e-05
2.20675e-05
2.62665e-05
3.05103e-05
3.48067e-05
3.89458e-05
4.22957e-05
4.51761e-05
4.76433e-05
4.95698e-05
5.10001e-05
5.18928e-05
5.19037e-05
5.10147e-05
4.95874e-05
4.76849e-05
4.52306e-05
4.23567e-05
3.90114e-05
3.48629e-05
3.05591e-05
2.63133e-05
2.21084e-05
1.82986e-05
1.51225e-05
1.24062e-05
1.0194e-05
1.20944e-05
1.41025e-05
1.71589e-05
2.05336e-05
2.41225e-05
2.7744e-05
3.12692e-05
3.47149e-05
3.80735e-05
4.13844e-05
4.43884e-05
4.71713e-05
5.03645e-05
5.2963e-05
5.42185e-05
5.42039e-05
5.29643e-05
5.03869e-05
4.72293e-05
4.4482e-05
4.14847e-05
3.8163e-05
3.47808e-05
3.13255e-05
2.78028e-05
2.41605e-05
2.05724e-05
1.71854e-05
1.41095e-05
1.20877e-05
1.4713e-05
1.61865e-05
1.88135e-05
2.21738e-05
2.56244e-05
2.90074e-05
3.20509e-05
3.47868e-05
3.72701e-05
3.95871e-05
4.22907e-05
4.52835e-05
4.78508e-05
4.96913e-05
5.09872e-05
5.09666e-05
4.97016e-05
4.78825e-05
4.53252e-05
4.23879e-05
3.96912e-05
3.73481e-05
3.48764e-05
3.21293e-05
2.90698e-05
2.56837e-05
2.2227e-05
1.88411e-05
1.62026e-05
1.47138e-05
1.64319e-05
1.75519e-05
1.90375e-05
2.12164e-05
2.40177e-05
2.75002e-05
3.07488e-05
3.37089e-05
3.6225e-05
3.82487e-05
4.02912e-05
4.24317e-05
4.44488e-05
4.58357e-05
4.67988e-05
4.67989e-05
4.58404e-05
4.44945e-05
4.25012e-05
4.03669e-05
3.83509e-05
3.631e-05
3.37876e-05
3.08437e-05
2.7562e-05
2.40972e-05
2.12573e-05
1.90308e-05
1.75604e-05
1.64493e-05
1.62705e-05
1.72723e-05
1.79912e-05
1.9174e-05
2.08818e-05
2.31571e-05
2.61067e-05
2.98428e-05
3.31098e-05
3.61561e-05
3.9039e-05
4.12381e-05
4.29627e-05
4.39179e-05
4.44418e-05
4.44519e-05
4.39187e-05
4.29948e-05
4.13071e-05
3.91232e-05
3.62462e-05
3.32085e-05
2.99401e-05
2.62051e-05
2.3246e-05
2.09303e-05
1.92205e-05
1.80081e-05
1.7282e-05
1.62921e-05
1.53072e-05
1.61015e-05
1.63712e-05
1.68656e-05
1.76691e-05
1.88237e-05
2.04992e-05
2.29959e-05
2.60551e-05
3.02061e-05
3.47766e-05
3.87545e-05
4.16228e-05
4.31593e-05
4.38057e-05
4.38129e-05
4.31621e-05
4.16302e-05
3.8824e-05
3.48749e-05
3.02855e-05
2.61435e-05
2.30783e-05
2.05672e-05
1.88922e-05
1.77123e-05
1.68942e-05
1.63806e-05
1.61137e-05
1.53201e-05
1.41895e-05
1.47436e-05
1.47593e-05
1.48956e-05
1.51334e-05
1.55559e-05
1.61887e-05
1.72438e-05
1.88617e-05
2.14402e-05
2.60593e-05
3.21575e-05
3.68699e-05
3.99695e-05
4.17227e-05
4.17342e-05
3.99873e-05
3.69007e-05
3.21988e-05
2.61388e-05
2.14998e-05
1.88989e-05
1.73021e-05
1.62326e-05
1.55867e-05
1.51751e-05
1.48988e-05
1.47795e-05
1.47676e-05
1.41967e-05
1.32179e-05
1.35824e-05
1.35234e-05
1.34913e-05
1.35448e-05
1.36034e-05
1.37289e-05
1.39801e-05
1.43535e-05
1.53241e-05
1.74514e-05
2.15294e-05
2.74007e-05
3.24095e-05
3.56416e-05
3.56377e-05
3.2402e-05
2.74122e-05
2.15512e-05
1.74717e-05
1.53471e-05
1.43769e-05
1.39974e-05
1.3753e-05
1.36199e-05
1.35547e-05
1.35186e-05
1.35364e-05
1.35928e-05
1.32227e-05
1.24244e-05
1.26479e-05
1.25985e-05
1.2539e-05
1.2522e-05
1.24896e-05
1.24918e-05
1.25047e-05
1.25736e-05
1.28115e-05
1.33852e-05
1.47201e-05
1.71812e-05
2.07562e-05
2.44955e-05
2.45082e-05
2.07548e-05
1.71757e-05
1.47222e-05
1.33891e-05
1.28159e-05
1.25812e-05
1.25078e-05
1.24962e-05
1.25087e-05
1.25322e-05
1.25571e-05
1.25928e-05
1.26547e-05
1.24329e-05
1.17436e-05
1.18624e-05
1.17908e-05
1.17938e-05
1.17308e-05
1.17165e-05
1.16995e-05
1.16763e-05
1.16946e-05
1.1743e-05
1.18599e-05
1.21355e-05
1.26956e-05
1.37039e-05
1.49558e-05
1.49613e-05
1.37112e-05
1.27039e-05
1.21357e-05
1.18623e-05
1.17466e-05
1.16992e-05
1.16858e-05
1.17088e-05
1.17362e-05
1.17601e-05
1.17784e-05
1.18144e-05
1.18729e-05
1.17397e-05
1.1097e-05
1.11919e-05
1.11394e-05
1.10917e-05
1.10772e-05
1.10692e-05
1.1049e-05
1.10445e-05
1.10562e-05
1.10653e-05
1.10856e-05
1.11284e-05
1.12091e-05
1.13612e-05
1.15865e-05
1.15944e-05
1.13752e-05
1.1216e-05
1.11279e-05
1.1087e-05
1.10662e-05
1.10543e-05
1.10506e-05
1.10606e-05
1.10732e-05
1.10875e-05
1.11049e-05
1.11358e-05
1.11862e-05
1.11095e-05
1.05375e-05
1.05553e-05
1.05255e-05
1.04842e-05
1.04909e-05
1.04679e-05
1.04566e-05
1.04591e-05
1.04519e-05
1.04465e-05
1.04496e-05
1.04442e-05
1.04322e-05
1.04287e-05
1.04419e-05
1.04459e-05
1.04397e-05
1.0442e-05
1.0448e-05
1.04531e-05
1.04555e-05
1.04595e-05
1.04623e-05
1.04626e-05
1.04737e-05
1.04849e-05
1.05005e-05
1.05219e-05
1.05707e-05
1.05386e-05
1.00153e-05
1.00145e-05
9.95667e-06
9.96347e-06
9.9298e-06
9.91819e-06
9.91766e-06
9.91082e-06
9.89671e-06
9.88395e-06
9.86102e-06
9.82455e-06
9.78277e-06
9.74748e-06
9.72644e-06
9.72987e-06
9.75689e-06
9.79131e-06
9.82934e-06
9.86714e-06
9.89683e-06
9.91223e-06
9.91779e-06
9.9202e-06
9.92806e-06
9.9364e-06
9.9509e-06
9.97442e-06
1.00227e-05
1.00149e-05
9.50102e-06
9.52283e-06
9.47427e-06
9.4537e-06
9.43587e-06
9.43854e-06
9.42977e-06
9.41305e-06
9.39304e-06
9.36354e-06
9.31961e-06
9.26789e-06
9.21545e-06
9.16705e-06
9.13159e-06
9.13081e-06
9.16637e-06
9.21664e-06
9.27101e-06
9.32136e-06
9.36103e-06
9.39113e-06
9.41157e-06
9.4255e-06
9.4358e-06
9.44821e-06
9.46018e-06
9.47939e-06
9.52108e-06
9.52864e-06
9.10879e-06
9.04944e-06
9.03089e-06
8.99435e-06
8.99752e-06
8.98541e-06
8.96619e-06
8.94853e-06
8.91849e-06
8.87004e-06
8.81085e-06
8.75255e-06
8.69372e-06
8.63525e-06
8.5918e-06
8.58946e-06
8.62965e-06
8.68857e-06
8.75252e-06
8.81502e-06
8.87262e-06
8.92231e-06
8.96068e-06
8.98168e-06
8.98942e-06
8.99567e-06
9.0074e-06
9.02587e-06
9.06324e-06
9.08422e-06
8.68016e-06
8.63507e-06
8.6035e-06
8.59915e-06
8.59464e-06
8.57561e-06
8.5599e-06
8.53458e-06
8.4872e-06
8.42351e-06
8.36006e-06
8.29741e-06
8.22829e-06
8.15915e-06
8.11357e-06
8.11665e-06
8.16366e-06
8.22871e-06
8.2991e-06
8.37155e-06
8.43987e-06
8.49606e-06
8.53616e-06
8.56156e-06
8.57704e-06
8.59065e-06
8.60598e-06
8.62161e-06
8.65206e-06
8.69347e-06
8.3534e-06
8.29001e-06
8.2526e-06
8.25153e-06
8.23422e-06
8.21522e-06
8.19344e-06
8.15491e-06
8.09912e-06
8.03705e-06
7.9719e-06
7.89636e-06
7.81252e-06
7.73953e-06
7.69862e-06
7.70549e-06
7.75146e-06
7.81485e-06
7.88767e-06
7.96642e-06
8.04317e-06
8.10837e-06
8.15778e-06
8.19349e-06
8.22019e-06
8.23894e-06
8.25063e-06
8.2595e-06
8.28304e-06
8.36484e-06
8.06432e-06
7.9494e-06
7.93233e-06
7.92424e-06
7.90792e-06
7.89062e-06
7.8636e-06
7.82139e-06
7.76778e-06
7.7047e-06
7.62826e-06
7.54022e-06
7.4552e-06
7.38982e-06
7.35323e-06
7.356e-06
7.39626e-06
7.46032e-06
7.54035e-06
7.62746e-06
7.70955e-06
7.77735e-06
7.82815e-06
7.86571e-06
7.89505e-06
7.91739e-06
7.93123e-06
7.93941e-06
7.95791e-06
8.06095e-06
7.77267e-06
7.66762e-06
7.66151e-06
7.64884e-06
7.63077e-06
7.60814e-06
7.57291e-06
7.52751e-06
7.47237e-06
7.40358e-06
7.32191e-06
7.23733e-06
7.16217e-06
7.10191e-06
7.06211e-06
7.05829e-06
7.09669e-06
7.16501e-06
7.24914e-06
7.33518e-06
7.41174e-06
7.47462e-06
7.52526e-06
7.56732e-06
7.60317e-06
7.63176e-06
7.65117e-06
7.6631e-06
7.68127e-06
7.77837e-06
7.51871e-06
7.43658e-06
7.41705e-06
7.39894e-06
7.37814e-06
7.35122e-06
7.31447e-06
7.2701e-06
7.21307e-06
7.14126e-06
7.0621e-06
6.98447e-06
6.91351e-06
6.85168e-06
6.80832e-06
6.80329e-06
6.84342e-06
6.91341e-06
6.99576e-06
7.07651e-06
7.14841e-06
7.21156e-06
7.26721e-06
7.31536e-06
7.35468e-06
7.38386e-06
7.40283e-06
7.41451e-06
7.43129e-06
7.51821e-06
7.27861e-06
7.20808e-06
7.18044e-06
7.16755e-06
7.15397e-06
7.12958e-06
7.09668e-06
7.0532e-06
6.99529e-06
6.92609e-06
6.85328e-06
6.78078e-06
6.71051e-06
6.64803e-06
6.60621e-06
6.60424e-06
6.64496e-06
6.71145e-06
6.78748e-06
6.86203e-06
6.9306e-06
6.99329e-06
7.04919e-06
7.09626e-06
7.13257e-06
7.15857e-06
7.17619e-06
7.18877e-06
7.20682e-06
7.28601e-06
7.07954e-06
6.99865e-06
6.98955e-06
6.98167e-06
6.9652e-06
6.93781e-06
6.90376e-06
6.85909e-06
6.80429e-06
6.74339e-06
6.67873e-06
6.61064e-06
6.54247e-06
6.48346e-06
6.44665e-06
6.44775e-06
6.48573e-06
6.54434e-06
6.61095e-06
6.67777e-06
6.74149e-06
6.80088e-06
6.85396e-06
6.89847e-06
6.93325e-06
6.95943e-06
6.97914e-06
6.9946e-06
7.01331e-06
7.08243e-06
6.89407e-06
6.83012e-06
6.82868e-06
6.81545e-06
6.79229e-06
6.7648e-06
6.73097e-06
6.68868e-06
6.64062e-06
6.58759e-06
6.52797e-06
6.46295e-06
6.39886e-06
6.34584e-06
6.31441e-06
6.31684e-06
6.35034e-06
6.40076e-06
6.45926e-06
6.52031e-06
6.58089e-06
6.63835e-06
6.68992e-06
6.73315e-06
6.76756e-06
6.7941e-06
6.81422e-06
6.8292e-06
6.84483e-06
6.90154e-06
6.72285e-06
6.69436e-06
6.67588e-06
6.6587e-06
6.63992e-06
6.61848e-06
6.58849e-06
6.5517e-06
6.5101e-06
6.4616e-06
6.40494e-06
6.34375e-06
6.28502e-06
6.23734e-06
6.20935e-06
6.21153e-06
6.24138e-06
6.28701e-06
6.34111e-06
6.39867e-06
6.45604e-06
6.50967e-06
6.55687e-06
6.59614e-06
6.62733e-06
6.65123e-06
6.6688e-06
6.68109e-06
6.6933e-06
6.74023e-06
6.60312e-06
6.56697e-06
6.54423e-06
6.53219e-06
6.5202e-06
6.50056e-06
6.47189e-06
6.4381e-06
6.39964e-06
6.35454e-06
6.30324e-06
6.24926e-06
6.19784e-06
6.15536e-06
6.13009e-06
6.13201e-06
6.15938e-06
6.20156e-06
6.25091e-06
6.30252e-06
6.35274e-06
6.39894e-06
6.4393e-06
6.47327e-06
6.50079e-06
6.52216e-06
6.53792e-06
6.54908e-06
6.56017e-06
6.60044e-06
6.49334e-06
6.44365e-06
6.43706e-06
6.43068e-06
6.41867e-06
6.39693e-06
6.36875e-06
6.33696e-06
6.30125e-06
6.26103e-06
6.21708e-06
6.17152e-06
6.12783e-06
6.09091e-06
6.0683e-06
6.06946e-06
6.09344e-06
6.13045e-06
6.17342e-06
6.21807e-06
6.26127e-06
6.30122e-06
6.33689e-06
6.3676e-06
6.39295e-06
6.41281e-06
6.42757e-06
6.43827e-06
6.44857e-06
6.482e-06
6.37207e-06
6.34714e-06
6.34614e-06
6.3392e-06
6.32507e-06
6.30466e-06
6.28077e-06
6.25381e-06
6.22316e-06
6.18874e-06
6.15118e-06
6.11203e-06
6.07397e-06
6.04127e-06
6.02016e-06
6.0191e-06
6.03879e-06
6.07111e-06
6.10944e-06
6.14962e-06
6.18886e-06
6.22521e-06
6.25751e-06
6.28494e-06
6.30708e-06
6.32412e-06
6.33676e-06
6.34602e-06
6.35464e-06
6.38073e-06
6.28339e-06
6.2765e-06
6.26753e-06
6.2584e-06
6.24526e-06
6.22941e-06
6.21126e-06
6.18992e-06
6.16459e-06
6.13526e-06
6.1027e-06
6.06851e-06
6.03508e-06
6.00565e-06
5.98547e-06
5.98243e-06
5.99869e-06
6.02777e-06
6.06285e-06
6.09942e-06
6.13458e-06
6.16637e-06
6.19362e-06
6.21586e-06
6.23333e-06
6.24685e-06
6.25738e-06
6.2656e-06
6.27315e-06
6.29352e-06
6.22347e-06
6.20531e-06
6.19621e-06
6.18893e-06
6.17913e-06
6.16732e-06
6.15322e-06
6.13552e-06
6.11357e-06
6.08791e-06
6.05987e-06
6.03087e-06
6.00236e-06
5.97653e-06
5.95796e-06
5.95467e-06
5.96899e-06
5.99488e-06
6.02566e-06
6.05714e-06
6.08668e-06
6.11263e-06
6.13425e-06
6.15169e-06
6.16579e-06
6.17757e-06
6.1877e-06
6.19622e-06
6.20369e-06
6.21995e-06
6.15657e-06
6.13615e-06
6.13532e-06
6.13116e-06
6.12358e-06
6.11403e-06
6.10205e-06
6.0863e-06
6.06666e-06
6.04433e-06
6.02066e-06
5.99651e-06
5.97252e-06
5.95024e-06
5.93412e-06
5.9321e-06
5.94538e-06
5.96749e-06
5.99338e-06
6.01952e-06
6.04368e-06
6.0648e-06
6.08262e-06
6.09753e-06
6.11037e-06
6.12176e-06
6.13184e-06
6.1402e-06
6.14685e-06
6.15867e-06
6.09384e-06
6.0918e-06
6.09301e-06
6.08797e-06
6.08012e-06
6.07123e-06
6.06034e-06
6.04654e-06
6.03022e-06
6.01231e-06
5.99338e-06
5.97357e-06
5.95313e-06
5.93382e-06
5.92001e-06