/*--------------------------------*- C++ -*----------------------------------*\
| =========                 |                                                 |
| \\      /  F ield         | OpenFOAM: The Open Source CFD Toolbox           |
|  \\    /   O peration     | Version:  2312                                  |
|   \\  /    A nd           | Website:  www.openfoam.com                      |
|    \\/     M anipulation  |                                                 |
\*---------------------------------------------------------------------------*/
FoamFile
{
    version     2.0;
    format      ascii;
    arch        "LSB;label=32;scalar=64";
    class       volScalarField;
    location    "0.648989";
    object      p;
}
// * * * * * * * * * * * * * * * * * * * * * * * * * * * * * * * * * * * * * //

dimensions      [1 -1 -2 0 0 0 0];

internalField   nonuniform List<scalar> 
90000
(
4849.42
4849.42
4849.42
4849.42
4849.42
4849.42
4849.42
4849.42
4849.42
4849.42
4849.42
4849.42
4849.42
4849.42
4849.42
4849.42
4849.42
4849.42
4849.41
4849.41
4849.41
4849.41
4849.41
4849.41
4849.41
4849.41
4849.41
4849.41
4849.41
4849.42
4751.32
4751.32
4751.32
4751.32
4751.32
4751.32
4751.32
4751.32
4751.32
4751.32
4751.32
4751.32
4751.32
4751.32
4751.32
4751.31
4751.31
4751.31
4751.31
4751.31
4751.31
4751.31
4751.31
4751.31
4751.31
4751.31
4751.31
4751.31
4751.31
4751.31
4653.22
4653.22
4653.22
4653.22
4653.22
4653.22
4653.22
4653.22
4653.22
4653.22
4653.21
4653.21
4653.21
4653.21
4653.21
4653.21
4653.21
4653.21
4653.21
4653.21
4653.21
4653.21
4653.21
4653.21
4653.21
4653.21
4653.21
4653.21
4653.21
4653.21
4555.12
4555.12
4555.12
4555.12
4555.12
4555.12
4555.12
4555.11
4555.11
4555.11
4555.11
4555.11
4555.11
4555.11
4555.11
4555.11
4555.11
4555.11
4555.11
4555.11
4555.11
4555.11
4555.11
4555.11
4555.11
4555.11
4555.11
4555.11
4555.11
4555.11
4457.02
4457.02
4457.02
4457.02
4457.01
4457.01
4457.01
4457.01
4457.01
4457.01
4457.01
4457.01
4457.01
4457.01
4457.01
4457.01
4457.01
4457.01
4457.01
4457.01
4457.01
4457.01
4457.01
4457.01
4457.01
4457.01
4457.01
4457.01
4457.01
4457.01
4358.91
4358.91
4358.91
4358.91
4358.91
4358.91
4358.91
4358.91
4358.91
4358.91
4358.91
4358.91
4358.91
4358.91
4358.91
4358.9
4358.9
4358.91
4358.91
4358.91
4358.91
4358.91
4358.91
4358.91
4358.91
4358.91
4358.91
4358.91
4358.91
4358.91
4260.81
4260.81
4260.81
4260.81
4260.81
4260.81
4260.81
4260.8
4260.8
4260.8
4260.8
4260.8
4260.8
4260.8
4260.8
4260.8
4260.8
4260.8
4260.8
4260.8
4260.8
4260.8
4260.81
4260.81
4260.81
4260.81
4260.81
4260.81
4260.81
4260.81
4162.71
4162.71
4162.71
4162.71
4162.71
4162.7
4162.7
4162.7
4162.7
4162.7
4162.7
4162.7
4162.7
4162.7
4162.7
4162.7
4162.7
4162.7
4162.7
4162.7
4162.7
4162.7
4162.7
4162.7
4162.7
4162.7
4162.71
4162.71
4162.71
4162.71
4064.6
4064.6
4064.6
4064.6
4064.6
4064.6
4064.6
4064.6
4064.6
4064.6
4064.59
4064.59
4064.59
4064.59
4064.59
4064.59
4064.59
4064.59
4064.59
4064.6
4064.6
4064.6
4064.6
4064.6
4064.6
4064.6
4064.6
4064.6
4064.6
4064.6
3966.5
3966.5
3966.5
3966.5
3966.5
3966.5
3966.5
3966.5
3966.49
3966.49
3966.49
3966.49
3966.49
3966.49
3966.49
3966.49
3966.49
3966.49
3966.49
3966.49
3966.5
3966.5
3966.5
3966.5
3966.5
3966.5
3966.5
3966.5
3966.5
3966.5
3868.4
3868.4
3868.4
3868.4
3868.4
3868.4
3868.4
3868.39
3868.39
3868.39
3868.39
3868.39
3868.39
3868.39
3868.39
3868.39
3868.39
3868.39
3868.39
3868.39
3868.4
3868.4
3868.4
3868.4
3868.4
3868.4
3868.4
3868.41
3868.41
3868.41
3770.3
3770.3
3770.3
3770.3
3770.3
3770.3
3770.3
3770.29
3770.29
3770.29
3770.29
3770.29
3770.29
3770.29
3770.29
3770.29
3770.29
3770.29
3770.29
3770.29
3770.3
3770.3
3770.3
3770.3
3770.3
3770.31
3770.31
3770.31
3770.31
3770.31
3672.2
3672.2
3672.2
3672.2
3672.2
3672.2
3672.2
3672.2
3672.19
3672.19
3672.19
3672.19
3672.19
3672.19
3672.19
3672.19
3672.19
3672.19
3672.19
3672.19
3672.2
3672.2
3672.2
3672.2
3672.21
3672.21
3672.21
3672.21
3672.21
3672.21
3574.11
3574.1
3574.1
3574.1
3574.1
3574.1
3574.1
3574.1
3574.1
3574.09
3574.09
3574.09
3574.09
3574.09
3574.09
3574.09
3574.09
3574.09
3574.09
3574.09
3574.09
3574.1
3574.1
3574.11
3574.11
3574.11
3574.12
3574.12
3574.12
3574.12
3476.01
3476.01
3476.01
3476.01
3476.01
3476.01
3476
3476
3476
3476
3475.99
3475.99
3475.99
3475.99
3475.98
3475.98
3475.98
3475.98
3475.99
3475.99
3475.99
3476
3476
3476.01
3476.01
3476.02
3476.02
3476.02
3476.02
3476.02
3377.93
3377.92
3377.92
3377.92
3377.92
3377.91
3377.91
3377.91
3377.9
3377.9
3377.89
3377.89
3377.89
3377.88
3377.88
3377.88
3377.88
3377.88
3377.89
3377.89
3377.89
3377.9
3377.9
3377.91
3377.92
3377.92
3377.93
3377.93
3377.93
3377.93
3279.84
3279.84
3279.84
3279.83
3279.83
3279.82
3279.82
3279.81
3279.8
3279.8
3279.79
3279.79
3279.78
3279.78
3279.78
3279.78
3279.78
3279.78
3279.79
3279.79
3279.8
3279.8
3279.81
3279.82
3279.82
3279.83
3279.83
3279.84
3279.84
3279.84
3181.76
3181.76
3181.75
3181.75
3181.74
3181.73
3181.73
3181.72
3181.71
3181.7
3181.7
3181.69
3181.69
3181.68
3181.68
3181.68
3181.68
3181.68
3181.69
3181.69
3181.7
3181.71
3181.71
3181.72
3181.73
3181.74
3181.74
3181.75
3181.75
3181.75
3083.67
3083.67
3083.67
3083.66
3083.65
3083.65
3083.64
3083.63
3083.62
3083.61
3083.6
3083.59
3083.59
3083.58
3083.58
3083.58
3083.58
3083.59
3083.59
3083.6
3083.61
3083.61
3083.62
3083.63
3083.64
3083.65
3083.65
3083.66
3083.66
3083.66
2985.59
2985.59
2985.59
2985.58
2985.57
2985.56
2985.55
2985.54
2985.52
2985.51
2985.51
2985.5
2985.49
2985.49
2985.49
2985.49
2985.49
2985.49
2985.5
2985.51
2985.52
2985.53
2985.54
2985.55
2985.56
2985.56
2985.57
2985.58
2985.58
2985.58
2887.51
2887.51
2887.5
2887.5
2887.49
2887.47
2887.46
2887.45
2887.44
2887.42
2887.41
2887.4
2887.4
2887.39
2887.39
2887.39
2887.4
2887.4
2887.41
2887.42
2887.43
2887.44
2887.45
2887.46
2887.47
2887.48
2887.49
2887.5
2887.5
2887.5
2789.44
2789.43
2789.43
2789.42
2789.41
2789.39
2789.38
2789.37
2789.35
2789.34
2789.33
2789.32
2789.31
2789.3
2789.3
2789.3
2789.31
2789.31
2789.32
2789.33
2789.34
2789.36
2789.37
2789.38
2789.4
2789.41
2789.42
2789.43
2789.43
2789.43
2691.37
2691.36
2691.36
2691.35
2691.33
2691.32
2691.3
2691.29
2691.27
2691.25
2691.24
2691.23
2691.22
2691.21
2691.21
2691.21
2691.22
2691.22
2691.23
2691.25
2691.26
2691.28
2691.29
2691.31
2691.32
2691.34
2691.35
2691.36
2691.37
2691.37
2593.31
2593.3
2593.29
2593.28
2593.27
2593.25
2593.23
2593.21
2593.19
2593.18
2593.16
2593.15
2593.14
2593.13
2593.12
2593.13
2593.13
2593.14
2593.15
2593.16
2593.18
2593.2
2593.22
2593.24
2593.26
2593.27
2593.29
2593.3
2593.31
2593.31
2495.26
2495.25
2495.24
2495.23
2495.21
2495.19
2495.17
2495.14
2495.12
2495.1
2495.08
2495.06
2495.05
2495.04
2495.04
2495.04
2495.04
2495.05
2495.07
2495.08
2495.1
2495.13
2495.15
2495.17
2495.2
2495.22
2495.24
2495.25
2495.26
2495.27
2397.22
2397.21
2397.2
2397.18
2397.16
2397.14
2397.11
2397.08
2397.06
2397.03
2397.01
2396.99
2396.97
2396.96
2396.95
2396.95
2396.96
2396.97
2396.99
2397.01
2397.03
2397.06
2397.09
2397.12
2397.14
2397.17
2397.19
2397.21
2397.22
2397.23
2299.2
2299.19
2299.18
2299.15
2299.13
2299.1
2299.07
2299.03
2299
2298.97
2298.94
2298.91
2298.89
2298.88
2298.87
2298.87
2298.88
2298.89
2298.91
2298.93
2298.96
2299
2299.03
2299.07
2299.1
2299.13
2299.16
2299.18
2299.2
2299.21
2201.19
2201.18
2201.17
2201.14
2201.11
2201.07
2201.03
2200.99
2200.95
2200.91
2200.87
2200.84
2200.82
2200.8
2200.79
2200.79
2200.8
2200.81
2200.84
2200.87
2200.91
2200.95
2200.99
2201.03
2201.07
2201.11
2201.15
2201.17
2201.19
2201.2
2103.21
2103.2
2103.18
2103.15
2103.11
2103.06
2103.01
2102.96
2102.91
2102.86
2102.82
2102.78
2102.75
2102.73
2102.72
2102.72
2102.73
2102.75
2102.77
2102.81
2102.86
2102.91
2102.96
2103.01
2103.06
2103.11
2103.15
2103.18
2103.2
2103.21
2005.25
2005.23
2005.21
2005.17
2005.12
2005.07
2005.01
2004.95
2004.88
2004.82
2004.77
2004.72
2004.69
2004.66
2004.65
2004.65
2004.66
2004.68
2004.72
2004.77
2004.82
2004.88
2004.94
2005.01
2005.07
2005.12
2005.17
2005.21
2005.24
2005.25
1907.31
1907.3
1907.26
1907.22
1907.16
1907.1
1907.02
1906.95
1906.87
1906.8
1906.73
1906.68
1906.63
1906.6
1906.59
1906.58
1906.6
1906.63
1906.68
1906.73
1906.8
1906.87
1906.95
1907.02
1907.1
1907.16
1907.22
1907.27
1907.3
1907.31
1809.41
1809.39
1809.35
1809.3
1809.23
1809.15
1809.06
1808.97
1808.88
1808.79
1808.71
1808.64
1808.59
1808.55
1808.53
1808.53
1808.55
1808.59
1808.64
1808.71
1808.79
1808.88
1808.97
1809.06
1809.15
1809.23
1809.3
1809.35
1809.39
1809.41
1711.54
1711.52
1711.48
1711.41
1711.33
1711.24
1711.13
1711.02
1710.91
1710.81
1710.71
1710.63
1710.56
1710.52
1710.49
1710.49
1710.52
1710.56
1710.63
1710.71
1710.81
1710.91
1711.02
1711.13
1711.24
1711.33
1711.41
1711.48
1711.52
1711.54
1613.72
1613.7
1613.64
1613.57
1613.47
1613.36
1613.23
1613.1
1612.97
1612.85
1612.73
1612.63
1612.56
1612.5
1612.47
1612.47
1612.5
1612.56
1612.63
1612.73
1612.85
1612.97
1613.11
1613.24
1613.36
1613.47
1613.57
1613.65
1613.7
1613.73
1515.96
1515.93
1515.86
1515.77
1515.66
1515.53
1515.38
1515.22
1515.07
1514.92
1514.78
1514.67
1514.57
1514.51
1514.48
1514.48
1514.51
1514.58
1514.67
1514.79
1514.92
1515.07
1515.23
1515.38
1515.53
1515.66
1515.78
1515.87
1515.93
1515.96
1418.26
1418.22
1418.15
1418.04
1417.91
1417.75
1417.57
1417.39
1417.21
1417.03
1416.87
1416.73
1416.62
1416.55
1416.51
1416.51
1416.55
1416.63
1416.74
1416.87
1417.03
1417.21
1417.4
1417.58
1417.75
1417.91
1418.04
1418.15
1418.22
1418.26
1320.63
1320.59
1320.5
1320.38
1320.22
1320.04
1319.83
1319.62
1319.41
1319.2
1319.01
1318.85
1318.72
1318.63
1318.58
1318.58
1318.63
1318.72
1318.85
1319.01
1319.2
1319.41
1319.62
1319.84
1320.04
1320.22
1320.38
1320.5
1320.59
1320.63
1223.1
1223.04
1222.95
1222.8
1222.62
1222.41
1222.17
1221.92
1221.67
1221.43
1221.21
1221.02
1220.87
1220.77
1220.72
1220.71
1220.77
1220.87
1221.02
1221.21
1221.43
1221.68
1221.92
1222.17
1222.41
1222.62
1222.8
1222.95
1223.05
1223.1
1125.66
1125.6
1125.49
1125.32
1125.12
1124.87
1124.6
1124.32
1124.03
1123.75
1123.5
1123.28
1123.1
1122.98
1122.92
1122.92
1122.98
1123.1
1123.28
1123.5
1123.75
1124.03
1124.32
1124.6
1124.87
1125.12
1125.32
1125.49
1125.6
1125.66
1028.34
1028.27
1028.15
1027.96
1027.73
1027.45
1027.14
1026.82
1026.49
1026.18
1025.89
1025.63
1025.43
1025.29
1025.22
1025.22
1025.29
1025.43
1025.63
1025.88
1026.18
1026.49
1026.82
1027.14
1027.45
1027.73
1027.96
1028.15
1028.28
1028.34
931.15
931.077
930.936
930.731
930.47
930.163
929.822
929.46
929.093
928.737
928.408
928.125
927.898
927.74
927.659
927.659
927.74
927.898
928.125
928.409
928.738
929.093
929.46
929.821
930.162
930.47
930.731
930.937
931.078
931.15
834.102
834.025
833.873
833.652
833.37
833.037
832.665
832.269
831.865
831.472
831.106
830.792
830.539
830.363
830.272
830.273
830.363
830.54
830.793
831.107
831.473
831.866
832.268
832.664
833.036
833.369
833.652
833.873
834.025
834.102
737.207
737.127
736.969
736.74
736.446
736.097
735.704
735.284
734.852
734.429
734.036
733.69
733.414
733.22
733.121
733.121
733.221
733.414
733.691
734.038
734.431
734.853
735.283
735.704
736.096
736.445
736.74
736.97
737.127
737.207
640.468
640.389
640.235
640.011
639.721
639.374
638.98
638.552
638.109
637.669
637.255
636.89
636.596
636.389
636.283
636.284
636.39
636.596
636.891
637.257
637.671
638.11
638.553
638.979
639.373
639.721
640.011
640.236
640.389
640.467
543.874
543.806
543.671
543.473
543.215
542.9
542.535
542.132
541.705
541.271
540.855
540.482
540.184
539.973
539.864
539.863
539.972
540.184
540.483
540.856
541.272
541.705
542.132
542.535
542.9
543.215
543.474
543.672
543.806
543.875
447.403
447.356
447.264
447.127
446.942
446.708
446.424
446.094
445.729
445.342
444.957
444.601
444.311
444.107
444.002
444.001
444.106
444.311
444.602
444.957
445.343
445.729
446.094
446.423
446.708
446.942
447.127
447.264
447.356
447.403
351.003
350.995
350.982
350.959
350.914
350.835
350.707
350.529
350.297
350.026
349.73
349.427
349.155
348.963
348.871
348.871
348.963
349.155
349.428
349.73
350.026
350.297
350.529
350.707
350.834
350.914
350.958
350.982
350.995
351.002
254.565
254.623
254.743
254.911
255.101
255.286
255.427
255.515
255.521
255.46
255.33
255.114
254.881
254.737
254.698
254.698
254.737
254.882
255.114
255.33
255.46
255.521
255.515
255.427
255.286
255.101
254.911
254.742
254.622
254.565
158.007
158.155
158.486
158.962
159.534
160.149
160.738
161.262
161.701
162.022
162.265
162.46
162.53
162.439
162.365
162.364
162.438
162.53
162.46
162.265
162.022
161.7
161.261
160.737
160.149
159.533
158.961
158.485
158.154
158.006
65.7191
65.8587
66.3256
67.117
68.0857
69.1368
70.1911
71.197
72.0845
72.8251
73.44
73.9037
74.1917
74.3898
74.4631
74.4631
74.3894
74.1918
73.9034
73.4394
72.8245
72.0838
71.196
70.19
69.1359
68.0843
67.1159
66.3244
65.8563
65.7177
9.03617
8.92374
9.03187
9.41788
9.92438
10.5178
11.2031
11.9282
12.5872
13.1594
13.6618
14.0453
14.2863
14.4777
14.5895
14.5894
14.4772
14.2853
14.0442
13.6606
13.158
12.5859
11.927
11.2019
10.5167
9.92337
9.41724
9.0311
8.9227
9.03586
-4.34826
-4.44107
-4.56472
-4.67521
-4.76737
-4.84604
-4.90191
-4.942
-4.96778
-4.96762
-4.95167
-4.93121
-4.90795
-4.89188
-4.88755
-4.88756
-4.89186
-4.90795
-4.93125
-4.95173
-4.96769
-4.96776
-4.9419
-4.90184
-4.84594
-4.76726
-4.67504
-4.56458
-4.44081
-4.3479
-5.06257
-5.08389
-5.11242
-5.14035
-5.16215
-5.17884
-5.19267
-5.2032
-5.21075
-5.21725
-5.22065
-5.22257
-5.22618
-5.22854
-5.22841
-5.22836
-5.22844
-5.22608
-5.22251
-5.2206
-5.21718
-5.21068
-5.20309
-5.19254
-5.17876
-5.16205
-5.14022
-5.11229
-5.08376
-5.06225
-5.30519
-5.30678
-5.30714
-5.30828
-5.30946
-5.31103
-5.31305
-5.31507
-5.31718
-5.31962
-5.32268
-5.32481
-5.32457
-5.32396
-5.32397
-5.32394
-5.32388
-5.32447
-5.3247
-5.3226
-5.31954
-5.3171
-5.31499
-5.31295
-5.31093
-5.30936
-5.30819
-5.30706
-5.30677
-5.30516
-5.42363
-5.42202
-5.41796
-5.4139
-5.41073
-5.40878
-5.40807
-5.40831
-5.4092
-5.41073
-5.4128
-5.41412
-5.41443
-5.41425
-5.4141
-5.41407
-5.41419
-5.41433
-5.41401
-5.41272
-5.41067
-5.40911
-5.40822
-5.40801
-5.40867
-5.41063
-5.41382
-5.41789
-5.42201
-5.42366
-5.51438
-5.5129
-5.50981
-5.50638
-5.5034
-5.50116
-5.49982
-5.4993
-5.49941
-5.5001
-5.50118
-5.50216
-5.50282
-5.50287
-5.50281
-5.5028
-5.50282
-5.50273
-5.50207
-5.50111
-5.50002
-5.49932
-5.49921
-5.49974
-5.50107
-5.50329
-5.50631
-5.50981
-5.51292
-5.51442
-5.60265
-5.6015
-5.59939
-5.59691
-5.59459
-5.59268
-5.59132
-5.59043
-5.58999
-5.58997
-5.59028
-5.5908
-5.59126
-5.59144
-5.59174
-5.59173
-5.5914
-5.59118
-5.59071
-5.5902
-5.58987
-5.5899
-5.59033
-5.59122
-5.5926
-5.59449
-5.59685
-5.59936
-5.60152
-5.60268
-5.69192
-5.69108
-5.68961
-5.68783
-5.68603
-5.68447
-5.68319
-5.68218
-5.68146
-5.68098
-5.68074
-5.68067
-5.6807
-5.6808
-5.68093
-5.68092
-5.68077
-5.68065
-5.68058
-5.68064
-5.68088
-5.68136
-5.68209
-5.68308
-5.68437
-5.68597
-5.68777
-5.68958
-5.69108
-5.69195
-5.78266
-5.78204
-5.78097
-5.77965
-5.77827
-5.77691
-5.77568
-5.77464
-5.77378
-5.77309
-5.77255
-5.7721
-5.77175
-5.77155
-5.77145
-5.77143
-5.7715
-5.77168
-5.772
-5.77241
-5.77294
-5.77364
-5.77451
-5.77557
-5.77679
-5.77816
-5.77959
-5.78094
-5.78202
-5.78265
-5.87465
-5.87418
-5.87338
-5.87232
-5.87116
-5.86994
-5.86878
-5.86772
-5.86678
-5.86597
-5.86526
-5.86466
-5.86417
-5.8638
-5.86358
-5.86357
-5.86376
-5.86409
-5.86455
-5.86512
-5.86581
-5.86665
-5.86763
-5.86872
-5.86987
-5.87107
-5.87225
-5.87332
-5.87416
-5.87464
-5.96763
-5.96724
-5.96658
-5.96575
-5.96469
-5.96361
-5.96253
-5.96148
-5.96048
-5.95957
-5.95878
-5.95811
-5.95756
-5.95714
-5.9569
-5.95689
-5.95711
-5.95747
-5.95799
-5.95864
-5.95943
-5.96035
-5.96136
-5.96244
-5.96352
-5.96458
-5.9656
-5.96651
-5.9672
-5.96759
-6.06134
-6.06103
-6.06047
-6.05969
-6.05878
-6.05782
-6.0568
-6.05577
-6.05477
-6.05382
-6.05298
-6.05227
-6.05168
-6.05125
-6.05102
-6.05102
-6.05122
-6.05161
-6.05217
-6.05287
-6.05369
-6.05461
-6.05562
-6.05667
-6.0577
-6.05869
-6.0596
-6.06038
-6.06095
-6.06126
-6.15562
-6.15539
-6.15488
-6.15417
-6.15338
-6.15249
-6.15153
-6.15054
-6.14955
-6.14861
-6.14778
-6.14704
-6.14643
-6.14601
-6.14579
-6.1458
-6.14602
-6.14642
-6.14698
-6.14767
-6.14848
-6.1494
-6.1504
-6.15142
-6.15241
-6.15333
-6.15414
-6.1548
-6.15527
-6.15553
-6.25058
-6.2503
-6.24983
-6.24924
-6.24848
-6.24765
-6.24677
-6.24584
-6.24491
-6.24403
-6.2432
-6.24246
-6.24186
-6.24145
-6.24124
-6.24124
-6.24144
-6.24182
-6.24235
-6.24303
-6.24383
-6.24472
-6.24567
-6.24663
-6.24755
-6.24838
-6.24911
-6.2497
-6.25013
-6.25036
-6.34582
-6.34561
-6.34521
-6.34464
-6.34395
-6.34321
-6.34239
-6.34154
-6.34068
-6.33985
-6.33906
-6.33836
-6.3378
-6.3374
-6.33719
-6.33718
-6.33735
-6.3377
-6.3382
-6.33884
-6.33959
-6.34043
-6.34132
-6.34223
-6.34308
-6.34386
-6.34453
-6.34507
-6.34545
-6.34565
-6.44152
-6.44135
-6.44097
-6.44041
-6.4398
-6.43911
-6.43836
-6.43758
-6.43679
-6.43599
-6.43525
-6.43462
-6.43412
-6.43376
-6.43356
-6.43354
-6.4337
-6.43401
-6.43446
-6.43506
-6.43578
-6.43658
-6.43741
-6.43823
-6.43901
-6.43973
-6.44035
-6.44084
-6.44118
-6.44134
-6.5376
-6.53744
-6.53706
-6.53661
-6.53608
-6.53545
-6.53477
-6.53404
-6.53327
-6.53252
-6.53185
-6.53128
-6.53083
-6.5305
-6.53033
-6.53032
-6.53046
-6.53073
-6.53114
-6.53169
-6.53235
-6.53308
-6.53383
-6.53457
-6.53529
-6.53595
-6.53652
-6.53695
-6.53723
-6.53737
-6.63395
-6.63378
-6.63348
-6.63312
-6.63264
-6.63208
-6.63145
-6.63076
-6.63004
-6.62935
-6.62874
-6.62823
-6.62782
-6.62753
-6.62738
-6.62737
-6.62748
-6.62771
-6.62807
-6.62858
-6.62918
-6.62985
-6.63054
-6.63122
-6.63188
-6.63247
-6.63296
-6.63333
-6.63358
-6.6337
-6.73049
-6.73033
-6.73012
-6.72982
-6.7294
-6.7289
-6.72833
-6.7277
-6.72705
-6.72643
-6.72588
-6.72542
-6.72507
-6.72483
-6.72469
-6.72465
-6.72472
-6.72493
-6.72528
-6.72575
-6.7263
-6.7269
-6.72751
-6.72812
-6.7287
-6.72922
-6.72966
-6.72999
-6.73022
-6.73033
-6.82729
-6.82721
-6.82706
-6.82679
-6.82641
-6.82595
-6.82542
-6.82485
-6.82428
-6.82374
-6.82326
-6.82287
-6.82258
-6.82236
-6.82222
-6.82217
-6.82223
-6.82242
-6.82274
-6.82316
-6.82363
-6.82415
-6.82468
-6.82522
-6.82574
-6.82621
-6.8266
-6.8269
-6.8271
-6.82719
-6.92441
-6.92436
-6.92419
-6.92393
-6.92358
-6.92316
-6.92269
-6.9222
-6.92171
-6.92124
-6.92082
-6.92048
-6.92021
-6.92001
-6.91987
-6.91982
-6.91989
-6.92007
-6.92035
-6.9207
-6.9211
-6.92155
-6.92203
-6.92251
-6.92297
-6.92339
-6.92373
-6.92399
-6.92417
-6.92426
-7.02168
-7.0216
-7.02143
-7.02119
-7.02088
-7.02051
-7.02011
-7.01969
-7.01926
-7.01885
-7.01847
-7.01816
-7.01791
-7.01772
-7.01761
-7.01758
-7.01765
-7.01782
-7.01805
-7.01834
-7.01869
-7.01908
-7.0195
-7.01993
-7.02034
-7.0207
-7.02101
-7.02126
-7.02142
-7.02151
-7.11907
-7.11899
-7.11887
-7.11866
-7.11838
-7.11804
-7.11767
-7.11728
-7.11689
-7.11652
-7.11619
-7.11591
-7.11568
-7.11552
-7.11544
-7.11544
-7.11551
-7.11565
-7.11584
-7.11608
-7.11638
-7.11672
-7.1171
-7.11748
-7.11784
-7.11818
-7.11846
-7.11869
-7.11884
-7.11892
-7.21661
-7.21658
-7.21647
-7.21627
-7.21601
-7.21569
-7.21535
-7.21499
-7.21465
-7.21432
-7.21402
-7.21376
-7.21356
-7.21342
-7.21337
-7.21338
-7.21345
-7.21357
-7.21373
-7.21394
-7.2142
-7.2145
-7.21483
-7.21517
-7.2155
-7.21579
-7.21605
-7.21624
-7.21637
-7.21643
-7.31425
-7.31423
-7.31411
-7.31393
-7.3137
-7.31344
-7.31314
-7.31283
-7.31252
-7.31223
-7.31196
-7.31172
-7.31153
-7.31142
-7.31138
-7.3114
-7.31147
-7.31157
-7.31171
-7.3119
-7.31212
-7.31238
-7.31267
-7.31295
-7.31323
-7.31348
-7.31369
-7.31386
-7.31397
-7.31402
-7.41192
-7.41186
-7.41175
-7.41162
-7.41144
-7.41122
-7.41096
-7.41068
-7.41041
-7.41015
-7.40991
-7.4097
-7.40954
-7.40945
-7.40942
-7.40944
-7.40949
-7.40957
-7.40969
-7.40985
-7.41005
-7.41027
-7.41051
-7.41075
-7.41098
-7.41119
-7.41138
-7.41152
-7.41163
-7.41168
-7.50958
-7.50951
-7.50945
-7.50935
-7.5092
-7.50899
-7.50876
-7.50851
-7.50827
-7.50805
-7.50785
-7.50768
-7.50755
-7.50747
-7.50743
-7.50743
-7.50746
-7.50753
-7.50764
-7.50779
-7.50797
-7.50816
-7.50837
-7.50858
-7.50878
-7.50897
-7.50913
-7.50926
-7.50935
-7.5094
-7.6073
-7.60728
-7.60723
-7.60713
-7.60697
-7.60678
-7.60658
-7.60638
-7.60618
-7.60599
-7.60582
-7.60568
-7.60558
-7.6055
-7.60545
-7.60543
-7.60545
-7.60551
-7.60561
-7.60575
-7.60592
-7.6061
-7.60628
-7.60646
-7.60663
-7.6068
-7.60694
-7.60705
-7.60713
-7.60717
-7.70514
-7.70513
-7.70506
-7.70495
-7.7048
-7.70463
-7.70446
-7.70429
-7.70412
-7.70396
-7.70382
-7.7037
-7.70361
-7.70353
-7.70348
-7.70346
-7.70348
-7.70354
-7.70364
-7.70377
-7.70391
-7.70406
-7.70422
-7.70437
-7.70452
-7.70465
-7.70478
-7.70487
-7.70494
-7.70497
-7.80302
-7.80299
-7.80292
-7.80281
-7.80267
-7.80252
-7.80237
-7.80222
-7.80206
-7.80192
-7.80179
-7.8017
-7.80162
-7.80155
-7.80152
-7.80151
-7.80153
-7.80159
-7.80168
-7.80179
-7.80191
-7.80203
-7.80216
-7.80228
-7.8024
-7.80252
-7.80263
-7.80271
-7.80276
-7.80278
-7.90086
-7.90084
-7.90077
-7.90067
-7.90054
-7.90041
-7.90027
-7.90012
-7.89999
-7.89986
-7.89976
-7.89968
-7.89961
-7.89957
-7.89954
-7.89955
-7.89958
-7.89964
-7.89971
-7.8998
-7.89989
-7.89999
-7.90009
-7.9002
-7.9003
-7.9004
-7.90048
-7.90055
-7.90059
-7.9006
-7.99867
-7.99866
-7.99859
-7.99849
-7.99838
-7.99826
-7.99815
-7.99803
-7.99793
-7.99783
-7.99775
-7.99768
-7.99763
-7.99759
-7.99758
-7.99759
-7.99762
-7.99767
-7.99773
-7.9978
-7.99787
-7.99795
-7.99803
-7.99812
-7.9982
-7.99827
-7.99833
-7.99838
-7.9984
-7.99841
-8.09646
-8.09644
-8.09637
-8.09628
-8.0962
-8.09611
-8.09603
-8.09596
-8.09589
-8.09582
-8.09576
-8.09571
-8.09566
-8.09562
-8.09561
-8.09561
-8.09563
-8.09567
-8.09572
-8.09577
-8.09583
-8.0959
-8.09597
-8.09603
-8.09609
-8.09614
-8.09618
-8.0962
-8.09622
-8.09622
-8.19423
-8.19419
-8.19413
-8.19408
-8.19403
-8.19398
-8.19393
-8.19389
-8.19385
-8.19381
-8.19376
-8.19371
-8.19366
-8.19363
-8.19361
-8.1936
-8.19361
-8.19364
-8.19368
-8.19373
-8.19378
-8.19383
-8.19389
-8.19394
-8.19398
-8.19401
-8.19403
-8.19404
-8.19405
-8.19405
-8.29199
-8.29195
-8.29193
-8.29192
-8.29191
-8.29189
-8.29186
-8.29183
-8.29181
-8.29177
-8.29173
-8.29169
-8.29165
-8.29161
-8.29159
-8.29159
-8.2916
-8.29162
-8.29165
-8.29169
-8.29173
-8.29178
-8.29182
-8.29186
-8.29188
-8.2919
-8.29191
-8.29192
-8.29193
-8.29193
-8.38983
-8.38982
-8.38983
-8.38984
-8.38984
-8.38983
-8.38981
-8.38979
-8.38977
-8.38974
-8.38971
-8.38967
-8.38964
-8.38961
-8.3896
-8.38959
-8.3896
-8.38962
-8.38965
-8.38968
-8.38972
-8.38976
-8.38979
-8.38981
-8.38983
-8.38984
-8.38984
-8.38985
-8.38985
-8.38986
-8.48777
-8.48779
-8.4878
-8.48781
-8.48781
-8.4878
-8.48779
-8.48777
-8.48775
-8.48772
-8.48769
-8.48767
-8.48764
-8.48762
-8.48761
-8.48762
-8.48762
-8.48764
-8.48767
-8.4877
-8.48773
-8.48775
-8.48778
-8.48779
-8.4878
-8.48781
-8.48781
-8.48782
-8.48782
-8.48782
-8.58577
-8.58579
-8.58579
-8.58579
-8.58578
-8.58578
-8.58577
-8.58576
-8.58574
-8.58571
-8.58568
-8.58566
-8.58563
-8.58562
-8.58561
-8.58562
-8.58563
-8.58564
-8.58567
-8.58569
-8.58572
-8.58574
-8.58576
-8.58578
-8.58579
-8.58579
-8.5858
-8.5858
-8.58581
-8.58581
-8.68377
-8.68377
-8.68376
-8.68376
-8.68376
-8.68376
-8.68376
-8.68374
-8.68372
-8.68368
-8.68365
-8.68362
-8.68359
-8.68358
-8.68357
-8.68357
-8.68359
-8.6836
-8.68363
-8.68365
-8.68368
-8.6837
-8.68373
-8.68375
-8.68376
-8.68378
-8.68379
-8.6838
-8.68381
-8.68382
-8.78174
-8.78173
-8.78172
-8.78173
-8.78174
-8.78175
-8.78174
-8.78171
-8.78168
-8.78163
-8.78159
-8.78155
-8.78153
-8.78151
-8.7815
-8.7815
-8.78152
-8.78154
-8.78156
-8.78159
-8.78162
-8.78165
-8.78168
-8.78171
-8.78174
-8.78177
-8.78179
-8.78181
-8.78182
-8.78183
-8.87972
-8.87971
-8.87972
-8.87973
-8.87974
-8.87973
-8.8797
-8.87966
-8.87961
-8.87957
-8.87952
-8.87948
-8.87945
-8.87944
-8.87943
-8.87943
-8.87944
-8.87947
-8.87949
-8.87953
-8.87956
-8.8796
-8.87964
-8.87969
-8.87973
-8.87977
-8.8798
-8.87983
-8.87984
-8.87985
-8.97773
-8.97774
-8.97775
-8.97775
-8.97773
-8.9777
-8.97765
-8.9776
-8.97755
-8.97749
-8.97745
-8.97742
-8.97739
-8.97738
-8.97737
-8.97737
-8.97739
-8.97741
-8.97744
-8.97747
-8.97752
-8.97756
-8.97762
-8.97767
-8.97772
-8.97777
-8.97781
-8.97784
-8.97786
-8.97787
-9.07578
-9.07579
-9.07579
-9.07576
-9.07572
-9.07566
-9.0756
-9.07553
-9.07548
-9.07543
-9.07539
-9.07536
-9.07534
-9.07532
-9.07532
-9.07532
-9.07533
-9.07535
-9.07538
-9.07542
-9.07547
-9.07553
-9.07558
-9.07564
-9.0757
-9.07576
-9.0758
-9.07583
-9.07585
-9.07586
-9.17381
-9.17382
-9.17379
-9.17375
-9.17368
-9.17361
-9.17354
-9.17347
-9.17342
-9.17337
-9.17333
-9.1733
-9.17328
-9.17326
-9.17326
-9.17326
-9.17327
-9.17329
-9.17333
-9.17337
-9.17342
-9.17348
-9.17354
-9.17361
-9.17367
-9.17373
-9.17377
-9.17381
-9.17383
-9.17383
-9.27179
-9.27179
-9.27175
-9.2717
-9.27163
-9.27156
-9.27149
-9.27143
-9.27137
-9.27132
-9.27128
-9.27125
-9.27122
-9.2712
-9.27119
-9.27119
-9.2712
-9.27123
-9.27126
-9.27131
-9.27136
-9.27142
-9.27149
-9.27155
-9.27162
-9.27168
-9.27172
-9.27176
-9.27178
-9.27178
-9.36971
-9.3697
-9.36967
-9.36962
-9.36957
-9.36951
-9.36945
-9.36939
-9.36934
-9.36929
-9.36924
-9.3692
-9.36917
-9.36914
-9.36913
-9.36913
-9.36914
-9.36916
-9.3692
-9.36924
-9.3693
-9.36936
-9.36943
-9.36949
-9.36955
-9.36961
-9.36965
-9.36969
-9.36971
-9.36971
-9.46759
-9.46758
-9.46756
-9.46753
-9.46749
-9.46745
-9.4674
-9.46736
-9.46731
-9.46726
-9.46721
-9.46716
-9.46712
-9.4671
-9.46708
-9.46708
-9.46709
-9.46711
-9.46714
-9.46719
-9.46724
-9.4673
-9.46736
-9.46742
-9.46747
-9.46752
-9.46756
-9.46759
-9.46761
-9.46761
-9.56543
-9.56543
-9.56542
-9.56541
-9.56539
-9.56537
-9.56534
-9.5653
-9.56526
-9.56521
-9.56517
-9.56512
-9.56509
-9.56506
-9.56505
-9.56504
-9.56505
-9.56507
-9.5651
-9.56514
-9.56518
-9.56523
-9.56528
-9.56533
-9.56537
-9.56541
-9.56544
-9.56547
-9.56548
-9.56548
-9.66327
-9.66327
-9.66327
-9.66327
-9.66326
-9.66325
-9.66323
-9.6632
-9.66317
-9.66314
-9.66311
-9.66308
-9.66306
-9.66304
-9.66303
-9.66302
-9.66303
-9.66304
-9.66306
-9.66309
-9.66312
-9.66315
-9.66318
-9.66321
-9.66324
-9.66327
-9.66329
-9.6633
-9.66331
-9.66331
-9.76109
-9.76109
-9.7611
-9.7611
-9.76109
-9.76109
-9.76108
-9.76108
-9.76106
-9.76105
-9.76104
-9.76103
-9.76102
-9.76101
-9.76101
-9.76101
-9.76101
-9.76101
-9.76102
-9.76103
-9.76104
-9.76105
-9.76107
-9.76108
-9.76109
-9.7611
-9.7611
-9.76111
-9.76111
-9.76111
4849.42
4849.42
4849.42
4849.42
4849.42
4849.42
4849.42
4849.42
4849.42
4849.42
4849.42
4849.42
4849.42
4849.42
4849.42
4849.42
4849.42
4849.42
4849.41
4849.41
4849.41
4849.41
4849.41
4849.41
4849.41
4849.41
4849.41
4849.41
4849.41
4849.41
4751.32
4751.32
4751.32
4751.32
4751.32
4751.32
4751.32
4751.32
4751.32
4751.32
4751.32
4751.32
4751.32
4751.32
4751.31
4751.31
4751.31
4751.31
4751.31
4751.31
4751.31
4751.31
4751.31
4751.31
4751.31
4751.31
4751.31
4751.31
4751.31
4751.31
4653.22
4653.22
4653.22
4653.22
4653.22
4653.22
4653.22
4653.22
4653.22
4653.22
4653.21
4653.21
4653.21
4653.21
4653.21
4653.21
4653.21
4653.21
4653.21
4653.21
4653.21
4653.21
4653.21
4653.21
4653.21
4653.21
4653.21
4653.21
4653.21
4653.21
4555.12
4555.12
4555.12
4555.12
4555.12
4555.12
4555.11
4555.11
4555.11
4555.11
4555.11
4555.11
4555.11
4555.11
4555.11
4555.11
4555.11
4555.11
4555.11
4555.11
4555.11
4555.11
4555.11
4555.11
4555.11
4555.11
4555.11
4555.11
4555.11
4555.11
4457.02
4457.02
4457.02
4457.01
4457.01
4457.01
4457.01
4457.01
4457.01
4457.01
4457.01
4457.01
4457.01
4457.01
4457.01
4457.01
4457.01
4457.01
4457.01
4457.01
4457.01
4457.01
4457.01
4457.01
4457.01
4457.01
4457.01
4457.01
4457.01
4457.01
4358.91
4358.91
4358.91
4358.91
4358.91
4358.91
4358.91
4358.91
4358.91
4358.91
4358.91
4358.91
4358.91
4358.91
4358.91
4358.9
4358.9
4358.9
4358.91
4358.91
4358.91
4358.91
4358.91
4358.91
4358.91
4358.91
4358.91
4358.91
4358.91
4358.91
4260.81
4260.81
4260.81
4260.81
4260.81
4260.81
4260.81
4260.8
4260.8
4260.8
4260.8
4260.8
4260.8
4260.8
4260.8
4260.8
4260.8
4260.8
4260.8
4260.8
4260.8
4260.8
4260.81
4260.81
4260.81
4260.81
4260.81
4260.81
4260.81
4260.81
4162.71
4162.71
4162.71
4162.71
4162.71
4162.7
4162.7
4162.7
4162.7
4162.7
4162.7
4162.7
4162.7
4162.7
4162.7
4162.7
4162.7
4162.7
4162.7
4162.7
4162.7
4162.7
4162.7
4162.7
4162.7
4162.7
4162.7
4162.71
4162.71
4162.71
4064.6
4064.6
4064.6
4064.6
4064.6
4064.6
4064.6
4064.6
4064.6
4064.59
4064.59
4064.59
4064.59
4064.59
4064.59
4064.59
4064.59
4064.59
4064.59
4064.6
4064.6
4064.6
4064.6
4064.6
4064.6
4064.6
4064.6
4064.6
4064.6
4064.6
3966.5
3966.5
3966.5
3966.5
3966.5
3966.5
3966.5
3966.5
3966.49
3966.49
3966.49
3966.49
3966.49
3966.49
3966.49
3966.49
3966.49
3966.49
3966.49
3966.49
3966.5
3966.5
3966.5
3966.5
3966.5
3966.5
3966.5
3966.5
3966.5
3966.5
3868.4
3868.4
3868.4
3868.4
3868.4
3868.4
3868.4
3868.39
3868.39
3868.39
3868.39
3868.39
3868.39
3868.39
3868.39
3868.39
3868.39
3868.39
3868.39
3868.39
3868.4
3868.4
3868.4
3868.4
3868.4
3868.4
3868.4
3868.41
3868.41
3868.41
3770.3
3770.3
3770.3
3770.3
3770.3
3770.3
3770.3
3770.29
3770.29
3770.29
3770.29
3770.29
3770.29
3770.29
3770.29
3770.29
3770.29
3770.29
3770.29
3770.29
3770.3
3770.3
3770.3
3770.3
3770.3
3770.31
3770.31
3770.31
3770.31
3770.31
3672.2
3672.2
3672.2
3672.2
3672.2
3672.2
3672.2
3672.2
3672.19
3672.19
3672.19
3672.19
3672.19
3672.19
3672.19
3672.19
3672.19
3672.19
3672.19
3672.19
3672.19
3672.2
3672.2
3672.2
3672.21
3672.21
3672.21
3672.21
3672.21
3672.21
3574.1
3574.1
3574.1
3574.1
3574.1
3574.1
3574.1
3574.1
3574.1
3574.09
3574.09
3574.09
3574.09
3574.09
3574.09
3574.08
3574.09
3574.09
3574.09
3574.09
3574.09
3574.1
3574.1
3574.1
3574.11
3574.11
3574.11
3574.12
3574.12
3574.12
3476.01
3476.01
3476.01
3476.01
3476.01
3476.01
3476
3476
3476
3475.99
3475.99
3475.99
3475.99
3475.98
3475.98
3475.98
3475.98
3475.98
3475.99
3475.99
3475.99
3476
3476
3476.01
3476.01
3476.02
3476.02
3476.02
3476.02
3476.02
3377.92
3377.92
3377.92
3377.92
3377.92
3377.91
3377.91
3377.9
3377.9
3377.9
3377.89
3377.89
3377.88
3377.88
3377.88
3377.88
3377.88
3377.88
3377.88
3377.89
3377.89
3377.9
3377.9
3377.91
3377.91
3377.92
3377.92
3377.93
3377.93
3377.93
3279.84
3279.84
3279.84
3279.83
3279.83
3279.82
3279.82
3279.81
3279.8
3279.8
3279.79
3279.79
3279.78
3279.78
3279.78
3279.78
3279.78
3279.78
3279.78
3279.79
3279.79
3279.8
3279.81
3279.81
3279.82
3279.83
3279.83
3279.84
3279.84
3279.84
3181.76
3181.75
3181.75
3181.75
3181.74
3181.73
3181.72
3181.72
3181.71
3181.7
3181.69
3181.69
3181.68