/*--------------------------------*- C++ -*----------------------------------*\
| =========                 |                                                 |
| \\      /  F ield         | OpenFOAM: The Open Source CFD Toolbox           |
|  \\    /   O peration     | Version:  2312                                  |
|   \\  /    A nd           | Website:  www.openfoam.com                      |
|    \\/     M anipulation  |                                                 |
\*---------------------------------------------------------------------------*/
FoamFile
{
    version     2.0;
    format      ascii;
    arch        "LSB;label=32;scalar=64";
    class       volScalarField;
    location    "0.648989";
    object      p_rgh;
}
// * * * * * * * * * * * * * * * * * * * * * * * * * * * * * * * * * * * * * //

dimensions      [1 -1 -2 0 0 0 0];

internalField   nonuniform List<scalar> 
90000
(
4898.47
4898.47
4898.47
4898.47
4898.47
4898.47
4898.47
4898.47
4898.47
4898.47
4898.47
4898.47
4898.47
4898.47
4898.47
4898.47
4898.47
4898.47
4898.47
4898.46
4898.46
4898.46
4898.46
4898.46
4898.46
4898.46
4898.46
4898.46
4898.46
4898.47
4898.47
4898.47
4898.47
4898.47
4898.47
4898.47
4898.47
4898.47
4898.47
4898.47
4898.47
4898.47
4898.47
4898.47
4898.47
4898.47
4898.47
4898.47
4898.47
4898.46
4898.46
4898.46
4898.46
4898.46
4898.46
4898.46
4898.47
4898.47
4898.47
4898.49
4898.47
4898.47
4898.47
4898.47
4898.47
4898.47
4898.47
4898.47
4898.47
4898.47
4898.47
4898.47
4898.47
4898.47
4898.47
4898.47
4898.47
4898.46
4898.46
4898.46
4898.46
4898.46
4898.46
4898.46
4898.46
4898.46
4898.46
4898.45
4898.44
4898.47
4898.47
4898.47
4898.47
4898.47
4898.47
4898.47
4898.47
4898.47
4898.47
4898.47
4898.47
4898.47
4898.47
4898.46
4898.46
4898.46
4898.46
4898.46
4898.46
4898.46
4898.46
4898.46
4898.46
4898.46
4898.46
4898.46
4898.47
4898.47
4898.45
4898.46
4898.47
4898.47
4898.47
4898.47
4898.47
4898.47
4898.47
4898.47
4898.47
4898.47
4898.46
4898.46
4898.46
4898.46
4898.46
4898.46
4898.46
4898.46
4898.46
4898.46
4898.46
4898.46
4898.46
4898.46
4898.46
4898.46
4898.45
4898.46
4898.45
4898.45
4898.47
4898.47
4898.47
4898.47
4898.47
4898.47
4898.46
4898.46
4898.46
4898.46
4898.46
4898.46
4898.46
4898.46
4898.46
4898.46
4898.46
4898.46
4898.46
4898.46
4898.46
4898.46
4898.46
4898.46
4898.46
4898.45
4898.45
4898.45
4898.45
4898.45
4898.47
4898.47
4898.47
4898.47
4898.47
4898.46
4898.46
4898.46
4898.46
4898.46
4898.46
4898.46
4898.46
4898.46
4898.46
4898.46
4898.46
4898.46
4898.46
4898.46
4898.46
4898.46
4898.46
4898.46
4898.45
4898.45
4898.45
4898.45
4898.44
4898.45
4898.47
4898.48
4898.47
4898.47
4898.46
4898.46
4898.46
4898.45
4898.45
4898.45
4898.45
4898.45
4898.45
4898.46
4898.46
4898.46
4898.46
4898.46
4898.45
4898.45
4898.45
4898.45
4898.45
4898.45
4898.45
4898.45
4898.45
4898.45
4898.45
4898.45
4898.47
4898.48
4898.47
4898.47
4898.47
4898.46
4898.45
4898.45
4898.44
4898.44
4898.44
4898.44
4898.44
4898.45
4898.45
4898.45
4898.45
4898.45
4898.45
4898.45
4898.45
4898.45
4898.45
4898.45
4898.45
4898.45
4898.45
4898.45
4898.45
4898.46
4898.47
4898.49
4898.48
4898.48
4898.47
4898.46
4898.45
4898.44
4898.44
4898.43
4898.43
4898.43
4898.43
4898.44
4898.44
4898.44
4898.45
4898.44
4898.44
4898.44
4898.45
4898.45
4898.45
4898.45
4898.45
4898.45
4898.45
4898.45
4898.46
4898.46
4898.48
4898.5
4898.49
4898.49
4898.48
4898.47
4898.46
4898.44
4898.43
4898.42
4898.42
4898.42
4898.42
4898.42
4898.43
4898.43
4898.43
4898.44
4898.44
4898.44
4898.45
4898.45
4898.45
4898.45
4898.45
4898.45
4898.45
4898.46
4898.46
4898.46
4898.48
4898.51
4898.5
4898.49
4898.48
4898.47
4898.46
4898.44
4898.43
4898.42
4898.42
4898.41
4898.41
4898.41
4898.41
4898.42
4898.42
4898.43
4898.44
4898.45
4898.45
4898.46
4898.46
4898.46
4898.46
4898.46
4898.47
4898.47
4898.47
4898.47
4898.49
4898.5
4898.5
4898.49
4898.48
4898.47
4898.45
4898.44
4898.43
4898.43
4898.42
4898.41
4898.41
4898.41
4898.41
4898.41
4898.42
4898.43
4898.44
4898.45
4898.46
4898.46
4898.47
4898.47
4898.47
4898.48
4898.48
4898.48
4898.48
4898.48
4898.49
4898.48
4898.47
4898.46
4898.46
4898.45
4898.44
4898.44
4898.44
4898.44
4898.43
4898.42
4898.42
4898.41
4898.41
4898.41
4898.42
4898.43
4898.45
4898.46
4898.47
4898.47
4898.48
4898.48
4898.49
4898.49
4898.49
4898.48
4898.48
4898.47
4898.47
4898.43
4898.43
4898.43
4898.43
4898.43
4898.44
4898.44
4898.45
4898.45
4898.45
4898.44
4898.43
4898.42
4898.42
4898.42
4898.42
4898.43
4898.45
4898.46
4898.47
4898.48
4898.48
4898.49
4898.49
4898.49
4898.48
4898.48
4898.47
4898.46
4898.45
4898.39
4898.39
4898.4
4898.41
4898.42
4898.43
4898.45
4898.46
4898.46
4898.46
4898.45
4898.44
4898.42
4898.42
4898.42
4898.42
4898.43
4898.43
4898.44
4898.46
4898.47
4898.48
4898.48
4898.48
4898.48
4898.47
4898.47
4898.46
4898.46
4898.43
4898.37
4898.38
4898.39
4898.4
4898.42
4898.44
4898.46
4898.46
4898.46
4898.45
4898.44
4898.43
4898.42
4898.41
4898.41
4898.41
4898.41
4898.42
4898.43
4898.44
4898.45
4898.46
4898.47
4898.47
4898.47
4898.46
4898.46
4898.46
4898.47
4898.43
4898.38
4898.4
4898.41
4898.42
4898.44
4898.45
4898.46
4898.46
4898.45
4898.44
4898.43
4898.43
4898.42
4898.41
4898.41
4898.41
4898.41
4898.41
4898.42
4898.43
4898.44
4898.45
4898.45
4898.45
4898.45
4898.45
4898.45
4898.46
4898.48
4898.45
4898.42
4898.43
4898.44
4898.45
4898.46
4898.46
4898.46
4898.46
4898.45
4898.44
4898.44
4898.44
4898.43
4898.42
4898.42
4898.41
4898.41
4898.42
4898.42
4898.43
4898.44
4898.44
4898.44
4898.44
4898.44
4898.45
4898.46
4898.47
4898.47
4898.48
4898.47
4898.48
4898.49
4898.49
4898.49
4898.49
4898.48
4898.47
4898.47
4898.46
4898.46
4898.45
4898.45
4898.44
4898.43
4898.42
4898.42
4898.42
4898.42
4898.43
4898.43
4898.43
4898.44
4898.44
4898.45
4898.47
4898.48
4898.48
4898.48
4898.53
4898.53
4898.53
4898.54
4898.54
4898.54
4898.53
4898.52
4898.51
4898.5
4898.49
4898.48
4898.46
4898.45
4898.43
4898.43
4898.42
4898.43
4898.43
4898.43
4898.43
4898.44
4898.45
4898.46
4898.48
4898.5
4898.51
4898.52
4898.51
4898.53
4898.57
4898.59
4898.59
4898.59
4898.59
4898.58
4898.57
4898.55
4898.53
4898.52
4898.5
4898.48
4898.46
4898.44
4898.43
4898.43
4898.44
4898.44
4898.45
4898.45
4898.45
4898.47
4898.49
4898.51
4898.53
4898.55
4898.56
4898.56
4898.56
4898.57
4898.62
4898.64
4898.64
4898.64
4898.63
4898.62
4898.6
4898.58
4898.55
4898.53
4898.5
4898.47
4898.45
4898.45
4898.45
4898.46
4898.46
4898.47
4898.47
4898.47
4898.49
4898.51
4898.54
4898.57
4898.59
4898.61
4898.61
4898.61
4898.61
4898.61
4898.68
4898.7
4898.7
4898.69
4898.67
4898.65
4898.62
4898.59
4898.57
4898.53
4898.5
4898.48
4898.46
4898.46
4898.47
4898.48
4898.48
4898.48
4898.48
4898.5
4898.53
4898.56
4898.6
4898.63
4898.65
4898.67
4898.67
4898.68
4898.68
4898.7
4898.74
4898.76
4898.75
4898.73
4898.7
4898.67
4898.64
4898.61
4898.58
4898.54
4898.51
4898.48
4898.47
4898.48
4898.48
4898.48
4898.48
4898.49
4898.5
4898.53
4898.57
4898.62
4898.66
4898.69
4898.71
4898.73
4898.75
4898.76
4898.79
4898.8
4898.81
4898.82
4898.79
4898.76
4898.73
4898.69
4898.66
4898.63
4898.59
4898.55
4898.52
4898.5
4898.49
4898.5
4898.5
4898.5
4898.49
4898.51
4898.53
4898.57
4898.62
4898.66
4898.69
4898.72
4898.75
4898.78
4898.8
4898.84
4898.87
4898.84
4898.88
4898.86
4898.83
4898.8
4898.76
4898.72
4898.69
4898.66
4898.61
4898.57
4898.54
4898.53
4898.53
4898.53
4898.52
4898.52
4898.52
4898.54
4898.57
4898.61
4898.64
4898.67
4898.7
4898.74
4898.77
4898.81
4898.85
4898.89
4898.9
4898.86
4898.95
4898.92
4898.89
4898.85
4898.82
4898.78
4898.75
4898.7
4898.65
4898.61
4898.59
4898.58
4898.57
4898.55
4898.54
4898.53
4898.54
4898.56
4898.59
4898.61
4898.64
4898.67
4898.71
4898.76
4898.8
4898.85
4898.91
4898.93
4898.93
4898.95
4899.04
4899
4898.98
4898.95
4898.91
4898.87
4898.81
4898.76
4898.7
4898.66
4898.64
4898.62
4898.59
4898.57
4898.54
4898.54
4898.55
4898.57
4898.59
4898.62
4898.65
4898.7
4898.75
4898.81
4898.86
4898.94
4899
4899.01
4899.05
4899.1
4899.17
4899.14
4899.11
4899.08
4899.03
4898.97
4898.9
4898.83
4898.77
4898.73
4898.7
4898.66
4898.62
4898.58
4898.56
4898.56
4898.58
4898.6
4898.63
4898.67
4898.72
4898.77
4898.82
4898.9
4898.99
4899.06
4899.12
4899.15
4899.22
4899.24
4899.33
4899.31
4899.28
4899.23
4899.17
4899.1
4899.02
4898.94
4898.88
4898.82
4898.77
4898.71
4898.66
4898.62
4898.6
4898.61
4898.63
4898.66
4898.7
4898.75
4898.81
4898.87
4898.93
4899.03
4899.12
4899.18
4899.24
4899.32
4899.36
4899.36
4899.54
4899.52
4899.48
4899.43
4899.36
4899.27
4899.17
4899.07
4898.99
4898.91
4898.83
4898.77
4898.71
4898.68
4898.67
4898.68
4898.7
4898.74
4898.79
4898.84
4898.9
4898.97
4899.06
4899.18
4899.26
4899.31
4899.42
4899.51
4899.53
4899.55
4899.78
4899.77
4899.73
4899.67
4899.58
4899.46
4899.33
4899.21
4899.11
4899.01
4898.92
4898.85
4898.8
4898.77
4898.75
4898.76
4898.78
4898.81
4898.87
4898.92
4898.99
4899.11
4899.22
4899.34
4899.42
4899.52
4899.67
4899.74
4899.76
4899.8
4900.08
4900.08
4900.02
4899.94
4899.82
4899.68
4899.53
4899.4
4899.27
4899.16
4899.06
4898.97
4898.91
4898.87
4898.84
4898.83
4898.86
4898.9
4898.96
4899.03
4899.14
4899.3
4899.42
4899.52
4899.66
4899.81
4899.93
4900
4900.04
4900.08
4900.43
4900.42
4900.35
4900.24
4900.11
4899.95
4899.79
4899.63
4899.48
4899.34
4899.22
4899.11
4899.02
4898.97
4898.93
4898.93
4898.97
4899.01
4899.1
4899.21
4899.36
4899.54
4899.65
4899.79
4899.99
4900.14
4900.24
4900.32
4900.38
4900.42
4900.84
4900.83
4900.74
4900.62
4900.46
4900.29
4900.11
4899.92
4899.74
4899.57
4899.41
4899.28
4899.17
4899.1
4899.08
4899.08
4899.13
4899.18
4899.29
4899.45
4899.61
4899.79
4899.92
4900.14
4900.37
4900.49
4900.6
4900.71
4900.81
4900.85
4901.32
4901.31
4901.2
4901.05
4900.88
4900.69
4900.49
4900.28
4900.05
4899.84
4899.64
4899.49
4899.37
4899.3
4899.28
4899.28
4899.32
4899.38
4899.52
4899.7
4899.86
4900.06
4900.27
4900.53
4900.75
4900.88
4901.05
4901.21
4901.29
4901.33
4901.89
4901.85
4901.73
4901.57
4901.39
4901.18
4900.94
4900.68
4900.42
4900.17
4899.95
4899.77
4899.64
4899.54
4899.5
4899.49
4899.54
4899.63
4899.81
4900.01
4900.18
4900.44
4900.71
4900.97
4901.18
4901.37
4901.59
4901.74
4901.83
4901.9
4902.54
4902.49
4902.37
4902.2
4902
4901.74
4901.46
4901.16
4900.87
4900.6
4900.35
4900.13
4899.96
4899.85
4899.8
4899.78
4899.85
4899.96
4900.16
4900.37
4900.58
4900.9
4901.2
4901.45
4901.71
4901.98
4902.19
4902.34
4902.49
4902.56
4903.31
4903.27
4903.14
4902.94
4902.7
4902.41
4902.1
4901.78
4901.45
4901.14
4900.84
4900.58
4900.4
4900.27
4900.2
4900.18
4900.27
4900.4
4900.63
4900.85
4901.12
4901.47
4901.8
4902.09
4902.42
4902.72
4902.93
4903.15
4903.31
4903.35
4904.23
4904.18
4904.02
4903.81
4903.54
4903.22
4902.88
4902.52
4902.16
4901.8
4901.47
4901.17
4900.96
4900.8
4900.73
4900.72
4900.83
4900.96
4901.2
4901.44
4901.79
4902.18
4902.54
4902.9
4903.26
4903.55
4903.81
4904.06
4904.21
4904.25
4905.28
4905.22
4905.06
4904.82
4904.53
4904.19
4903.82
4903.44
4903.03
4902.63
4902.25
4901.93
4901.7
4901.54
4901.44
4901.4
4901.53
4901.68
4901.96
4902.25
4902.66
4903.06
4903.43
4903.84
4904.21
4904.51
4904.84
4905.05
4905.2
4905.26
4906.49
4906.42
4906.25
4906
4905.7
4905.36
4904.97
4904.55
4904.11
4903.67
4903.27
4902.95
4902.69
4902.49
4902.36
4902.36
4902.5
4902.68
4902.96
4903.3
4903.71
4904.14
4904.55
4904.97
4905.35
4905.69
4906.03
4906.26
4906.44
4906.47
4907.85
4907.76
4907.6
4907.38
4907.08
4906.74
4906.35
4905.92
4905.45
4905.02
4904.6
4904.26
4903.95
4903.75
4903.6
4903.64
4903.76
4903.97
4904.24
4904.62
4905.03
4905.44
4905.88
4906.33
4906.71
4907.1
4907.36
4907.64
4907.76
4907.83
4909.34
4909.26
4909.13
4908.94
4908.68
4908.37
4907.98
4907.58
4907.15
4906.73
4906.3
4905.96
4905.62
4905.43
4905.28
4905.35
4905.45
4905.64
4905.91
4906.3
4906.72
4907.15
4907.6
4907.99
4908.32
4908.69
4908.95
4909.14
4909.25
4909.32
4910.97
4910.92
4910.81
4910.69
4910.49
4910.26
4909.97
4909.64
4909.27
4908.89
4908.5
4908.16
4907.84
4907.65
4907.54
4907.57
4907.66
4907.83
4908.14
4908.52
4908.9
4909.29
4909.66
4909.99
4910.26
4910.48
4910.68
4910.78
4910.9
4910.94
4912.64
4912.65
4912.63
4912.63
4912.57
4912.48
4912.35
4912.18
4911.93
4911.67
4911.37
4911.07
4910.79
4910.6
4910.51
4910.52
4910.6
4910.75
4911.05
4911.38
4911.64
4911.92
4912.14
4912.3
4912.48
4912.56
4912.59
4912.65
4912.61
4912.63
4914.27
4914.35
4914.44
4914.58
4914.77
4914.98
4915.13
4915.24
4915.21
4915.16
4915.07
4914.86
4914.61
4914.46
4914.43
4914.45
4914.47
4914.59
4914.85
4915.07
4915.15
4915.22
4915.22
4915.13
4915
4914.8
4914.6
4914.47
4914.33
4914.28
4915.86
4916.01
4916.34
4916.82
4917.38
4918
4918.59
4919.11
4919.55
4919.87
4920.09
4920.24
4920.25
4920.12
4920.03
4920.05
4920.12
4920.24
4920.25
4920.09
4919.87
4919.55
4919.11
4918.59
4918
4917.38
4916.81
4916.34
4916
4915.86
4386.69
4399.7
4422.16
4444.68
4470.31
4499.99
4523.32
4544.21
4563.72
4579.86
4601.76
4627.97
4645.9
4655.61
4661.4
4661.45
4655.55
4646.04
4628.11
4601.79
4580.01
4563.85
4544.28
4523.38
4500.07
4470.3
4444.66
4422.21
4399.6
4386.69
1302.91
1303.42
1333.92
1390.82
1458.59
1533.4
1612.5
1693.28
1764.59
1821.63
1870.56
1907.21
1926.97
1943.18
1954.81
1954.81
1943.13
1926.88
1907.12
1870.45
1821.52
1764.47
1693.15
1612.38
1533.28
1458.46
1390.72
1333.82
1303.3
1302.83
56.549
48.4207
39.8709
32.8806
26.5495
20.8974
18.1498
16.3608
14.8548
17.0373
19.6286
21.8764
26.0005
29.0635
29.2069
29.1905
29.056
25.9908
21.8656
19.6154
17.0179
14.8515
16.3557
18.1367
20.8948
26.5522
32.888
39.8765
48.4084
56.5605
16.7374
13.6685
9.94383
7.21361
5.25937
3.88728
3.06076
2.45525
2.05029
1.80149
2.27153
2.58477
1.8578
1.41165
1.55711
1.56034
1.41094
1.85742
2.58341
2.27078
1.80125
2.04946
2.4558
3.0608
3.88859
5.26114
7.21512
9.94815
13.6811
16.7475
4.34565
3.72047
2.35802
1.48267
0.917746
0.567322
0.386946
0.329973
0.299367
0.38409
0.482275
0.544
0.584045
0.626041
0.648495
0.648434
0.626351
0.584655
0.544975
0.483073
0.384597
0.300347
0.330639
0.388278
0.567735
0.918087
1.48294
2.3591
3.72567
4.34715
0.71903
0.682991
0.38723
0.193902
0.0837228
0.0209324
-0.00679515
-0.0150453
-0.0179655
0.00366746
0.0234494
0.0479075
0.101377
0.125572
0.132346
0.132412
0.125923
0.101947
0.0487079
0.0239646
0.00423459
-0.0173183
-0.0145577
-0.00619625
0.0212609
0.084094
0.194518
0.388305
0.68517
0.719181
0.0416729
0.0504154
0.0049335
-0.0250889
-0.0400191
-0.047266
-0.0496762
-0.0504143
-0.0509514
-0.0498071
-0.0471111
-0.0422771
-0.0334907
-0.0250656
-0.0188447
-0.0188596
-0.0249696
-0.0332972
-0.0420523
-0.0469496
-0.0496465
-0.0507876
-0.0502639
-0.0495384
-0.0471434
-0.0398668
-0.0249386
0.00521456
0.0509659
0.0415337
-0.0470286
-0.043529
-0.048231
-0.0501311
-0.0500182
-0.0491819
-0.0482069
-0.0474703
-0.0470932
-0.0470183
-0.0471243
-0.0470497
-0.0468464
-0.0462044
-0.0450832
-0.045076
-0.0461679
-0.0467663
-0.0469479
-0.0470305
-0.0469179
-0.0469992
-0.0473683
-0.0481034
-0.0490975
-0.0499194
-0.0500524
-0.0481621
-0.0434316
-0.0470782
-0.0499444
-0.0487209
-0.0480247
-0.0467083
-0.0451285
-0.0436589
-0.0424061
-0.0414121
-0.04069
-0.0402122
-0.0399632
-0.0398875
-0.0398759
-0.0398959
-0.0399027
-0.0398903
-0.0398607
-0.0398172
-0.0397953
-0.0398648
-0.0401144
-0.0405852
-0.0413155
-0.0422994
-0.0435577
-0.0450586
-0.0466422
-0.0479887
-0.0487072
-0.0499702
-0.0437211
-0.0430543
-0.0420563
-0.0407736
-0.0394072
-0.0380546
-0.0368281
-0.0357863
-0.0349263
-0.0342392
-0.0336978
-0.0332486
-0.0328934
-0.0326885
-0.0325862
-0.0325641
-0.0326429
-0.0328282
-0.0331472
-0.0335572
-0.0340899
-0.0347871
-0.0356632
-0.0367187
-0.0379384
-0.0392995
-0.0407085
-0.0420239
-0.0430361
-0.0437101
-0.03769
-0.0372251
-0.036423
-0.0353728
-0.0342113
-0.0329894
-0.0318301
-0.030767
-0.0298257
-0.029015
-0.0283115
-0.0277131
-0.0272229
-0.0268505
-0.0266312
-0.0266203
-0.0268107
-0.0271389
-0.0275959
-0.0281666
-0.0288643
-0.0297023
-0.0306787
-0.0317664
-0.0329225
-0.0341146
-0.0352938
-0.036363
-0.0371985
-0.0376872
-0.0325837
-0.0321877
-0.0315292
-0.0306954
-0.029644
-0.0285648
-0.027484
-0.026426
-0.0254321
-0.0245226
-0.0237258
-0.023056
-0.022505
-0.0220939
-0.0218485
-0.0218402
-0.0220557
-0.0224232
-0.022941
-0.023595
-0.0243843
-0.0252983
-0.0263148
-0.0273869
-0.0284714
-0.0295342
-0.0305503
-0.0314562
-0.0321508
-0.0325359
-0.028191
-0.0278813
-0.0273235
-0.0265403
-0.0256336
-0.0246686
-0.0236508
-0.0226244
-0.0216204
-0.0206715
-0.019832
-0.0191164
-0.0185284
-0.0180972
-0.0178675
-0.0178669
-0.0180746
-0.018463
-0.0190185
-0.0197169
-0.0205374
-0.0214641
-0.022473
-0.023516
-0.0245474
-0.0255367
-0.026451
-0.0272306
-0.0278009
-0.0281055
-0.0243725
-0.0241419
-0.0236321
-0.022919
-0.0221337
-0.021236
-0.0202793
-0.0192896
-0.0182958
-0.0173629
-0.0165256
-0.0157884
-0.0151843
-0.0147593
-0.0145441
-0.0145502
-0.0147669
-0.0151678
-0.0157271
-0.0164205
-0.0172329
-0.018154
-0.0191523
-0.0201723
-0.0211602
-0.0220762
-0.0228856
-0.0235464
-0.0240241
-0.024283
-0.0212308
-0.0209531
-0.0204784
-0.0198854
-0.0191312
-0.018302
-0.017419
-0.0164933
-0.0155637
-0.0146783
-0.0138524
-0.013112
-0.0125137
-0.0120981
-0.0118862
-0.0118866
-0.0120888
-0.0124673
-0.013003
-0.0136798
-0.0144758
-0.0153669
-0.0163177
-0.017278
-0.0181971
-0.0190343
-0.0197625
-0.0203515
-0.0207763
-0.0210071
-0.018374
-0.0181645
-0.0177645
-0.0171922
-0.0165009
-0.0157565
-0.0149425
-0.0140899
-0.0132328
-0.0124007
-0.011609
-0.010909
-0.0103486
-0.00995268
-0.00973994
-0.00972575
-0.00990334
-0.01025
-0.0107498
-0.0113869
-0.0121397
-0.0129803
-0.013875
-0.0147753
-0.0156333
-0.0164101
-0.017081
-0.0176203
-0.0180032
-0.0182044
-0.0159741
-0.0158019
-0.0154241
-0.0148605
-0.014251
-0.0135583
-0.0128095
-0.0120348
-0.0112402
-0.0104414
-0.00970017
-0.00906834
-0.00856681
-0.00820573
-0.008009
-0.00799344
-0.00814901
-0.00845737
-0.00891357
-0.00951292
-0.0102329
-0.0110313
-0.0118606
-0.0126811
-0.0134626
-0.0141787
-0.0148006
-0.015293
-0.015628
-0.0157927
-0.0139496
-0.0137863
-0.0134116
-0.0129596
-0.0124271
-0.0117989
-0.0111198
-0.0103906
-0.00962208
-0.00886879
-0.00819577
-0.00763189
-0.00717992
-0.00685242
-0.00667972
-0.00667104
-0.00680961
-0.00708202
-0.00749197
-0.00804251
-0.008705
-0.00943087
-0.0101785
-0.0109226
-0.0116417
-0.0123032
-0.0128669
-0.0132976
-0.0135801
-0.0137163
-0.0122012
-0.0120319
-0.0117321
-0.0113721
-0.0108921
-0.0103295
-0.00970423
-0.00901356
-0.00829251
-0.00760411
-0.00699445
-0.00647985
-0.00606855
-0.00578073
-0.00563261
-0.00561865
-0.00572616
-0.00595747
-0.00632455
-0.00682641
-0.00743445
-0.0081023
-0.00879054
-0.00947401
-0.0101277
-0.0107177
-0.0112097
-0.011582
-0.0118296
-0.0119549
-0.0106435
-0.0104769
-0.0102735
-0.00996611
-0.00955006
-0.00905424
-0.0084812
-0.00784682
-0.0071951
-0.00657702
-0.00603011
-0.00557282
-0.00521984
-0.00497591
-0.00483591
-0.00479856
-0.00487446
-0.00508154
-0.00542807
-0.00589633
-0.00644919
-0.00704846
-0.00766324
-0.0082711
-0.00884942
-0.00936983
-0.00980581
-0.0101404
-0.0103665
-0.0104816
-0.0093411
-0.00925786
-0.00911034
-0.00883855
-0.00846261
-0.00800301
-0.00747253
-0.00690226
-0.00632922
-0.0057893
-0.00531323
-0.0049238
-0.00462727
-0.00441173
-0.00426942
-0.00421547
-0.00427785
-0.00447289
-0.00479174
-0.00520607
-0.00568258
-0.00619783
-0.00673484
-0.00727429
-0.00779097
-0.00825703
-0.00864761
-0.00894641
-0.00914616
-0.00924499
-0.00835873
-0.00831129
-0.00814466
-0.00787765
-0.00752507
-0.00710557
-0.0066379
-0.00614727
-0.00565896
-0.00519044
-0.00477315
-0.00442944
-0.00416136
-0.0039584
-0.00382147
-0.00377261
-0.00383656
-0.00401764
-0.00429731
-0.00464983
-0.00505499
-0.0055029
-0.00597903
-0.00646249
-0.00692322
-0.00733521
-0.00767848
-0.00794124
-0.00811849
-0.00820843
-0.00753126
-0.00744976
-0.00727916
-0.00703634
-0.0067282
-0.00636282
-0.00595946
-0.00553634
-0.00510971
-0.00469647
-0.00432277
-0.00400871
-0.0037593
-0.00357425
-0.0034608
-0.00343429
-0.00350444
-0.00366535
-0.00390041
-0.00419498
-0.00454088
-0.0049318
-0.00535289
-0.005781
-0.0061889
-0.00655489
-0.00686361
-0.00710502
-0.00727216
-0.00735957
-0.00682486
-0.006743
-0.00661644
-0.0064066
-0.00612625
-0.00578785
-0.00541611
-0.00503056
-0.00464292
-0.00427488
-0.00394231
-0.00365845
-0.00343287
-0.00327467
-0.00319227
-0.00318917
-0.00326099
-0.00339737
-0.00358921
-0.00383308
-0.00412876
-0.00447074
-0.00484538
-0.00522678
-0.00559456
-0.00592844
-0.00621337
-0.00643768
-0.0065918
-0.00666906
-0.00625921
-0.00623083
-0.00611965
-0.00592133
-0.00565632
-0.00534175
-0.0049986
-0.00464416
-0.00429725
-0.00397107
-0.00367299
-0.00341309
-0.00320751
-0.0030726
-0.00301512
-0.00302888
-0.0031006
-0.00321915
-0.00338146
-0.00359053
-0.00384873
-0.00415115
-0.00448255
-0.00482141
-0.00514742
-0.00544345
-0.00569523
-0.00589137
-0.00602299
-0.006085
-0.00580246
-0.00578198
-0.00565507
-0.00547791
-0.0052536
-0.00498719
-0.00468756
-0.00437585
-0.00407036
-0.00377957
-0.00350817
-0.00326912
-0.00308388
-0.00296993
-0.00292978
-0.00295132
-0.00301883
-0.00312317
-0.00326459
-0.00344732
-0.00367223
-0.00393326
-0.00421559
-0.00450266
-0.00477761
-0.00502705
-0.00523985
-0.0054066
-0.0055195
-0.00557344
-0.00537
-0.00530762
-0.00519874
-0.0050665
-0.00489235
-0.00466954
-0.00440748
-0.00413063
-0.00385834
-0.00359853
-0.00335812
-0.00315042
-0.00299485
-0.0029022
-0.00286973
-0.00288533
-0.00293782
-0.00302334
-0.00314462
-0.00330421
-0.00349888
-0.00372257
-0.00396101
-0.0042011
-0.00443176
-0.00464335
-0.00482714
-0.00497474
-0.00507792
-0.00512986
-0.0049257
-0.00486308
-0.00479947
-0.00469893
-0.00454665
-0.00434295
-0.00410694
-0.00386278
-0.00362491
-0.00340023
-0.00319618
-0.00302637
-0.00290031
-0.00282058
-0.00278287
-0.00278103
-0.00281318
-0.00288169
-0.00298942
-0.00313625
-0.00331543
-0.00351334
-0.00372128
-0.00392951
-0.00412982
-0.00431511
-0.00447813
-0.00461072
-0.0047042
-0.00475118
-0.00454741
-0.00452852
-0.0044787
-0.00437533
-0.00422253
-0.00403416
-0.00383085
-0.00362602
-0.00342598
-0.00323777
-0.00307122
-0.00293285
-0.00282518
-0.00274803
-0.0026992
-0.00268113
-0.00269973
-0.00276038
-0.00286376
-0.00300264
-0.00316727
-0.00334633
-0.0035301
-0.00371137
-0.00388498
-0.00404595
-0.00418796
-0.00430309
-0.00438292
-0.00442111
-0.00428831
-0.00428238
-0.00421484
-0.00409939
-0.00394986
-0.00378381
-0.0036134
-0.00344124
-0.00327044
-0.00310957
-0.00296891
-0.00285242
-0.00275866
-0.00268478
-0.00263424
-0.00261367
-0.0026311
-0.00269048
-0.0027882
-0.0029155
-0.0030609
-0.00321443
-0.00336906
-0.00352109
-0.00366774
-0.00380477
-0.00392628
-0.00402424
-0.0040905
-0.0041208
-0.00406668
-0.00404483
-0.00396994
-0.00385746
-0.0037206
-0.00357391
-0.00342223
-0.00326569
-0.00311018
-0.00296702
-0.00284484
-0.00274522
-0.00266545
-0.00260422
-0.00256529
-0.00255614
-0.00258189
-0.00264211
-0.00273076
-0.00283866
-0.00295727
-0.00308056
-0.00320576
-0.00333123
-0.00345466
-0.00357168
-0.00367558
-0.00375823
-0.00381221
-0.00383468
-0.00380991
-0.00378603
-0.0037191
-0.00361505
-0.0034905
-0.00335705
-0.00321726
-0.00307412
-0.00293603
-0.00281274
-0.0027095
-0.00262643
-0.00256193
-0.00251668
-0.00249422
-0.00249859
-0.00253082
-0.00258763
-0.00266268
-0.00274938
-0.00284277
-0.00294053
-0.00304202
-0.00314608
-0.00324941
-0.00334681
-0.00343152
-0.00349648
-0.00353608
-0.0035492
-0.00351934
-0.00350701
-0.00344079
-0.00334109
-0.00322949
-0.00311431
-0.00299751
-0.00288305
-0.00277684
-0.00268295
-0.00260228
-0.0025346
-0.00248075
-0.00244456
-0.00242962
-0.002438
-0.0024684
-0.0025166
-0.00257745
-0.00264648
-0.00272109
-0.00280022
-0.00288299
-0.00296731
-0.00304899
-0.00312318
-0.00318452
-0.00322835
-0.00325223
-0.00325698
-0.00321185
-0.00319134
-0.00311974
-0.00303336
-0.00294702
-0.00286285
-0.00278173
-0.00270642
-0.00263801
-0.00257479
-0.00251468
-0.00245817
-0.00240913
-0.00237359
-0.00235643
-0.0023595
-0.00238134
-0.00241829
-0.00246643
-0.00252241
-0.00258397
-0.0026493
-0.00271591
-0.00278078
-0.00284011
-0.00289019
-0.00292835
-0.00295336
-0.00296555
-0.00296677
-0.00287756
-0.00283712
-0.00277961
-0.00272698
-0.00267826
-0.00263029
-0.00258385
-0.00254084
-0.00249972
-0.00245673
-0.00240959
-0.00235997
-0.00231346
-0.00227694
-0.0022557
-0.00225194
-0.002265
-0.00229242
-0.00233113
-0.00237807
-0.00243029
-0.00248461
-0.0025376
-0.00258571
-0.00262606
-0.00265702
-0.00267843
-0.00269174
-0.00269896
-0.00270167
-0.00254279
-0.00250493
-0.00248423
-0.00247257
-0.00245723
-0.00243554
-0.00241073
-0.00238454
-0.00235575
-0.00232161
-0.00228138
-0.00223791
-0.0021967
-0.00216364
-0.00214311
-0.00213716
-0.00214578
-0.0021675
-0.00219997
-0.0022403
-0.00228499
-0.00233004
-0.00237148
-0.00240641
-0.00243295
-0.00245115
-0.00246271
-0.00247033
-0.00247661
-0.00248163
-0.00227753
-0.00226904
-0.00228125
-0.00229075
-0.00228945
-0.00227896
-0.00226342
-0.00224418
-0.00222011
-0.00219016
-0.00215553
-0.00211972
-0.00208722
-0.00206209
-0.00204716
-0.00204377
-0.00205206
-0.00207112
-0.00209914
-0.00213342
-0.00217048
-0.00220646
-0.00223787
-0.00226231
-0.00227901
-0.00228898
-0.00229473
-0.0022991
-0.00230443
-0.00230982
-0.00211861
-0.00213607
-0.00215244
-0.00215811
-0.00215517
-0.0021478
-0.00213744
-0.0021226
-0.00210155
-0.00207467
-0.00204472
-0.00201559
-0.00199095
-0.00197346
-0.00196466
-0.00196512
-0.00197467
-0.00199248
-0.0020169
-0.00204554
-0.00207536
-0.00210318
-0.00212636
-0.00214334
-0.00215407
-0.00215987
-0.00216297
-0.00216576
-0.00216997
-0.0021742
-0.0020234
-0.00203855
-0.00203957
-0.00203521
-0.00203122
-0.00202833
-0.00202291
-0.00201068
-0.00198998
-0.00196269
-0.00193294
-0.00190526
-0.00188318
-0.00186884
-0.00186308
-0.00186588
-0.00187657
-0.00189397
-0.00191637
-0.00194158
-0.00196711
-0.00199061
-0.00201027
-0.00202522
-0.00203566
-0.00204266
-0.00204781
-0.00205257
-0.00205782
-0.00206208
-0.00192136
-0.00191746
-0.00190881
-0.00190575
-0.00190868
-0.00191198
-0.00190845
-0.00189365
-0.00186767
-0.00183437
-0.00179921
-0.00176742
-0.0017427
-0.00172711
-0.0017212
-0.00172452
-0.00173594
-0.00175393
-0.00177662
-0.00180202
-0.00182814
-0.00185325
-0.0018761
-0.00189607
-0.00191315
-0.00192771
-0.00194028
-0.0019512
-0.0019605
-0.00196664
-0.00179153
-0.00177689
-0.00177462
-0.00178214
-0.00179218
-0.00179557
-0.00178578
-0.0017613
-0.00172515
-0.00168294
-0.00164078
-0.00160386
-0.00157567
-0.00155795
-0.001551
-0.00155414
-0.0015661
-0.0015853
-0.00161005
-0.00163863
-0.00166947
-0.00170119
-0.00173267
-0.00176308
-0.00179174
-0.00181801
-0.00184116
-0.00186039
-0.00187483
-0.00188331
-0.00166675
-0.00166055
-0.00166931
-0.00168085
-0.00168548
-0.00167613
-0.00165073
-0.00161185
-0.0015649
-0.00151599
-0.00147053
-0.00143245
-0.0014041
-0.00138646
-0.00137952
-0.00138267
-0.00139494
-0.00141524
-0.0014424
-0.00147519
-0.00151237
-0.00155261
-0.00159462
-0.00163698
-0.00167812
-0.00171631
-0.00174959
-0.00177613
-0.00179453
-0.00180366
-0.00158132
-0.00159115
-0.00159974
-0.00159807
-0.00158119
-0.00154817
-0.00150239
-0.00144946
-0.00139531
-0.00134481
-0.00130133
-0.00126672
-0.00124169
-0.00122633
-0.00122046
-0.00122381
-0.00123612
-0.00125705
-0.00128614
-0.00132268
-0.00136577
-0.00141377
-0.00146504
-0.00151758
-0.0015688
-0.00161606
-0.00165663
-0.00168785
-0.00170806
-0.00171611
-0.0015264
-0.00154369
-0.00153716
-0.0015104
-0.00146565
-0.00140827
-0.00134517
-0.00128278
-0.00122587
-0.00117721
-0.0011378
-0.00110752
-0.00108584
-0.00107238
-0.00106703
-0.00107013
-0.00108214
-0.00110347
-0.0011342
-0.00117393
-0.0012217
-0.00127583
-0.00133415
-0.00139394
-0.00145205
-0.00150515
-0.00154999
-0.00158374
-0.00160439
-0.00161101
-0.00145916
-0.00147066
-0.00144455
-0.00139538
-0.00133087
-0.00125931
-0.00118809
-0.00112258
-0.00106578
-0.00101862
-0.000980729
-0.000951159
-0.000929188
-0.000914615
-0.000907854
-0.00090976
-0.000921294
-0.000943197
-0.000975719
-0.00101844
-0.00107017
-0.00112897
-0.00119223
-0.00125676
-0.00131903
-0.00137542
-0.00142251
-0.00145743
-0.00147819
-0.00148389
-0.00134079
-0.00134061
-0.00130324
-0.00124648
-0.00117899
-0.00110814
-0.0010395
-0.000976515
-0.000920804
-0.000872675
-0.000831821
-0.000797967
-0.000771191
-0.000752215
-0.000742063
-0.00074196
-0.000752951
-0.000775656
-0.000810063
-0.000855434
-0.000910185
-0.00097204
-0.00103807
-0.00110486
-0.00116876
-0.00122615
-0.0012737
-0.00130869
-0.00132924
-0.00133451
-0.00116134
-0.00115342
-0.00111853
-0.00107057
-0.00101543
-0.000957326
-0.000899082
-0.00084244
-0.000788479
-0.000737997
-0.000691928
-0.000651415
-0.000618069
-0.000593614
-0.000579623
-0.000577392
-0.000587755
-0.000610888
-0.000646294
-0.000692784
-0.000748365
-0.000810491
-0.000876085
-0.00094175
-0.00100397
-0.00105936
-0.00110488
-0.00113812
-0.0011574
-0.00116196
-0.000935818
-0.000927898
-0.000905202
-0.00087503
-0.000839295
-0.000798867
-0.000754327
-0.000706288
-0.000656056
-0.000605373
-0.000556516
-0.000512015
-0.000474742
-0.000447155
-0.000430948
-0.000427344
-0.000436787
-0.000459005
-0.000493056
-0.000537343
-0.000589776
-0.000647653
-0.000708034
-0.000767845
-0.000823911
-0.000873313
-0.0009135
-0.000942439
-0.000958732
-0.000961749
-0.000684616
-0.000681307
-0.0006722
-0.000659192
-0.000641216
-0.000617117
-0.000586181
-0.000548447
-0.000505925
-0.000460657
-0.000415676
-0.000374393
-0.000339562
-0.000313692
-0.000298432
-0.000294709
-0.000302665
-0.000321802
-0.000350912
-0.000388365
-0.000432208
-0.000480074
-0.000529288
-0.00057768
-0.000622575
-0.000661685
-0.000693093
-0.00071526
-0.000727034
-0.000727899
-0.000419229
-0.000419594
-0.000418783
-0.000415943
-0.000409431
-0.000397469
-0.000378994
-0.000353869
-0.000324306
-0.000292234
-0.00026021
-0.00023087
-0.000205843
-0.000187231
-0.000176317
-0.000173643
-0.000179163
-0.000192313
-0.000212228
-0.000237679
-0.000267195
-0.000299203
-0.000332156
-0.000363843
-0.000393133
-0.000418566
-0.000438731
-0.000452585
-0.000459245
-0.000458269
-0.000142765
-0.000143873
-0.000145136
-0.000145738
-0.000144724
-0.000141262
-0.000134846
-0.000125338
-0.000114209
-0.000102133
-9.012e-05
-7.91796e-05
-6.97244e-05
-6.27324e-05
-5.86893e-05
-5.77766e-05
-5.99329e-05
-6.49147e-05
-7.23233e-05
-8.16765e-05
-9.2415e-05
-0.000103951
-0.000115658
-0.000126926
-0.000137176
-0.000145925
-0.000152805
-0.00015742
-0.000159535
-0.000158399
4898.47
4898.47
4898.47
4898.47
4898.47
4898.47
4898.47
4898.47
4898.47
4898.47
4898.47
4898.47
4898.47