/*--------------------------------*- C++ -*----------------------------------*\
| =========                 |                                                 |
| \\      /  F ield         | OpenFOAM: The Open Source CFD Toolbox           |
|  \\    /   O peration     | Version:  2312                                  |
|   \\  /    A nd           | Website:  www.openfoam.com                      |
|    \\/     M anipulation  |                                                 |
\*---------------------------------------------------------------------------*/
FoamFile
{
    version     2.0;
    format      ascii;
    arch        "LSB;label=32;scalar=64";
    class       surfaceScalarField;
    location    "0.648989";
    object      phi;
}
// * * * * * * * * * * * * * * * * * * * * * * * * * * * * * * * * * * * * * //

dimensions      [0 3 -1 0 0 0 0];

oriented        oriented;

internalField   nonuniform List<scalar> 
263100
(
-2.54632e-11
5.09249e-11
-2.54632e-11
-8.53473e-10
1.39249e-09
-2.92924e-10
-1.36692e-09
1.06201e-09
-3.2534e-10
-1.66214e-09
9.01195e-10
-3.98355e-10
-1.76735e-09
7.30019e-10
-4.35534e-10
-1.68342e-09
5.13e-10
-4.29175e-10
-1.43806e-09
3.01292e-10
-4.01783e-10
-1.09879e-09
1.43916e-10
-3.60901e-10
-7.64319e-10
8.27424e-11
-3.15893e-10
-5.00567e-10
1.23153e-10
-3.03883e-10
-3.16971e-10
2.24356e-10
-3.3973e-10
-1.89986e-10
3.50096e-10
-4.19648e-10
-5.19347e-11
4.43075e-10
-5.30236e-10
1.65285e-10
4.68341e-10
-6.3721e-10
5.03677e-10
4.24274e-10
-7.13539e-10
9.67017e-10
3.13489e-10
-7.24897e-10
1.47543e-09
1.89393e-10
-6.42559e-10
1.88997e-09
1.18414e-10
-4.75638e-10
2.07921e-09
1.39729e-10
-2.72333e-10
1.93972e-09
2.78078e-10
-8.68517e-11
1.42116e-09
5.07338e-10
5.27298e-11
5.38995e-10
7.99278e-10
1.08161e-10
-5.98303e-10
1.0378e-09
1.02422e-10
-1.79441e-09
1.13196e-09
3.94804e-11
-2.69433e-09
9.40055e-10
-9.57587e-11
-3.08221e-09
4.68787e-10
-1.68168e-10
-3.05022e-09
-1.08838e-10
-3.95487e-11
-3.12283e-09
-4.95474e-10
4.28396e-10
-3.81391e-09
-1.04248e-09
1.57946e-09
-1.10837e-08
7.11255e-09
-3.93033e-10
1.12305e-09
-3.93033e-10
-4.9203e-10
2.22913e-09
-3.26936e-10
-5.82344e-10
1.80922e-09
-3.01534e-10
-6.54386e-10
1.51557e-09
-2.19187e-10
-6.95775e-10
1.18865e-09
-1.29944e-10
-7.05467e-10
8.298e-10
-5.75291e-11
-6.83816e-10
5.04298e-10
-1.19866e-11
-6.445e-10
2.84079e-10
-6.36343e-13
-5.73299e-10
1.83533e-10
-2.2176e-11
-4.51851e-10
1.8948e-10
-6.09259e-11
-2.7948e-10
2.70552e-10
-1.0789e-10
-5.84424e-11
3.78567e-10
-1.47957e-10
2.01946e-10
4.49561e-10
-1.68015e-10
4.7495e-10
4.59356e-10
-1.62633e-10
7.34918e-10
4.05477e-10
-1.34169e-10
9.26635e-10
3.31918e-10
-9.70751e-11
1.02938e-09
2.90062e-10
-8.65952e-11
1.05066e-09
3.38013e-10
-1.25316e-10
9.81987e-10
5.04504e-10
-1.89037e-10
8.24068e-10
7.85428e-10
-2.5984e-10
6.17376e-10
1.10843e-09
-3.32132e-10
3.84604e-10
1.39815e-09
-3.40762e-10
1.89407e-10
1.52027e-09
-3.06766e-10
1.0833e-10
1.36186e-09
-2.17944e-10
1.77024e-10
8.11173e-10
-5.90395e-11
5.03381e-10
-6.91884e-11
4.69817e-11
1.03001e-09
-8.6077e-10
2.50605e-11
1.10333e-09
-4.62806e-10
-3.27722e-10
-1.73772e-09
2.16158e-09
-5.89842e-10
-1.33159e-08
3.29912e-10
-2.65698e-10
1.8638e-09
-2.65698e-10
9.83145e-11
2.25157e-09
-1.1062e-10
2.91929e-10
1.86999e-09
-1.94308e-11
3.50159e-10
1.59939e-09
7.00563e-11
2.95295e-10
1.30717e-09
1.25935e-10
1.35706e-10
1.0019e-09
1.55884e-10
-8.78809e-11
7.37661e-10
1.4021e-10
-2.92182e-10
5.34658e-10
8.91126e-11
-4.11741e-10
4.1403e-10
1.431e-11
-3.87764e-10
3.50946e-10
-6.56219e-11
-2.11125e-10
3.30952e-10
-1.18096e-10
8.42362e-11
3.28059e-10
-1.22687e-10
4.10118e-10
3.33997e-10
-8.18375e-11
6.66705e-10
3.57059e-10
-1.76658e-11
7.70925e-10
4.08081e-10
3.79922e-11
6.91229e-10
5.09564e-10
5.33216e-11
4.64141e-10
6.7178e-10
-3.90466e-13
1.74374e-10
8.6788e-10
-8.77464e-11
-4.23652e-11
1.10321e-09
-2.37254e-10
-6.23936e-11
1.34541e-09
-4.08799e-10
1.69596e-10
1.51895e-09
-5.30241e-10
6.43185e-10
1.58574e-09
-5.71883e-10
1.28792e-09
1.45593e-09
-5.1637e-10
1.95729e-09
1.06294e-09
-3.31692e-10
2.46426e-09
4.50585e-10
-1.30242e-10
2.63306e-09
-3.47239e-10
1.08091e-10
2.95222e-09
-1.42995e-09
2.39229e-10
4.55821e-09
-1.51317e-09
-5.66553e-10
2.92609e-09
5.05826e-09
-1.26528e-09
-6.41785e-09
-3.92956e-09
-7.18831e-11
2.14957e-09
-7.18831e-11
5.34825e-10
1.66815e-09
1.30579e-10
8.63688e-10
1.48834e-09
1.8219e-10
9.91392e-10
1.35057e-09
2.39719e-10
9.22556e-10
1.22742e-09
2.60696e-10
6.78508e-10
1.12161e-09
2.34346e-10
3.40704e-10
1.01855e-09
1.69341e-10
2.19656e-12
9.19946e-10
7.22098e-11
-2.26347e-10
8.02121e-10
-3.03742e-11
-2.84394e-10
6.65131e-10
-1.1418e-10
-1.64875e-10
5.24544e-10
-1.56871e-10
7.98298e-11
4.06237e-10
-1.52039e-10
3.3756e-10
3.65098e-10
-1.04409e-10
5.12395e-10
4.19865e-10
-4.18204e-11
5.21299e-10
6.04319e-10
-1.25832e-12
3.47292e-10
8.9734e-10
-5.91103e-12
5.78637e-11
1.21903e-09
-5.05097e-11
-2.33366e-10
1.50539e-09
-1.43671e-10
-3.69481e-10
1.70086e-09
-2.66732e-10
-2.2444e-10
1.75028e-09
-3.64216e-10
2.56662e-10
1.66486e-09
-4.4964e-10
1.04451e-09
1.44099e-09
-4.71353e-10
1.97803e-09
1.11183e-09
-4.19208e-10
2.829e-09
7.27883e-10
-3.42383e-10
3.32757e-09
4.00931e-10
-2.67035e-10
3.11908e-09
2.14791e-10
-1.58649e-10
2.11902e-09
-3.28544e-10
1.10112e-10
2.08146e-09
-1.53457e-09
2.88573e-10
2.78982e-09
4.43557e-09
1.61085e-10
-1.05879e-09
-2.32407e-09
1.15117e-10
1.98784e-09
1.15117e-10
8.07615e-10
7.37397e-10
2.89814e-10
1.18413e-09
8.43982e-10
3.1327e-10
1.34859e-09
9.10593e-10
3.25227e-10
1.29144e-09
1.04758e-09
2.97997e-10
1.05814e-09
1.20912e-09
2.24101e-10
7.13551e-10
1.33333e-09
1.3023e-10
3.605e-10
1.37616e-09
2.24253e-11
7.13796e-11
1.30433e-09
-6.10366e-11
-1.01472e-10
1.13216e-09
-1.16353e-10
-1.46722e-10
9.20791e-10
-1.49879e-10
-9.77868e-11
7.24806e-10
-1.47125e-10
-9.74807e-12
6.4102e-10
-1.29541e-10
4.32248e-11
7.21006e-10
-1.1153e-10
2.78932e-11
9.67851e-10
-1.03445e-10
-5.44962e-11
1.33298e-09
-1.11646e-10
-1.66065e-10
1.70185e-09
-1.36639e-10
-2.31245e-10
1.95579e-09
-1.59055e-10
-1.52248e-10
2.01258e-09
-1.7138e-10
1.32193e-10
1.85745e-09
-1.74181e-10
6.57326e-10
1.54496e-09
-1.82031e-10
1.36926e-09
1.15574e-09
-1.88564e-10
2.11028e-09
8.35254e-10
-2.0236e-10
2.67366e-09
7.10706e-10
-2.52709e-10
2.95815e-09
8.23917e-10
-3.77997e-10
2.86119e-09
1.28388e-09
-6.06075e-10
1.77043e-09
1.99992e-09
-8.39404e-10
1.70366e-10
1.18081e-09
-6.94118e-10
9.3603e-10
4.62443e-09
-5.23587e-10
2.21096e-09
-1.96235e-09
2.10452e-10
1.57945e-09
2.10452e-10
8.55916e-10
-2.53435e-10
3.40923e-10
1.20338e-09
1.70946e-10
3.30511e-10
1.39125e-09
4.56367e-10
2.88992e-10
1.41984e-09
8.50992e-10
2.15803e-10
1.30537e-09
1.27643e-09
1.25616e-10
1.08833e-09
1.63466e-09
2.79646e-11
8.05386e-10
1.83731e-09
-3.17823e-11
4.91852e-10
1.86101e-09
-6.46829e-11
1.83002e-10
1.72341e-09
-7.64228e-11
-9.63419e-11
1.49991e-09
-7.26591e-11
-3.36269e-10
1.28351e-09
-7.82434e-11
-5.07116e-10
1.15122e-09
-9.37295e-11
-5.83026e-10
1.16277e-09
-1.23092e-10
-5.649e-10
1.32337e-09
-1.40337e-10
-4.53228e-10
1.58208e-09
-1.41051e-10
-2.71728e-10
1.8365e-09
-1.10757e-10
-2.9352e-11
1.95506e-09
-4.72501e-11
2.70302e-10
1.87991e-09
2.39241e-11
6.34109e-10
1.60127e-09
9.06921e-11
1.02402e-09
1.24727e-09
1.26328e-10
1.37999e-09
9.32553e-10
1.1858e-10
1.63522e-09
8.62101e-10
1.22561e-11
1.67447e-09
1.13486e-09
-1.20306e-10
1.45141e-09
1.72427e-09
-2.857e-10
1.14444e-09
2.56541e-09
-5.41637e-10
7.05218e-10
3.8607e-09
-9.61126e-10
-5.88784e-10
4.10337e-09
-1.1592e-09
-1.92786e-10
5.83114e-09
-1.14409e-09
3.91041e-09
-1.53824e-09
1.82594e-10
1.20225e-09
1.82594e-10
6.71718e-10
-9.96203e-10
2.39532e-10
9.66926e-10
-3.09093e-10
1.88608e-10
1.2062e-09
1.41967e-10
1.03434e-10
1.39096e-09
7.19845e-10
5.03765e-12
1.49502e-09
1.32922e-09
-6.48055e-11
1.48614e-09
1.8647e-09
-9.56256e-11
1.33087e-09
2.23738e-09
-8.87525e-11
1.02694e-09
2.39922e-09
-5.33176e-11
5.89728e-10
2.37685e-09
-1.8029e-11
5.9124e-11
2.22478e-09
1.20169e-11
-4.67747e-10
1.99764e-09
1.74214e-11
-8.89787e-10
1.76134e-09
5.87209e-12
-1.11496e-09
1.5848e-09
-2.10672e-11
-1.08223e-09
1.50444e-09
-6.05413e-11
-8.23399e-10
1.48885e-09
-3.51726e-11
-4.11902e-10
1.49372e-09
4.32494e-11
5.62384e-11
1.43882e-09
1.50444e-10
5.18724e-10
1.27264e-09
2.49878e-10
8.68378e-10
1.04707e-09
3.2652e-10
1.04215e-09
8.45698e-10
3.80481e-10
1.0244e-09
8.11556e-10
3.33297e-10
8.49814e-10
1.0723e-09
2.06913e-10
5.2822e-10
1.73459e-09
1.15517e-11
4.6508e-11
2.74847e-09
-2.14242e-10
-4.33145e-10
3.86157e-09
-4.65292e-10
-5.60936e-10
5.14916e-09
-8.06412e-10
-9.6921e-10
5.77425e-09
-9.25546e-10
-4.37937e-10
6.48594e-09
-8.82368e-10
4.50415e-09
-8.38764e-10
-3.81815e-12
1.19996e-09
-3.81815e-12
3.10942e-10
-1.29849e-09
-1.45641e-11
5.89149e-10
-4.48783e-10
-1.22406e-10
9.17902e-10
7.92772e-11
-2.273e-10
1.28757e-09
7.07441e-10
-2.92926e-10
1.63102e-09
1.37828e-09
-3.02519e-10
1.85309e-09
1.99875e-09
-2.43375e-10
1.85351e-09
2.50642e-09
-1.39533e-10
1.58685e-09
2.84499e-09
-3.98993e-11
1.07448e-09
2.98213e-09
4.6427e-11
3.78056e-10
2.93226e-09
1.1867e-10
-3.59463e-10
2.70044e-09
1.45669e-10
-9.74625e-10
2.32342e-09
1.38046e-10
-1.34403e-09
1.87478e-09
1.34366e-10
-1.4051e-09
1.44028e-09
1.50507e-10
-1.17746e-09
1.07958e-09
1.82291e-10
-7.33836e-10
7.95658e-10
2.39953e-10
-2.12537e-10
5.85495e-10
3.14906e-10
2.50055e-10
4.15736e-10
3.88283e-10
5.39428e-10
3.1864e-10
4.56771e-10
6.06528e-10
3.72119e-10
4.57572e-10
4.34649e-10
6.66338e-10
4.05955e-10
5.78909e-11
1.27094e-09
3.02106e-10
-3.9989e-10
2.17524e-09
1.66139e-10
-8.08177e-10
3.31381e-09
7.29553e-13
-1.16082e-09
4.49544e-09
-1.33774e-10
-1.09522e-09
5.47033e-09
-2.6719e-10
-9.22655e-10
5.95217e-09
-2.70395e-10
-2.27291e-10
6.03022e-09
-2.01353e-10
4.19961e-09
4.83384e-11
-3.35769e-10
1.87176e-09
-3.35769e-10
-8.54674e-11
-1.15969e-09
-3.87577e-10
1.84295e-10
-2.37303e-10
-4.66952e-10
6.04781e-10
2.0947e-10
-5.2221e-10
1.10725e-09
7.70527e-10
-5.22492e-10
1.62134e-09
1.37574e-09
-4.55801e-10
2.00681e-09
2.01046e-09
-3.33255e-10
2.13905e-09
2.60783e-09
-1.67963e-10
1.95301e-09
3.10785e-09
-1.73839e-11
1.48705e-09
3.40991e-09
8.2996e-11
7.99512e-10
3.45215e-09
1.89925e-10
3.33985e-11
3.1965e-09
2.63736e-10
-6.6339e-10
2.6735e-09
3.08955e-10
-1.16832e-09
1.97289e-09
3.38906e-10
-1.43929e-09
1.24836e-09
3.70548e-10
-1.45197e-09
6.04918e-10
3.80066e-10
-1.25138e-09
9.62699e-11
3.88469e-10
-9.28839e-10
-2.36073e-10
3.97693e-10
-5.98804e-10
-3.8592e-10
3.89489e-10
-3.48294e-10
-3.37745e-10
3.49171e-10
-2.2518e-10
-7.66372e-11
2.95092e-10
-2.77941e-10
4.4541e-10
2.63281e-10
-4.63699e-10
1.22571e-09
2.28162e-10
-7.32073e-10
2.20993e-09
2.21434e-10
-9.46667e-10
3.27151e-09
2.17599e-10
-1.03106e-09
4.24364e-09
2.56174e-10
-8.48592e-10
4.88473e-09
2.76811e-10
-4.55986e-10
5.04193e-09
3.50225e-10
7.14754e-11
4.85198e-09
4.58293e-10
3.54776e-09
5.39048e-10
-5.42931e-10
2.95805e-09
-5.42931e-10
-3.73793e-10
-7.67735e-10
-5.7836e-10
-1.50731e-10
1.27128e-10
-5.9836e-10
2.44011e-10
3.9463e-10
-5.86065e-10
7.39031e-10
7.71424e-10
-4.98063e-10
1.24094e-09
1.24968e-09
-3.76183e-10
1.63659e-09
1.85032e-09
-2.38128e-10
1.84382e-09
2.49283e-09
-1.02314e-10
1.8051e-09
3.10606e-09
1.68867e-11
1.55121e-09
3.52187e-09
9.92223e-11
1.09948e-09
3.64771e-09
1.90276e-10
5.27852e-10
3.39525e-09
2.82559e-10
-9.09949e-11
2.80541e-09
3.74605e-10
-6.86462e-10
2.00298e-09
4.37296e-10
-1.21177e-09
1.18179e-09
4.57232e-10
-1.61681e-09
4.40683e-10
4.38685e-10
-1.84044e-09
-1.71336e-10
3.74625e-10
-1.86041e-09
-5.64014e-10
2.52438e-10
-1.69595e-09
-7.41449e-10
1.19285e-10
-1.4461e-09
-6.75906e-10
3.67028e-11
-1.15156e-09
-3.81548e-10
-3.11031e-11
-8.79587e-10
1.66886e-10
-4.04297e-11
-6.87943e-10
9.58765e-10
4.55465e-12
-6.01378e-10
1.89715e-09
1.152e-10
-5.2055e-10
2.81985e-09
2.09356e-10
-3.70311e-10
3.5665e-09
3.14845e-10
-9.53648e-11
3.93404e-09
4.24816e-10
1.88718e-10
3.95136e-09
5.38947e-10
3.65264e-10
3.82747e-09
5.91104e-10
3.20683e-09
5.21528e-10
-4.06577e-10
3.7568e-09
-4.06577e-10
-4.3584e-10
-4.0134e-10
-3.84882e-10
-4.06046e-10
3.682e-10
-3.15442e-10
-2.41052e-10
4.38941e-10
-2.54338e-10
-9.88347e-13
6.32109e-10
-1.4661e-10
2.57389e-10
9.96493e-10
-5.2965e-11
5.00094e-10
1.55004e-09
5.54383e-12
7.08971e-10
2.20284e-09
2.21024e-11
8.99204e-10
2.83328e-09
1.36019e-11
1.02589e-09
3.29317e-09
2.14958e-11
1.03558e-09
3.4692e-09
7.69756e-11
8.63216e-10
3.32669e-09
1.41181e-10
4.67324e-10
2.87714e-09
2.22741e-10
-1.34522e-10
2.24296e-09
2.67359e-10
-8.7952e-10
1.59644e-09
2.51665e-10
-1.61659e-09
9.58579e-10
1.64094e-10
-2.23603e-09
4.15275e-10
5.76003e-12
-2.58346e-09
-6.02959e-11
-1.5578e-10
-2.58604e-09
-3.79049e-10
-3.38327e-10
-2.29476e-09
-4.88231e-10
-4.49347e-10
-1.80902e-09
-3.6792e-10
-4.79452e-10
-1.25972e-09
2.93313e-11
-4.2071e-10
-7.42094e-10
6.86495e-10
-2.98899e-10
-2.98131e-10
1.49065e-09
-1.43364e-10
6.92375e-11
2.2577e-09
3.99919e-11
3.98698e-10
2.87796e-09
1.71066e-10
6.50724e-10
3.20629e-09
2.79844e-10
7.06786e-10
3.37105e-09
3.48858e-10
5.24359e-10
3.52911e-09
3.47543e-10
3.34451e-09
3.36906e-10
1.11445e-10
3.50029e-09
1.11445e-10
-3.85653e-10
-1.03669e-10
1.33834e-10
-7.3698e-10
4.16666e-10
2.41186e-10
-1.04012e-09
4.05951e-10
2.74594e-10
-1.29652e-09
4.92108e-10
3.35438e-10
-1.43786e-09
7.86254e-10
2.91263e-10
-1.3986e-09
1.26545e-09
1.85116e-10
-1.15094e-09
1.85359e-09
4.11019e-11
-6.58932e-10
2.39016e-09
-1.09632e-10
-2.37951e-11
2.79383e-09
-1.95068e-10
5.55269e-10
3.03459e-09
-1.98777e-10
8.72416e-10
3.09189e-09
-1.25811e-10
8.01103e-10
3.01716e-09
-9.43059e-11
3.16287e-10
2.83642e-09
-1.09131e-10
-4.51857e-10
2.55211e-09
-1.5743e-10
-1.35035e-09
2.2012e-09
-2.81033e-10
-2.15424e-09
1.74648e-09
-4.33481e-10
-2.64472e-09
1.15898e-09
-6.11979e-10
-2.72489e-09
5.72613e-10
-7.4512e-10
-2.45171e-09
1.32736e-10
-7.75673e-10
-1.92349e-09
-8.55439e-11
-7.18161e-10
-1.28124e-09
3.37211e-11
-5.94213e-10
-6.19616e-10
4.61248e-10
-4.295e-10
-1.03809e-11
1.10904e-09
-2.60751e-10
5.19945e-10
1.79587e-09
-1.24628e-10
9.37306e-10
2.38151e-09
2.5202e-11
1.14186e-09
2.8512e-09
1.24932e-10
1.06966e-09
3.26848e-09
1.94312e-10
7.66222e-10
3.63535e-09
2.62722e-10
3.75065e-09
4.6142e-10
8.44685e-10
1.76985e-09
8.44685e-10
-3.67294e-10
3.09442e-10
7.44858e-10
-1.2882e-09
5.21629e-10
7.67722e-10
-2.17593e-09
5.64679e-10
6.83941e-10
-2.94597e-09
6.83436e-10
5.37142e-10
-3.4582e-09
9.41683e-10
3.18881e-10
-3.55691e-09
1.26157e-09
6.84513e-11
-3.1534e-09
1.58106e-09
-1.60407e-10
-2.3026e-09
1.87122e-09
-3.5473e-10
-1.18415e-09
2.11607e-09
-4.53515e-10
-1.05167e-10
2.42543e-09
-4.67969e-10
6.51444e-10
2.80219e-09
-4.44863e-10
9.12548e-10
3.2172e-09
-4.1386e-10
6.77023e-10
3.58751e-09
-4.39498e-10
6.72713e-11
3.78371e-09
-5.16224e-10
-6.86034e-10
3.7002e-09
-6.13553e-10
-1.36289e-09
3.2758e-09
-7.01365e-10
-1.77982e-09
2.50255e-09
-7.6853e-10
-1.89219e-09
1.58917e-09
-7.5404e-10
-1.72348e-09
7.5227e-10
-6.60675e-10
-1.37688e-09
1.85698e-10
-5.23215e-10
-9.14709e-10
8.34566e-12
-3.7736e-10
-4.02201e-10
2.32447e-10
-2.51697e-10
1.38565e-10
7.33276e-10
-1.42949e-10
6.82817e-10
1.3364e-09
-4.90411e-11
1.1334e-09
1.94195e-09
6.05123e-11
1.36961e-09
2.54153e-09
1.91903e-10
1.33014e-09
3.1171e-09
3.50188e-10
1.02136e-09
3.5766e-09
5.46347e-10
4.13946e-09
7.79289e-10
1.27117e-09
-8.01471e-10
1.27117e-09
-6.45982e-10
1.35012e-09
8.58495e-10
-2.0948e-09
1.24086e-09
7.16467e-10
-3.35783e-09
1.32129e-09
4.96517e-10
-4.3874e-09
1.47689e-09
2.28288e-10
-5.00039e-09
1.5691e-09
-2.12067e-11
-5.06695e-09
1.54875e-09
-2.26583e-10
-4.46251e-09
1.42208e-09
-4.493e-10
-3.31777e-09
1.27313e-09
-5.45756e-10
-1.93068e-09
1.27965e-09
-5.41241e-10
-6.15593e-10
1.63045e-09
-4.97945e-10
3.59526e-10
2.33653e-09
-4.70984e-10
8.88209e-10
3.22601e-09
-4.80564e-10
9.85272e-10
4.09185e-09
-5.26303e-10
7.68712e-10
4.64512e-09
-5.54739e-10
4.0972e-10
4.73354e-09
-5.7606e-10
5.34423e-11
4.28019e-09
-5.51612e-10
-2.18986e-10
3.30278e-09
-4.44914e-10
-3.82655e-10
2.09872e-09
-2.87326e-10
-4.70317e-10
9.98837e-10
-1.30706e-10
-4.89663e-10
2.18116e-10
-1.38204e-11
-4.49947e-10
-1.18168e-10
6.75563e-11
-2.84783e-10
-4.70921e-11
9.51968e-11
5.66373e-11
3.06645e-10
8.88831e-11
5.11854e-10
8.05426e-10
1.21777e-10
9.60608e-10
1.38165e-09
2.07023e-10
1.218e-09
2.04316e-09
3.75616e-10
1.2088e-09
2.68416e-09
5.91113e-10
8.44434e-10
3.30396e-09
7.70758e-10
4.41479e-09
6.37616e-10
8.36064e-10
-2.47789e-09
8.36064e-10
-1.28909e-09
3.26704e-09
2.28599e-10
-2.84122e-09
2.76494e-09
4.79526e-11
-4.08097e-09
2.7189e-09
-1.4034e-10
-4.9893e-09
2.69936e-09
-3.02227e-10
-5.40301e-09
2.42317e-09
-4.36438e-10
-5.21839e-09
1.86035e-09
-5.00735e-10
-4.40165e-09
1.11187e-09
-5.17962e-10
-3.24015e-09
4.95371e-10
-3.98718e-10
-1.96539e-09
3.07838e-10
-3.17688e-10
-8.11019e-10
7.12371e-10
-2.4708e-10
9.98918e-11
1.66055e-09
-2.39657e-10
7.25273e-10
2.88988e-09
-2.8762e-10
1.14198e-09
4.04131e-09
-3.60818e-10
1.38723e-09
4.77107e-09
-3.67517e-10
1.52902e-09
4.89179e-09
-3.06457e-10
1.56386e-09
4.37546e-09
-1.56137e-10
1.45875e-09
3.32872e-09
2.5151e-11
1.20126e-09
2.10915e-09
1.61147e-10
7.92398e-10
1.00568e-09
2.87361e-10
3.00418e-10
2.3914e-10
3.3889e-10
-1.03492e-10
-1.15256e-10
2.7047e-10
-2.74465e-10
-1.46049e-10
1.63593e-10
-1.53496e-10
2.75202e-11
9.50852e-11
1.7095e-10
3.60801e-10
1.07317e-10
4.97168e-10
8.936e-10
1.89196e-10
6.18624e-10
1.67828e-09
2.87283e-10
4.61428e-10
2.5331e-09
3.41015e-10
3.47079e-11
3.56054e-09
1.73307e-10
4.61423e-09
-2.02063e-10
-7.58192e-11
-2.30871e-09
-7.58192e-11
-1.84068e-09
5.6271e-09
-5.54916e-10
-3.01634e-09
4.63911e-09
-6.66182e-10
-3.84019e-09
4.3586e-09
-7.94756e-10
-4.27686e-09
3.92647e-09
-7.85146e-10
-4.2603e-09
3.06449e-09
-6.71065e-10
-3.78975e-09
1.86151e-09
-5.03075e-10
-3.04757e-09
6.06127e-10
-2.83497e-10
-2.22467e-09
-2.81585e-10
-1.04164e-10
-1.5072e-09
-4.76875e-10
2.40668e-12
-8.94851e-10
9.15683e-12
2.36839e-11
-3.34702e-10
1.08585e-09
-5.26716e-11
2.70814e-10
2.39615e-09
-1.78908e-10
9.65241e-10
3.5542e-09
-2.77545e-10
1.66882e-09
4.26911e-09
-2.80908e-10
2.24213e-09
4.38288e-09
-1.60862e-10
2.57679e-09
3.90289e-09
1.65813e-11
2.54612e-09
3.03352e-09
1.74905e-10
2.15209e-09
2.04165e-09
2.81918e-10
1.47e-09
1.19068e-09
2.97313e-10
7.02417e-10
5.9514e-10
2.07636e-10
8.88347e-11
2.34046e-10
7.70686e-11
-2.4683e-10
3.99319e-11
-1.77016e-12
-2.96734e-10
7.54855e-13
-3.00917e-11
-2.31172e-10
2.31308e-10
-3.99396e-12
-2.50886e-10
8.51357e-10
1.43768e-11
-4.4938e-10
1.85065e-09
-2.3729e-11
-8.17161e-10
3.03524e-09
-2.01761e-10
-9.84409e-10
4.24414e-09
-5.99263e-10
4.31552e-09
-7.59089e-10
-9.22668e-10
-4.37639e-10
-9.22668e-10
-1.89658e-09
7.89349e-09
-1.2548e-09
-2.3947e-09
6.32512e-09
-1.16356e-09
-2.57843e-09
5.66448e-09
-1.11611e-09
-2.41216e-09
4.64825e-09
-9.04892e-10
-1.9792e-09
3.21676e-09
-6.26886e-10
-1.49017e-09
1.61237e-09
-3.04836e-10
-1.13348e-09
2.09775e-10
-4.48484e-11
-9.68297e-10
-6.28124e-10
8.30018e-11
-9.80965e-10
-6.62302e-10
9.18008e-11
-9.60923e-10
-1.16036e-10
-3.39634e-12
-7.42378e-10
9.46275e-10
-1.8603e-10
-1.79973e-10
2.08613e-09
-3.56743e-10
6.67898e-10
3.02339e-09
-4.21195e-10
1.61148e-09
3.57254e-09
-3.56212e-10
2.41395e-09
3.66153e-09
-2.02504e-10
2.87012e-09
3.33663e-09
-2.99976e-11
2.83684e-09
2.7881e-09
1.16542e-10
2.37004e-09
2.15256e-09
1.74052e-10
1.63886e-09
1.59795e-09
1.32141e-10
8.64347e-10
1.1469e-09
3.71415e-11
2.68065e-10
7.00375e-10
-3.22043e-11
-1.14522e-10
3.3006e-10
-3.5636e-11
-3.79062e-10
1.63771e-10
6.17102e-12
-7.07897e-10
4.63691e-10
2.13683e-11
-1.16197e-09
1.27376e-09
-4.05837e-11
-1.60385e-09
2.44603e-09
-2.35851e-10
-1.80453e-09
3.70787e-09
-5.63506e-10
-1.37386e-09
4.37662e-09
-6.49341e-10
3.2499e-09
-3.63678e-10
-1.44066e-09
2.46513e-09
-1.44066e-09
-1.36412e-09
9.10088e-09
-1.26011e-09
-1.17012e-09
7.2564e-09
-1.11579e-09
-7.86558e-10
6.24663e-09
-9.76909e-10
-2.42314e-10
4.79345e-09
-7.25604e-10
2.85143e-10
3.08583e-09
-4.59093e-10
5.59389e-10
1.46307e-09
-2.12144e-10
4.23344e-10
2.69189e-10
-3.12267e-11
-4.05248e-11
-2.80556e-10
-6.18196e-12
-5.80266e-10
-1.71039e-10
-8.17094e-11
-9.66451e-10
3.83074e-10
-2.43707e-10
-9.03871e-10
1.15309e-09
-3.9527e-10
-3.78211e-10
1.86975e-09
-4.27479e-10
4.77371e-10
2.40733e-09
-3.51056e-10
1.41284e-09
2.72873e-09
-2.00667e-10
2.17156e-09
2.81258e-09
-2.27895e-11
2.55712e-09
2.69453e-09
1.33062e-10
2.51615e-09
2.47096e-09
2.2087e-10
2.09489e-09
2.21489e-09
2.10884e-10
1.51352e-09
1.85379e-09
1.76861e-10
9.20528e-10
1.45258e-09
1.52136e-10
4.25282e-10
9.17736e-10
1.67193e-10
-3.73218e-11
5.05083e-10
2.0325e-10
-5.93278e-10
4.62176e-10
1.91218e-10
-1.27284e-09
9.51909e-10
1.27988e-10
-1.87414e-09
1.84828e-09
-4.76566e-11
-2.11726e-09
2.90814e-09
-3.08098e-10
-1.7862e-09
3.55961e-09
-2.76508e-10
-8.6395e-10
3.35456e-09
1.33454e-11
2.02398e-09
2.89796e-10
-1.21798e-09
4.91464e-09
-1.21798e-09
-4.44661e-10
9.25176e-09
-9.13894e-10
1.09183e-10
7.51438e-09
-8.13592e-10
7.4843e-10
6.26652e-09
-6.80948e-10
1.37313e-09
4.62412e-09
-5.02019e-10
1.77714e-09
2.93031e-09
-3.22322e-10
1.76631e-09
1.53997e-09
-1.66662e-10
1.31383e-09
6.78065e-10
-8.08832e-11
5.66843e-10
4.00704e-10
-7.72065e-11
-1.72223e-10
5.27002e-10
-1.12877e-10
-6.26798e-10
8.26182e-10
-1.45161e-10
-6.38749e-10
1.10225e-09
-8.94465e-11
-2.64547e-10
1.33058e-09
2.14858e-11
3.51683e-10
1.48509e-09
1.71788e-10
1.0089e-09
1.61653e-09
3.26715e-10
1.5114e-09
1.7364e-09
4.45219e-10
1.76582e-09
1.82888e-09
4.77041e-10
1.74953e-09
1.90644e-09
4.39986e-10
1.50506e-09
1.9128e-09
4.05239e-10
1.12997e-09
1.73773e-09
3.60985e-10
7.36126e-10
1.38786e-09
3.50739e-10
2.72305e-10
9.68646e-10
3.31135e-10
-3.5158e-10
7.72445e-10
2.94015e-10
-1.10644e-09
9.96285e-10
1.61747e-10
-1.73302e-09
1.60107e-09
-9.68482e-11
-2.01672e-09
2.27271e-09
-2.41134e-10
-1.73975e-09
2.65789e-09
-1.48799e-10
-9.65828e-10
2.55618e-09
9.91267e-11
-2.57625e-10
2.16481e-09
3.49335e-10
1.40371e-09
2.42338e-10
-7.79896e-10
6.48237e-09
-7.79896e-10
2.50256e-10
8.75075e-09
-5.3218e-10
9.51917e-10
7.27727e-09
-4.76941e-10
1.67285e-09
5.87972e-09
-3.65848e-10
2.26366e-09
4.18845e-09
-2.12138e-10
2.53073e-09
2.63013e-09
-5.2848e-11
2.38564e-09
1.50514e-09
6.38566e-11
1.82995e-09
9.21849e-10
1.6786e-10
1.09315e-09
7.47217e-10
2.23666e-10
4.14913e-10
7.27112e-10
2.97179e-10
-2.3262e-11
6.78705e-10
3.99574e-10
-1.94764e-10
5.4447e-10
5.46112e-10
-1.57109e-10
4.26785e-10
6.90967e-10
3.29391e-11
3.85353e-10
7.43326e-10
2.672e-10
4.85969e-10
7.35657e-10
4.90872e-10
6.98371e-10
6.55009e-10
6.48823e-10
9.82685e-10
5.29055e-10
7.0068e-10
1.29641e-09
4.04765e-10
6.46245e-10
1.53138e-09
2.99932e-10
4.68308e-10
1.58746e-09
2.22134e-10
1.48124e-10
1.48517e-09
1.52118e-10
-3.73354e-10
1.40845e-09
3.93922e-11
-1.00802e-09
1.53943e-09
-1.65522e-10
-1.54249e-09
1.86444e-09
-3.83916e-10
-1.72616e-09
2.14499e-09
-4.47351e-10
-1.43639e-09
2.19835e-09
-3.39779e-10
-7.76044e-10
1.97513e-09
-1.21016e-10
-1.70327e-10
1.74179e-09
6.78463e-11
-5.99671e-11
1.90266e-09
2.67981e-11
1.49721e-09
-2.22549e-10
-3.8845e-10
7.26115e-09
-3.8845e-10
6.83447e-10
7.85216e-09
-1.99581e-10
1.44719e-09
6.60058e-09
-1.2035e-10
2.16476e-09
5.07939e-09
3.08545e-11
2.65519e-09
3.40844e-09
2.13573e-10
2.79478e-09
2.00659e-09
3.80991e-10
2.55766e-09
1.10416e-09
5.0803e-10
2.02093e-09
6.93424e-10
6.1159e-10
1.38695e-09
5.19485e-10
6.91408e-10
8.01823e-10
3.56514e-10
7.77529e-10
3.05552e-10
9.98722e-11
8.97764e-10
-1.14856e-10
-1.93032e-10
9.87844e-10
-4.35871e-10
-3.857e-10
9.73369e-10
-6.34727e-10
-4.19952e-10
8.52471e-10
-6.73457e-10
-2.75733e-10
6.53842e-10
-5.63871e-10
-1.48596e-11
4.61765e-10
-3.88603e-10
3.77295e-10
2.9963e-10
-2.41032e-10
8.88134e-10
1.55495e-10
-1.97587e-10
1.38864e-09
3.49255e-11
-3.13427e-10
1.77236e-09
-8.40606e-11
-6.19962e-10
2.05048e-09
-2.30535e-10
-1.05245e-09
2.30182e-09
-4.12798e-10
-1.40831e-09
2.49205e-09
-5.63514e-10
-1.44608e-09
2.46854e-09
-5.77999e-10
-1.10656e-09
2.18096e-09
-4.37998e-10
-5.4717e-10
1.75944e-09
-2.09853e-10
-8.08577e-11
1.48581e-09
-5.37994e-11
4.95756e-11
1.67508e-09
-9.43506e-11
-6.84074e-11
2.38698e-09
-3.32373e-10
1.94873e-09
-4.05597e-10
-8.35276e-11
7.41603e-09
-8.35276e-11
1.01792e-09
6.56365e-09
1.19721e-10
1.82143e-09
5.43255e-09
2.93847e-10
2.43688e-09
3.85733e-09
5.21562e-10
2.71655e-09
2.30484e-09
7.23244e-10
2.59813e-09
1.16082e-09
8.49579e-10
2.18757e-09
5.06424e-10
8.83776e-10
1.6557e-09
1.78202e-10
9.19136e-10
1.1237e-09
-1.69262e-11
9.44457e-10
6.06653e-10
-2.2851e-10
9.88746e-10
6.44797e-11
-4.65266e-10
1.0084e-09
-5.10195e-10
-6.491e-10
9.45713e-10
-1.01712e-09
-7.44274e-10
7.89496e-10
-1.33611e-09
-8.12413e-10
6.37734e-10
-1.36746e-09
-7.9576e-10
4.76455e-10
-1.18925e-09
-6.28366e-10
3.64518e-10
-9.68452e-10
-1.82262e-10
2.87107e-10
-8.23215e-10
5.25426e-10
2.04528e-10
-8.07804e-10
1.32828e-09
8.47761e-11
-9.29337e-10
2.05533e-09
-7.07734e-11
-1.14162e-09
2.62604e-09
-2.45134e-10
-1.28532e-09
2.92118e-09
-3.70174e-10
-1.18598e-09
2.80475e-09
-3.57766e-10
-8.14473e-10
2.27157e-09
-1.83464e-10
-3.42191e-10
1.61495e-09
4.84617e-11
-4.54575e-11
1.28041e-09
1.53396e-10
-5.22409e-12
1.44242e-09
4.00803e-11
-9.91673e-11
2.10572e-09
-2.12806e-10
-1.34297e-11
2.84732e-09
-3.47438e-10
2.3681e-09
-2.41308e-10
2.27431e-10
6.92227e-09
2.27431e-10
1.34463e-09
4.81494e-09
5.09812e-10
2.0712e-09
3.82047e-09
7.67573e-10
2.40485e-09
2.41489e-09
9.87359e-10
2.2841e-09
1.19753e-09
1.10898e-09
1.80041e-09
3.83414e-10
1.15223e-09
1.21542e-09
-4.04599e-11
1.04119e-09
7.15446e-10
-3.14877e-10
9.27386e-10
2.96712e-10
-5.22178e-10
8.86997e-10
-1.30196e-10
-6.88905e-10
8.77744e-10
-6.34063e-10
-8.03295e-10
8.52424e-10
-1.1651e-09
-9.07918e-10
8.07581e-10
-1.53923e-09
-1.07625e-09
7.15588e-10
-1.64846e-09
-1.3672e-09
6.53375e-10
-1.50071e-09
-1.62102e-09
6.45289e-10
-1.26167e-09
-1.56387e-09
6.54936e-10
-1.09696e-09
-1.031e-09
6.54647e-10
-1.04833e-09
-9.362e-11
5.73545e-10
-1.08198e-09
1.00689e-09
3.96927e-10
-1.12299e-09
1.95821e-09
2.0166e-10
-1.0832e-09
2.54266e-09
9.05479e-11
-8.56357e-10
2.55564e-09
1.28074e-10
-4.76732e-10
2.05204e-09
2.8982e-10
-1.30194e-10
1.34567e-09
4.52103e-10
-3.02192e-11
9.10386e-10
4.93861e-10
-1.6002e-10
1.00629e-09
3.66826e-10
-3.44555e-10
1.6067e-09
7.3003e-11
-3.04779e-10
2.3186e-09
-1.48159e-10
5.21341e-11
2.6975e-09
-1.2385e-10
2.27053e-09
8.42717e-11
5.69681e-10
5.7083e-09
5.69681e-10
1.5285e-09
2.80063e-09
8.8598e-10
1.96154e-09
2.09435e-09
1.13827e-09
1.84547e-09
1.10174e-09
1.28695e-09
1.28871e-09
4.03566e-10
1.23223e-09
5.75632e-10
-2.75644e-11
1.03981e-09
-4.74779e-11
-3.66966e-10
9.06608e-10
-4.92742e-10
-7.13947e-10
8.44269e-10
-8.13352e-10
-1.00211e-09
8.3803e-10
-1.13077e-09
-1.16172e-09
8.52165e-10
-1.46262e-09
-1.24428e-09
8.38807e-10
-1.70046e-09
-1.42647e-09
8.02288e-10
-1.72354e-09
-1.86333e-09
8.14663e-10
-1.5203e-09
-2.49789e-09
8.80408e-10
-1.21281e-09
-3.01995e-09
9.99111e-10
-1.03289e-09
-2.92346e-09
1.06298e-09
-9.69416e-10
-2.20033e-09
9.90012e-10
-9.56616e-10
-1.00964e-09
8.03536e-10
-8.75801e-10
2.26439e-10
6.09158e-10
-6.55255e-10
1.10884e-09
5.16831e-10
-2.84852e-10
1.42828e-09
5.72929e-10
1.26885e-10
1.17469e-09
7.24809e-10
3.68032e-10
6.77515e-10
8.46565e-10
2.55139e-10
3.81496e-10
8.14088e-10
-8.54742e-11
4.258e-10
6.4744e-10
-4.23869e-10
8.65904e-10
3.95925e-10
-5.92988e-10
1.5702e-09
1.546e-10
-3.75484e-10
1.93017e-09
4.78471e-11
1.7931e-10
1.70055e-09
1.63181e-10
1.53061e-09
5.06495e-10
8.25172e-10
3.95288e-09
8.25172e-10
1.28608e-09
1.02414e-09
1.13498e-09
1.27282e-09
7.60951e-10
1.19283e-09
7.51924e-10
4.1332e-10
1.08218e-09
-7.18935e-11
1.78404e-10
9.58127e-10
-8.60046e-10
-1.00007e-10
8.11904e-10
-1.41383e-09
-5.4935e-10
7.29809e-10
-1.74916e-09
-1.08623e-09
7.37046e-10
-1.98226e-09
-1.50674e-09
7.88756e-10
-2.16711e-09
-1.74104e-09
8.15715e-10
-2.22877e-09
-1.9653e-09
8.08986e-10
-2.07378e-09
-2.46107e-09
8.56621e-10
-1.66476e-09
-3.33679e-09
9.77935e-10
-1.17779e-09
-4.27058e-09
1.13856e-09
-8.56529e-10
-4.77512e-09
1.24606e-09
-7.19505e-10
-4.50903e-09
1.2489e-09
-6.34914e-10
-3.58108e-09
1.10745e-09
-4.23825e-10
-2.33792e-09
9.41749e-10
-1.43977e-13
-1.27371e-09
8.91326e-10
5.76022e-10
-6.70173e-10
9.73792e-10
1.09721e-09
-5.12926e-10
1.13232e-09
1.34741e-09
-6.29212e-10
1.23751e-09
1.16728e-09
-6.82455e-10
1.26438e-09
6.13878e-10
-3.127e-10
1.0775e-09
1.66545e-11
2.08493e-10
7.57584e-10
-3.47774e-10
7.15667e-10
4.94266e-10
-4.4296e-10
1.22778e-09
3.29206e-10
-1.54785e-10
1.07852e-09
2.82143e-10
4.38508e-10
2.33295e-10
4.44125e-10
8.42814e-10
8.00467e-10
8.48671e-10
2.14681e-09
8.48671e-10
5.67217e-10
2.60348e-10
9.13104e-10
3.15459e-11
4.12505e-10
7.84658e-10
-7.57844e-10
5.05595e-10
6.25975e-10
-1.5642e-09
4.62846e-10
4.78988e-10
-2.19185e-09
7.9087e-11
4.30359e-10
-2.60581e-09
-6.38889e-10
5.03171e-10
-2.89855e-09
-1.41571e-09
6.29555e-10
-3.11288e-09
-2.02092e-09
7.2923e-10
-3.15604e-09
-2.49156e-09
7.70495e-10
-2.90984e-09
-3.13464e-09
8.59025e-10
-2.31602e-09
-4.19772e-09
1.0282e-09
-1.56319e-09
-5.49068e-09
1.24041e-09
-9.29181e-10
-6.53357e-09
1.44351e-09
-5.64875e-10
-6.855e-09
1.53606e-09
-3.24876e-10
-6.37063e-09
1.47501e-09
9.74763e-12
-5.38349e-09
1.36125e-09
6.77697e-10
-4.42814e-09
1.33591e-09
1.49623e-09
-3.61034e-09
1.41617e-09
2.2713e-09
-3.17494e-09
1.59072e-09
2.67361e-09
-2.73273e-09
1.6635e-09
2.55535e-09
-2.16911e-09
1.55363e-09
2.02655e-09
-1.52243e-09
1.38086e-09
1.29761e-09
-5.66753e-10
1.1231e-09
6.02409e-10
2.95162e-10
7.9825e-10
2.08869e-10
6.62505e-10
5.54921e-10
1.98202e-10
6.93902e-10
4.88949e-10
4.03268e-10
1.37938e-10
5.66222e-10
5.66323e-10
-6.58717e-10
6.14622e-10
1.1536e-09
4.17056e-10
3.74199e-10
1.32756e-09
3.74199e-10
-5.82984e-10
9.84438e-10
1.95777e-10
-1.43826e-09
1.23799e-09
1.48985e-11
-2.2272e-09
1.38367e-09
-9.45893e-11
-2.8471e-09
1.15056e-09
-7.48523e-11
-3.29006e-09
4.06032e-10
9.86307e-11
-3.66052e-09
-6.46425e-10
3.44705e-10
-4.01373e-09
-1.67364e-09
5.58652e-10
-4.22086e-09
-2.58724e-09
6.98256e-10
-4.07863e-09
-3.57213e-09
8.37049e-10
-3.46073e-09
-4.92331e-09
1.04318e-09
-2.48411e-09
-6.64534e-09
1.32623e-09
-1.53169e-09
-8.20055e-09
1.6167e-09
-8.34565e-10
-9.15521e-09
1.81745e-09
-3.59319e-10
-9.23009e-09
1.85175e-09
1.97921e-10
-8.66521e-09
1.7544e-09
1.02973e-09
-7.86286e-09
1.70701e-09
2.10418e-09
-7.19109e-09