/*--------------------------------*- C++ -*----------------------------------*\
| =========                 |                                                 |
| \\      /  F ield         | OpenFOAM: The Open Source CFD Toolbox           |
|  \\    /   O peration     | Version:  2312                                  |
|   \\  /    A nd           | Website:  www.openfoam.com                      |
|    \\/     M anipulation  |                                                 |
\*---------------------------------------------------------------------------*/
FoamFile
{
    version     2.0;
    format      ascii;
    arch        "LSB;label=32;scalar=64";
    class       volVectorField;
    location    "0.648989";
    object      U;
}
// * * * * * * * * * * * * * * * * * * * * * * * * * * * * * * * * * * * * * //

dimensions      [0 1 -1 0 0 0 0];

internalField   nonuniform List<vector> 
90000
(
(2.17702e-06 -1.44046e-06 2.17702e-06)
(-2.96055e-06 7.49281e-06 -3.47555e-07)
(-1.19357e-05 5.67424e-06 -8.8247e-07)
(-1.52202e-05 4.80316e-06 -1.6807e-06)
(-1.72683e-05 3.93874e-06 -2.17681e-06)
(-1.73622e-05 2.77669e-06 -2.50568e-06)
(-1.56701e-05 1.59277e-06 -2.72097e-06)
(-1.26993e-05 7.56496e-07 -2.74128e-06)
(-9.2716e-06 4.3459e-07 -2.59025e-06)
(-6.23346e-06 6.58588e-07 -2.46862e-06)
(-4.02251e-06 1.29803e-06 -2.51947e-06)
(-2.52684e-06 2.10464e-06 -2.82793e-06)
(-1.26873e-06 2.73914e-06 -3.35367e-06)
(3.64756e-07 2.97025e-06 -3.89718e-06)
(3.11115e-06 2.75001e-06 -4.28006e-06)
(7.2692e-06 2.07852e-06 -4.28842e-06)
(1.22443e-05 1.182e-06 -3.72518e-06)
(1.69437e-05 4.92963e-07 -2.5819e-06)
(2.0074e-05 3.85212e-07 -1.2408e-06)
(2.04043e-05 1.05468e-06 4.51957e-08)
(1.71604e-05 2.37717e-06 9.95783e-07)
(1.01948e-05 4.09409e-06 1.1521e-06)
(-9.16524e-08 5.55461e-06 5.95893e-07)
(-1.20626e-05 6.44944e-06 -6.81703e-07)
(-2.2781e-05 5.86153e-06 -2.52874e-06)
(-2.93587e-05 3.79529e-06 -4.30828e-06)
(-3.10053e-05 8.35998e-07 -4.82018e-06)
(-3.09102e-05 -3.77879e-06 -5.48818e-07)
(-3.78007e-05 -1.18884e-05 1.5351e-05)
(-2.23973e-05 -6.17177e-05 5.40719e-05)
(-2.04786e-06 4.62885e-06 -2.04786e-06)
(-4.49179e-06 1.88459e-05 -1.74415e-06)
(-5.39026e-06 1.49079e-05 -1.63531e-06)
(-6.19545e-06 1.25292e-05 -1.20633e-06)
(-6.76952e-06 9.93553e-06 -7.43801e-07)
(-7.02748e-06 6.87995e-06 -3.96062e-07)
(-6.96767e-06 3.98509e-06 -1.97299e-07)
(-6.65995e-06 1.89024e-06 -2.00393e-07)
(-6.11125e-06 1.073e-06 -3.71129e-07)
(-5.15597e-06 1.4747e-06 -6.33114e-07)
(-3.69204e-06 2.6635e-06 -9.02383e-07)
(-1.72386e-06 4.05741e-06 -1.07457e-06)
(6.90179e-07 5.04226e-06 -1.0863e-06)
(3.37961e-06 5.2378e-06 -9.37515e-07)
(6.08833e-06 4.63626e-06 -6.53207e-07)
(8.37801e-06 3.42805e-06 -3.48523e-07)
(9.84838e-06 2.23454e-06 -1.73673e-07)
(1.04642e-05 1.84718e-06 -4.02533e-07)
(1.02401e-05 2.75799e-06 -8.14152e-07)
(9.07535e-06 4.99939e-06 -1.32842e-06)
(7.2116e-06 8.08778e-06 -1.90554e-06)
(4.9741e-06 1.13788e-05 -2.09496e-06)
(2.71416e-06 1.3532e-05 -1.99014e-06)
(1.19515e-06 1.35885e-05 -1.50484e-06)
(1.05487e-06 9.99063e-06 -5.64773e-07)
(3.02059e-06 2.98382e-06 -3.28157e-07)
(7.29514e-06 -3.8999e-06 -2.0775e-06)
(1.68708e-05 -3.19384e-06 -6.61802e-06)
(-4.79569e-06 -1.06392e-06 -7.70727e-06)
(-1.67585e-05 -0.000133305 -1.86952e-06)
(-2.09625e-06 1.54935e-05 -2.09625e-06)
(-1.09812e-06 2.30716e-05 -1.22916e-06)
(2.4577e-06 1.89303e-05 -6.62663e-07)
(3.36028e-06 1.59725e-05 4.50009e-08)
(3.4104e-06 1.26983e-05 5.92494e-07)
(2.22594e-06 9.2075e-06 8.74715e-07)
(2.433e-07 6.11952e-06 8.32605e-07)
(-1.95848e-06 3.83619e-06 5.4104e-07)
(-3.64699e-06 2.69382e-06 3.25924e-08)
(-4.17255e-06 2.57979e-06 -4.77153e-07)
(-3.14586e-06 3.04254e-06 -8.18968e-07)
(-7.04824e-07 3.63386e-06 -8.20225e-07)
(2.52462e-06 4.01582e-06 -4.87725e-07)
(5.54395e-06 4.09533e-06 2.92509e-08)
(7.38888e-06 3.92847e-06 5.69279e-07)
(7.50447e-06 3.86592e-06 8.33036e-07)
(5.88596e-06 4.32829e-06 6.00522e-07)
(3.18615e-06 5.68633e-06 -1.00098e-07)
(4.12953e-07 7.93231e-06 -1.15218e-06)
(-1.01932e-06 1.08234e-05 -2.25601e-06)
(9.15643e-09 1.35705e-05 -3.11353e-06)
(3.65622e-06 1.55631e-05 -3.39627e-06)
(9.45505e-06 1.56191e-05 -2.9424e-06)
(1.62329e-05 1.27255e-05 -1.62198e-06)
(2.22819e-05 6.4643e-06 7.41889e-07)
(2.57393e-05 -3.39752e-06 3.91527e-06)
(2.72708e-05 -1.30071e-05 5.28396e-06)
(3.93036e-05 -7.55481e-06 -9.4327e-07)
(3.98784e-05 3.86703e-05 -7.01473e-06)
(1.48195e-05 -0.000103218 -2.57276e-05)
(-1.64113e-06 2.04614e-05 -1.64113e-06)
(1.58187e-06 2.0108e-05 -2.17318e-07)
(7.5626e-06 1.7214e-05 4.24274e-07)
(9.48875e-06 1.50688e-05 1.08778e-06)
(9.80521e-06 1.29063e-05 1.43527e-06)
(8.13572e-06 1.081e-05 1.48771e-06)
(5.15636e-06 8.89452e-06 1.18833e-06)
(1.63231e-06 7.30899e-06 6.52173e-07)
(-1.29461e-06 6.05098e-06 5.42322e-08)
(-2.76153e-06 5.02368e-06 -4.80252e-07)
(-2.41046e-06 4.17624e-06 -7.84357e-07)
(-4.89291e-07 3.51997e-06 -7.77399e-07)
(2.19904e-06 3.25903e-06 -4.73712e-07)
(4.47555e-06 3.63852e-06 -4.27205e-08)
(5.39883e-06 4.84239e-06 2.61404e-07)
(4.55403e-06 6.82613e-06 3.05425e-07)
(2.10971e-06 9.34026e-06 9.33639e-09)
(-1.0312e-06 1.19664e-05 -6.31495e-07)
(-3.45611e-06 1.42571e-05 -1.44873e-06)
(-3.59439e-06 1.58322e-05 -2.09848e-06)
(-4.52298e-07 1.63383e-05 -2.61098e-06)
(6.14885e-06 1.55794e-05 -2.63475e-06)
(1.50603e-05 1.31224e-05 -2.14308e-06)
(2.41818e-05 8.99905e-06 -1.16512e-06)
(3.12119e-05 3.90578e-06 3.37346e-07)
(3.29458e-05 -2.02864e-06 2.94855e-06)
(2.63767e-05 -1.15639e-05 6.59496e-06)
(2.03225e-05 -1.92365e-05 8.24288e-06)
(2.67155e-05 4.97148e-05 4.96263e-06)
(1.69141e-05 -3.33953e-05 -1.25064e-05)
(-7.27903e-07 2.10421e-05 -7.27903e-07)
(3.76561e-06 1.22137e-05 9.56693e-07)
(1.04707e-05 1.18225e-05 1.38597e-06)
(1.28043e-05 1.14519e-05 1.72495e-06)
(1.33634e-05 1.15334e-05 1.79603e-06)
(1.18536e-05 1.17939e-05 1.6277e-06)
(8.8718e-06 1.1856e-05 1.19706e-06)
(5.28725e-06 1.14842e-05 6.77685e-07)
(1.98678e-06 1.04917e-05 1.57746e-07)
(-3.12655e-07 8.85053e-06 -2.2868e-07)
(-1.33223e-06 6.9129e-06 -4.77812e-07)
(-1.25605e-06 5.25983e-06 -5.35772e-07)
(-5.21217e-07 4.55805e-06 -5.32365e-07)
(2.90394e-07 5.27694e-06 -5.34599e-07)
(5.3953e-07 7.61618e-06 -5.83136e-07)
(-2.98407e-08 1.10855e-05 -7.07483e-07)
(-1.12352e-06 1.47763e-05 -9.19854e-07)
(-2.18939e-06 1.76651e-05 -1.08173e-06)
(-2.33777e-06 1.90178e-05 -1.15873e-06)
(-5.24729e-07 1.8477e-05 -1.10653e-06)
(3.71785e-06 1.63724e-05 -9.95414e-07)
(1.00664e-05 1.31426e-05 -7.43464e-07)
(1.74713e-05 9.51143e-06 -3.48134e-07)
(2.41211e-05 6.56836e-06 -1.11634e-07)
(2.84857e-05 5.29413e-06 -5.3283e-07)
(2.97212e-05 6.88551e-06 -1.65931e-06)
(2.44395e-05 6.9501e-06 -2.74953e-06)
(4.72971e-06 -5.04221e-06 -8.80667e-07)
(2.84917e-06 4.46368e-05 -1.01909e-06)
(7.83165e-06 9.07694e-06 -1.04583e-05)
(2.45941e-07 1.79366e-05 2.45941e-07)
(4.8187e-06 2.21021e-06 1.56533e-06)
(1.06426e-05 4.87743e-06 1.70011e-06)
(1.3056e-05 6.72651e-06 1.65928e-06)
(1.41368e-05 9.47281e-06 1.45654e-06)
(1.36839e-05 1.24126e-05 1.11652e-06)
(1.19996e-05 1.48208e-05 7.38551e-07)
(9.48157e-06 1.60402e-05 4.77022e-07)
(6.48694e-06 1.57345e-05 3.19417e-07)
(3.36254e-06 1.40595e-05 2.19804e-07)
(4.17992e-07 1.16724e-05 1.49563e-07)
(-2.18463e-06 9.4614e-06 -8.20095e-08)
(-4.26561e-06 8.40118e-06 -4.41583e-07)
(-5.52521e-06 9.04981e-06 -8.22543e-07)
(-5.82998e-06 1.14053e-05 -1.17557e-06)
(-5.18725e-06 1.48453e-05 -1.39445e-06)
(-3.74186e-06 1.81992e-05 -1.33675e-06)
(-1.64346e-06 2.01581e-05 -9.35578e-07)
(1.11644e-06 1.99988e-05 -3.46909e-07)
(4.50662e-06 1.77096e-05 4.00055e-07)
(8.32386e-06 1.41239e-05 1.03466e-06)
(1.21163e-05 1.02823e-05 1.49327e-06)
(1.52552e-05 7.92761e-06 1.42994e-06)
(1.67923e-05 8.4739e-06 8.70432e-07)
(1.58362e-05 1.20635e-05 -1.53041e-07)
(1.30672e-05 1.90351e-05 -2.05991e-06)
(1.05414e-05 2.98149e-05 -4.82522e-06)
(-8.14919e-07 2.72553e-05 -6.00531e-06)
(-6.20182e-06 5.25877e-05 -6.16284e-06)
(-6.78831e-07 3.16922e-05 -8.82292e-06)
(3.96394e-07 1.35486e-05 3.96394e-07)
(3.91562e-06 -6.90427e-06 1.04871e-06)
(8.37207e-06 -1.30936e-06 8.72376e-07)
(1.08415e-05 2.61804e-06 4.47413e-07)
(1.29634e-05 7.70054e-06 7.16549e-08)
(1.44552e-05 1.29866e-05 -2.02478e-07)
(1.49754e-05 1.74818e-05 -2.47959e-07)
(1.42297e-05 2.0356e-05 -3.15808e-08)
(1.19737e-05 2.12263e-05 4.07884e-07)
(8.22744e-06 2.03222e-05 8.19973e-07)
(3.30196e-06 1.83456e-05 9.40418e-07)
(-2.07337e-06 1.60176e-05 7.35733e-07)
(-6.94059e-06 1.42352e-05 2.51884e-07)
(-1.02679e-05 1.36275e-05 -4.31871e-07)
(-1.12277e-05 1.43e-05 -9.82396e-07)
(-9.73404e-06 1.58e-05 -1.11245e-06)
(-6.35085e-06 1.72309e-05 -8.01871e-07)
(-1.86126e-06 1.75399e-05 -7.98527e-08)
(2.94954e-06 1.62424e-05 8.92578e-07)
(7.11904e-06 1.35041e-05 1.72245e-06)
(9.81436e-06 1.03322e-05 2.45809e-06)
(1.05895e-05 8.29989e-06 2.64333e-06)
(9.55658e-06 9.2263e-06 2.21246e-06)
(7.02186e-06 1.40696e-05 1.03312e-06)
(2.95098e-06 2.23475e-05 -6.55998e-07)
(-2.55756e-06 3.24734e-05 -2.44164e-06)
(-5.22677e-06 4.58936e-05 -4.8261e-06)
(-8.06705e-06 5.07917e-05 -5.47897e-06)
(-8.00206e-06 6.26262e-05 -5.69444e-06)
(-2.45141e-06 4.27778e-05 -5.72282e-06)
(-6.45413e-07 1.11639e-05 -6.45413e-07)
(1.07032e-06 -1.23921e-05 -5.86576e-07)
(4.55809e-06 -4.61232e-06 -1.09183e-06)
(7.3706e-06 5.42764e-07 -1.65844e-06)
(1.09467e-05 6.95832e-06 -1.95013e-06)
(1.46068e-05 1.35099e-05 -1.89236e-06)
(1.75258e-05 1.93547e-05 -1.41128e-06)
(1.8732e-05 2.3764e-05 -6.36653e-07)
(1.74585e-05 2.62769e-05 3.06953e-07)
(1.35608e-05 2.68365e-05 1.19269e-06)
(7.40574e-06 2.57934e-05 1.66265e-06)
(5.47861e-08 2.35246e-05 1.61548e-06)
(-6.89434e-06 2.05329e-05 1.21845e-06)
(-1.19283e-05 1.75281e-05 7.67849e-07)
(-1.40621e-05 1.50773e-05 4.3152e-07)
(-1.31629e-05 1.32108e-05 2.7459e-07)
(-9.72127e-06 1.17246e-05 5.57168e-07)
(-4.70151e-06 1.02607e-05 1.17888e-06)
(4.36582e-07 8.54187e-06 1.95706e-06)
(4.25149e-06 6.7798e-06 2.55516e-06)
(6.0902e-06 5.81301e-06 2.81685e-06)
(5.55795e-06 7.05452e-06 2.67504e-06)
(2.6346e-06 1.16205e-05 2.05985e-06)
(-1.70889e-06 1.96599e-05 1.06606e-06)
(-6.17948e-06 3.0888e-05 -2.38296e-07)
(-1.02339e-05 4.25721e-05 -1.41174e-06)
(-1.16432e-05 5.40147e-05 -2.60545e-06)
(-1.06836e-05 5.9821e-05 -2.86613e-06)
(-5.56009e-06 6.34318e-05 -2.75975e-06)
(-4.73671e-07 4.39008e-05 -1.01007e-06)
(-2.53183e-06 1.43165e-05 -2.53183e-06)
(-2.77623e-06 -1.30928e-05 -2.85687e-06)
(3.882e-07 -4.08261e-06 -3.39609e-06)
(3.58978e-06 1.10444e-06 -3.74298e-06)
(8.42111e-06 7.33545e-06 -3.70502e-06)
(1.3661e-05 1.38417e-05 -3.19435e-06)
(1.82775e-05 2.01309e-05 -2.27863e-06)
(2.097e-05 2.5688e-05 -1.09663e-06)
(2.07351e-05 2.99388e-05 1.13351e-07)
(1.74366e-05 3.22075e-05 1.20668e-06)
(1.15546e-05 3.21436e-05 1.93387e-06)
(4.10248e-06 2.9723e-05 2.32756e-06)
(-3.37454e-06 2.524e-05 2.43126e-06)
(-9.44435e-06 1.94951e-05 2.3605e-06)
(-1.32913e-05 1.36049e-05 2.28463e-06)
(-1.4642e-05 8.37257e-06 2.18216e-06)
(-1.36084e-05 4.21137e-06 2.16828e-06)
(-1.08766e-05 1.36505e-06 2.21617e-06)
(-7.43216e-06 -2.50666e-07 2.2032e-06)
(-4.40959e-06 -4.75741e-07 1.96931e-06)
(-2.55862e-06 1.23751e-06 1.59358e-06)
(-2.17752e-06 5.50035e-06 1.26143e-06)
(-3.48905e-06 1.26294e-05 7.4201e-07)
(-5.98067e-06 2.23054e-05 3.3379e-07)
(-8.52241e-06 3.35977e-05 8.03758e-08)
(-1.01631e-05 4.44205e-05 9.2996e-08)
(-9.63631e-06 5.22964e-05 -7.3182e-08)
(-7.02593e-06 5.54521e-05 4.91101e-07)
(-1.14727e-06 5.46637e-05 1.41769e-06)
(1.58606e-06 3.88348e-05 2.40525e-06)
(-3.87378e-06 2.36836e-05 -3.87378e-06)
(-5.43975e-06 -9.91973e-06 -4.13591e-06)
(-2.64082e-06 -7.52925e-07 -4.37621e-06)
(1.3891e-07 3.02828e-06 -4.37006e-06)
(4.81458e-06 7.76794e-06 -3.82126e-06)
(9.94697e-06 1.32398e-05 -2.98247e-06)
(1.45336e-05 1.93936e-05 -1.94844e-06)
(1.76012e-05 2.57663e-05 -8.89637e-07)
(1.84398e-05 3.12992e-05 6.09401e-08)
(1.6941e-05 3.50831e-05 1.00178e-06)
(1.33485e-05 3.58726e-05 1.71962e-06)
(8.14718e-06 3.325e-05 2.3982e-06)
(2.14725e-06 2.7571e-05 3.03203e-06)
(-3.94601e-06 1.99152e-05 3.41182e-06)
(-9.55497e-06 1.17013e-05 3.48488e-06)
(-1.42059e-05 4.34434e-06 3.29051e-06)
(-1.73555e-05 -1.29264e-06 2.7994e-06)
(-1.85773e-05 -4.91086e-06 1.8956e-06)
(-1.78336e-05 -6.42609e-06 7.90023e-07)
(-1.57367e-05 -5.60276e-06 -2.6915e-07)
(-1.29658e-05 -2.56647e-06 -1.04422e-06)
(-1.0083e-05 3.03472e-06 -1.51545e-06)
(-7.75121e-06 1.10688e-05 -1.60136e-06)
(-6.3923e-06 2.083e-05 -1.26804e-06)
(-5.62846e-06 3.07462e-05 -7.80027e-07)
(-4.54014e-06 3.93699e-05 -2.86285e-08)
(-2.37949e-06 4.41951e-05 8.85861e-07)
(4.56752e-07 4.48894e-05 1.92043e-06)
(3.49978e-06 4.31653e-05 2.51777e-06)
(2.62884e-06 3.35645e-05 2.35965e-06)
(-2.9021e-06 3.4141e-05 -2.9021e-06)
(-4.86532e-06 -5.76681e-06 -2.80032e-06)
(-4.22904e-06 2.59684e-06 -2.49038e-06)
(-3.40933e-06 4.23987e-06 -2.14984e-06)
(-1.22306e-06 7.05601e-06 -1.45269e-06)
(1.29674e-06 1.126e-05 -7.98828e-07)
(3.83159e-06 1.70399e-05 -3.35895e-07)
(6.06926e-06 2.37005e-05 -1.32703e-07)
(8.04235e-06 2.98931e-05 -5.29645e-08)
(9.67394e-06 3.44745e-05 1.21913e-07)
(1.04077e-05 3.60099e-05 6.6975e-07)
(9.64201e-06 3.38673e-05 1.29693e-06)
(6.92693e-06 2.84405e-05 2.11786e-06)
(1.9799e-06 2.09516e-05 2.68588e-06)
(-4.91892e-06 1.28123e-05 2.75979e-06)
(-1.24746e-05 5.51749e-06 2.24837e-06)
(-1.93452e-05 -2.64742e-07 1.07467e-06)
(-2.42795e-05 -4.31399e-06 -4.67855e-07)
(-2.60758e-05 -6.47085e-06 -1.99857e-06)
(-2.45915e-05 -6.33781e-06 -3.26243e-06)
(-2.06215e-05 -4.05025e-06 -4.03284e-06)
(-1.5365e-05 9.24691e-07 -4.20248e-06)
(-9.90403e-06 8.26667e-06 -3.92214e-06)
(-5.04804e-06 1.69638e-05 -3.26944e-06)
(-1.04793e-06 2.54278e-05 -2.40781e-06)
(2.43551e-06 3.2154e-05 -1.30011e-06)
(5.38812e-06 3.55568e-05 -2.19368e-07)
(6.90959e-06 3.6356e-05 5.67829e-07)
(6.69477e-06 3.64682e-05 7.60994e-07)
(3.20244e-06 3.23367e-05 8.78968e-07)
(1.38646e-06 3.78476e-05 1.38646e-06)
(-5.97889e-07 -2.47915e-06 1.65081e-06)
(-5.69273e-06 4.01993e-06 2.32195e-06)
(-8.8898e-06 4.20114e-06 2.37904e-06)
(-1.16956e-05 5.50779e-06 2.63247e-06)
(-1.37381e-05 8.74293e-06 2.2121e-06)
(-1.4355e-05 1.39558e-05 1.31104e-06)
(-1.29687e-05 2.02706e-05 2.20094e-07)
(-9.20798e-06 2.62291e-05 -8.49004e-07)
(-3.47804e-06 3.0671e-05 -1.41325e-06)
(2.81376e-06 3.28139e-05 -1.32747e-06)
(7.61113e-06 3.22722e-05 -6.32774e-07)
(9.06943e-06 2.94222e-05 -1.97401e-07)
(6.24982e-06 2.50143e-05 1.82993e-08)
(-2.74512e-07 1.97802e-05 -4.49934e-08)
(-8.89875e-06 1.46314e-05 -8.14172e-07)
(-1.76546e-05 9.53841e-06 -1.98454e-06)
(-2.42844e-05 4.70643e-06 -3.25761e-06)
(-2.71746e-05 5.29385e-07 -4.47401e-06)
(-2.61364e-05 -2.02718e-06 -5.16637e-06)
(-2.20225e-05 -2.3381e-06 -5.42783e-06)
(-1.60336e-05 2.831e-07 -5.1744e-06)
(-9.42529e-06 5.70348e-06 -4.52401e-06)
(-3.03862e-06 1.29132e-05 -3.67576e-06)
(2.69108e-06 2.02149e-05 -2.9101e-06)
(7.43121e-06 2.61899e-05 -1.99204e-06)
(1.06231e-05 3.01698e-05 -1.07979e-06)
(1.12646e-05 3.30688e-05 -3.72662e-07)
(9.79657e-06 3.57112e-05 2.81504e-07)
(4.5001e-06 3.51778e-05 1.82746e-06)
(7.58101e-06 2.79108e-05 7.58101e-06)
(4.68364e-06 7.89474e-07 6.97627e-06)
(-9.22433e-06 4.4221e-06 7.11443e-06)
(-1.72976e-05 4.518e-06 6.38953e-06)
(-2.57014e-05 5.45937e-06 5.23095e-06)
(-3.22255e-05 8.24735e-06 3.46304e-06)
(-3.53867e-05 1.23513e-05 1.30449e-06)
(-3.40157e-05 1.70195e-05 -8.00931e-07)
(-2.76418e-05 2.13683e-05 -2.29368e-06)
(-1.75141e-05 2.46858e-05 -3.13593e-06)
(-6.28354e-06 2.74282e-05 -3.24323e-06)
(3.33318e-06 2.95574e-05 -2.90758e-06)
(8.81753e-06 3.11552e-05 -2.35352e-06)
(8.75782e-06 3.19977e-05 -2.2602e-06)
(4.18143e-06 3.15027e-05 -2.59278e-06)
(-2.9283e-06 2.92739e-05 -3.11171e-06)
(-1.04351e-05 2.49385e-05 -3.6415e-06)
(-1.6024e-05 1.84107e-05 -4.23445e-06)
(-1.86753e-05 1.10014e-05 -4.4195e-06)
(-1.83283e-05 4.6738e-06 -4.20627e-06)
(-1.5614e-05 6.3408e-07 -3.70855e-06)
(-1.14703e-05 1.67356e-07 -3.05144e-06)
(-6.57569e-06 3.38299e-06 -2.39724e-06)
(-1.3183e-06 9.14793e-06 -1.82006e-06)
(4.11979e-06 1.56557e-05 -1.29068e-06)
(9.15382e-06 2.1628e-05 -5.86925e-07)
(1.27023e-05 2.69853e-05 3.41052e-07)
(1.37023e-05 3.195e-05 1.53845e-06)
(1.25946e-05 3.60609e-05 2.82722e-06)
(5.99903e-06 3.94533e-05 4.64046e-06)
(1.21106e-05 5.08535e-06 1.21106e-05)
(6.76024e-06 7.59758e-06 9.36599e-06)
(-1.56317e-05 8.13995e-06 8.398e-06)
(-2.72823e-05 8.80442e-06 6.79124e-06)
(-3.88625e-05 1.02268e-05 4.63146e-06)
(-4.73105e-05 1.21487e-05 2.00111e-06)
(-5.09669e-05 1.38424e-05 -5.56559e-07)
(-4.82027e-05 1.49271e-05 -2.37437e-06)
(-3.91588e-05 1.57725e-05 -3.45084e-06)
(-2.62733e-05 1.70231e-05 -3.7201e-06)
(-1.25383e-05 2.03349e-05 -3.4894e-06)
(-6.663e-07 2.57195e-05 -3.14908e-06)
(7.18815e-06 3.23187e-05 -2.962e-06)
(1.00597e-05 3.85735e-05 -2.99119e-06)
(9.00279e-06 4.25048e-05 -3.00217e-06)
(5.893e-06 4.2723e-05 -3.08077e-06)
(2.21397e-06 3.84603e-05 -2.92832e-06)
(-9.5593e-07 2.97619e-05 -2.37385e-06)
(-3.09107e-06 1.90738e-05 -1.43656e-06)
(-4.29155e-06 9.15862e-06 -4.95969e-07)
(-4.80696e-06 1.99213e-06 4.02429e-07)
(-4.72311e-06 -8.318e-07 1.10241e-06)
(-3.7599e-06 6.8405e-07 1.37861e-06)
(-1.26143e-06 5.06768e-06 1.23792e-06)
(2.78053e-06 1.0674e-05 1.41075e-06)
(7.41985e-06 1.66387e-05 2.07956e-06)
(1.10713e-05 2.28831e-05 3.14004e-06)
(1.24239e-05 2.8908e-05 4.58463e-06)
(1.08417e-05 3.42039e-05 5.87969e-06)
(4.72891e-06 4.28279e-05 5.14509e-06)
(1.04461e-05 -1.90054e-05 1.04461e-05)
(1.80213e-06 2.23149e-05 6.57642e-06)
(-2.27135e-05 1.9286e-05 4.90583e-06)
(-3.47177e-05 1.96796e-05 2.60849e-06)
(-4.55721e-05 2.05765e-05 4.62645e-07)
(-5.23117e-05 1.98153e-05 -1.31837e-06)
(-5.35391e-05 1.70688e-05 -2.39975e-06)
(-4.84514e-05 1.27255e-05 -2.77612e-06)
(-3.83474e-05 8.81386e-06 -2.37613e-06)
(-2.59547e-05 7.81567e-06 -2.13327e-06)
(-1.36755e-05 1.15226e-05 -1.70275e-06)
(-3.29774e-06 1.98623e-05 -1.55404e-06)
(4.45758e-06 3.06875e-05 -1.71328e-06)
(9.58287e-06 4.09472e-05 -2.04683e-06)
(1.27117e-05 4.7612e-05 -2.01096e-06)
(1.45851e-05 4.88423e-05 -1.62128e-06)
(1.5487e-05 4.39496e-05 -6.44313e-07)
(1.51959e-05 3.3782e-05 8.45816e-07)
(1.34567e-05 2.14125e-05 2.45979e-06)
(1.01168e-05 9.89223e-06 3.73217e-06)
(5.49556e-06 1.85786e-06 4.33763e-06)
(8.79011e-07 -1.72295e-06 4.11417e-06)
(-2.10314e-06 -1.34334e-06 3.34364e-06)
(-2.34166e-06 1.44021e-06 2.83505e-06)
(5.61971e-09 5.61545e-06 2.95113e-06)
(3.43006e-06 1.11065e-05 3.59465e-06)
(5.81487e-06 1.78989e-05 4.23906e-06)
(5.79558e-06 2.55428e-05 4.55741e-06)
(2.17652e-06 3.39505e-05 3.65768e-06)
(-3.67415e-07 4.52992e-05 1.85278e-08)
(3.94122e-06 -2.87606e-05 3.94122e-06)
(-6.55264e-06 4.41563e-05 -6.97195e-07)
(-2.56142e-05 3.6692e-05 -1.90159e-06)
(-3.45137e-05 3.5265e-05 -3.26236e-06)
(-4.09489e-05 3.32027e-05 -3.67626e-06)
(-4.30941e-05 2.75832e-05 -3.31215e-06)
(-4.04959e-05 1.87385e-05 -2.54131e-06)
(-3.42853e-05 8.55997e-06 -1.50537e-06)
(-2.62728e-05 7.36285e-07 -4.86556e-07)
(-1.85007e-05 -1.75486e-06 1.48952e-07)
(-1.19253e-05 2.70311e-06 2.70653e-07)
(-6.12851e-06 1.32451e-05 -2.00276e-07)
(-3.80865e-07 2.63944e-05 -9.6966e-07)
(6.06526e-06 3.81989e-05 -1.54778e-06)
(1.31188e-05 4.55895e-05 -1.54958e-06)
(1.96214e-05 4.6811e-05 -8.16817e-07)
(2.42835e-05 4.17076e-05 5.1583e-07)
(2.60178e-05 3.19902e-05 2.23371e-06)
(2.38592e-05 2.06094e-05 3.54488e-06)
(1.82517e-05 1.05228e-05 4.1682e-06)
(1.08537e-05 3.69098e-06 3.83851e-06)
(3.73877e-06 2.43264e-07 3.0115e-06)
(-1.07006e-06 -7.53684e-07 2.2497e-06)
(-2.85897e-06 -7.67689e-08 2.03435e-06)
(-2.62139e-06 2.60768e-06 2.36682e-06)
(-2.2402e-06 8.16146e-06 2.68433e-06)
(-3.30132e-06 1.65761e-05 2.22286e-06)
(-6.12675e-06 2.73743e-05 5.06678e-07)
(-1.07055e-05 3.89863e-05 -2.58073e-06)
(-6.87155e-06 4.49836e-05 -3.90613e-06)
(-4.46013e-06 -1.66629e-05 -4.46013e-06)
(-1.41348e-05 6.78328e-05 -6.43343e-06)
(-2.1793e-05 5.50482e-05 -6.02304e-06)
(-2.50665e-05 5.03684e-05 -6.01477e-06)
(-2.51873e-05 4.31442e-05 -4.89837e-06)
(-2.21075e-05 3.16063e-05 -3.38678e-06)
(-1.73428e-05 1.74062e-05 -1.6251e-06)
(-1.30255e-05 3.81196e-06 -3.48979e-08)
(-1.03898e-05 -5.39212e-06 9.3845e-07)
(-9.67419e-06 -7.53028e-06 1.1117e-06)
(-9.76381e-06 -1.78253e-06 4.49416e-07)
(-8.7195e-06 9.46401e-06 -9.12587e-07)
(-5.02833e-06 2.23534e-05 -2.02301e-06)
(2.05778e-06 3.31058e-05 -2.51745e-06)
(1.13231e-05 3.94137e-05 -2.17077e-06)
(2.02827e-05 4.03911e-05 -1.09969e-06)
(2.67746e-05 3.63303e-05 -6.13277e-08)
(2.89847e-05 2.91103e-05 1.16313e-06)
(2.63362e-05 2.08454e-05 1.9126e-06)
(2.01278e-05 1.3801e-05 1.9588e-06)
(1.24538e-05 8.66759e-06 1.4465e-06)
(5.42573e-06 4.77823e-06 1.09001e-06)
(5.6509e-07 1.85879e-06 1.15997e-06)
(-2.46878e-06 6.88187e-07 1.61165e-06)
(-5.3287e-06 3.16459e-06 1.84287e-06)
(-9.21112e-06 1.02163e-05 1.23005e-06)
(-1.38598e-05 2.11189e-05 -5.03995e-07)
(-1.74489e-05 3.39365e-05 -2.84891e-06)
(-1.7446e-05 4.36177e-05 -3.65339e-06)
(-8.29185e-06 3.81192e-05 -2.53303e-06)
(-8.77984e-06 9.77747e-06 -8.77984e-06)
(-1.5357e-05 8.55228e-05 -7.57517e-06)
(-1.26398e-05 6.83022e-05 -6.78991e-06)
(-9.94789e-06 5.99217e-05 -6.15397e-06)
(-5.24442e-06 4.74847e-05 -4.61505e-06)
(2.47684e-07 3.16303e-05 -2.91944e-06)
(4.40768e-06 1.52788e-05 -1.19923e-06)
(5.15238e-06 2.0173e-06 -5.20283e-08)
(2.07449e-06 -5.32534e-06 2.81377e-07)
(-3.11567e-06 -5.35885e-06 -1.34293e-07)
(-7.99465e-06 7.53068e-07 -1.2568e-06)
(-9.7823e-06 1.02075e-05 -2.24641e-06)
(-6.85661e-06 1.98523e-05 -2.7542e-06)
(1.94814e-07 2.73775e-05 -2.49726e-06)
(9.42731e-06 3.16614e-05 -1.60867e-06)
(1.81531e-05 3.24744e-05 -4.91372e-07)
(2.41508e-05 3.02561e-05 5.72561e-07)
(2.58396e-05 2.63967e-05 1.26294e-06)
(2.32267e-05 2.19538e-05 1.30483e-06)
(1.80704e-05 1.76751e-05 1.19193e-06)
(1.21205e-05 1.32147e-05 1.19907e-06)
(6.64391e-06 8.29215e-06 1.44592e-06)
(1.94843e-06 4.17201e-06 2.01649e-06)
(-3.04682e-06 2.96947e-06 2.25269e-06)
(-9.28375e-06 6.858e-06 1.53881e-06)
(-1.58686e-05 1.5569e-05 1.96344e-08)
(-2.05677e-05 2.70696e-05 -1.72398e-06)
(-2.03907e-05 3.6869e-05 -1.85765e-06)
(-1.36367e-05 3.91536e-05 -5.68158e-07)
(-4.44038e-06 2.6112e-05 1.20996e-06)
(-8.57387e-06 3.72065e-05 -8.57387e-06)
(-1.0282e-05 9.22873e-05 -6.58123e-06)
(-1.36339e-06 7.42078e-05 -5.91277e-06)
(4.16948e-06 6.28772e-05 -5.11559e-06)
(1.06228e-05 4.72988e-05 -3.86578e-06)
(1.59231e-05 3.01659e-05 -2.4994e-06)
(1.80162e-05 1.49481e-05 -1.32093e-06)
(1.56706e-05 4.55869e-06 -6.19358e-07)
(9.51482e-06 4.23109e-07 -5.33573e-07)
(1.85149e-06 1.76543e-06 -7.92302e-07)
(-4.40729e-06 6.15332e-06 -1.1411e-06)
(-6.81446e-06 1.16195e-05 -1.02675e-06)
(-4.90829e-06 1.61507e-05 -5.53562e-07)
(2.32092e-07 1.95683e-05 2.04282e-07)
(6.85013e-06 2.17604e-05 1.0588e-06)
(1.28565e-05 2.27347e-05 1.79321e-06)
(1.6712e-05 2.26027e-05 2.1432e-06)
(1.77768e-05 2.19704e-05 2.21779e-06)
(1.63681e-05 2.07721e-05 2.09877e-06)
(1.32055e-05 1.83699e-05 1.93056e-06)
(9.34753e-06 1.42967e-05 2.06001e-06)
(5.18962e-06 9.32257e-06 2.23319e-06)
(-2.03616e-07 5.9291e-06 2.12426e-06)
(-7.2479e-06 6.87172e-06 1.13499e-06)
(-1.45447e-05 1.2708e-05 -4.84708e-07)
(-1.93254e-05 2.08316e-05 -1.54563e-06)
(-1.94827e-05 2.82049e-05 -1.30466e-06)
(-1.39956e-05 3.08452e-05 5.33461e-08)
(-5.41053e-06 2.71963e-05 1.71485e-06)
(-5.99006e-07 1.63451e-05 1.36728e-06)
(-6.33406e-06 5.73881e-05 -6.33406e-06)
(-4.51014e-06 9.03768e-05 -4.58263e-06)
(6.44398e-06 7.42682e-05 -4.20881e-06)
(1.3059e-05 6.10054e-05 -3.53523e-06)
(1.98648e-05 4.42621e-05 -2.5589e-06)
(2.45537e-05 2.79218e-05 -1.43652e-06)
(2.51619e-05 1.5297e-05 -5.21539e-07)
(2.13096e-05 8.08251e-06 2.34712e-07)
(1.46511e-05 5.89766e-06 6.21005e-07)
(7.40429e-06 6.53804e-06 1.01252e-06)
(1.63642e-06 7.78551e-06 1.52564e-06)
(-1.60147e-06 8.71373e-06 2.27088e-06)
(-2.21471e-06 8.82489e-06 3.08695e-06)
(-7.79667e-07 9.21642e-06 3.67222e-06)
(1.52798e-06 1.01515e-05 3.7264e-06)
(3.88083e-06 1.18146e-05 3.334e-06)
(5.79943e-06 1.38654e-05 2.66143e-06)
(6.82026e-06 1.59537e-05 1.97618e-06)
(6.7927e-06 1.71995e-05 1.38541e-06)
(5.70603e-06 1.65715e-05 1.03169e-06)
(3.29487e-06 1.41852e-05 7.88843e-07)
(-9.56729e-07 1.15782e-05 2.21385e-07)
(-6.85763e-06 1.11255e-05 -9.07886e-07)
(-1.2855e-05 1.40709e-05 -2.26093e-06)
(-1.68542e-05 1.89106e-05 -2.86277e-06)
(-1.65158e-05 2.26098e-05 -2.60074e-06)
(-1.1342e-05 2.32659e-05 -1.36474e-06)
(-4.50293e-06 2.08598e-05 1.41107e-07)
(-5.68205e-07 1.91429e-05 1.74067e-07)
(6.02897e-08 1.39517e-05 -1.10897e-06)
(-4.01026e-06 6.90842e-05 -4.01026e-06)
(-1.84134e-07 8.33213e-05 -2.73522e-06)
(1.10005e-05 6.97009e-05 -2.28066e-06)
(1.80857e-05 5.50561e-05 -1.38394e-06)
(2.44153e-05 3.81603e-05 -2.17827e-07)
(2.7853e-05 2.32932e-05 9.55845e-07)
(2.72013e-05 1.31524e-05 1.86772e-06)
(2.30109e-05 8.23585e-06 2.58477e-06)
(1.70238e-05 6.54381e-06 3.0931e-06)
(1.08402e-05 5.63088e-06 3.75782e-06)
(5.40561e-06 4.03605e-06 4.58941e-06)
(8.25651e-07 1.85666e-06 5.13452e-06)
(-2.86258e-06 -8.32679e-08 5.1057e-06)
(-5.43859e-06 -6.9961e-07 4.48086e-06)
(-6.6137e-06 3.27688e-07 3.41466e-06)
(-6.21971e-06 2.86992e-06 2.32644e-06)
(-4.74904e-06 6.58835e-06 1.3641e-06)
(-3.10724e-06 1.083e-05 5.84179e-07)
(-2.11279e-06 1.4497e-05 -7.25725e-08)
(-2.42161e-06 1.66638e-05 -6.9896e-07)
(-4.5193e-06 1.75338e-05 -1.48914e-06)
(-8.29781e-06 1.84693e-05 -2.60568e-06)
(-1.23708e-05 2.02787e-05 -3.73111e-06)
(-1.44424e-05 2.19435e-05 -4.20767e-06)
(-1.29384e-05 2.19359e-05 -3.70315e-06)
(-8.32971e-06 1.99432e-05 -2.34026e-06)
(-3.00151e-06 1.71321e-05 -9.50175e-07)
(9.46669e-08 1.63543e-05 -7.09423e-07)
(4.7457e-08 2.09564e-05 -1.94188e-06)
(-3.35392e-07 1.72524e-05 -2.46562e-06)
(-2.09091e-06 7.37592e-05 -2.09091e-06)
(3.3014e-06 7.24159e-05 -7.86276e-07)
(1.4529e-05 6.04809e-05 2.48917e-07)
(2.14655e-05 4.48868e-05 1.62196e-06)
(2.60605e-05 2.86466e-05 2.83857e-06)
(2.68209e-05 1.5853e-05 3.81214e-06)
(2.40548e-05 8.08136e-06 4.4049e-06)
(1.92309e-05 4.44181e-06 4.74034e-06)
(1.38489e-05 2.62459e-06 4.97286e-06)
(8.5988e-06 7.15534e-07 5.3109e-06)
(3.31746e-06 -1.85215e-06 5.50374e-06)
(-2.26661e-06 -4.39699e-06 5.23294e-06)
(-7.7566e-06 -6.14401e-06 4.43544e-06)
(-1.19288e-05 -6.60958e-06 3.29507e-06)
(-1.36407e-05 -5.82669e-06 2.37326e-06)
(-1.28506e-05 -3.47618e-06 1.69242e-06)
(-1.0773e-05 9.33967e-07 1.22454e-06)
(-8.89129e-06 7.05205e-06 7.45029e-07)
(-8.0549e-06 1.3561e-05 7.66054e-08)
(-8.57648e-06 1.91575e-05 -8.3679e-07)
(-1.0297e-05 2.3514e-05 -1.97268e-06)
(-1.21657e-05 2.6387e-05 -2.9783e-06)
(-1.24521e-05 2.68651e-05 -3.30531e-06)
(-1.00977e-05 2.40803e-05 -2.66884e-06)
(-5.79404e-06 1.92118e-05 -1.24975e-06)
(-1.82738e-06 1.51922e-05 -2.0085e-07)
(-1.06056e-07 1.44576e-05 -4.39434e-07)
(-4.69515e-07 1.88539e-05 -1.78289e-06)
(-5.49839e-07 2.66936e-05 -2.78321e-06)
(-7.67768e-08 2.18314e-05 -2.2642e-06)
(-2.0221e-08 7.21325e-05 -2.0221e-08)
(6.99208e-06 5.72191e-05 1.64101e-06)
(1.75264e-05 4.64859e-05 3.19912e-06)
(2.26748e-05 3.14157e-05 4.5941e-06)
(2.37185e-05 1.7435e-05 5.71695e-06)
(2.05607e-05 7.58406e-06 6.18945e-06)
(1.5073e-05 2.1437e-06 5.85353e-06)
(9.57545e-06 -6.97086e-07 5.31563e-06)
(4.99892e-06 -2.68154e-06 5.10296e-06)
(8.18222e-07 -4.59839e-06 5.06576e-06)
(-3.81513e-06 -6.40336e-06 4.89686e-06)
(-9.02767e-06 -7.89074e-06 4.34517e-06)
(-1.36187e-05 -9.28823e-06 3.69562e-06)
(-1.60567e-05 -1.08588e-05 3.28404e-06)
(-1.58224e-05 -1.20804e-05 3.17127e-06)
(-1.38148e-05 -1.09641e-05 3.18029e-06)
(-1.17338e-05 -6.04591e-06 3.15465e-06)
(-1.06544e-05 2.18544e-06 2.70512e-06)
(-1.06003e-05 1.17619e-05 1.70313e-06)
(-1.10034e-05 2.02958e-05 4.78239e-07)
(-1.10471e-05 2.61686e-05 -4.27289e-07)
(-9.73961e-06 2.77749e-05 -6.022e-07)
(-6.68869e-06 2.46306e-05 8.2747e-08)
(-2.98387e-06 1.82635e-05 1.08887e-06)
(-6.81024e-07 1.24817e-05 1.6798e-06)
(-8.49193e-07 1.13083e-05 1.26913e-06)
(-2.52381e-06 1.52099e-05 -3.69304e-07)
(-3.36874e-06 2.22885e-05 -1.95728e-06)
(-1.13415e-06 2.82457e-05 -2.12662e-06)
(4.3569e-07 2.3413e-05 -8.46017e-07)
(2.30914e-06 6.36552e-05 2.30914e-06)
(1.02207e-05 3.8217e-05 4.25967e-06)
(1.79774e-05 2.95833e-05 5.92993e-06)
(1.93685e-05 1.74182e-05 7.11579e-06)
(1.58687e-05 7.75992e-06 7.31479e-06)
(9.34096e-06 1.5565e-06 6.34021e-06)
(2.54089e-06 -2.25971e-06 5.28464e-06)
(-2.81303e-06 -5.18124e-06 4.62763e-06)
(-6.58025e-06 -7.63613e-06 4.49303e-06)
(-9.71397e-06 -9.27136e-06 4.5084e-06)
(-1.29629e-05 -1.02353e-05 4.35722e-06)
(-1.58595e-05 -1.16094e-05 4.08434e-06)
(-1.72313e-05 -1.45265e-05 4.08852e-06)
(-1.63039e-05 -1.90488e-05 4.382e-06)
(-1.36635e-05 -2.2677e-05 4.97599e-06)
(-1.0981e-05 -2.23119e-05 5.32179e-06)
(-9.76514e-06 -1.61895e-05 4.92013e-06)
(-9.63092e-06 -5.46231e-06 3.88545e-06)
(-9.19341e-06 6.35999e-06 2.73807e-06)
(-7.68949e-06 1.56976e-05 2.01663e-06)
(-4.71684e-06 2.02004e-05 2.00537e-06)
(-7.54947e-07 1.8916e-05 2.76113e-06)
(2.58992e-06 1.37581e-05 3.73164e-06)
(3.26246e-06 8.50416e-06 3.79587e-06)
(9.40883e-07 6.40087e-06 3.05803e-06)
(-2.55332e-06 9.27604e-06 1.65576e-06)
(-5.22644e-06 1.59622e-05 8.52103e-08)
(-5.07613e-06 2.14948e-05 -9.39337e-07)
(-5.4893e-07 2.23012e-05 -4.28755e-07)
(1.42498e-06 1.91375e-05 2.01487e-06)
(4.24041e-06 4.86414e-05 4.24041e-06)
(1.07826e-05 1.89139e-05 6.24364e-06)
(1.31792e-05 1.39815e-05 7.37938e-06)
(1.03985e-05 7.23804e-06 6.95608e-06)
(3.51443e-06 2.63508e-06 5.8001e-06)
(-4.69201e-06 -7.89062e-07 4.65792e-06)
(-1.14379e-05 -4.64767e-06 4.00311e-06)
(-1.5821e-05 -9.03906e-06 3.92277e-06)
(-1.86032e-05 -1.25917e-05 4.12575e-06)
(-2.06921e-05 -1.45403e-05 4.20123e-06)
(-2.19726e-05 -1.60035e-05 4.09938e-06)
(-2.15504e-05 -1.92758e-05 4.28111e-06)
(-1.87285e-05 -2.57429e-05 4.86413e-06)
(-1.41822e-05 -3.36322e-05 5.67514e-06)
(-1.00919e-05 -3.85789e-05 6.24855e-06)
(-7.82211e-06 -3.70928e-05 6.27368e-06)
(-6.78763e-06 -2.87238e-05 5.49089e-06)
(-5.37534e-06 -1.65466e-05 4.56043e-06)
(-2.19861e-06 -4.93113e-06 4.17968e-06)
(2.85167e-06 2.51446e-06 4.49387e-06)
(8.41359e-06 4.78891e-06 5.31331e-06)
(1.23473e-05 2.80341e-06 6.19474e-06)
(1.2731e-05 -9.00631e-08 6.55217e-06)
(8.98377e-06 1.22862e-07 5.68969e-06)
(3.10062e-06 3.05763e-06 3.96125e-06)
(-1.81796e-06 7.92931e-06 2.51602e-06)
(-4.21061e-06 1.41824e-05 1.4544e-06)
(-3.23532e-06 1.52897e-05 1.04489e-06)
(2.15293e-06 9.79624e-06 2.02421e-06)