/*--------------------------------*- C++ -*----------------------------------*\
| =========                 |                                                 |
| \\      /  F ield         | OpenFOAM: The Open Source CFD Toolbox           |
|  \\    /   O peration     | Version:  2312                                  |
|   \\  /    A nd           | Website:  www.openfoam.com                      |
|    \\/     M anipulation  |                                                 |
\*---------------------------------------------------------------------------*/
FoamFile
{
    version     2.0;
    format      ascii;
    arch        "LSB;label=32;scalar=64";
    class       surfaceScalarField;
    location    "1.01077";
    object      alphaPhi0.water;
}
// * * * * * * * * * * * * * * * * * * * * * * * * * * * * * * * * * * * * * //

dimensions      [0 3 -1 0 0 0 0];

oriented        oriented;

internalField   nonuniform List<scalar> 
263100
(
-1.47083e-09
2.94153e-09
-1.47083e-09
-5.61095e-10
3.20041e-10
-1.22412e-09
-6.62428e-10
1.17859e-09
-1.07262e-09
-5.82538e-10
9.42555e-10
-1.01783e-09
-3.97786e-10
6.14707e-10
-7.94791e-10
-2.54685e-11
1.68727e-10
-5.36303e-10
4.79346e-10
-2.32234e-10
-2.67762e-10
9.71161e-10
-4.95318e-10
8.398e-12
1.31609e-09
-4.82786e-10
1.42827e-10
1.33714e-09
-2.00856e-10
1.84834e-10
1.05864e-09
2.08136e-10
7.54465e-11
5.55285e-10
6.89875e-10
-1.81395e-10
2.08477e-11
1.04622e-09
-5.06653e-10
-3.09861e-10
1.15571e-09
-8.1989e-10
-2.44355e-10
1.01018e-09
-1.07063e-09
2.62555e-10
6.70655e-10
-1.17258e-09
1.12652e-09
1.94556e-10
-1.05363e-09
2.04352e-09
-1.53963e-10
-7.58244e-10
2.57861e-09
-2.45625e-10
-2.84812e-10
2.42254e-09
-2.22128e-13
1.608e-10
1.46076e-09
5.44661e-10
4.21455e-10
-3.72513e-10
1.3193e-09
5.18138e-10
-2.75189e-09
1.94062e-09
4.42772e-10
-5.12589e-09
2.18296e-09
1.9489e-10
-6.69091e-09
1.71728e-09
-1.4859e-10
-6.60527e-09
5.04644e-10
-5.86758e-10
-4.39794e-09
-1.19912e-09
-1.00481e-09
6.78774e-10
-3.13584e-09
-1.93756e-09
7.49331e-09
-3.87991e-09
-2.9313e-09
2.11353e-08
-1.36448e-08
-2.28511e-10
3.40436e-09
-2.28511e-10
-5.74044e-10
9.14079e-10
-2.39126e-10
-7.21722e-10
1.54292e-09
-2.08094e-10
-8.41883e-10
1.27394e-09
-2.02617e-10
-8.14244e-10
7.57493e-10
-1.61713e-10
-6.77653e-10
1.63844e-10
-1.22871e-10
-3.99565e-10
-3.97692e-10
-1.03662e-10
-1.30895e-11
-7.60558e-10
-1.12143e-10
4.27712e-10
-7.78171e-10
-1.36211e-10
8.69164e-10
-4.82203e-10
-1.50811e-10
1.26629e-09
-5.94534e-11
-1.20173e-10
1.60546e-09
4.02529e-10
-4.24345e-11
1.87805e-09
6.93198e-10
8.98099e-11
2.04181e-09
7.18693e-10
2.82582e-10
2.06009e-09
4.9422e-10
5.06887e-10
1.88589e-09
1.67773e-10
6.8614e-10
1.48069e-09
-1.56466e-10
7.65062e-10
9.67922e-10
-3.48767e-10
7.16164e-10
3.75499e-10
-1.6687e-10
5.21973e-10
-1.88788e-10
3.07074e-10
2.64999e-10
-7.44444e-10
1.08909e-09
1.89418e-11
-1.26817e-09
1.9462e-09
-9.57599e-11
-1.67307e-09
2.5143e-09
-1.61656e-10
-1.81353e-09
2.3925e-09
-6.22314e-11
-1.71293e-09
1.39589e-09
2.27404e-10
-1.66438e-09
-3.17318e-10
7.79817e-10
-1.74638e-09
-2.7611e-09
1.65018e-09
7.35451e-12
-7.83433e-09
2.94984e-09
6.68931e-09
-1.53584e-08
4.79578e-09
2.45466e-08
3.27184e-09
2.21528e-10
2.96595e-09
2.21528e-10
-3.14412e-10
1.46122e-09
-2.63184e-12
-6.04747e-10
1.86468e-09
-2.36432e-11
-8.67293e-10
1.58408e-09
-3.97499e-11
-1.09855e-09
1.0659e-09
-6.91933e-11
-1.23652e-09
4.54122e-10
-1.44231e-10
-1.21048e-09
-1.27717e-10
-2.87825e-10
-9.57161e-10
-5.77454e-10
-4.28144e-10
-4.24089e-10
-7.86981e-10
-5.15893e-10
4.00292e-10
-7.79195e-10
-5.18951e-10
1.39529e-09
-6.39904e-10
-4.06065e-10
2.41366e-09
-4.57766e-10
-1.49576e-10
3.1998e-09
-2.84789e-10
2.00317e-10
3.51724e-09
-1.29545e-10
5.39206e-10
3.18947e-09
1.72486e-11
8.1306e-10
2.28265e-09
1.57517e-10
9.25249e-10
9.75351e-10
3.41879e-10
8.1696e-10
-4.35766e-10
5.87559e-10
4.8258e-10
-1.51066e-09
9.10654e-10
4.92256e-12
-2.04794e-09
1.24394e-09
-3.92294e-10
-1.8174e-09
1.63055e-09
-7.65001e-10
-8.22833e-10
1.91348e-09
-9.55124e-10
6.4566e-10
1.95074e-09
-8.98473e-10
2.28524e-09
1.40904e-09
-6.49903e-10
3.74021e-09
3.56286e-10
-4.09342e-10
4.59743e-09
-9.07649e-10
-2.60985e-10
3.32109e-09
-1.78115e-09
3.02384e-10
-7.15343e-10
-5.39771e-09
1.60671e-09
-9.91716e-10
-1.9997e-08
4.92565e-09
1.53767e-08
8.19145e-09
4.71717e-10
2.0272e-09
4.71717e-10
2.62539e-11
1.56831e-09
3.46956e-10
-2.38255e-10
1.82907e-09
3.0795e-10
-5.35619e-10
1.64374e-09
2.45577e-10
-8.93277e-10
1.30125e-09
1.30289e-10
-1.23168e-09
8.38491e-10
-3.78858e-11
-1.44927e-09
3.05721e-10
-2.07667e-10
-1.42166e-09
-2.03081e-10
-3.93725e-10
-1.03737e-09
-6.40285e-10
-5.22656e-10
-2.87484e-10
-9.75211e-10
-5.45492e-10
7.25713e-10
-1.20002e-09
-4.44671e-10
1.77066e-09
-1.26052e-09
-2.33773e-10
2.55354e-09
-1.10095e-09
4.16534e-11
2.84405e-09
-6.4739e-10
2.35669e-10
2.50103e-09
3.83309e-11
3.30188e-10
1.58046e-09
8.26395e-10
2.59801e-10
3.02891e-10
1.6042e-09
2.31556e-11
-9.8549e-10
2.16785e-09
-2.84218e-10
-1.81997e-09
2.39452e-09
-6.41923e-10
-1.87582e-09
2.25689e-09
-9.4986e-10
-9.6631e-10
1.86134e-09
-1.1333e-09
7.30473e-10
1.39692e-09
-1.17347e-09
2.88402e-09
8.31879e-10
-1.02819e-09
4.87281e-09
2.23489e-10
-7.96971e-10
6.16254e-09
-4.12686e-10
-5.14737e-10
6.93787e-09
-1.15441e-09
-5.22811e-10
7.90678e-09
-1.04805e-09
-1.69672e-09
3.73505e-09
1.24162e-09
-2.46246e-09
-5.03669e-09
-9.46251e-09
-1.75547e-09
8.53028e-09
1.81482e-09
6.87183e-10
6.57578e-10
6.87183e-10
4.26009e-10
1.18639e-09
6.51491e-10
3.74193e-10
1.27866e-09
6.09903e-10
2.06891e-10
1.26183e-09
5.56944e-10
-1.19776e-10
1.18532e-09
4.50406e-10
-5.27542e-10
9.71138e-10
2.83011e-10
-9.2863e-10
6.04004e-10
1.10774e-10
-1.20341e-09
1.18731e-10
-3.8995e-11
-1.26177e-09
-4.09623e-10
-1.64199e-10
-1.06018e-09
-9.43904e-10
-2.24746e-10
-6.5769e-10
-1.36869e-09
-2.25632e-10
-1.73569e-10
-1.55461e-09
-1.81836e-10
2.39997e-10
-1.35175e-09
-1.54576e-10
4.86357e-10
-6.94376e-10
-1.91203e-10
4.79096e-10
3.59658e-10
-3.05954e-10
2.05421e-10
1.58141e-09
-4.73278e-10
-2.21422e-10
2.67726e-09
-6.38216e-10
-5.84669e-10
3.29109e-09
-7.52144e-10
-5.99037e-10
3.24109e-09
-8.24607e-10
-6.63795e-11
2.59908e-09
-8.67548e-10
9.97482e-10
1.66192e-09
-8.57406e-10
2.55599e-09
6.67445e-10
-8.22296e-10
4.1843e-09
-2.30596e-11
-7.66894e-10
5.47001e-09
-3.28522e-10
-7.27484e-10
5.90683e-09
-1.61744e-10
-6.81776e-10
5.22356e-09
8.14299e-11
-5.46788e-10
4.54306e-09
4.18835e-10
-7.80812e-10
3.07544e-09
4.46617e-09
-1.75162e-09
-3.34142e-09
-1.71241e-10
-2.86887e-09
6.81245e-09
-1.61938e-09
6.588e-10
-6.55362e-10
6.588e-10
8.82019e-10
2.54858e-10
7.16146e-10
1.13031e-09
3.24682e-10
7.12872e-10
1.24269e-09
4.77198e-10
6.79467e-10
1.13816e-09
6.88494e-10
6.08631e-10
8.28485e-10
7.73595e-10
5.14553e-10
3.52148e-10
6.75203e-10
4.1254e-10
-2.5024e-10
3.84224e-10
3.44358e-10
-9.23404e-10
-2.54456e-11
2.96516e-10
-1.59705e-09
-5.05052e-10
2.42398e-10
-2.15266e-09
-9.23602e-10
1.18202e-10
-2.53239e-09
-1.13691e-09
-3.02406e-11
-2.62388e-09
-9.82765e-10
-2.69731e-10
-2.38122e-09
-4.23109e-10
-5.06191e-10
-1.84909e-09
5.20901e-10
-6.85612e-10
-1.1116e-09
1.64534e-09
-7.93702e-10
-2.70634e-10
2.59406e-09
-7.50162e-10
5.64323e-10
3.06001e-09
-5.96417e-10
1.38893e-09
2.82089e-09
-3.97098e-10
2.18126e-09
2.01362e-09
-1.99821e-10
2.94241e-09
9.79976e-10
-7.23965e-11
3.59354e-09
9.17068e-11
-6.88435e-11
4.07689e-09
-3.25527e-10
-1.74633e-10
4.21294e-09
-7.48193e-11
-3.8379e-10
3.90457e-09
9.1746e-10
-7.65153e-10
2.54594e-09
2.57519e-09
-1.12968e-09
5.51371e-10
3.75566e-09
-1.33699e-09
-1.13415e-10
7.63841e-09
-2.50239e-09
-2.8755e-09
6.43401e-09
-3.83814e-09
6.85615e-09
-2.91525e-09
2.51756e-10
-1.15457e-09
2.51756e-10
1.06026e-09
-9.2858e-10
3.81802e-10
1.73139e-09
-6.92055e-10
3.51939e-10
2.28921e-09
-3.86634e-10
3.12313e-10
2.60512e-09
4.54332e-11
3.33482e-10
2.58723e-09
4.47474e-10
3.50405e-10
2.17319e-09
7.02042e-10
3.93666e-10
1.31252e-09
8.07298e-10
4.44124e-10
7.07958e-11
7.39815e-10
4.83069e-10
-1.41494e-09
5.40874e-10
4.46507e-10
-2.93613e-09
2.88121e-10
3.1628e-10
-4.12685e-09
3.78362e-11
2.29032e-11
-4.70545e-09
-1.20825e-10
-2.76328e-10
-4.49241e-09
-9.18299e-11
-5.37245e-10
-3.52465e-09
2.18471e-10
-6.58243e-10
-1.98679e-09
6.97935e-10
-5.83397e-10
-1.95504e-10
1.15019e-09
-3.40446e-10
1.48451e-09
1.33853e-09
4.83295e-11
2.81239e-09
1.15161e-09
3.48115e-10
3.61001e-09
6.07695e-10
6.1485e-10
3.81359e-09
-3.74944e-11
8.20198e-10
3.49327e-09
-4.02659e-10
8.20704e-10
2.79036e-09
-2.50249e-10
6.33374e-10
1.739e-09
6.65551e-10
3.16461e-10
5.51327e-10
2.26149e-09
-1.51129e-10
-7.00843e-10
4.66217e-09
-8.29799e-10
-2.36536e-09
6.87227e-09
-1.44729e-09
-1.91845e-09
9.27185e-09
-2.07565e-09
-2.19217e-09
9.08922e-09
-2.37699e-09
6.15425e-09
-1.48656e-09
-5.7623e-10
1.6125e-12
-5.7623e-10
8.63752e-10
-2.04911e-09
-3.13848e-10
2.00946e-09
-1.49963e-09
-3.32968e-10
3.05823e-09
-1.07672e-09
-3.53594e-10
3.88042e-09
-4.70631e-10
-3.0101e-10
4.27904e-09
2.27739e-10
-1.73747e-10
4.06454e-09
9.22753e-10
-1.0244e-12
3.1487e-09
1.56107e-09
1.67386e-10
1.59453e-09
2.00761e-09
2.9179e-10
-3.8704e-10
2.22843e-09
2.99554e-10
-2.44239e-09
2.14332e-09
2.05825e-10
-4.1112e-09
1.67767e-09
3.47908e-11
-5.04505e-09
9.32375e-10
-1.13406e-10
-5.01514e-09
1.21257e-10
-2.36959e-10
-4.04629e-09
-5.52446e-10
-1.91841e-10
-2.37434e-09
-1.00087e-09
3.2933e-11
-3.80164e-10
-1.13389e-09
2.95943e-10
1.44908e-09
-1.14007e-09
6.55291e-10
2.7613e-09
-1.16783e-09
1.013e-09
3.307e-09
-1.25879e-09
1.32639e-09
3.10041e-09
-1.29164e-09
1.46614e-09
2.32022e-09
-1.04341e-09
1.42612e-09
1.10539e-09
-2.85116e-10
1.25463e-09
-3.78701e-10
1.14787e-09
1.0065e-09
-1.88995e-09
3.11868e-09
6.58611e-10
-2.84866e-09
5.42727e-09
1.98011e-10
-3.32862e-09
7.48276e-09
-1.2625e-10
-2.27283e-09
8.41076e-09
-1.9049e-10
-7.49846e-10
7.50465e-09
6.58373e-11
4.3864e-09
1.02143e-09
-1.3438e-09
2.69216e-09
-1.3438e-09
5.55469e-10
-2.81714e-09
-1.12721e-09
2.06019e-09
-1.87701e-09
-1.12362e-09
3.47513e-09
-1.47112e-09
-1.0168e-09
4.62114e-09
-7.89684e-10
-8.23188e-10
5.30167e-09
1.13506e-10
-5.6251e-10
5.30701e-09
1.21669e-09
-2.95425e-10
4.53587e-09
2.40581e-09
-6.96803e-11
3.10865e-09
3.39436e-09
4.4516e-11
1.21761e-09
3.97333e-09
1.50369e-10
-7.49752e-10
3.91272e-09
2.02335e-10
-2.41205e-09
3.11872e-09
2.2576e-10
-3.47951e-09
1.69382e-09
3.1066e-10
-3.82102e-09
1.77944e-11
4.49705e-10
-3.44482e-09
-1.52223e-09
5.98368e-10
-2.5295e-09
-2.69499e-09
7.83576e-10
-1.34156e-09
-3.35637e-09
1.03925e-09
-2.10145e-10
-3.54309e-09
1.27621e-09
6.30436e-10
-3.4151e-09
1.41117e-09
1.06324e-09
-3.10349e-09
1.41625e-09
1.0034e-09
-2.56448e-09
1.33688e-09
4.50638e-10
-1.72644e-09
1.23985e-09
-4.24847e-10
-5.55568e-10
1.14984e-09
-1.43934e-09
1.11945e-09
1.04669e-09
-2.37033e-09
3.11235e-09
9.40957e-10
-2.68923e-09
4.84602e-09
9.03695e-10
-2.11616e-09
5.85132e-09
1.06187e-09
-5.87485e-10
5.39146e-09
1.49417e-09
6.80446e-10
4.06816e-09
2.17213e-09
2.65301e-09
2.41665e-09
-1.58958e-09
5.87337e-09
-1.58958e-09
4.19722e-10
-3.58801e-09
-1.23631e-09
1.9684e-09
-2.32477e-09
-1.0988e-09
3.36421e-09
-2.00408e-09
-8.60662e-10
4.43871e-09
-1.29814e-09
-5.63746e-10
5.05058e-09
-2.1961e-10
-2.76324e-10
5.08009e-09
1.2309e-09
-4.11958e-11
4.62266e-09
2.75553e-09
1.10397e-10
3.73851e-09
4.09212e-09
1.89142e-10
2.59129e-09
4.83421e-09
2.89165e-10
1.35881e-09
4.70483e-09
4.43363e-10
2.01455e-10
3.61657e-09
6.62596e-10
-8.12498e-10
1.79662e-09
9.14314e-10
-1.70023e-09
-2.91473e-10
1.20019e-09
-2.41802e-09
-2.22085e-09
1.41962e-09
-2.93778e-09
-3.70063e-09
1.52859e-09
-3.18462e-09
-4.55006e-09
1.44367e-09
-3.07585e-09
-4.83629e-09
1.1875e-09
-2.68687e-09
-4.67113e-09
8.70011e-10
-2.19912e-09
-4.18095e-09
5.92582e-10
-1.75542e-09
-3.40633e-09
4.00959e-10
-1.4777e-09
-2.30908e-09
3.07674e-10
-1.4355e-09
-8.73276e-10
2.78222e-10
-1.46646e-09
8.22232e-10
3.30832e-10
-1.3424e-09
2.51441e-09
4.76454e-10
-7.34366e-10
3.52075e-09
7.19789e-10
3.78792e-10
3.54016e-09
1.20063e-09
1.31417e-09
2.74159e-09
1.71715e-09
1.17892e-09
2.32439e-09
1.88167e-09
2.68638e-09
1.14755e-09
-6.4925e-10
7.17299e-09
-6.4925e-10
7.23189e-10
-4.76809e-09
-1.91612e-10
1.55812e-09
-3.21789e-09
5.90462e-11
2.18309e-09
-2.85102e-09
2.2291e-10
2.55967e-09
-2.09473e-09
4.21032e-10
2.65388e-09
-8.80239e-10
5.67551e-10
2.60485e-09
6.99424e-10
5.81735e-10
2.55555e-09
2.33404e-09
4.72077e-10
2.62102e-09
3.65365e-09
3.74388e-10
2.71723e-09
4.37559e-09
3.63818e-10
2.70074e-09
4.20325e-09
5.19479e-10
2.35562e-09
3.17012e-09
7.93031e-10
1.49748e-09
1.57745e-09
1.07874e-09
2.96624e-11
-3.71652e-11
1.21489e-09
-1.76204e-09
-1.63506e-09
1.20725e-09
-3.60107e-09
-2.81903e-09
9.58726e-10
-5.0594e-09
-3.57947e-09
4.89008e-10
-5.80178e-09
-4.0203e-09
-7.23979e-11
-5.78814e-09
-4.23267e-09
-4.50891e-10
-5.08866e-09
-4.11467e-09
-7.64551e-10
-3.98573e-09
-3.58052e-09
-9.27467e-10
-2.79467e-09
-2.63144e-09
-8.67391e-10
-1.74198e-09
-1.2405e-09
-6.84043e-10
-7.55471e-10
2.83664e-10
-4.46426e-10
2.62204e-10
1.60234e-09
-1.04026e-10
1.3374e-09
2.21655e-09
2.30654e-10
2.0563e-09
2.29784e-09
5.25013e-10
1.80015e-09
2.4063e-09
5.92977e-10
7.10629e-10
3.3282e-09
8.71466e-11
3.75157e-09
-3.53621e-10
1.17865e-09
4.81627e-09
1.17865e-09
7.75561e-10
-5.76472e-09
1.39917e-09
1.4642e-10
-4.30772e-09
1.71861e-09
-6.26843e-10
-3.77467e-09
1.69664e-09
-1.43299e-09
-2.88122e-09
1.59245e-09
-1.99981e-09
-1.54826e-09
1.23471e-09
-2.09e-09
6.14637e-11
7.28034e-10
-1.47122e-09
1.4642e-09
2.50934e-10
-2.6286e-10
2.55689e-09
-1.11788e-10
1.21575e-09
3.12219e-09
-2.25467e-10
2.49943e-09
3.09555e-09
-1.76377e-10
3.01025e-09
2.72106e-09
-6.23256e-11
2.43957e-09
2.13794e-09
9.55218e-12
9.14557e-10
1.54593e-09
-5.88583e-11
-1.36296e-09
9.27537e-10
-2.85982e-10
-3.81794e-09
3.55155e-10
-7.20167e-10
-5.85368e-09
-3.24861e-10
-1.21983e-09
-6.90514e-09
-1.30153e-09
-1.66818e-09
-6.86827e-09
-2.24452e-09
-2.02576e-09
-5.91895e-09
-2.97273e-09
-2.09182e-09
-4.43464e-09
-3.17774e-09
-1.88748e-09
-2.77892e-09
-2.74971e-09
-1.53756e-09
-1.16761e-09
-1.73427e-09
-1.11744e-09
3.22234e-10
-5.1747e-10
-6.88466e-10
1.67516e-09
5.35737e-10
-2.85968e-10
2.58002e-09
1.28985e-09
2.22191e-11
2.61765e-09
2.10136e-09
1.59135e-10
1.69211e-09
3.39071e-09
-5.86932e-11
6.81106e-10
4.68158e-09
-3.4233e-10
4.3666e-09
6.58986e-11
3.0461e-09
-1.27622e-09
3.0461e-09
1.71966e-10
-5.60907e-09
2.7167e-09
-2.33668e-09
-4.32148e-09
2.52084e-09
-4.61701e-09
-3.45905e-09
1.9632e-09
-6.49566e-09
-2.29053e-09
1.28646e-09
-7.56206e-09
-9.21538e-10
4.38129e-10
-7.45314e-09
2.60136e-10
-3.0926e-10
-6.15102e-09
1.05925e-09
-8.99022e-10
-3.84476e-09
1.59894e-09
-1.35032e-09
-1.1123e-09
1.87306e-09
-1.48552e-09
1.20176e-09
2.21871e-09
-1.43968e-09
2.46084e-09
2.83774e-09
-1.37852e-09
2.37726e-09
3.6447e-09
-1.42626e-09
1.11739e-09
4.47188e-09
-1.66939e-09
-8.83731e-10
4.98284e-09
-2.05763e-09
-2.97306e-09
4.88084e-09
-2.43978e-09
-4.54853e-09
3.95298e-09
-2.70563e-09
-5.30433e-09
2.25635e-09
-2.80509e-09
-5.09442e-09
2.2701e-10
-2.68414e-09
-4.22973e-09
-1.47799e-09
-2.36177e-09
-3.0291e-09
-2.49489e-09
-1.88541e-09
-1.64833e-09
-2.73018e-09
-1.40188e-09
-2.06337e-10
-2.21947e-09
-9.58125e-10
1.19451e-09
-1.35941e-09
-5.60044e-10
2.34435e-09
-3.8734e-10
-2.27824e-10
2.90577e-09
7.17511e-10
9.82955e-12
2.68286e-09
2.19247e-09
1.30627e-10
1.98465e-09
3.85001e-09
2.37574e-10
1.43786e-09
4.5855e-09
6.41448e-10
4.48544e-09
1.31765e-09
3.3493e-09
-7.97592e-09
3.3493e-09
-1.72911e-09
-2.31627e-09
1.78209e-09
-5.64282e-09
-1.569e-09
1.15814e-09
-8.71699e-09
-6.17977e-10
2.29996e-10
-1.09494e-08
4.61294e-10
-5.22599e-10
-1.18421e-08
1.17388e-09
-1.20599e-09
-1.12315e-08
1.50453e-09
-1.85854e-09
-9.1362e-09
1.19513e-09
-2.23498e-09
-6.05985e-09
7.9712e-10
-2.2785e-09
-2.80087e-09
7.81291e-10
-2.17147e-09
-1.72248e-10
1.60594e-09
-2.02043e-09
1.46179e-09
3.18249e-09
-1.98375e-09
1.88066e-09
5.36556e-09
-2.14495e-09
1.38362e-09
7.34589e-09
-2.38233e-09
3.984e-10
8.53087e-09
-2.56832e-09
-6.05938e-10
8.53511e-09
-2.65527e-09
-1.30157e-09
7.22298e-09
-2.57948e-09
-1.5967e-09
4.82522e-09
-2.27856e-09
-1.6128e-09
2.07601e-09
-1.83732e-09
-1.43117e-09
-2.80575e-10
-1.38299e-09
-1.12253e-09
-1.76966e-09
-1.03735e-09
-6.43817e-10
-2.39883e-09
-8.13144e-10
1.1518e-10
-2.27833e-09
-7.02919e-10
1.06729e-09
-1.64884e-09
-6.65251e-10
1.91769e-09
-6.33062e-10
-6.07163e-10
2.33022e-09
8.29031e-10
-5.26553e-10
2.36514e-09
2.51331e-09
-3.58346e-10
2.28822e-09
3.79959e-09
1.24707e-10
1.62225e-09
4.46975e-09
7.79067e-10
5.75869e-09
3.4659e-10
1.25101e-09
-1.04798e-08
1.25101e-09
-4.27166e-09
3.69078e-09
-4.89782e-10
-8.18408e-09
3.37577e-09
-1.03728e-09
-1.09715e-08
3.8883e-09
-1.72383e-09
-1.25776e-08
4.31325e-09
-2.2509e-09
-1.27699e-08
3.85601e-09
-2.49491e-09
-1.13824e-08
2.54214e-09
-2.43028e-09
-8.87936e-09
8.67655e-10
-2.1813e-09
-5.94281e-09
-3.57217e-10
-1.78814e-09
-3.193e-09
-4.99382e-10
-1.47537e-09
-1.03625e-09
7.1247e-10
-1.26985e-09
3.78448e-10
3.08654e-09
-1.32564e-09
1.25788e-09
5.99945e-09
-1.52044e-09
1.7933e-09
8.49719e-09
-1.69382e-09
2.157e-09
9.84437e-09
-1.6842e-09
2.43173e-09
9.72185e-09
-1.46845e-09
2.54582e-09
8.1446e-09
-1.04246e-09
2.32327e-09
5.56438e-09
-5.22986e-10
1.73969e-09
2.81039e-09
-1.56665e-10
8.38518e-10
5.88479e-10
2.67398e-11
-2.56005e-11
-8.5218e-10
-5.82763e-11
-5.34075e-10
-1.51074e-09
-3.84129e-10
-4.91219e-10
-1.57554e-09
-7.49844e-10
-6.68813e-12
-1.0898e-09
-1.04754e-09
6.16306e-10
-2.75331e-11
-1.2323e-09
1.07007e-09
1.64053e-09
-1.26888e-09
1.30396e-09
3.40521e-09
-1.12921e-09
1.11184e-09
4.84933e-09
-8.60794e-10
1.18854e-10
6.50379e-09
-1.04395e-09
7.77527e-09
-1.89985e-09
-1.38318e-09
-7.71644e-09
-1.38318e-09
-5.77351e-09
1.08173e-08
-2.74407e-09
-8.49728e-09
8.96424e-09
-2.87128e-09
-1.00771e-08
8.46553e-09
-3.0038e-09
-1.04297e-08
7.40678e-09
-2.74711e-09
-9.57452e-09
5.28908e-09
-2.29473e-09
-7.90514e-09
2.514e-09
-1.64806e-09
-5.99634e-09
-7.4554e-11
-9.73547e-10
-4.22308e-09
-1.73063e-09
-4.07016e-10
-2.84248e-09
-1.75098e-09
-1.36495e-10
-1.88395e-09
-4.25462e-11
-2.11392e-10
-8.81413e-10
2.55942e-09
-4.83605e-10
3.85107e-10
5.52303e-09
-7.98546e-10
1.91431e-09
7.8543e-09
-8.9485e-10
3.46232e-09
9.00559e-09
-7.1768e-10
4.66673e-09
8.78824e-09
-2.79068e-10
5.2046e-09
7.38264e-09
2.16084e-10
4.76852e-09
5.37226e-09
6.20574e-10
3.46377e-09
3.36339e-09
7.44546e-10
1.75503e-09
1.74116e-09
5.49313e-10
2.45718e-10
5.71311e-10
7.94597e-11
-6.68044e-10
-2.50462e-10
-3.525e-10
-9.46891e-10
-6.69338e-10
-6.32976e-10
-8.32405e-10
-4.34549e-10
-7.74985e-10
-6.83933e-10
6.56939e-10
-8.37795e-10
-6.27812e-10
2.46704e-09
-8.8706e-10
-7.10646e-10
4.37562e-09
-8.91566e-10
-1.21324e-09
6.53196e-09
-1.1836e-09
-1.63783e-09
8.73342e-09
-1.80826e-09
7.58428e-09
-1.44925e-09
-3.37092e-09
-9.78424e-10
-3.37092e-09
-5.31599e-09
1.63276e-08
-3.57318e-09
-6.27512e-09
1.3057e-08
-3.14018e-09
-6.29126e-09
1.12474e-08
-2.77257e-09
-5.48285e-09
8.67042e-09
-2.07924e-09
-4.25619e-09
5.3191e-09
-1.26391e-09
-3.12237e-09
1.86796e-09
-4.95158e-10
-2.50697e-09
-7.15737e-10
1.83379e-11
-2.44223e-09
-2.07744e-09
2.74382e-10
-2.69414e-09
-1.6012e-09
9.41276e-11
-2.70048e-09
3.07254e-10
-3.51786e-10
-1.9618e-09
2.6578e-09
-8.45671e-10
-3.666e-10
4.96865e-09
-1.0495e-09
1.77602e-09
6.67085e-09
-9.68045e-10
3.91188e-09
7.45713e-09
-5.96262e-10
5.40124e-09
7.38828e-09
-9.8178e-11
5.84773e-09
6.66468e-09
2.6269e-10
5.16828e-09
5.62438e-09
4.18677e-10
3.7486e-09
4.44626e-09
3.28376e-10
2.16168e-09
3.22551e-09
9.44018e-11
9.09997e-10
1.92273e-09
-1.07594e-10
1.88498e-10
6.02057e-10
-1.38511e-10
-2.24888e-10
-2.59271e-10
-3.7366e-12
-7.29793e-10
-2.02591e-10
2.66433e-10
-1.37663e-09
9.07294e-10
3.90613e-10
-1.97825e-09
2.64738e-09
4.16131e-10
-2.46424e-09
4.6044e-09
2.52781e-10
-2.65136e-09
6.72275e-09
-7.42664e-12
-1.59462e-09
7.58762e-09
8.58131e-11
4.74035e-09
1.2469e-09
-3.43522e-09
5.8874e-09
-3.43522e-09
-3.20553e-09
1.89042e-08
-2.81494e-09
-2.74558e-09
1.5028e-08
-2.43887e-09
-1.85582e-09
1.23347e-08
-1.98484e-09
-7.57465e-10
8.96785e-09
-1.40352e-09
1.13744e-10
5.2532e-09
-8.12872e-10
3.44105e-10
2.07529e-09
-4.45235e-10
-2.69957e-10
1.87355e-10
-2.96556e-10
-1.43889e-09
-4.29295e-10
-4.86853e-10
-2.51105e-09
2.93848e-10
-8.30676e-10
-2.80302e-09
1.7021e-09
-1.11084e-09
-2.07741e-09
3.12058e-09
-1.19648e-09
-4.24901e-10
4.3447e-09
-1.03701e-09
1.68493e-09
5.15588e-09
-6.03553e-10
3.54899e-09
5.67605e-09
-9.18252e-11
4.68927e-09
6.02691e-09
2.12153e-10
4.94807e-09
6.08011e-09
3.16772e-10
4.47039e-09
5.84216e-09
2.50915e-10
3.64457e-09
5.15886e-09
1.04063e-10
2.86205e-09
3.94257e-09
5.61473e-11
2.24642e-09
2.37855e-09
1.50532e-10
1.61209e-09
8.23399e-10
4.04003e-10
6.54561e-10
4.03335e-11
6.49365e-10
-6.17444e-10
3.59372e-10
7.02064e-10
-1.86109e-09
1.57112e-09
5.72533e-10
-2.59306e-09
2.92909e-09
4.43688e-10
-2.7063e-09
4.29901e-09
4.12699e-10
-1.88128e-09
5.18287e-09
7.09416e-10
-3.14089e-10
4.54897e-09
1.4663e-09
3.11826e-09
1.30335e-09
-2.66021e-09
1.12029e-08
-2.66021e-09
-1.13024e-09
1.93615e-08
-1.99948e-09
3.12885e-11
1.57508e-08
-1.89434e-09
1.1038e-09
1.28181e-08
-1.56521e-09
2.13147e-09
9.16237e-09
-1.23099e-09
2.57368e-09
5.73242e-09
-9.29673e-10
2.17131e-09
3.18041e-09
-7.10608e-10
1.13038e-09
1.79557e-09
-5.74729e-10
-2.39398e-10
1.47966e-09
-5.4631e-10
-1.34007e-09
1.88329e-09
-4.95749e-10
-1.69769e-09
2.33682e-09
-2.83983e-10
-1.16739e-09
2.49171e-09
9.17414e-11
-3.01068e-11
2.7111e-09
4.89469e-10
1.20079e-09
3.0382e-09
8.79832e-10
2.16677e-09
3.59455e-09
1.10827e-09
2.74881e-09
4.36255e-09
1.07453e-09
3.02699e-09
4.95695e-09
8.3668e-10
3.1816e-09
5.08131e-09
5.97408e-10
3.26553e-09
4.58483e-09
4.8074e-10
3.17697e-09
3.48365e-09
5.37681e-10
2.69051e-09
2.18407e-09
6.70837e-10
1.52463e-09
1.31361e-09
6.65504e-10
-1.6707e-10
1.39962e-09
3.22336e-10
-1.74923e-09
2.22622e-09
-2.94566e-10
-2.62572e-09
3.32978e-09
-8.91733e-10
-2.60015e-09
3.94101e-09
-1.0469e-09
-1.80694e-09
4.41092e-09
-9.14447e-10
-5.62202e-10
4.57681e-09
-6.48102e-10
-6.26752e-11
4.63994e-09
-6.00308e-10
4.80687e-09
-1.76022e-09
-1.86955e-09
1.49357e-08
-1.86955e-09
-3.34428e-11
1.89069e-08
-1.39877e-09
1.43637e-09
1.56255e-08
-1.35847e-09
2.79153e-09
1.24841e-08
-1.03394e-09
3.81645e-09
8.76772e-09
-6.41993e-10
4.11802e-09
5.62346e-09
-2.03019e-10
3.6548e-09
3.49437e-09
1.40169e-10
2.63362e-09
2.42019e-09
3.88766e-10
1.42693e-09
2.037e-09
6.4282e-10
5.30213e-10
1.79413e-09
9.80504e-10
4.65543e-11
1.37851e-09
1.43758e-09
-1.83713e-10
7.56212e-10
1.96212e-09
-3.87966e-10
5.96427e-10
2.31572e-09
-5.48831e-10
9.45049e-10
2.25092e-09
-5.33009e-10
1.78737e-09
1.78803e-09
-1.25041e-10
2.74585e-09
1.20482e-09
6.26382e-10
3.50502e-09
6.95663e-10
1.57247e-09
3.68596e-09
4.43353e-10
2.28631e-09
3.44442e-09
4.19514e-10
2.29945e-09
2.98037e-09
4.81964e-10
1.28938e-09
2.80718e-09
3.77729e-10
-3.93718e-10
3.11827e-09
-1.31843e-10
-2.12536e-09
4.06955e-09
-9.49507e-10
-3.05602e-09
4.66458e-09
-1.51968e-09
-2.75145e-09
4.5631e-09
-1.5508e-09
-1.74419e-09
4.29654e-09
-1.37646e-09
-7.07203e-10
4.61101e-09
-1.25174e-09
-2.47193e-10
5.48096e-09
-1.37982e-09
-6.4899e-10
7.17645e-09
-2.15134e-09
6.35734e-09
-2.21502e-09
-1.06651e-09
1.70596e-08
-1.06651e-09
1.09968e-09
1.72343e-08
-5.20106e-10
2.63097e-09
1.43049e-08
-2.32291e-10
4.00517e-09
1.08643e-08
2.25915e-10
4.85786e-09
7.24147e-09
6.5625e-10
5.03346e-09
4.38892e-09
1.04407e-09
4.5458e-09
2.65026e-09
1.31974e-09
3.65037e-09
1.6398e-09
1.66676e-09
2.61204e-09
1.0918e-09
1.97757e-09
1.60711e-09
5.41121e-10
2.25498e-09
4.80501e-10
3.11886e-11
2.47369e-09
-8.95714e-10
-1.93888e-10
2.32838e-09
-2.22017e-09
8.70526e-11
1.83765e-09
-3.11848e-09
7.6691e-10
1.08134e-09
-3.2812e-09
1.72506e-09
2.30261e-10
-2.46119e-09
2.22015e-09
-2.89549e-10
-1.02679e-09
2.52731e-09
-4.52949e-10
3.06681e-10
2.79353e-09
-4.38973e-10
9.03442e-10
3.17556e-09
-3.27908e-10
4.61872e-10
3.85501e-09
-4.35456e-10
-7.68127e-10
4.90588e-09
-8.73778e-10
-2.18353e-09
6.01136e-09
-1.4856e-09
-2.76933e-09
6.32315e-09
-1.67842e-09
-2.21164e-09
5.49444e-09
-1.40133e-09
-1.1042e-09
4.1748e-09
-7.36026e-10
-3.41674e-10
3.70796e-09
-1.93761e-10
-1.05924e-10
4.45093e-09
-9.82228e-11
-3.54274e-10
6.18061e-09
-4.76207e-10
-4.30817e-10
8.19691e-09
-9.70827e-10
6.33087e-09
-4.28876e-10
7.79999e-11
1.68889e-08
7.79999e-11
2.22766e-09
1.43863e-08
6.58129e-10
3.70597e-09
1.17844e-08
1.00834e-09
4.73342e-09
8.34867e-09
1.45706e-09
5.05148e-09
5.02567e-09
1.87004e-09
4.61669e-09
2.74649e-09
2.05379e-09
3.73964e-09
1.45978e-09
2.04934e-09
2.74069e-09
7.50463e-10
1.87583e-09
1.70567e-09
4.17438e-10
1.70306e-09
4.39056e-10
2.99149e-10
1.50844e-09
-1.15656e-09
4.31265e-10
1.20127e-09
-2.94383e-09
9.78631e-10
6.25716e-10
-4.48242e-09
1.79315e-09
-1.5229e-10
-5.04688e-09
2.12999e-09
-7.8025e-10
-4.4083e-09
2.07258e-09
-9.65857e-10
-2.88285e-09
1.64458e-09
-9.29343e-10
-1.23347e-09
1.52747e-09
-6.29971e-10
-3.24061e-10
2.3164e-09
-4.14925e-10
-4.20363e-10
3.8318e-09
-5.45927e-10
-1.2621e-09
5.74116e-09
-1.03478e-09
-2.1432e-09
7.37253e-09
-1.58104e-09
-2.18357e-09
7.80645e-09
-1.75592e-09
-1.21676e-09
6.66425e-09
-1.31569e-09
5.56117e-11
4.51492e-09
-3.0699e-10
6.50312e-10
3.19874e-09
3.60909e-10
3.89999e-10
3.55221e-09
3.89582e-10
-1.02632e-10
4.76342e-09
1.48279e-10
-3.49739e-10
6.26722e-09
1.24141e-10
5.20454e-11
7.5605e-09
1.94772e-10
6.41196e-09
-6.5324e-11
9.67373e-10
1.49311e-08
9.67373e-10
2.94102e-09
1.07016e-08
1.65143e-09
4.04034e-09
8.608e-09
2.02534e-09
4.29555e-09
5.81375e-09
2.23129e-09
3.66302e-09
3.45659e-09
2.15814e-09
2.49423e-09
2.06226e-09
1.81613e-09
1.33802e-09
1.24499e-09
1.34239e-09
3.29808e-10
8.29016e-10
9.10513e-10
-6.29475e-10
7.41559e-10
6.26318e-10
-1.79316e-09
1.05824e-09
4.06418e-10
-3.25156e-09
1.82485e-09
7.70759e-11
-4.60112e-09
2.6259e-09
-2.75844e-10
-5.18753e-09
2.9003e-09
-4.90393e-10
-4.69133e-09
2.14384e-09
-4.73192e-10
-3.33263e-09
8.7308e-10
-1.17797e-10
-1.80597e-09
-1.01704e-10
2.63303e-10
-9.62891e-10
9.85492e-11
6.29342e-10
-1.02515e-09
1.82236e-09
5.97258e-10
-1.74698e-09
4.55335e-09
3.64356e-11
-2.27445e-09
6.97187e-09
-6.73909e-10
-1.94174e-09
7.95672e-09
-8.96161e-10
-5.98139e-10
6.91102e-09
-4.37327e-10
9.15865e-10
4.75876e-09
3.91756e-10
1.39595e-09
3.1198e-09
9.04222e-10
6.67261e-10
3.13994e-09
7.65792e-10
-3.78133e-10
4.42662e-09
1.39199e-10
-8.9357e-10
5.55873e-09
-3.20481e-10
-7.33271e-10
6.39155e-09
-3.32371e-10
-1.0995e-10
7.24139e-09
-3.57302e-10
6.16655e-09
8.72793e-11
1.68575e-09
1.1524e-08
1.68575e-09
2.86734e-09
7.37737e-09
2.06123e-09
3.27133e-09
5.94447e-09
2.18684e-09
2.65891e-09
4.28745e-09
2.0696e-09
1.33111e-09
3.02489e-09
1.69652e-09
-9.85092e-11
2.20789e-09
1.22969e-09
-1.25333e-09
1.53284e-09
8.23902e-10
-2.09707e-09
1.03113e-09
6.11867e-10
-2.84033e-09
9.31147e-10
5.38743e-10
-3.72556e-09
1.48326e-09
4.61047e-10
-4.55601e-09
2.37224e-09
2.99756e-10
-4.90407e-09
2.8316e-09
1.7419e-10
-4.31917e-09
2.09297e-09
2.6796e-10
-2.93388e-09
2.2119e-10
5.94315e-10
-1.4843e-09
-1.61406e-09
1.10318e-09
-8.2293e-10
-2.16567e-09
1.47352e-09
-1.07212e-09
-8.32977e-10
1.25331e-09
-1.69886e-09
1.89863e-09
6.21007e-10
-1.98607e-09
4.9192e-09
-1.38397e-11
-1.33448e-09
6.37794e-09
-1.9181e-12
3.3385e-10
5.8498e-09
4.82531e-10
1.88138e-09
4.0899e-09
1.30347e-09
2.14349e-09
2.44731e-09
2.0637e-09
8.50896e-10
2.50381e-09
1.90686e-09
-7.1711e-10
3.62816e-09
1.06243e-09
-1.60215e-09
4.73079e-09
5.49113e-10
-1.80895e-09
5.42053e-09
3.0085e-10
-1.28326e-09
5.59403e-09
2.17816e-10
3.28538e-10
4.94949e-09
6.19134e-10
4.21147e-09
2.23004e-09
1.75482e-09
7.96482e-09
1.75482e-09
2.16454e-09
4.83126e-09
2.03909e-09
1.8928e-09
4.09427e-09
2.03232e-09
7.53973e-10
3.5539e-09
1.78587e-09
-8.33246e-10
3.13602e-09
1.39579e-09
-2.32761e-09
2.56869e-09
1.06291e-09
-3.43758e-09
1.72581e-09
8.59106e-10
-4.26902e-09
1.04173e-09
7.78712e-10
-5.02749e-09
9.98329e-10
6.67152e-10
-5.59855e-09
1.60025e-09
4.49576e-10
-5.60147e-09
2.22875e-09
1.62176e-10
-4.7723e-09
1.95421e-09
8.40048e-11
-3.13711e-09
2.25417e-10
2.86913e-10
-1.47835e-09
-2.03156e-09
6.65069e-10
-6.16671e-10
-3.30849e-09
9.17159e-10
-6.83954e-10
-2.68007e-09
6.75407e-10
-1.01904e-09
-4.5252e-10
5.30486e-11
-9.10233e-10
2.2429e-09
-3.54882e-10
2.82984e-10
3.94172e-09
-1.22642e-10
2.27714e-09
3.88195e-09
5.85244e-10
3.9393e-09
2.56666e-09
1.69081e-09
4.09577e-09
1.52842e-09
2.45804e-09
2.51511e-09
1.72864e-09
2.33353e-09
3.41141e-10
3.18078e-09
1.51174e-09
-1.02512e-09
3.8593e-09
1.13102e-09
-1.44907e-09
3.7132e-09
1.42036e-09
-1.61532e-09
4.21904e-09
1.33225e-09
-3.74914e-10
3.31936e-09
9.88097e-10
1.75017e-09
3.54896e-10
2.41708e-09
2.511e-09
3.40788e-09
1.57986e-09
4.745e-09
1.57986e-09
1.11425e-09
3.47371e-09
1.72881e-09
2.33973e-10
3.38334e-09
1.5012e-09
-1.17795e-09
3.76217e-09
1.11547e-09
-2.77894e-09
3.9647e-09
6.88929e-10
-4.15499e-09
3.49391e-09
3.75706e-10
-5.30558e-09
2.63497e-09
1.77624e-10
-6.29391e-09
1.99541e-09
-1.46339e-11
-7.04546e-09
1.95929e-09
-2.41625e-10
-7.28325e-09
2.44471e-09
-6.19802e-10
-6.49803e-09
2.15327e-09
-7.02386e-10
-4.67383e-09
5.46337e-10
-3.87862e-10
-2.53498e-09
-1.95512e-09
9.05231e-11
-9.78191e-10
-3.94449e-09
4.23908e-10
-4.05543e-10
-4.25297e-09
4.55911e-10
-2.86796e-10
-2.87929e-09
1.77281e-10
3.54438e-10
-9.65238e-10
-2.3446e-11
1.95537e-09
5.57384e-10
1.92832e-10
4.24413e-09
8.94128e-10
8.65021e-10
6.12617e-09
3.21205e-10
1.77781e-09
6.27289e-09
3.64189e-10
2.14312e-09
4.82395e-09
1.24957e-09
1.79987e-09
2.67442e-09
2.83648e-09
1.09636e-09
1.0088e-09
4.50376e-09
3.79314e-10
4.40919e-10
4.05533e-09
3.91451e-10
3.84902e-10
2.7603e-09
1.01368e-09
3.34251e-10
2.86691e-09
1.39612e-09
1.08659e-09
9.45675e-10
1.60772e-09
1.58503e-09
-2.18057e-09
2.02145e-09
4.42288e-09
-3.31584e-10
8.43794e-10
2.99914e-09
8.43794e-10
-3.73546e-10
4.05912e-09
5.75067e-10
-1.71721e-09
4.60951e-09
5.93204e-11
-3.1481e-09
5.52007e-09
-3.84991e-10
-4.39921e-09
5.78902e-09
-6.29429e-10
-5.54576e-09
5.30878e-09
-7.20831e-10
-6.67953e-09
4.46821e-09
-7.46606e-10
-7.80919e-09
3.89097e-09
-8.05685e-10
-8.49452e-09
3.59908e-09
-9.85114e-10
-8.04687e-09
2.86422e-09
-8.86715e-10
-6.33117e-09
9.74042e-10
-5.43723e-10
-3.92669e-09
-1.95304e-09
1.0132e-10
-1.77232e-09
-4.72412e-09
6.35613e-10
-5.54308e-10
-6.13528e-09
1.00835e-09
8.68685e-11