/*--------------------------------*- C++ -*----------------------------------*\
| =========                 |                                                 |
| \\      /  F ield         | OpenFOAM: The Open Source CFD Toolbox           |
|  \\    /   O peration     | Version:  2312                                  |
|   \\  /    A nd           | Website:  www.openfoam.com                      |
|    \\/     M anipulation  |                                                 |
\*---------------------------------------------------------------------------*/
FoamFile
{
    version     2.0;
    format      ascii;
    arch        "LSB;label=32;scalar=64";
    class       volScalarField;
    location    "1.01077";
    object      alpha.water;
}
// * * * * * * * * * * * * * * * * * * * * * * * * * * * * * * * * * * * * * //

dimensions      [0 0 0 0 0 0 0];

internalField   nonuniform List<scalar> 
90000
(
1
1.00005
1.00004
1.00003
1.00003
1.00002
1.00002
1.00001
1
1
0.999998
0.999997
0.999999
1
1.00001
1.00002
1.00002
1.00003
1.00003
1.00003
1.00003
1.00002
1.00001
1.00001
1.00001
1.00001
1.00002
1.00003
1.00003
1.00003
1.00005
1.00007
1.00006
1.00005
1.00004
1.00003
1.00002
1.00001
1
1
0.999998
1
1.00001
1.00001
1.00003
1.00004
1.00004
1.00005
1.00004
1.00004
1.00003
1.00002
1.00002
1.00002
1.00002
1.00003
1.00003
1.00001
0.999914
0.999604
1.00004
1.00006
1.00005
1.00004
1.00004
1.00003
1.00002
1.00002
1.00001
1.00001
1
1
1
1
1
1.00001
1.00001
1.00001
1.00001
1.00001
1.00001
1.00001
1.00001
1.00001
1.00002
1.00003
1.00006
1.00015
1.00029
0.999963
1.00003
1.00004
1.00004
1.00003
1.00003
1.00003
1.00003
1.00002
1.00002
1.00001
1.00001
1
0.999995
0.999988
0.999982
0.999978
0.999977
0.999978
0.999981
0.999987
0.999993
0.999998
1
1.00001
1.00001
1.00001
0.999985
0.999963
1.0001
1
1.00002
1.00002
1.00002
1.00002
1.00002
1.00003
1.00003
1.00003
1.00003
1.00003
1.00002
1.00001
0.999997
0.999985
0.999974
0.999966
0.999962
0.999964
0.99997
0.999979
0.99999
0.999999
1.00001
1.00001
1.00001
1.00002
1.00003
0.999987
1.00003
0.999996
1.00001
0.999996
0.999999
1
1.00001
1.00002
1.00002
1.00003
1.00003
1.00003
1.00003
1.00002
1.00001
0.999995
0.999984
0.999975
0.99997
0.999972
0.999978
0.999988
0.999998
1.00001
1.00001
1.00001
1.00001
1.00001
1.00001
0.999997
0.999998
0.999988
0.999994
0.999972
0.999978
0.999984
0.999993
1
1.00001
1.00002
1.00003
1.00003
1.00003
1.00003
1.00002
1.00001
1
0.999997
0.999993
0.999993
0.999997
1
1.00001
1.00002
1.00002
1.00002
1.00002
1.00002
1.00001
1
0.999996
0.999998
0.999979
0.999956
0.999963
0.99997
0.999979
0.999989
0.999999
1.00001
1.00001
1.00002
1.00002
1.00003
1.00003
1.00003
1.00002
1.00002
1.00002
1.00002
1.00002
1.00002
1.00002
1.00002
1.00002
1.00002
1.00002
1.00002
1.00001
1.00001
1.00001
1.00002
0.99997
0.999958
0.999964
0.999969
0.999976
0.999982
0.999988
0.999994
1
1.00001
1.00001
1.00002
1.00003
1.00003
1.00004
1.00004
1.00004
1.00003
1.00003
1.00002
1.00002
1.00002
1.00002
1.00002
1.00001
1.00001
1.00001
1.00002
1.00003
1.00003
0.999974
0.999982
0.999985
0.999988
0.99999
0.999991
0.999991
0.999991
0.999992
0.999997
1
1.00001
1.00003
1.00004
1.00004
1.00004
1.00004
1.00004
1.00003
1.00002
1.00001
1.00001
1
0.999998
0.999995
0.999995
1
1.00001
1.00002
1.00001
0.999992
1.00002
1.00002
1.00002
1.00002
1.00001
1
0.999997
0.999994
0.999994
1
1.00001
1.00002
1.00003
1.00003
1.00004
1.00003
1.00003
1.00002
1.00001
1
0.999996
0.999989
0.999984
0.999981
0.999985
0.999992
0.999998
0.999998
0.999989
1.00002
1.00006
1.00006
1.00005
1.00004
1.00003
1.00001
1
0.999995
0.999992
0.999993
0.999997
1
1.00001
1.00001
1.00001
1.00001
1.00001
1.00001
1
0.999996
0.999991
0.999985
0.999982
0.999983
0.999987
0.999993
0.999993
0.999988
0.99999
1.00004
1.00008
1.00007
1.00006
1.00004
1.00002
1.00001
0.999997
0.999989
0.999985
0.999983
0.999982
0.999982
0.999982
0.999983
0.999985
0.999988
0.999991
0.999994
0.999996
0.999995
0.999992
0.99999
0.999989
0.999991
0.999994
0.999994
0.999991
0.99999
0.999998
1.00005
1.00006
1.00004
1.00003
1.00002
1
0.999993
0.999987
0.999984
0.999982
0.999979
0.999976
0.999971
0.999968
0.999968
0.999972
0.999979
0.999987
0.999994
0.999998
1
0.999998
0.999996
0.999995
0.999994
0.999992
0.999986
0.999983
0.999985
0.999986
1.00003
1.00001
0.999998
0.999989
0.999983
0.99998
0.999982
0.999986
0.999989
0.99999
0.999988
0.999982
0.999976
0.999971
0.999971
0.999976
0.999984
0.999993
1
1
1
1
1
0.999998
0.999994
0.999986
0.999978
0.999974
0.999971
0.999965
0.999998
0.99996
0.99996
0.999961
0.999966
0.999975
0.999987
0.999997
1
1
0.999997
0.999989
0.999982
0.999978
0.999978
0.999983
0.999989
0.999995
0.999999
1
1
1
1
1
1
0.999994
0.999988
0.999983
0.999975
0.999979
0.99997
0.999937
0.999947
0.999956
0.999969
0.999983
0.999995
1
1
1
0.999992
0.999983
0.999978
0.999976
0.999978
0.999981
0.999984
0.999986
0.999987
0.999989
0.999994
1
1.00001
1.00001
1.00001
1.00001
1.00001
1.00001
1
1.00002
0.999961
0.999941
0.999954
0.999965
0.999977
0.999987
0.999993
0.999994
0.99999
0.999983
0.999977
0.999975
0.999976
0.99998
0.999982
0.999983
0.999981
0.999979
0.999979
0.999983
0.999991
1
1.00001
1.00001
1.00001
1.00001
1.00001
1.00001
1.00002
1.00002
0.999967
0.999956
0.999966
0.999973
0.99998
0.999984
0.999985
0.999983
0.99998
0.999979
0.999982
0.999988
0.999996
1
1
0.999996
0.999989
0.999985
0.999985
0.99999
0.999997
1
1
0.999996
0.99999
0.999988
0.999989
0.999992
0.999994
0.999977
0.999976
0.99997
0.999975
0.999981
0.999986
0.99999
0.999991
0.999992
0.999995
1
1.00001
1.00002
1.00002
1.00002
1.00001
1
0.999995
0.999992
0.999994
0.999998
1
0.999997
0.999988
0.99998
0.999978
0.999981
0.999982
0.999979
0.999968
0.999957
0.999984
0.999984
0.999989
0.999997
1
1.00001
1.00001
1.00001
1.00002
1.00002
1.00003
1.00003
1.00002
1.00001
1
0.999992
0.999989
0.999992
0.999997
0.999998
0.999993
0.999985
0.999978
0.99998
0.999989
0.999997
0.999997
0.999989
0.999978
0.99999
0.999992
1
1.00001
1.00002
1.00002
1.00002
1.00002
1.00002
1.00002
1.00002
1.00002
1.00001
0.999998
0.999987
0.999982
0.999984
0.999992
0.999999
1
0.999996
0.999986
0.999979
0.999982
0.999995
1.00001
1.00001
1
0.999995
0.999995
1
1
1.00001
1.00002
1.00002
1.00002
1.00002
1.00002
1.00001
1.00001
1.00001
1
0.999992
0.999984
0.999983
0.99999
1
1.00001
1.00002
1.00001
0.999999
0.99999
0.999992
1
1.00001
1.00001
1
0.999993
0.99999
0.999987
0.999982
1.00001
1.00002
1.00001
1.00001
1.00001
1.00001
1.00001
1.00001
1.00001
1.00001
1
0.999995
0.999993
0.999999
1.00001
1.00002
1.00002
1.00002
1.00001
0.999998
1
1.00002
1.00003
1.00003
1.00002
1
1
0.999999
0.99999
1
1.00001
1.00001
1.00001
1.00001
1.00001
1.00001
1.00001
1.00001
1.00001
1.00001
1
0.999995
0.999995
1
1.00001
1.00001
1
0.999994
0.99999
0.999998
1.00001
1.00003
1.00003
1.00002
1.00001
1.00001
1.00002
1.00002
1.00002
1.00004
1
1
1
1
1
1
1.00001
1.00001
1
0.999996
0.999988
0.999986
0.99999
0.999996
0.999999
0.999995
0.999988
0.999987
0.999995
1.00001
1.00002
1.00003
1.00001
1
1
1.00001
1.00001
1.00002
1.00004
1.00002
1
0.999996
0.999994
0.999989
0.999987
0.999987
0.999989
0.999989
0.999987
0.999985
0.999986
0.999993
1
1.00001
1.00001
1
0.999999
1
1.00001
1.00002
1.00002
1
0.999992
0.99999
1
1.00001
1
1.00001
1.00001
0.999979
0.999997
0.999985
0.99998
0.999976
0.999975
0.999977
0.99998
0.999983
0.999985
0.99999
0.999998
1.00001
1.00002
1.00002
1.00001
1
1
1.00001
1.00001
0.999998
0.999986
0.99998
0.999987
0.999995
1
1
1
0.999999
0.999981
0.999999
0.999989
0.999977
0.999977
0.999976
0.999977
0.999978
0.999979
0.99998
0.999983
0.999989
0.999998
1
1.00001
1
0.999994
0.999992
0.999992
0.999991
0.999984
0.999974
0.999968
0.999976
0.99999
0.999993
0.999989
0.999994
0.999996
0.999979
0.99999
1.00002
0.999987
0.999984
0.999985
0.999983
0.999979
0.999974
0.99997
0.999969
0.999974
0.999983
0.999993
0.999999
0.999999
0.999997
0.999996
0.999997
0.999996
0.999989
0.999981
0.99998
0.999983
0.999984
0.999986
0.999979
0.999974
0.999983
0.999989
0.999983
1.00001
0.999992
0.999994
0.999992
0.999987
0.99998
0.999973
0.999968
0.999967
0.999971
0.999981
0.999994
1
1.00001
1.00001
1
1
1
0.999996
0.99999
0.999987
0.999996
0.999999
0.999982
0.999973
0.999976
0.999978
0.999982
0.999993
1
0.999994
0.999982
0.999997
0.999989
0.999984
0.999981
0.999979
0.99998
0.999982
0.999987
0.999993
0.999999
1
0.999999
0.999996
0.999994
0.99999
0.999986
0.999985
0.99999
0.999994
0.999998
0.999993
0.999971
0.99997
0.999988
0.999988
0.999977
0.999995
0.999994
0.999971
0.999997
0.999994
0.999989
0.999992
0.999994
0.999995
0.999993
0.999989
0.999985
0.999983
0.999982
0.999982
0.999984
0.999986
0.999988
0.999987
0.999985
0.999987
0.999998
0.999996
0.99998
0.999972
0.999966
0.999978
0.999991
0.999982
0.999972
0.999991
0.999982
0.999993
1
0.999995
1
1
1
0.999999
0.999992
0.999984
0.99998
0.999979
0.999982
0.999989
0.999995
0.999997
0.999995
0.99999
0.999986
0.999981
0.999986
0.999976
0.999953
0.99996
0.999979
0.999985
0.999973
0.999974
0.999983
0.999994
0.999998
1.00001
1
1
1
1
1
0.999998
0.999995
0.999991
0.99999
0.999991
0.999995
1
1
0.999994
0.999983
0.999976
0.999983
0.999976
0.999977
0.999975
0.999969
0.999991
1.00001
0.99999
0.99997
0.999994
1.00001
0.999999
1
0.999992
0.999997
1
1
1
1
1
0.999997
0.999993
0.999991
0.999992
0.999994
0.999993
0.99999
0.999983
0.999982
0.999981
1
0.999997
0.999991
0.999998
1.00001
1.00002
1.00001
0.999989
0.999992
1.00002
1.00001
0.999994
0.999987
0.999995
0.999995
1
1
1
0.999998
0.999992
0.999987
0.999987
0.99999
0.999991
0.99999
0.999984
0.999982
0.999982
0.999998
0.999996
1.00001
1
0.999991
0.999999
1.00002
1.00001
0.999997
0.999999
1.00002
1.00002
0.999991
0.999991
0.999997
1.00001
1
1
0.999998
0.999992
0.999989
0.999991
0.999996
0.999999
0.999995
0.99999
0.999986
0.999984
0.999991
0.999986
1.00001
1
1
0.999998
1.00001
1.00001
1.00002
0.999999
1
1.00002
1.00001
0.999997
0.999988
1
1.00001
0.999992
1
0.999998
0.999991
0.999994
1
1.00001
1.00001
1
0.999995
0.999996
1
1
1.00001
0.999993
1.00001
1
0.999999
0.999993
1.00002
1.00001
1
0.999992
1.00001
1.00002
0.999987
0.999985
1.00001
1
0.999987
1
1.00002
0.999996
0.999999
1
1
1
1
1
1.00001
1.00001
1.00001
0.999989
1
0.999997
0.99999
1
0.999997
0.999972
0.999997
0.999997
0.999988
1
1.00001
1
0.999984
0.999997
1.00001
0.999986
0.999995
1.00003
1.00003
1
0.999994
0.99999
0.999996
1.00001
1.00001
1
0.999995
0.999989
0.999998
0.99999
0.999976
1.00002
0.999988
0.999994
1.00001
0.999995
1
1.00002
1
1.00001
1
1
1.00002
0.999998
1
1.00001
1.00002
1.00002
1.00001
0.999993
0.999989
1
1.00001
1
0.999986
0.99999
1
0.999997
0.999995
1.00003
0.999972
1.00001
1.00001
0.999988
0.999998
1.00001
0.999997
1.00001
0.999999
1.00001
1.00001
1
1.00002
0.999986
0.999985
1.00003
1.00002
0.999972
0.999975
0.999994
1.00002
1.00001
0.999988
0.999987
1
1.00002
1.00002
1.00002
0.999993
1.00002
0.999988
0.999989
0.999999
0.999994
0.999998
1.00001
0.999999
0.999999
1.00001
1.00001
1.00001
0.999985
0.999973
1.00002
1
0.999978
1
1.00002
0.99998
1.00001
0.999999
0.999973
0.999999
1.00003
1.00001
0.999991
1
1.00001
0.99998
0.999972
1.00002
1.00001
0.999987
0.999999
1
0.999998
0.999995
1.00001
1.00001
0.999981
0.999988
1.00003
0.99997
1
1.00002
0.999982
1.00001
1.00002
0.999964
0.999993
0.999972
1.00001
1.00002
0.999981
1
1.00002
0.999984
0.999986
1.00004
0.999994
0.999977
1.00002
0.99999
0.999992
0.999998
1.00001
1.00001
0.999982
0.999988
1.00003
0.999991
0.999991
1.00002
0.999975
0.99998
1.00002
1.00001
0.999962
0.999926
0.999981
1
1.00001
0.999964
0.999991
1.00002
1.00001
1.00002
0.999982
0.999978
1.00002
0.999995
0.999995
1
0.999974
1.00001
1.00001
0.999978
1
1.00001
0.999969
1.00001
0.999992
0.999991
1
0.99999
0.999992
1
1
0.999894
1
0.999985
0.99996
0.999974
1.00001
0.999984
0.999982
1.00001
0.999986
0.999997
0.999978
0.999975
1.00002
0.999986
0.999983
1.00002
0.999993
1
0.999995
1
1.00001
0.999993
0.999979
1
1.00001
0.999951
0.999979
1.00002
0.999991
0.999925
0.999981
0.999579
0.999927
0.999969
0.999824
0.99992
0.999998
0.999998
0.999989
1.00001
1.00002
0.999964
0.999991
1.00002
1
0.999975
0.999991
1.00002
0.999999
0.999983
1.00002
1.00001
1
0.999978
0.999924
0.999829
0.999969
0.999915
0.999662
0.999928
0.999994
0.999991
0.999994
0.999997
1
1
1
1
1.00001
1
1
0.999982
0.999995
1
0.99999
0.999985
0.999995
1
0.999997
0.999998
1
1
1
1
1
0.999997
0.999999
0.999999
0.999991
0.999984
0.780817
0.735478
0.743095
0.783222
0.771845
0.795345
0.802567
0.828281
0.857762
0.853837
0.857649
0.869777
0.876957
0.891188
0.87827
0.878171
0.893293
0.879988
0.868261
0.857853
0.854478
0.858068
0.828123
0.802922
0.795365
0.771265
0.782818
0.743074
0.736621
0.778001
0.144842
0.123877
0.125362
0.146051
0.112213
0.150001
0.161863
0.123365
0.191221
0.223594
0.169395
0.213712
0.236973
0.254218
0.217712
0.21647
0.254406
0.239385
0.210686
0.169316
0.225664
0.191283
0.123134
0.161969
0.150554
0.112154
0.14568
0.124505
0.122933
0.143568
0.00440084
0.0041389
0.000903914
0.00073513
0.000804016
0.000531192
0.000357428
0.000170241
0.00163644
0.000468026
0.000354744
0.000401595
0.00237346
0.000333776
0.000421643
0.000470353
0.000284367
0.00234708
0.000422316
0.000371289
0.000435008
0.00193397
0.000173739
0.000368814
0.000567333
0.000815548
0.000708547
0.000898751
0.00396532
0.00471781
0.00034013
0.000694138
0.000371596
0.000182103
0.000172082
0.000569508
0.000183097
0.000137713
0.000522081
0.000169158
0.00025082
0.000403347
8.82762e-05
0.00010409
0.000355078
0.00045482
0.000120907
6.72061e-05
0.000560203
0.000319624
0.000191257
0.000510333
0.000144004
0.000187247
0.000572212
0.000162619
0.000183537
0.000412284
0.000683921
0.000330492
6.77378e-05
0.000163082
5.47639e-05
3.3414e-05
3.9757e-05
0.000114472
0.00020864
8.70102e-05
7.97792e-05
1.91931e-05
6.77275e-05
3.93529e-05
5.81999e-05
1.96515e-05
8.07859e-06
8.49009e-06
2.51211e-05
5.73153e-05
6.73905e-06
7.28347e-05
1.90272e-05
9.45247e-05
8.95523e-05
0.00021554
0.000131309
4.14129e-05
3.32913e-05
6.05151e-05
0.000163484
6.57863e-05
5.44295e-06
1.25981e-05
3.36829e-06
2.7078e-06
2.57084e-06
8.54956e-08
2.24114e-05
3.84118e-06
9.93763e-07
7.17634e-06
7.45142e-06
4.45436e-06
1.44642e-05
1.79269e-05
7.44532e-06
7.80281e-06
1.97705e-05
1.86724e-05
6.39081e-06
7.22994e-06
3.06981e-06
9.31439e-07
3.94122e-06
2.36959e-05
7.91908e-08
2.62194e-06
2.6578e-06
3.70772e-06
1.14096e-05
5.33223e-06
3.15819e-07
7.73443e-07
6.70067e-07
2.17563e-07
8.18577e-08
5.50014e-08
5.29471e-10
2.33697e-08
9.4743e-07
1.80949e-06
4.85373e-07
2.05889e-06
5.8641e-06
6.5134e-06
7.26183e-06
7.42234e-06
4.8591e-06
5.70831e-06
2.45001e-06
4.74523e-07
1.57119e-06
8.80747e-07
2.08967e-08
5.17458e-10
4.72312e-08
7.00303e-08
2.0863e-07
5.85769e-07
7.67781e-07
3.08162e-07
2.25004e-08
7.0364e-08
4.98964e-08
1.3236e-08
1.40732e-08
6.96759e-09
4.24854e-10
3.23702e-09
1.99221e-08
1.89996e-09
1.01742e-08
9.52827e-08
6.98823e-09
5.59647e-07
2.8346e-06
3.34353e-06
5.56457e-07
6.94159e-09
6.91582e-08
1.56482e-08
6.51443e-09
1.80901e-08
3.13789e-09
4.23143e-10
7.86885e-09
1.34922e-08
1.25567e-08
4.29352e-08
6.9548e-08
2.25969e-08
2.43354e-09
1.59529e-08
4.9658e-09
2.38733e-09
3.92653e-09
2.03957e-09
3.40772e-10
1.94923e-10
1.76976e-10
1.87353e-09
6.62893e-10
1.48029e-10
1.86373e-09
1.87624e-09
1.70746e-08
4.758e-08
1.79938e-08
1.49892e-09
1.55194e-10
7.50984e-10
2.15366e-09
2.36998e-10
2.07851e-10
3.15584e-10
1.94103e-09
3.83704e-09
2.15106e-09
4.92643e-09
1.55924e-08
2.35246e-09
1.00704e-09
1.92672e-09
1.25324e-09
6.01339e-10
4.59542e-10
3.07062e-10
9.78057e-11
4.20318e-11
4.96009e-11
1.457e-10
9.36278e-11
1.22278e-10
6.02742e-10
7.87948e-10
2.37346e-10
2.32758e-10
3.24033e-10
6.74235e-10
1.35166e-10
9.9895e-11
1.40883e-10
4.81387e-11
4.11311e-11
8.51165e-11
2.81572e-10
4.56219e-10
6.14697e-10
1.2615e-09
1.92563e-09
9.69087e-10
2.61803e-10
3.99418e-10
2.92704e-10
1.57224e-10
8.19362e-11
4.38904e-11
2.463e-11
1.04494e-11
8.10062e-12
1.17813e-11
9.19982e-12
2.10803e-11
7.19974e-11
1.69682e-10
1.80024e-10
9.81151e-11
1.56938e-10
7.30485e-11
2.17467e-11
9.77204e-12
1.14482e-11
7.93004e-12
1.01953e-11
2.23493e-11
3.82498e-11
7.69648e-11
1.58124e-10
2.92902e-10
3.99764e-10
2.63827e-10
3.475e-11
6.67484e-11
4.03712e-11
1.98464e-11
1.04508e-11
4.35403e-12
2.07767e-12
1.30752e-12
1.0624e-12
1.70728e-12
2.8596e-12
5.1746e-12
1.1657e-11
2.08107e-11
2.78966e-11
2.43977e-11
2.10583e-11
1.17793e-11
5.15648e-12
2.91719e-12
1.68724e-12
1.0979e-12
1.25041e-12
1.81993e-12
3.85633e-12
9.61023e-12
1.90107e-11
4.06418e-11
6.75465e-11
3.51122e-11
3.8001e-12
7.16178e-12
4.22316e-12
1.66564e-12
1.03899e-12
5.20499e-13
2.42037e-13
1.87493e-13
2.46834e-13
5.15099e-13
1.09259e-12
2.3216e-12
4.81639e-12
5.08745e-12
7.50035e-12
7.18842e-12
4.60188e-12
4.88263e-12
2.3426e-12
1.11414e-12
5.23653e-13
2.51142e-13
1.85962e-13
2.26506e-13
4.68363e-13
9.39568e-13
1.62818e-12
4.26377e-12
7.25117e-12
3.81731e-12
2.86482e-13
5.05812e-13
4.27566e-13
1.76741e-13
6.51498e-14
2.42955e-14
1.03852e-14
9.03168e-15
1.56257e-14
3.88913e-14
1.02458e-13
2.76337e-13
6.02648e-13
1.02956e-12
1.49952e-12
1.49653e-12
1.03201e-12
6.10358e-13
2.80179e-13
1.04836e-13
4.00508e-14
1.59757e-14
9.12959e-15
9.87313e-15
2.19807e-14
6.06005e-14
1.7556e-13
4.31639e-13
5.12251e-13
2.89253e-13
1.27834e-14
3.02868e-14
1.8788e-14
6.58417e-15
1.81742e-15
5.39714e-16
2.25627e-16
2.32671e-16
4.47779e-16
1.2189e-15
3.90454e-15
1.293e-14
3.26981e-14
7.10652e-14
1.11058e-13
1.10706e-13
7.1891e-14
3.31369e-14
1.31775e-14
4.00439e-15
1.25782e-15
4.61677e-16
2.34467e-16
2.1243e-16
4.80436e-16
1.69159e-15
6.49145e-15
1.91724e-14
3.0923e-14
1.29119e-14
2.88109e-16
8.37833e-16
4.13514e-16
1.24493e-16
3.49953e-17
1.00759e-17
4.74274e-18
6.19443e-18
1.30194e-17
3.58839e-17
1.15113e-16
3.83625e-16
1.07067e-15
2.46303e-15
4.02038e-15
4.01306e-15
2.47491e-15
1.08356e-15
3.92831e-16
1.19058e-16
3.72223e-17
1.3506e-17
6.2593e-18
4.49262e-18
8.79324e-18
3.18594e-17
1.23819e-16
4.21612e-16
8.55823e-16
2.91448e-16
4.86082e-18
1.50056e-17
7.3697e-18
2.12998e-18
5.78267e-19
1.64908e-19
9.69533e-20
1.58772e-19
3.54476e-19
9.65455e-19
2.96735e-18
9.52424e-18
2.606e-17
5.86671e-17
9.588e-17
9.64231e-17
5.93165e-17
2.63593e-17
9.75949e-18
3.08269e-18
9.99833e-19
3.67079e-19
1.61924e-19
9.30095e-20
1.43777e-19
5.21404e-19
2.10094e-18
7.48356e-18
1.53845e-17
4.90074e-18
6.78482e-20
2.32859e-19
1.09874e-19
3.09428e-20
7.89171e-21
2.36129e-21
1.86987e-21
3.64664e-21
8.33215e-21
2.20141e-20
6.54974e-20
2.02497e-19
5.32739e-19
1.17105e-18
1.89518e-18
1.89626e-18
1.17844e-18
5.42195e-19
2.08041e-19
6.78848e-20
2.28524e-20
8.66028e-21
3.77714e-21
1.82973e-21
2.04983e-21
7.17567e-21
3.02567e-20
1.12799e-19
2.37786e-19
6.94582e-20
7.76948e-22
2.97562e-21
1.38195e-21
3.63721e-22
9.25241e-23
3.01865e-23
3.37148e-23
7.43826e-23
1.67045e-22
4.20742e-22
1.19173e-21
3.5076e-21
8.96767e-21
1.93455e-20
3.06948e-20
3.06299e-20
1.94136e-20
9.14182e-21
3.60291e-21
1.22855e-21
4.34944e-22
1.72992e-22
7.72379e-23
3.40826e-23
2.62639e-23
8.19373e-23
3.59862e-22
1.40345e-21
3.05871e-21
8.0972e-22
7.50009e-24
3.044e-23
1.43273e-23
3.63122e-24
9.06025e-25
3.47301e-25
5.65741e-25
1.3082e-24
2.80451e-24
6.62405e-24
1.76627e-23
4.94847e-23
1.21162e-22
2.49713e-22
3.87694e-22
3.90091e-22
2.52255e-22
1.22293e-22
5.04051e-23
1.83596e-23
6.92188e-24
2.92139e-24
1.35876e-24
5.87639e-25
3.20055e-25
7.79191e-25
3.52221e-24
1.43977e-23
3.22146e-23
7.70409e-24
5.60395e-26
2.72167e-25
1.17667e-25
2.9973e-26
7.2122e-27
3.97365e-27
8.60033e-27
1.92864e-26
3.87012e-26
8.54769e-26
2.13956e-25
5.6021e-25
1.28558e-24
2.54147e-24
3.9295e-24
3.9857e-24
2.61284e-24
1.31227e-24
5.71893e-25
2.23058e-25
8.99929e-26
4.08261e-26
2.02369e-26
8.93871e-27
3.84773e-27
6.32933e-27
2.84495e-26
1.21323e-25
2.77526e-25
5.97376e-26
3.51384e-28
1.89618e-27
8.19415e-28
1.99581e-28
5.21239e-29
4.50768e-29
1.1016e-28
2.36133e-28
4.47298e-28
9.15385e-28
2.08197e-27
4.89992e-27
1.04751e-26
1.99951e-26
3.02565e-26
3.02142e-26
2.02265e-26
1.08451e-26
5.14e-27
2.18959e-27
9.62641e-28
4.76236e-28
2.54272e-28
1.17264e-28
4.49261e-29
4.56349e-29
1.90267e-28
8.37681e-28
1.95784e-27
3.79163e-28
1.95663e-30
1.04444e-29
4.93122e-30
1.13863e-30
3.50799e-31
4.57007e-31
1.18149e-30
2.44299e-30
4.2928e-30
7.88852e-30
1.59783e-29
3.40921e-29
6.87547e-29
1.24456e-28
1.7985e-28
1.80086e-28
1.2788e-28
7.40153e-29
3.75328e-29
1.73111e-29
8.39559e-30
4.6039e-30
2.66544e-30
1.297e-30
4.82816e-31
3.05265e-31
1.05464e-30
4.74923e-30
1.1359e-29
1.97905e-30
7.77638e-33
5.36619e-32
2.31277e-32
5.62496e-33
2.19388e-33
4.29088e-33
1.11869e-32
2.12751e-32
3.31036e-32
5.35663e-32
9.78948e-32
1.92426e-31
3.56059e-31
5.89886e-31
8.15924e-31
8.37148e-31
6.23532e-31
3.79328e-31
2.07855e-31
1.08541e-31
6.0101e-32
3.66413e-32
2.29154e-32
1.18727e-32
4.57222e-33
2.04725e-33
5.00527e-33
2.24286e-32
5.40842e-32
8.4824e-33
2.8839e-35
2.24747e-34
9.05475e-35
2.41271e-35
1.38074e-35
3.54034e-35
8.65096e-35
1.49018e-34
2.09893e-34
3.10847e-34
5.14256e-34
8.758e-34
1.38406e-33
2.07595e-33
2.835e-33
3.01264e-33
2.35584e-33
1.55072e-33
9.63135e-34
5.75937e-34
3.55587e-34
2.37326e-34
1.62334e-34
9.22413e-35
3.80191e-35
1.41295e-35
2.12209e-35
8.80814e-35
2.09057e-34
3.02885e-35
1.06012e-37
6.78337e-37
3.32542e-37
9.48326e-38
8.75865e-38
2.37319e-37
5.46627e-37
8.85893e-37
1.16699e-36
1.57109e-36
2.22033e-36
3.15878e-36
4.47246e-36
6.53064e-36
8.75182e-36
8.95551e-36
7.07445e-36
5.12794e-36
3.67041e-36
2.49416e-36
1.71856e-36
1.28425e-36
9.8601e-37
6.19902e-37
2.71311e-37
9.29784e-38
8.25345e-38
2.87055e-37
6.75716e-37
9.52009e-38
2.54516e-40
2.00952e-39
1.05229e-39
3.69878e-40
4.96235e-40
1.41237e-39
3.17806e-39
4.7476e-39
5.54609e-39
6.26226e-39
7.2675e-39
9.17137e-39
1.24319e-38
1.6721e-38
1.93312e-38
1.81064e-38
1.55672e-38
1.36898e-38
1.16535e-38
8.93181e-39
6.88143e-39
5.83057e-39
5.05747e-39
3.49603e-39
1.61628e-39
5.49045e-40
3.24595e-40
8.41051e-40
1.95595e-39
2.73799e-40
6.37674e-43
6.35046e-42
2.87201e-42
1.41267e-42
2.51691e-42
7.41296e-42
1.51581e-41
2.01263e-41
2.04526e-41
1.99599e-41
2.11425e-41
2.55208e-41
3.0522e-41
3.29733e-41
3.2449e-41
3.16603e-41
3.2378e-41
3.26112e-41
2.9841e-41
2.49097e-41
2.22e-41
2.22116e-41
2.22837e-41
1.69457e-41
8.25802e-42
2.88186e-42
1.36673e-42
2.4112e-42
5.16446e-42
7.25004e-43
2.13953e-45
1.42399e-44
7.67644e-45
5.32343e-45
1.18572e-44
3.12776e-44
5.70674e-44
6.99887e-44
6.39601e-44
5.75607e-44
5.72915e-44
5.97965e-44
5.46348e-44
4.73984e-44
4.56831e-44
5.0242e-44
5.46167e-44
5.53241e-44
5.44758e-44
5.52489e-44
6.23386e-44
7.43666e-44
8.4517e-44
6.8239e-44
3.48749e-44
1.28597e-44
5.69174e-45
7.01494e-45
1.26086e-44
1.84228e-45
4.39592e-48
2.85132e-47
2.03927e-47
1.9563e-47
4.37285e-47
1.05509e-46
1.90949e-46
2.16685e-46
1.81885e-46
1.43706e-46
1.20668e-46
9.73229e-47
7.14777e-47
5.72422e-47
5.80726e-47
6.35639e-47
6.46481e-47
6.7134e-47
8.09184e-47
1.06904e-46
1.47066e-46
1.99289e-46
2.37335e-46
2.11755e-46
1.20051e-46
4.92362e-47
2.20773e-47
2.12985e-47
3.01873e-47
4.71096e-48
1.0443e-50
6.8915e-50
5.50496e-50
5.85941e-50
1.1919e-49
2.93069e-49
5.11436e-49
4.95673e-49
3.8071e-49
2.53139e-49
1.80662e-49
1.29343e-49
9.1939e-50
7.30385e-50
6.6096e-50
5.8909e-50
5.53125e-50
6.74826e-50
1.05633e-49
1.71462e-49
2.66736e-49
4.06579e-49
5.21233e-49
5.60328e-49
3.68241e-49
1.65674e-49
7.48608e-50
6.25237e-50
7.12414e-50
1.1819e-50
2.63606e-53
1.45971e-52
1.32934e-52
1.36986e-52
2.8985e-52
6.79089e-52
1.01732e-51
8.98309e-52
5.98804e-52
3.57564e-52
2.41586e-52
1.72529e-52
1.18128e-52
7.82591e-53
5.36784e-53
4.15314e-53
4.53562e-53
7.41138e-53
1.41318e-52
2.53382e-52
4.2038e-52
7.01225e-52
1.06492e-51
1.2701e-51
9.41751e-52
4.37535e-52
1.97339e-52
1.55735e-52
1.57754e-52
2.78255e-53
4.17586e-56
2.82118e-55
2.36226e-55
2.71954e-55
5.83484e-55
1.22313e-54
1.73497e-54
1.51321e-54
9.34348e-55
5.33622e-55
3.54005e-55
2.35862e-55
1.34534e-55
7.12188e-56
4.40485e-56
3.88298e-56
5.2615e-56
9.49244e-56
1.80732e-55
3.1974e-55
5.50632e-55
1.01581e-54
1.78834e-54
2.27556e-54
1.80827e-54
8.54382e-55
4.0151e-55
3.25858e-55
3.26502e-55
5.99816e-56
8.20971e-59
5.06787e-58
3.90215e-58
5.00546e-58
9.13638e-58
1.89219e-57
2.66376e-57
2.23283e-57
1.26378e-57
7.01746e-58
4.40128e-58
2.54395e-58
1.2428e-58
6.41255e-59
4.5294e-59
4.5839e-59
6.1083e-59
9.87518e-59
1.78819e-58
3.32143e-58
6.49188e-58
1.3832e-57
2.73786e-57
3.56141e-57
2.88374e-57
1.38007e-57
6.97252e-58
6.01538e-58
6.1928e-58
1.14123e-58
2.19403e-61
6.13172e-61
7.88206e-61
9.34894e-61
1.60777e-60
3.47103e-60
4.13767e-60
3.14228e-60
1.61909e-60
8.54924e-61
4.78291e-61
2.44443e-61
1.17033e-61
6.83345e-62
5.40457e-62
5.33035e-62
6.41687e-62
9.80502e-62
1.93907e-61
4.23288e-61
9.47885e-61
2.15135e-60
4.24034e-60
5.22884e-60
4.07073e-60
1.97387e-60
1.08431e-60
9.887e-61
1.04807e-60
1.91249e-61
1.7854e-64
1.1453e-63
1.65681e-63
1.71535e-63
3.10371e-63
6.1035e-63
6.07992e-63
4.56086e-63
2.29275e-63
1.14361e-63
5.73289e-64
2.72608e-64
1.3331e-64
8.10111e-65
6.10106e-65
5.49296e-65
6.52948e-65
1.10262e-64
2.52429e-64
6.06593e-64
1.36438e-63
2.90773e-63
5.43344e-63
6.35834e-63
5.11506e-63
2.69743e-63
1.62377e-63
1.54587e-63
1.65839e-63
2.95823e-64
2.9682e-67
3.35707e-66
2.79202e-66
2.74996e-66
4.55177e-66
7.529e-66
7.17389e-66
5.6875e-66
2.86433e-66
1.32229e-66
6.00681e-67
2.67483e-67
1.24063e-67
6.83115e-68
4.57526e-68
4.02884e-68
5.3983e-68
1.08517e-67
2.75879e-67
6.63866e-67
1.41238e-66
2.91849e-66
5.82464e-66
7.30962e-66
6.97208e-66
4.09679e-66
2.54794e-66
2.41385e-66
2.51759e-66
4.31428e-67
9.55551e-70
4.69812e-69
3.56614e-69
3.61082e-69
5.45006e-69
8.44362e-69
8.22094e-69
6.40231e-69
2.96984e-69
1.20221e-69
4.88411e-70
2.01769e-70
8.61383e-71
4.27011e-71
2.76273e-71
2.74414e-71
4.45997e-71
1.02177e-70
2.63391e-70
6.07254e-70
1.27985e-69
2.85477e-69
6.61783e-69
9.66782e-69
1.02012e-68
6.12501e-69
3.68481e-69
3.39987e-69
3.51835e-69
5.94876e-70
1.00676e-72
3.41989e-72
3.9742e-72
4.25408e-72
6.60205e-72
1.00179e-71
9.57641e-72
6.67768e-72
2.73112e-72
9.68418e-73
3.70317e-73
1.54194e-73
6.67526e-74
3.41519e-74
2.42528e-74
2.72292e-74
4.67835e-74
1.02737e-73
2.42219e-73
5.29438e-73
1.16214e-72
2.87867e-72
7.35219e-72
1.13804e-71
1.17348e-71
6.78814e-72
4.16933e-72
4.02411e-72
4.57883e-72
8.04922e-73
5.77039e-76
5.83267e-75
5.78293e-75
5.66061e-75
7.66802e-75
9.99161e-75
9.31239e-75
6.05063e-75
2.29459e-75
7.85235e-76
3.19075e-76
1.45804e-76
6.76856e-77
3.65247e-77
2.68222e-77
2.90048e-77
4.43529e-77
8.3449e-77
1.77753e-76
3.92099e-76
9.38199e-76
2.52979e-75
6.59793e-75
9.707e-75
9.46554e-75
5.57024e-75
3.97566e-75
4.39126e-75
5.85677e-75
1.0651e-75
1.4917e-78
1.37538e-77
8.7275e-78
7.26225e-78
7.70808e-78
9.25816e-78
9.29132e-78
6.12316e-78
2.29341e-78
8.29449e-79
3.69299e-79
1.75436e-79
7.98786e-80
4.11514e-80
2.79138e-80
2.64624e-80
3.46783e-80
5.86666e-80
1.25253e-79
3.04781e-79
8.04681e-79
2.23856e-78
5.56771e-78
7.51697e-78
7.09581e-78
4.62062e-78
3.71842e-78
4.76682e-78
6.95666e-78
1.23609e-78
4.39746e-81
1.35681e-80
9.18924e-81
6.31159e-81
6.87482e-81
1.01625e-80
1.08762e-80
7.089e-81
2.668e-81
1.0283e-81
4.63829e-82
2.06582e-82
8.59219e-83
4.11298e-83
2.63219e-83
2.34585e-83
2.96843e-83
5.13741e-83
1.18667e-82
3.13899e-82
8.46612e-82
2.2386e-81
5.09695e-81
6.5561e-81
6.11729e-81
4.28543e-81
3.55267e-81
4.66408e-81
6.64089e-81
1.10982e-81
1.88146e-84
6.43009e-84
7.05491e-84
5.67697e-84
7.659e-84
1.23687e-83
1.1573e-83
6.4181e-84
2.37579e-84
9.03411e-85
3.71139e-85
1.45294e-85
5.65942e-86
2.79068e-86
1.93234e-86
1.87255e-86
2.55339e-86
4.72256e-86
1.13509e-85
3.00869e-85
7.81271e-85
1.96355e-84
4.37046e-84
5.83834e-84
5.65005e-84
4.08031e-84
3.22887e-84
3.90907e-84
4.9069e-84
7.75422e-85
1.00263e-87
1.10876e-86
9.97877e-87
8.33722e-87
1.22162e-86
1.46161e-86
9.83422e-87
4.29761e-87
1.46004e-87
4.70418e-88
1.52886e-88
5.09191e-89
2.02214e-89
1.18021e-89
9.77077e-90
1.07265e-89
1.56413e-89
2.95779e-89
7.05678e-89
1.84316e-88
4.85695e-88
1.31047e-87
3.3074e-87
5.28148e-87
5.69261e-87
4.15338e-87
3.03885e-87
3.14901e-87
3.28e-87
4.97202e-88
2.37889e-90
2.27637e-89
1.57198e-89
1.34749e-89
1.62769e-89
1.34249e-89
7.86837e-90
3.23582e-90
9.81397e-91
2.50521e-91
6.53464e-92
2.05087e-92
8.56317e-93
5.33283e-93
4.54086e-93
4.91555e-93
6.94184e-93
1.28034e-92
3.04398e-92
8.3319e-92
2.5279e-91
8.46089e-91
2.70587e-90
5.4243e-90
6.49065e-90
4.67226e-90
3.05609e-90
2.71785e-90
2.39816e-90
3.57481e-91
4.90358e-93
1.81088e-92
1.35547e-92
1.07454e-92
1.2173e-92
1.07648e-92
7.54667e-93
3.18188e-93
8.51043e-94
1.87636e-94
4.59772e-95
1.43466e-95
5.93224e-96
3.33147e-96
2.38229e-96
2.27807e-96
3.0902e-96
5.85116e-96
1.47467e-95
4.42307e-95
1.53044e-94
6.07465e-94
2.3169e-93
5.41811e-93
6.85917e-93
4.84082e-93
2.93925e-93
2.49002e-93
2.12841e-93
3.30406e-94
1.83944e-96
8.41119e-96
9.90891e-96
8.67441e-96
1.02389e-95
1.11186e-95
8.06687e-96
2.873e-96
6.34939e-97
1.30681e-97
3.33181e-98
1.04498e-98
3.8427e-99
1.7577e-99
1.0636e-99
9.97019e-100
1.48703e-99
3.17599e-99
8.7284e-99
2.71519e-98
9.54309e-98
3.84986e-97
1.54427e-96
3.93019e-96
5.2508e-96
4.00493e-96
2.6505e-96
2.46208e-96
2.41558e-96
4.04037e-97
1.26792e-99
1.4553e-98
1.40079e-98
1.13765e-98
1.43429e-98
1.4475e-98
7.30263e-99
1.74946e-99
3.1391e-100
6.42953e-101
1.71072e-101
5.17189e-102
1.70372e-102
7.14898e-103
4.53612e-103
4.60671e-103
7.40525e-103
1.71662e-102
4.80063e-102
1.40976e-101
4.50654e-101
1.69466e-100
6.77981e-100
1.95029e-99
3.03064e-99
3.02688e-99
2.47921e-99
2.82618e-99
3.35575e-99
5.87801e-100
2.8858e-102
2.58031e-101
1.83768e-101
1.49186e-101
1.81484e-101
1.49502e-101
4.65969e-102
7.90162e-103
1.41127e-103
3.20984e-104
9.19377e-105
3.03274e-105
1.16264e-105
5.66422e-106
3.66596e-106
3.30632e-106
4.44318e-106
8.69496e-106
2.16663e-105
5.73976e-105
1.70332e-104
6.31207e-104
2.68803e-103
9.23259e-103
1.96472e-102
2.59927e-102
2.60428e-102
3.54333e-102
4.7792e-102
8.27127e-103
4.81925e-105
2.021e-104
1.40805e-104
1.24728e-104
1.3836e-104
8.73046e-105
2.39033e-105
4.68224e-106
1.00574e-106
2.35301e-107
6.885e-108
2.66969e-108
1.20832e-108
6.1777e-109
3.83463e-109
2.99428e-109
3.00885e-109
3.93266e-109
8.17446e-109
2.2224e-108
7.61692e-108
3.19974e-107
1.53025e-106
6.32037e-106
1.65968e-105
2.54265e-105
2.77141e-105
3.98889e-105
5.55821e-105
9.26617e-106
1.70518e-105
1.70222e-105
4.58458e-105
6.77753e-105
4.22742e-105