/*--------------------------------*- C++ -*----------------------------------*\
| =========                 |                                                 |
| \\      /  F ield         | OpenFOAM: The Open Source CFD Toolbox           |
|  \\    /   O peration     | Version:  2312                                  |
|   \\  /    A nd           | Website:  www.openfoam.com                      |
|    \\/     M anipulation  |                                                 |
\*---------------------------------------------------------------------------*/
FoamFile
{
    version     2.0;
    format      ascii;
    arch        "LSB;label=32;scalar=64";
    class       volScalarField;
    location    "1.01077";
    object      epsilon;
}
// * * * * * * * * * * * * * * * * * * * * * * * * * * * * * * * * * * * * * //

dimensions      [0 2 -3 0 0 0 0];

internalField   nonuniform List<scalar> 
90000
(
9.59653e-06
9.59873e-06
9.59934e-06
9.59958e-06
9.59968e-06
9.59957e-06
9.5993e-06
9.59896e-06
9.59865e-06
9.59843e-06
9.59829e-06
9.59825e-06
9.59827e-06
9.59832e-06
9.5984e-06
9.59861e-06
9.59904e-06
9.59956e-06
9.59993e-06
9.59993e-06
9.59946e-06
9.59867e-06
9.59866e-06
9.5998e-06
9.60089e-06
9.60143e-06
9.60122e-06
9.60047e-06
9.60027e-06
9.60124e-06
9.59888e-06
9.64219e-06
9.64532e-06
9.64523e-06
9.64499e-06
9.64474e-06
9.64457e-06
9.64446e-06
9.64432e-06
9.64412e-06
9.64402e-06
9.64412e-06
9.64428e-06
9.64444e-06
9.64461e-06
9.64478e-06
9.64487e-06
9.64486e-06
9.64472e-06
9.64453e-06
9.6446e-06
9.64485e-06
9.64502e-06
9.64492e-06
9.64442e-06
9.64371e-06
9.64406e-06
9.64532e-06
9.64314e-06
9.6068e-06
9.59954e-06
9.64562e-06
9.64885e-06
9.64873e-06
9.64845e-06
9.64821e-06
9.64813e-06
9.64816e-06
9.64817e-06
9.64805e-06
9.6479e-06
9.64803e-06
9.64829e-06
9.6486e-06
9.64876e-06
9.64867e-06
9.64837e-06
9.64806e-06
9.64834e-06
9.64891e-06
9.64931e-06
9.6495e-06
9.64958e-06
9.64964e-06
9.64988e-06
9.65031e-06
9.6506e-06
9.65112e-06
9.64971e-06
9.60545e-06
9.59966e-06
9.64563e-06
9.6491e-06
9.64918e-06
9.64906e-06
9.64887e-06
9.64871e-06
9.64865e-06
9.64864e-06
9.64857e-06
9.64845e-06
9.6485e-06
9.64867e-06
9.64886e-06
9.64887e-06
9.64869e-06
9.64858e-06
9.64897e-06
9.64951e-06
9.64984e-06
9.6499e-06
9.64991e-06
9.65037e-06
9.65123e-06
9.65204e-06
9.6525e-06
9.65269e-06
9.65226e-06
9.64962e-06
9.6024e-06
9.59949e-06
9.64536e-06
9.64917e-06
9.64947e-06
9.64951e-06
9.64938e-06
9.64916e-06
9.64895e-06
9.64883e-06
9.64876e-06
9.64872e-06
9.64869e-06
9.64863e-06
9.64847e-06
9.64838e-06
9.64868e-06
9.64914e-06
9.64952e-06
9.64969e-06
9.64962e-06
9.6495e-06
9.64983e-06
9.65069e-06
9.65162e-06
9.65222e-06
9.65226e-06
9.6518e-06
9.65074e-06
9.64788e-06
9.60153e-06
9.59921e-06
9.64555e-06
9.64934e-06
9.64969e-06
9.64982e-06
9.64981e-06
9.64968e-06
9.64943e-06
9.64912e-06
9.6489e-06
9.64883e-06
9.64895e-06
9.64914e-06
9.64921e-06
9.64917e-06
9.64916e-06
9.6492e-06
9.6492e-06
9.6491e-06
9.64901e-06
9.64924e-06
9.64976e-06
9.65031e-06
9.65066e-06
9.65075e-06
9.65072e-06
9.65104e-06
9.65199e-06
9.6497e-06
9.60214e-06
9.59934e-06
9.64627e-06
9.64972e-06
9.64997e-06
9.65012e-06
9.65026e-06
9.65031e-06
9.65016e-06
9.64977e-06
9.64922e-06
9.64896e-06
9.64915e-06
9.64954e-06
9.64978e-06
9.64966e-06
9.64922e-06
9.64868e-06
9.64831e-06
9.64842e-06
9.64887e-06
9.64935e-06
9.64962e-06
9.64955e-06
9.64923e-06
9.64945e-06
9.65073e-06
9.65233e-06
9.65353e-06
9.65073e-06
9.60221e-06
9.5997e-06
9.64721e-06
9.65029e-06
9.65043e-06
9.65057e-06
9.65081e-06
9.65099e-06
9.65095e-06
9.65064e-06
9.65006e-06
9.64951e-06
9.64939e-06
9.6496e-06
9.64975e-06
9.64957e-06
9.64905e-06
9.64836e-06
9.64789e-06
9.64836e-06
9.64898e-06
9.64936e-06
9.64935e-06
9.64899e-06
9.64907e-06
9.65016e-06
9.65156e-06
9.65292e-06
9.65351e-06
9.64994e-06
9.60184e-06
9.60019e-06
9.64814e-06
9.65095e-06
9.65092e-06
9.65095e-06
9.65114e-06
9.65137e-06
9.65147e-06
9.65136e-06
9.651e-06
9.65046e-06
9.64988e-06
9.64944e-06
9.64922e-06
9.64917e-06
9.6492e-06
9.64925e-06
9.64936e-06
9.64958e-06
9.64978e-06
9.6498e-06
9.64956e-06
9.64935e-06
9.64982e-06
9.65082e-06
9.65193e-06
9.65273e-06
9.65275e-06
9.64887e-06
9.60153e-06
9.60121e-06
9.64848e-06
9.6511e-06
9.65096e-06
9.65078e-06
9.65079e-06
9.65094e-06
9.65122e-06
9.65146e-06
9.6515e-06
9.65121e-06
9.65052e-06
9.64954e-06
9.64874e-06
9.64888e-06
9.6497e-06
9.65058e-06
9.65124e-06
9.65158e-06
9.65158e-06
9.65125e-06
9.65069e-06
9.65022e-06
9.65023e-06
9.65084e-06
9.65156e-06
9.65196e-06
9.65175e-06
9.64805e-06
9.60155e-06
9.60221e-06
9.64821e-06
9.65076e-06
9.65059e-06
9.65024e-06
9.64991e-06
9.64984e-06
9.6502e-06
9.65078e-06
9.65124e-06
9.65131e-06
9.6509e-06
9.65006e-06
9.64909e-06
9.64887e-06
9.64997e-06
9.65133e-06
9.65245e-06
9.65315e-06
9.65322e-06
9.6527e-06
9.6518e-06
9.6509e-06
9.65037e-06
9.65052e-06
9.65101e-06
9.65141e-06
9.65139e-06
9.64803e-06
9.60202e-06
9.60242e-06
9.6482e-06
9.65099e-06
9.65096e-06
9.65079e-06
9.65057e-06
9.65037e-06
9.65028e-06
9.65038e-06
9.65064e-06
9.65086e-06
9.65085e-06
9.65049e-06
9.64974e-06
9.64893e-06
9.64984e-06
9.65146e-06
9.65281e-06
9.65351e-06
9.65345e-06
9.65281e-06
9.65188e-06
9.651e-06
9.65038e-06
9.65044e-06
9.65091e-06
9.65138e-06
9.65157e-06
9.64853e-06
9.60245e-06
9.60238e-06
9.64873e-06
9.65182e-06
9.65218e-06
9.65269e-06
9.65313e-06
9.65329e-06
9.65306e-06
9.65232e-06
9.65125e-06
9.65063e-06
9.65087e-06
9.65108e-06
9.65102e-06
9.65081e-06
9.65096e-06
9.65149e-06
9.65189e-06
9.65194e-06
9.65174e-06
9.65143e-06
9.6511e-06
9.65081e-06
9.65061e-06
9.65075e-06
9.65106e-06
9.65143e-06
9.65174e-06
9.64866e-06
9.60263e-06
9.60427e-06
9.64906e-06
9.65285e-06
9.6538e-06
9.65488e-06
9.65572e-06
9.65597e-06
9.65538e-06
9.65395e-06
9.65211e-06
9.65058e-06
9.65065e-06
9.65141e-06
9.65211e-06
9.65247e-06
9.65243e-06
9.65187e-06
9.65073e-06
9.64964e-06
9.64945e-06
9.65005e-06
9.65069e-06
9.6511e-06
9.65122e-06
9.6512e-06
9.65131e-06
9.65161e-06
9.65188e-06
9.64859e-06
9.60294e-06
9.60685e-06
9.64909e-06
9.65423e-06
9.65561e-06
9.65669e-06
9.65713e-06
9.65674e-06
9.65553e-06
9.6538e-06
9.65197e-06
9.65034e-06
9.65017e-06
9.65128e-06
9.65249e-06
9.65317e-06
9.65307e-06
9.6522e-06
9.65079e-06
9.64955e-06
9.64935e-06
9.65021e-06
9.65122e-06
9.65189e-06
9.65211e-06
9.65196e-06
9.65201e-06
9.65233e-06
9.65252e-06
9.64935e-06
9.60425e-06
9.60826e-06
9.65212e-06
9.65639e-06
9.65711e-06
9.6572e-06
9.65655e-06
9.65535e-06
9.65403e-06
9.65291e-06
9.65187e-06
9.65071e-06
9.65018e-06
9.65119e-06
9.65244e-06
9.65313e-06
9.65311e-06
9.65253e-06
9.65169e-06
9.65094e-06
9.65069e-06
9.65116e-06
9.65204e-06
9.65278e-06
9.65307e-06
9.6531e-06
9.65336e-06
9.65385e-06
9.65441e-06
9.65204e-06
9.60622e-06
9.60824e-06
9.65602e-06
9.65839e-06
9.6579e-06
9.65668e-06
9.65518e-06
9.6539e-06
9.65331e-06
9.65317e-06
9.65267e-06
9.65171e-06
9.65102e-06
9.65154e-06
9.65233e-06
9.65275e-06
9.65282e-06
9.65269e-06
9.6524e-06
9.65204e-06
9.6519e-06
9.65227e-06
9.65284e-06
9.65343e-06
9.6539e-06
9.65437e-06
9.65506e-06
9.65588e-06
9.65665e-06
9.65381e-06
9.60717e-06
9.60836e-06
9.65851e-06
9.65994e-06
9.65893e-06
9.65757e-06
9.6562e-06
9.65515e-06
9.65463e-06
9.65425e-06
9.65351e-06
9.65262e-06
9.65191e-06
9.65179e-06
9.65186e-06
9.6519e-06
9.65212e-06
9.65245e-06
9.65273e-06
9.65285e-06
9.65303e-06
9.65336e-06
9.65376e-06
9.65427e-06
9.65496e-06
9.6559e-06
9.65691e-06
9.65772e-06
9.65803e-06
9.65428e-06
9.60772e-06
9.61045e-06
9.65975e-06
9.66159e-06
9.66074e-06
9.65964e-06
9.65864e-06
9.65776e-06
9.6568e-06
9.65559e-06
9.65429e-06
9.65322e-06
9.65225e-06
9.65151e-06
9.65098e-06
9.65075e-06
9.65107e-06
9.65184e-06
9.65267e-06
9.65333e-06
9.65381e-06
9.65418e-06
9.65466e-06
9.65538e-06
9.65672e-06
9.65817e-06
9.65909e-06
9.65938e-06
9.65905e-06
9.6551e-06
9.60914e-06
9.61319e-06
9.66063e-06
9.66321e-06
9.66257e-06
9.66175e-06
9.66097e-06
9.66012e-06
9.65897e-06
9.65749e-06
9.65588e-06
9.65432e-06
9.65285e-06
9.65151e-06
9.65041e-06
9.64983e-06
9.65029e-06
9.65153e-06
9.65282e-06
9.65385e-06
9.65459e-06
9.65528e-06
9.65632e-06
9.65799e-06
9.65972e-06
9.66083e-06
9.66117e-06
9.66113e-06
9.66091e-06
9.65743e-06
9.61186e-06
9.61608e-06
9.66191e-06
9.66487e-06
9.6645e-06
9.664e-06
9.66343e-06
9.66259e-06
9.66131e-06
9.65968e-06
9.65784e-06
9.65589e-06
9.65394e-06
9.65221e-06
9.6509e-06
9.65036e-06
9.65098e-06
9.65232e-06
9.6537e-06
9.65496e-06
9.65619e-06
9.65766e-06
9.6595e-06
9.66131e-06
9.66247e-06
9.66286e-06
9.66298e-06
9.66324e-06
9.66343e-06
9.66031e-06
9.61506e-06
9.61913e-06
9.66397e-06
9.66737e-06
9.66727e-06
9.66693e-06
9.6663e-06
9.66522e-06
9.6637e-06
9.66184e-06
9.65975e-06
9.65749e-06
9.6554e-06
9.65364e-06
9.65239e-06
9.6518e-06
9.65214e-06
9.6533e-06
9.65486e-06
9.65668e-06
9.6587e-06
9.66085e-06
9.66279e-06
9.66405e-06
9.66454e-06
9.66492e-06
9.66555e-06
9.66622e-06
9.66656e-06
9.66355e-06
9.61846e-06
9.62286e-06
9.66753e-06
9.67113e-06
9.67113e-06
9.67063e-06
9.6696e-06
9.66805e-06
9.66614e-06
9.66402e-06
9.66179e-06
9.65959e-06
9.65746e-06
9.65542e-06
9.65357e-06
9.65236e-06
9.65249e-06
9.65398e-06
9.65621e-06
9.65881e-06
9.66152e-06
9.66385e-06
9.66542e-06
9.66636e-06
9.66716e-06
9.66821e-06
9.6694e-06
9.67025e-06
9.67056e-06
9.66761e-06
9.62271e-06
9.6279e-06
9.67272e-06
9.67629e-06
9.67606e-06
9.67506e-06
9.67346e-06
9.67146e-06
9.66929e-06
9.66702e-06
9.66466e-06
9.6622e-06
9.65962e-06
9.65698e-06
9.65445e-06
9.65274e-06
9.653e-06
9.65507e-06
9.65805e-06
9.66128e-06
9.66416e-06
9.66638e-06
9.66802e-06
9.66953e-06
9.67124e-06
9.67309e-06
9.67465e-06
9.67553e-06
9.67601e-06
9.67312e-06
9.62854e-06
9.63453e-06
9.67966e-06
9.68287e-06
9.68211e-06
9.68052e-06
9.67847e-06
9.67623e-06
9.67383e-06
9.67119e-06
9.66837e-06
9.66534e-06
9.66215e-06
9.65887e-06
9.65587e-06
9.654e-06
9.65431e-06
9.65676e-06
9.66025e-06
9.66361e-06
9.66651e-06
9.66909e-06
9.6716e-06
9.67412e-06
9.67666e-06
9.67899e-06
9.6807e-06
9.68192e-06
9.68297e-06
9.68058e-06
9.63607e-06
9.64331e-06
9.68839e-06
9.69096e-06
9.68959e-06
9.68756e-06
9.68525e-06
9.6827e-06
9.67983e-06
9.67664e-06
9.67321e-06
9.6695e-06
9.66559e-06
9.66174e-06
9.65846e-06
9.65616e-06
9.65621e-06
9.6588e-06
9.66241e-06
9.66606e-06
9.6697e-06
9.67334e-06
9.67672e-06
9.67988e-06
9.6829e-06
9.68534e-06
9.6874e-06
9.6894e-06
9.69133e-06
9.68967e-06
9.64392e-06
9.65444e-06
9.69855e-06
9.70067e-06
9.69889e-06
9.69656e-06
9.69391e-06
9.69084e-06
9.6873e-06
9.68346e-06
9.67924e-06
9.67475e-06
9.67017e-06
9.66592e-06
9.66214e-06
9.659e-06
9.65861e-06
9.6613e-06
9.66538e-06
9.67003e-06
9.67479e-06
9.67924e-06
9.68326e-06
9.68695e-06
9.69027e-06
9.69306e-06
9.69596e-06
9.69887e-06
9.70104e-06
9.69862e-06
9.65321e-06
9.66737e-06
9.71036e-06
9.71231e-06
9.71023e-06
9.7075e-06
9.70432e-06
9.70056e-06
9.69628e-06
9.69164e-06
9.68664e-06
9.68142e-06
9.67629e-06
9.67141e-06
9.66646e-06
9.66233e-06
9.66174e-06
9.665e-06
9.67009e-06
9.67584e-06
9.68157e-06
9.68699e-06
9.69189e-06
9.69596e-06
9.69987e-06
9.70356e-06
9.70738e-06
9.7107e-06
9.71192e-06
9.70923e-06
9.66547e-06
9.68217e-06
9.72432e-06
9.72602e-06
9.72361e-06
9.72047e-06
9.71671e-06
9.71228e-06
9.70729e-06
9.70186e-06
9.69604e-06
9.68999e-06
9.68398e-06
9.67772e-06
9.67143e-06
9.66654e-06
9.66609e-06
9.6703e-06
9.6766e-06
9.68362e-06
9.69045e-06
9.6967e-06
9.70246e-06
9.70748e-06
9.71246e-06
9.71718e-06
9.72154e-06
9.72469e-06
9.72544e-06
9.7235e-06
9.68112e-06
9.69943e-06
9.74097e-06
9.74248e-06
9.73979e-06
9.73622e-06
9.73188e-06
9.72679e-06
9.72103e-06
9.71465e-06
9.70773e-06
9.70045e-06
9.69293e-06
9.68505e-06
9.67752e-06
9.67205e-06
9.67192e-06
9.67715e-06
9.68466e-06
9.69289e-06
9.70081e-06
9.70799e-06
9.71514e-06
9.72172e-06
9.72787e-06
9.73324e-06
9.73777e-06
9.741e-06
9.74281e-06
9.74201e-06
9.69971e-06
9.72031e-06
9.76146e-06
9.76277e-06
9.75973e-06
9.75564e-06
9.75056e-06
9.74459e-06
9.73783e-06
9.73024e-06
9.72192e-06
9.71304e-06
9.70372e-06
9.69423e-06
9.68547e-06
9.67939e-06
9.67953e-06
9.68577e-06
9.69443e-06
9.70392e-06
9.71331e-06
9.722e-06
9.73091e-06
9.73896e-06
9.74593e-06
9.75184e-06
9.75657e-06
9.76081e-06
9.76452e-06
9.7638e-06
9.72158e-06
9.74589e-06
9.78683e-06
9.7878e-06
9.78424e-06
9.77939e-06
9.77335e-06
9.76628e-06
9.75828e-06
9.74933e-06
9.73944e-06
9.72872e-06
9.71743e-06
9.70614e-06
9.69597e-06
9.68904e-06
9.68927e-06
9.69658e-06
9.70659e-06
9.71749e-06
9.72885e-06
9.73951e-06
9.75005e-06
9.7591e-06
9.76708e-06
9.77384e-06
9.77951e-06
9.78525e-06
9.79024e-06
9.78929e-06
9.74797e-06
9.77731e-06
9.81789e-06
9.81834e-06
9.8141e-06
9.80826e-06
9.80105e-06
9.79271e-06
9.78333e-06
9.77282e-06
9.76105e-06
9.74819e-06
9.73468e-06
9.72139e-06
9.70968e-06
9.70175e-06
9.70193e-06
9.71022e-06
9.72173e-06
9.73428e-06
9.74787e-06
9.76048e-06
9.77243e-06
9.78275e-06
9.79236e-06
9.80067e-06
9.80782e-06
9.81489e-06
9.82028e-06
9.81967e-06
9.77958e-06
9.81558e-06
9.85554e-06
9.85535e-06
9.85029e-06
9.84325e-06
9.83462e-06
9.82473e-06
9.81361e-06
9.80113e-06
9.78717e-06
9.772e-06
9.75625e-06
9.74095e-06
9.72764e-06
9.71858e-06
9.71847e-06
9.72762e-06
9.74091e-06
9.75548e-06
9.77124e-06
9.78572e-06
9.79965e-06
9.81194e-06
9.8235e-06
9.83361e-06
9.84252e-06
9.85048e-06
9.85612e-06
9.85615e-06
9.81712e-06
9.86181e-06
9.90078e-06
9.89981e-06
9.89359e-06
9.88511e-06
9.87486e-06
9.86314e-06
9.84992e-06
9.83519e-06
9.8189e-06
9.80144e-06
9.78345e-06
9.76592e-06
9.75059e-06
9.74018e-06
9.73997e-06
9.75029e-06
9.76577e-06
9.78273e-06
9.80076e-06
9.81739e-06
9.83396e-06
9.84856e-06
9.86198e-06
9.8741e-06
9.88478e-06
9.89333e-06
9.89937e-06
9.89996e-06
9.86214e-06
9.91731e-06
9.95459e-06
9.95257e-06
9.9451e-06
9.93527e-06
9.92353e-06
9.90997e-06
9.89453e-06
9.8774e-06
9.85863e-06
9.83858e-06
9.81801e-06
9.79781e-06
9.7801e-06
9.76831e-06
9.76835e-06
9.78051e-06
9.79832e-06
9.81771e-06
9.83837e-06
9.85767e-06
9.8772e-06
9.8941e-06
9.90953e-06
9.92375e-06
9.93586e-06
9.94496e-06
9.95152e-06
9.95279e-06
9.91694e-06
9.98368e-06
1.00187e-05
1.00158e-05
1.00076e-05
9.9968e-06
9.98364e-06
9.96808e-06
9.95025e-06
9.93053e-06
9.90906e-06
9.88606e-06
9.86257e-06
9.8396e-06
9.81952e-06
9.80622e-06
9.80627e-06
9.82027e-06
9.84035e-06
9.8623e-06
9.8864e-06
9.9089e-06
9.93094e-06
9.95011e-06
9.96793e-06
9.9841e-06
9.99733e-06
1.00074e-05
1.00151e-05
1.00179e-05
9.98387e-06
1.00633e-05
1.00964e-05
1.00933e-05
1.00844e-05
1.00722e-05
1.0057e-05
1.00391e-05
1.00188e-05
9.99648e-06
9.97228e-06
9.94623e-06
9.91981e-06
9.89412e-06
9.87156e-06
9.85646e-06
9.85586e-06
9.87134e-06
9.89422e-06
9.91923e-06
9.9469e-06
9.97245e-06
9.99659e-06
1.00184e-05
1.0039e-05
1.0057e-05
1.00715e-05
1.00837e-05
1.00933e-05
1.00974e-05
1.00648e-05
1.01593e-05
1.01912e-05
1.01872e-05
1.01767e-05
1.01624e-05
1.01449e-05
1.01248e-05
1.01021e-05
1.00772e-05
1.00501e-05
1.0021e-05
9.99162e-06
9.96293e-06
9.93748e-06
9.92072e-06
9.91982e-06
9.93693e-06
9.96287e-06
9.9913e-06
1.00218e-05
1.00499e-05
1.00766e-05
1.01016e-05
1.01248e-05
1.0145e-05
1.01612e-05
1.01758e-05
1.01871e-05
1.01915e-05
1.01604e-05
1.02749e-05
1.03046e-05
1.02986e-05
1.02863e-05
1.02705e-05
1.02515e-05
1.02293e-05
1.02043e-05
1.01764e-05
1.01465e-05
1.01144e-05
1.00822e-05
1.00506e-05
1.00221e-05
1.00036e-05
1.0003e-05
1.00221e-05
1.00506e-05
1.00821e-05
1.01149e-05
1.01459e-05
1.01758e-05
1.0204e-05
1.02292e-05
1.02517e-05
1.02702e-05
1.02864e-05
1.02989e-05
1.03038e-05
1.0274e-05
1.04126e-05
1.04395e-05
1.04324e-05
1.04196e-05
1.0403e-05
1.03822e-05
1.03576e-05
1.03306e-05
1.03004e-05
1.02684e-05
1.02337e-05
1.01986e-05
1.01645e-05
1.01328e-05
1.01122e-05
1.01117e-05
1.01325e-05
1.01638e-05
1.01981e-05
1.02331e-05
1.02673e-05
1.03e-05
1.03305e-05
1.03574e-05
1.0382e-05
1.04033e-05
1.042e-05
1.04328e-05
1.04397e-05
1.04113e-05
1.05779e-05
1.06039e-05
1.05962e-05
1.05824e-05
1.05638e-05
1.05412e-05
1.05148e-05
1.04865e-05
1.04545e-05
1.04204e-05
1.0384e-05
1.03464e-05
1.03107e-05
1.02764e-05
1.02529e-05
1.02539e-05
1.02765e-05
1.03094e-05
1.03462e-05
1.03836e-05
1.04201e-05
1.04541e-05
1.04857e-05
1.05153e-05
1.05409e-05
1.05639e-05
1.05818e-05
1.05952e-05
1.06046e-05
1.05781e-05
1.07797e-05
1.08055e-05
1.07949e-05
1.07789e-05
1.0759e-05
1.07355e-05
1.07075e-05
1.0678e-05
1.06452e-05
1.06101e-05
1.05748e-05
1.05354e-05
1.04974e-05
1.04632e-05
1.04382e-05
1.04391e-05
1.04636e-05
1.04976e-05
1.05352e-05
1.0574e-05
1.06108e-05
1.06454e-05
1.06778e-05
1.07093e-05
1.07353e-05
1.07584e-05
1.07788e-05
1.07957e-05
1.08063e-05
1.07783e-05
1.10277e-05
1.1054e-05
1.10397e-05
1.10222e-05
1.1e-05
1.09757e-05
1.09476e-05
1.0918e-05
1.08867e-05
1.08528e-05
1.08194e-05
1.07819e-05
1.07446e-05
1.07136e-05
1.06899e-05
1.06889e-05
1.07122e-05
1.07468e-05
1.07824e-05
1.08183e-05
1.08532e-05
1.08867e-05
1.09184e-05
1.09475e-05
1.09749e-05
1.10004e-05
1.1023e-05
1.10409e-05
1.10536e-05
1.10246e-05
1.13387e-05
1.13738e-05
1.13542e-05
1.13333e-05
1.13091e-05
1.12841e-05
1.12552e-05
1.12273e-05
1.12044e-05
1.11788e-05
1.11589e-05
1.11464e-05
1.11373e-05
1.11327e-05
1.11351e-05
1.11374e-05
1.11342e-05
1.11363e-05
1.11451e-05
1.11614e-05
1.11799e-05
1.12034e-05
1.12296e-05
1.1254e-05
1.12814e-05
1.13112e-05
1.13347e-05
1.13524e-05
1.13718e-05
1.13382e-05
1.17739e-05
1.18483e-05
1.1822e-05
1.18137e-05
1.17905e-05
1.17498e-05
1.17268e-05
1.17269e-05
1.17456e-05
1.17884e-05
1.19275e-05
1.21318e-05
1.24159e-05
1.27622e-05
1.3082e-05
1.30859e-05
1.27636e-05
1.24168e-05
1.21336e-05
1.19287e-05
1.179e-05
1.17471e-05
1.17264e-05
1.17271e-05
1.17506e-05
1.17889e-05
1.1813e-05
1.18248e-05
1.18484e-05
1.17719e-05
1.26717e-05
1.29067e-05
1.29838e-05
1.31825e-05
1.31007e-05
1.29757e-05
1.31112e-05
1.32902e-05
1.36377e-05
1.43126e-05
1.58903e-05
1.81937e-05
2.12321e-05
2.4844e-05
2.81365e-05
2.81584e-05
2.48487e-05
2.12387e-05
1.82135e-05
1.59086e-05
1.43222e-05
1.36462e-05
1.3294e-05
1.3114e-05
1.29797e-05
1.30951e-05
1.31809e-05
1.29897e-05
1.29077e-05
1.26705e-05
1.58207e-05
1.63029e-05
1.78056e-05
2.09871e-05
1.90774e-05
1.85705e-05
2.30231e-05
2.32719e-05
2.54435e-05
3.28091e-05
4.59633e-05
6.43119e-05
9.00832e-05
0.00011878
0.000143035
0.000143096
0.000118731
9.00979e-05
6.45268e-05
4.61168e-05
3.29361e-05
2.5517e-05
2.33042e-05
2.31011e-05
1.86065e-05
1.90445e-05
2.09818e-05
1.78335e-05
1.63011e-05
1.58047e-05
2.87294e-05
3.15817e-05
4.10198e-05
6.74486e-05
5.22983e-05
5.25881e-05
0.000129753
0.00011499
0.000128695
0.000266532
0.000312248
0.000392648
0.000588361
0.000723054
0.000806499
0.00080303
0.000720992
0.000585059
0.000397395
0.000313563
0.000268032
0.000129411
0.000115415
0.000130924
5.29244e-05
5.22067e-05
6.75084e-05
4.11783e-05
3.14789e-05
2.86262e-05
8.56896e-05
0.00015849
0.000138836
0.000305774
0.000409232
0.000376024
0.000725852
0.000872093
0.000729634
0.00158241
0.00192942
0.00180764
0.00252159
0.00261972
0.00285162
0.0028377
0.0026304
0.00250308
0.00184619
0.00187865
0.00157972
0.000729051
0.00088278
0.000731825
0.000378873
0.000414757
0.000307563
0.000139003
0.000157228
8.55272e-05
0.000283246
0.000640594
0.000517828
0.00110756
0.00190268
0.00204494
0.00295859
0.00432784
0.00379561
0.00586633
0.00701854
0.00579333
0.00736183
0.00847674
0.00763286
0.00749482
0.00838721
0.00732312
0.00574038
0.00672274
0.00582871
0.00379779
0.00439179
0.00299856
0.00210054
0.00194044
0.00111694
0.000510974
0.000634906
0.000289164
0.00057017
0.000877537
0.000909652
0.00181319
0.00303086
0.00370516
0.00455758
0.00703146
0.00737354
0.00853577
0.011131
0.0104155
0.0101411
0.010153
0.00973083
0.00961218
0.00997185
0.00998833
0.00883555
0.0105563
0.00843196
0.0074106
0.0071385
0.00466581
0.00394717
0.00311696
0.00182761
0.000914833
0.000868917
0.000574707
0.000617363
0.000851572
0.000977398
0.0016952
0.00263847
0.0026586
0.00388702
0.00567456
0.00482409
0.00719832
0.00838843
0.00712357
0.00700917
0.00796162
0.0075531
0.00766655
0.00816079
0.00730339
0.00679851
0.00822592
0.00728759
0.00487755
0.00573959
0.00393121
0.0027138
0.0026571
0.00171099
0.0010204
0.000855059
0.000615068
0.000506373
0.000586124
0.000675393
0.0013262
0.00166184
0.00189026
0.00260319
0.0031617
0.0033917
0.00505132
0.00503328
0.00460534
0.00499996
0.00519517
0.00588055
0.00596266
0.00544369
0.00514275
0.00478932
0.00507136
0.00513516
0.00334338
0.00315545
0.00262346
0.00191267
0.00169232
0.00133841
0.00068071
0.00059658
0.000499702
0.000382376
0.000428651
0.000563105
0.000948137
0.00115303
0.00131617
0.00175037
0.00197571
0.00223174
0.00306865
0.00326347
0.0030629
0.00329997
0.00367394
0.00390915
0.00393539
0.00376316
0.00333639
0.00306559
0.00322493
0.00310962
0.00224615
0.00198796
0.00176061
0.00132888
0.00116959
0.000954729
0.000562799
0.000436774
0.00038245
0.000267903
0.000296182
0.000366641
0.000522576
0.000595907
0.000676406
0.00102227
0.00126648
0.00153075
0.00199132
0.00226574
0.00229588
0.00238296
0.00254132
0.00258686
0.0025927
0.00258102
0.00239074
0.00227869
0.00224781
0.00199734
0.00153537
0.00127478
0.0010284
0.000680061
0.000603773
0.000527611
0.000366329
0.000300598
0.000270555
0.000191361
0.000201814
0.00022213
0.000261934
0.000280531
0.000296494
0.000404381
0.000571956
0.000837006
0.00126457
0.00167476
0.00197532
0.00217506
0.00228016
0.00229749
0.00229791
0.00229881
0.00217801
0.00197393
0.00167805
0.00126726
0.000837855
0.000577715
0.000411244
0.000299476
0.000285653
0.000265577
0.000223209
0.000203501
0.000192448
0.000141481
0.000143284
0.000145889
0.000153266
0.000158366
0.000164727
0.000187568
0.000235513
0.000333908
0.000552658
0.000935398
0.00141562
0.00182879
0.00209235
0.00221193
0.00221403
0.00210261
0.00183272
0.0014159
0.000936865
0.000556334
0.000334947
0.000237004
0.000189334
0.000166155
0.000160067
0.000155201
0.000147786
0.000144302
0.000142273
0.000110041
0.000108763
0.000108364
0.000109285
0.000110514
0.000113461
0.00012029
0.000131904
0.00015565
0.000214883
0.000360275
0.00065383
0.00108586
0.00150697
0.00176807
0.00176856
0.0015116
0.00108971
0.000653698
0.000359984
0.000216036
0.000156236
0.000132649
0.0001205
0.000113703
0.000111192
0.000109905
0.000108506
0.000109451
0.000110786
8.93593e-05
8.79347e-05
8.7312e-05
8.77082e-05
8.84812e-05
9.0051e-05
9.25832e-05
9.68851e-05
0.000103434
0.000116504
0.000148342
0.000229703
0.000397266
0.000658118
0.00091261
0.000911138
0.000658433
0.00039881
0.000229759
0.000148607
0.000117289
0.000103804
9.69847e-05
9.2787e-05
8.99865e-05
8.84963e-05
8.77008e-05
8.7823e-05
8.84016e-05
8.9776e-05
7.52344e-05
7.37845e-05
7.30167e-05
7.36497e-05
7.4128e-05
7.54588e-05
7.76336e-05
7.97976e-05
8.24137e-05
8.60378e-05
9.2436e-05
0.000107349
0.000140289
0.000199518
0.000274184
0.000274082
0.000199543
0.000140821
0.000107469
9.29366e-05
8.63642e-05
8.26605e-05
8.00276e-05
7.78692e-05
7.58852e-05
7.47758e-05
7.35325e-05
7.33458e-05
7.38062e-05
7.52305e-05
6.48556e-05
6.25133e-05
6.23004e-05
6.28402e-05
6.39164e-05
6.51849e-05
6.69296e-05
6.81884e-05
6.96249e-05
7.10569e-05
7.27409e-05
7.53006e-05
8.01037e-05
8.85065e-05
9.97183e-05
0.000100015
8.89352e-05
8.02966e-05
7.50948e-05
7.28869e-05
7.12183e-05
6.9664e-05
6.82353e-05
6.6787e-05
6.53277e-05
6.40432e-05
6.30179e-05
6.24536e-05
6.29432e-05
6.53475e-05
5.75665e-05
5.39797e-05
5.40973e-05
5.4758e-05
5.55422e-05
5.65351e-05
5.76225e-05
5.82405e-05
5.90675e-05
5.97277e-05
6.01337e-05
6.03614e-05
6.0736e-05
6.15731e-05
6.27698e-05
6.27012e-05
6.1678e-05
6.08742e-05
6.04587e-05
6.02335e-05
5.97546e-05
5.92211e-05
5.85977e-05
5.75284e-05
5.63613e-05
5.53066e-05
5.47056e-05
5.41742e-05
5.4596e-05
5.78778e-05
5.09891e-05
4.7575e-05
4.74448e-05
4.78691e-05
4.84246e-05
4.90501e-05
4.94911e-05
4.98802e-05
5.02729e-05
5.03343e-05
5.01241e-05
4.9881e-05
4.95933e-05
4.92447e-05
4.90114e-05
4.89256e-05
4.9274e-05
4.96284e-05
5.0007e-05
5.03192e-05
5.0464e-05
5.04698e-05
5.01568e-05
4.95606e-05
4.89161e-05
4.83442e-05
4.79687e-05
4.75158e-05
4.79069e-05
5.13563e-05
4.51892e-05
4.21495e-05
4.17868e-05
4.20387e-05
4.24122e-05
4.27555e-05
4.29209e-05
4.30481e-05
4.29306e-05
4.25805e-05
4.21721e-05
4.17413e-05
4.11682e-05
4.05378e-05
4.01067e-05
4.01404e-05
4.06444e-05
4.1176e-05
4.16909e-05
4.22112e-05
4.26906e-05
4.3075e-05
4.31123e-05
4.29477e-05
4.27178e-05
4.24726e-05
4.22168e-05
4.19064e-05
4.22901e-05
4.53665e-05
4.00202e-05
3.71915e-05
3.68913e-05
3.70447e-05
3.72318e-05
3.73338e-05
3.73226e-05
3.71302e-05
3.67516e-05
3.62865e-05
3.57314e-05
3.50929e-05
3.43589e-05
3.37189e-05
3.33409e-05
3.34091e-05
3.38211e-05
3.43669e-05
3.50422e-05
3.5779e-05
3.64529e-05
3.69532e-05
3.72049e-05
3.7316e-05
3.73411e-05
3.72779e-05
3.70942e-05
3.69318e-05
3.7316e-05
3.99958e-05
3.52653e-05
3.29985e-05
3.26699e-05
3.26876e-05
3.26828e-05
3.26502e-05
3.24828e-05
3.20982e-05
3.16177e-05
3.10473e-05
3.0391e-05
2.96885e-05
2.89807e-05
2.83968e-05
2.80399e-05
2.80659e-05
2.84225e-05
2.89836e-05
2.97092e-05
3.04939e-05
3.12269e-05
3.18177e-05
3.22241e-05
3.24932e-05
3.26365e-05
3.26737e-05
3.2619e-05
3.26085e-05
3.30085e-05
3.53425e-05
3.13395e-05
2.9309e-05
2.89824e-05
2.89559e-05
2.89051e-05
2.87869e-05
2.84366e-05
2.7968e-05
2.74678e-05
2.68648e-05
2.61695e-05
2.54494e-05
2.47616e-05
2.41984e-05
2.38419e-05
2.38361e-05
2.41708e-05
2.47426e-05
2.54768e-05
2.62533e-05
2.69901e-05
2.76147e-05
2.80849e-05
2.84206e-05
2.86611e-05
2.88075e-05
2.88766e-05
2.89562e-05
2.93339e-05
3.13513e-05
2.77837e-05
2.60698e-05
2.58721e-05
2.58032e-05
2.56776e-05
2.54279e-05
2.50347e-05
2.46356e-05
2.41709e-05
2.35661e-05
2.28674e-05
2.21493e-05
2.14848e-05
2.09494e-05
2.06155e-05
2.0605e-05
2.09186e-05
2.14584e-05
2.21398e-05
2.28548e-05
2.35447e-05
2.41668e-05
2.4681e-05
2.50738e-05
2.53704e-05
2.55858e-05
2.57313e-05
2.58511e-05
2.61858e-05
2.78934e-05
2.47587e-05
2.34889e-05
2.32518e-05
2.30849e-05
2.28672e-05
2.25697e-05
2.22406e-05
2.18793e-05
2.14049e-05
2.08097e-05
2.01492e-05
1.94777e-05
1.88564e-05
1.83443e-05
1.80194e-05
1.79954e-05
1.82846e-05
1.87959e-05
1.944e-05
2.01236e-05
2.0789e-05
2.13943e-05
2.19024e-05
2.23019e-05
2.26228e-05
2.28773e-05
2.3065e-05
2.32053e-05
2.35024e-05
2.49166e-05
2.23574e-05
2.12965e-05
2.09722e-05
2.07523e-05
2.05285e-05
2.02797e-05
1.99852e-05
1.96046e-05
1.91337e-05
1.85858e-05
1.79932e-05
1.73833e-05
1.68082e-05
1.63303e-05
1.60311e-05
1.60171e-05
1.62955e-05
1.67777e-05
1.73744e-05
1.7999e-05
1.8599e-05
1.91501e-05
1.96317e-05
2.00313e-05
2.03556e-05
2.06114e-05
2.08044e-05
2.09518e-05
2.12119e-05
2.23639e-05
2.02429e-05
1.92885e-05
1.89981e-05
1.88306e-05
1.86745e-05
1.84612e-05
1.81478e-05
1.77675e-05
1.73405e-05
1.68491e-05
1.63107e-05
1.57531e-05
1.52322e-05
1.48085e-05
1.455e-05
1.45454e-05
1.47964e-05
1.52244e-05
1.57521e-05
1.63078e-05
1.68459e-05
1.73471e-05
1.7793e-05
1.81716e-05
1.84774e-05
1.87187e-05
1.89034e-05
1.9042e-05
1.92593e-05
2.01916e-05
1.84191e-05
1.75909e-05
1.73968e-05
1.73016e-05
1.71611e-05
1.69319e-05
1.66314e-05
1.63047e-05
1.59277e-05
1.54806e-05
1.49842e-05
1.44778e-05
1.40151e-05
1.36438e-05
1.34177e-05
1.34161e-05
1.36406e-05
1.40178e-05
1.44786e-05
1.49654e-05
1.54446e-05
1.58973e-05
1.63053e-05
1.66542e-05
1.69356e-05
1.71536e-05
1.73164e-05
1.74363e-05
1.76142e-05
1.83684e-05
1.68373e-05
1.61869e-05
1.60688e-05
1.59823e-05
1.58335e-05
1.56278e-05
1.53939e-05
1.51197e-05
1.47751e-05
1.43703e-05
1.39305e-05
1.34934e-05
1.30969e-05
1.27717e-05
1.25658e-05
1.25587e-05
1.27548e-05
1.30843e-05
1.34854e-05
1.39108e-05
1.43353e-05
1.47394e-05
1.51048e-05
1.54137e-05
1.56601e-05
1.58489e-05
1.59896e-05
1.60952e-05
1.62437e-05
1.68475e-05
1.55116e-05
1.50555e-05
1.49472e-05
1.48469e-05
1.47292e-05
1.45825e-05
1.43966e-05
1.41408e-05
1.38245e-05
1.34695e-05
1.30957e-05
1.27286e-05
1.23844e-05
1.20871e-05
1.18939e-05
1.18857e-05
1.20654e-05
1.2362e-05
1.2714e-05
1.30815e-05
1.34462e-05
1.37927e-05
1.41064e-05
1.43734e-05
1.45888e-05
1.47563e-05
1.48823e-05
1.49771e-05
1.51013e-05
1.55787e-05
1.45076e-05
1.41442e-05
1.40205e-05
1.39475e-05
1.38639e-05
1.37425e-05
1.35641e-05
1.33239e-05
1.30488e-05
1.27499e-05
1.24407e-05
1.21307e-05
1.18243e-05
1.15507e-05
1.13777e-05
1.13773e-05
1.15419e-05
1.18021e-05
1.21026e-05
1.24134e-05
1.27208e-05
1.30155e-05
1.32832e-05
1.35143e-05
1.3705e-05
1.3855e-05
1.39671e-05
1.40501e-05
1.41525e-05
1.45263e-05
1.36669e-05
1.33443e-05
1.32692e-05
1.32271e-05
1.31414e-05
1.30189e-05
1.28505e-05
1.26476e-05
1.24222e-05
1.21775e-05
1.19223e-05
1.16548e-05
1.13818e-05
1.11418e-05
1.09964e-05
1.09982e-05
1.11365e-05
1.1354e-05
1.16087e-05
1.18782e-05
1.2147e-05
1.24021e-05
1.26325e-05
1.28318e-05
1.29965e-05
1.31249e-05
1.3219e-05
1.32874e-05
1.33695e-05
1.36582e-05
1.29079e-05
1.27039e-05
1.26827e-05
1.26234e-05
1.25295e-05
1.24171e-05
1.22767e-05
1.21136e-05
1.19254e-05
1.17192e-05
1.14997e-05
1.12636e-05
1.10266e-05
1.08283e-05
1.07098e-05
1.07056e-05
1.08139e-05
1.09967e-05
1.12211e-05
1.14639e-05
1.17054e-05
1.19291e-05
1.21261e-05
1.22919e-05
1.2425e-05
1.25267e-05
1.2601e-05
1.26564e-05
1.27225e-05
1.2944e-05
1.23463e-05
1.2264e-05
1.22066e-05
1.21222e-05
1.20408e-05
1.1948e-05
1.18344e-05
1.16967e-05
1.15349e-05
1.13592e-05
1.11692e-05
1.09657e-05
1.077e-05
1.061e-05
1.05094e-05
1.04975e-05
1.05816e-05
1.07376e-05
1.09362e-05
1.11504e-05
1.13589e-05
1.15472e-05
1.1708e-05
1.18395e-05
1.19438e-05
1.20251e-05
1.20881e-05
1.2138e-05
1.21945e-05
1.23626e-05
1.19568e-05
1.18608e-05
1.17625e-05
1.16997e-05
1.16433e-05
1.15691e-05
1.14749e-05
1.13577e-05
1.12245e-05
1.10803e-05
1.0921e-05
1.07533e-05
1.05957e-05
1.04634e-05
1.03731e-05
1.03576e-05
1.04267e-05
1.05575e-05
1.07218e-05
1.08952e-05
1.10612e-05
1.12114e-05
1.13424e-05
1.14533e-05
1.15451e-05
1.16195e-05
1.1679e-05
1.17259e-05
1.17718e-05
1.18914e-05
1.15665e-05
1.14222e-05
1.13767e-05
1.13575e-05
1.13194e-05
1.12573e-05
1.1175e-05
1.1077e-05
1.09708e-05
1.08522e-05
1.07176e-05
1.05785e-05
1.04492e-05
1.03372e-05
1.02592e-05
1.02479e-05
1.0308e-05
1.04135e-05
1.05411e-05
1.06739e-05
1.08038e-05
1.09288e-05
1.10462e-05
1.11504e-05
1.12375e-05
1.13066e-05
1.13595e-05
1.1397e-05
1.14255e-05
1.14997e-05
1.117e-05
1.10986e-05
1.11186e-05
1.11097e-05
1.10702e-05
1.10087e-05
1.09332e-05
1.0853e-05
1.07668e-05
1.06639e-05
1.05468e-05
1.043e-05
1.03222e-05
1.02283e-05
1.01636e-05
1.01577e-05
1.0212e-05
1.02979e-05
1.03977e-05
1.05031e-05
1.0612e-05
1.07227e-05
1.08284e-05
1.09209e-05
1.09958e-05
1.10527e-05
1.10918e-05
1.11137e-05
1.11248e-05
1.11647e-05
1.08977e-05