/*--------------------------------*- C++ -*----------------------------------*\
| =========                 |                                                 |
| \\      /  F ield         | OpenFOAM: The Open Source CFD Toolbox           |
|  \\    /   O peration     | Version:  2312                                  |
|   \\  /    A nd           | Website:  www.openfoam.com                      |
|    \\/     M anipulation  |                                                 |
\*---------------------------------------------------------------------------*/
FoamFile
{
    version     2.0;
    format      ascii;
    arch        "LSB;label=32;scalar=64";
    class       volScalarField;
    location    "1.01077";
    object      k;
}
// * * * * * * * * * * * * * * * * * * * * * * * * * * * * * * * * * * * * * //

dimensions      [0 2 -2 0 0 0 0];

internalField   nonuniform List<scalar> 
90000
(
2.4096e-05
2.40998e-05
2.41008e-05
2.41012e-05
2.41014e-05
2.41012e-05
2.41007e-05
2.41002e-05
2.40997e-05
2.40993e-05
2.40991e-05
2.4099e-05
2.4099e-05
2.40991e-05
2.40993e-05
2.40996e-05
2.41003e-05
2.41012e-05
2.41019e-05
2.41019e-05
2.41011e-05
2.40997e-05
2.40998e-05
2.41018e-05
2.41037e-05
2.41047e-05
2.41043e-05
2.41029e-05
2.41028e-05
2.41048e-05
2.41002e-05
2.4175e-05
2.41806e-05
2.41805e-05
2.418e-05
2.41796e-05
2.41793e-05
2.41792e-05
2.41789e-05
2.41786e-05
2.41784e-05
2.41786e-05
2.41789e-05
2.41792e-05
2.41795e-05
2.41797e-05
2.41799e-05
2.41799e-05
2.41796e-05
2.41792e-05
2.41794e-05
2.41799e-05
2.41802e-05
2.418e-05
2.41792e-05
2.4178e-05
2.41786e-05
2.41809e-05
2.41772e-05
2.41147e-05
2.41013e-05
2.41811e-05
2.41868e-05
2.41867e-05
2.41862e-05
2.41858e-05
2.41857e-05
2.41857e-05
2.41857e-05
2.41855e-05
2.41853e-05
2.41855e-05
2.4186e-05
2.41865e-05
2.41868e-05
2.41866e-05
2.41861e-05
2.41855e-05
2.4186e-05
2.4187e-05
2.41877e-05
2.4188e-05
2.41881e-05
2.41882e-05
2.41887e-05
2.41895e-05
2.419e-05
2.4191e-05
2.4189e-05
2.41122e-05
2.41015e-05
2.41811e-05
2.41873e-05
2.41874e-05
2.41872e-05
2.41869e-05
2.41866e-05
2.41865e-05
2.41865e-05
2.41864e-05
2.41862e-05
2.41863e-05
2.41866e-05
2.41869e-05
2.4187e-05
2.41866e-05
2.41864e-05
2.41871e-05
2.4188e-05
2.41886e-05
2.41887e-05
2.41887e-05
2.41895e-05
2.4191e-05
2.41924e-05
2.41933e-05
2.41937e-05
2.4193e-05
2.41887e-05
2.41067e-05
2.41011e-05
2.41807e-05
2.41874e-05
2.41879e-05
2.41879e-05
2.41877e-05
2.41873e-05
2.4187e-05
2.41868e-05
2.41867e-05
2.41867e-05
2.41866e-05
2.41865e-05
2.41862e-05
2.4186e-05
2.41866e-05
2.41874e-05
2.41881e-05
2.41884e-05
2.41882e-05
2.4188e-05
2.41886e-05
2.41901e-05
2.41917e-05
2.41927e-05
2.41928e-05
2.4192e-05
2.41903e-05
2.41852e-05
2.41049e-05
2.41006e-05
2.4181e-05
2.41876e-05
2.41882e-05
2.41885e-05
2.41884e-05
2.41882e-05
2.41878e-05
2.41873e-05
2.41869e-05
2.41869e-05
2.41871e-05
2.41874e-05
2.41876e-05
2.41875e-05
2.41875e-05
2.41876e-05
2.41876e-05
2.41874e-05
2.41872e-05
2.41876e-05
2.41885e-05
2.41894e-05
2.41901e-05
2.41902e-05
2.41901e-05
2.41906e-05
2.41925e-05
2.41882e-05
2.41059e-05
2.41008e-05
2.41821e-05
2.41883e-05
2.41887e-05
2.4189e-05
2.41893e-05
2.41893e-05
2.41891e-05
2.41883e-05
2.41874e-05
2.41871e-05
2.41875e-05
2.41882e-05
2.41886e-05
2.41884e-05
2.41876e-05
2.41866e-05
2.4186e-05
2.41862e-05
2.4187e-05
2.41878e-05
2.41883e-05
2.41881e-05
2.41875e-05
2.41879e-05
2.41902e-05
2.4193e-05
2.41952e-05
2.41901e-05
2.4106e-05
2.41015e-05
2.41838e-05
2.41893e-05
2.41896e-05
2.41898e-05
2.41903e-05
2.41906e-05
2.41905e-05
2.41899e-05
2.41889e-05
2.4188e-05
2.41879e-05
2.41883e-05
2.41886e-05
2.41882e-05
2.41873e-05
2.4186e-05
2.41852e-05
2.41861e-05
2.41872e-05
2.41878e-05
2.41878e-05
2.41871e-05
2.41872e-05
2.41891e-05
2.41916e-05
2.4194e-05
2.41951e-05
2.41887e-05
2.41053e-05
2.41023e-05
2.41854e-05
2.41905e-05
2.41905e-05
2.41905e-05
2.41909e-05
2.41913e-05
2.41915e-05
2.41912e-05
2.41906e-05
2.41896e-05
2.41887e-05
2.41879e-05
2.41876e-05
2.41875e-05
2.41876e-05
2.41876e-05
2.41878e-05
2.41881e-05
2.41885e-05
2.41885e-05
2.4188e-05
2.41876e-05
2.41885e-05
2.41903e-05
2.41922e-05
2.41936e-05
2.41937e-05
2.41868e-05
2.41046e-05
2.41042e-05
2.4186e-05
2.41907e-05
2.41905e-05
2.41903e-05
2.41903e-05
2.41906e-05
2.4191e-05
2.41914e-05
2.41915e-05
2.4191e-05
2.41897e-05
2.4188e-05
2.41867e-05
2.4187e-05
2.41884e-05
2.419e-05
2.41911e-05
2.41916e-05
2.41916e-05
2.4191e-05
2.419e-05
2.41891e-05
2.41892e-05
2.41903e-05
2.41915e-05
2.41922e-05
2.41918e-05
2.41853e-05
2.41046e-05
2.4106e-05
2.41856e-05
2.41901e-05
2.41898e-05
2.41893e-05
2.41887e-05
2.41886e-05
2.41892e-05
2.41902e-05
2.41911e-05
2.41912e-05
2.41904e-05
2.41889e-05
2.41873e-05
2.4187e-05
2.41889e-05
2.41913e-05
2.41932e-05
2.41944e-05
2.41945e-05
2.41935e-05
2.4192e-05
2.41904e-05
2.41894e-05
2.41897e-05
2.41905e-05
2.41912e-05
2.41911e-05
2.41852e-05
2.41054e-05
2.41063e-05
2.41856e-05
2.41905e-05
2.41905e-05
2.41902e-05
2.41898e-05
2.41894e-05
2.41893e-05
2.41895e-05
2.419e-05
2.41904e-05
2.41903e-05
2.41897e-05
2.41884e-05
2.4187e-05
2.41886e-05
2.41915e-05
2.41939e-05
2.41951e-05
2.4195e-05
2.41938e-05
2.41922e-05
2.41905e-05
2.41894e-05
2.41895e-05
2.41904e-05
2.41912e-05
2.41915e-05
2.41861e-05
2.41062e-05
2.41061e-05
2.41866e-05
2.4192e-05
2.41926e-05
2.41935e-05
2.41943e-05
2.41946e-05
2.41942e-05
2.41929e-05
2.4191e-05
2.419e-05
2.41904e-05
2.41908e-05
2.41907e-05
2.41903e-05
2.41906e-05
2.41916e-05
2.41923e-05
2.41924e-05
2.4192e-05
2.41914e-05
2.41908e-05
2.41902e-05
2.41898e-05
2.419e-05
2.41906e-05
2.41913e-05
2.41918e-05
2.41864e-05
2.41065e-05
2.41094e-05
2.41871e-05
2.41937e-05
2.41955e-05
2.41974e-05
2.41989e-05
2.41994e-05
2.41983e-05
2.41958e-05
2.41926e-05
2.41899e-05
2.419e-05
2.41914e-05
2.41927e-05
2.41933e-05
2.41933e-05
2.41923e-05
2.41903e-05
2.41883e-05
2.41879e-05
2.4189e-05
2.419e-05
2.41907e-05
2.41908e-05
2.41908e-05
2.4191e-05
2.41916e-05
2.4192e-05
2.41862e-05
2.41071e-05
2.41139e-05
2.41869e-05
2.41962e-05
2.41987e-05
2.42006e-05
2.42014e-05
2.42007e-05
2.41986e-05
2.41955e-05
2.41923e-05
2.41895e-05
2.41892e-05
2.41912e-05
2.41934e-05
2.41946e-05
2.41944e-05
2.41929e-05
2.41904e-05
2.41881e-05
2.41877e-05
2.41891e-05
2.41908e-05
2.4192e-05
2.41923e-05
2.4192e-05
2.41922e-05
2.41928e-05
2.41931e-05
2.41876e-05
2.41094e-05
2.41162e-05
2.41924e-05
2.42e-05
2.42013e-05
2.42015e-05
2.42003e-05
2.41982e-05
2.41958e-05
2.41938e-05
2.4192e-05
2.419e-05
2.41892e-05
2.4191e-05
2.41933e-05
2.41945e-05
2.41945e-05
2.41934e-05
2.41919e-05
2.41905e-05
2.419e-05
2.41907e-05
2.41921e-05
2.41934e-05
2.41939e-05
2.41939e-05
2.41944e-05
2.41953e-05
2.41964e-05
2.41922e-05
2.41127e-05
2.41159e-05
2.41993e-05
2.42035e-05
2.42027e-05
2.42005e-05
2.41978e-05
2.41954e-05
2.41943e-05
2.41941e-05
2.41933e-05
2.41917e-05
2.41906e-05
2.41916e-05
2.4193e-05
2.41938e-05
2.41939e-05
2.41937e-05
2.41931e-05
2.41924e-05
2.41921e-05
2.41926e-05
2.41934e-05
2.41944e-05
2.41952e-05
2.4196e-05
2.41973e-05
2.41987e-05
2.42001e-05
2.41952e-05
2.41142e-05
2.41161e-05
2.42037e-05
2.42062e-05
2.42043e-05
2.42019e-05
2.41993e-05
2.41974e-05
2.41964e-05
2.41958e-05
2.41947e-05
2.41933e-05
2.41921e-05
2.4192e-05
2.41922e-05
2.41923e-05
2.41927e-05
2.41932e-05
2.41937e-05
2.41938e-05
2.4194e-05
2.41945e-05
2.4195e-05
2.41958e-05
2.41969e-05
2.41986e-05
2.42004e-05
2.42018e-05
2.42024e-05
2.41958e-05
2.41149e-05
2.41199e-05
2.42058e-05
2.4209e-05
2.42074e-05
2.42053e-05
2.42034e-05
2.42018e-05
2.42001e-05
2.4198e-05
2.41959e-05
2.41942e-05
2.41926e-05
2.41914e-05
2.41905e-05
2.41902e-05
2.41908e-05
2.41921e-05
2.41935e-05
2.41946e-05
2.41953e-05
2.41958e-05
2.41966e-05
2.41977e-05
2.41999e-05
2.42025e-05
2.42041e-05
2.42046e-05
2.4204e-05
2.4197e-05
2.41173e-05
2.41247e-05
2.42072e-05
2.42116e-05
2.42104e-05
2.42088e-05
2.42073e-05
2.42058e-05
2.42038e-05
2.42013e-05
2.41986e-05
2.4196e-05
2.41935e-05
2.41913e-05
2.41895e-05
2.41886e-05
2.41894e-05
2.41915e-05
2.41936e-05
2.41953e-05
2.41965e-05
2.41976e-05
2.41993e-05
2.42022e-05
2.42051e-05
2.4207e-05
2.42076e-05
2.42075e-05
2.42071e-05
2.42011e-05
2.4122e-05
2.41297e-05
2.42092e-05
2.42143e-05
2.42135e-05
2.42125e-05
2.42114e-05
2.42099e-05
2.42077e-05
2.4205e-05
2.42018e-05
2.41985e-05
2.41953e-05
2.41924e-05
2.41903e-05
2.41895e-05
2.41905e-05
2.41928e-05
2.4195e-05
2.41971e-05
2.41992e-05
2.42017e-05
2.42048e-05
2.42079e-05
2.42098e-05
2.42103e-05
2.42105e-05
2.42109e-05
2.42113e-05
2.42059e-05
2.41273e-05
2.41348e-05
2.42124e-05
2.42183e-05
2.4218e-05
2.42172e-05
2.42161e-05
2.42142e-05
2.42116e-05
2.42085e-05
2.42049e-05
2.42011e-05
2.41977e-05
2.41949e-05
2.4193e-05
2.4192e-05
2.41925e-05
2.41944e-05
2.41969e-05
2.42e-05
2.42035e-05
2.42072e-05
2.42104e-05
2.42125e-05
2.42131e-05
2.42137e-05
2.42147e-05
2.42159e-05
2.42165e-05
2.42112e-05
2.4133e-05
2.41409e-05
2.42181e-05
2.42244e-05
2.42242e-05
2.42232e-05
2.42214e-05
2.42188e-05
2.42155e-05
2.4212e-05
2.42083e-05
2.42047e-05
2.42013e-05
2.4198e-05
2.41949e-05
2.41928e-05
2.4193e-05
2.41954e-05
2.41991e-05
2.42036e-05
2.42082e-05
2.42122e-05
2.42148e-05
2.42162e-05
2.42174e-05
2.42191e-05
2.42211e-05
2.42226e-05
2.42232e-05
2.4218e-05
2.41401e-05
2.41492e-05
2.42265e-05
2.42328e-05
2.42323e-05
2.42305e-05
2.42277e-05
2.42244e-05
2.42208e-05
2.4217e-05
2.42132e-05
2.42092e-05
2.42049e-05
2.42005e-05
2.41963e-05
2.41933e-05
2.41937e-05
2.41971e-05
2.42022e-05
2.42077e-05
2.42126e-05
2.42163e-05
2.42189e-05
2.42213e-05
2.42241e-05
2.42272e-05
2.42299e-05
2.42314e-05
2.42322e-05
2.42271e-05
2.41497e-05
2.416e-05
2.42379e-05
2.42435e-05
2.42422e-05
2.42395e-05
2.42361e-05
2.42324e-05
2.42284e-05
2.42241e-05
2.42195e-05
2.42145e-05
2.42092e-05
2.42036e-05
2.41985e-05
2.41954e-05
2.41959e-05
2.41999e-05
2.42058e-05
2.42115e-05
2.42164e-05
2.42207e-05
2.42248e-05
2.42289e-05
2.42331e-05
2.4237e-05
2.42399e-05
2.4242e-05
2.42437e-05
2.42393e-05
2.41622e-05
2.41744e-05
2.42523e-05
2.42569e-05
2.42546e-05
2.42513e-05
2.42475e-05
2.42433e-05
2.42385e-05
2.42333e-05
2.42277e-05
2.42215e-05
2.42149e-05
2.42084e-05
2.42029e-05
2.41991e-05
2.41991e-05
2.42033e-05
2.42094e-05
2.42156e-05
2.42217e-05
2.42278e-05
2.42334e-05
2.42385e-05
2.42436e-05
2.42476e-05
2.4251e-05
2.42543e-05
2.42574e-05
2.42543e-05
2.41753e-05
2.41928e-05
2.42692e-05
2.4273e-05
2.42702e-05
2.42664e-05
2.4262e-05
2.42569e-05
2.42511e-05
2.42448e-05
2.42378e-05
2.42302e-05
2.42225e-05
2.42153e-05
2.42091e-05
2.42039e-05
2.42032e-05
2.42076e-05
2.42145e-05
2.42223e-05
2.42303e-05
2.42377e-05
2.42443e-05
2.42504e-05
2.42559e-05
2.42605e-05
2.42652e-05
2.427e-05
2.42736e-05
2.42691e-05
2.41909e-05
2.42143e-05
2.4289e-05
2.42926e-05
2.42893e-05
2.42848e-05
2.42795e-05
2.42732e-05
2.42662e-05
2.42585e-05
2.42501e-05
2.42413e-05
2.42327e-05
2.42246e-05
2.42164e-05
2.42095e-05
2.42085e-05
2.42139e-05
2.42225e-05
2.42321e-05
2.42416e-05
2.42506e-05
2.42587e-05
2.42655e-05
2.4272e-05
2.42781e-05
2.42843e-05
2.42898e-05
2.42918e-05
2.42871e-05
2.42113e-05
2.42391e-05
2.43124e-05
2.43156e-05
2.43116e-05
2.43064e-05
2.43002e-05
2.42929e-05
2.42846e-05
2.42756e-05
2.42658e-05
2.42556e-05
2.42456e-05
2.42352e-05
2.42248e-05
2.42166e-05
2.42159e-05
2.42229e-05
2.42334e-05
2.4245e-05
2.42564e-05
2.42668e-05
2.42765e-05
2.42848e-05
2.42931e-05
2.43009e-05
2.4308e-05
2.43131e-05
2.43145e-05
2.43108e-05
2.42373e-05
2.42681e-05
2.43402e-05
2.43431e-05
2.43387e-05
2.43328e-05
2.43256e-05
2.43172e-05
2.43076e-05
2.42969e-05
2.42852e-05
2.4273e-05
2.42606e-05
2.42475e-05
2.42349e-05
2.42258e-05
2.42256e-05
2.42343e-05
2.42467e-05
2.42604e-05
2.42736e-05
2.42856e-05
2.42976e-05
2.43086e-05
2.43189e-05
2.43278e-05
2.43352e-05
2.43405e-05
2.43435e-05
2.43416e-05
2.42684e-05
2.43032e-05
2.43744e-05
2.4377e-05
2.4372e-05
2.43652e-05
2.43568e-05
2.43469e-05
2.43356e-05
2.43228e-05
2.43088e-05
2.4294e-05
2.42785e-05
2.42627e-05
2.42482e-05
2.4238e-05
2.42383e-05
2.42486e-05
2.4263e-05
2.42787e-05
2.42944e-05
2.4309e-05
2.43239e-05
2.43375e-05
2.4349e-05
2.43589e-05
2.43668e-05
2.43736e-05
2.43797e-05
2.43781e-05
2.43051e-05
2.43461e-05
2.44168e-05
2.44188e-05
2.44129e-05
2.44048e-05
2.43948e-05
2.43831e-05
2.43697e-05
2.43546e-05
2.4338e-05
2.43201e-05
2.43014e-05
2.42826e-05
2.42657e-05
2.42542e-05
2.42545e-05
2.42666e-05
2.42833e-05
2.43014e-05
2.43203e-05
2.43382e-05
2.43559e-05
2.43711e-05
2.43843e-05
2.43956e-05
2.44052e-05
2.44144e-05
2.44226e-05
2.44208e-05
2.43493e-05
2.43987e-05
2.44686e-05
2.44697e-05
2.44627e-05
2.4453e-05
2.44411e-05
2.44272e-05
2.44115e-05
2.43938e-05
2.43741e-05
2.43526e-05
2.43301e-05
2.4308e-05
2.42886e-05
2.42754e-05
2.42757e-05
2.42895e-05
2.43086e-05
2.43295e-05
2.43521e-05
2.43732e-05
2.43932e-05
2.44106e-05
2.44266e-05
2.44405e-05
2.44525e-05
2.4464e-05
2.44729e-05
2.44716e-05
2.44023e-05
2.44628e-05
2.45314e-05
2.45314e-05
2.45231e-05
2.45115e-05
2.44972e-05
2.44807e-05
2.4462e-05
2.4441e-05
2.44176e-05
2.43923e-05
2.43661e-05
2.43407e-05
2.43186e-05
2.43036e-05
2.43035e-05
2.43186e-05
2.43407e-05
2.43649e-05
2.43911e-05
2.44154e-05
2.44387e-05
2.44593e-05
2.44787e-05
2.44955e-05
2.45104e-05
2.45235e-05
2.45328e-05
2.45326e-05
2.44652e-05
2.45401e-05
2.46069e-05
2.46057e-05
2.45954e-05
2.45813e-05
2.45643e-05
2.45447e-05
2.45225e-05
2.44978e-05
2.44705e-05
2.44414e-05
2.44115e-05
2.43824e-05
2.4357e-05
2.43398e-05
2.43395e-05
2.43565e-05
2.43822e-05
2.44103e-05
2.44403e-05
2.44682e-05
2.44958e-05
2.45204e-05
2.45429e-05
2.4563e-05
2.45808e-05
2.45951e-05
2.46051e-05
2.46058e-05
2.45406e-05
2.46328e-05
2.46966e-05
2.46937e-05
2.46813e-05
2.4665e-05
2.46454e-05
2.46227e-05
2.45968e-05
2.45681e-05
2.45368e-05
2.45033e-05
2.44691e-05
2.44356e-05
2.44062e-05
2.43867e-05
2.43869e-05
2.4407e-05
2.44364e-05
2.44686e-05
2.4503e-05
2.45353e-05
2.45678e-05
2.45962e-05
2.4622e-05
2.46456e-05
2.4666e-05
2.46812e-05
2.46922e-05
2.46939e-05
2.46323e-05
2.47436e-05
2.48034e-05
2.4799e-05
2.47854e-05
2.47674e-05
2.47454e-05
2.47194e-05
2.46895e-05
2.46565e-05
2.46207e-05
2.45823e-05
2.45433e-05
2.45052e-05
2.44719e-05
2.44499e-05
2.44501e-05
2.44732e-05
2.45064e-05
2.45429e-05
2.4583e-05
2.46204e-05
2.46571e-05
2.46893e-05
2.4719e-05
2.4746e-05
2.47683e-05
2.47852e-05
2.4798e-05
2.48022e-05
2.47439e-05
2.48764e-05
2.49326e-05
2.49279e-05
2.49131e-05
2.48927e-05
2.48673e-05
2.48373e-05
2.48034e-05
2.47661e-05
2.47257e-05
2.46823e-05
2.46384e-05
2.45958e-05
2.45586e-05
2.45336e-05
2.45327e-05
2.45581e-05
2.4596e-05
2.46376e-05
2.46835e-05
2.47259e-05
2.47661e-05
2.48026e-05
2.48371e-05
2.48672e-05
2.48916e-05
2.4912e-05
2.49279e-05
2.49343e-05
2.48788e-05
2.50361e-05
2.50899e-05
2.50837e-05
2.50662e-05
2.50423e-05
2.50131e-05
2.49794e-05
2.49416e-05
2.48999e-05
2.48547e-05
2.48062e-05
2.47575e-05
2.471e-05
2.46682e-05
2.46405e-05
2.4639e-05
2.46672e-05
2.47101e-05
2.47572e-05
2.48077e-05
2.48544e-05
2.48988e-05
2.49405e-05
2.49794e-05
2.50131e-05
2.50403e-05
2.50647e-05
2.50838e-05
2.50904e-05
2.50378e-05
2.5228e-05
2.52777e-05
2.52683e-05
2.52478e-05
2.52214e-05
2.51896e-05
2.51526e-05
2.51107e-05
2.5064e-05
2.50142e-05
2.49609e-05
2.49075e-05
2.48553e-05
2.48083e-05
2.4778e-05
2.4777e-05
2.48084e-05
2.48555e-05
2.49076e-05
2.49618e-05
2.50132e-05
2.50629e-05
2.511e-05
2.51522e-05
2.51899e-05
2.52207e-05
2.52479e-05
2.52689e-05
2.52762e-05
2.52265e-05
2.54562e-05
2.55004e-05
2.54893e-05
2.54681e-05
2.54402e-05
2.54055e-05
2.53644e-05
2.53191e-05
2.52687e-05
2.52153e-05
2.51577e-05
2.50995e-05
2.50435e-05
2.49914e-05
2.49574e-05
2.49568e-05
2.4991e-05
2.50425e-05
2.50989e-05
2.51569e-05
2.52137e-05
2.5268e-05
2.53188e-05
2.53638e-05
2.5405e-05
2.54405e-05
2.54686e-05
2.54899e-05
2.55005e-05
2.54539e-05
2.5729e-05
2.57708e-05
2.57589e-05
2.57358e-05
2.57048e-05
2.5667e-05
2.56229e-05
2.55755e-05
2.5522e-05
2.54653e-05
2.54048e-05
2.53426e-05
2.52841e-05
2.52277e-05
2.51892e-05
2.5191e-05
2.52282e-05
2.52821e-05
2.53426e-05
2.54043e-05
2.54648e-05
2.55213e-05
2.55741e-05
2.56236e-05
2.56666e-05
2.57051e-05
2.57349e-05
2.57571e-05
2.57718e-05
2.57293e-05
2.60602e-05
2.61006e-05
2.60844e-05
2.6058e-05
2.60247e-05
2.59854e-05
2.59385e-05
2.58891e-05
2.58343e-05
2.57758e-05
2.57171e-05
2.56521e-05
2.55898e-05
2.55338e-05
2.54928e-05
2.54945e-05
2.55346e-05
2.55903e-05
2.5652e-05
2.5716e-05
2.57772e-05
2.58348e-05
2.58889e-05
2.59416e-05
2.59852e-05
2.60238e-05
2.60578e-05
2.60853e-05
2.61018e-05
2.60584e-05
2.64649e-05
2.65045e-05
2.64831e-05
2.64544e-05
2.64177e-05
2.63771e-05
2.633e-05
2.62804e-05
2.6228e-05
2.6171e-05
2.61153e-05
2.60534e-05
2.59925e-05
2.59419e-05
2.59035e-05
2.59023e-05
2.594e-05
2.59959e-05
2.60544e-05
2.61135e-05
2.61719e-05
2.62281e-05
2.62811e-05
2.633e-05
2.63759e-05
2.64182e-05
2.64556e-05
2.64846e-05
2.65042e-05
2.64605e-05
2.69683e-05
2.70198e-05
2.69905e-05
2.69572e-05
2.6918e-05
2.68765e-05
2.68282e-05
2.67815e-05
2.67426e-05
2.66983e-05
2.66641e-05
2.6643e-05
2.66299e-05
2.66246e-05
2.66313e-05
2.66355e-05
2.66273e-05
2.66284e-05
2.66413e-05
2.66681e-05
2.67005e-05
2.67409e-05
2.67848e-05
2.68264e-05
2.68726e-05
2.69214e-05
2.69593e-05
2.69874e-05
2.7017e-05
2.6968e-05
2.76644e-05
2.77735e-05
2.77347e-05
2.77225e-05
2.76861e-05
2.76225e-05
2.75839e-05
2.75809e-05
2.76086e-05
2.76725e-05
2.78877e-05
2.82145e-05
2.86811e-05
2.92332e-05
2.97562e-05
2.97646e-05
2.92376e-05
2.86826e-05
2.82191e-05
2.789e-05
2.76752e-05
2.76109e-05
2.75803e-05
2.75842e-05
2.76237e-05
2.76838e-05
2.77219e-05
2.77385e-05
2.77737e-05
2.76616e-05
2.9051e-05
2.93971e-05
2.95156e-05
2.98146e-05
2.96937e-05
2.95187e-05
2.97271e-05
2.99952e-05
3.0521e-05
3.15401e-05
3.38291e-05
3.71105e-05
4.13439e-05
4.59577e-05
5.02036e-05
5.02408e-05
4.59841e-05
4.1349e-05
3.71577e-05
3.3857e-05
3.15544e-05
3.05335e-05
3.00013e-05
2.97321e-05
2.9525e-05
2.96842e-05
2.98128e-05
2.95249e-05
2.93991e-05
2.90504e-05
3.35987e-05
3.43199e-05
3.6338e-05
4.03997e-05
3.80514e-05
3.75204e-05
4.31987e-05
4.36313e-05
4.63802e-05
5.52834e-05
6.91187e-05
8.68815e-05
0.000109559
0.000131403
0.000149816
0.000149896
0.000131462
0.000109594
8.72397e-05
6.92786e-05
5.5425e-05
4.64732e-05
4.36726e-05
4.32935e-05
3.75726e-05
3.80127e-05
4.03922e-05
3.63764e-05
3.43197e-05
3.35777e-05
4.96287e-05
5.3355e-05
6.32864e-05
8.66026e-05
7.45931e-05
7.67228e-05
0.000134544
0.000127301
0.000138842
0.000221488
0.000251128
0.000293682
0.00038287
0.000439207
0.000475691
0.000474522
0.000438184
0.000381721
0.000296382
0.000251846
0.000222277
0.000139355
0.000127638
0.000135326
7.70625e-05
7.45592e-05
8.6657e-05
6.3448e-05
5.32524e-05
4.95095e-05
0.000102189
0.000151294
0.000146715
0.000240353
0.000283396
0.000281532
0.000423645
0.000475237
0.000445167
0.000715172
0.000827387
0.00081592
0.000991646
0.00102288
0.00108917
0.0010857
0.00102674
0.000988927
0.000825215
0.000815323
0.000713643
0.00044497
0.000478733
0.000426012
0.000283013
0.00028596
0.000241442
0.000146854
0.000150498
0.000102066
0.000223802
0.000404203
0.000369614
0.000577219
0.000839582
0.000886491
0.00110522
0.00145591
0.00136312
0.00172744
0.00199053
0.00176829
0.00198238
0.00217441
0.00208281
0.0020631
0.00215827
0.00197669
0.00174644
0.00194538
0.00172082
0.00136324
0.00146833
0.00111502
0.000902507
0.000852073
0.000581511
0.0003666
0.000401889
0.000227075
0.00037531
0.000482461
0.000512153
0.000867645
0.00108881
0.0012759
0.00155103
0.00188565
0.00194021
0.00233345
0.00252701
0.00251124
0.00244776
0.00248737
0.00233033
0.00231556
0.00245111
0.00243623
0.00223344
0.00243751
0.00231403
0.0019463
0.00190248
0.00157754
0.00132547
0.00111004
0.000874623
0.000513209
0.00048087
0.000375984
0.000404069
0.00049652
0.000544039
0.000816779
0.00103099
0.00104269
0.00135209
0.00167554
0.00152714
0.00204998
0.002161
0.00191098
0.00192655
0.00210475
0.00199215
0.00200678
0.00213548
0.00197165
0.00186076
0.00212351
0.00206642
0.00154168
0.00169097
0.00136372
0.00105583
0.00104122
0.000822764
0.000557593
0.000499313
0.000404571
0.000367514
0.00040381
0.000436672
0.000693898
0.000780776
0.000819801
0.00101283
0.00115785
0.00123341
0.00159209
0.00153401
0.00144827
0.00151054
0.00157845
0.00173052
0.00175134
0.00163552
0.00155207
0.00151047
0.00154878
0.00161868
0.00122245
0.00115555
0.00102067
0.000826774
0.000791025
0.000698861
0.000440542
0.000407809
0.000365111
0.000304479
0.000328327
0.00038065
0.000553265
0.000604044
0.000631498
0.000764233
0.000827353
0.000909893
0.00113373
0.00114721
0.00109987
0.00116755
0.00125435
0.00131399
0.00131919
0.00127636
0.0011784
0.00111008
0.00113363
0.00114658
0.000916082
0.00083173
0.000767174
0.000635777
0.000610773
0.000556202
0.000381079
0.000332456
0.000303801
0.000234947
0.000254613
0.000289846
0.000374154
0.000395276
0.000405226
0.000530863
0.000612564
0.000697719
0.00083659
0.000900731
0.000903973
0.000923315
0.000964658
0.000976399
0.000977912
0.00097588
0.000925788
0.000898245
0.000893294
0.000839318
0.000699385
0.000615096
0.000533107
0.000406449
0.000399057
0.000376815
0.000290121
0.000257569
0.000236512
0.000184081
0.000193707
0.00020713
0.000234453
0.000240462
0.000240264
0.000288645
0.000359769
0.000464514
0.000613951
0.000737359
0.000819346
0.000870182
0.000896897
0.000898591
0.00089863
0.000902482
0.000871139
0.000818003
0.000736872
0.000614903
0.000464688
0.000362119
0.000291764
0.000241782
0.000243383
0.000236288
0.000207465
0.000194982
0.000184801
0.000148582
0.000151759
0.000153982
0.00015956
0.000161426
0.000163108
0.000175554
0.000202328
0.000253017
0.000352091
0.000499938
0.000658139
0.000778378
0.000850268
0.000880327
0.000880615
0.000853254
0.00077971
0.000657617
0.00049957
0.000353597
0.000253597
0.000203174
0.000176641
0.000164196
0.000162812
0.000161037
0.000155114
0.00015245
0.00014928
0.000124544
0.000124581
0.000124122
0.000124608
0.000125036
0.000126526
0.000130892
0.000138721
0.00015425
0.000190014
0.000266094
0.000394121
0.00055301
0.000686673
0.000761995
0.000762112
0.000688182
0.000554336
0.000393842
0.000265795
0.000190643
0.000154664
0.000139223
0.000131028
0.000126771
0.000125635
0.000125228
0.000124308
0.000124967
0.000125031
0.000107676
0.000106962
0.00010631
0.000106433
0.000106817
0.00010784
0.00010971
0.000113013
0.000117981
0.000127519
0.000149275
0.000198623
0.000283834
0.000397332
0.000494083
0.000493658
0.000397604
0.000284632
0.000198652
0.000149412
0.000128027
0.000118247
0.000113144
0.000109936
0.000107904
0.000106937
0.000106507
0.000106742
0.000107289
0.000107887
9.5392e-05
9.44245e-05
9.37639e-05
9.41598e-05
9.44626e-05
9.54915e-05
9.73249e-05
9.9211e-05
0.000101448
0.000104437
0.000109522
0.000120803
0.000143923
0.000180974
0.000222141
0.000222109
0.000181025
0.000144282
0.000120876
0.000109868
0.000104666
0.000101623
9.94071e-05
9.75596e-05
9.5898e-05
9.50256e-05
9.40767e-05
9.40326e-05
9.44933e-05
9.53725e-05
8.59846e-05
8.42115e-05
8.39854e-05
8.4373e-05
8.52642e-05
8.63952e-05
8.80145e-05
8.92494e-05
9.06166e-05
9.19578e-05
9.34718e-05
9.56699e-05
9.96546e-05
0.000106392
0.000114949
0.000115158
0.000106708
9.98003e-05
9.54972e-05
9.35848e-05
9.21098e-05
9.06923e-05
8.93465e-05
8.79614e-05
8.65768e-05
8.54157e-05
8.45164e-05
8.4078e-05
8.45667e-05
8.6446e-05
7.9186e-05
7.61402e-05
7.61629e-05
7.67262e-05
7.74657e-05
7.84728e-05
7.95957e-05
8.03133e-05
8.11938e-05
8.18979e-05
8.23508e-05
8.26213e-05
8.29972e-05
8.37622e-05
8.482e-05
8.47625e-05
8.38595e-05
8.31297e-05
8.27208e-05
8.24598e-05
8.19608e-05
8.138e-05
8.06799e-05
7.95575e-05
7.83507e-05
7.72786e-05
7.66858e-05
7.62112e-05
7.6646e-05
7.94847e-05
7.30071e-05
6.97653e-05
6.96007e-05
7.00342e-05
7.06547e-05
7.13711e-05
7.19293e-05
7.24288e-05
7.29066e-05
7.30614e-05
7.29442e-05
7.27707e-05
7.25269e-05
7.22089e-05
7.19936e-05
7.1921e-05
7.22569e-05
7.25872e-05
7.29117e-05
7.3147e-05
7.3203e-05
7.31056e-05
7.26915e-05
7.19936e-05
7.12465e-05
7.05879e-05
7.01478e-05
6.9689e-05
7.00785e-05
7.33136e-05
6.74716e-05
6.425e-05
6.39111e-05
6.4241e-05
6.47111e-05
6.5158e-05
6.54267e-05
6.56444e-05
6.5611e-05
6.5337e-05
6.49908e-05
6.46021e-05
6.40498e-05
6.34268e-05
6.2998e-05
6.30371e-05
6.35483e-05
6.40754e-05
6.4565e-05
6.50354e-05
6.54436e-05
6.57395e-05
6.56833e-05
6.54223e-05
6.50961e-05
6.47598e-05
6.44257e-05
6.40533e-05
6.44154e-05
6.76285e-05
6.22942e-05
5.91956e-05
5.88975e-05
5.91223e-05
5.93899e-05
5.95635e-05
5.96145e-05
5.94736e-05
5.9134e-05
5.86963e-05
5.81558e-05
5.75138e-05
5.6754e-05
5.60791e-05
5.56772e-05
5.5753e-05
5.61962e-05
5.67721e-05
5.7468e-05
5.8209e-05
5.88685e-05
5.93343e-05
5.95345e-05
5.95838e-05
5.95446e-05
5.94154e-05
5.91647e-05
5.89446e-05
5.93367e-05
6.22898e-05
5.73486e-05
5.47658e-05
5.44073e-05
5.44678e-05
5.4502e-05
5.45035e-05
5.4354e-05
5.39686e-05
5.34773e-05
5.28824e-05
5.2185e-05
5.14247e-05
5.06438e-05
4.99888e-05
4.95842e-05
4.96156e-05
5.00236e-05
5.06567e-05
5.14622e-05
5.23174e-05
5.30999e-05
5.37137e-05
5.41179e-05
5.43676e-05
5.4479e-05
5.44761e-05
5.43759e-05
5.43279e-05
5.47641e-05
5.74335e-05
5.30763e-05
5.06716e-05
5.02929e-05
5.02819e-05
5.0247e-05
5.01333e-05
4.97553e-05
4.92436e-05
4.86933e-05
4.80186e-05
4.72282e-05
4.63968e-05
4.55899e-05
4.49191e-05
4.44893e-05
4.44813e-05
4.48847e-05
4.55686e-05
4.64368e-05
4.73411e-05
4.81841e-05
4.88847e-05
4.93988e-05
4.97529e-05
4.99951e-05
5.01294e-05
5.01781e-05
5.0244e-05
5.06768e-05
5.30671e-05
4.9011e-05
4.68903e-05
4.66456e-05
4.65768e-05
4.64458e-05
4.61673e-05
4.57195e-05
4.52624e-05
4.47217e-05
4.40049e-05
4.31642e-05
4.22867e-05
4.14622e-05
4.07878e-05
4.03604e-05
4.03418e-05
4.07361e-05
4.14148e-05
4.22639e-05
4.31439e-05
4.39799e-05
4.47209e-05
4.53225e-05
4.57722e-05
4.61035e-05
4.63369e-05
4.64885e-05
4.66139e-05
4.70171e-05
4.91157e-05
4.53857e-05
4.37461e-05
4.34478e-05
4.32563e-05
4.30039e-05
4.26549e-05
4.22649e-05
4.183e-05
4.12474e-05
4.05048e-05
3.96675e-05
3.8803e-05
3.79915e-05
3.73128e-05
3.68758e-05
3.68384e-05
3.72187e-05
3.78916e-05
3.87315e-05
3.96124e-05
4.04586e-05
4.12174e-05
4.18453e-05
4.23312e-05
4.27158e-05
4.30164e-05
4.3235e-05
4.33988e-05
4.37736e-05
4.55759e-05
4.23957e-05
4.09961e-05
4.058e-05
4.03108e-05
4.00383e-05
3.97338e-05
3.93665e-05
3.88835e-05
3.82766e-05
3.75595e-05
3.67715e-05
3.59488e-05
3.51631e-05
3.45022e-05
3.40836e-05
3.40609e-05
3.4444e-05
3.51057e-05
3.59166e-05
3.6756e-05
3.75522e-05
3.82748e-05
3.88987e-05
3.94102e-05
3.98207e-05
4.01417e-05
4.03819e-05
4.05659e-05
4.09077e-05
4.24272e-05
3.96906e-05
3.841e-05
3.8023e-05
3.78088e-05
3.76103e-05
3.7334e-05
3.69221e-05
3.64161e-05
3.58405e-05
3.51682e-05
3.44215e-05
3.36388e-05
3.28995e-05
3.22923e-05
3.19193e-05
3.19124e-05
3.22735e-05
3.28851e-05
3.36311e-05
3.44077e-05
3.51508e-05
3.58349e-05
3.64369e-05
3.69432e-05
3.73483e-05
3.76654e-05
3.79066e-05
3.80878e-05
3.83835e-05
3.9652e-05
3.72901e-05
3.6155e-05
3.58829e-05
3.57556e-05
3.55657e-05
3.52535e-05
3.48408e-05
3.4387e-05
3.38575e-05
3.32222e-05
3.25095e-05
3.17748e-05
3.10964e-05
3.05478e-05
3.02128e-05
3.02121e-05
3.05476e-05
3.11061e-05
3.17814e-05
3.24866e-05
3.31727e-05
3.38135e-05
3.43849e-05
3.4869e-05
3.5256e-05
3.55535e-05
3.57743e-05
3.59368e-05
3.6186e-05
3.72405e-05
3.51446e-05
3.42245e-05
3.40496e-05
3.39268e-05
3.37163e-05
3.34246e-05
3.30898e-05
3.26941e-05
3.21937e-05
3.16012e-05
3.09516e-05
3.02995e-05
2.97019e-05
2.92087e-05
2.88962e-05
2.88876e-05
2.91894e-05
2.96917e-05
3.02972e-05
3.09323e-05
3.15588e-05
3.21489e-05
3.26769e-05
3.31192e-05
3.34694e-05
3.37358e-05
3.39332e-05
3.40807e-05
3.42937e-05
3.51593e-05
3.32855e-05
3.26136e-05
3.24502e-05
3.23031e-05
3.21302e-05
3.19138e-05
3.16382e-05
3.12591e-05
3.07884e-05
3.02565e-05
2.96913e-05
2.91307e-05
2.86007e-05
2.81402e-05
2.78404e-05
2.78292e-05
2.8111e-05
2.85724e-05
2.91153e-05
2.96769e-05
3.02288e-05
3.07479e-05
3.12135e-05
3.16066e-05
3.19217e-05
3.21651e-05
3.23471e-05
3.24832e-05
3.26656e-05
3.33664e-05
3.18257e-05
3.12759e-05
3.10887e-05
3.0978e-05
3.08511e-05
3.0667e-05
3.03977e-05
3.00352e-05
2.96179e-05
2.91612e-05
2.86848e-05
2.8203e-05
2.77234e-05
2.72926e-05
2.7019e-05
2.70184e-05
2.7279e-05
2.76894e-05
2.81602e-05
2.86435e-05
2.91177e-05
2.95685e-05
2.99747e-05
3.03227e-05
3.06083e-05
3.08317e-05
3.09978e-05
3.11201e-05
3.12741e-05
3.18355e-05
3.05704e-05
3.00742e-05
2.99567e-05
2.98904e-05
2.97587e-05
2.95709e-05
2.93133e-05
2.90021e-05
2.86546e-05
2.82748e-05
2.78759e-05
2.74551e-05
2.70229e-05
2.66404e-05
2.64068e-05
2.64083e-05
2.66284e-05
2.69746e-05
2.73782e-05
2.78027e-05
2.82228e-05
2.86187e-05
2.8974e-05
2.92794e-05
2.95306e-05
2.97257e-05
2.98681e-05
2.99716e-05
3.00978e-05
3.05407e-05
2.94156e-05
2.90913e-05
2.90548e-05
2.89628e-05
2.88178e-05
2.86439e-05
2.84266e-05
2.81731e-05
2.78793e-05
2.75558e-05
2.72094e-05
2.68347e-05
2.64562e-05
2.61367e-05
2.59438e-05
2.5935e-05
2.61081e-05
2.6401e-05
2.67593e-05
2.71447e-05
2.75255e-05
2.78761e-05
2.81832e-05
2.84405e-05
2.86466e-05
2.88038e-05
2.89185e-05
2.9004e-05
2.91076e-05
2.94537e-05
2.85424e-05
2.84026e-05
2.8313e-05
2.81825e-05
2.80559e-05
2.79111e-05
2.77336e-05
2.75175e-05
2.72628e-05
2.6985e-05
2.6683e-05
2.63577e-05
2.60422e-05
2.57822e-05
2.56173e-05
2.55961e-05
2.57311e-05
2.59825e-05
2.63013e-05
2.66432e-05
2.69741e-05
2.72717e-05
2.75247e-05
2.77311e-05
2.78946e-05
2.80218e-05
2.81203e-05
2.81984e-05
2.82879e-05
2.85544e-05
2.7926e-05
2.77696e-05
2.76169e-05
2.75188e-05
2.74301e-05
2.73133e-05
2.71649e-05
2.69797e-05
2.67683e-05
2.65384e-05
2.62835e-05
2.60134e-05
2.57579e-05
2.5542e-05
2.53936e-05
2.53667e-05
2.54779e-05
2.56896e-05
2.59548e-05
2.62334e-05
2.6499e-05
2.67383e-05
2.69462e-05
2.71216e-05
2.72664e-05
2.73838e-05
2.74774e-05
2.75515e-05
2.76247e-05
2.78166e-05
2.73081e-05
2.70802e-05
2.70076e-05
2.69768e-05
2.69161e-05
2.68175e-05
2.66869e-05
2.65311e-05
2.63614e-05
2.6171e-05
2.59542e-05
2.57289e-05
2.5518e-05
2.53346e-05
2.52061e-05
2.51863e-05
2.52835e-05
2.54551e-05
2.56623e-05
2.58772e-05
2.60867e-05
2.62872e-05
2.64746e-05
2.66406e-05
2.67786e-05
2.68881e-05
2.69719e-05
2.70314e-05
2.70775e-05
2.71978e-05
2.66784e-05
2.65648e-05
2.6595e-05
2.65806e-05
2.65177e-05
2.64199e-05
2.62995e-05
2.6171e-05
2.60325e-05
2.58663e-05
2.56762e-05
2.5486e-05
2.53096e-05
2.51553e-05
2.50487e-05
2.50381e-05
2.51261e-05
2.52666e-05
2.54295e-05
2.5601e-05
2.57777e-05
2.59563e-05
2.6126e-05
2.62739e-05
2.63935e-05
2.64841e-05
2.65463e-05