/*--------------------------------*- C++ -*----------------------------------*\
| =========                 |                                                 |
| \\      /  F ield         | OpenFOAM: The Open Source CFD Toolbox           |
|  \\    /   O peration     | Version:  2312                                  |
|   \\  /    A nd           | Website:  www.openfoam.com                      |
|    \\/     M anipulation  |                                                 |
\*---------------------------------------------------------------------------*/
FoamFile
{
    version     2.0;
    format      ascii;
    arch        "LSB;label=32;scalar=64";
    class       volScalarField;
    location    "1.01077";
    object      nut;
}
// * * * * * * * * * * * * * * * * * * * * * * * * * * * * * * * * * * * * * //

dimensions      [0 2 -1 0 0 0 0];

internalField   nonuniform List<scalar> 
90000
(
5.44526e-06
5.44573e-06
5.44585e-06
5.44589e-06
5.4459e-06
5.44588e-06
5.44582e-06
5.44577e-06
5.44572e-06
5.44568e-06
5.44565e-06
5.44564e-06
5.44564e-06
5.44565e-06
5.44567e-06
5.44571e-06
5.44579e-06
5.4459e-06
5.44599e-06
5.44599e-06
5.44589e-06
5.44572e-06
5.44574e-06
5.44601e-06
5.44627e-06
5.44639e-06
5.44633e-06
5.44615e-06
5.4462e-06
5.44656e-06
5.44582e-06
5.45508e-06
5.45583e-06
5.45581e-06
5.45576e-06
5.4557e-06
5.45567e-06
5.45565e-06
5.45563e-06
5.45559e-06
5.45558e-06
5.45561e-06
5.45565e-06
5.45569e-06
5.45572e-06
5.45574e-06
5.45575e-06
5.45574e-06
5.4557e-06
5.45565e-06
5.45568e-06
5.45575e-06
5.45581e-06
5.4558e-06
5.45569e-06
5.45554e-06
5.45564e-06
5.45597e-06
5.45553e-06
5.44787e-06
5.44594e-06
5.45587e-06
5.45664e-06
5.45662e-06
5.45656e-06
5.45652e-06
5.45651e-06
5.45652e-06
5.45652e-06
5.45648e-06
5.45646e-06
5.4565e-06
5.45657e-06
5.45664e-06
5.45667e-06
5.45664e-06
5.45656e-06
5.45647e-06
5.45653e-06
5.45667e-06
5.45677e-06
5.45681e-06
5.45682e-06
5.45683e-06
5.45688e-06
5.45699e-06
5.45706e-06
5.45722e-06
5.45713e-06
5.44753e-06
5.44594e-06
5.45589e-06
5.45669e-06
5.45671e-06
5.45668e-06
5.45664e-06
5.45662e-06
5.45662e-06
5.45662e-06
5.4566e-06
5.45657e-06
5.45659e-06
5.45664e-06
5.45668e-06
5.45668e-06
5.45664e-06
5.45659e-06
5.45667e-06
5.4568e-06
5.45688e-06
5.45689e-06
5.45688e-06
5.45697e-06
5.45717e-06
5.45736e-06
5.45747e-06
5.45756e-06
5.45748e-06
5.45704e-06
5.44675e-06
5.44588e-06
5.45584e-06
5.4567e-06
5.45676e-06
5.45676e-06
5.45673e-06
5.45669e-06
5.45665e-06
5.45664e-06
5.45664e-06
5.45663e-06
5.45663e-06
5.45661e-06
5.45657e-06
5.45654e-06
5.45662e-06
5.45673e-06
5.45682e-06
5.45686e-06
5.45684e-06
5.4568e-06
5.45686e-06
5.45705e-06
5.45726e-06
5.4574e-06
5.4574e-06
5.45731e-06
5.45715e-06
5.45645e-06
5.44645e-06
5.4458e-06
5.45586e-06
5.45672e-06
5.4568e-06
5.45683e-06
5.45682e-06
5.45678e-06
5.45672e-06
5.45668e-06
5.45666e-06
5.45667e-06
5.4567e-06
5.45674e-06
5.45676e-06
5.45674e-06
5.45674e-06
5.45677e-06
5.45677e-06
5.45675e-06
5.45672e-06
5.45676e-06
5.45686e-06
5.45698e-06
5.45706e-06
5.45709e-06
5.45707e-06
5.4571e-06
5.4574e-06
5.45679e-06
5.44655e-06
5.44585e-06
5.45598e-06
5.4568e-06
5.45687e-06
5.45691e-06
5.45694e-06
5.45694e-06
5.4569e-06
5.4568e-06
5.4567e-06
5.45669e-06
5.45676e-06
5.45686e-06
5.45691e-06
5.45688e-06
5.45677e-06
5.45664e-06
5.45657e-06
5.45661e-06
5.4567e-06
5.4568e-06
5.45685e-06
5.45682e-06
5.45674e-06
5.45678e-06
5.45707e-06
5.45744e-06
5.45775e-06
5.45706e-06
5.44654e-06
5.44592e-06
5.45619e-06
5.45693e-06
5.45698e-06
5.45702e-06
5.45708e-06
5.45712e-06
5.4571e-06
5.45701e-06
5.45687e-06
5.45678e-06
5.4568e-06
5.45687e-06
5.45691e-06
5.45687e-06
5.45673e-06
5.45655e-06
5.45644e-06
5.45657e-06
5.45671e-06
5.45679e-06
5.45678e-06
5.45668e-06
5.45668e-06
5.45693e-06
5.45726e-06
5.45758e-06
5.45772e-06
5.45687e-06
5.44643e-06
5.44603e-06
5.4564e-06
5.45708e-06
5.4571e-06
5.45712e-06
5.45718e-06
5.45723e-06
5.45724e-06
5.45719e-06
5.4571e-06
5.45698e-06
5.45687e-06
5.4568e-06
5.45677e-06
5.45677e-06
5.45676e-06
5.45676e-06
5.45677e-06
5.45681e-06
5.45685e-06
5.45684e-06
5.45678e-06
5.45671e-06
5.45683e-06
5.45707e-06
5.45733e-06
5.45752e-06
5.45751e-06
5.4566e-06
5.44632e-06
5.4463e-06
5.45649e-06
5.45711e-06
5.4571e-06
5.45709e-06
5.4571e-06
5.45713e-06
5.45719e-06
5.45724e-06
5.45724e-06
5.45717e-06
5.45701e-06
5.45678e-06
5.45663e-06
5.45669e-06
5.45688e-06
5.45707e-06
5.45719e-06
5.45725e-06
5.45723e-06
5.45715e-06
5.45701e-06
5.4569e-06
5.45691e-06
5.45706e-06
5.45722e-06
5.4573e-06
5.45724e-06
5.45638e-06
5.4463e-06
5.44654e-06
5.45644e-06
5.45703e-06
5.45701e-06
5.45694e-06
5.45687e-06
5.45687e-06
5.45695e-06
5.45709e-06
5.45719e-06
5.4572e-06
5.4571e-06
5.4569e-06
5.45669e-06
5.45668e-06
5.45694e-06
5.45723e-06
5.45747e-06
5.45761e-06
5.45761e-06
5.45749e-06
5.45728e-06
5.45707e-06
5.45693e-06
5.45697e-06
5.45708e-06
5.45716e-06
5.45715e-06
5.45636e-06
5.4464e-06
5.44657e-06
5.45647e-06
5.4571e-06
5.45709e-06
5.45705e-06
5.45699e-06
5.45694e-06
5.45694e-06
5.45698e-06
5.45704e-06
5.45709e-06
5.45708e-06
5.457e-06
5.45682e-06
5.45665e-06
5.45689e-06
5.45726e-06
5.45756e-06
5.45772e-06
5.4577e-06
5.45754e-06
5.45732e-06
5.4571e-06
5.45692e-06
5.45695e-06
5.45706e-06
5.45716e-06
5.4572e-06
5.4565e-06
5.4465e-06
5.44651e-06
5.45659e-06
5.45729e-06
5.45737e-06
5.45749e-06
5.45759e-06
5.45764e-06
5.45759e-06
5.45742e-06
5.45718e-06
5.45704e-06
5.4571e-06
5.45715e-06
5.45714e-06
5.45709e-06
5.45714e-06
5.45727e-06
5.45737e-06
5.45738e-06
5.45733e-06
5.45725e-06
5.45715e-06
5.45705e-06
5.45697e-06
5.45701e-06
5.45709e-06
5.45718e-06
5.45725e-06
5.45654e-06
5.44655e-06
5.44692e-06
5.45662e-06
5.45749e-06
5.45773e-06
5.458e-06
5.45821e-06
5.45827e-06
5.45813e-06
5.4578e-06
5.45738e-06
5.45704e-06
5.45707e-06
5.45726e-06
5.45743e-06
5.45752e-06
5.45751e-06
5.45738e-06
5.45711e-06
5.45685e-06
5.45679e-06
5.45691e-06
5.45703e-06
5.45709e-06
5.4571e-06
5.45709e-06
5.45713e-06
5.45721e-06
5.45727e-06
5.45652e-06
5.44663e-06
5.44749e-06
5.45653e-06
5.4578e-06
5.45815e-06
5.45842e-06
5.45854e-06
5.45844e-06
5.45816e-06
5.45776e-06
5.45733e-06
5.45697e-06
5.45696e-06
5.45724e-06
5.45754e-06
5.4577e-06
5.45768e-06
5.45747e-06
5.45713e-06
5.45683e-06
5.45673e-06
5.45689e-06
5.4571e-06
5.45723e-06
5.45726e-06
5.45722e-06
5.45725e-06
5.45735e-06
5.45741e-06
5.45669e-06
5.44692e-06
5.44774e-06
5.45732e-06
5.45831e-06
5.4585e-06
5.45853e-06
5.45838e-06
5.45809e-06
5.45777e-06
5.4575e-06
5.45726e-06
5.45701e-06
5.45694e-06
5.45721e-06
5.45751e-06
5.45768e-06
5.45767e-06
5.45753e-06
5.45733e-06
5.45713e-06
5.45702e-06
5.45706e-06
5.45722e-06
5.45737e-06
5.45742e-06
5.45742e-06
5.45751e-06
5.45765e-06
5.4578e-06
5.45727e-06
5.44732e-06
5.44762e-06
5.45822e-06
5.45877e-06
5.45866e-06
5.45837e-06
5.458e-06
5.45766e-06
5.4575e-06
5.45748e-06
5.45739e-06
5.45721e-06
5.45712e-06
5.45727e-06
5.45747e-06
5.45757e-06
5.45759e-06
5.45756e-06
5.45747e-06
5.45735e-06
5.45727e-06
5.45729e-06
5.45736e-06
5.45746e-06
5.45755e-06
5.45766e-06
5.45783e-06
5.45803e-06
5.45823e-06
5.45759e-06
5.44744e-06
5.44762e-06
5.45876e-06
5.45909e-06
5.45884e-06
5.45849e-06
5.45812e-06
5.45782e-06
5.45768e-06
5.45765e-06
5.45753e-06
5.4574e-06
5.4573e-06
5.4573e-06
5.45733e-06
5.45736e-06
5.45742e-06
5.45748e-06
5.45752e-06
5.45751e-06
5.45751e-06
5.45752e-06
5.45756e-06
5.45763e-06
5.45774e-06
5.45795e-06
5.45818e-06
5.45838e-06
5.45846e-06
5.4576e-06
5.44747e-06
5.44815e-06
5.45901e-06
5.45941e-06
5.45917e-06
5.45887e-06
5.45859e-06
5.45835e-06
5.45813e-06
5.45788e-06
5.45766e-06
5.45749e-06
5.45732e-06
5.45719e-06
5.45711e-06
5.45709e-06
5.45717e-06
5.45732e-06
5.45748e-06
5.45759e-06
5.45765e-06
5.45768e-06
5.45773e-06
5.45783e-06
5.45809e-06
5.45842e-06
5.45863e-06
5.45869e-06
5.45862e-06
5.4577e-06
5.44773e-06
5.44876e-06
5.45915e-06
5.4597e-06
5.4595e-06
5.45925e-06
5.45902e-06
5.45882e-06
5.45857e-06
5.45827e-06
5.45796e-06
5.45767e-06
5.45739e-06
5.45714e-06
5.45695e-06
5.45686e-06
5.45696e-06
5.45721e-06
5.45746e-06
5.45764e-06
5.45776e-06
5.45786e-06
5.45803e-06
5.45838e-06
5.45875e-06
5.45898e-06
5.45903e-06
5.45901e-06
5.45897e-06
5.45821e-06
5.44829e-06
5.44937e-06
5.45933e-06
5.45995e-06
5.45981e-06
5.45963e-06
5.45947e-06
5.45928e-06
5.45902e-06
5.45869e-06
5.45832e-06
5.45794e-06
5.45757e-06
5.45726e-06
5.45705e-06
5.45697e-06
5.4571e-06
5.45734e-06
5.45759e-06
5.45782e-06
5.45805e-06
5.45834e-06
5.45872e-06
5.45909e-06
5.4593e-06
5.45932e-06
5.45931e-06
5.45937e-06
5.45944e-06
5.45876e-06
5.4489e-06
5.44996e-06
5.45964e-06
5.46036e-06
5.46027e-06
5.46013e-06
5.45997e-06
5.45973e-06
5.45942e-06
5.45905e-06
5.45864e-06
5.4582e-06
5.45785e-06
5.45758e-06
5.4574e-06
5.4573e-06
5.45734e-06
5.45751e-06
5.45779e-06
5.45815e-06
5.45857e-06
5.45902e-06
5.45941e-06
5.45962e-06
5.45963e-06
5.45965e-06
5.45976e-06
5.45991e-06
5.46001e-06
5.45934e-06
5.44953e-06
5.45062e-06
5.4602e-06
5.46097e-06
5.46091e-06
5.46075e-06
5.46051e-06
5.46018e-06
5.4598e-06
5.4594e-06
5.459e-06
5.45864e-06
5.4583e-06
5.45796e-06
5.45762e-06
5.45736e-06
5.45734e-06
5.45758e-06
5.45801e-06
5.45855e-06
5.45913e-06
5.4596e-06
5.45987e-06
5.45998e-06
5.46007e-06
5.46024e-06
5.46048e-06
5.46068e-06
5.46076e-06
5.46009e-06
5.45032e-06
5.45148e-06
5.46106e-06
5.46184e-06
5.46175e-06
5.46151e-06
5.46117e-06
5.46079e-06
5.46039e-06
5.45999e-06
5.45959e-06
5.45917e-06
5.45872e-06
5.45823e-06
5.45772e-06
5.45736e-06
5.4574e-06
5.45776e-06
5.45835e-06
5.45903e-06
5.45961e-06
5.46002e-06
5.46028e-06
5.46052e-06
5.4608e-06
5.46114e-06
5.46147e-06
5.46166e-06
5.46176e-06
5.46107e-06
5.45138e-06
5.45262e-06
5.46226e-06
5.46299e-06
5.46282e-06
5.4625e-06
5.46212e-06
5.46171e-06
5.46128e-06
5.46082e-06
5.46032e-06
5.45978e-06
5.45919e-06
5.45854e-06
5.45794e-06
5.45761e-06
5.45766e-06
5.45807e-06
5.45877e-06
5.45945e-06
5.46e-06
5.46047e-06
5.46092e-06
5.46135e-06
5.4618e-06
5.46225e-06
5.46258e-06
5.46283e-06
5.463e-06
5.46236e-06
5.45275e-06
5.45416e-06
5.46382e-06
5.46444e-06
5.46419e-06
5.46383e-06
5.46341e-06
5.46296e-06
5.46245e-06
5.46189e-06
5.46129e-06
5.4606e-06
5.45984e-06
5.45906e-06
5.45845e-06
5.45804e-06
5.45802e-06
5.45843e-06
5.45915e-06
5.45988e-06
5.4606e-06
5.46129e-06
5.46189e-06
5.46243e-06
5.46299e-06
5.46343e-06
5.46379e-06
5.46417e-06
5.46448e-06
5.464e-06
5.45421e-06
5.45616e-06
5.46569e-06
5.46625e-06
5.46597e-06
5.46557e-06
5.46509e-06
5.46454e-06
5.46391e-06
5.46323e-06
5.46245e-06
5.46158e-06
5.46066e-06
5.45985e-06
5.45918e-06
5.4586e-06
5.45849e-06
5.45896e-06
5.45975e-06
5.46068e-06
5.46159e-06
5.46239e-06
5.4631e-06
5.46377e-06
5.46439e-06
5.46489e-06
5.46538e-06
5.46591e-06
5.46627e-06
5.46564e-06
5.45601e-06
5.45855e-06
5.46795e-06
5.46851e-06
5.46817e-06
5.46768e-06
5.46709e-06
5.4664e-06
5.46562e-06
5.46478e-06
5.46383e-06
5.46279e-06
5.46181e-06
5.46093e-06
5.46004e-06
5.45925e-06
5.45912e-06
5.45973e-06
5.46071e-06
5.4618e-06
5.46285e-06
5.46384e-06
5.46476e-06
5.4655e-06
5.46622e-06
5.4669e-06
5.46755e-06
5.46812e-06
5.46835e-06
5.46774e-06
5.45829e-06
5.46139e-06
5.47065e-06
5.47113e-06
5.47071e-06
5.47013e-06
5.46944e-06
5.46863e-06
5.46772e-06
5.46671e-06
5.46557e-06
5.4644e-06
5.46329e-06
5.46216e-06
5.461e-06
5.46008e-06
5.45998e-06
5.46077e-06
5.46195e-06
5.46325e-06
5.46451e-06
5.46568e-06
5.46678e-06
5.46771e-06
5.46863e-06
5.4695e-06
5.47025e-06
5.47078e-06
5.47098e-06
5.47041e-06
5.46118e-06
5.46473e-06
5.4738e-06
5.47424e-06
5.47377e-06
5.47312e-06
5.47234e-06
5.47141e-06
5.47034e-06
5.46911e-06
5.46776e-06
5.46637e-06
5.46498e-06
5.46354e-06
5.46213e-06
5.4611e-06
5.46108e-06
5.46205e-06
5.46342e-06
5.46493e-06
5.46643e-06
5.46779e-06
5.46917e-06
5.47042e-06
5.47156e-06
5.47256e-06
5.47335e-06
5.4739e-06
5.47426e-06
5.47385e-06
5.46472e-06
5.46875e-06
5.47767e-06
5.47809e-06
5.47755e-06
5.47681e-06
5.47589e-06
5.47478e-06
5.47349e-06
5.47201e-06
5.47038e-06
5.46871e-06
5.46699e-06
5.46524e-06
5.46361e-06
5.46248e-06
5.4625e-06
5.46364e-06
5.46522e-06
5.46698e-06
5.46876e-06
5.4704e-06
5.47213e-06
5.47369e-06
5.47497e-06
5.47609e-06
5.47697e-06
5.47768e-06
5.47831e-06
5.47802e-06
5.46891e-06
5.47366e-06
5.48249e-06
5.48283e-06
5.48219e-06
5.4813e-06
5.48018e-06
5.47885e-06
5.47732e-06
5.47557e-06
5.47366e-06
5.47166e-06
5.46957e-06
5.46748e-06
5.46559e-06
5.4643e-06
5.46434e-06
5.46567e-06
5.46752e-06
5.46954e-06
5.47167e-06
5.47369e-06
5.47574e-06
5.4775e-06
5.47897e-06
5.48027e-06
5.48137e-06
5.48232e-06
5.4832e-06
5.48292e-06
5.47396e-06
5.47969e-06
5.48837e-06
5.48861e-06
5.48783e-06
5.48675e-06
5.48542e-06
5.48386e-06
5.48206e-06
5.48002e-06
5.47776e-06
5.47533e-06
5.4728e-06
5.47033e-06
5.46817e-06
5.46671e-06
5.46674e-06
5.46826e-06
5.47042e-06
5.47274e-06
5.47526e-06
5.47766e-06
5.47997e-06
5.48198e-06
5.48379e-06
5.48539e-06
5.48677e-06
5.48796e-06
5.48895e-06
5.4887e-06
5.48003e-06
5.48704e-06
5.4955e-06
5.49562e-06
5.4947e-06
5.49341e-06
5.49182e-06
5.48995e-06
5.4878e-06
5.48537e-06
5.48268e-06
5.47979e-06
5.47685e-06
5.47402e-06
5.47159e-06
5.46994e-06
5.46992e-06
5.47158e-06
5.47406e-06
5.47675e-06
5.47969e-06
5.48246e-06
5.48514e-06
5.48753e-06
5.48975e-06
5.49166e-06
5.49334e-06
5.49476e-06
5.49581e-06
5.49567e-06
5.48727e-06
5.49589e-06
5.5041e-06
5.5041e-06
5.50296e-06
5.50139e-06
5.49946e-06
5.49722e-06
5.49465e-06
5.49179e-06
5.48866e-06
5.48535e-06
5.482e-06
5.47877e-06
5.47595e-06
5.47405e-06
5.47405e-06
5.4759e-06
5.47874e-06
5.48188e-06
5.48525e-06
5.48845e-06
5.4916e-06
5.49446e-06
5.49705e-06
5.4993e-06
5.50135e-06
5.50296e-06
5.5041e-06
5.50406e-06
5.49594e-06
5.50653e-06
5.51435e-06
5.51415e-06
5.51277e-06
5.51093e-06
5.50869e-06
5.50607e-06
5.50308e-06
5.49977e-06
5.49617e-06
5.49237e-06
5.48853e-06
5.48479e-06
5.48151e-06
5.47935e-06
5.47943e-06
5.48162e-06
5.48485e-06
5.48848e-06
5.49236e-06
5.49603e-06
5.49974e-06
5.50303e-06
5.50599e-06
5.50864e-06
5.51104e-06
5.51281e-06
5.51406e-06
5.51412e-06
5.50647e-06
5.51924e-06
5.52653e-06
5.52619e-06
5.52465e-06
5.52259e-06
5.52005e-06
5.51703e-06
5.51358e-06
5.50978e-06
5.50567e-06
5.5013e-06
5.49689e-06
5.49263e-06
5.48894e-06
5.48649e-06
5.48657e-06
5.4891e-06
5.49275e-06
5.49689e-06
5.5014e-06
5.50564e-06
5.50981e-06
5.51355e-06
5.51696e-06
5.52004e-06
5.5227e-06
5.52466e-06
5.5261e-06
5.52645e-06
5.51927e-06
5.53447e-06
5.54128e-06
5.5409e-06
5.5392e-06
5.53684e-06
5.53388e-06
5.53041e-06
5.52649e-06
5.52219e-06
5.51753e-06
5.51257e-06
5.50761e-06
5.50285e-06
5.49875e-06
5.49596e-06
5.49589e-06
5.49867e-06
5.50288e-06
5.5076e-06
5.51273e-06
5.51752e-06
5.52213e-06
5.52636e-06
5.53035e-06
5.53384e-06
5.53673e-06
5.53908e-06
5.54091e-06
5.54151e-06
5.53471e-06
5.5528e-06
5.55925e-06
5.55869e-06
5.55665e-06
5.55387e-06
5.55047e-06
5.54656e-06
5.54216e-06
5.5373e-06
5.53207e-06
5.52654e-06
5.52105e-06
5.51573e-06
5.51112e-06
5.50804e-06
5.5079e-06
5.51098e-06
5.51578e-06
5.5211e-06
5.52674e-06
5.53203e-06
5.53714e-06
5.54197e-06
5.54651e-06
5.55043e-06
5.55362e-06
5.55649e-06
5.55873e-06
5.55931e-06
5.55296e-06
5.57482e-06
5.58066e-06
5.57978e-06
5.5774e-06
5.5743e-06
5.57057e-06
5.56622e-06
5.5613e-06
5.55585e-06
5.55008e-06
5.54397e-06
5.53793e-06
5.53209e-06
5.52689e-06
5.52353e-06
5.52345e-06
5.5269e-06
5.53216e-06
5.53801e-06
5.54412e-06
5.54999e-06
5.5557e-06
5.56117e-06
5.56612e-06
5.57052e-06
5.57415e-06
5.5774e-06
5.57985e-06
5.58046e-06
5.57464e-06
5.60103e-06
5.60607e-06
5.60502e-06
5.60252e-06
5.5992e-06
5.59509e-06
5.59023e-06
5.58487e-06
5.57895e-06
5.57276e-06
5.56612e-06
5.55949e-06
5.55324e-06
5.54744e-06
5.54367e-06
5.54365e-06
5.54745e-06
5.55314e-06
5.55949e-06
5.56606e-06
5.57259e-06
5.57885e-06
5.5848e-06
5.5901e-06
5.59498e-06
5.59919e-06
5.60253e-06
5.60502e-06
5.60602e-06
5.60076e-06
5.63231e-06
5.6368e-06
5.63568e-06
5.63296e-06
5.62926e-06
5.62474e-06
5.61948e-06
5.61382e-06
5.60748e-06
5.60085e-06
5.59386e-06
5.58673e-06
5.58016e-06
5.5739e-06
5.56961e-06
5.56985e-06
5.57403e-06
5.57999e-06
5.58681e-06
5.59383e-06
5.60084e-06
5.60742e-06
5.61367e-06
5.61954e-06
5.62469e-06
5.62929e-06
5.63281e-06
5.63544e-06
5.63687e-06
5.63235e-06
5.67012e-06
5.6741e-06
5.67265e-06
5.66956e-06
5.66554e-06
5.66079e-06
5.65517e-06
5.6492e-06
5.64264e-06
5.63571e-06
5.62881e-06
5.62131e-06
5.61426e-06
5.608e-06
5.60343e-06
5.60368e-06
5.60818e-06
5.61437e-06
5.62135e-06
5.62869e-06
5.63592e-06
5.64274e-06
5.6492e-06
5.65554e-06
5.66081e-06
5.66546e-06
5.66951e-06
5.67266e-06
5.67424e-06
5.67004e-06
5.71606e-06
5.71957e-06
5.71772e-06
5.7144e-06
5.71004e-06
5.70509e-06
5.69934e-06
5.6933e-06
5.68691e-06
5.67993e-06
5.67321e-06
5.66598e-06
5.65911e-06
5.65341e-06
5.64915e-06
5.64915e-06
5.6533e-06
5.65946e-06
5.66614e-06
5.67302e-06
5.6801e-06
5.68694e-06
5.69337e-06
5.69941e-06
5.70501e-06
5.71008e-06
5.71449e-06
5.71776e-06
5.71962e-06
5.71582e-06
5.7728e-06
5.77699e-06
5.7744e-06
5.77079e-06
5.76636e-06
5.76132e-06
5.75536e-06
5.74956e-06
5.74462e-06
5.73873e-06
5.73425e-06
5.73159e-06
5.7306e-06
5.7307e-06
5.73237e-06
5.73299e-06
5.7311e-06
5.73046e-06
5.73154e-06
5.73465e-06
5.73908e-06
5.74443e-06
5.74987e-06
5.7552e-06
5.76101e-06
5.76672e-06
5.77098e-06
5.77401e-06
5.77678e-06
5.77291e-06
5.85009e-06
5.85933e-06
5.85596e-06
5.85495e-06
5.85102e-06
5.84436e-06
5.83948e-06
5.83815e-06
5.84059e-06
5.84633e-06
5.86838e-06
5.90558e-06
5.96285e-06
6.02653e-06
6.09147e-06
6.0931e-06
6.02774e-06
5.96305e-06
5.90664e-06
5.86874e-06
5.84672e-06
5.84081e-06
5.83817e-06
5.83948e-06
5.8445e-06
5.85086e-06
5.85501e-06
5.85617e-06
5.85937e-06
5.84995e-06
5.9942e-06
6.02609e-06
6.03871e-06
6.06878e-06
6.05728e-06
6.04376e-06
6.06604e-06
6.09278e-06
6.14751e-06
6.25533e-06
6.48172e-06
6.81265e-06
7.24556e-06
7.65134e-06
8.06198e-06
8.06764e-06
7.65867e-06
7.24513e-06
6.82256e-06
6.48495e-06
6.2568e-06
6.14874e-06
6.09351e-06
6.06676e-06
6.04449e-06
6.056e-06
6.0688e-06
6.03975e-06
6.02644e-06
5.9945e-06
6.42187e-06
6.50233e-06
6.67435e-06
6.99917e-06
6.83071e-06
6.82267e-06
7.29492e-06
7.36219e-06
7.60907e-06
8.38373e-06
9.35453e-06
1.05635e-05
1.19921e-05
1.30831e-05
1.41226e-05
1.41317e-05
1.31003e-05
1.19977e-05
1.06153e-05
9.36658e-06
8.39426e-06
7.6176e-06
7.3659e-06
7.30221e-06
6.82841e-06
6.82857e-06
6.99833e-06
6.67797e-06
6.50301e-06
6.42034e-06
7.7158e-06
8.11255e-06
8.7876e-06
1.00076e-05
9.5753e-06
1.0074e-05
1.25562e-05
1.26837e-05
1.34809e-05
1.65651e-05
1.81774e-05
1.97694e-05
2.24234e-05
2.4011e-05
2.52515e-05
2.52362e-05
2.39676e-05
2.24148e-05
1.98941e-05
1.82049e-05
1.65899e-05
1.35056e-05
1.27041e-05
1.25888e-05
1.00989e-05
9.58339e-06
1.00113e-05
8.79854e-06
8.10775e-06
7.70649e-06
1.09679e-05
1.29982e-05
1.39536e-05
1.70036e-05
1.76629e-05
1.89707e-05
2.22536e-05
2.33077e-05
2.44446e-05
2.909e-05
3.19325e-05
3.31457e-05
3.50979e-05
3.59447e-05
3.74403e-05
3.73848e-05
3.60697e-05
3.51639e-05
3.31971e-05
3.18461e-05
2.90152e-05
2.44425e-05
2.33656e-05
2.23192e-05
1.90266e-05
1.77444e-05
1.70582e-05
1.39633e-05
1.2965e-05
1.09622e-05
1.5915e-05
2.29541e-05
2.3744e-05
2.70744e-05
3.33429e-05
3.45868e-05
3.7158e-05
4.40802e-05
4.40587e-05
4.57807e-05
5.08079e-05
4.85757e-05
4.80429e-05
5.01991e-05
5.11511e-05
5.11118e-05
4.99847e-05
4.80203e-05
4.78198e-05
5.06647e-05
4.57237e-05
4.4041e-05
4.41824e-05
3.73162e-05
3.4899e-05
3.36741e-05
2.72477e-05
2.36717e-05
2.28952e-05
1.60486e-05
2.2234e-05
2.38727e-05
2.59517e-05
3.73666e-05
3.52031e-05
3.95429e-05
4.75057e-05
4.55114e-05
4.59476e-05
5.74114e-05
5.16324e-05
5.44928e-05
5.31738e-05
5.48436e-05
5.02259e-05
5.02032e-05
5.4224e-05
5.34794e-05
5.0811e-05
5.06554e-05
5.71545e-05
4.60052e-05
4.56328e-05
4.80039e-05
4.00588e-05
3.55784e-05
3.76704e-05
2.59113e-05
2.39508e-05
2.21377e-05
2.38019e-05
2.60552e-05
2.7254e-05
3.54186e-05
3.62573e-05
3.68045e-05
4.23288e-05
4.45266e-05
4.35096e-05
5.25424e-05
5.01037e-05
4.61377e-05
4.76582e-05
5.00776e-05
4.72892e-05
4.72761e-05
5.02922e-05
4.79047e-05
4.5836e-05
4.93363e-05
5.27346e-05
4.38559e-05
4.48366e-05
4.25762e-05
3.69706e-05
3.67217e-05
3.56079e-05
2.74225e-05
2.62417e-05
2.39502e-05
2.40059e-05
2.50385e-05
2.54095e-05
3.26757e-05
3.30146e-05
3.19992e-05
3.54656e-05
3.81617e-05
4.03684e-05
4.51622e-05
4.20773e-05
4.09902e-05
4.10714e-05
4.3162e-05
4.58331e-05
4.62963e-05
4.42245e-05
4.2157e-05
4.28737e-05
4.25692e-05
4.5921e-05
4.0227e-05
3.80851e-05
3.57387e-05
3.21644e-05
3.32767e-05
3.28424e-05
2.56599e-05
2.50892e-05
2.40094e-05
2.18206e-05
2.26335e-05
2.31583e-05
2.90562e-05
2.84798e-05
2.72694e-05
3.00306e-05
3.11817e-05
3.33872e-05
3.76979e-05
3.62954e-05
3.55462e-05
3.71777e-05
3.85429e-05
3.97507e-05
3.97986e-05
3.89613e-05
3.74584e-05
3.61772e-05
3.58642e-05
3.80492e-05
3.36258e-05
3.13185e-05
3.00861e-05
2.73758e-05
2.87058e-05
2.91627e-05
2.3223e-05
2.27748e-05
2.17193e-05
1.8544e-05
1.9699e-05
2.06223e-05
2.41098e-05
2.35974e-05
2.1849e-05
2.48109e-05
2.66653e-05
2.86219e-05
3.1632e-05
3.22272e-05
3.20335e-05
3.21978e-05
3.29557e-05
3.31683e-05
3.31963e-05
3.32081e-05
3.22651e-05
3.18675e-05
3.195e-05
3.17427e-05
2.86722e-05
2.67112e-05
2.48718e-05
2.18629e-05
2.37377e-05
2.42206e-05
2.0679e-05
1.98629e-05
1.86078e-05
1.5937e-05
1.67333e-05
1.73829e-05
1.88869e-05
1.85504e-05
1.75228e-05
1.8543e-05
2.0367e-05
2.32013e-05
2.68267e-05
2.92178e-05
3.05872e-05
3.13322e-05
3.17514e-05
3.16309e-05
3.16279e-05
3.18872e-05
3.13586e-05
3.05084e-05
2.91221e-05
2.68529e-05
2.31951e-05
2.04283e-05
1.86297e-05
1.75682e-05
1.86631e-05
1.89206e-05
1.73549e-05
1.68138e-05
1.59712e-05
1.40435e-05
1.44661e-05
1.46271e-05
1.49502e-05
1.48091e-05
1.45355e-05
1.47879e-05
1.56436e-05
1.7255e-05
2.01882e-05
2.4048e-05
2.75379e-05
2.98167e-05
3.1097e-05
3.15326e-05
3.15234e-05
3.11632e-05
2.98547e-05
2.74887e-05
2.3975e-05
2.02267e-05
1.72805e-05
1.56755e-05
1.48319e-05
1.46033e-05
1.49043e-05
1.50384e-05
1.46524e-05
1.44953e-05
1.40968e-05
1.26863e-05
1.2843e-05
1.27953e-05
1.2787e-05
1.2732e-05
1.26986e-05
1.28186e-05
1.31301e-05
1.37577e-05
1.5122e-05
1.7688e-05
2.13814e-05
2.53475e-05
2.81604e-05
2.95561e-05
2.9557e-05
2.81976e-05
2.53791e-05
2.13555e-05
1.76625e-05
1.51411e-05
1.37797e-05
1.3151e-05
1.28228e-05
1.27206e-05
1.27758e-05
1.28419e-05
1.2817e-05
1.28416e-05
1.26996e-05
1.16773e-05
1.17096e-05
1.16497e-05
1.1624e-05
1.16058e-05
1.16228e-05
1.17004e-05
1.18642e-05
1.21116e-05
1.25619e-05
1.35192e-05
1.54573e-05
1.82511e-05
2.15896e-05
2.40745e-05
2.40719e-05
2.16088e-05
1.82828e-05
1.54582e-05
1.35199e-05
1.25773e-05
1.21229e-05
1.18796e-05
1.17229e-05
1.1645e-05
1.16299e-05
1.16411e-05
1.16763e-05
1.17191e-05
1.16686e-05
1.08855e-05
1.08754e-05
1.08366e-05
1.08344e-05
1.08338e-05
1.08758e-05
1.0981e-05
1.11012e-05
1.1239e-05
1.14093e-05
1.16789e-05
1.22348e-05
1.32885e-05
1.47739e-05
1.61978e-05
1.61993e-05
1.47803e-05
1.33046e-05
1.2236e-05
1.16896e-05
1.14162e-05
1.12441e-05
1.11132e-05
1.10006e-05
1.0907e-05
1.08683e-05
1.08325e-05
1.08499e-05
1.08881e-05
1.08817e-05
1.02597e-05
1.02097e-05
1.01896e-05
1.01956e-05
1.02368e-05
1.03056e-05
1.04168e-05
1.05134e-05
1.06143e-05
1.07106e-05
1.081e-05
1.09394e-05
1.1158e-05
1.15104e-05
1.19255e-05
1.19334e-05
1.15229e-05
1.11637e-05
1.09298e-05
1.08144e-05
1.07217e-05
1.06261e-05
1.0529e-05
1.04264e-05
1.03264e-05
1.02528e-05
1.02014e-05
1.01871e-05
1.02257e-05
1.02921e-05
9.80323e-06
9.66585e-06
9.65058e-06
9.67568e-06
9.72386e-06
9.80309e-06
9.89531e-06
9.96763e-06
1.00448e-05
1.01068e-05
1.01499e-05
1.01781e-05
1.02076e-05
1.02553e-05
1.03155e-05
1.03128e-05
1.02616e-05
1.0217e-05
1.01862e-05
1.01599e-05
1.01177e-05
1.00647e-05
9.99754e-06
9.90197e-06
9.80275e-06
9.71815e-06
9.67476e-06
9.64911e-06
9.68414e-06
9.82421e-06
9.40797e-06
9.20752e-06
9.18925e-06
9.22161e-06
9.2781e-06
9.34647e-06
9.40865e-06
9.46534e-06
9.51573e-06
9.54452e-06
9.55383e-06
9.55477e-06
9.54592e-06
9.52937e-06
9.51771e-06
9.5152e-06
9.53638e-06
9.55504e-06
9.56765e-06
9.56976e-06
9.55693e-06
9.53043e-06
9.48156e-06
9.41225e-06
9.33937e-06
9.27595e-06
9.23235e-06
9.19883e-06
9.226e-06
9.41928e-06
9.06672e-06
8.81448e-06
8.79743e-06
8.83524e-06
8.88605e-06
8.93688e-06
8.97603e-06
9.00914e-06
9.02463e-06
9.02297e-06
9.01407e-06
8.99849e-06
8.96843e-06
8.93158e-06
8.90591e-06
8.90951e-06
8.94229e-06
8.9739e-06
8.99903e-06
9.01811e-06
9.0291e-06
9.02963e-06
9.00641e-06
8.96919e-06
8.92778e-06
8.8868e-06
8.84864e-06
8.8114e-06
8.83046e-06
9.07333e-06
8.72687e-06
8.47966e-06
8.46277e-06
8.49217e-06
8.52616e-06
8.55265e-06
8.56989e-06
8.57361e-06
8.56327e-06
8.54514e-06
8.51882e-06
8.48335e-06
8.43716e-06
8.39405e-06
8.36795e-06
8.37366e-06
8.40367e-06
8.44057e-06
8.48208e-06
8.52304e-06
8.55613e-06
8.57437e-06
8.57393e-06
8.56254e-06
8.54557e-06
8.52292e-06
8.49303e-06
8.46701e-06
8.49171e-06
8.73095e-06
8.39346e-06
8.18025e-06
8.15473e-06
8.16843e-06
8.17991e-06
8.1885e-06
8.18563e-06
8.16668e-06
8.14051e-06
8.10665e-06
8.06471e-06
8.01672e-06
7.96502e-06
7.91987e-06
7.89136e-06
7.89406e-06
7.92373e-06
7.96827e-06
8.02285e-06
8.07833e-06
8.12644e-06
8.16102e-06
8.17982e-06
8.18711e-06
8.18459e-06
8.17442e-06
8.15801e-06
8.14625e-06
8.17728e-06
8.39993e-06
8.09006e-06
7.88442e-06
7.85456e-06
7.85829e-06
7.8612e-06
7.85779e-06
7.83507e-06
7.80336e-06
7.76884e-06
7.72462e-06
7.67094e-06
7.61276e-06
7.55441e-06
7.50446e-06
7.47158e-06
7.47072e-06
7.50149e-06
7.55316e-06
7.61766e-06
7.68308e-06
7.74187e-06
7.78842e-06
7.81992e-06
7.83873e-06
7.8488e-06
7.85094e-06
7.84739e-06
7.84639e-06
7.87934e-06
8.08422e-06
7.78105e-06
7.5905e-06
7.5689e-06
7.56675e-06
7.56103e-06
7.54399e-06
7.51456e-06
7.48434e-06
7.44706e-06
7.39532e-06
7.33285e-06
7.26591e-06
7.20137e-06
7.14711e-06
7.11145e-06
7.10857e-06
7.13953e-06
7.19376e-06
7.26121e-06
7.33e-06
7.39363e-06
7.44809e-06
7.49045e-06
7.52016e-06
7.5402e-06
7.55262e-06
7.55913e-06
7.56476e-06
7.59781e-06
7.7836e-06
7.48779e-06
7.33262e-06
7.3067e-06
7.29479e-06
7.27855e-06
7.25528e-06
7.22864e-06
7.19756e-06
7.15355e-06
7.0956e-06
7.02837e-06
6.95724e-06
6.88901e-06
6.83058e-06
6.79181e-06
6.78707e-06
6.81835e-06
6.87487e-06
6.94504e-06
7.01778e-06
7.08648e-06
7.14673e-06
7.19524e-06
7.23142e-06
7.25894e-06
7.27958e-06
7.29393e-06
7.30483e-06
7.33761e-06
7.50283e-06
7.23542e-06
7.10263e-06
7.06681e-06
7.04727e-06
7.02808e-06
7.00648e-06
6.97892e-06
6.94091e-06
6.89141e-06
6.83125e-06
6.76328e-06
6.69083e-06
6.62058e-06
6.56058e-06
6.52186e-06
6.51882e-06
6.55239e-06
6.61096e-06
6.68227e-06
6.75536e-06
6.82378e-06
6.8849e-06
6.93672e-06
6.9783e-06
7.01096e-06
7.03599e-06
7.05441e-06
7.06877e-06
7.10023e-06
7.2441e-06
7.00397e-06
6.88389e-06
6.84899e-06
6.83224e-06
6.81719e-06
6.79504e-06
6.76067e-06
6.71743e-06
6.66701e-06
6.60642e-06
6.53777e-06
6.46484e-06
6.39525e-06
6.33767e-06
6.30215e-06
6.30142e-06
6.33549e-06
6.3929e-06
6.46228e-06
6.53368e-06
6.60111e-06
6.66235e-06
6.71545e-06
6.75956e-06
6.79427e-06
6.82106e-06
6.84119e-06
6.85649e-06
6.8848e-06
7.00812e-06
6.79456e-06
6.68791e-06
6.66116e-06
6.65032e-06
6.63379e-06
6.60603e-06
6.56885e-06
6.52708e-06
6.47736e-06
6.41672e-06
6.34791e-06
6.27632e-06
6.20966e-06
6.15556e-06
6.12274e-06
6.12319e-06
6.15689e-06
6.21232e-06
6.27858e-06
6.3469e-06
6.41249e-06
6.4729e-06
6.52602e-06
6.57046e-06
6.60552e-06
6.63212e-06
6.65162e-06
6.66603e-06
6.69053e-06
6.79518e-06
6.60219e-06
6.51258e-06
6.49357e-06
6.48171e-06
6.46168e-06
6.43391e-06
6.4015e-06
6.36266e-06
6.31326e-06
6.25438e-06
6.18931e-06
6.12335e-06
6.0624e-06
6.012e-06
5.98042e-06
5.98026e-06
6.01198e-06
6.06405e-06
6.12609e-06
6.19033e-06
6.25287e-06
6.31094e-06
6.36223e-06
6.40466e-06
6.43791e-06
6.4629e-06
6.48117e-06
6.49475e-06
6.51611e-06
6.60368e-06
6.42829e-06
6.35838e-06
6.34042e-06
6.3255e-06
6.30797e-06
6.2859e-06
6.2576e-06
6.21903e-06
6.17119e-06
6.11683e-06
6.05858e-06
6.00018e-06
5.94455e-06
5.89621e-06
5.86504e-06
5.86435e-06
5.89457e-06
5.94355e-06
6.00072e-06
6.05929e-06
6.11622e-06
6.16911e-06
6.216e-06
6.25517e-06
6.28628e-06
6.31007e-06
6.32763e-06
6.34064e-06
6.35931e-06
6.43176e-06
6.28352e-06
6.22418e-06
6.20417e-06
6.19232e-06
6.17871e-06
6.15916e-06
6.13101e-06
6.09356e-06
6.05033e-06
6.00269e-06
5.95251e-06
5.90129e-06
5.85007e-06
5.80396e-06
5.77466e-06
5.7746e-06
5.80264e-06
5.84668e-06
5.89707e-06
5.94849e-06
5.99852e-06
6.04563e-06
6.08763e-06
6.12332e-06
6.15237e-06
6.17491e-06
6.19151e-06
6.20365e-06
6.21983e-06
6.27927e-06
6.15427e-06
6.10007e-06
6.08673e-06
6.07909e-06
6.06497e-06
6.04501e-06
6.018e-06
5.98542e-06
5.94884e-06
5.90861e-06
5.866e-06
5.82081e-06
5.77426e-06
5.73281e-06
5.7072e-06
5.70692e-06
5.73041e-06
5.7677e-06
5.81122e-06
5.85685e-06
5.90167e-06
5.94359e-06
5.98095e-06
6.01285e-06
6.03894e-06
6.05912e-06
6.07381e-06
6.08448e-06
6.09815e-06
6.1462e-06
6.03311e-06
5.99559e-06
5.99054e-06
5.98061e-06
5.96527e-06
5.94684e-06
5.92391e-06
5.89709e-06
5.86588e-06
5.83136e-06
5.79418e-06
5.75387e-06
5.71289e-06
5.67782e-06
5.65623e-06
5.65462e-06
5.67298e-06
5.70455e-06
5.74322e-06
5.78465e-06
5.82539e-06
5.8627e-06
5.89523e-06
5.92243e-06
5.94418e-06
5.96079e-06
5.97294e-06
5.98204e-06
5.99354e-06
6.03187e-06
5.93863e-06
5.92007e-06
5.91041e-06
5.89685e-06
5.8835e-06
5.86818e-06
5.84935e-06
5.82637e-06
5.79926e-06
5.76952e-06
5.73705e-06
5.70193e-06
5.66739e-06
5.63857e-06
5.61997e-06
5.61701e-06
5.63126e-06
5.65842e-06
5.69284e-06
5.72961e-06
5.76505e-06
5.79682e-06
5.82378e-06
5.8458e-06
5.86326e-06
5.87686e-06
5.88741e-06
5.89582e-06
5.90582e-06
5.9358e-06
5.87012e-06
5.85153e-06
5.83572e-06
5.82542e-06
5.81596e-06
5.80354e-06
5.78771e-06
5.76798e-06
5.74538e-06
5.72062e-06
5.69308e-06
5.66365e-06
5.63549e-06
5.61151e-06
5.59477e-06
5.59128e-06
5.603e-06
5.62597e-06
5.65472e-06
5.68483e-06
5.71343e-06
5.73915e-06
5.76143e-06
5.7802e-06
5.79567e-06
5.8082e-06
5.81822e-06
5.82618e-06
5.83439e-06
5.85621e-06
5.80262e-06
5.77829e-06
5.7703e-06
5.76686e-06
5.76028e-06
5.74973e-06
5.73579e-06
5.71913e-06
5.70085e-06
5.68025e-06
5.65668e-06
5.63193e-06
5.6086e-06
5.58813e-06
5.57366e-06
5.57108e-06
5.58141e-06
5.6001e-06
5.62275e-06
5.6462e-06
5.66894e-06
5.6906e-06
5.71073e-06
5.72846e-06
5.74316e-06
5.75483e-06
5.76377e-06
5.77017e-06
5.77543e-06
5.78924e-06
5.73468e-06
5.72251e-06
5.72522e-06
5.7236e-06
5.71685e-06
5.70644e-06
5.69362e-06
5.67982e-06
5.66482e-06
5.64669e-06
5.62579e-06
5.60482e-06
5.5852e-06
5.56797e-06
5.55602e-06
5.55454e-06
5.56397e-06
5.57937e-06
5.59732e-06