/*--------------------------------*- C++ -*----------------------------------*\
| =========                 |                                                 |
| \\      /  F ield         | OpenFOAM: The Open Source CFD Toolbox           |
|  \\    /   O peration     | Version:  2312                                  |
|   \\  /    A nd           | Website:  www.openfoam.com                      |
|    \\/     M anipulation  |                                                 |
\*---------------------------------------------------------------------------*/
FoamFile
{
    version     2.0;
    format      ascii;
    arch        "LSB;label=32;scalar=64";
    class       volScalarField;
    location    "1.01077";
    object      p;
}
// * * * * * * * * * * * * * * * * * * * * * * * * * * * * * * * * * * * * * //

dimensions      [1 -1 -2 0 0 0 0];

internalField   nonuniform List<scalar> 
90000
(
4850.09
4850.09
4850.09
4850.09
4850.09
4850.08
4850.08
4850.08
4850.08
4850.08
4850.08
4850.08
4850.08
4850.08
4850.08
4850.08
4850.08
4850.08
4850.08
4850.08
4850.08
4850.08
4850.08
4850.08
4850.08
4850.09
4850.09
4850.09
4850.09
4850.08
4751.98
4751.98
4751.98
4751.98
4751.98
4751.98
4751.98
4751.98
4751.98
4751.98
4751.98
4751.98
4751.98
4751.98
4751.98
4751.98
4751.98
4751.98
4751.98
4751.98
4751.98
4751.98
4751.98
4751.98
4751.98
4751.98
4751.98
4751.99
4751.99
4751.99
4653.88
4653.88
4653.88
4653.88
4653.88
4653.88
4653.88
4653.88
4653.88
4653.88
4653.88
4653.88
4653.88
4653.88
4653.88
4653.88
4653.88
4653.88
4653.88
4653.88
4653.88
4653.88
4653.88
4653.88
4653.88
4653.88
4653.88
4653.88
4653.89
4653.89
4555.77
4555.77
4555.77
4555.78
4555.78
4555.78
4555.78
4555.78
4555.78
4555.78
4555.78
4555.78
4555.78
4555.78
4555.78
4555.78
4555.78
4555.78
4555.78
4555.78
4555.78
4555.78
4555.78
4555.78
4555.78
4555.78
4555.78
4555.78
4555.78
4555.78
4457.67
4457.67
4457.67
4457.67
4457.67
4457.67
4457.68
4457.68
4457.68
4457.68
4457.68
4457.68
4457.68
4457.68
4457.68
4457.68
4457.68
4457.68
4457.68
4457.68
4457.68
4457.68
4457.68
4457.68
4457.68
4457.68
4457.68
4457.68
4457.68
4457.68
4359.57
4359.57
4359.57
4359.57
4359.57
4359.57
4359.57
4359.58
4359.58
4359.58
4359.58
4359.58
4359.58
4359.58
4359.58
4359.58
4359.58
4359.58
4359.58
4359.58
4359.58
4359.58
4359.58
4359.58
4359.58
4359.58
4359.58
4359.58
4359.58
4359.58
4261.47
4261.47
4261.47
4261.47
4261.47
4261.47
4261.47
4261.47
4261.47
4261.48
4261.48
4261.48
4261.48
4261.48
4261.48
4261.48
4261.48
4261.48
4261.48
4261.48
4261.48
4261.48
4261.48
4261.48
4261.48
4261.48
4261.48
4261.48
4261.48
4261.48
4163.37
4163.38
4163.37
4163.37
4163.37
4163.37
4163.37
4163.37
4163.37
4163.37
4163.38
4163.38
4163.38
4163.38
4163.38
4163.38
4163.38
4163.38
4163.38
4163.38
4163.38
4163.38
4163.38
4163.38
4163.38
4163.38
4163.38
4163.38
4163.38
4163.38
4065.28
4065.28
4065.28
4065.28
4065.28
4065.28
4065.28
4065.27
4065.27
4065.27
4065.28
4065.28
4065.28
4065.28
4065.28
4065.28
4065.28
4065.28
4065.28
4065.28
4065.28
4065.28
4065.28
4065.28
4065.28
4065.28
4065.28
4065.28
4065.28
4065.28
3967.18
3967.18
3967.18
3967.18
3967.18
3967.18
3967.18
3967.18
3967.18
3967.18
3967.18
3967.18
3967.18
3967.18
3967.18
3967.18
3967.18
3967.18
3967.18
3967.18
3967.18
3967.18
3967.18
3967.18
3967.18
3967.18
3967.18
3967.18
3967.18
3967.18
3869.08
3869.08
3869.08
3869.08
3869.08
3869.08
3869.08
3869.08
3869.08
3869.08
3869.08
3869.08
3869.08
3869.08
3869.08
3869.08
3869.08
3869.08
3869.08
3869.08
3869.08
3869.08
3869.08
3869.08
3869.08
3869.08
3869.08
3869.08
3869.08
3869.08
3770.98
3770.98
3770.98
3770.98
3770.98
3770.98
3770.98
3770.98
3770.98
3770.98
3770.98
3770.98
3770.98
3770.98
3770.98
3770.98
3770.98
3770.98
3770.98
3770.98
3770.98
3770.98
3770.98
3770.98
3770.98
3770.98
3770.98
3770.98
3770.98
3770.98
3672.88
3672.88
3672.88
3672.88
3672.88
3672.88
3672.88
3672.88
3672.88
3672.88
3672.88
3672.88
3672.88
3672.88
3672.88
3672.88
3672.88
3672.88
3672.88
3672.88
3672.88
3672.88
3672.88
3672.88
3672.88
3672.88
3672.88
3672.88
3672.88
3672.88
3574.77
3574.77
3574.77
3574.77
3574.78
3574.78
3574.78
3574.78
3574.78
3574.78
3574.78
3574.78
3574.78
3574.78
3574.78
3574.78
3574.78
3574.78
3574.78
3574.78
3574.78
3574.78
3574.78
3574.78
3574.78
3574.78
3574.78
3574.78
3574.78
3574.78
3476.67
3476.67
3476.67
3476.67
3476.68
3476.68
3476.68
3476.68
3476.68
3476.68
3476.68
3476.68
3476.68
3476.68
3476.68
3476.68
3476.68
3476.68
3476.68
3476.68
3476.68
3476.68
3476.68
3476.68
3476.68
3476.68
3476.68
3476.68
3476.68
3476.68
3378.57
3378.57
3378.58
3378.58
3378.58
3378.58
3378.58
3378.58
3378.58
3378.58
3378.58
3378.58
3378.58
3378.58
3378.58
3378.58
3378.58
3378.58
3378.58
3378.58
3378.58
3378.58
3378.58
3378.58
3378.58
3378.58
3378.58
3378.58
3378.58
3378.58
3280.48
3280.48
3280.48
3280.48
3280.48
3280.48
3280.48
3280.48
3280.48
3280.48
3280.48
3280.49
3280.49
3280.49
3280.49
3280.48
3280.48
3280.48
3280.48
3280.48
3280.48
3280.48
3280.48
3280.48
3280.48
3280.48
3280.48
3280.48
3280.48
3280.48
3182.38
3182.38
3182.38
3182.38
3182.38
3182.38
3182.38
3182.38
3182.39
3182.39
3182.39
3182.39
3182.39
3182.39
3182.39
3182.39
3182.39
3182.38
3182.38
3182.38
3182.38
3182.38
3182.38
3182.38
3182.38
3182.38
3182.38
3182.38
3182.38
3182.38
3084.29
3084.29
3084.29
3084.29
3084.29
3084.29
3084.29
3084.29
3084.29
3084.29
3084.29
3084.29
3084.29
3084.29
3084.29
3084.29
3084.29
3084.29
3084.29
3084.28
3084.28
3084.28
3084.28
3084.28
3084.28
3084.28
3084.28
3084.28
3084.28
3084.28
2986.19
2986.19
2986.19
2986.19
2986.19
2986.19
2986.19
2986.19
2986.19
2986.19
2986.19
2986.19
2986.19
2986.19
2986.19
2986.19
2986.19
2986.19
2986.19
2986.19
2986.18
2986.18
2986.18
2986.18
2986.18
2986.18
2986.18
2986.18
2986.18
2986.18
2888.09
2888.09
2888.09
2888.09
2888.09
2888.09
2888.09
2888.09
2888.09
2888.09
2888.09
2888.09
2888.09
2888.09
2888.09
2888.09
2888.09
2888.09
2888.09
2888.09
2888.09
2888.08
2888.08
2888.08
2888.08
2888.08
2888.08
2888.08
2888.08
2888.08
2789.98
2789.99
2789.98
2789.98
2789.98
2789.98
2789.98
2789.98
2789.98
2789.98
2789.98
2789.98
2789.98
2789.99
2789.99
2789.99
2789.99
2789.99
2789.99
2789.99
2789.99
2789.99
2789.99
2789.99
2789.98
2789.98
2789.98
2789.98
2789.98
2789.98
2691.88
2691.88
2691.88
2691.88
2691.88
2691.88
2691.88
2691.88
2691.88
2691.88
2691.88
2691.88
2691.89
2691.89
2691.89
2691.89
2691.89
2691.89
2691.89
2691.89
2691.89
2691.89
2691.88
2691.88
2691.88
2691.88
2691.88
2691.88
2691.88
2691.88
2593.78
2593.78
2593.78
2593.78
2593.78
2593.78
2593.78
2593.78
2593.78
2593.78
2593.78
2593.78
2593.79
2593.79
2593.79
2593.79
2593.79
2593.79
2593.78
2593.78
2593.78
2593.78
2593.78
2593.78
2593.78
2593.78
2593.78
2593.78
2593.78
2593.78
2495.67
2495.67
2495.67
2495.67
2495.67
2495.68
2495.68
2495.68
2495.68
2495.68
2495.68
2495.68
2495.69
2495.69
2495.69
2495.69
2495.69
2495.68
2495.68
2495.68
2495.68
2495.68
2495.68
2495.68
2495.68
2495.67
2495.67
2495.67
2495.67
2495.67
2397.57
2397.57
2397.57
2397.57
2397.57
2397.57
2397.57
2397.58
2397.58
2397.58
2397.58
2397.58
2397.59
2397.59
2397.59
2397.59
2397.59
2397.59
2397.58
2397.58
2397.58
2397.58
2397.57
2397.57
2397.57
2397.57
2397.57
2397.57
2397.57
2397.57
2299.46
2299.46
2299.46
2299.46
2299.47
2299.47
2299.47
2299.47
2299.48
2299.48
2299.48
2299.49
2299.49
2299.49
2299.49
2299.49
2299.49
2299.49
2299.48
2299.48
2299.48
2299.47
2299.47
2299.47
2299.47
2299.47
2299.46
2299.46
2299.46
2299.46
2201.36
2201.36
2201.36
2201.36
2201.36
2201.37
2201.37
2201.37
2201.38
2201.38
2201.38
2201.39
2201.39
2201.39
2201.39
2201.39
2201.39
2201.39
2201.38
2201.38
2201.38
2201.37
2201.37
2201.37
2201.36
2201.36
2201.36
2201.36
2201.36
2201.36
2103.25
2103.25
2103.25
2103.26
2103.26
2103.26
2103.27
2103.27
2103.28
2103.28
2103.28
2103.29
2103.29
2103.29
2103.29
2103.29
2103.29
2103.29
2103.29
2103.28
2103.28
2103.27
2103.27
2103.26
2103.26
2103.26
2103.25
2103.25
2103.25
2103.25
2005.14
2005.14
2005.15
2005.15
2005.15
2005.16
2005.16
2005.17
2005.18
2005.18
2005.19
2005.19
2005.19
2005.2
2005.2
2005.2
2005.2
2005.19
2005.19
2005.19
2005.18
2005.17
2005.17
2005.16
2005.16
2005.15
2005.15
2005.14
2005.14
2005.14
1907.03
1907.03
1907.04
1907.04
1907.05
1907.05
1907.06
1907.07
1907.08
1907.08
1907.09
1907.1
1907.1
1907.1
1907.11
1907.11
1907.1
1907.1
1907.1
1907.09
1907.08
1907.08
1907.07
1907.06
1907.05
1907.05
1907.04
1907.04
1907.03
1907.03
1808.92
1808.92
1808.93
1808.93
1808.94
1808.95
1808.96
1808.97
1808.98
1808.99
1808.99
1809
1809.01
1809.01
1809.01
1809.01
1809.01
1809.01
1809
1808.99
1808.99
1808.98
1808.97
1808.96
1808.95
1808.94
1808.93
1808.92
1808.92
1808.92
1710.8
1710.8
1710.81
1710.82
1710.83
1710.84
1710.85
1710.86
1710.88
1710.89
1710.9
1710.91
1710.92
1710.93
1710.93
1710.93
1710.93
1710.92
1710.91
1710.9
1710.89
1710.88
1710.86
1710.85
1710.84
1710.83
1710.82
1710.81
1710.8
1710.8
1612.68
1612.68
1612.69
1612.7
1612.71
1612.73
1612.74
1612.76
1612.78
1612.8
1612.81
1612.83
1612.84
1612.84
1612.85
1612.85
1612.84
1612.84
1612.83
1612.81
1612.8
1612.78
1612.76
1612.74
1612.73
1612.71
1612.7
1612.69
1612.68
1612.68
1514.55
1514.55
1514.56
1514.57
1514.59
1514.61
1514.63
1514.66
1514.68
1514.71
1514.73
1514.74
1514.76
1514.77
1514.78
1514.78
1514.77
1514.76
1514.75
1514.73
1514.71
1514.69
1514.66
1514.64
1514.61
1514.59
1514.57
1514.56
1514.55
1514.55
1416.41
1416.41
1416.42
1416.44
1416.47
1416.49
1416.52
1416.56
1416.59
1416.62
1416.65
1416.67
1416.69
1416.71
1416.71
1416.71
1416.71
1416.69
1416.68
1416.65
1416.62
1416.59
1416.56
1416.53
1416.5
1416.47
1416.44
1416.43
1416.41
1416.41
1318.25
1318.26
1318.28
1318.3
1318.34
1318.37
1318.41
1318.46
1318.5
1318.54
1318.58
1318.61
1318.64
1318.66
1318.67
1318.67
1318.66
1318.64
1318.62
1318.58
1318.54
1318.5
1318.46
1318.42
1318.38
1318.34
1318.31
1318.28
1318.26
1318.25
1220.08
1220.09
1220.12
1220.15
1220.2
1220.25
1220.3
1220.36
1220.42
1220.47
1220.53
1220.57
1220.6
1220.63
1220.64
1220.64
1220.63
1220.61
1220.57
1220.53
1220.48
1220.42
1220.36
1220.3
1220.25
1220.2
1220.15
1220.12
1220.1
1220.08
1121.89
1121.9
1121.94
1121.98
1122.04
1122.11
1122.19
1122.27
1122.35
1122.42
1122.49
1122.55
1122.59
1122.63
1122.64
1122.64
1122.63
1122.59
1122.55
1122.49
1122.42
1122.35
1122.27
1122.19
1122.11
1122.05
1121.99
1121.94
1121.91
1121.89
1023.66
1023.68
1023.73
1023.79
1023.87
1023.96
1024.07
1024.17
1024.28
1024.38
1024.48
1024.55
1024.62
1024.66
1024.68
1024.68
1024.66
1024.62
1024.56
1024.48
1024.39
1024.28
1024.18
1024.07
1023.97
1023.87
1023.79
1023.73
1023.68
1023.66
925.386
925.416
925.475
925.562
925.672
925.8
925.941
926.087
926.233
926.371
926.496
926.601
926.685
926.743
926.772
926.773
926.744
926.686
926.603
926.498
926.374
926.237
926.092
925.946
925.806
925.677
925.567
925.479
925.419
925.388
827.051
827.092
827.172
827.29
827.44
827.616
827.808
828.007
828.205
828.391
828.561
828.704
828.816
828.894
828.934
828.934
828.895
828.817
828.704
828.563
828.395
828.209
828.012
827.813
827.621
827.446
827.296
827.177
827.097
827.056
728.635
728.69
728.799
728.96
729.165
729.403
729.665
729.936
730.205
730.459
730.688
730.883
731.033
731.137
731.191
731.192
731.139
731.036
730.886
730.692
730.463
730.21
729.941
729.67
729.408
729.169
728.965
728.805
728.697
728.642
630.109
630.181
630.329
630.546
630.825
631.151
631.509
631.879
632.246
632.592
632.902
633.165
633.367
633.508
633.581
633.583
633.511
633.372
633.17
632.908
632.598
632.252
631.885
631.514
631.155
630.829
630.551
630.334
630.188
630.116
531.433
531.527
531.721
532.015
532.396
532.843
533.333
533.84
534.342
534.813
535.232
535.587
535.864
536.046
536.149
536.151
536.052
535.871
535.596
535.241
534.821
534.349
533.846
533.338
532.847
532.4
532.02
531.727
531.534
531.441
432.568
432.677
432.926
433.324
433.846
434.459
435.128
435.825
436.516
437.157
437.724
438.203
438.579
438.841
438.967
438.97
438.85
438.592
438.217
437.737
437.169
436.525
435.832
435.134
434.464
433.85
433.327
432.932
432.685
432.577
333.479
333.563
333.874
334.412
335.125
335.969
336.88
337.838
338.806
339.677
340.437
341.071
341.585
341.964
342.141
342.148
341.98
341.608
341.089
340.455
339.695
338.818
337.847
336.887
335.975
335.129
334.411
333.874
333.568
333.485
234.218
234.127
234.451
235.207
236.17
237.332
238.545
239.859
241.258
242.405
243.391
244.22
244.916
245.48
245.606
245.613
245.511
244.961
244.229
243.418
242.435
241.275
239.869
238.555
237.339
236.168
235.199
234.441
234.122
234.208
135.152
134.161
134.419
135.795
136.742
138.487
140.069
141.7
144.114
145.73
146.652
147.941
149.193
149.888
149.815
149.82
149.96
149.299
147.985
146.698
145.79
144.145
141.708
140.086
138.504
136.723
135.77
134.393
134.134
135.077
47.9863
45.5829
45.7514
47.5649
46.9195
49.2017
50.7555
50.5053
54.5914
56.8639
56.0132
57.931
59.9635
61.1241
59.9421
59.9063
61.1928
60.1064
57.9164
56.0272
56.9697
54.6186
50.4925
50.7749
49.2322
46.8982
47.5286
45.6832
45.4915
47.8358
2.13408
1.71939
1.57381
2.11146
1.10736
2.48093
2.9811
1.36438
4.47462
5.94014
3.57563
5.55114
6.84214
7.53662
5.98321
5.92241
7.53757
6.94451
5.44465
3.58563
6.03809
4.48524
1.35443
2.98568
2.50671
1.1014
2.09648
1.54656
1.66249
2.12824
-4.87339
-4.81941
-4.86686
-4.94861
-4.9144
-4.94459
-4.96901
-4.94958
-4.9668
-5.01201
-4.97329
-4.97789
-4.9651
-5.00827
-4.95554
-4.95361
-5.00801
-4.96713
-4.96633
-4.96535
-5.01105
-4.96116
-4.948
-4.96896
-4.94388
-4.91268
-4.94629
-4.86108
-4.81952
-4.86229
-5.1156
-5.10239
-5.08932
-5.09803
-5.10426
-5.10327
-5.10564
-5.10678
-5.12218
-5.126
-5.12064
-5.12379
-5.13218
-5.12911
-5.12061
-5.11978
-5.12953
-5.13408
-5.11994
-5.11872
-5.12527
-5.12263
-5.10671
-5.10539
-5.10363
-5.10464
-5.09734
-5.08628
-5.10007
-5.11704
-5.22816
-5.22694
-5.2251
-5.22118
-5.22508
-5.22825
-5.22409
-5.22764
-5.23511
-5.23287
-5.23359
-5.2363
-5.23722
-5.23512
-5.23643
-5.23733
-5.23571
-5.23708
-5.2385
-5.23506
-5.23375
-5.23572
-5.22797
-5.22463
-5.22887
-5.22549
-5.22167
-5.22601
-5.22768
-5.22905
-5.33106
-5.33106
-5.32859
-5.3267
-5.32713
-5.32899
-5.32877
-5.32914
-5.33148
-5.3312
-5.33262
-5.33321
-5.33301
-5.33149
-5.33243
-5.33267
-5.33204
-5.33319
-5.33364
-5.33307
-5.33172
-5.3324
-5.32985
-5.32967
-5.33009
-5.32801
-5.32761
-5.32993
-5.33205
-5.33171
-5.42902
-5.42823
-5.42709
-5.42599
-5.42637
-5.4274
-5.42784
-5.42804
-5.42884
-5.42917
-5.43006
-5.4303
-5.43025
-5.42976
-5.42957
-5.42971
-5.43009
-5.43063
-5.43068
-5.43055
-5.42969
-5.42959
-5.42874
-5.42865
-5.4283
-5.42726
-5.42695
-5.42836
-5.42933
-5.4298
-5.52652
-5.52602
-5.52578
-5.52536
-5.52561
-5.52621
-5.52662
-5.52686
-5.52723
-5.52748
-5.52797
-5.52834
-5.52863
-5.52861
-5.52876
-5.52885
-5.52879
-5.52893
-5.52873
-5.52847
-5.52806
-5.52793
-5.52758
-5.52739
-5.52704
-5.52646
-5.52618
-5.52672
-5.52699
-5.52735
-5.62517
-5.62501
-5.62493
-5.62477
-5.62484
-5.62512
-5.62538
-5.62562
-5.62586
-5.6261
-5.62641
-5.62671
-5.62701
-5.62719
-5.62741
-5.62749
-5.62737
-5.6273
-5.62708
-5.62686
-5.62667
-5.62654
-5.62632
-5.62614
-5.62596
-5.62569
-5.62557
-5.62566
-5.62577
-5.62596
-5.72433
-5.72427
-5.72416
-5.72404
-5.72405
-5.72421
-5.72443
-5.72466
-5.72491
-5.72514
-5.72537
-5.72557
-5.72577
-5.72595
-5.72612
-5.72619
-5.72612
-5.72603
-5.7259
-5.72576
-5.72564
-5.72553
-5.72536
-5.72519
-5.72504
-5.72488
-5.72482
-5.7248
-5.72481
-5.7249
-5.82361
-5.82352
-5.82342
-5.82334
-5.82334
-5.82346
-5.82367
-5.82392
-5.82419
-5.82444
-5.82465
-5.82482
-5.82497
-5.82511
-5.82523
-5.82529
-5.82527
-5.82521
-5.82511
-5.82499
-5.82486
-5.82473
-5.82458
-5.82442
-5.82427
-5.82413
-5.82404
-5.82398
-5.82396
-5.82399
-5.92283
-5.92276
-5.92272
-5.92268
-5.9227
-5.92281
-5.92302
-5.92328
-5.92356
-5.92381
-5.92403
-5.92422
-5.92438
-5.92451
-5.92462
-5.92467
-5.92466
-5.9246
-5.92449
-5.92436
-5.92421
-5.92404
-5.92387
-5.92368
-5.92352
-5.92337
-5.92326
-5.92319
-5.92316
-5.92316
-6.02205
-6.02205
-6.02204
-6.02203
-6.02207
-6.02219
-6.0224
-6.02267
-6.02294
-6.02321
-6.02345
-6.02366
-6.02383
-6.02397
-6.02407
-6.02412
-6.02412
-6.02406
-6.02395
-6.0238
-6.02362
-6.02341
-6.02319
-6.02296
-6.02276
-6.02259
-6.02247
-6.0224
-6.02237
-6.02237
-6.12128
-6.12131
-6.12131
-6.12133
-6.12141
-6.12156
-6.12179
-6.12205
-6.12232
-6.1226
-6.12285
-6.12308
-6.12327
-6.12342
-6.12352
-6.12358
-6.12358
-6.12351
-6.12338
-6.1232
-6.12298
-6.12273
-6.12246
-6.12219
-6.12196
-6.12179
-6.12167
-6.1216
-6.12157
-6.12157
-6.22046
-6.22047
-6.2205
-6.22057
-6.2207
-6.22089
-6.22112
-6.22138
-6.22165
-6.22193
-6.2222
-6.22244
-6.22264
-6.22279
-6.2229
-6.22294
-6.22293
-6.22285
-6.22269
-6.22247
-6.22221
-6.22193
-6.22164
-6.22136
-6.22113
-6.22096
-6.22085
-6.22078
-6.22075
-6.22074
-6.31955
-6.31957
-6.31964
-6.31976
-6.31993
-6.32013
-6.32035
-6.3206
-6.32087
-6.32115
-6.32143
-6.32168
-6.32188
-6.32203
-6.32212
-6.32215
-6.3221
-6.32199
-6.3218
-6.32156
-6.32129
-6.321
-6.32072
-6.32047
-6.32026
-6.32009
-6.31998
-6.31991
-6.31987
-6.31985
-6.4186
-6.41865
-6.41875
-6.41889
-6.41906
-6.41925
-6.41946
-6.41969
-6.41995
-6.42023
-6.4205
-6.42076
-6.42096
-6.4211
-6.42117
-6.42117
-6.4211
-6.42097
-6.42077
-6.42053
-6.42026
-6.41999
-6.41974
-6.41951
-6.41931
-6.41916
-6.41904
-6.41896
-6.41891
-6.41888
-6.51764
-6.51769
-6.51779
-6.51792
-6.51808
-6.51826
-6.51845
-6.51868
-6.51892
-6.51919
-6.51945
-6.51969
-6.51988
-6.52001
-6.52006
-6.52005
-6.51996
-6.51982
-6.51963
-6.5194
-6.51916
-6.51891
-6.51868
-6.51847
-6.51829
-6.51814
-6.51801
-6.51792
-6.51786
-6.51783
-6.61659
-6.61663
-6.61672
-6.61684
-6.61699
-6.61717
-6.61736
-6.61757
-6.6178
-6.61805
-6.61828
-6.6185
-6.61866
-6.61877
-6.61881
-6.61877
-6.61868
-6.61854
-6.61837
-6.61817
-6.61795
-6.61773
-6.61753
-6.61733
-6.61716
-6.61701
-6.61689
-6.6168
-6.61673
-6.6167
-6.71544
-6.71547
-6.71556
-6.71567
-6.71582
-6.71599
-6.71618
-6.71637
-6.71658
-6.71679
-6.71698
-6.71716
-6.71729
-6.71737
-6.7174
-6.71736
-6.71727
-6.71715
-6.71699
-6.71682
-6.71663
-6.71644
-6.71626
-6.71609
-6.71594
-6.7158
-6.71569
-6.7156
-6.71554
-6.71552
-6.81423
-6.81426
-6.81434
-6.81445
-6.81459
-6.81474
-6.8149
-6.81507
-6.81523
-6.81539
-6.81554
-6.81567
-6.81577
-6.81584
-6.81585
-6.81583
-6.81576
-6.81565
-6.81552
-6.81538
-6.81523
-6.81507
-6.81492
-6.81478
-6.81464
-6.81453
-6.81443
-6.81436
-6.81431
-6.81429
-6.91298
-6.91303
-6.9131
-6.91319
-6.91329
-6.91341
-6.91353
-6.91365
-6.91377
-6.91388
-6.91398
-6.91407
-6.91414
-6.91419
-6.91421
-6.9142
-6.91416
-6.91409
-6.914
-6.91389
-6.91377
-6.91365
-6.91353
-6.91341
-6.91331
-6.91321
-6.91313
-6.91307
-6.91302
-6.913
-7.01168
-7.01173
-7.01178
-7.01184
-7.01191
-7.01198
-7.01206
-7.01214
-7.01221
-7.01228
-7.01234
-7.01239
-7.01244
-7.01248
-7.01251
-7.01251
-7.0125
-7.01246
-7.01241
-7.01234
-7.01226
-7.01217
-7.01208
-7.01199
-7.0119
-7.01182
-7.01175
-7.01169
-7.01165
-7.01162
-7.11028
-7.11032
-7.11035
-7.11038
-7.11042
-7.11046
-7.1105
-7.11054
-7.11058
-7.11062
-7.11066
-7.11069
-7.11073
-7.11076
-7.11078
-7.1108
-7.1108
-7.11079
-7.11076
-7.11072
-7.11067
-7.1106
-7.11054
-7.11046
-7.11039
-7.11033
-7.11027
-7.11021
-7.11017
-7.11014
-7.20874
-7.20876
-7.20878
-7.20879
-7.20881
-7.20883
-7.20886
-7.20888
-7.20891
-7.20894
-7.20897
-7.209
-7.20902
-7.20905
-7.20907
-7.20908
-7.20909
-7.20908
-7.20907
-7.20904
-7.209
-7.20895
-7.2089
-7.20884
-7.20878
-7.20872
-7.20866
-7.20861
-7.20857
-7.20854
-7.30706
-7.30707
-7.30708
-7.30709
-7.3071
-7.30712
-7.30715
-7.30718
-7.30721
-7.30725
-7.30728
-7.30731
-7.30733
-7.30735
-7.30736
-7.30737
-7.30737
-7.30736
-7.30734
-7.30731
-7.30727
-7.30723
-7.30718
-7.30712
-7.30707
-7.30701
-7.30696
-7.30692
-7.30688
-7.30686
-7.40528
-7.40528
-7.40529
-7.40531
-7.40533
-7.40536
-7.4054
-7.40544
-7.40549
-7.40553
-7.40558
-7.40561
-7.40564
-7.40566
-7.40566
-7.40566
-7.40565
-7.40563
-7.4056
-7.40556
-7.40552
-7.40547
-7.40541
-7.40536
-7.4053
-7.40525
-7.40521
-7.40517
-7.40514
-7.40512
-7.50346
-7.50346
-7.50347
-7.5035
-7.50353
-7.50358
-7.50363
-7.50369
-7.50375
-7.5038
-7.50385
-7.5039
-7.50393
-7.50395
-7.50396
-7.50395
-7.50393
-7.5039
-7.50387
-7.50382
-7.50376
-7.50371
-7.50365
-7.50359
-7.50353
-7.50348
-7.50344
-7.50341
-7.50338
-7.50337
-7.60163
-7.60163
-7.60165
-7.60168
-7.60173
-7.60179
-7.60185
-7.60192
-7.60198
-7.60205
-7.60211
-7.60216
-7.6022
-7.60222
-7.60223
-7.60223
-7.60221
-7.60217
-7.60213
-7.60208
-7.60202
-7.60195
-7.60189
-7.60183
-7.60177
-7.60173
-7.60168
-7.60165
-7.60164
-7.60163
-7.69981
-7.69982
-7.69984
-7.69988
-7.69993
-7.69999
-7.70006
-7.70014
-7.70021
-7.70028
-7.70034
-7.70039
-7.70044
-7.70046
-7.70048
-7.70047
-7.70046
-7.70043
-7.70038
-7.70033
-7.70027
-7.70021
-7.70015
-7.70009
-7.70004
-7.69999
-7.69995
-7.69992
-7.6999
-7.6999
-7.79802
-7.79803
-7.79805
-7.79809
-7.79814
-7.79821
-7.79827
-7.79834
-7.79842
-7.79848
-7.79855
-7.7986
-7.79865
-7.79868
-7.79869
-7.7987
-7.79868
-7.79866
-7.79862
-7.79858
-7.79853
-7.79847
-7.79842
-7.79836
-7.79831
-7.79826
-7.79823
-7.7982
-7.79819
-7.79818
-7.89623
-7.89624
-7.89627
-7.89631
-7.89636
-7.89641
-7.89648
-7.89654
-7.89661
-7.89667
-7.89673
-7.89679
-7.89683
-7.89686
-7.89688
-7.89689
-7.89689
-7.89687
-7.89684
-7.89681
-7.89677
-7.89672
-7.89667
-7.89662
-7.89658
-7.89654
-7.89651
-7.89648
-7.89647
-7.89646
-7.99445
-7.99446
-7.99448
-7.99452
-7.99456
-7.99461
-7.99467
-7.99473
-7.99479
-7.99485
-7.9949
-7.99495
-7.99499
-7.99503
-7.99505
-7.99506
-7.99507
-7.99506
-7.99504
-7.99502
-7.99498
-7.99495
-7.99491
-7.99487
-7.99483
-7.9948
-7.99477
-7.99475
-7.99474
-7.99473
-8.09266
-8.09267
-8.09269
-8.09272
-8.09276
-8.0928
-8.09285
-8.0929
-8.09296
-8.09301
-8.09306
-8.0931
-8.09314
-8.09318
-8.0932
-8.09322
-8.09323
-8.09323
-8.09322
-8.0932
-8.09318
-8.09316
-8.09313
-8.0931
-8.09307
-8.09304
-8.09302
-8.093
-8.09299
-8.09298
-8.19086
-8.19086
-8.19088
-8.19091
-8.19094
-8.19098
-8.19102
-8.19107
-8.19111
-8.19116
-8.1912
-8.19125
-8.19128
-8.19132
-8.19134
-8.19136
-8.19137
-8.19138
-8.19138
-8.19137
-8.19136
-8.19134
-8.19132
-8.1913
-8.19128
-8.19126
-8.19124
-8.19123
-8.19122
-8.19121
-8.28904
-8.28904
-8.28906
-8.28908
-8.28911
-8.28914
-8.28918
-8.28922
-8.28926
-8.2893
-8.28934
-8.28938
-8.28941
-8.28945
-8.28947
-8.28949
-8.28951
-8.28952
-8.28952
-8.28952
-8.28952
-8.28951
-8.28949
-8.28948
-8.28947
-8.28945
-8.28944
-8.28943
-8.28942
-8.28941
-8.3872
-8.38721
-8.38722
-8.38724
-8.38726
-8.38729
-8.38732
-8.38736
-8.3874
-8.38743
-8.38747
-8.38751
-8.38754
-8.38757
-8.38759
-8.38762
-8.38763
-8.38765
-8.38765
-8.38766
-8.38766
-8.38766
-8.38765
-8.38764
-8.38763
-8.38762
-8.38761
-8.38761
-8.3876
-8.3876
-8.48536
-8.48536
-8.48537
-8.48539
-8.48541
-8.48544
-8.48546
-8.48549
-8.48553
-8.48556
-8.48559
-8.48563
-8.48566
-8.48569
-8.48571
-8.48573
-8.48575
-8.48577
-8.48578
-8.48578
-8.48579
-8.48579
-8.48579
-8.48579
-8.48578
-8.48578
-8.48577
-8.48577
-8.48576
-8.48576
-8.5835
-8.58351
-8.58352
-8.58353
-8.58355
-8.58357
-8.5836
-8.58362
-8.58365
-8.58368
-8.58371
-8.58374
-8.58377
-8.5838
-8.58382
-8.58385
-8.58386
-8.58388
-8.58389
-8.5839
-8.58391
-8.58391
-8.58392
-8.58392
-8.58392
-8.58391
-8.58391
-8.58391
-8.5839
-8.5839
-8.68164
-8.68164
-8.68165
-8.68166
-8.68168
-8.6817
-8.68172
-8.68175
-8.68177
-8.6818
-8.68183
-8.68186
-8.68188
-8.68191
-8.68193
-8.68195
-8.68197
-8.68199
-8.682
-8.68201
-8.68202
-8.68203
-8.68203
-8.68204
-8.68204
-8.68204
-8.68204
-8.68204
-8.68203
-8.68203
-8.77977
-8.77977
-8.77978
-8.77979
-8.77981
-8.77982
-8.77984
-8.77987
-8.77989
-8.77991
-8.77994
-8.77997
-8.77999
-8.78001
-8.78004
-8.78006
-8.78008
-8.78009
-8.78011
-8.78012
-8.78013
-8.78014
-8.78014
-8.78015
-8.78015
-8.78015
-8.78015
-8.78015
-8.78015
-8.78015
-8.87789
-8.8779
-8.8779
-8.87791
-8.87793
-8.87794
-8.87796
-8.87798
-8.878
-8.87803
-8.87805
-8.87807
-8.87809
-8.87812
-8.87814
-8.87816
-8.87818
-8.87819
-8.87821
-8.87822
-8.87823
-8.87824
-8.87825
-8.87825
-8.87826
-8.87826
-8.87826
-8.87826
-8.87826
-8.87826
-8.97602
-8.97602
-8.97603
-8.97603
-8.97605
-8.97606
-8.97608
-8.97609
-8.97611
-8.97613
-8.97615
-8.97618
-8.9762
-8.97622
-8.97624
-8.97626
-8.97627
-8.97629
-8.9763
-8.97631
-8.97633
-8.97633
-8.97634
-8.97635
-8.97635
-8.97636
-8.97636
-8.97636
-8.97636
-8.97636
-9.07414
-9.07414
-9.07414
-9.07415
-9.07416
-9.07417
-9.07419
-9.0742
-9.07422
-9.07424
-9.07426
-9.07428
-9.0743
-9.07431
-9.07433
-9.07435
-9.07437
-9.07438
-9.07439
-9.07441
-9.07442
-9.07442
-9.07443
-9.07444
-9.07444
-9.07445
-9.07445
-9.07445
-9.07445
-9.07445
-9.17226
-9.17226
-9.17226
-9.17227
-9.17228
-9.17229
-9.1723
-9.17231
-9.17233
-9.17234
-9.17236
-9.17238
-9.17239
-9.17241
-9.17243
-9.17244
-9.17246
-9.17247
-9.17248
-9.17249
-9.1725
-9.17251
-9.17252
-9.17252
-9.17253
-9.17253
-9.17253
-9.17254
-9.17254
-9.17254
-9.27037
-9.27037
-9.27038
-9.27038
-9.27039
-9.2704
-9.27041
-9.27042
-9.27043
-9.27045
-9.27046
-9.27048
-9.27049
-9.2705
-9.27052
-9.27053
-9.27054
-9.27056
-9.27057
-9.27058
-9.27059
-9.27059
-9.2706
-9.27061
-9.27061
-9.27061
-9.27062
-9.27062
-9.27062
-9.27062
-9.36849
-9.36849
-9.36849
-9.3685
-9.3685
-9.36851
-9.36852
-9.36853
-9.36854
-9.36855
-9.36856
-9.36857
-9.36858
-9.3686
-9.36861
-9.36862
-9.36863
-9.36864
-9.36865
-9.36866
-9.36867
-9.36867
-9.36868
-9.36868
-9.36869
-9.36869
-9.36869
-9.36869
-9.36869
-9.36869
-9.4666
-9.4666
-9.4666
-9.46661
-9.46661
-9.46662
-9.46663
-9.46663
-9.46664
-9.46665
-9.46666
-9.46667
-9.46668
-9.46669
-9.4667
-9.46671
-9.46671
-9.46672
-9.46673
-9.46674
-9.46674
-9.46675
-9.46675
-9.46676
-9.46676
-9.46676
-9.46676
-9.46676
-9.46677
-9.46677
-9.56472
-9.56472
-9.56472
-9.56472
-9.56472
-9.56473
-9.56473
-9.56474
-9.56474
-9.56475
-9.56476
-9.56476
-9.56477
-9.56478
-9.56478
-9.56479
-9.5648
-9.5648
-9.56481
-9.56481
-9.56482
-9.56482
-9.56482
-9.56483
-9.56483
-9.56483
-9.56483
-9.56483
-9.56483
-9.56483
-9.66283
-9.66283
-9.66283
-9.66283
-9.66283
-9.66284
-9.66284
-9.66284
-9.66285
-9.66285
-9.66285
-9.66286
-9.66286
-9.66287
-9.66287
-9.66287
-9.66288
-9.66288
-9.66288
-9.66289
-9.66289
-9.66289
-9.66289
-9.6629
-9.6629
-9.6629
-9.6629
-9.6629
-9.6629
-9.6629
-9.76094
-9.76094
-9.76094
-9.76094
-9.76094
-9.76094
-9.76095
-9.76095
-9.76095
-9.76095
-9.76095
-9.76095
-9.76095
-9.76096
-9.76096
-9.76096
-9.76096
-9.76096
-9.76096
-9.76096
-9.76096
-9.76096
-9.76096
-9.76097
-9.76097
-9.76097
-9.76097
-9.76097
-9.76097
-9.76097
4850.09
4850.09
4850.09
4850.09
4850.09
4850.08
4850.08
4850.08
4850.08
4850.08
4850.08
4850.08
4850.08
4850.08
4850.08
4850.08
4850.08
4850.08
4850.08
4850.08
4850.08
4850.08
4850.08
4850.08
4850.09
4850.09
4850.09
4850.09
4850.09
4850.1
4751.98
4751.98
4751.98
4751.98
4751.98
4751.98
4751.98
4751.98
4751.98
4751.98
4751.98
4751.98
4751.98
4751.98
4751.98
4751.98
4751.98
4751.98
4751.98
4751.98
4751.98
4751.98
4751.98
4751.98
4751.98
4751.98
4751.98
4751.98
4751.99
4751.98
4653.88
4653.88
4653.88
4653.88
4653.88
4653.88
4653.88
4653.88
4653.88
4653.88
4653.88
4653.88
4653.88
4653.88
4653.88
4653.87
4653.87
4653.87
4653.88
4653.88
4653.88
4653.88
4653.88
4653.88
4653.88
4653.88
4653.88
4653.88
4653.88
4653.88
4555.77
4555.77
4555.77
4555.78
4555.78
4555.78
4555.78
4555.78
4555.78
4555.78
4555.78
4555.78
4555.78
4555.78
4555.78
4555.78
4555.78
4555.78
4555.78
4555.78
4555.78
4555.78
4555.78
4555.78
4555.78
4555.78
4555.78
4555.78
4555.78
4555.78
4457.67
4457.67
4457.67
4457.67
4457.67
4457.67
4457.68
4457.68
4457.68
4457.68
4457.68
4457.68
4457.68
4457.68
4457.68
4457.68
4457.68
4457.68
4457.68
4457.68
4457.68
4457.68
4457.68
4457.68
4457.68
4457.68
4457.68
4457.68
4457.68
4457.68
4359.57
4359.57
4359.57
4359.57
4359.57
4359.57
4359.57
4359.58
4359.58
4359.58
4359.58
4359.58
4359.58
4359.58
4359.58
4359.58
4359.58
4359.58
4359.58
4359.58
4359.58
4359.58
4359.58
4359.58
4359.58
4359.58
4359.58
4359.58
4359.58
4359.58
4261.47
4261.47
4261.47
4261.47
4261.47
4261.47
4261.47
4261.47
4261.47
4261.48
4261.48
4261.48
4261.48
4261.48
4261.48
4261.48
4261.48
4261.48
4261.48
4261.48
4261.48
4261.48
4261.48
4261.48
4261.48
4261.48
4261.48
4261.48
4261.48
4261.48
4163.38
4163.38
4163.38
4163.37
4163.37
4163.37
4163.37
4163.37
4163.37
4163.37
4163.38
4163.38
4163.38
4163.38
4163.38
4163.38
4163.38
4163.38
4163.38
4163.38
4163.38
4163.38
4163.38
4163.38
4163.38
4163.38
4163.38
4163.38
4163.38
4163.38
4065.28
4065.28
4065.28
4065.28
4065.28
4065.28
4065.28
4065.27
4065.27
4065.27
4065.28
4065.28
4065.28
4065.28
4065.28
4065.28
4065.28
4065.28
4065.28
4065.28
4065.28
4065.28
4065.28
4065.27
4065.27
4065.27
4065.28
4065.28
4065.28
4065.28
3967.18
3967.18
3967.18
3967.18
3967.18
3967.18
3967.18
3967.18
3967.18
3967.18
3967.18
3967.18
3967.18
3967.18
3967.18
3967.18
3967.18
3967.18
3967.18
3967.18
3967.18
3967.18
3967.18
3967.18
3967.18
3967.18
3967.18
3967.18
3967.17
3967.17
3869.08
3869.08
3869.08
3869.08
3869.08
3869.08
3869.08
3869.08
3869.08
3869.08
3869.08
3869.08
3869.08
3869.08
3869.08
3869.08
3869.08
3869.08
3869.08
3869.08
3869.08
3869.08
3869.08
3869.08
3869.08
3869.08
3869.08
3869.08
3869.08
3869.08
3770.98
3770.98
3770.98
3770.98
3770.98
3770.98
3770.98
3770.98
3770.98
3770.98
3770.98
3770.98
3770.98
3770.98
3770.98
3770.98
3770.98
3770.98
3770.98
3770.98
3770.98
3770.98
3770.98
3770.98
3770.98
3770.98
3770.98
3770.98
3770.98
3770.98
3672.88
3672.88
3672.88
3672.88
3672.88
3672.88
3672.88
3672.88
3672.88
3672.88
3672.88
3672.88
3672.88
3672.88
3672.88
3672.88
3672.88
3672.88
3672.88
3672.88
3672.88
3672.88
3672.88
3672.88
3672.88
3672.88
3672.88
3672.88
3672.88
3672.88
3574.77
3574.77
3574.77
3574.77
3574.78
3574.78
3574.78
3574.78
3574.78
3574.78
3574.78
3574.78
3574.78
3574.78
3574.78
3574.78
3574.78
3574.78
3574.78
3574.78
3574.78
3574.78
3574.78
3574.78
3574.78
3574.78
3574.78
3574.78
3574.78
3574.78
3476.67
3476.67
3476.67
3476.67
3476.68
3476.68
3476.68
3476.68
3476.68
3476.68
3476.68
3476.68
3476.68
3476.68
3476.68
3476.68
3476.68
3476.68
3476.68
3476.68
3476.68
3476.68
3476.68
3476.68
3476.68
3476.68
3476.68
3476.68
3476.68
3476.68
3378.57
3378.58
3378.58
3378.58
3378.58
3378.58
3378.58
3378.58
3378.58
3378.58
3378.58
3378.58
3378.58
3378.58
3378.58
3378.58
3378.58
3378.58
3378.58
3378.58
3378.58
3378.58
3378.58
3378.58
3378.58
3378.58
3378.58
3378.58
3378.58