/*--------------------------------*- C++ -*----------------------------------*\
| =========                 |                                                 |
| \\      /  F ield         | OpenFOAM: The Open Source CFD Toolbox           |
|  \\    /   O peration     | Version:  2312                                  |
|   \\  /    A nd           | Website:  www.openfoam.com                      |
|    \\/     M anipulation  |                                                 |
\*---------------------------------------------------------------------------*/
FoamFile
{
    version     2.0;
    format      ascii;
    arch        "LSB;label=32;scalar=64";
    class       volScalarField;
    location    "1.01077";
    object      p_rgh;
}
// * * * * * * * * * * * * * * * * * * * * * * * * * * * * * * * * * * * * * //

dimensions      [1 -1 -2 0 0 0 0];

internalField   nonuniform List<scalar> 
90000
(
4899.14
4899.14
4899.14
4899.14
4899.14
4899.14
4899.13
4899.13
4899.13
4899.13
4899.13
4899.13
4899.13
4899.13
4899.13
4899.13
4899.13
4899.13
4899.13
4899.13
4899.13
4899.13
4899.13
4899.13
4899.14
4899.14
4899.14
4899.14
4899.14
4899.13
4899.14
4899.14
4899.14
4899.14
4899.14
4899.14
4899.13
4899.13
4899.13
4899.13
4899.13
4899.13
4899.13
4899.13
4899.13
4899.13
4899.13
4899.13
4899.13
4899.13
4899.13
4899.13
4899.13
4899.13
4899.14
4899.14
4899.14
4899.14
4899.13
4899.08
4899.14
4899.14
4899.14
4899.14
4899.14
4899.14
4899.14
4899.13
4899.13
4899.13
4899.13
4899.13
4899.13
4899.13
4899.13
4899.13
4899.13
4899.13
4899.13
4899.13
4899.13
4899.13
4899.13
4899.13
4899.14
4899.14
4899.15
4899.17
4899.21
4899.13
4899.14
4899.14
4899.14
4899.14
4899.14
4899.14
4899.14
4899.14
4899.14
4899.14
4899.13
4899.13
4899.13
4899.12
4899.12
4899.12
4899.12
4899.12
4899.12
4899.12
4899.13
4899.13
4899.13
4899.13
4899.13
4899.13
4899.12
4899.11
4899.16
4899.13
4899.13
4899.13
4899.13
4899.13
4899.13
4899.14
4899.14
4899.14
4899.14
4899.14
4899.14
4899.13
4899.13
4899.12
4899.12
4899.11
4899.11
4899.11
4899.12
4899.12
4899.13
4899.13
4899.13
4899.13
4899.14
4899.14
4899.14
4899.12
4899.14
4899.13
4899.13
4899.12
4899.12
4899.12
4899.13
4899.13
4899.14
4899.14
4899.14
4899.15
4899.14
4899.14
4899.13
4899.13
4899.12
4899.12
4899.12
4899.12
4899.12
4899.12
4899.13
4899.13
4899.14
4899.14
4899.14
4899.13
4899.14
4899.13
4899.13
4899.12
4899.12
4899.1
4899.11
4899.11
4899.12
4899.12
4899.13
4899.14
4899.14
4899.15
4899.15
4899.15
4899.14
4899.14
4899.13
4899.13
4899.13
4899.13
4899.13
4899.13
4899.14
4899.14
4899.14
4899.14
4899.14
4899.14
4899.13
4899.13
4899.13
4899.13
4899.11
4899.09
4899.1
4899.1
4899.11
4899.12
4899.12
4899.13
4899.13
4899.14
4899.14
4899.15
4899.15
4899.15
4899.15
4899.15
4899.15
4899.14
4899.14
4899.14
4899.14
4899.14
4899.14
4899.14
4899.14
4899.14
4899.14
4899.13
4899.14
4899.14
4899.1
4899.09
4899.1
4899.1
4899.11
4899.11
4899.12
4899.12
4899.12
4899.13
4899.14
4899.14
4899.15
4899.16
4899.16
4899.16
4899.16
4899.16
4899.15
4899.15
4899.14
4899.14
4899.14
4899.14
4899.14
4899.13
4899.13
4899.14
4899.15
4899.15
4899.11
4899.12
4899.12
4899.12
4899.12
4899.12
4899.12
4899.12
4899.12
4899.12
4899.13
4899.14
4899.15
4899.16
4899.17
4899.17
4899.17
4899.16
4899.15
4899.15
4899.14
4899.13
4899.13
4899.12
4899.12
4899.12
4899.13
4899.13
4899.14
4899.13
4899.12
4899.16
4899.16
4899.15
4899.15
4899.14
4899.13
4899.12
4899.12
4899.12
4899.13
4899.13
4899.14
4899.15
4899.16
4899.16
4899.16
4899.16
4899.15
4899.14
4899.13
4899.12
4899.12
4899.11
4899.11
4899.11
4899.12
4899.12
4899.12
4899.12
4899.15
4899.2
4899.2
4899.19
4899.18
4899.16
4899.14
4899.13
4899.12
4899.12
4899.12
4899.12
4899.13
4899.13
4899.14
4899.14
4899.14
4899.14
4899.13
4899.13
4899.13
4899.12
4899.11
4899.11
4899.11
4899.11
4899.12
4899.12
4899.11
4899.12
4899.18
4899.22
4899.21
4899.2
4899.18
4899.16
4899.14
4899.12
4899.12
4899.11
4899.11
4899.11
4899.11
4899.11
4899.11
4899.11
4899.11
4899.12
4899.12
4899.13
4899.13
4899.12
4899.12
4899.12
4899.12
4899.12
4899.12
4899.12
4899.12
4899.13
4899.19
4899.2
4899.18
4899.16
4899.15
4899.13
4899.12
4899.11
4899.11
4899.11
4899.1
4899.1
4899.09
4899.09
4899.09
4899.09
4899.1
4899.11
4899.12
4899.13
4899.13
4899.13
4899.13
4899.13
4899.13
4899.12
4899.11
4899.11
4899.11
4899.11
4899.17
4899.13
4899.12
4899.11
4899.1
4899.1
4899.1
4899.11
4899.12
4899.12
4899.12
4899.11
4899.1
4899.09
4899.09
4899.1
4899.11
4899.12
4899.13
4899.14
4899.14
4899.14
4899.14
4899.13
4899.12
4899.11
4899.1
4899.1
4899.09
4899.08
4899.12
4899.06
4899.06
4899.07
4899.08
4899.09
4899.11
4899.13
4899.14
4899.14
4899.13
4899.12
4899.11
4899.1
4899.1
4899.11
4899.12
4899.12
4899.13
4899.13
4899.14
4899.14
4899.14
4899.14
4899.14
4899.13
4899.12
4899.11
4899.1
4899.1
4899.08
4899.03
4899.04
4899.06
4899.08
4899.11
4899.13
4899.14
4899.14
4899.13
4899.12
4899.11
4899.1
4899.1
4899.1
4899.1
4899.11
4899.11
4899.11
4899.12
4899.12
4899.14
4899.15
4899.15
4899.15
4899.15
4899.15
4899.14
4899.14
4899.17
4899.07
4899.03
4899.06
4899.07
4899.09
4899.11
4899.12
4899.12
4899.12
4899.11
4899.1
4899.09
4899.1
4899.1
4899.11
4899.11
4899.1
4899.1
4899.1
4899.1
4899.12
4899.14
4899.15
4899.15
4899.15
4899.15
4899.15
4899.15
4899.16
4899.17
4899.08
4899.06
4899.07
4899.09
4899.1
4899.11
4899.11
4899.11
4899.1
4899.1
4899.1
4899.12
4899.13
4899.14
4899.14
4899.13
4899.12
4899.11
4899.11
4899.12
4899.13
4899.14
4899.14
4899.12
4899.11
4899.11
4899.11
4899.12
4899.12
4899.09
4899.09
4899.08
4899.09
4899.1
4899.11
4899.12
4899.12
4899.12
4899.13
4899.14
4899.15
4899.17
4899.18
4899.18
4899.16
4899.14
4899.13
4899.12
4899.12
4899.13
4899.14
4899.13
4899.11
4899.1
4899.09
4899.1
4899.1
4899.09
4899.07
4899.05
4899.1
4899.1
4899.12
4899.13
4899.14
4899.15
4899.16
4899.17
4899.17
4899.18
4899.19
4899.19
4899.18
4899.16
4899.14
4899.12
4899.12
4899.12
4899.13
4899.13
4899.12
4899.1
4899.09
4899.09
4899.11
4899.13
4899.13
4899.11
4899.09
4899.12
4899.12
4899.14
4899.15
4899.17
4899.18
4899.19
4899.19
4899.18
4899.18
4899.18
4899.17
4899.15
4899.13
4899.11
4899.1
4899.1
4899.12
4899.14
4899.14
4899.13
4899.11
4899.09
4899.1
4899.12
4899.15
4899.15
4899.14
4899.12
4899.12
4899.14
4899.14
4899.16
4899.17
4899.18
4899.18
4899.18
4899.17
4899.16
4899.16
4899.15
4899.13
4899.12
4899.1
4899.1
4899.12
4899.14
4899.17
4899.17
4899.16
4899.13
4899.11
4899.12
4899.14
4899.17
4899.16
4899.14
4899.12
4899.11
4899.1
4899.09
4899.15
4899.16
4899.16
4899.16
4899.16
4899.15
4899.15
4899.15
4899.16
4899.15
4899.14
4899.12
4899.12
4899.13
4899.16
4899.18
4899.19
4899.17
4899.15
4899.13
4899.14
4899.17
4899.2
4899.2
4899.17
4899.14
4899.13
4899.13
4899.11
4899.13
4899.14
4899.14
4899.14
4899.14
4899.14
4899.14
4899.15
4899.16
4899.16
4899.15
4899.14
4899.12
4899.12
4899.14
4899.16
4899.16
4899.14
4899.12
4899.11
4899.13
4899.17
4899.2
4899.21
4899.18
4899.16
4899.16
4899.17
4899.17
4899.18
4899.22
4899.13
4899.12
4899.12
4899.12
4899.12
4899.13
4899.14
4899.14
4899.14
4899.12
4899.1
4899.1
4899.11
4899.13
4899.13
4899.12
4899.11
4899.1
4899.12
4899.16
4899.19
4899.19
4899.16
4899.13
4899.13
4899.15
4899.15
4899.17
4899.23
4899.17
4899.12
4899.1
4899.1
4899.09
4899.08
4899.09
4899.09
4899.1
4899.09
4899.09
4899.1
4899.12
4899.14
4899.16
4899.16
4899.14
4899.14
4899.15
4899.17
4899.18
4899.17
4899.13
4899.1
4899.1
4899.12
4899.13
4899.12
4899.15
4899.15
4899.06
4899.1
4899.07
4899.06
4899.05
4899.04
4899.05
4899.07
4899.08
4899.09
4899.1
4899.13
4899.16
4899.18
4899.18
4899.17
4899.15
4899.14
4899.15
4899.15
4899.12
4899.09
4899.07
4899.08
4899.1
4899.12
4899.12
4899.11
4899.1
4899.06
4899.1
4899.07
4899.04
4899.04
4899.04
4899.04
4899.05
4899.06
4899.07
4899.08
4899.1
4899.13
4899.15
4899.16
4899.14
4899.13
4899.12
4899.12
4899.11
4899.09
4899.06
4899.04
4899.06
4899.09
4899.09
4899.08
4899.09
4899.09
4899.04
4899.07
4899.15
4899.06
4899.05
4899.05
4899.05
4899.04
4899.03
4899.03
4899.03
4899.05
4899.08
4899.12
4899.14
4899.14
4899.14
4899.14
4899.14
4899.14
4899.11
4899.09
4899.08
4899.08
4899.08
4899.08
4899.05
4899.03
4899.05
4899.06
4899.04
4899.13
4899.07
4899.06
4899.06
4899.05
4899.03
4899.02
4899.01
4899.01
4899.03
4899.07
4899.11
4899.15
4899.17
4899.17
4899.17
4899.16
4899.16
4899.14
4899.12
4899.11
4899.13
4899.13
4899.07
4899.04
4899.04
4899.04
4899.04
4899.07
4899.09
4899.07
4899.03
4899.06
4899.04
4899.03
4899.02
4899.03
4899.04
4899.05
4899.08
4899.11
4899.13
4899.15
4899.15
4899.15
4899.14
4899.13
4899.12
4899.12
4899.13
4899.13
4899.14
4899.11
4899.04
4899.02
4899.07
4899.06
4899.02
4899.07
4899.06
4898.98
4899.06
4899.03
4899.02
4899.03
4899.05
4899.06
4899.07
4899.07
4899.07
4899.07
4899.08
4899.1
4899.11
4899.13
4899.14
4899.14
4899.13
4899.13
4899.17
4899.15
4899.09
4899.05
4899.02
4899.04
4899.07
4899.03
4898.99
4899.04
4899
4899.03
4899.06
4899.01
4899.03
4899.05
4899.06
4899.06
4899.05
4899.04
4899.05
4899.06
4899.09
4899.12
4899.16
4899.18
4899.18
4899.16
4899.15
4899.13
4899.14
4899.1
4899.01
4899.02
4899.06
4899.06
4899
4898.99
4899.01
4899.03
4899.03
4899.06
4899.03
4899
4899.01
4899.02
4899.03
4899.04
4899.04
4899.06
4899.07
4899.1
4899.14
4899.18
4899.2
4899.19
4899.16
4899.14
4899.17
4899.14
4899.13
4899.11
4899.08
4899.13
4899.16
4899.08
4898.99
4899.04
4899.06
4899.02
4899.02
4898.97
4898.98
4898.96
4898.96
4898.98
4899.01
4899.02
4899.03
4899.05
4899.07
4899.11
4899.15
4899.17
4899.19
4899.18
4899.19
4899.2
4899.27
4899.25
4899.21
4899.22
4899.23
4899.24
4899.19
4899.07
4899.05
4899.13
4899.05
4898.97
4898.93
4898.94
4898.94
4898.9
4898.92
4898.94
4898.95
4898.96
4898.98
4899.02
4899.07
4899.12
4899.16
4899.17
4899.2
4899.22
4899.3
4899.3
4899.36
4899.31
4899.26
4899.26
4899.29
4899.22
4899.14
4899.11
4899.13
4899.11
4898.96
4898.92
4898.92
4898.93
4898.91
4898.84
4898.84
4898.84
4898.86
4898.91
4898.98
4899.05
4899.09
4899.13
4899.17
4899.22
4899.29
4899.3
4899.41
4899.39
4899.4
4899.37
4899.39
4899.36
4899.35
4899.23
4899.19
4899.19
4899.11
4898.99
4898.9
4898.92
4898.9
4898.82
4898.85
4898.73
4898.72
4898.77
4898.84
4898.91
4898.98
4899.04
4899.1
4899.18
4899.27
4899.34
4899.45
4899.42
4899.49
4899.5
4899.49
4899.45
4899.52
4899.42
4899.34
4899.24
4899.23
4899.19
4898.99
4898.91
4898.92
4898.85
4898.74
4898.76
4898.81
4898.59
4898.63
4898.69
4898.75
4898.82
4898.91
4899.03
4899.16
4899.27
4899.37
4899.38
4899.51
4899.55
4899.57
4899.64
4899.62
4899.5
4899.56
4899.49
4899.38
4899.34
4899.26
4899.13
4898.96
4898.91
4898.88
4898.69
4898.66
4898.77
4898.73
4898.44
4898.44
4898.49
4898.6
4898.74
4898.88
4898.99
4899.12
4899.24
4899.41
4899.51
4899.56
4899.8
4899.74
4899.8
4899.87
4899.78
4899.74
4899.72
4899.55
4899.46
4899.3
4899.14
4899.06
4898.85
4898.74
4898.64
4898.61
4898.55
4898.48
4898.17
4898.2
4898.34
4898.49
4898.59
4898.71
4898.92
4899.18
4899.34
4899.52
4899.83
4899.74
4900.03
4900.08
4900.03
4900.08
4900.08
4899.96
4899.89
4899.71
4899.58
4899.4
4899.18
4899.05
4898.71
4898.53
4898.55
4898.39
4898.13
4898.11
4897.86
4898.01
4898.09
4898.16
4898.36
4898.67
4898.98
4899.25
4899.55
4899.68
4900
4900.08
4900.24
4900.38
4900.42
4900.43
4900.43
4900.28
4900.13
4899.97
4899.76
4899.5
4899.13
4898.81
4898.73
4898.44
4898.12
4898.07
4898.05
4897.81
4897.51
4897.53
4897.56
4897.89
4898.3
4898.52
4898.82
4899.23
4899.63
4899.86
4900.13
4900.59
4900.77
4900.8
4900.93
4900.94
4900.85
4900.7
4900.55
4900.29
4899.87
4899.55
4899.35
4898.74
4898.51
4898.28
4897.82
4897.73
4897.64
4897.31
4896.85
4896.86
4897.22
4897.53
4897.76
4898.3
4898.88
4899.22
4899.73
4900.46
4900.66
4900.94
4901.4
4901.45
4901.56
4901.59
4901.54
4901.37
4900.97
4900.64
4900.39
4899.76
4899.26
4898.88
4898.19
4897.76
4897.57
4897.21
4896.82
4896.57
4896.03
4896.24
4896.53
4896.71
4897.36
4898.08
4898.72
4899.48
4899.98
4900.61
4901.36
4901.73
4902.11
4902.4
4902.4
4902.55
4902.45
4902.05
4901.78
4901.35
4900.58
4900.1
4899.34
4898.64
4898.01
4897.35
4896.84
4896.5
4896.25
4895.66
4895.13
4895.14
4895.34
4895.94
4896.8
4897.55
4898.45
4899.52
4900.39
4901.31
4901.98
4902.61
4903.32
4903.55
4903.71
4903.88
4903.6
4903.27
4902.72
4902.12
4901.39
4900.44
4899.4
4898.54
4897.68
4896.56
4895.97
4895.62
4895.18
4894.79
4893.88
4891.92
4893.86
4894.81
4895.1
4896.71
4898.28
4899.6
4900.96
4902.18
4903.21
4903.8
4904.62
4905.33
4905.36
4905.25
4905.22
4904.81
4903.97
4903.09
4902.27
4901.08
4899.62
4898.2
4896.74
4895.12
4894.8
4893.8
4892.3
4893.62
4892.97
4891.97
4892.24
4893.63
4894.59
4896.34
4897.92
4899.56
4902.03
4903.58
4904.5
4905.7
4907.02
4907.74
4907.62
4907.6
4907.79
4907.15
4905.82
4904.54
4903.64
4901.99
4899.56
4897.94
4896.35
4894.56
4893.61
4892.24
4891.94
4892.85
3840.66
3618.31
3655.43
3851.9
3796.07
3912.35
3948.94
4073.43
4220.53
4203.76
4221.41
4282.16
4319.02
4389.21
4325.37
4324.85
4399.5
4333.87
4274.79
4222.41
4206.98
4222.04
4072.65
3950.68
3912.48
3793.23
3849.91
3655.26
3623.77
3826.85
723.925
619.752
626.956
729.887
561.417
749.804
809.009
616.863
955.8
1117.48
846.881
1068.18
1184.6
1270.64
1088.42
1082.21
1271.57
1196.64
1053.1
846.5
1127.83
956.115
615.711
809.539
752.568
561.118
728.033
622.69
615.025
717.616
22.3902
21.1222
4.74744
3.81381
4.19569
2.78853
1.88712
0.961793
8.3446
2.40231
1.86928
2.10114
12.0662
1.72848
2.22469
2.47246
1.47937
11.931
2.21729
1.96073
2.23662
9.85195
0.981028
1.94463
2.97166
4.25562
3.68197
4.72715
20.246
24.0011
1.78466
3.61927
1.97283
0.989162
0.931374
2.97716
0.986661
0.752018
2.71423
0.894585
1.3201
2.10172
0.472264
0.556695
1.85655
2.37056
0.642801
0.361957
2.91261
1.67603
1.00901
2.65333
0.784461
1.00826
2.9907
0.882304
0.997229
2.18521
3.56902
1.73362
0.375348
0.87647
0.310386
0.202366
0.231715
0.620291
1.11818
0.476914
0.431529
0.116112
0.369865
0.218385
0.31628
0.116263
0.0542817
0.0555389
0.144355
0.311781
0.0451799
0.395171
0.114362
0.508235
0.489911
1.15382
0.707951
0.239995
0.201231
0.339627
0.877833
0.364229
0.0444662
0.082681
0.0358544
0.0342139
0.0330513
0.017913
0.137376
0.0378264
0.0202827
0.0535767
0.0536273
0.0370342
0.090696
0.110708
0.0537888
0.0554513
0.120006
0.11299
0.046947
0.051999
0.0311227
0.0190233
0.0376464
0.143339
0.0167838
0.0324421
0.033032
0.0363198
0.0753402
0.0432224
0.017243
0.0205284
0.0211082
0.0197452
0.0186289
0.0174531
0.0167105
0.0166324
0.0208584
0.025219
0.0171289
0.0254454
0.0461961
0.0502148
0.0544797
0.0552107
0.040889
0.0449675
0.0271983
0.0165818
0.023401
0.0197505
0.0159217
0.0158996
0.0165084
0.0176748
0.0187392
0.0193784
0.0193953
0.0164291
0.0162561
0.0170192
0.0171464
0.0173612
0.0171211
0.016474
0.0160277
0.0158058
0.0155293
0.0151765
0.0147325
0.0148417
0.0140593
0.0171371
0.0295827
0.0323107
0.0169418
0.0137619
0.0143048
0.0142673
0.0146255
0.0148245
0.0150909
0.0152651
0.0156534
0.0162675
0.0165384
0.016164
0.0160423
0.0154269
0.0155902
0.0158259
0.0158468
0.0159924
0.0159304
0.0156396
0.0153692
0.015136
0.0148888
0.0146635
0.0143412
0.0140416
0.0137552
0.0135671
0.0134383
0.0135252
0.0134771
0.0134574
0.0136685
0.0138943
0.0140946
0.0142107
0.0144271
0.0146118
0.0148005
0.015078
0.015188
0.0151135
0.0150693
0.0148009
0.0145286
0.0145953
0.0147013
0.0148126
0.0148022
0.0146439
0.0144239
0.0141897
0.0139427
0.0137071
0.0134806
0.0132818
0.013086
0.0129066
0.0127314
0.0126597
0.0127347
0.0128189
0.0129519
0.0130883
0.0132061
0.0133168
0.013487
0.013661
0.0138074
0.0139683
0.0140324
0.014061
0.0140491
0.0139528
0.0133458
0.013429
0.0135347
0.0136122
0.0136081
0.0134896
0.0132849
0.0130298
0.0127601
0.012511
0.0123021
0.012132
0.0119811
0.0118432
0.0117247
0.0116605
0.0116794
0.0117389
0.0118409
0.0119626
0.0120913
0.0122202
0.0123699
0.0125344
0.0126754
0.0128171
0.0129069
0.0129669
0.012991
0.0129569
0.0122202
0.0122857
0.0123336
0.0123697
0.012353
0.012241
0.0120337
0.0117707
0.0114943
0.0112366
0.0110162
0.0108316
0.0106716
0.0105367
0.0104348
0.0103812
0.0103889
0.0104491
0.0105579
0.010691
0.010842
0.0110074
0.0111841
0.0113676
0.0115327
0.0116785
0.0117865
0.0118569
0.0118918
0.0118854
0.0111013
0.0111032
0.0111112
0.0111226
0.0110849
0.0109595
0.010747
0.0104841
0.0102084
0.00994169
0.00970125
0.00949443
0.00931884
0.00917611
0.00907661
0.00902519
0.00902657
0.00908715
0.00920213
0.00935259
0.00953117
0.00973688
0.00996177
0.010189
0.0103916
0.0105572
0.0106764
0.0107498
0.0107837
0.0107835
0.00996603
0.00994114
0.00993924
0.00991995
0.00984256
0.00968776
0.0094645
0.00920223
0.0089274
0.00865318
0.0083953
0.0081692
0.0079808
0.00783055
0.007726
0.00767102
0.00767141
0.00773617
0.00786663
0.00804861
0.00826951
0.00852143
0.00879151
0.0090567
0.00928548
0.00946141
0.00957979
0.00964677
0.00967655
0.00968321
0.0088856
0.00887897
0.0088513
0.00877935
0.00864941
0.00846251
0.00823096
0.00797108
0.00769723
0.0074178
0.00714717
0.0069059
0.0067076
0.00655525
0.00645289
0.00640587
0.00642069
0.00650496
0.00666184
0.00687941
0.00713938
0.00742384
0.00771387
0.00798648
0.00821529
0.00838671
0.0085003
0.00856569
0.00860027
0.00861207
0.00789689
0.00788387
0.00781318
0.00769015
0.00752391
0.00732456
0.00709781
0.00684766
0.00657932
0.00629915
0.00602184
0.00577054
0.00556659
0.00541794
0.00532909
0.0053045
0.00534822
0.00546263
0.00564662
0.00588649
0.00616096
0.00644794
0.0067276
0.00698242
0.00719458
0.00735605
0.00746881
0.00754164
0.00758325
0.0076023
0.00694546
0.00690108
0.00680325
0.00666206
0.00649205
0.00630202
0.00609138
0.0058564
0.00559748
0.00532176
0.00504547
0.00479302
0.00458913
0.00444874
0.0043775
0.00437695
0.0044466
0.00458349
0.00478087
0.00502267
0.00528913
0.00555796
0.00581273
0.00604223
0.0062367
0.00639157
0.00650791
0.00659062
0.00664362
0.00667057
0.00601472
0.0059592
0.00586247
0.00572893
0.00557068
0.00539397
0.00519651
0.00497378
0.00472621
0.00446198
0.0041977
0.00395734
0.00376505
0.00363889
0.00358561
0.00360368
0.00368792
0.0038308
0.00402257
0.00424979
0.00449417
0.00473801
0.00496818
0.00517774
0.0053608
0.00551403
0.00563646
0.00572822
0.00579018
0.00582254
0.00515933
0.00511739
0.0050311
0.00490751
0.00475665
0.00458438
0.00439162
0.00417794
0.0039459
0.00370395
0.00346661
0.00325358
0.00308594
0.0029806
0.00294489
0.00297632
0.00306661
0.00320521
0.00338141
0.00358404
0.0038001
0.00401683
0.00422437
0.00441656
0.00458893
0.00473783
0.00486033
0.00495402
0.00501767
0.00504969
0.00440656
0.00437572
0.00429429
0.00417538
0.00402773
0.00385868
0.00367321
0.00347522
0.00326948
0.00306317
0.00286661
0.00269326
0.0025584
0.00247573
0.00245283
0.00248884
0.0025758
0.00270268
0.00285853
0.00303377
0.00321939
0.0034068
0.00358865
0.0037594
0.00391464
0.00405037
0.00416283
0.00424882
0.00430617
0.00433349
0.00372162
0.00368608
0.00360696
0.00349643
0.0033617
0.00320984
0.00304761
0.00288107
0.00271553
0.00255599
0.0024082
0.00227929
0.00217823
0.00211461
0.00209568
0.00212335
0.00219323
0.00229702
0.00242525
0.00256941
0.00272233
0.00287769
0.00302984
0.00317392
0.00330576
0.00342154
0.00351775
0.00359139
0.00364046
0.00366371
0.00307091
0.00302354
0.0029534
0.00286362
0.00275795
0.00264133
0.00251944
0.00239782
0.00228076
0.00217119
0.00207137
0.00198382
0.0019124
0.00186276
0.00184091
0.00185084
0.00189265
0.00196261
0.00205471
0.00216233
0.00227947
0.00240079
0.00252157
0.00263752
0.00274492
0.00284042
0.00292104
0.00298434
0.00302852
0.00305208
0.002471
0.00241896
0.0023671
0.0023071
0.00223914
0.00216525
0.00208868
0.00201297
0.00194089
0.00187404
0.00181294
0.00175775
0.00170935
0.00167037
0.00164499
0.00163768
0.00165142
0.00168665
0.00174132
0.00181166
0.00189334
0.00198202
0.00207358
0.00216424
0.00225062
0.00232973
0.00239896
0.0024561
0.00249935
0.00252663
0.00197258
0.00192891
0.00189841
0.00186646
0.00183101
0.001792
0.00175049
0.00170818
0.00166677
0.00162739
0.00159038
0.00155547
0.00152256
0.00149254
0.00146779
0.00145186
0.00144838
0.00145985
0.00148696
0.00152859
0.00158239
0.0016453
0.00171401
0.00178523
0.00185586
0.0019231
0.00198444
0.00203764
0.00208069
0.00211104
0.001614
0.00158674
0.00157264
0.00155793
0.00154023
0.00151873
0.00149352
0.00146554
0.00143618
0.00140687
0.00137859
0.00135185
0.00132682
0.00130389
0.00128419
0.0012698
0.00126336
0.0012673
0.00128315
0.00131115
0.00135035
0.00139883
0.00145409
0.00151336
0.00157385
0.00163289
0.001688
0.00173687
0.00177736
0.00180686
0.00139234
0.00138112
0.00137426
0.00136362
0.00134782
0.00132643
0.00129983
0.00126916
0.0012362
0.001203
0.00117155
0.00114343
0.00111967
0.0011009
0.00108769
0.00108088
0.00108159
0.00109102
0.00111004
0.00113885
0.00117683
0.00122256
0.001274
0.00132877
0.00138434
0.00143819
0.00148794
0.00153135
0.00156637
0.00159082
0.00126881
0.00126756
0.00125958
0.00124334
0.00121885
0.00118673
0.00114821
0.00110516
0.00105999
0.00101549
0.000974508
0.000939534
0.000912437
0.000894363
0.000885851
0.000887026
0.000897825
0.000918074
0.000947433
0.000985227
0.00103031
0.00108106
0.00113544
0.00119116
0.0012458
0.001297
0.00134251
0.00138029
0.0014086
0.00142593
0.00119245
0.00119404
0.00118034
0.00115458
0.00111803
0.00107232
0.00101957
0.000962379
0.000903744
0.000846979
0.000795432
0.000752154
0.000719566
0.000699303
0.000692102
0.000697883
0.000715972
0.000745326
0.000784558
0.000831996
0.000885704
0.000943509
0.00100305
0.00106189
0.00111757
0.00116777
0.00121039
0.00124363
0.00126608
0.0012769
0.00112211
0.00112164
0.00110155
0.00106728
0.00102085
0.000964575
0.000901105
0.000833486
0.000765052
0.000699332
0.000639822
0.000589726
0.000551694
0.000527658
0.000518616
0.000524587
0.000544759
0.000577804
0.000621753
0.000674323
0.000732993
0.000795109
0.000857955
0.000918844
0.000975224
0.00102477
0.00106547
0.00109569
0.00111431
0.0011209
0.00103628
0.00103209
0.00100744
0.000968225
0.000916717
0.0008554
0.000787107
0.000714971
0.000642354
0.00057269
0.000509316
0.000455324
0.000413376
0.000385479
0.000372728
0.000375376
0.000392735
0.000423661
0.000466075
0.000517554
0.000575402
0.000636768
0.000698769
0.0007586
0.000813657
0.000861617
0.000900512
0.000928808
0.000945529
0.000950402
0.000931934
0.000924109
0.000897725
0.000857601
0.000805848
0.000744876
0.000677356
0.000606248
0.00053467
0.000465763
0.000402535
0.000347793
0.000304017
0.000273081
0.000256126
0.000253607
0.000265088
0.000289701
0.000325657
0.000370775
0.000422526
0.000478186
0.000534971
0.000590158
0.000641211
0.000685881
0.000722265
0.000748891
0.000764819
0.000769723
0.00081621
0.000805978
0.000780386
0.000742466
0.000694033
0.000637231
0.000574416
0.000508192
0.000441298
0.000376472
0.000316338
0.000263352
0.000219642
0.0001869
0.000166254
0.000158221
0.000162702
0.000179031
0.000205908
0.000241572
0.00028387
0.000330436
0.000378792
0.000426479
0.000471176
0.000510793
0.000543554
0.000568063
0.000583387
0.000589091
0.00069919
0.000688462
0.00066526
0.000631245
0.000588019
0.000537348
0.000481217
0.000421824
0.000361471
0.000302478
0.000247074
0.000197355
0.000155054
0.000121693
9.82883e-05
8.54127e-05
8.31658e-05
9.11367e-05
0.000108423
0.000133723
0.000165341
0.000201367
0.000239744
0.000278379
0.000315276
0.000348591
0.000376739
0.000398443
0.000412781
0.000419256
0.000590141
0.00058016
0.000559821
0.000530282
0.000492753
0.000448663
0.000399644
0.000347512
0.000294166
0.00024152
0.000191452
0.000145554
0.000105423
7.23001e-05
4.7138e-05
3.05078e-05
2.26122e-05
2.32159e-05
3.17714e-05
4.73738e-05
6.87546e-05
9.4426e-05
0.000122764
0.000152096
0.000180795
0.000207318
0.000230315
0.000248658
0.000261492
0.000268209
0.000494262
0.000485556
0.000468105
0.000442809
0.000410618
0.000372655
0.000330242
0.000284874
0.000238071
0.000191438
0.000146393
0.000104389
6.67152e-05
3.44452e-05
8.40388e-06
-1.08427e-05
-2.30743e-05
-2.83827e-05
-2.70203e-05
-1.96271e-05
-7.12245e-06
9.3799e-06
2.86544e-05
4.94216e-05
7.03977e-05
9.03572e-05
0.000108183
0.000122913
0.000133782
0.000140164
0.000413384
0.000405727
0.000390964
0.00036943
0.000341869
0.00030919
0.000272472
0.000232902
0.000191728
0.00015023
0.000109645
7.11935e-05
3.59804e-05
4.93616e-06
-2.12212e-05
-4.20798e-05
-5.73536e-05
-6.70318e-05
-7.12094e-05
-7.03336e-05
-6.50314e-05
-5.60862e-05
-4.43925e-05
-3.09229e-05
-1.66619e-05
-2.5649e-06
1.04764e-05
2.16804e-05
3.03856e-05
3.60117e-05
0.000346644
0.000340042
0.000327688
0.000309224
0.000285447
0.000257088
0.000225021
0.000190224
0.000153722
0.000116586
7.98533e-05
4.45568e-05
1.17005e-05
-1.79806e-05
-4.38561e-05
-6.55432e-05
-8.27601e-05
-9.56389e-05
-0.000103896
-0.000107928
-0.000108124
-0.000105037
-9.93346e-05
-9.17465e-05
-8.30088e-05
-7.3843e-05
-6.4936e-05
-5.69084e-05
-5.03049e-05
-4.56489e-05
0.000291993
0.000286796
0.000276261
0.000260258
0.000239477
0.000214569
0.000186274
0.000155396
0.000122793
8.9366e-05
5.60286e-05
2.36132e-05
-7.11308e-06
-3.5425e-05
-6.07455e-05
-8.27886e-05
-0.000101291
-0.000116161
-0.000127373
-0.000134918
-0.000139145
-0.00014045
-0.000139307
-0.000136267
-0.000131866
-0.000126636
-0.000121109
-0.00011577
-0.00011105
-0.000107375
0.000247557
0.000243524
0.000234274
0.00022023
0.000201873
0.000179794
0.000154605
0.000126994
9.77034e-05
6.75208e-05
3.72319e-05
7.4744e-06
-2.12109e-05
-4.81869e-05
-7.2971e-05
-9.50218e-05
-0.000114163
-0.000130245
-0.000143416
-0.000153323
-0.000160382
-0.000164864
-0.000167098
-0.000167433
-0.000166285
-0.000164069
-0.000161178
-0.000158015
-0.000154879
-0.000152028
0.000211098
0.00020786
0.000199683
0.000187221
0.000170875
0.000151159
0.000128585
0.000103773
7.73404e-05
4.99304e-05
2.2125e-05
-5.43154e-06
-3.22108e-05
-5.7699e-05
-8.14368e-05
-0.000103045
-0.000122301
-0.000139004
-0.000153116
-0.000164582
-0.000173549
-0.000180211
-0.000184796
-0.000187557
-0.000188787
-0.000188807
-0.000187924
-0.000186439
-0.00018458
-0.000182394
0.000180782
0.00017791
0.000170702
0.00015956
0.000144995
0.000127318
0.000107059
8.47002e-05
6.07596e-05
3.57783e-05
1.02963e-05
-1.51441e-05
-4.00487e-05
-6.39805e-05
-8.653e-05
-0.000107361
-0.000126201
-0.000142903
-0.000157439
-0.000169746
-0.000179878
-0.000187942
-0.000194082
-0.000198493
-0.00020138
-0.00020299
-0.000203553
-0.000203294
-0.000202379
-0.000200784
0.000155008
0.000152391
0.000145988
0.000136074
0.000123064
0.000107276
8.91026e-05
6.89684e-05
4.73163e-05
2.46441e-05
1.4133e-06
-2.19111e-05
-4.4903e-05
-6.71641e-05
-8.82948e-05
-0.000108035
-0.000126147
-0.000142493
-0.000156985
-0.00016958
-0.000180276
-0.000189116
-0.000196193
-0.000201628
-0.000205587
-0.000208244
-0.000209781
-0.000210367
-0.000210131
-0.000209131
0.000132762
0.00013014
0.000124532
0.000115794
0.000104243
9.01889e-05
7.39706e-05
5.59594e-05
3.65386e-05
1.61273e-05
-4.86226e-06
-2.60375e-05
-4.70208e-05
-6.74813e-05
-8.69846e-05
-0.00010541
-0.000122522
-0.000138176
-0.000152259
-0.000164679
-0.000175441
-0.000184556
-0.000192058
-0.000198033
-0.000202597
-0.000205877
-0.000208015
-0.00020915
-0.000209379
-0.000208835
0.000112912
0.000110507
0.000105596
9.79132e-05
8.77534e-05
7.53698e-05
6.10632e-05
4.51283e-05
2.79193e-05
9.79469e-06
-8.87781e-06
-2.7759e-05
-4.65426e-05
-6.49492e-05
-8.28287e-05
-9.98136e-05
-0.000115724
-0.000130385
-0.000143694
-0.000155574
-0.000166004
-0.000174962
-0.000182466
-0.000188576
-0.000193365
-0.000196905
-0.000199316
-0.000200779
-0.000201315
-0.000201135
9.49548e-05
9.28348e-05
8.86355e-05
8.19324e-05
7.31245e-05
6.23646e-05
4.99001e-05
3.60232e-05
2.10157e-05
5.18706e-06
-1.11375e-05
-2.76888e-05
-4.42309e-05
-6.05818e-05
-7.65279e-05
-9.18042e-05
-0.000106205
-0.000119563
-0.000131764
-0.000142748
-0.00015247
-0.000160921
-0.000168091
-0.00017402
-0.000178736
-0.000182279
-0.000184796
-0.000186362
-0.000187043
-0.000187097
7.85107e-05
7.67451e-05
7.31644e-05
6.74481e-05
5.99362e-05
5.07663e-05
4.01671e-05
2.83299e-05
1.5545e-05
2.05288e-06
-1.18772e-05
-2.60383e-05
-4.02461e-05
-5.43773e-05
-6.82753e-05
-8.16394e-05
-9.4272e-05
-0.00010604
-0.000116846
-0.000126627
-0.000135341
-0.000142977
-0.000149519
-0.000155004
-0.000159446
-0.000162906
-0.000165322
-0.000166774
-0.000167435
-0.000167599
6.31514e-05
6.18115e-05
5.87858e-05
5.41037e-05
4.78937e-05
4.03185e-05
3.15541e-05
2.1784e-05
1.12163e-05
9.0036e-08
-1.13988e-05
-2.31056e-05
-3.48554e-05
-4.66412e-05
-5.83967e-05
-6.96506e-05
-8.02586e-05
-9.01696e-05
-9.93127e-05
-0.000107632
-0.00011509
-0.000121659
-0.000127334
-0.000132114
-0.000135985
-0.00013909
-0.000141378
-0.000142716
-0.000143259
-0.000143321
4.86346e-05
4.76515e-05
4.52978e-05
4.16262e-05
3.6721e-05
3.07442e-05
2.38419e-05
1.61503e-05
7.84349e-06
-9.19147e-07
-9.97035e-06
-1.93321e-05
-2.88236e-05
-3.82179e-05
-4.73508e-05
-5.60751e-05
-6.44064e-05
-7.22517e-05
-7.95313e-05
-8.619e-05
-9.21856e-05
-9.74901e-05
-0.000102085
-0.00010595
-0.000109143
-0.00011167
-0.000113533
-0.000114691
-0.000115203
-0.000115165
3.48535e-05
3.41311e-05
3.24476e-05
2.97492e-05
2.61659e-05
2.18288e-05
1.68269e-05
1.12653e-05
5.19073e-06
-1.28274e-06
-8.08975e-06
-1.49998e-05
-2.18808e-05
-2.85314e-05
-3.48331e-05
-4.102e-05
-4.69857e-05
-5.26388e-05
-5.79077e-05
-6.27484e-05
-6.71238e-05
-7.10118e-05
-7.44199e-05
-7.72702e-05
-7.9659e-05
-8.15295e-05
-8.29251e-05
-8.37973e-05
-8.41962e-05
-8.41187e-05
2.1565e-05
2.1104e-05
2.00271e-05
1.83654e-05
1.61319e-05
1.34645e-05
1.03817e-05
6.96327e-06
3.22022e-06
-7.66532e-07
-4.91012e-06
-9.09648e-06
-1.32205e-05
-1.71821e-05
-2.09638e-05
-2.46425e-05
-2.81888e-05
-3.15644e-05
-3.47462e-05
-3.7719e-05
-4.04032e-05
-4.27793e-05
-4.48851e-05
-4.66603e-05
-4.81344e-05
-4.93084e-05
-5.02438e-05
-5.0805e-05
-5.10613e-05
-5.09763e-05
8.12428e-06
7.94099e-06
7.50499e-06
6.87759e-06
6.03905e-06
5.05415e-06
3.91347e-06
2.65241e-06
1.2614e-06
-1.65271e-07
-1.62114e-06
-2.99863e-06
-4.30308e-06
-5.53991e-06
-6.71167e-06
-7.83724e-06
-8.92692e-06
-9.9945e-06
-1.10083e-05
-1.20053e-05
-1.29335e-05
-1.37699e-05
-1.45392e-05
-1.52025e-05
-1.57784e-05
-1.62557e-05
-1.66465e-05
-1.68692e-05
-1.69812e-05
-1.69165e-05
4899.14
4899.14
4899.14
4899.14
4899.14
4899.14
4899.13
4899.13
4899.13
4899.13
4899.13
4899.13
4899.13
4899.13
4899.13
4899.13
4899.13
4899.13
4899.13
4899.13
4899.13
4899.13
4899.13
4899.13
4899.14
4899.14
4899.14
4899.14
4899.15
4899.17
4899.14
4899.15
4899.14
4899.14
4899.14
4899.14
4899.14
4899.13
4899.13
4899.13
4899.13
4899.13
4899.13
4899.13
4899.13
4899.13
4899.13
4899.13
4899.13
4899.13
4899.13
4899.13
4899.13
4899.14