/*--------------------------------*- C++ -*----------------------------------*\
| =========                 |                                                 |
| \\      /  F ield         | OpenFOAM: The Open Source CFD Toolbox           |
|  \\    /   O peration     | Version:  2312                                  |
|   \\  /    A nd           | Website:  www.openfoam.com                      |
|    \\/     M anipulation  |                                                 |
\*---------------------------------------------------------------------------*/
FoamFile
{
    version     2.0;
    format      ascii;
    arch        "LSB;label=32;scalar=64";
    class       surfaceScalarField;
    location    "1.01077";
    object      phi;
}
// * * * * * * * * * * * * * * * * * * * * * * * * * * * * * * * * * * * * * //

dimensions      [0 3 -1 0 0 0 0];

oriented        oriented;

internalField   nonuniform List<scalar> 
263100
(
-1.46724e-09
2.93449e-09
-1.46724e-09
-5.58515e-10
3.10766e-10
-1.221e-09
-6.59742e-10
1.16949e-09
-1.06959e-09
-5.79611e-10
9.33391e-10
-1.01487e-09
-3.94706e-10
6.05565e-10
-7.91836e-10
-2.2358e-11
1.59645e-10
-5.3337e-10
4.82348e-10
-2.41225e-10
-2.64855e-10
9.73923e-10
-5.042e-10
1.1267e-11
1.31847e-09
-4.91534e-10
1.45653e-10
1.33901e-09
-2.09438e-10
1.87612e-10
1.05986e-09
1.99745e-10
7.8154e-11
5.55748e-10
6.81664e-10
-1.78752e-10
2.04476e-11
1.03826e-09
-5.04107e-10
-3.11159e-10
1.14795e-09
-8.17441e-10
-2.46571e-10
1.00264e-09
-1.06827e-09
2.59428e-10
6.63352e-10
-1.17033e-09
1.12253e-09
1.87498e-10
-1.0515e-09
2.03878e-09
-1.60774e-10
-7.56284e-10
2.57328e-09
-2.52216e-10
-2.82989e-10
2.41679e-09
-6.58678e-12
1.62482e-10
1.45478e-09
5.38541e-10
4.23008e-10
-3.78534e-10
1.31343e-09
5.19586e-10
-2.75775e-09
1.93498e-09
4.441e-10
-5.13141e-09
2.17757e-09
1.96112e-10
-6.69586e-09
1.7121e-09
-1.47466e-10
-6.6095e-09
4.99669e-10
-5.85686e-10
-4.40137e-09
-1.20389e-09
-1.00375e-09
6.76196e-10
-3.1405e-09
-1.93644e-09
7.49174e-09
-3.88495e-09
-2.92983e-09
2.11299e-08
-1.36373e-08
-2.25402e-10
3.38351e-09
-2.25402e-10
-5.71707e-10
8.91357e-10
-2.36458e-10
-7.19109e-10
1.52029e-09
-2.05494e-10
-8.39031e-10
1.25126e-09
-2.00054e-10
-8.11238e-10
7.34813e-10
-1.59164e-10
-6.74601e-10
1.41227e-10
-1.2034e-10
-3.96593e-10
-4.20182e-10
-1.01154e-10
-1.03256e-11
-7.8287e-10
-1.0967e-10
4.30135e-10
-8.00251e-10
-1.33776e-10
8.71118e-10
-5.03987e-10
-1.48417e-10
1.26764e-09
-8.08699e-11
-1.17848e-10
1.60607e-09
3.8149e-10
-4.01392e-11
1.87786e-09
6.72593e-10
9.20446e-11
2.04073e-09
6.98574e-10
2.84747e-10
2.05809e-09
4.74628e-10
5.08967e-10
1.88299e-09
1.48753e-10
6.88125e-10
1.47696e-09
-1.74883e-10
7.66957e-10
9.63479e-10
-3.66562e-10
7.17974e-10
3.70483e-10
-1.83998e-10
5.2368e-10
-1.94228e-10
2.90661e-10
2.66597e-10
-7.50129e-10
1.07339e-09
2.04454e-11
-1.27389e-09
1.93122e-09
-9.43459e-11
-1.67865e-09
2.50007e-09
-1.60355e-10
-1.81878e-09
2.37897e-09
-6.09787e-11
-1.7177e-09
1.38306e-09
2.28555e-10
-1.66849e-09
-3.29545e-10
7.80895e-10
-1.74976e-09
-2.77265e-09
1.65118e-09
4.82533e-12
-7.84448e-09
2.9508e-09
6.68831e-09
-1.53639e-08
4.79711e-09
2.45458e-08
3.27384e-09
2.24071e-10
2.93429e-09
2.24071e-10
-3.12354e-10
1.42765e-09
-4.35631e-13
-6.02343e-10
1.83119e-09
-2.1501e-11
-8.64558e-10
1.5505e-09
-3.76288e-11
-1.09558e-09
1.03229e-09
-6.7066e-11
-1.23345e-09
4.20548e-10
-1.42097e-10
-1.20742e-09
-1.61185e-10
-2.85702e-10
-9.54232e-10
-6.10755e-10
-4.26029e-10
-4.21439e-10
-8.20051e-10
-5.13782e-10
4.02524e-10
-8.11968e-10
-5.16846e-10
1.39698e-09
-6.72308e-10
-4.03964e-10
2.41469e-09
-4.89737e-10
-1.47521e-10
3.20009e-09
-3.1624e-10
2.02327e-10
3.51671e-09
-1.60411e-10
5.41187e-10
3.18809e-09
-1.29412e-11
8.1498e-10
2.28044e-09
1.28093e-10
9.27092e-10
9.72379e-10
3.13311e-10
8.18712e-10
-4.3941e-10
5.59935e-10
4.84232e-10
-1.51486e-09
8.84064e-10
6.47676e-12
-2.05255e-09
1.21847e-09
-3.90835e-10
-1.82225e-09
1.60626e-09
-7.63638e-10
-8.27761e-10
1.8904e-09
-9.5386e-10
6.40848e-10
1.92888e-09
-8.97314e-10
2.28067e-09
1.38837e-09
-6.48813e-10
3.73598e-09
3.36756e-10
-4.08294e-10
4.59365e-09
-9.2614e-10
-2.60063e-10
3.31793e-09
-1.79887e-09
3.03202e-10
-7.17361e-10
-5.41497e-09
1.60728e-09
-9.93352e-10
-2.00113e-08
4.92498e-09
1.53616e-08
8.19233e-09
4.73669e-10
1.98679e-09
4.73669e-10
2.80151e-11
1.52591e-09
3.48653e-10
-2.36073e-10
1.78678e-09
3.09613e-10
-5.33041e-10
1.60135e-09
2.47235e-10
-8.90393e-10
1.25876e-09
1.31969e-10
-1.22859e-09
7.95948e-10
-3.61929e-11
-1.44611e-09
2.63171e-10
-2.05936e-10
-1.41856e-09
-2.45591e-10
-3.91964e-10
-1.03449e-09
-6.82693e-10
-5.2087e-10
-2.84947e-10
-1.01746e-09
-5.43689e-10
7.27784e-10
-1.24204e-09
-4.4286e-10
1.77216e-09
-1.30224e-09
-2.31966e-10
2.55443e-09
-1.14224e-09
4.34368e-11
2.84425e-09
-6.88114e-10
2.3742e-10
2.5005e-09
-1.67799e-12
3.31898e-10
1.57919e-09
7.87298e-10
2.61449e-10
3.00931e-10
1.5662e-09
2.47184e-11
-9.88062e-10
2.13111e-09
-2.82761e-10
-1.82302e-09
2.35915e-09
-6.40577e-10
-1.8792e-09
2.22302e-09
-9.48625e-10
-9.69871e-10
1.82908e-09
-1.13218e-09
7.26866e-10
1.36635e-09
-1.17244e-09
2.88048e-09
8.03035e-10
-1.02724e-09
4.86943e-09
1.96331e-10
-7.96091e-10
6.15946e-09
-4.38237e-10
-5.13932e-10
6.93516e-09
-1.17846e-09
-5.22023e-10
7.90468e-09
-1.07087e-09
-1.69596e-09
3.7335e-09
1.21979e-09
-2.46187e-09
-5.03789e-09
-9.48338e-09
-1.75471e-09
8.50997e-09
1.81529e-09
6.88588e-10
6.1057e-10
6.88588e-10
4.27479e-10
1.13732e-09
6.52735e-10
3.7613e-10
1.22975e-09
6.11138e-10
2.09251e-10
1.21278e-09
5.58193e-10
-1.17069e-10
1.13607e-09
4.51683e-10
-5.24591e-10
9.217e-10
2.84327e-10
-9.25548e-10
5.54392e-10
1.1212e-10
-1.20032e-09
6.8953e-11
-3.76132e-11
-1.25881e-09
-4.59532e-10
-1.62767e-10
-1.05748e-09
-9.93886e-10
-2.23287e-10
-6.55365e-10
-1.41866e-09
-2.24164e-10
-1.71695e-10
-1.60447e-09
-1.80374e-10
2.41372e-10
-1.40135e-09
-1.53138e-10
4.87212e-10
-7.43514e-10
-1.8981e-10
4.79414e-10
3.11251e-10
-3.04626e-10
2.05202e-10
1.53399e-09
-4.72035e-10
-2.22132e-10
2.63109e-09
-6.37091e-10
-5.8579e-10
3.24642e-09
-7.511e-10
-6.00452e-10
3.19816e-09
-8.23664e-10
-6.79736e-11
2.55806e-09
-8.66685e-10
9.9577e-10
1.62297e-09
-8.56612e-10
2.55424e-09
6.30647e-10
-8.21562e-10
4.18256e-09
-5.76763e-11
-7.6622e-10
5.46834e-09
-3.61017e-10
-7.26884e-10
5.90531e-09
-1.92261e-10
-6.81261e-10
5.22216e-09
5.26486e-11
-5.46182e-10
4.54178e-09
3.91594e-10
-7.80267e-10
3.07451e-09
4.44006e-09
-1.7512e-09
-3.34228e-09
-1.96471e-10
-2.86838e-09
6.78813e-09
-1.61909e-09
6.59754e-10
-7.06966e-10
6.59754e-10
8.83235e-10
2.00996e-10
7.17037e-10
1.13199e-09
2.7103e-10
7.13774e-10
1.24477e-09
4.23356e-10
6.80401e-10
1.14057e-09
6.34359e-10
6.09594e-10
8.31123e-10
7.19123e-10
5.15548e-10
3.5492e-10
6.20368e-10
4.13571e-10
-2.47436e-10
3.29019e-10
3.45422e-10
-9.20641e-10
-8.09908e-11
2.9757e-10
-1.59443e-09
-5.60871e-10
2.43455e-10
-2.15028e-09
-9.79591e-10
1.19264e-10
-2.53029e-09
-1.19294e-09
-2.92063e-11
-2.6221e-09
-1.03859e-09
-2.68744e-10
-2.37972e-09
-4.78463e-10
-5.05277e-10
-1.84787e-09
4.66351e-10
-6.84789e-10
-1.1106e-09
1.59193e-09
-7.92976e-10
-2.69788e-10
2.54213e-09
-7.49527e-10
5.6507e-10
3.00988e-09
-5.95867e-10
1.38961e-09
2.77281e-09
-3.96618e-10
2.1819e-09
1.96784e-09
-1.99398e-10
2.94302e-09
9.36587e-10
-7.20196e-11
3.5941e-09
5.0796e-11
-6.85029e-11
4.0774e-09
-3.6399e-10
-1.74308e-10
4.21339e-09
-1.10969e-10
-3.83465e-10
3.90498e-09
8.83409e-10
-7.64845e-10
2.54624e-09
2.54301e-09
-1.1294e-09
5.51514e-10
3.72494e-09
-1.33664e-09
-1.13537e-10
7.60894e-09
-2.50208e-09
-2.8759e-09
6.40532e-09
-3.8379e-09
6.82857e-09
-2.91524e-09
2.52368e-10
-1.20916e-09
2.52368e-10
1.06124e-09
-9.85889e-10
3.82415e-10
1.73277e-09
-7.49115e-10
3.5257e-10
2.29094e-09
-4.43944e-10
3.12998e-10
2.60712e-09
-1.2253e-11
3.34201e-10
2.5894e-09
3.89362e-10
3.51143e-10
2.17543e-09
6.43483e-10
3.94406e-10
1.31481e-09
7.48264e-10
4.44857e-10
7.31041e-11
6.8036e-10
4.83778e-10
-1.41263e-09
4.81108e-10
4.47192e-10
-2.93385e-09
2.2822e-10
3.16908e-10
-4.12459e-09
-2.19658e-11
2.33983e-11
-4.7032e-09
-1.80283e-10
-2.75876e-10
-4.49014e-09
-1.50575e-10
-5.3689e-10
-3.52229e-09
1.60808e-10
-6.57993e-10
-1.98428e-09
6.41742e-10
-5.83246e-10
-1.92791e-10
1.09583e-09
-3.40379e-10
1.48743e-09
1.2863e-09
4.83315e-11
2.81548e-09
1.10174e-09
3.48071e-10
3.61321e-09
5.60358e-10
6.14776e-10
3.81682e-09
-8.2278e-11
8.20129e-10
3.49644e-09
-4.44835e-10
8.20619e-10
2.79339e-09
-2.8999e-10
6.33283e-10
1.7418e-09
6.28012e-10
3.16389e-10
5.53772e-10
2.22589e-09
-1.51167e-10
-6.98891e-10
4.62821e-09
-8.29771e-10
-2.36391e-09
6.83955e-09
-1.44732e-09
-1.91769e-09
9.24022e-09
-2.07567e-09
-2.19206e-09
9.05832e-09
-2.37711e-09
6.12446e-09
-1.48679e-09
-5.75959e-10
-5.47443e-11
-5.75959e-10
8.64369e-10
-2.10903e-09
-3.13485e-10
2.01038e-09
-1.55925e-09
-3.32619e-10
3.05942e-09
-1.13665e-09
-3.53187e-10
3.88183e-09
-5.30978e-10
-3.00588e-10
4.28062e-09
1.67012e-10
-1.73333e-10
4.06618e-09
8.6175e-10
-6.41816e-13
3.15039e-09
1.49969e-09
1.67725e-10
1.59631e-09
1.94602e-09
2.92053e-10
-3.85103e-10
2.1668e-09
2.99725e-10
-2.44019e-09
2.0819e-09
2.05888e-10
-4.1087e-09
1.61677e-09
3.47918e-11
-5.04212e-09
8.72363e-10
-1.13602e-10
-5.01175e-09
6.24817e-11
-2.37221e-10
-4.04239e-09
-6.09587e-10
-1.92204e-10
-2.36991e-09
-1.05602e-09
3.24859e-11
-3.75231e-10
-1.18678e-09
2.95449e-10
1.45445e-09
-1.19049e-09
6.54778e-10
2.76703e-09
-1.21567e-09
1.01248e-09
3.31294e-09
-1.30397e-09
1.32586e-09
3.10637e-09
-1.33433e-09
1.46565e-09
2.32603e-09
-1.08372e-09
1.42569e-09
1.1109e-09
-3.23292e-10
1.25422e-09
-3.73671e-10
1.11151e-09
1.00611e-09
-1.88558e-09
3.08383e-09
6.58243e-10
-2.84514e-09
5.39366e-09
1.97664e-10
-3.32602e-09
7.45012e-09
-1.26744e-10
-2.27123e-09
8.37892e-09
-1.91016e-10
-7.49198e-10
7.47334e-09
6.51684e-11
4.35652e-09
1.02067e-09
-1.34396e-09
2.63509e-09
-1.34396e-09
5.55795e-10
-2.87881e-09
-1.12734e-09
2.06073e-09
-1.93824e-09
-1.12372e-09
3.47583e-09
-1.53271e-09
-1.01687e-09
4.62193e-09
-8.51521e-10
-8.23312e-10
5.30258e-09
5.15119e-11
-5.62697e-10
5.30809e-09
1.15466e-09
-2.95607e-10
4.53716e-09
2.34388e-09
-6.99514e-11
3.11018e-09
3.33284e-09
4.4139e-11
1.21951e-09
3.91238e-09
1.49869e-10
-7.47312e-10
3.85269e-09
2.01699e-10
-2.40889e-09
3.05995e-09
2.25013e-10
-3.47551e-09
1.63673e-09
3.09836e-10
-3.81608e-09
-3.72609e-11
4.48753e-10
-3.43892e-09
-1.57492e-09
5.97336e-10
-2.5227e-09
-2.74509e-09
7.82548e-10
-1.33398e-09
-3.40378e-09
1.03825e-09
-2.01924e-10
-3.5878e-09
1.27525e-09
6.39059e-10
-3.45717e-09
1.41029e-09
1.07196e-09
-3.14305e-09
1.4155e-09
1.01203e-09
-2.60182e-09
1.33612e-09
4.58904e-10
-1.7618e-09
1.23913e-09
-4.17189e-10
-5.89256e-10
1.14913e-09
-1.43251e-09
1.08711e-09
1.04594e-09
-2.3645e-09
3.08109e-09
9.40141e-10
-2.68454e-09
4.81564e-09
9.02793e-10
-2.11262e-09
5.8216e-09
1.06082e-09
-5.85219e-10
5.36235e-09
1.49308e-09
6.81492e-10
4.03958e-09
2.17087e-09
2.62613e-09
2.41538e-09
-1.59045e-09
5.81718e-09
-1.59045e-09
4.19451e-10
-3.64969e-09
-1.23703e-09
1.96838e-09
-2.38598e-09
-1.09954e-09
3.36442e-09
-2.06553e-09
-8.6147e-10
4.43914e-09
-1.35958e-09
-5.64628e-10
5.05122e-09
-2.80795e-10
-2.77265e-10
5.08095e-09
1.17035e-09
-4.22629e-11
4.62397e-09
2.69569e-09
1.09187e-10
3.74035e-09
4.03353e-09
1.87927e-10
2.59384e-09
4.77723e-09
2.87796e-10
1.36225e-09
4.64972e-09
4.41887e-10
2.05959e-10
3.5637e-09
6.61044e-10
-8.06748e-10
1.74631e-09
9.1272e-10
-1.69314e-09
-3.38955e-10
1.1986e-09
-2.40964e-09
-2.26533e-09
1.4181e-09
-2.92823e-09
-3.74207e-09
1.52715e-09
-3.17414e-09
-4.58857e-09
1.44235e-09
-3.06478e-09
-4.87206e-09
1.18632e-09
-2.67552e-09
-4.70442e-09
8.68944e-10
-2.18779e-09
-4.21207e-09
5.91599e-10
-1.74447e-09
-3.43561e-09
4.00006e-10
-1.46744e-09
-2.33684e-09
3.06725e-10
-1.42618e-09
-8.99825e-10
2.77229e-10
-1.45826e-09
7.96654e-10
3.29744e-10
-1.33547e-09
2.48973e-09
4.75205e-10
-7.28719e-10
3.49671e-09
7.18401e-10
3.8307e-10
3.51676e-09
1.19907e-09
1.31722e-09
2.71868e-09
1.7155e-09
1.1807e-09
2.3022e-09
1.87999e-09
2.66627e-09
1.14606e-09
-6.5104e-10
7.12009e-09
-6.5104e-10
7.22403e-10
-4.82732e-09
-1.93266e-10
1.55765e-09
-3.27632e-09
5.73518e-11
2.18299e-09
-2.90941e-09
2.21106e-10
2.55997e-09
-2.1526e-09
4.1912e-10
2.65467e-09
-9.37198e-10
5.65517e-10
2.60629e-09
6.43827e-10
5.79608e-10
2.5576e-09
2.28026e-09
4.69894e-10
2.62404e-09
3.6021e-09
3.71943e-10
2.72136e-09
4.32669e-09
3.61402e-10
2.70613e-09
4.15725e-09
5.17076e-10
2.3624e-09
3.12726e-09
7.90655e-10
1.50578e-09
1.53792e-09
1.07642e-09
3.94945e-11
-7.32847e-11
1.21269e-09
-1.75077e-09
-1.66785e-09
1.20522e-09
-3.58857e-09
-2.84868e-09
9.56893e-10
-5.04603e-09
-3.60627e-09
4.87385e-10
-5.78795e-09
-4.0446e-09
-7.3828e-11
-5.77429e-09
-4.25486e-09
-4.52179e-10
-5.07517e-09
-4.13513e-09
-7.65754e-10
-3.97296e-09
-3.59957e-09
-9.28666e-10
-2.78286e-09
-2.6494e-09
-8.68623e-10
-1.73136e-09
-1.25757e-09
-6.85344e-10
-7.4619e-10
2.6732e-10
-4.47799e-10
2.70085e-10
1.58683e-09
-1.05536e-10
1.34394e-09
2.20176e-09
2.28901e-10
2.06148e-09
2.2839e-09
5.23235e-10
1.80409e-09
2.39307e-09
5.91089e-10
7.13178e-10
3.31597e-09
8.54147e-11
3.74158e-09
-3.5496e-10
1.17585e-09
4.76969e-09
1.17585e-09
7.74539e-10
-5.81796e-09
1.39648e-09
1.46068e-10
-4.35954e-09
1.7159e-09
-6.26484e-10
-3.82587e-09
1.6937e-09
-1.43193e-09
-2.9312e-09
1.58943e-09
-1.99804e-09
-1.59645e-09
1.23161e-09
-2.08739e-09
1.55749e-11
7.24851e-10
-1.46758e-09
1.42114e-09
2.47645e-10
-2.5778e-10
2.51697e-09
-1.15226e-10
1.2223e-09
3.08592e-09
-2.28818e-10
2.50758e-09
3.06309e-09
-1.79688e-10
3.02006e-09
2.69243e-09
-6.54941e-11
2.45099e-09
2.11307e-09
6.54852e-12
9.27513e-10
1.52466e-09
-6.16547e-11
-1.34869e-09
9.09587e-10
-2.88531e-10
-3.80267e-09
3.40105e-10
-7.22453e-10
-5.8378e-09
-3.37474e-10
-1.22188e-09
-6.88908e-09
-1.31215e-09
-1.67005e-09
-6.85251e-09
-2.25352e-09
-2.0275e-09
-5.90382e-09
-2.98057e-09
-2.09346e-09
-4.42034e-09
-3.18467e-09
-1.88908e-09
-2.76575e-09
-2.75582e-09
-1.53919e-09
-1.15578e-09
-1.73959e-09
-1.11913e-09
3.32708e-10
-5.22019e-10
-6.90308e-10
1.68428e-09
5.32097e-10
-2.87877e-10
2.58768e-09
1.28722e-09
2.03134e-11
2.62395e-09
2.09961e-09
1.5741e-10
1.6971e-09
3.38994e-09
-6.04351e-11
6.84725e-10
4.68172e-09
-3.43749e-10
4.36935e-09
6.49725e-11
3.04261e-09
-1.31291e-09
3.04261e-09
1.71069e-10
-5.65244e-09
2.71349e-09
-2.33638e-09
-4.36289e-09
2.51778e-09
-4.61568e-09
-3.49888e-09
1.95981e-09
-6.49326e-09
-2.32828e-09
1.2829e-09
-7.5585e-09
-9.56539e-10
4.34415e-10
-7.44823e-09
2.28386e-10
-3.13089e-10
-6.14459e-09
1.03135e-09
-9.02962e-10
-3.83668e-09
1.57509e-09
-1.3543e-09
-1.10244e-09
1.85353e-09
-1.48946e-09
1.21335e-09
2.20364e-09
-1.4435e-09
2.47406e-09
2.82709e-09
-1.38234e-09
2.39196e-09
3.63815e-09
-1.43001e-09
1.1334e-09
4.46883e-09
-1.67297e-09
-8.66813e-10
4.98291e-09
-2.06098e-09
-2.95558e-09
4.88324e-09
-2.44285e-09
-4.53085e-09
3.95713e-09
-2.70844e-09
-5.28682e-09
2.26183e-09
-2.8077e-09
-5.07731e-09
2.33459e-10
-2.68664e-09
-4.21335e-09
-1.47079e-09
-2.3642e-09
-3.01366e-09
-2.48717e-09
-1.88775e-09
-1.63408e-09
-2.72179e-09
-1.40413e-09
-1.9331e-10
-2.21046e-09
-9.60258e-10
1.20622e-09
-1.34966e-09
-5.62033e-10
2.3547e-09
-3.7675e-10
-2.2956e-10
2.91478e-09
7.29078e-10
8.30861e-12
2.69042e-09
2.20498e-09
1.29311e-10
1.99071e-09
3.86352e-09
2.36404e-10
1.44212e-09
4.59984e-09
6.40588e-10
4.50216e-09
1.31751e-09
3.34617e-09
-8.00084e-09
3.34617e-09
-1.72871e-09
-2.34657e-09
1.77956e-09
-5.6407e-09
-1.59665e-09
1.15543e-09
-8.7134e-09
-6.43154e-10
2.2708e-10
-1.09444e-08
4.39198e-10
-5.25793e-10
-1.18356e-08
1.15553e-09
-1.20947e-09
-1.12232e-08
1.49033e-09
-1.86225e-09
-9.12602e-09
1.18587e-09
-2.23903e-09
-6.04783e-09
7.92985e-10
-2.28297e-09
-2.78711e-09
7.82114e-10
-2.17598e-09
-1.56842e-10
1.61171e-09
-2.02501e-09
1.47863e-09
3.19287e-09
-1.98816e-09
1.89848e-09
5.38006e-09
-2.14914e-09
1.4022e-09
7.36374e-09
-2.3866e-09
4.17331e-10
8.55145e-09
-2.57226e-09
-5.86886e-10
8.55763e-09
-2.65928e-09
-1.28266e-09
7.2469e-09
-2.58349e-09
-1.57815e-09
4.85004e-09
-2.2824e-09
-1.5949e-09
2.10144e-09
-1.84093e-09
-1.4141e-09
-2.54802e-10
-1.38635e-09
-1.1064e-09
-1.74376e-09
-1.04045e-09
-6.28709e-10
-2.37262e-09
-8.1591e-10
1.29204e-10
-2.25189e-09
-7.05285e-10
1.08013e-09
-1.62206e-09
-6.67146e-10
1.92926e-09
-6.05867e-10
-6.08604e-10
2.34036e-09
8.56848e-10
-5.27544e-10
2.37363e-09
2.54178e-09
-3.58954e-10
2.29502e-09
3.82864e-09
1.24321e-10
1.62688e-09
4.49894e-09
7.79591e-10
5.79078e-09
3.46943e-10
1.24932e-09
-1.04934e-08
1.24932e-09
-4.2693e-09
3.67609e-09
-4.90903e-10
-8.17938e-09
3.36381e-09
-1.03861e-09
-1.09647e-08
3.87942e-09
-1.72531e-09
-1.25688e-08
4.30847e-09
-2.25279e-09
-1.27591e-08
3.8562e-09
-2.49753e-09
-1.13694e-08
2.54748e-09
-2.43365e-09
-8.8641e-09
8.78931e-10
-2.18489e-09
-5.92618e-09
-3.38864e-10
-1.79243e-09
-3.17466e-09
-4.76016e-10
-1.47982e-09
-1.01675e-09
7.41638e-10
-1.27452e-09
3.98611e-10
3.12092e-09
-1.33053e-09
1.27836e-09
6.03828e-09
-1.52557e-09
1.81409e-09
8.53902e-09
-1.69908e-09
2.17762e-09
9.88912e-09
-1.68963e-09
2.4518e-09
9.76873e-09
-1.47382e-09
2.56512e-09
8.19293e-09
-1.04778e-09
2.34178e-09
5.61342e-09
-5.2813e-10
1.75741e-09
2.85958e-09
-1.61422e-10
8.55426e-10
6.37519e-10
2.24918e-11
-9.55274e-12
-8.03533e-10
-6.20159e-11
-5.18916e-10
-1.46261e-09
-3.87146e-10
-4.77007e-10
-1.52803e-09
-7.52167e-10
6.45273e-12
-1.04293e-09
-1.04907e-09
6.28268e-10
1.86784e-11
-1.23306e-09
1.0805e-09
1.68661e-09
-1.26902e-09
1.31261e-09
3.45105e-09
-1.12878e-09
1.11847e-09
4.89472e-09
-8.59639e-10
1.2351e-10
6.5489e-09
-1.04285e-09
7.82327e-09
-1.89855e-09
-1.38288e-09
-7.72037e-09
-1.38288e-09
-5.76829e-09
1.08197e-08
-2.74273e-09
-8.4888e-09
8.9686e-09
-2.87074e-09
-1.00656e-08
8.47353e-09
-3.00384e-09
-1.04156e-08
7.41984e-09
-2.7477e-09
-9.55768e-09
5.30793e-09
-2.29577e-09
-7.88522e-09
2.53901e-09
-1.64994e-09
-5.97382e-09
-4.24233e-11
-9.75919e-10
-4.1995e-09
-1.68983e-09
-4.09224e-10
-2.81818e-09
-1.70343e-09
-1.39961e-10
-1.85936e-09
1.22741e-11
-2.15755e-10
-8.57032e-10
2.62058e-09
-4.88553e-10
4.08872e-10
5.58964e-09
-8.04037e-10
1.93707e-09
7.92536e-09
-9.01367e-10
3.48382e-09
9.07988e-09
-7.2416e-10
4.68689e-09
8.86506e-09
-2.8564e-10
5.22348e-09
7.46107e-09
2.09663e-10
4.7862e-09
5.45136e-09
6.14444e-10
3.48034e-09
3.44237e-09
7.38858e-10
1.7706e-09
1.81924e-09
5.44339e-10
2.60265e-10
6.48012e-10
7.54248e-11
-6.54487e-10
-1.75508e-10
-3.55659e-10
-9.34312e-10
-5.96717e-10
-6.34939e-10
-8.20955e-10
-3.64049e-10
-7.75961e-10
-6.73302e-10
7.24797e-10
-8.37815e-10
-6.18807e-10
2.53424e-09
-8.86463e-10
-7.03707e-10
4.44167e-09
-8.90247e-10
-1.20772e-09
6.59552e-09
-1.18136e-09
-1.63368e-09
8.79634e-09
-1.80586e-09
7.65012e-09
-1.44681e-09
-3.36971e-09
-9.72629e-10
-3.36971e-09
-5.30695e-09
1.63473e-08
-3.57158e-09
-6.26156e-09
1.30776e-08
-3.13818e-09
-6.27316e-09
1.12715e-08
-2.77042e-09
-5.46061e-09
8.70051e-09
-2.07734e-09
-4.23017e-09
5.35623e-09
-1.26287e-09
-3.09222e-09
1.91271e-09
-4.95808e-10
-2.47465e-09
-6.61629e-10
1.73871e-11
-2.40976e-09
-2.01227e-09
2.73188e-10
-2.66136e-09
-1.52848e-09
9.20991e-11
-2.66884e-09
3.90437e-10
-3.55349e-10
-1.93185e-09
2.74949e-09
-8.50545e-10
-3.38541e-10
5.06738e-09
-1.0555e-09
1.80175e-09
6.77541e-09
-9.74385e-10
3.93511e-09
7.56643e-09
-6.03306e-10
5.422e-09
7.50117e-09
-1.05571e-10
5.86602e-09
6.77982e-09
2.55525e-10
5.18422e-09
5.74023e-09
4.11998e-10
3.7625e-09
4.56156e-09
3.22204e-10
2.17382e-09
3.33881e-09
8.91226e-11
9.20327e-10
2.03327e-09
-1.1167e-10
1.97481e-10
7.08644e-10
-1.41332e-10
-2.17106e-10
-1.57421e-10
-4.9321e-12
-7.23584e-10
-1.04632e-10
2.66672e-10
-1.37141e-09
1.00103e-09
3.91143e-10
-1.97414e-09
2.73767e-09
4.18936e-10
-2.46069e-09
4.69127e-09
2.56807e-10
-2.64846e-09
6.80724e-09
-3.75246e-12
-1.59181e-09
7.67057e-09
8.97466e-11
4.82415e-09
1.2522e-09
-3.4341e-09
5.90562e-09
-3.4341e-09
-3.19446e-09
1.89442e-08
-2.81192e-09
-2.72577e-09
1.50656e-08
-2.43561e-09
-1.8285e-09
1.23763e-08
-1.98141e-09
-7.23707e-10
9.01619e-09
-1.4001e-09
1.51944e-10
5.31062e-09
-8.09999e-10
3.86695e-10
2.14333e-09
-4.45697e-10
-2.25243e-10
2.65945e-10
-2.96377e-10
-1.3949e-09
-3.37208e-10
-4.8654e-10
-2.46785e-09
3.96203e-10
-8.33151e-10
-2.7615e-09
1.81632e-09
-1.11377e-09
-2.03851e-09
3.24553e-09
-1.20043e-09
-3.89834e-10
4.47986e-09
-1.04215e-09
1.71578e-09
5.29891e-09
-6.09466e-10
3.57542e-09
5.82567e-09
-9.83771e-11
4.71103e-09
6.18161e-09
2.05324e-10
4.96522e-09
6.23796e-09
3.09807e-10
4.48325e-09
6.00089e-09
2.44017e-10
3.65354e-09
5.3164e-09
9.79445e-11
2.86743e-09
4.09723e-09
5.09388e-11
2.24913e-09
2.52848e-09
1.46418e-10
1.61246e-09
9.67303e-10
4.01427e-10
6.5286e-10
1.78111e-10
6.47664e-10
-6.20078e-10
4.90826e-10
7.01445e-10
-1.86339e-09
1.69726e-09
5.7159e-10
-2.59669e-09
3.051e-09
4.4509e-10
-2.70941e-09
4.41571e-09
4.1407e-10
-1.88273e-09
5.29558e-09
7.11355e-10
-3.12957e-10
4.65963e-09
1.46801e-09
3.22766e-09
1.30672e-09
-2.66218e-09
1.12434e-08
-2.66218e-09
-1.11569e-09
1.94302e-08
-1.99831e-09
5.73867e-11
1.58141e-08
-1.89212e-09
1.13985e-09
1.28853e-08
-1.56275e-09
2.17615e-09
9.23625e-09
-1.22842e-09
2.62597e-09
5.81544e-09
-9.27582e-10
2.22877e-09
3.27527e-09
-7.08692e-10
1.18996e-09
1.90437e-09
-5.74571e-10
-1.78418e-10
1.60015e-09
-5.44881e-10
-1.27952e-09
2.01616e-09
-4.95468e-10
-1.64043e-09
2.4846e-09
-2.84419e-10
-1.11447e-09
2.65305e-09
8.93872e-11
1.59036e-11
2.88725e-09
4.85366e-10
1.23978e-09
3.22341e-09
8.75253e-10
2.19818e-09
3.78815e-09
1.10339e-09
2.77243e-09
4.56305e-09
1.06925e-09
3.04262e-09
5.16232e-09
8.30892e-10
3.18954e-09
5.2884e-09
5.91397e-10
3.26666e-09
4.79053e-09
4.74946e-10
3.17178e-09
3.68676e-09
5.31992e-10
2.68076e-09
2.38062e-09
6.66157e-10
1.51088e-09
1.50369e-09
6.61619e-10
-1.8349e-10
1.58281e-09
3.18888e-10
-1.76387e-09
2.39761e-09
-2.95965e-10
-2.64035e-09
3.50198e-09
-8.96534e-10
-2.61398e-09
4.10537e-09
-1.04788e-09
-1.81724e-09
4.57017e-09
-9.17378e-10
-5.68773e-10
4.73252e-09
-6.50887e-10
-6.41153e-11
4.79358e-09
-6.03591e-10
4.95584e-09
-1.7619e-09
-1.87794e-09
1.50185e-08
-1.87794e-09
-1.79998e-11
1.90202e-08
-1.40249e-09
1.4679e-09
1.57302e-08
-1.36065e-09
2.83729e-09
1.25911e-08
-1.03507e-09
3.87494e-09
8.87943e-09
-6.42088e-10
4.18696e-09
5.74248e-09
-2.02004e-10
3.7304e-09
3.62375e-09
1.4327e-10
2.71484e-09
2.56184e-09
3.91419e-10
1.51006e-09
2.19195e-09
6.44507e-10
6.10851e-10
1.96412e-09
9.81329e-10
1.24333e-10
1.56028e-09
1.43982e-09
-1.1224e-10
9.55977e-10
1.96195e-09
-3.25273e-10
8.11636e-10
2.31664e-09
-4.96544e-10
1.17255e-09
2.25011e-09
-4.93092e-10
2.02693e-09
1.78596e-09
-9.8189e-11
2.99421e-09
1.20246e-09
6.4076e-10
3.76077e-09
6.9152e-10
1.57489e-09
3.94487e-09
4.38883e-10
2.27818e-09
3.70365e-09
4.13962e-10
2.28222e-09
3.23778e-09
4.76682e-10
1.26416e-09
3.06069e-09
3.71511e-10
-4.24241e-10
3.36697e-09
-1.39232e-10
-2.15914e-09
4.31309e-09
-9.57469e-10
-3.08843e-09
4.89827e-09
-1.53125e-09
-2.77975e-09
4.79623e-09
-1.5608e-09
-1.76915e-09
4.52415e-09
-1.38558e-09
-7.2606e-10
4.83393e-09
-1.26173e-09
-2.58813e-10
5.70217e-09
-1.39068e-09
-6.52466e-10
7.39757e-09
-2.16312e-09
6.56965e-09
-2.2246e-09
-1.08622e-09
1.7218e-08
-1.08622e-09
1.11317e-09
1.74179e-08
-5.3322e-10
2.66541e-09
1.44771e-08
-2.43005e-10
4.05816e-09
1.10354e-08
2.17351e-10
4.92748e-09
7.41264e-09
6.49929e-10
5.11769e-09
4.56252e-09
1.03978e-09
4.64011e-09
2.83179e-09
1.3168e-09
3.75228e-09
1.82844e-09
1.6657e-09
2.71728e-09
1.29089e-09
1.97777e-09
1.71313e-09
7.52287e-10
2.25529e-09
5.81825e-10
2.5627e-10
2.4726e-09
-7.9894e-10
4.15779e-11
2.33081e-09
-2.13563e-09
3.42651e-10
1.8401e-09
-3.04929e-09
1.03622e-09
1.08361e-09
-3.22919e-09
2.00862e-09
2.31417e-10
-2.42695e-09
2.51511e-09
-2.89907e-10
-1.01094e-09
2.83154e-09
-4.53069e-10
3.05572e-10
3.10452e-09
-4.41337e-10
8.86964e-10
3.4915e-09
-3.32519e-10
4.32128e-10
4.17322e-09
-4.41225e-10
-8.07704e-10
5.22615e-09
-8.83016e-10
-2.22967e-09
6.33261e-09
-1.49758e-09
-2.81992e-09
6.64387e-09
-1.69099e-09
-2.26033e-09
5.80843e-09
-1.417e-09
-1.14794e-09
4.49173e-09
-7.52291e-10
-3.77115e-10
4.02372e-09
-2.12328e-10
-1.3121e-10
4.76727e-09
-1.18952e-10
-3.67189e-10
6.49794e-09
-4.97354e-10
-4.28658e-10
8.51359e-09
-9.90012e-10
6.64581e-09
-4.47404e-10
4.39884e-11
1.7167e-08
4.39884e-11
2.23569e-09
1.46748e-08
6.32922e-10
3.73914e-09
1.206e-08
9.8593e-10
4.78823e-09
8.62144e-09
1.43546e-09
5.12642e-09
5.29249e-09
1.85027e-09
4.71005e-09
3.00822e-09
2.03606e-09
3.84848e-09
1.71913e-09
2.0362e-09
2.86047e-09
1.00917e-09
1.86566e-09
1.83148e-09
6.7765e-10
1.69694e-09
5.66625e-10
5.6387e-10
1.50448e-09
-1.0315e-09
7.02021e-10
1.2004e-09
-2.82828e-09
1.2573e-09
6.26184e-10
-4.37777e-09
2.0844e-09
-1.49589e-10
-4.95961e-09
2.43422e-09
-7.75407e-10
-4.34252e-09
2.3906e-09
-9.59536e-10
-2.83845e-09
1.97384e-09
-9.23678e-10
-1.21055e-09
1.86949e-09
-6.26137e-10
-3.236e-10
2.6731e-09
-4.14111e-10
-4.38322e-10
4.19853e-09
-5.4802e-10
-1.29723e-09
6.12039e-09
-1.04016e-09
-2.19058e-09
7.7632e-09
-1.59121e-09
-2.23816e-09
8.20735e-09
-1.7701e-09
-1.27287e-09
7.07433e-09
-1.33421e-09
-6.68421e-13
4.93267e-09
-3.30668e-10
6.00599e-10
3.62642e-09
3.33826e-10
3.5179e-10
3.98853e-09
3.57662e-10
-1.25957e-10
5.2077e-09
1.148e-10
-3.56679e-10
6.71844e-09
9.1351e-11
5.9828e-11
8.02026e-09
1.61121e-10
6.87068e-09
-9.1025e-11
9.18928e-10
1.53765e-08
9.18928e-10
2.93982e-09
1.11413e-08
1.60964e-09
4.06484e-09
9.03587e-09
1.98665e-09
4.34413e-09
6.23174e-09
2.19635e-09
3.73409e-09
3.85935e-09
2.12701e-09
2.58615e-09
2.44866e-09
1.78835e-09
1.44712e-09
1.61692e-09
1.31844e-09
4.52914e-10
1.18413e-09
8.92273e-10
-4.96667e-10
1.08296e-09
6.1289e-10
-1.65527e-09
1.38841e-09
3.98065e-10
-3.11408e-09
2.14682e-09
7.34891e-11
-4.47034e-09
2.94356e-09
-2.74943e-10
-5.06823e-09
3.21739e-09
-4.84009e-10
-4.58806e-09
2.46547e-09
-4.6363e-10
-3.24894e-09
1.20339e-09
-1.06466e-10
-1.74665e-09
2.40648e-10
2.75274e-10
-9.26944e-10
4.54591e-10
6.39913e-10
-1.01301e-09
2.20054e-09
6.05224e-10
-1.75563e-09
4.95241e-09
3.85839e-11
-2.30184e-09
7.39718e-09
-6.76412e-10
-1.9824e-09
8.40744e-09
-9.04575e-10
-6.46367e-10
7.38756e-09
-4.51947e-10
8.65351e-10
5.26103e-09
3.712e-10
1.34772e-09
3.6495e-09
8.7585e-10
6.26924e-10
3.6956e-09
7.32212e-10
-4.04095e-10
5.00289e-09
1.02844e-10
-9.03887e-10
6.1582e-09
-3.5913e-10
-7.27464e-10
7.01148e-09
-3.7324e-10
-8.81585e-11
7.87812e-09
-3.97764e-10
6.80327e-09
6.38437e-11
1.62686e-09
1.21794e-08
1.62686e-09
2.85829e-09
8.00081e-09
2.01486e-09
3.28575e-09
6.56178e-09
2.14343e-09
2.69427e-09
4.89032e-09
2.02866e-09
1.38606e-09
3.60348e-09
1.6582e-09
-2.51701e-11
2.75618e-09
1.19515e-09
-1.16173e-09
2.04693e-09
7.94456e-10
-1.99066e-09
1.50888e-09
5.87706e-10
-2.72181e-09
1.37267e-09
5.20061e-10
-3.59923e-09
1.88967e-09
4.4926e-10
-4.42643e-09
2.74672e-09
2.94687e-10
-4.77572e-09
3.17863e-09
1.75783e-10
-4.19704e-09
2.42067e-09
2.74184e-10
-2.82285e-09
5.36891e-10
6.05844e-10
-1.38853e-09
-1.30197e-09
1.11893e-09
-7.4555e-10
-1.84573e-09
1.48928e-09
-1.01328e-09
-4.99529e-10
1.26742e-09
-1.66013e-09
2.26094e-09
6.33392e-10
-1.96782e-09
5.31563e-09
-5.71729e-12
-1.33189e-09
6.81432e-09
7.43591e-13
3.24786e-10
6.33005e-09
4.79343e-10
1.86646e-09
4.61686e-09
1.29307e-09
2.12811e-09
3.02572e-09
2.04365e-09
8.39159e-10
3.13382e-09
1.88107e-09
-7.22269e-10
4.30823e-09
1.03195e-09
-1.59464e-09
5.45018e-09
5.14801e-10
-1.78889e-09
6.18244e-09
2.65399e-10
-1.24985e-09
6.38885e-09
1.82938e-10
3.73918e-10
5.76401e-09
5.91129e-10
5.04542e-09
2.21359e-09
1.70504e-09
8.83094e-09
1.70504e-09
2.15078e-09
5.65863e-09
1.99805e-09
1.89102e-09
4.92231e-09
1.99332e-09
7.63631e-10
4.36173e-09
1.74941e-09
-8.12126e-10
3.90961e-09
1.36187e-09
-2.29436e-09
3.29682e-09
1.03167e-09
-3.39156e-09
2.39947e-09
8.31664e-10
-4.2116e-09
1.65442e-09
7.57432e-10
-4.95862e-09
1.54745e-09
6.50405e-10
-5.51934e-09
2.08479e-09
4.3813e-10
-5.51344e-09
2.65037e-09
1.56858e-10
-4.67689e-09
2.31832e-09
8.38477e-11
-3.03868e-09
5.4387e-10
2.92599e-10
-1.38046e-09
-1.74767e-09
6.74921e-10
-5.21882e-10
-3.04593e-09
9.29643e-10
-5.95171e-10
-2.42057e-09
6.89579e-10
-9.37575e-10
-1.83196e-10
6.63462e-11
-8.36308e-10
2.54071e-09
-3.40347e-10
3.48364e-10
4.2835e-09
-1.09998e-10
2.33621e-09
4.27869e-09
5.93384e-10
3.9937e-09
3.02881e-09
1.69343e-09
4.15094e-09
2.06207e-09
2.45226e-09
2.57167e-09
2.34121e-09
2.32433e-09
4.01424e-10
3.87278e-09
1.49817e-09
-9.60408e-10
4.62893e-09
1.11424e-09
-1.38191e-09
4.54887e-09
1.40124e-09
-1.54438e-09
5.11296e-09
1.31387e-09
-3.05428e-10
4.2594e-09
9.73411e-10
1.81058e-09
1.32011e-09
2.40912e-09
3.50455e-09
3.41216e-09
1.55525e-09
5.7785e-09
1.55525e-09
1.09754e-09
4.48649e-09
1.70919e-09
2.12434e-10
4.39773e-09
1.48363e-09
-1.20461e-09
4.75217e-09
1.09987e-09
-2.80909e-09
4.91134e-09
6.75067e-10
-4.18579e-09
4.38086e-09
3.6345e-10
-5.33377e-09
3.44907e-09
1.67062e-10
-6.31697e-09
2.72729e-09
-2.38551e-11
-7.06061e-09
2.60126e-09
-2.47877e-10
-7.28631e-09
2.99214e-09
-6.23621e-10
-6.48509e-09
2.60783e-09
-7.05462e-10
-4.64473e-09
9.13581e-10
-3.87481e-10
-2.48944e-09
-1.66174e-09
9.34354e-11
-9.16262e-10
-3.71242e-09
4.3001e-10
-3.29048e-10
-4.06203e-09
4.63371e-10
-1.94666e-10
-2.70966e-09
1.86325e-10
4.62594e-10
-7.99697e-10
-1.08889e-11
2.07709e-09
7.50287e-10
2.05176e-10
4.37742e-09
1.13763e-09
8.75282e-10
6.26893e-09
6.33294e-10
1.78519e-09
6.42539e-09
7.5873e-10
2.14752e-09
4.98332e-09
1.73664e-09
1.80486e-09
2.83801e-09
3.42788e-09
1.09999e-09
1.1726e-09
5.19792e-09
3.85455e-10
6.02875e-10
4.84786e-09
3.98852e-10
5.37938e-10
3.63722e-09
1.02568e-09
4.71559e-10
3.81508e-09
1.41197e-09
1.19408e-09
1.95158e-09
1.62927e-09
1.65452e-09
-1.14578e-09
2.04406e-09
5.48897e-09
-3.09114e-10
8.59183e-10
4.10302e-09
8.59183e-10
-3.9217e-10
5.18717e-09
5.89453e-10
-1.76381e-09
5.73014e-09
7.51536e-11
-3.2214e-09
6.61181e-09
-3.67195e-10
-4.49615e-09
6.83192e-09
-6.11746e-10
-5.66077e-09
6.28427e-09
-7.05209e-10
-6.8057e-09
5.36059e-09
-7.33463e-10
-7.9392e-09
4.68988e-09
-7.96446e-10
-8.62052e-09
4.2938e-09
-9.79233e-10
-8.16253e-09
3.45053e-09
-8.85365e-10
-6.42905e-09
1.44916e-09
-5.45082e-10
-3.99962e-09
-1.5838e-09
9.61877e-11
-1.81217e-09
-4.45107e-09
6.2838e-10
-5.56731e-10
-5.94248e-09
9.992e-10
1.27093e-10
-5.60005e-09
8.7688e-10