/*--------------------------------*- C++ -*----------------------------------*\
| =========                 |                                                 |
| \\      /  F ield         | OpenFOAM: The Open Source CFD Toolbox           |
|  \\    /   O peration     | Version:  2312                                  |
|   \\  /    A nd           | Website:  www.openfoam.com                      |
|    \\/     M anipulation  |                                                 |
\*---------------------------------------------------------------------------*/
FoamFile
{
    version     2.0;
    format      ascii;
    arch        "LSB;label=32;scalar=64";
    class       volVectorField;
    location    "1.01077";
    object      U;
}
// * * * * * * * * * * * * * * * * * * * * * * * * * * * * * * * * * * * * * //

dimensions      [0 1 -1 0 0 0 0];

internalField   nonuniform List<vector> 
90000
(
(-9.12272e-06 1.59315e-05 -9.12272e-06)
(-1.10308e-05 1.95107e-06 -7.01625e-06)
(-5.282e-06 7.16627e-06 -6.62678e-06)
(-6.42548e-06 5.71797e-06 -7.43997e-06)
(-5.17109e-06 4.00534e-06 -7.1425e-06)
(-2.35377e-06 1.58269e-06 -6.50008e-06)
(2.1489e-06 -9.29436e-07 -5.54506e-06)
(7.38994e-06 -2.51173e-06 -4.34301e-06)
(1.18374e-05 -2.54608e-06 -3.1052e-06)
(1.37751e-05 -1.03338e-06 -2.34923e-06)
(1.23875e-05 1.59486e-06 -2.63069e-06)
(8.23278e-06 4.58361e-06 -3.69502e-06)
(2.67736e-06 6.94983e-06 -5.33595e-06)
(-2.09034e-06 7.90241e-06 -6.97137e-06)
(-3.79421e-06 7.29722e-06 -8.3761e-06)
(-6.69212e-07 5.48814e-06 -8.96302e-06)
(6.82059e-06 2.62307e-06 -8.23091e-06)
(1.6058e-05 -6.72046e-08 -6.26969e-06)
(2.36535e-05 -1.47141e-06 -3.24759e-06)
(2.58006e-05 -6.06951e-07 -5.91225e-08)
(2.03597e-05 2.65421e-06 2.0558e-06)
(6.65548e-06 7.14534e-06 2.47481e-06)
(-1.49686e-05 1.10938e-05 1.01113e-06)
(-3.97863e-05 1.33293e-05 -2.59202e-06)
(-6.02613e-05 1.16433e-05 -7.32078e-06)
(-6.82409e-05 5.64926e-06 -1.22327e-05)
(-5.67552e-05 -3.73314e-06 -1.75697e-05)
(-3.08999e-05 -1.48108e-05 -2.96012e-05)
(5.06852e-05 -8.95395e-06 -5.48887e-05)
(5.87522e-05 0.000120397 -0.000115752)
(-6.48096e-07 3.37692e-05 -6.48096e-07)
(-3.73698e-06 6.74913e-06 -1.02394e-06)
(-6.785e-06 1.4942e-05 -1.11727e-06)
(-7.86928e-06 1.20628e-05 -1.35645e-06)
(-8.34963e-06 7.395e-06 -1.37288e-06)
(-7.51639e-06 1.55745e-06 -1.60003e-06)
(-5.43956e-06 -3.80666e-06 -1.91365e-06)
(-2.09975e-06 -7.03153e-06 -2.27064e-06)
(2.05073e-06 -6.96901e-06 -2.57772e-06)
(6.46386e-06 -3.69824e-06 -2.66945e-06)
(1.06387e-05 1.49209e-06 -2.33827e-06)
(1.43219e-05 6.80495e-06 -1.49052e-06)
(1.74107e-05 1.05042e-05 -1.44628e-07)
(1.96286e-05 1.13091e-05 1.68795e-06)
(2.05994e-05 9.22375e-06 3.74093e-06)
(1.98785e-05 4.80627e-06 5.41133e-06)
(1.69654e-05 -4.36685e-07 6.26215e-06)
(1.23245e-05 -4.07257e-06 6.04284e-06)
(6.78565e-06 -4.26603e-06 4.60829e-06)
(9.56972e-07 3.77077e-07 2.62604e-06)
(-4.70386e-06 8.19355e-06 7.1118e-07)
(-1.01851e-05 1.726e-05 -8.19973e-07)
(-1.50192e-05 2.42232e-05 -1.43232e-06)
(-1.78931e-05 2.56758e-05 -7.89033e-07)
(-1.82731e-05 1.84506e-05 1.45761e-06)
(-1.63969e-05 2.58985e-06 6.33483e-06)
(-1.7751e-05 -2.08193e-05 1.55044e-05)
(-2.59133e-05 -5.87289e-05 2.97835e-05)
(3.79741e-05 -9.01204e-05 4.1501e-05)
(5.39553e-05 0.000242786 3.48309e-05)
(2.12985e-06 3.29094e-05 2.12985e-06)
(3.78786e-07 1.27412e-05 4.96034e-07)
(-4.85879e-06 1.76211e-05 3.70988e-07)
(-7.23009e-06 1.4624e-05 2.0008e-07)
(-9.59391e-06 8.90056e-06 -1.0593e-08)
(-1.15677e-05 2.22253e-06 -5.13297e-07)
(-1.22734e-05 -3.69506e-06 -1.49554e-06)
(-1.10687e-05 -7.60873e-06 -2.58009e-06)
(-7.29472e-06 -8.53706e-06 -3.37839e-06)
(-5.92507e-07 -6.71508e-06 -3.64698e-06)
(8.58089e-06 -3.40377e-06 -3.12517e-06)
(1.89374e-05 -1.3582e-07 -1.5181e-06)
(2.82656e-05 2.07302e-06 1.05365e-06)
(3.40191e-05 2.52621e-06 3.70084e-06)
(3.40746e-05 1.4462e-06 6.03199e-06)
(2.78273e-05 -4.60751e-07 7.43248e-06)
(1.65174e-05 -1.75261e-06 7.24614e-06)
(2.43018e-06 -1.3062e-06 5.24959e-06)
(-1.04389e-05 1.65432e-06 2.24867e-06)
(-1.8742e-05 7.28714e-06 -1.5726e-06)
(-2.04591e-05 1.40533e-05 -4.41445e-06)
(-1.43144e-05 2.0269e-05 -5.51929e-06)
(-1.49806e-06 2.35954e-05 -4.94582e-06)
(1.46449e-05 1.99505e-05 -2.67129e-06)
(3.04317e-05 8.73062e-06 4.035e-07)
(4.32499e-05 -7.83134e-06 2.76055e-06)
(4.22246e-05 -2.60989e-05 8.34908e-06)
(8.51218e-06 -7.50737e-05 1.92141e-05)
(-1.64139e-05 -0.00019255 4.96592e-05)
(-6.39927e-06 0.000201245 6.87163e-05)
(2.86042e-06 2.52856e-05 2.86042e-06)
(2.99021e-06 1.57797e-05 2.0332e-06)
(-1.1667e-06 1.8863e-05 2.04547e-06)
(-3.66143e-06 1.63405e-05 1.99594e-06)
(-6.76793e-06 1.1814e-05 1.61036e-06)
(-1.04198e-05 6.29994e-06 9.07149e-07)
(-1.33901e-05 5.43473e-07 -1.77316e-07)
(-1.4619e-05 -4.3036e-06 -1.40404e-06)
(-1.27861e-05 -7.59217e-06 -2.4363e-06)
(-7.15216e-06 -9.41565e-06 -2.94895e-06)
(1.78817e-06 -9.91083e-06 -2.65509e-06)
(1.23858e-05 -9.43376e-06 -1.58876e-06)
(2.19101e-05 -7.90341e-06 8.51053e-08)
(2.75183e-05 -5.09573e-06 1.79008e-06)
(2.73215e-05 -1.24179e-06 2.57116e-06)
(2.08831e-05 3.8255e-06 2.44825e-06)
(9.58538e-06 9.08789e-06 1.20954e-06)
(-3.75697e-06 1.35647e-05 -1.02348e-06)
(-1.49219e-05 1.66562e-05 -3.4232e-06)
(-1.9709e-05 1.78386e-05 -5.2935e-06)
(-1.5901e-05 1.78557e-05 -6.36591e-06)
(-2.38417e-06 1.69462e-05 -6.3611e-06)
(1.79291e-05 1.40932e-05 -5.04858e-06)
(3.91163e-05 7.73142e-06 -2.31086e-06)
(5.59505e-05 -1.81146e-06 1.54757e-06)
(6.65722e-05 -1.23341e-05 3.13256e-06)
(7.6079e-05 -1.62005e-05 -3.79312e-06)
(7.15161e-05 -1.92388e-05 -8.28682e-06)
(-1.9162e-05 -0.0001579 -1.59454e-06)
(-5.00002e-05 0.000118108 2.39575e-05)
(3.35934e-06 1.3494e-05 3.35934e-06)
(6.13323e-06 1.4106e-05 3.42592e-06)
(4.7316e-06 1.56301e-05 3.59476e-06)
(3.20558e-06 1.45344e-05 3.78382e-06)
(7.88967e-07 1.2423e-05 3.67721e-06)
(-3.01236e-06 9.01212e-06 3.15142e-06)
(-7.22005e-06 4.3286e-06 2.45252e-06)
(-1.08164e-05 -8.02998e-07 1.67435e-06)
(-1.2664e-05 -5.83967e-06 7.26467e-07)
(-1.19263e-05 -1.05858e-05 -4.28285e-08)
(-8.81831e-06 -1.41862e-05 -5.98135e-07)
(-4.25344e-06 -1.55489e-05 -9.0552e-07)
(5.01488e-07 -1.37745e-05 -1.30783e-06)
(3.97681e-06 -8.05607e-06 -1.92625e-06)
(5.21163e-06 1.10996e-06 -2.83893e-06)
(3.72906e-06 1.19991e-05 -3.94655e-06)
(-4.1175e-08 2.17489e-05 -4.80146e-06)
(-4.37074e-06 2.79803e-05 -5.31202e-06)
(-6.75616e-06 2.89813e-05 -5.58906e-06)
(-4.73691e-06 2.492e-05 -5.52134e-06)
(3.5637e-06 1.78511e-05 -4.88118e-06)
(1.75153e-05 1.00537e-05 -4.02243e-06)
(3.3839e-05 2.6441e-06 -3.00377e-06)
(4.87669e-05 -2.73204e-06 -1.61423e-06)
(5.77308e-05 -5.71319e-06 3.13901e-07)
(5.66645e-05 -8.89485e-06 2.83073e-06)
(5.10146e-05 -7.43772e-06 6.07293e-07)
(4.90867e-05 3.38725e-05 -5.68853e-06)
(-9.11413e-06 -4.47542e-05 -1.24691e-05)
(-3.39942e-05 7.33171e-05 -7.52512e-06)
(2.57649e-06 -9.19167e-07 2.57649e-06)
(7.55463e-06 7.24384e-06 3.55823e-06)
(1.07602e-05 7.72401e-06 3.94885e-06)
(1.21029e-05 8.36186e-06 4.20928e-06)
(1.21844e-05 9.06485e-06 4.39222e-06)
(1.00714e-05 8.42721e-06 4.51714e-06)
(6.08187e-06 5.99658e-06 4.41731e-06)
(6.86245e-07 1.96248e-06 4.34252e-06)
(-5.74464e-06 -3.21494e-06 4.12768e-06)
(-1.25865e-05 -8.7957e-06 3.54881e-06)
(-1.88157e-05 -1.33971e-05 2.3487e-06)
(-2.35736e-05 -1.55051e-05 3.50905e-07)
(-2.60093e-05 -1.34299e-05 -2.02911e-06)
(-2.52968e-05 -6.67495e-06 -4.44533e-06)
(-2.13928e-05 4.22746e-06 -6.40384e-06)
(-1.50001e-05 1.68166e-05 -7.67897e-06)
(-7.05354e-06 2.75953e-05 -7.62486e-06)
(1.34465e-06 3.31423e-05 -6.47417e-06)
(9.63459e-06 3.14514e-05 -4.65933e-06)
(1.77969e-05 2.36387e-05 -2.55843e-06)
(2.56816e-05 1.31652e-05 -7.61465e-07)
(3.28371e-05 3.0265e-06 4.3609e-07)
(3.86549e-05 -3.64709e-06 7.97572e-07)
(4.19079e-05 -4.3936e-06 -9.54515e-08)
(4.13223e-05 1.75449e-06 -2.33816e-06)
(3.3182e-05 1.11978e-05 -4.79183e-06)
(1.1517e-05 1.87542e-05 -6.49613e-06)
(6.29429e-06 6.13353e-05 -1.38099e-05)
(-1.55986e-05 3.66894e-05 -2.17609e-05)
(-2.39505e-05 6.93224e-05 -1.81688e-05)
(-6.37266e-07 -1.14147e-05 -6.37266e-07)
(5.25119e-06 -4.14237e-06 1.1655e-06)
(1.46117e-05 -2.77694e-06 1.37046e-06)
(2.01943e-05 -3.74312e-07 1.38174e-06)
(2.46346e-05 2.91595e-06 1.8806e-06)
(2.62188e-05 5.40905e-06 2.76215e-06)
(2.41498e-05 6.27233e-06 3.83052e-06)
(1.7857e-05 5.1982e-06 4.75306e-06)
(7.35547e-06 2.32199e-06 5.34778e-06)
(-6.40324e-06 -1.51804e-06 5.09347e-06)
(-2.17126e-05 -5.07182e-06 3.94708e-06)
(-3.55862e-05 -7.42759e-06 1.35613e-06)
(-4.47223e-05 -6.95732e-06 -1.69656e-06)
(-4.66974e-05 -3.17081e-06 -4.71336e-06)
(-4.07222e-05 3.87624e-06 -6.67361e-06)
(-2.79896e-05 1.2483e-05 -7.07493e-06)
(-1.10776e-05 1.98597e-05 -6.04095e-06)
(6.59514e-06 2.30611e-05 -3.51235e-06)
(2.19174e-05 2.06755e-05 -9.09656e-08)
(3.26662e-05 1.36067e-05 2.90836e-06)
(3.76921e-05 4.79533e-06 4.8577e-06)
(3.70316e-05 -2.22815e-06 5.50853e-06)
(3.1814e-05 -3.68982e-06 4.87636e-06)
(2.29779e-05 2.2062e-06 3.02675e-06)
(1.17839e-05 1.57057e-05 -5.50012e-07)
(-8.08514e-07 3.69082e-05 -5.27863e-06)
(-1.63064e-05 5.50225e-05 -9.81938e-06)
(-2.29692e-05 8.72482e-05 -1.44097e-05)
(-2.28666e-05 8.22404e-05 -1.71896e-05)
(-1.2803e-05 6.61664e-05 -1.23178e-05)
(-6.93554e-06 -1.00231e-05 -6.93554e-06)
(-1.33559e-06 -1.64622e-05 -5.03222e-06)
(1.55119e-05 -1.24366e-05 -4.78928e-06)
(2.52485e-05 -8.52695e-06 -4.44263e-06)
(3.4764e-05 -3.13749e-06 -3.3832e-06)
(4.10771e-05 2.4358e-06 -1.87681e-06)
(4.22118e-05 7.50859e-06 1.55339e-07)
(3.66957e-05 1.12088e-05 2.27081e-06)
(2.43457e-05 1.29878e-05 3.75075e-06)
(6.50421e-06 1.29612e-05 4.15155e-06)
(-1.40848e-05 1.11778e-05 3.49982e-06)
(-3.31715e-05 7.69029e-06 1.93515e-06)
(-4.65057e-05 3.50655e-06 -1.75244e-08)
(-5.11815e-05 6.36092e-08 -1.94194e-06)
(-4.60902e-05 -1.48682e-06 -2.91552e-06)
(-3.26007e-05 -1.14795e-06 -2.48135e-06)
(-1.39326e-05 1.63844e-07 -5.75962e-07)
(5.72708e-06 9.21991e-07 2.32957e-06)
(2.19443e-05 -2.21122e-07 5.17557e-06)
(3.12673e-05 -3.33106e-06 7.29772e-06)
(3.2882e-05 -6.73193e-06 8.56183e-06)
(2.78752e-05 -7.61226e-06 8.60399e-06)
(1.76445e-05 -2.62559e-06 7.50389e-06)
(3.79959e-06 9.38122e-06 5.6285e-06)
(-1.15531e-05 2.7686e-05 2.69778e-06)
(-2.43768e-05 5.19406e-05 -1.2996e-06)
(-3.18507e-05 7.43495e-05 -4.29672e-06)
(-2.97767e-05 9.11645e-05 -5.90621e-06)
(-1.41628e-05 8.58419e-05 -4.94944e-06)
(-1.58661e-06 5.3195e-05 3.51991e-06)
(-1.25525e-05 9.85033e-06 -1.25525e-05)
(-7.29597e-06 -2.57728e-05 -1.11949e-05)
(1.51167e-05 -1.81505e-05 -1.10564e-05)
(2.73597e-05 -1.36856e-05 -1.00365e-05)
(4.05143e-05 -7.0051e-06 -8.16453e-06)
(4.98957e-05 1.17343e-06 -5.64792e-06)
(5.35528e-05 1.03821e-05 -2.94721e-06)
(4.98619e-05 1.95754e-05 -5.41697e-07)
(3.88404e-05 2.68478e-05 1.47215e-06)
(2.20683e-05 3.09782e-05 2.85163e-06)
(2.28445e-06 3.03275e-05 3.50335e-06)
(-1.62948e-05 2.41178e-05 3.5974e-06)
(-3.00754e-05 1.32776e-05 3.75302e-06)
(-3.71459e-05 7.73058e-07 4.04609e-06)
(-3.68461e-05 -1.0792e-05 4.37803e-06)
(-3.01918e-05 -1.92568e-05 5.06781e-06)
(-1.94578e-05 -2.36442e-05 6.34957e-06)
(-7.58034e-06 -2.47358e-05 7.58594e-06)
(2.68253e-06 -2.41397e-05 8.29011e-06)
(9.28602e-06 -2.28365e-05 8.17418e-06)
(1.11316e-05 -1.9959e-05 7.51569e-06)
(8.08034e-06 -1.4134e-05 6.65276e-06)
(6.32429e-07 -3.85225e-06 5.6744e-06)
(-9.2644e-06 1.20041e-05 4.61782e-06)
(-1.92994e-05 3.2038e-05 3.53691e-06)
(-2.60435e-05 5.24876e-05 2.89529e-06)
(-2.48503e-05 6.78602e-05 3.38738e-06)
(-1.45773e-05 6.98835e-05 6.10203e-06)
(3.63307e-06 5.76537e-05 1.03148e-05)
(7.51025e-06 3.38404e-05 1.28614e-05)
(-1.43156e-05 4.27316e-05 -1.43156e-05)
(-9.04717e-06 -3.28489e-05 -1.2093e-05)
(1.44857e-05 -2.1626e-05 -1.12438e-05)
(2.62777e-05 -1.78533e-05 -9.5389e-06)
(3.90821e-05 -1.06786e-05 -7.0757e-06)
(4.77088e-05 -4.20388e-07 -4.48068e-06)
(5.10251e-05 1.22887e-05 -2.05675e-06)
(4.89166e-05 2.61748e-05 4.84442e-08)
(4.21784e-05 3.77915e-05 1.55321e-06)
(3.19351e-05 4.46569e-05 3.16684e-06)
(1.99307e-05 4.37564e-05 4.83021e-06)
(7.8576e-06 3.41687e-05 6.73627e-06)
(-3.12426e-06 1.75457e-05 8.69567e-06)
(-1.26251e-05 -1.93329e-06 1.05795e-05)
(-2.06044e-05 -2.03289e-05 1.18763e-05)
(-2.6845e-05 -3.43828e-05 1.23008e-05)
(-3.07454e-05 -4.22949e-05 1.12617e-05)
(-3.14667e-05 -4.4557e-05 8.9218e-06)
(-2.89033e-05 -4.26213e-05 6.04474e-06)
(-2.44241e-05 -3.79294e-05 3.35139e-06)
(-1.96644e-05 -3.07222e-05 1.1892e-06)
(-1.59612e-05 -2.05275e-05 -1.70015e-07)
(-1.43504e-05 -7.0371e-06 -1.08913e-06)
(-1.43961e-05 1.01454e-05 -1.04606e-06)
(-1.41885e-05 2.86562e-05 -1.39449e-07)
(-1.08979e-05 4.20563e-05 1.57474e-06)
(-1.88348e-06 4.64829e-05 4.82242e-06)
(9.17522e-06 3.84433e-05 8.25593e-06)
(1.45514e-05 2.82627e-05 9.86626e-06)
(7.78071e-06 2.47426e-05 5.95472e-06)
(-6.87976e-06 6.82073e-05 -6.87976e-06)
(-1.54986e-06 -4.22584e-05 -3.89859e-06)
(1.27169e-05 -2.79866e-05 -2.32491e-06)
(1.85183e-05 -2.47224e-05 -6.16284e-07)
(2.3778e-05 -1.73798e-05 1.44868e-06)
(2.61208e-05 -5.63236e-06 2.63944e-06)
(2.63487e-05 9.57902e-06 3.02019e-06)
(2.58162e-05 2.57081e-05 2.71492e-06)
(2.58955e-05 3.90524e-05 2.61473e-06)
(2.6812e-05 4.66234e-05 3.31425e-06)
(2.73796e-05 4.50853e-05 5.11429e-06)
(2.57955e-05 3.40867e-05 7.69374e-06)
(2.00417e-05 1.61103e-05 1.04556e-05)
(8.60543e-06 -4.60897e-06 1.20717e-05)
(-8.05439e-06 -2.3071e-05 1.24462e-05)
(-2.67605e-05 -3.66296e-05 1.09358e-05)
(-4.35541e-05 -4.44996e-05 7.51453e-06)
(-5.48053e-05 -4.76455e-05 2.95646e-06)
(-5.84905e-05 -4.69852e-05 -1.78401e-06)
(-5.47628e-05 -4.30141e-05 -5.33934e-06)
(-4.54906e-05 -3.58038e-05 -7.52131e-06)
(-3.38217e-05 -2.51902e-05 -8.30148e-06)
(-2.24606e-05 -1.06861e-05 -7.9428e-06)
(-1.22474e-05 5.70317e-06 -6.92112e-06)
(-2.38158e-06 2.06721e-05 -4.90152e-06)
(8.34748e-06 2.82067e-05 -1.63481e-06)
(1.80114e-05 2.7595e-05 1.01256e-06)
(2.03734e-05 2.27591e-05 1.97837e-06)
(1.30407e-05 2.51445e-05 -6.19289e-07)
(3.83445e-06 3.1479e-05 -3.60644e-06)
(9.33427e-06 6.59515e-05 9.33427e-06)
(1.18976e-05 -5.34118e-05 1.12419e-05)
(4.15129e-06 -3.83837e-05 1.34487e-05)
(-1.66957e-06 -3.41514e-05 1.30025e-05)
(-1.04106e-05 -2.62043e-05 1.22234e-05)
(-1.7494e-05 -1.3631e-05 9.63658e-06)
(-2.10577e-05 2.18115e-06 6.02915e-06)
(-1.85525e-05 1.83498e-05 2.62451e-06)
(-9.32489e-06 3.08971e-05 -6.17633e-08)
(4.59825e-06 3.75452e-05 -9.83151e-07)
(1.91954e-05 3.65031e-05 5.42548e-08)
(2.88223e-05 2.90761e-05 2.32824e-06)
(2.88344e-05 1.72463e-05 4.14016e-06)
(1.82666e-05 4.20644e-06 4.82594e-06)
(-1.29026e-06 -7.41652e-06 3.36218e-06)
(-2.56774e-05 -1.63395e-05 -2.11601e-07)
(-4.8765e-05 -2.32466e-05 -4.65087e-06)
(-6.45809e-05 -2.89199e-05 -8.63875e-06)
(-6.96378e-05 -3.37608e-05 -1.15384e-05)
(-6.44405e-05 -3.62543e-05 -1.30454e-05)
(-5.19404e-05 -3.42122e-05 -1.30382e-05)
(-3.59856e-05 -2.72476e-05 -1.19416e-05)
(-1.95214e-05 -1.50401e-05 -1.00412e-05)
(-3.87735e-06 -1.20313e-06 -7.60236e-06)
(1.05901e-05 1.04069e-05 -4.83613e-06)
(2.21476e-05 1.69009e-05 -2.14541e-06)
(2.70912e-05 2.10016e-05 -6.19962e-07)
(2.22219e-05 2.85518e-05 -1.45928e-06)
(1.22337e-05 4.08847e-05 -3.25505e-06)
(3.91637e-06 4.07457e-05 -2.5265e-07)
(2.73801e-05 2.20962e-05 2.73801e-05)
(2.16552e-05 -5.9381e-05 2.49923e-05)
(-1.63506e-05 -4.56793e-05 2.36816e-05)
(-3.43025e-05 -3.89176e-05 1.96518e-05)
(-5.5948e-05 -2.89532e-05 1.45628e-05)
(-7.10429e-05 -1.57187e-05 8.06425e-06)
(-7.60972e-05 -1.46457e-06 1.379e-06)
(-6.90884e-05 1.14122e-05 -4.53177e-06)
(-5.06693e-05 2.05019e-05 -8.23151e-06)
(-2.47575e-05 2.48984e-05 -9.64694e-06)
(1.66728e-06 2.63836e-05 -9.40076e-06)
(2.04061e-05 2.74278e-05 -8.58325e-06)
(2.62943e-05 2.82597e-05 -8.06978e-06)
(1.91486e-05 2.9265e-05 -8.7684e-06)
(2.17128e-06 2.8628e-05 -1.0623e-05)
(-1.90336e-05 2.51774e-05 -1.26668e-05)
(-3.80694e-05 1.72573e-05 -1.42689e-05)
(-4.99775e-05 5.08849e-06 -1.52659e-05)
(-5.26021e-05 -9.19584e-06 -1.51198e-05)
(-4.6932e-05 -2.18286e-05 -1.38757e-05)
(-3.63485e-05 -2.8279e-05 -1.16687e-05)
(-2.3312e-05 -2.7402e-05 -9.19581e-06)
(-9.13596e-06 -1.99782e-05 -6.64501e-06)
(5.17321e-06 -9.67744e-06 -4.13039e-06)
(1.81603e-05 1.21584e-07 -1.73273e-06)
(2.69688e-05 9.42803e-06 4.37844e-07)
(2.86556e-05 2.17487e-05 1.45752e-06)
(2.36324e-05 3.7245e-05 2.11672e-06)
(1.83635e-05 4.75687e-05 4.33926e-06)
(8.78436e-06 4.42703e-05 9.2405e-06)
(3.43854e-05 -4.83467e-05 3.43854e-05)
(1.7564e-05 -4.51869e-05 2.34091e-05)
(-4.41394e-05 -3.43808e-05 1.90278e-05)
(-7.18788e-05 -2.47325e-05 1.25199e-05)
(-9.89852e-05 -1.28447e-05 4.96226e-06)
(-0.000114981 -1.25465e-06 -2.42086e-06)
(-0.000116677 7.22252e-06 -8.72918e-06)
(-0.000102948 1.08553e-05 -1.23421e-05)
(-7.64206e-05 1.21815e-05 -1.40551e-05)
(-4.41129e-05 1.34168e-05 -1.42656e-05)
(-1.31324e-05 1.92066e-05 -1.34544e-05)
(8.97547e-06 3.06286e-05 -1.27617e-05)
(1.85928e-05 4.56449e-05 -1.30372e-05)
(1.76069e-05 6.01551e-05 -1.37646e-05)
(9.49764e-06 6.91919e-05 -1.43268e-05)
(-1.10015e-06 6.92252e-05 -1.45367e-05)
(-9.89065e-06 5.82913e-05 -1.3923e-05)
(-1.46917e-05 3.77473e-05 -1.2062e-05)
(-1.60877e-05 1.36529e-05 -9.28275e-06)
(-1.51532e-05 -7.59494e-06 -6.37964e-06)
(-1.2686e-05 -2.11962e-05 -3.99063e-06)
(-8.87223e-06 -2.58219e-05 -2.40335e-06)
(-2.88907e-06 -2.29561e-05 -1.63081e-06)
(5.73275e-06 -1.56416e-05 -1.38139e-06)
(1.50627e-05 -6.34685e-06 -9.8303e-07)
(2.17278e-05 6.70879e-06 -3.02653e-07)
(2.40542e-05 2.36712e-05 9.23195e-07)
(2.39315e-05 3.81876e-05 4.05835e-06)
(2.0828e-05 4.37159e-05 8.31536e-06)
(9.27108e-06 5.06141e-05 5.54779e-06)
(2.22059e-05 -9.88496e-05 2.22059e-05)
(-5.70115e-06 2.79991e-06 9.68344e-06)
(-6.83728e-05 5.61958e-06 3.90518e-06)
(-9.62028e-05 1.39058e-05 -3.01188e-06)
(-0.000118534 2.26413e-05 -8.4777e-06)
(-0.00012778 2.55571e-05 -1.15532e-05)
(-0.000121791 2.14134e-05 -1.25338e-05)
(-0.000101896 1.15049e-05 -1.23603e-05)
(-7.4151e-05 2.81255e-06 -1.0928e-05)
(-4.52151e-05 1.62144e-06 -9.58439e-06)
(-1.98447e-05 1.20255e-05 -8.34687e-06)
(-1.81253e-06 3.20914e-05 -8.46547e-06)
(9.10141e-06 5.79555e-05 -9.26941e-06)
(1.5827e-05 8.10948e-05 -9.97781e-06)
(2.00945e-05 9.4353e-05 -9.52068e-06)
(2.32147e-05 9.40208e-05 -7.78106e-06)
(2.52393e-05 7.93872e-05 -4.64937e-06)
(2.48286e-05 5.39388e-05 -9.09558e-07)
(2.08887e-05 2.56412e-05 2.65844e-06)
(1.33578e-05 1.85068e-06 4.75755e-06)
(3.92064e-06 -1.35091e-05 4.91331e-06)
(-3.55752e-06 -2.0023e-05 2.98558e-06)
(-5.91277e-06 -1.96674e-05 2.48393e-07)
(-2.98694e-06 -1.41484e-05 -1.83457e-06)
(2.97495e-06 -3.94486e-06 -2.89752e-06)
(8.86724e-06 1.16112e-05 -3.22892e-06)
(1.25454e-05 2.90254e-05 -2.53957e-06)
(1.40755e-05 4.21171e-05 -1.15511e-06)
(5.31739e-06 5.3059e-05 -2.28663e-06)
(-1.94677e-06 6.94608e-05 -9.45348e-06)
(-1.41048e-07 -9.80358e-05 -1.41049e-07)
(-3.22588e-05 7.27744e-05 -1.09692e-05)
(-7.46883e-05 6.3137e-05 -1.26314e-05)
(-9.34339e-05 6.34629e-05 -1.44646e-05)
(-0.000103353 6.0656e-05 -1.37894e-05)
(-0.000100732 4.77709e-05 -1.19157e-05)
(-8.76801e-05 2.7323e-05 -8.7552e-06)
(-6.9413e-05 4.90243e-06 -5.12604e-06)
(-5.03922e-05 -1.05676e-05 -1.94945e-06)
(-3.4394e-05 -1.21161e-05 -7.29556e-08)
(-2.30807e-05 2.09445e-06 -4.92778e-07)
(-1.36316e-05 2.8023e-05 -2.19896e-06)
(-2.56133e-06 5.8426e-05 -4.26619e-06)
(1.14883e-05 8.32259e-05 -4.91987e-06)
(2.71475e-05 9.60664e-05 -3.78027e-06)
(4.11839e-05 9.43285e-05 -7.39328e-07)
(5.02376e-05 7.90669e-05 3.25178e-06)
(5.10076e-05 5.55095e-05 6.79895e-06)
(4.20572e-05 3.10727e-05 8.64386e-06)
(2.64723e-05 1.13642e-05 8.2843e-06)
(9.59099e-06 -1.56092e-06 6.0255e-06)
(-3.17561e-06 -8.48619e-06 3.09251e-06)
(-8.89743e-06 -1.06502e-05 9.24327e-07)
(-9.15919e-06 -7.01066e-06 -2.41545e-07)
(-7.48206e-06 3.87856e-06 -7.73879e-07)
(-6.25085e-06 2.08518e-05 -1.23182e-06)
(-6.16019e-06 3.91531e-05 -1.86256e-06)
(-8.99264e-06 5.7257e-05 -4.38136e-06)
(-1.71409e-05 7.89111e-05 -9.48643e-06)
(-1.18433e-05 8.11084e-05 -8.98305e-06)
(-1.78287e-05 -4.69087e-05 -1.78287e-05)
(-4.46387e-05 0.000138277 -1.95384e-05)
(-5.87861e-05 0.00011348 -1.74318e-05)
(-6.33783e-05 0.000102048 -1.61047e-05)
(-5.92564e-05 8.33679e-05 -1.22532e-05)
(-4.85974e-05 5.48215e-05 -7.35771e-06)
(-3.62662e-05 2.24036e-05 -2.49631e-06)
(-2.70354e-05 -5.63434e-06 1.57768e-06)
(-2.34329e-05 -2.10527e-05 3.43965e-06)
(-2.49203e-05 -1.92249e-05 2.50144e-06)
(-2.71078e-05 -1.39903e-06 -7.6922e-07)
(-2.4088e-05 2.56715e-05 -4.38041e-06)
(-1.27231e-05 5.32078e-05 -6.36081e-06)
(6.52702e-06 7.38268e-05 -6.45525e-06)
(2.88158e-05 8.35785e-05 -4.18651e-06)
(4.74474e-05 8.20808e-05 -5.80585e-07)
(5.74958e-05 7.13281e-05 2.21194e-06)
(5.62848e-05 5.58277e-05 3.99492e-06)
(4.52847e-05 3.98153e-05 4.3719e-06)
(2.97096e-05 2.60637e-05 3.89544e-06)
(1.49335e-05 1.42041e-05 3.08476e-06)
(4.72844e-06 4.04731e-06 3.10285e-06)
(-5.27897e-07 -2.87268e-06 4.4315e-06)
(-4.66529e-06 -2.02368e-06 6.04566e-06)
(-1.03693e-05 8.6902e-06 6.54966e-06)
(-1.66608e-05 2.63211e-05 6.13306e-06)
(-2.23729e-05 4.65641e-05 4.24289e-06)
(-2.6524e-05 6.92222e-05 1.11179e-06)
(-2.31883e-05 8.69851e-05 2.01963e-07)
(-9.71126e-06 6.39463e-05 7.4855e-06)
(-2.29408e-05 2.59356e-05 -2.29408e-05)
(-3.75685e-05 0.000179566 -1.89124e-05)
(-2.9145e-05 0.000144139 -1.68717e-05)
(-2.3343e-05 0.000121185 -1.42433e-05)
(-1.28363e-05 9.012e-05 -1.0371e-05)
(-2.08079e-06 5.36247e-05 -5.9979e-06)
(4.09432e-06 1.91011e-05 -2.86016e-06)
(2.40605e-06 -4.9755e-06 -1.29995e-06)
(-7.137e-06 -1.40231e-05 -2.22171e-06)
(-1.95555e-05 -7.19187e-06 -4.70497e-06)
(-2.75603e-05 1.00239e-05 -7.20506e-06)
(-2.59821e-05 3.0241e-05 -8.69021e-06)
(-1.35033e-05 4.82478e-05 -8.70086e-06)
(6.14923e-06 6.0744e-05 -6.58398e-06)
(2.67388e-05 6.71838e-05 -3.60102e-06)
(4.21443e-05 6.85733e-05 -9.25562e-07)
(4.93169e-05 6.53123e-05 8.40118e-07)
(4.79883e-05 5.91906e-05 1.30309e-06)
(4.09643e-05 5.04407e-05 7.87818e-07)
(3.25721e-05 3.88613e-05 1.12734e-06)
(2.5398e-05 2.43268e-05 2.52157e-06)
(1.92181e-05 9.30043e-06 4.5899e-06)
(1.17009e-05 -5.77647e-07 6.76329e-06)
(5.36225e-07 -1.69035e-07 7.58622e-06)
(-1.25959e-05 1.16633e-05 6.78236e-06)
(-2.28177e-05 2.8621e-05 5.50113e-06)
(-2.75929e-05 4.65486e-05 4.51595e-06)
(-2.45998e-05 6.23421e-05 5.60082e-06)
(-9.6604e-06 6.10736e-05 9.96872e-06)
(4.16278e-07 3.57954e-05 1.04779e-05)
(-2.17798e-05 8.86778e-05 -2.17798e-05)
(-2.33721e-05 0.000195156 -1.6731e-05)
(-3.02306e-06 0.000157377 -1.60799e-05)
(4.7422e-06 0.000128241 -1.38576e-05)
(1.68935e-05 9.20692e-05 -1.10965e-05)
(2.47979e-05 5.58865e-05 -8.67721e-06)
(2.52535e-05 2.68789e-05 -6.75282e-06)
(1.78252e-05 1.09445e-05 -5.49036e-06)
(5.23817e-06 7.60933e-06 -5.38889e-06)
(-8.20775e-06 1.40473e-05 -5.4457e-06)
(-1.61127e-05 2.35695e-05 -4.86753e-06)
(-1.49414e-05 3.12015e-05 -3.08485e-06)
(-6.19373e-06 3.78449e-05 -8.47258e-08)
(6.13582e-06 4.28448e-05 2.85023e-06)
(1.74151e-05 4.80749e-05 4.72781e-06)
(2.5254e-05 5.3721e-05 4.92234e-06)
(2.94974e-05 5.71583e-05 3.84078e-06)
(3.14489e-05 5.702e-05 2.79059e-06)
(3.24537e-05 5.16361e-05 2.54439e-06)
(3.23371e-05 3.99856e-05 3.18949e-06)
(2.95224e-05 2.42726e-05 4.53456e-06)
(2.1623e-05 1.06394e-05 5.23788e-06)
(7.08255e-06 5.73172e-06 3.68826e-06)
(-1.00931e-05 1.20443e-05 -5.72941e-07)
(-2.29381e-05 2.47971e-05 -4.86268e-06)
(-2.73803e-05 3.62577e-05 -6.29455e-06)
(-2.3235e-05 4.59413e-05 -5.73941e-06)
(-1.1961e-05 4.96842e-05 -3.8544e-06)
(-1.754e-06 4.28074e-05 -1.97944e-06)
(4.88456e-07 3.65144e-05 -9.28618e-06)
(-1.77172e-05 0.000133854 -1.77172e-05)
(-1.29101e-05 0.000195109 -1.41808e-05)
(1.14699e-05 0.000159389 -1.36966e-05)
(2.12689e-05 0.000128601 -1.16395e-05)
(3.40556e-05 9.19128e-05 -9.08597e-06)
(4.12903e-05 5.86454e-05 -6.30657e-06)
(4.05538e-05 3.55824e-05 -3.45234e-06)
(3.27442e-05 2.46054e-05 -7.99459e-07)
(2.1229e-05 2.20555e-05 1.35248e-06)
(1.03106e-05 2.26816e-05 3.95346e-06)
(3.06522e-06 2.22333e-05 6.95088e-06)
(-3.49602e-07 1.86998e-05 9.94715e-06)
(-2.46957e-06 1.72111e-05 1.23507e-05)
(-4.39353e-06 1.99604e-05 1.24515e-05)
(-5.31613e-06 2.71402e-05 9.89839e-06)
(-3.72768e-06 3.67858e-05 6.57083e-06)
(2.2727e-06 4.42757e-05 3.66979e-06)
(1.11918e-05 4.59763e-05 2.20476e-06)
(1.96596e-05 4.21091e-05 2.15425e-06)
(2.36779e-05 3.35988e-05 2.74957e-06)
(1.90728e-05 2.46995e-05 2.56397e-06)
(4.96964e-06 2.23425e-05 -5.24987e-07)
(-1.32585e-05 2.79587e-05 -5.98502e-06)
(-2.72093e-05 3.72447e-05 -1.05294e-05)
(-3.05607e-05 4.31219e-05 -1.18352e-05)
(-2.36536e-05 4.45331e-05 -1.14202e-05)
(-1.26738e-05 4.76193e-05 -1.01896e-05)
(-2.85576e-06 5.10718e-05 -9.5803e-06)
(-4.22845e-06 5.9606e-05 -1.37474e-05)
(-5.0496e-06 5.80885e-05 -1.50927e-05)
(-1.26441e-05 0.000163466 -1.26441e-05)
(-4.15834e-06 0.000183865 -9.12127e-06)
(2.16316e-05 0.000152478 -7.55425e-06)
(3.38165e-05 0.00011938 -4.2452e-06)
(4.55797e-05 8.27285e-05 -3.62399e-07)
(5.11674e-05 5.23377e-05 3.17928e-06)
(4.95385e-05 3.32941e-05 5.76548e-06)
(4.23022e-05 2.33176e-05 8.21461e-06)
(3.24536e-05 1.84089e-05 1.03993e-05)
(2.21431e-05 1.34463e-05 1.27023e-05)
(1.1506e-05 6.74763e-06 1.47305e-05)
(-1.1114e-06 6.43577e-07 1.44274e-05)
(-1.49302e-05 7.11247e-07 1.18813e-05)
(-2.65688e-05 7.04853e-06 7.25429e-06)
(-3.2292e-05 1.791e-05 1.58643e-06)
(-2.89019e-05 2.65776e-05 -2.21758e-06)
(-1.7342e-05 3.2587e-05 -3.44311e-06)
(-2.63944e-06 3.44183e-05 -3.48863e-06)
(7.84933e-06 3.4939e-05 -2.66142e-06)
(8.40798e-06 3.57452e-05 -3.22302e-06)
(-1.05397e-06 4.00786e-05 -6.14689e-06)
(-1.55137e-05 4.8737e-05 -1.04776e-05)
(-2.62032e-05 5.68187e-05 -1.30848e-05)
(-2.63371e-05 5.60023e-05 -1.26935e-05)
(-1.74268e-05 4.81845e-05 -9.13274e-06)
(-7.40412e-06 4.33914e-05 -5.4057e-06)
(-1.67707e-06 4.78744e-05 -3.85776e-06)
(-1.79156e-06 6.06517e-05 -5.21506e-06)
(-4.32034e-06 8.06977e-05 -8.5665e-06)
(-2.77345e-06 6.70056e-05 -5.27173e-06)
(-5.26396e-06 0.000175246 -5.26396e-06)
(7.48371e-06 0.000161763 -3.19311e-07)
(3.16113e-05 0.000133957 2.44282e-06)
(4.31636e-05 9.90594e-05 5.96825e-06)
(5.03568e-05 6.38035e-05 8.87159e-06)
(4.98545e-05 3.73041e-05 1.04953e-05)
(4.31757e-05 2.16027e-05 1.13127e-05)
(3.37188e-05 1.31853e-05 1.09374e-05)
(2.3581e-05 8.28592e-06 1.05835e-05)
(1.22074e-05 4.02792e-06 1.00086e-05)
(-2.03523e-06 1.1676e-06 8.5456e-06)
(-1.92492e-05 2.30913e-06 5.19378e-06)
(-3.65578e-05 9.2942e-06 -1.7405e-08)
(-4.79605e-05 1.65816e-05 -4.60361e-06)
(-4.76192e-05 2.3057e-05 -6.46092e-06)
(-3.61928e-05 2.34081e-05 -6.97214e-06)
(-1.99437e-05 2.39513e-05 -5.31108e-06)
(-6.38708e-06 2.85301e-05 -3.9709e-06)
(-2.41392e-06 3.81779e-05 -4.65422e-06)
(-8.25352e-06 5.15732e-05 -7.98285e-06)
(-1.77978e-05 6.65849e-05 -1.23568e-05)
(-2.30001e-05 7.55418e-05 -1.47944e-05)
(-1.83217e-05 7.19463e-05 -1.31914e-05)
(-5.79046e-06 5.54957e-05 -7.61798e-06)
(4.94793e-06 4.07353e-05 -1.61849e-06)
(6.09212e-06 3.94272e-05 -3.11005e-07)
(1.36839e-06 4.96287e-05 -1.95607e-06)
(-3.53726e-06 6.64342e-05 -2.67253e-06)
(-1.15785e-06 8.39296e-05 -2.19975e-06)
(1.61446e-06 6.82106e-05 -3.80528e-06)
(2.66024e-06 0.000165967 2.66024e-06)
(1.81678e-05 0.000130014 7.23786e-06)
(3.64203e-05 0.000106141 9.81861e-06)
(4.29318e-05 7.42079e-05 1.16741e-05)
(4.12138e-05 4.4964e-05 1.21161e-05)
(3.20458e-05 2.54393e-05 1.0855e-05)
(2.02855e-05 1.48544e-05 8.47141e-06)
(9.51931e-06 9.77662e-06 6.05394e-06)
(8.71672e-09 7.86513e-06 4.4835e-06)
(-1.02783e-05 8.95802e-06 3.28442e-06)
(-2.35571e-05 1.40878e-05 1.2262e-06)
(-3.81769e-05 2.19011e-05 -1.4572e-06)
(-4.84509e-05 2.83487e-05 -3.3696e-06)
(-4.93096e-05 2.72118e-05 -4.05906e-06)
(-3.97546e-05 2.07458e-05 -2.4907e-06)
(-2.47723e-05 1.27007e-05 1.63064e-07)
(-1.25706e-05 1.17756e-05 3.05273e-06)
(-8.91038e-06 2.44799e-05 3.03383e-06)
(-1.36977e-05 4.65897e-05 -1.20015e-06)
(-2.07061e-05 6.95677e-05 -6.57037e-06)
(-2.22754e-05 8.40635e-05 -9.41623e-06)
(-1.3828e-05 8.17111e-05 -8.22178e-06)
(1.95955e-06 6.3553e-05 -2.82971e-06)
(1.34319e-05 4.31255e-05 1.64271e-06)
(1.14303e-05 3.58318e-05 1.78471e-06)
(1.02748e-06 4.45579e-05 -2.94245e-06)
(-7.28166e-06 5.726e-05 -7.03756e-06)
(-9.18275e-06 6.94888e-05 -8.05063e-06)
(-3.33137e-06 8.11547e-05 -8.64058e-06)
(6.79209e-07 7.07122e-05 -6.40993e-06)
(7.94553e-06 0.00013937 7.94553e-06)
(2.26468e-05 9.58316e-05 1.06993e-05)
(3.20837e-05 7.78734e-05 1.22833e-05)
(3.0955e-05 5.47216e-05 1.2399e-05)
(2.10469e-05 3.61781e-05 1.08623e-05)
(6.84167e-06 2.48521e-05 8.28139e-06)
(-6.26511e-06 1.82034e-05 5.77567e-06)
(-1.59327e-05 1.37199e-05 4.30152e-06)
(-2.34368e-05 1.27043e-05 3.72898e-06)
(-3.1424e-05 1.69718e-05 3.1695e-06)
(-4.01486e-05 2.53471e-05 2.05961e-06)
(-4.6456e-05 3.21717e-05 9.64291e-07)
(-4.55829e-05 3.01619e-05 1.26247e-06)
(-3.5478e-05 1.67945e-05 3.27152e-06)
(-2.06239e-05 -4.1202e-07 6.14742e-06)
(-9.54396e-06 -9.54985e-06 8.69026e-06)
(-8.06251e-06 -3.29707e-06 7.72484e-06)
(-1.35031e-05 2.23761e-05 3.75898e-06)
(-1.87425e-05 5.32776e-05 -1.36836e-06)
(-1.75141e-05 7.39548e-05 -2.73669e-06)
(-5.66369e-06 7.6682e-05 -1.33959e-07)
(1.19114e-05 6.18975e-05 5.48364e-06)
(2.2521e-05 4.10134e-05 1.02286e-05)
(1.64588e-05 3.24222e-05 9.66786e-06)
(2.16849e-07 4.00675e-05 4.85155e-06)
(-1.23403e-05 5.44302e-05 4.5854e-07)
(-1.76779e-05 6.35987e-05 -2.68383e-06)
(-1.79836e-05 6.93323e-05 -4.90219e-06)
(-1.61218e-06 7.31035e-05 -2.3226e-06)
(6.85485e-06 6.14712e-05 1.07434e-05)
(9.82809e-06 0.000105977 9.82809e-06)
(2.05884e-05 6.74161e-05 1.22283e-05)
(2.1306e-05 5.60624e-05 1.3136e-05)
(1.42384e-05 4.46877e-05 1.22266e-05)
(-3.48307e-09 3.66945e-05 1.00743e-05)
(-1.5786e-05 2.995e-05 8.04707e-06)
(-2.8602e-05 2.2212e-05 6.63745e-06)
(-3.79713e-05 1.51615e-05 6.01708e-06)
(-4.56979e-05 1.3709e-05 5.21244e-06)
(-5.2404e-05 1.9619e-05 3.66528e-06)
(-5.54918e-05 2.74401e-05 1.56743e-06)
(-5.14683e-05 2.84597e-05 6.65136e-07)
(-3.88325e-05 1.54303e-05 1.73694e-06)
(-2.14583e-05 -6.2036e-06 3.87272e-06)
(-8.09576e-06 -2.40032e-05 5.67184e-06)
(-4.69392e-06 -2.37462e-05 4.48831e-06)
(-7.90059e-06 -4.24627e-06 4.5963e-07)
(-9.85001e-06 2.55373e-05 -2.85965e-06)
(-4.1915e-06 5.05762e-05 -2.22501e-06)
(1.24242e-05 5.76304e-05 2.47452e-06)
(3.31974e-05 4.77523e-05 9.11646e-06)
(4.36381e-05 3.13697e-05 1.4477e-05)
(3.52746e-05 2.32452e-05 1.47879e-05)
(1.39949e-05 3.34912e-05 9.95547e-06)
(-4.51852e-06 4.51941e-05 6.71095e-06)
(-1.26832e-05 5.20329e-05 7.95535e-06)