/*--------------------------------*- C++ -*----------------------------------*\
| =========                 |                                                 |
| \\      /  F ield         | OpenFOAM: The Open Source CFD Toolbox           |
|  \\    /   O peration     | Version:  2312                                  |
|   \\  /    A nd           | Website:  www.openfoam.com                      |
|    \\/     M anipulation  |                                                 |
\*---------------------------------------------------------------------------*/
FoamFile
{
    version     2.0;
    format      ascii;
    arch        "LSB;label=32;scalar=64";
    class       surfaceScalarField;
    location    "1.4496027068";
    object      alphaPhi0.water;
}
// * * * * * * * * * * * * * * * * * * * * * * * * * * * * * * * * * * * * * //

dimensions      [0 3 -1 0 0 0 0];

oriented        oriented;

internalField   nonuniform List<scalar> 
263100
(
-3.22871e-09
6.45713e-09
-3.22871e-09
1.45822e-09
-2.85644e-09
-1.80229e-09
3.53221e-09
-6.95431e-10
-1.36009e-09
4.93193e-09
-5.3412e-10
-8.55543e-10
5.91571e-09
-8.19923e-10
-1.65049e-10
6.73333e-09
-1.22775e-09
3.97304e-10
7.40688e-09
-1.62156e-09
9.26626e-10
7.72627e-09
-1.80047e-09
1.45747e-09
7.47237e-09
-1.61573e-09
1.8521e-09
6.56228e-09
-1.02132e-09
1.9285e-09
5.02998e-09
-2.05185e-10
1.7563e-09
3.01253e-09
6.91409e-10
1.37044e-09
8.33919e-10
1.39329e-09
8.55233e-10
-1.02187e-09
1.67958e-09
2.67684e-10
-2.16858e-09
1.41002e-09
-1.57313e-10
-2.41481e-09
6.84211e-10
-3.26202e-10
-1.80969e-09
-1.98467e-10
-2.97737e-10
-7.54732e-10
-9.35752e-10
-2.01897e-11
9.32127e-11
-1.31943e-09
5.56164e-10
1.13073e-10
-1.07086e-09
1.12004e-09
-1.09674e-09
-2.47039e-10
1.51165e-09
-3.57237e-09
9.31222e-10
1.58814e-09
-6.92039e-09
2.02336e-09
1.36084e-09
-1.00648e-08
2.33735e-09
8.38065e-10
-1.17146e-08
1.46022e-09
2.15647e-10
-1.05991e-08
-5.8303e-10
-5.13526e-10
-5.76693e-09
-3.68847e-09
-1.13629e-09
4.12846e-09
-6.48547e-09
-3.41878e-09
1.69902e-08
-8.42983e-09
-4.46001e-09
4.60189e-08
-2.90812e-08
7.7351e-10
4.92536e-09
7.7351e-10
7.99324e-10
-3.62303e-09
7.95553e-10
8.53623e-10
-1.45786e-09
7.44706e-10
9.31702e-10
-1.25323e-09
6.60821e-10
1.18582e-09
-1.71396e-09
6.41506e-10
1.63412e-09
-2.30085e-09
6.11958e-10
2.24497e-09
-2.81004e-09
5.59367e-10
2.94113e-09
-2.99712e-09
4.89149e-10
3.6411e-09
-2.74073e-09
4.33576e-10
4.21288e-09
-2.00234e-09
4.48515e-10
4.54825e-09
-9.7841e-10
5.13889e-10
4.61974e-09
1.64943e-11
7.16317e-10
4.36003e-09
8.00024e-10
9.96629e-10
3.82536e-09
1.01397e-09
1.36407e-09
2.96622e-09
7.22663e-10
1.71752e-09
1.7918e-09
3.15191e-11
1.99269e-09
4.65849e-10
-8.5807e-10
2.13572e-09
-8.36205e-10
-1.57752e-09
2.07265e-09
-2.04622e-09
-1.78871e-09
1.78555e-09
-3.09475e-09
-1.32292e-09
1.38687e-09
-4.01343e-09
-2.69494e-10
1.01221e-09
-4.7944e-09
9.72805e-10
8.00034e-10
-5.44756e-09
2.01212e-09
7.17191e-10
-5.65803e-09
1.82162e-09
7.70123e-10
-5.56542e-09
3.46074e-10
1.05165e-09
-5.60948e-09
-2.29082e-09
1.76043e-09
-5.87265e-09
-6.12191e-09
2.67558e-09
-1.80473e-09
-1.55537e-08
4.94381e-09
1.21979e-08
-3.06827e-08
8.15471e-09
5.48542e-08
3.25433e-09
1.76995e-09
1.41772e-09
1.76995e-09
-3.57399e-10
-2.24723e-09
8.5926e-10
-1.72174e-09
-6.90166e-10
6.86855e-10
-2.62121e-09
-6.40133e-10
3.6388e-10
-3.18521e-09
-1.12147e-09
3.38191e-11
-3.34709e-09
-1.8945e-09
-1.96447e-10
-2.93675e-09
-2.68827e-09
-4.94127e-10
-1.9198e-09
-3.2268e-09
-7.53194e-10
-3.27221e-10
-3.44456e-09
-8.52457e-10
1.65264e-09
-3.18155e-09
-7.57655e-10
3.76681e-09
-2.57895e-09
-4.62156e-10
5.5993e-09
-1.82128e-09
6.41149e-11
6.89391e-09
-1.01057e-09
5.78698e-10
7.13207e-09
-3.62593e-10
1.20047e-09
6.21127e-09
6.43238e-11
1.63631e-09
4.18256e-09
2.69084e-10
1.84102e-09
1.38822e-09
2.94337e-10
1.68429e-09
-1.52695e-09
1.68745e-10
1.20562e-09
-3.87324e-09
5.62585e-11
5.35449e-10
-5.1037e-09
8.84326e-11
-1.46356e-10
-5.02143e-09
2.69536e-10
-5.84799e-10
-3.7908e-09
5.76257e-10
-7.96599e-10
-1.7226e-09
6.68191e-10
-6.89751e-10
4.84972e-10
4.49815e-11
-4.05932e-10
2.42154e-09
-1.45892e-09
-1.24352e-10
3.20106e-09
-3.1333e-09
4.43514e-11
4.98596e-10
-3.8756e-09
4.06329e-10
-6.82906e-09
-1.17325e-08
3.42538e-09
-4.40382e-09
-4.16041e-08
8.39451e-09
3.318e-08
1.71731e-08
1.70981e-09
-1.92933e-09
1.70982e-09
-1.25475e-09
1.67792e-10
7.11099e-10
-3.12696e-09
8.60157e-10
4.65517e-10
-4.45804e-09
7.81164e-10
4.33226e-11
-5.487e-09
2.88092e-10
-2.60226e-10
-6.04233e-09
-6.34906e-10
-5.98914e-10
-5.93814e-09
-1.70173e-09
-1.00119e-09
-5.04884e-09
-2.71765e-09
-1.32535e-09
-3.43283e-09
-3.5297e-09
-1.47538e-09
-1.20614e-09
-3.9501e-09
-1.42199e-09
1.36473e-09
-3.95149e-09
-1.18343e-09
3.82173e-09
-3.51456e-09
-7.71117e-10
5.64725e-09
-2.62257e-09
-2.42376e-10
6.39763e-09
-1.33137e-09
1.71643e-10
5.87403e-09
1.88423e-10
3.41376e-10
4.1298e-09
1.7148e-09
2.37812e-10
1.57386e-09
2.82575e-09
-2.93621e-11
-1.08164e-09
3.31357e-09
-5.28072e-10
-3.08445e-09
3.0505e-09
-1.00983e-09
-3.80063e-09
2.20801e-09
-1.40082e-09
-2.9397e-09
1.08818e-09
-1.66017e-09
-6.99306e-10
9.49331e-11
-1.731e-09
2.31254e-09
-7.46561e-10
-1.57092e-09
5.1941e-09
-1.63033e-09
-1.19299e-09
7.16899e-09
-2.71171e-09
-7.30986e-10
8.872e-09
-4.13311e-09
-7.40108e-10
1.1468e-08
-3.71078e-09
-2.82717e-09
3.43699e-09
-5.15244e-10
-3.27704e-09
-1.05661e-08
-2.49111e-08
-2.79124e-09
1.52886e-08
7.2451e-09
1.40351e-09
-4.63041e-09
1.40351e-09
-1.33732e-09
2.51029e-09
5.68609e-10
-3.07883e-09
2.3786e-09
3.77712e-10
-4.3384e-09
2.14156e-09
4.72631e-11
-5.35615e-09
1.6188e-09
-1.73462e-10
-6.0579e-09
5.9547e-10
-4.01163e-10
-6.31108e-09
-6.69633e-10
-6.68473e-10
-6.05497e-09
-2.06459e-09
-8.22416e-10
-5.23016e-09
-3.30559e-09
-9.93426e-10
-3.84284e-09
-4.30326e-09
-1.01679e-09
-2.08084e-09
-4.78873e-09
-9.49719e-10
-2.34486e-10
-4.61424e-09
-8.13715e-10
1.40919e-09
-3.66616e-09
-7.03133e-10
2.51799e-09
-1.9226e-09
-6.45013e-10
2.97156e-09
2.97683e-10
-6.98913e-10
2.61368e-09
2.79367e-09
-8.48539e-10
1.63178e-09
4.71169e-09
-1.00772e-09
4.7257e-10
5.56262e-09
-1.15937e-09
-2.96593e-10
5.11309e-09
-1.3255e-09
-2.18887e-10
3.61603e-09
-1.48429e-09
8.4985e-10
1.65993e-09
-1.61528e-09
2.83059e-09
-1.61396e-10
-1.6884e-09
5.28132e-09
-1.46886e-09
-1.69458e-09
7.471e-09
-2.22319e-09
-1.57526e-09
8.52515e-09
-2.51174e-09
-1.25024e-09
8.13231e-09
-3.18436e-09
-5.69966e-10
8.62271e-09
-3.62106e-09
-6.07767e-10
5.80787e-09
3.98719e-09
-1.72138e-09
-6.29338e-09
-8.73237e-09
-4.10553e-09
9.21406e-09
-2.16618e-10
6.81604e-10
-5.88905e-09
6.81604e-10
-7.71685e-10
3.82605e-09
2.46619e-10
-1.6071e-09
3.06669e-09
2.48468e-10
-2.17831e-09
2.61726e-09
1.96311e-10
-2.72865e-09
2.07995e-09
1.90571e-10
-3.30177e-09
1.09364e-09
1.73978e-10
-3.86221e-09
-1.95703e-10
1.7608e-10
-4.43713e-09
-1.64154e-09
2.21762e-10
-4.96132e-09
-2.99517e-09
2.52598e-10
-5.25047e-09
-4.17197e-09
1.56123e-10
-5.20861e-09
-4.92293e-09
4.53942e-11
-4.73258e-09
-5.04611e-09
-1.34125e-10
-3.78375e-09
-4.37082e-09
-3.67394e-10
-2.438e-09
-2.79749e-09
-6.11402e-10
-8.75818e-10
-6.21733e-10
-7.81376e-10
6.06535e-10
2.05841e-09
-8.65299e-10
1.82312e-09
4.21287e-09
-8.01688e-10
2.68956e-09
5.30535e-09
-6.52069e-10
3.30545e-09
5.00125e-09
-5.07489e-10
3.83453e-09
3.55384e-09
-4.38982e-10
4.50817e-09
1.53142e-09
-4.97606e-10
5.43138e-09
-3.71115e-10
-6.57942e-10
6.44873e-09
-1.58602e-09
-8.44873e-10
7.29086e-09
-1.99099e-09
-1.02258e-09
7.51541e-09
-1.43886e-09
-1.24756e-09
5.75978e-09
-1.07132e-10
-1.26823e-09
2.8762e-09
4.30172e-10
-1.10386e-09
2.07511e-09
7.21655e-09
-2.34809e-09
-4.05978e-09
2.48502e-09
-4.98164e-09
8.25509e-09
-2.98332e-09
-5.37728e-10
-4.75645e-09
-5.37728e-10
-4.90704e-12
3.68023e-09
-3.96435e-10
6.99349e-10
2.52241e-09
-1.6386e-10
1.35275e-09
1.98061e-09
-1.11591e-11
1.71931e-09
1.47527e-09
2.57817e-10
1.55577e-09
7.29752e-10
5.6024e-10
7.38039e-10
-1.85106e-10
8.46192e-10
-7.03068e-10
-1.24788e-09
1.08188e-09
-2.60915e-09
-2.3015e-09
1.23033e-09
-4.72762e-09
-3.27331e-09
1.21201e-09
-6.63757e-09
-4.06309e-09
1.01296e-09
-7.77734e-09
-4.58163e-09
6.12255e-10
-7.73886e-09
-4.60985e-09
1.21675e-10
-6.46631e-09
-3.90569e-09
-2.4482e-10
-4.26559e-09
-2.48651e-09
-4.03179e-10
-1.37629e-09
-5.87959e-10
-2.85209e-10
1.51214e-09
1.28925e-09
2.35916e-11
4.00064e-09
2.48749e-09
3.47364e-10
5.71029e-09
2.63428e-09
6.98896e-10
6.60707e-09
1.76953e-09
9.44195e-10
6.85671e-09
2.77991e-10
1.0682e-09
6.6215e-09
-1.04607e-09
9.79012e-10
6.07631e-09
-1.77819e-09
8.12271e-10
5.07429e-09
-1.53997e-09
6.37927e-10
3.68833e-09
-1.86989e-10
2.4088e-10
1.58191e-09
2.67238e-09
-5.39365e-10
-1.62506e-09
4.99647e-09
-1.19458e-09
-2.00275e-09
1.01334e-08
-2.34423e-09
-3.72387e-09
8.22332e-09
-3.79819e-09
6.89522e-09
-2.16112e-09
-2.05052e-09
-6.78658e-10
-2.05052e-09
6.12735e-10
2.23818e-09
-1.35974e-09
2.94791e-09
1.1676e-09
-1.09685e-09
4.92291e-09
6.80125e-10
-7.69985e-10
6.2696e-09
3.53145e-10
-2.92046e-10
6.67864e-09
1.11937e-10
1.69932e-10
5.8678e-09
-1.93854e-11
6.29572e-10
3.87326e-09
-2.14698e-10
9.6015e-10
9.43657e-10
-5.0547e-10
1.13753e-09
-2.4492e-09
-9.83732e-10
1.10576e-09
-5.68288e-09
-1.72101e-09
8.90852e-10
-8.0373e-09
-2.78744e-09
5.59279e-10
-9.02215e-09
-3.86093e-09
2.40963e-10
-8.38371e-09
-4.52584e-09
-7.55238e-13
-6.27675e-09
-4.52263e-09
-3.68728e-11
-3.17176e-09
-3.8168e-09
1.73842e-10
3.20678e-10
-2.65529e-09
5.13336e-10
3.57627e-09
-1.61147e-09
9.08623e-10
5.9813e-09
-1.06674e-09
1.35855e-09
7.25161e-09
-1.20584e-09
1.76215e-09
7.39997e-09
-1.85519e-09
2.03897e-09
6.67049e-09
-2.48049e-09
2.22298e-09
5.16863e-09
-2.47682e-09
2.27574e-09
2.913e-09
-1.33078e-09
2.14899e-09
1.19167e-10
9.76255e-10
1.7687e-09
-2.19936e-09
4.30593e-09
8.61913e-10
-4.47075e-09
7.50613e-09
-2.51766e-11
-3.36439e-09
9.8016e-09
-5.33419e-10
-2.17777e-09
7.81147e-09
-5.18655e-10
3.9118e-09
1.01375e-09
-2.99162e-09
5.20224e-09
-2.99162e-09
1.3246e-09
-2.62058e-10
-2.03565e-09
4.73034e-09
-6.33448e-10
-1.78913e-09
7.4959e-09
-9.02353e-10
-1.33845e-09
9.36788e-09
-7.77203e-10
-8.62134e-10
1.00537e-08
-2.70611e-10
-3.88195e-10
9.33957e-09
6.30011e-10
1.1872e-11
7.33092e-09
1.5747e-09
1.9325e-10
4.28102e-09
2.25655e-09
2.84472e-10
7.06634e-10
2.33833e-09
2.69381e-10
-2.74274e-09
1.58444e-09
1.81551e-10
-5.50246e-09
-1.96844e-11
5.08066e-11
-7.15127e-09
-2.15298e-09
2.00607e-11
-7.49108e-09
-4.17766e-09
8.66078e-11
-6.53182e-09
-5.60888e-09
2.28974e-10
-4.49336e-09
-6.15949e-09
4.01552e-10
-1.7938e-09
-5.90011e-09
6.26507e-10
1.04039e-09
-5.26883e-09
8.80899e-10
3.54399e-09
-4.71057e-09
1.17399e-09
5.27688e-09
-4.42713e-09
1.50557e-09
5.93872e-09
-4.27259e-09
1.76922e-09
5.39883e-09
-3.94212e-09
2.02714e-09
3.74971e-09
-2.92715e-09
2.15036e-09
1.28556e-09
-7.82047e-10
1.9998e-09
-1.43875e-09
2.18401e-09
1.63626e-09
-3.22259e-09
5.1968e-09
1.04453e-09
-3.60683e-09
7.14987e-09
9.16988e-10
-1.521e-09
6.54321e-09
1.3644e-09
2.21942e-10
3.8695e-09
2.39367e-09
1.68828e-09
2.58529e-09
-2.84544e-09
1.07495e-08
-2.84544e-09
1.96762e-09
-3.60257e-09
-1.68726e-09
5.47687e-09
-2.99139e-09
-1.32854e-09
8.16859e-09
-2.91637e-09
-8.27856e-10
9.80416e-09
-2.14266e-09
-3.92323e-10
1.02243e-08
-7.03442e-10
-8.24212e-11
9.57376e-09
1.17266e-09
3.86513e-11
7.96704e-09
3.09981e-09
3.86933e-11
5.75283e-09
4.54896e-09
-9.25519e-11
3.23222e-09
5.03513e-09
-1.5924e-10
7.08046e-10
4.24634e-09
-8.80772e-11
-1.60146e-09
2.25165e-09
1.17732e-10
-3.5606e-09
-4.79656e-10
3.86236e-10
-5.02622e-09
-3.22357e-09
6.18168e-10
-5.81428e-09
-5.46859e-09
7.42899e-10
-5.77204e-09
-6.88075e-09
7.46528e-10
-4.76917e-09
-7.4825e-09
6.0976e-10
-2.92411e-09
-7.53837e-09
4.17724e-10
-6.91189e-10
-7.29715e-09
3.20126e-10
1.29734e-09
-6.80828e-09
3.49017e-10
2.55782e-09
-6.04585e-09
4.77061e-10
2.68199e-09
-4.64087e-09
5.60158e-10
1.74771e-09
-2.40328e-09
4.22931e-10
2.91616e-10
6.28997e-10
8.29129e-11
-9.62497e-10
3.77675e-09
-2.81248e-10
-1.06569e-09
5.6754e-09
-3.04276e-10
2.00798e-10
5.61355e-09
3.50726e-10
1.71124e-09
3.90197e-09
1.21842e-09
1.35621e-09
2.64608e-09
1.66919e-09
2.46737e-09
6.38239e-10
-6.81959e-10
1.19865e-08
-6.81957e-10
2.74687e-09
-7.61228e-09
4.51408e-10
4.76591e-09
-5.78846e-09
6.73359e-10
5.93211e-09
-5.08673e-09
9.11268e-10
6.28383e-09
-3.67026e-09
1.08953e-09
5.9725e-09
-1.54046e-09
1.06658e-09
5.35215e-09
8.75247e-10
8.43278e-10
4.68566e-09
3.25959e-09
4.46597e-10
4.14279e-09
4.92112e-09
1.34358e-10
3.62813e-09
5.54007e-09
4.58739e-12
2.90733e-09
4.85934e-09
1.35186e-10
1.68042e-09
3.08495e-09
4.46343e-10
-2.07065e-10
7.21716e-10
7.48921e-10
-2.58101e-09
-1.64642e-09
8.49578e-10
-4.96383e-09
-3.79113e-09
7.29262e-10
-6.74369e-09
-5.4722e-09
3.54911e-10
-7.39614e-09
-6.71509e-09
-1.71516e-10
-6.74975e-09
-7.5948e-09
-6.75019e-10
-5.10247e-09
-8.05156e-09
-9.87701e-10
-3.08024e-09
-7.81295e-09
-1.10315e-09
-1.39343e-09
-6.65112e-09
-1.14586e-09
-4.48681e-10
-4.43954e-09
-1.18739e-09
-1.66952e-10
-1.33592e-09
-1.37426e-09
1.67119e-10
1.77785e-09
-1.50192e-09
9.15932e-10
4.34939e-09
-1.34032e-09
2.26466e-09
5.15564e-09
-8.46817e-10
3.55279e-09
4.46176e-09
-1.46322e-10
3.31656e-09
4.00217e-09
1.42137e-10
1.30475e-09
5.12481e-09
-4.40086e-10
4.90773e-09
-1.10197e-09
2.7068e-09
6.50962e-09
2.7068e-09
2.55444e-09
-1.07352e-08
3.26555e-09
1.66983e-09
-8.5533e-09
3.63958e-09
1.77558e-10
-7.01451e-09
3.39749e-09
-1.35874e-09
-5.07027e-09
2.89257e-09
-2.46281e-09
-2.56905e-09
2.06767e-09
-2.81262e-09
8.32163e-11
1.06427e-09
-2.05258e-09
2.2124e-09
2.11478e-10
-4.66189e-10
3.62575e-09
-3.49944e-10
1.3995e-09
4.15773e-09
-5.16144e-10
2.76748e-09
3.90072e-09
-4.16444e-10
2.92618e-09
3.20824e-09
-2.74649e-10
1.63656e-09
2.24721e-09
-2.32552e-10
-8.45707e-10
1.20326e-09
-3.87044e-10
-3.84982e-09
-4.11694e-11
-8.00685e-10
-6.49219e-09
-1.556e-09
-1.36415e-09
-8.06603e-09
-3.34572e-09
-1.9094e-09
-8.27235e-09
-5.18733e-09
-2.31931e-09
-7.28744e-09
-6.60001e-09
-2.5406e-09
-5.65125e-09
-7.00048e-09
-2.52936e-09
-3.92106e-09
-6.06377e-09
-2.37772e-09
-2.32525e-09
-3.88837e-09
-2.19914e-09
-7.36531e-10
-1.06253e-09
-1.92039e-09
1.163e-09
1.34406e-09
-1.53692e-09
3.34544e-09
2.93357e-09
-8.4555e-10
5.09058e-09
3.422e-09
-8.27188e-11
5.31157e-09
3.82188e-09
3.73152e-10
3.5906e-09
5.4927e-09
2.22125e-10
1.3694e-09
7.69699e-09
-3.20179e-10
6.1206e-09
2.06942e-10
5.81975e-09
-5.11661e-09
5.81975e-09
8.19085e-10
-1.08185e-08
5.16974e-09
-3.61374e-09
-8.4703e-09
4.40854e-09
-7.51076e-09
-6.35661e-09
3.26259e-09
-1.06039e-08
-3.91666e-09
1.92178e-09
-1.2161e-08
-1.45681e-09
3.91606e-10
-1.18268e-08
4.60092e-10
-7.84306e-10
-9.63906e-09
1.67009e-09
-1.7192e-09
-6.08578e-09
2.32283e-09
-2.30834e-09
-2.17643e-09
2.65312e-09
-2.44004e-09
9.05787e-10
3.14896e-09
-2.34819e-09
2.36556e-09
4.02614e-09
-2.2922e-09
2.03575e-09
4.99583e-09
-2.4475e-09
3.27253e-10
5.66116e-09
-2.80444e-09
-2.01781e-09
5.46836e-09
-3.24699e-09
-4.20801e-09
4.14597e-09
-3.61101e-09
-5.67297e-09
1.82446e-09
-3.80355e-09
-6.20582e-09
-9.30223e-10
-3.80582e-09
-5.95448e-09
-3.31721e-09
-3.59332e-09
-5.16999e-09
-4.55848e-09
-3.27133e-09
-3.98567e-09
-4.40851e-09
-2.88774e-09
-2.30027e-09
-3.20051e-09
-2.44228e-09
-1.67314e-11
-1.57764e-09
-1.86494e-09
2.56971e-09
-2.29295e-10
-1.12749e-09
4.96002e-09
6.76929e-10
-2.43372e-10
6.07236e-09
1.69974e-09
5.29865e-10
5.28389e-09
3.72962e-09
8.46149e-10
3.5036e-09
6.47461e-09
8.09786e-10
1.98215e-09
8.12377e-09
1.13817e-09
6.49801e-09
1.64257e-09
5.47049e-09
-1.59908e-08
5.47049e-09
-3.21395e-09
-4.52321e-09
2.50942e-09
-1.00278e-08
-2.8016e-09
1.22222e-09
-1.50726e-08
-8.24735e-10
-4.53705e-10
-1.83687e-08
1.10831e-09
-1.73738e-09
-1.93741e-08
2.48502e-09
-2.97383e-09
-1.78051e-08
2.71725e-09
-3.87332e-09
-1.4142e-08
2.15668e-09
-4.18796e-09
-9.37231e-09
1.61841e-09
-4.08385e-09
-4.63145e-09
1.78756e-09
-3.87497e-09
-9.89508e-10
3.19822e-09
-3.68266e-09
1.22426e-09
5.52811e-09
-3.71416e-09
1.93148e-09
8.20426e-09
-3.93254e-09
1.63162e-09
1.01625e-08
-4.23868e-09
8.63134e-10
1.06062e-08
-4.4178e-09
-1.6772e-11
9.34339e-09
-4.36211e-09
-8.61786e-10
6.70883e-09
-4.06802e-09
-1.64898e-09
3.44667e-09
-3.60195e-09
-2.40973e-09
5.59227e-10
-3.12534e-09
-2.93882e-09
-1.28572e-09
-2.77349e-09
-2.85192e-09
-2.00369e-09
-2.56169e-09
-1.83967e-09
-1.98003e-09
-2.34803e-09
8.16042e-11
-1.58816e-09
-2.05638e-09
2.4078e-09
-9.98954e-10
-1.7027e-09
4.0755e-09
2.70419e-10
-1.37737e-09
4.39461e-09
2.50058e-09
-1.18967e-09
3.67057e-09
5.79003e-09
-1.36446e-09
2.81608e-09
8.54579e-09
-1.22477e-09
1.51708e-09
9.92303e-09
-5.16684e-10
9.43339e-09
-1.47426e-09
9.05476e-10
-1.77232e-08
9.05477e-10
-8.23086e-09
6.92138e-09
-2.20827e-09
-1.47511e-08
7.09887e-09
-3.32207e-09
-1.89262e-08
7.97188e-09
-4.59605e-09
-2.0848e-08
8.26762e-09
-5.23414e-09
-2.02929e-08
7.19664e-09
-5.26968e-09
-1.75241e-08
4.86137e-09
-4.90702e-09
-1.33653e-08
2.28801e-09
-4.26613e-09
-8.98824e-09
7.90525e-10
-3.50776e-09
-5.13053e-09
9.4812e-10
-2.96961e-09
-2.16365e-09
3.09117e-09
-2.81818e-09
4.62691e-11
6.35302e-09
-3.01052e-09
1.77063e-09
9.78629e-09
-3.30021e-09
3.19408e-09
1.21584e-08
-3.42158e-09
4.27988e-09
1.27373e-08
-3.21319e-09
4.78593e-09
1.15649e-08
-2.70835e-09
4.38019e-09
9.1801e-09
-2.03481e-09
3.0117e-09
6.22872e-09
-1.39107e-09
1.00429e-09
3.62582e-09
-1.07324e-09
-9.86327e-10
1.72105e-09
-1.08964e-09
-2.18982e-09
4.24915e-10
-1.36161e-09
-2.27348e-09
-2.84889e-10
-1.78996e-09
-1.32439e-09
-5.19293e-10
-2.20058e-09
-1.20675e-10
2.24821e-10
-2.57777e-09
7.45583e-10
2.33535e-09
-3.03252e-09
8.81867e-10
5.9363e-09
-3.63589e-09
7.71983e-10
9.87915e-09
-4.03754e-09
4.45779e-10
1.26365e-08
-3.85261e-09
-3.26363e-10
1.46375e-08
-4.08338e-09
1.34391e-08
-4.50606e-09
-4.12153e-09
-9.42293e-09
-4.12152e-09
-1.08049e-08
1.99595e-08
-6.29064e-09
-1.47826e-08
1.72934e-08
-6.17683e-09
-1.66007e-08
1.5918e-08
-6.09595e-09
-1.63012e-08
1.34317e-08
-5.42781e-09
-1.42647e-08
9.56248e-09
-4.35231e-09
-1.14078e-08
5.1278e-09
-3.05518e-09
-8.6553e-09
1.50721e-09
-1.89173e-09
-6.38984e-09
-3.47805e-10
-1.0494e-09
-4.74574e-09
1.63645e-10
-8.00006e-10
-3.28415e-09
2.70742e-09
-1.04579e-09
-1.37253e-09
6.01426e-09
-1.56593e-09
1.16365e-09
9.20688e-09
-1.96052e-09
4.09152e-09
1.11295e-08
-1.89422e-09
6.62262e-09
1.1606e-08
-1.37379e-09
7.9545e-09
1.08484e-08
-5.72458e-10
7.65719e-09
9.31041e-09
2.03488e-10
5.76069e-09
7.50135e-09
6.20107e-10
2.91337e-09
5.79127e-09
6.10271e-10
1.39932e-10
4.09717e-09
2.5302e-10
-1.66961e-09
2.29637e-09
-2.54618e-10
-2.35988e-09
9.00205e-10
-6.91605e-10
-2.312e-09
3.45392e-10
-1.07071e-09
-2.26271e-09
1.53868e-09
-1.46426e-09
-2.53048e-09
4.56067e-09
-2.01712e-09
-2.79096e-09
8.64707e-09
-2.50833e-09
-2.55397e-09
1.21748e-08
-2.63074e-09
-2.1684e-09
1.47245e-08
-2.63365e-09
-1.05284e-09
1.63418e-08
-3.03219e-09
1.29846e-08
-7.76327e-10
-6.54539e-09
3.69913e-09
-6.54539e-09
-8.97012e-09
2.86691e-08
-6.22711e-09
-9.69182e-09
2.35006e-08
-5.43364e-09
-9.06958e-09
1.9793e-08
-4.43159e-09
-7.45557e-09
1.49674e-08
-3.06295e-09
-5.53975e-09
9.38242e-09
-1.63115e-09
-4.17894e-09
4.33492e-09
-4.59637e-10
-3.94055e-09
1.16212e-09
1.97445e-10
-4.36551e-09
-1.83393e-10
3.13015e-10
-4.97754e-09
1.11406e-09
-3.34764e-10
-4.53266e-09
3.37738e-09
-1.1539e-09
-2.65123e-09
5.84754e-09
-1.77407e-09
6.17929e-10
7.71564e-09
-1.82758e-09
4.31815e-09
8.77446e-09
-1.36191e-09
7.28838e-09
9.18613e-09
-5.30813e-10
8.66711e-09
9.271e-09
2.33637e-10
8.16174e-09
9.12785e-09
7.01728e-10
6.24113e-09
8.60846e-09
7.72755e-10
3.84367e-09
7.4536e-09
6.29103e-10
1.90368e-09
5.45655e-09
4.305e-10
7.03953e-10
2.99315e-09
3.52915e-10
3.39553e-11
8.97981e-10
5.66491e-10
-7.85096e-10
1.85966e-10
9.36082e-10
-1.98279e-09
1.59308e-09
1.14701e-09
-3.23655e-09
4.67295e-09
1.14882e-09
-3.63458e-09
7.73002e-09
1.28481e-09
-3.06349e-09
9.84841e-09
1.6717e-09
-1.85568e-09
1.10842e-08
2.31359e-09
3.48253e-10
1.07327e-08
3.29546e-09
7.49462e-09
5.82667e-09
-5.43297e-09
1.45923e-08
-5.43297e-09
-4.30398e-09
3.1671e-08
-4.04536e-09
-3.22752e-09
2.56593e-08
-3.13996e-09
-1.74476e-09
2.06038e-08
-2.1747e-09
-2.66659e-10
1.4882e-08
-1.2567e-09
4.32901e-10
9.3868e-09
-5.70423e-10
-6.17365e-12
5.23857e-09
-3.61926e-10
-1.60217e-09
3.33211e-09
-5.29572e-10
-3.63071e-09
2.9927e-09
-1.17607e-09
-4.77805e-09
3.91089e-09
-1.74435e-09
-4.37743e-09
4.98992e-09
-2.14554e-09
-2.13363e-09
5.463e-09
-1.98723e-09
1.12794e-09
5.69453e-09
-1.32542e-09
4.24374e-09
5.99161e-09
-3.57002e-10
6.28418e-09
6.81917e-09
3.52643e-10
6.91596e-09
8.01623e-09
6.65867e-10
6.3977e-09
9.12079e-09
5.4832e-10
5.44658e-09
9.29705e-09
2.47372e-10
4.74541e-09
8.09106e-09
2.25687e-11
4.49301e-09
5.6418e-09
3.64248e-11
4.28011e-09
2.82738e-09
3.96276e-10
3.40168e-09
9.82288e-10
8.73188e-10
1.63921e-09
8.99696e-10
1.16696e-09
-3.65056e-10
2.48743e-09
1.22269e-09
-1.62885e-09
4.71e-09
1.2967e-09
-1.4519e-09
5.80888e-09
1.76695e-09
-2.21294e-10
5.94621e-09
2.67939e-09
1.52125e-09
5.67427e-09
3.7109e-09
2.25457e-09
5.0608e-09
5.06092e-09
6.72944e-09
3.21996e-09
-3.54379e-09
2.17299e-08
-3.54379e-09
-1.1356e-09
3.17363e-08
-2.3372e-09
6.27583e-10
2.62202e-08
-2.17862e-09
1.94118e-09
2.12981e-08
-1.84775e-09
2.77835e-09
1.58263e-08
-1.62568e-09
2.61797e-09
1.11249e-08
-1.4566e-09
1.41175e-09
7.92053e-09
-1.42078e-09
-2.78779e-10
6.4477e-09
-1.45651e-09
-1.78214e-09
5.85659e-09
-1.47623e-09
-2.32198e-09
5.50783e-09
-1.22862e-09
-1.54834e-09
4.582e-09
-5.45305e-10
1.92699e-10
3.18984e-09
3.94156e-10
1.99259e-09
2.55165e-09
1.27891e-09
2.91247e-09
2.89699e-09
2.18714e-09
3.05285e-09
4.5819e-09
2.161e-09
2.8475e-09
6.83083e-09
1.47155e-09
3.0082e-09
8.48654e-09
5.487e-10
3.78069e-09
8.58159e-09
1.71141e-11
5.00756e-09
7.20357e-09
-2.39484e-10
5.87834e-09
5.1105e-09
-1.86146e-10
5.46463e-09
3.56895e-09
-1.1805e-10
3.64005e-09
3.34709e-09
-3.0588e-10
1.13646e-09
4.62917e-09
-1.0182e-09
-7.60085e-10
6.56012e-09
-2.03192e-09
-9.63721e-10
7.28336e-09
-2.2837e-09
7.18829e-11
6.75568e-09
-1.90773e-09
1.24264e-09
6.51508e-09
-1.6161e-09
1.39784e-09
7.51499e-09
-1.7853e-09
2.32044e-11
9.75854e-09
-3.0328e-09
1.3387e-08
-6.37751e-09
-2.7244e-09
2.7262e-08
-2.7244e-09
-1.42916e-10
3.15684e-08
-2.24851e-09
1.6658e-09
2.68896e-08
-2.31611e-09
3.0811e-09
2.20167e-08
-1.97692e-09
3.92444e-09
1.66104e-08
-1.49848e-09
3.98888e-09
1.20166e-08
-8.83854e-10
3.23952e-09
9.03265e-09
-3.6927e-10
2.29574e-09
7.12249e-09
1.79656e-10
1.73037e-09
5.59346e-09
6.7734e-10
1.87488e-09
3.69542e-09
1.49705e-09
2.14826e-09
1.58981e-09
2.57761e-09
1.89721e-09
-3.90649e-10
3.75715e-09
6.35722e-10
-3.96654e-10
4.21266e-09
-1.1493e-09
1.36248e-09
3.3823e-09
-2.5549e-09
4.0615e-09
2.01794e-09
-2.51707e-09
6.46246e-09
4.29555e-10
-8.51349e-10
7.54524e-09
-6.15615e-10
1.76958e-09
7.10431e-09
-1.00131e-09
4.03234e-09
6.11262e-09
-9.71895e-10
4.64305e-09
5.63622e-09
-8.81319e-10
3.31037e-09
6.33353e-09
-1.16106e-09
7.15332e-10
8.364e-09
-2.19385e-09
-1.4844e-09
1.04466e-08
-3.47274e-09
-1.8375e-09
1.09686e-08
-3.98484e-09
-3.97982e-10
9.68452e-09
-3.78881e-09
8.58199e-10
9.0515e-09
-3.4516e-09
9.01171e-10
1.06109e-08
-3.95586e-09
-4.98699e-10
1.44366e-08
-5.27545e-09
-2.6152e-09
1.97923e-08
-7.67163e-09
1.80389e-08
-7.15159e-09
-2.33122e-09
3.20217e-08
-2.33122e-09
5.20916e-10
3.04536e-08
-1.60015e-09
2.58456e-09
2.60733e-08
-1.12567e-09
4.19429e-09
2.07642e-08
-2.54125e-10
5.13725e-09
1.51577e-08
5.76472e-10
5.21118e-09
1.08007e-08
1.15608e-09
4.91238e-09
7.61919e-09
1.66762e-09
4.5849e-09
5.22841e-09
2.13005e-09
4.3758e-09
2.78902e-09
2.90479e-09
3.82822e-09
5.88351e-10
3.56637e-09
2.37017e-09
-1.11346e-09
4.12298e-09
-4.81421e-10
-1.15561e-09
3.63538e-09
-4.04806e-09
1.01052e-09
2.2177e-09
-6.66958e-09
3.84735e-09
2.04076e-10
-7.62696e-09
6.74412e-09
-1.66987e-09
-6.00197e-09
7.46889e-09
-2.58328e-09
-2.51928e-09
6.82556e-09
-2.69388e-09
9.25423e-10
6.08596e-09
-2.30551e-09
2.56087e-09
6.41194e-09
-1.75881e-09
2.0532e-09
8.21883e-09
-1.88111e-09
1.50053e-10
1.11025e-08
-2.71432e-09
-1.51576e-09
1.37103e-08
-3.61416e-09
-1.37766e-09
1.3971e-08
-3.67311e-09
5.13033e-10
1.1789e-08
-2.73875e-09
2.12684e-09
9.5506e-09
-1.45526e-09
1.97035e-09
1.02595e-08
-9.46331e-10
4.2873e-10
1.39707e-08
-1.66455e-09
-1.14583e-09
1.87954e-08
-2.65119e-09
-8.4981e-10
2.26606e-08
-3.11406e-09
1.78324e-08
-6.92503e-10
-6.67238e-10
3.34297e-08
-6.67235e-10
2.25807e-09
2.70438e-08
5.43448e-10
4.10016e-09
2.30896e-08
1.18358e-09
5.13429e-09
1.7835e-08
1.91926e-09
5.06656e-09
1.27244e-08
2.50258e-09
4.26892e-09
8.70515e-09
2.87039e-09
3.49118e-09
5.57929e-09
2.77799e-09
3.02302e-09
3.09988e-09
2.5585e-09
2.28736e-09
1.22627e-09
2.28498e-09
9.08229e-10
8.08266e-11
1.91397e-09
-1.95828e-09
7.62588e-10
1.05518e-09
-5.68396e-09
3.0577e-09
-4.10865e-10
-8.95728e-09
6.45264e-09
-2.11598e-09
-1.01746e-08
8.45415e-09
-3.38491e-09
-8.52486e-09
8.60191e-09
-3.54602e-09
-4.79991e-09
6.77246e-09
-3.07494e-09
-9.60316e-10
4.97626e-09
-2.00167e-09
1.05529e-09
5.25316e-09
-1.14088e-09
8.22547e-10
7.83002e-09
-1.11487e-09
-7.97353e-10
1.19784e-08
-2.09506e-09
-1.77865e-09
1.52442e-08
-3.18461e-09
-7.05272e-10
1.58337e-08
-3.28302e-09
2.28772e-09
1.30153e-08
-2.12599e-09
4.8271e-09
9.52383e-09
-2.97178e-10
4.96697e-09
8.73112e-09
7.44244e-10
3.07237e-09
1.17505e-08
5.12087e-10
1.0571e-09
1.60919e-08
-2.89122e-11
4.10106e-10
1.90233e-08
4.14428e-10
1.277e-09
2.01414e-08
1.57802e-09
1.7493e-08
1.56206e-09
1.47455e-09
3.04996e-08
1.47455e-09
3.62078e-09
2.22125e-08
2.66141e-09
4.2565e-09
1.91593e-08
3.26543e-09
3.57585e-09
1.51136e-08
3.36954e-09
1.79949e-09
1.14976e-08
2.97072e-09
2.59015e-11
8.33716e-09
2.11633e-09
-1.30343e-09
5.76126e-09
1.14214e-09
-2.02728e-09
3.45694e-09
3.96551e-10
-2.70324e-09
2.05975e-09
-8.51131e-11
-4.42678e-09
2.37912e-09
-4.70066e-10
-6.84718e-09
4.48124e-09
-1.19306e-09
-9.20015e-09
7.64793e-09
-2.1741e-09
-9.87335e-09
9.62668e-09
-2.51059e-09
-8.18094e-09
8.90759e-09
-2.22916e-09
-4.48755e-09
5.94761e-09
-1.15911e-09
-7.87733e-10
2.82445e-09
1.44905e-10
8.56122e-10
1.83166e-09
1.44837e-09
1.16083e-10
4.59168e-09
1.39124e-09
-1.69347e-09
9.71648e-09
-9.00393e-11
-2.62958e-09
1.44989e-08
-1.64269e-09
-1.13171e-09
1.57114e-08
-2.06531e-09
2.68118e-09
1.30419e-08
-1.10755e-09
6.24534e-09
9.05554e-09
3.89623e-10
6.93398e-09
7.49748e-09
1.42927e-09
4.79822e-09
1.01067e-08
8.94326e-10
2.27954e-09
1.48823e-08
-5.21004e-10
1.11582e-09
1.79512e-08
-6.89687e-10
1.09959e-09
1.89332e-08
5.50237e-11
1.21756e-09
2.00496e-08
-5.56869e-11
1.91371e-08
-3.72027e-10
2.97164e-09
2.45253e-08
2.97164e-09
2.90281e-09
1.89208e-08
3.30814e-09
1.97424e-09
1.7045e-08
2.99792e-09
-2.69016e-10
1.49295e-08
2.38832e-09
-2.9016e-09
1.2606e-08
1.49392e-09
-5.15595e-09
1.01585e-08
4.20108e-10
-6.37588e-09
7.25519e-09
-2.5623e-10
-6.90956e-09
4.47448e-09
-4.25448e-10
-7.54443e-09
3.19202e-09
-4.0333e-10
-8.74335e-09
4.23451e-09
-5.5344e-10
-9.95201e-09
6.74615e-09
-9.8654e-10
-9.85893e-09
8.83402e-09
-1.27992e-09
-7.59351e-09
8.27884e-09
-9.98087e-10
-3.6211e-09
4.7794e-09
2.49962e-11
3.80607e-11
8.64459e-10
1.297e-09
1.77459e-09
-1.17313e-09
2.18151e-09
6.99607e-10
1.27495e-09
1.60317e-09
-1.28968e-09
6.63632e-09
-7.02839e-11
-2.26682e-09
1.22162e-08
-1.56768e-09
-4.77461e-10
1.42311e-08
-1.59957e-09
3.65966e-09
1.17306e-08
-2.16728e-10
7.49408e-09
7.92058e-09
1.31049e-09
8.16053e-09
5.70516e-09
2.81001e-09
5.55777e-09
8.10685e-09
2.16351e-09
2.40734e-09
1.28294e-08
5.47038e-10
6.57851e-10
1.66431e-08
8.72382e-12
-8.77883e-11
1.87069e-08
-5.00644e-11
-8.07415e-11
1.93935e-08
-4.82269e-10
8.10007e-10
1.91773e-08
4.64059e-11
1.76767e-08
2.35584e-09
2.57743e-09
1.93308e-08
2.57743e-09
7.87948e-10
1.84087e-08
2.29526e-09
-1.30209e-09
1.72583e-08
1.87422e-09
-4.00088e-09
1.64191e-08
1.20048e-09
-6.79542e-09
1.49828e-08
4.00273e-10
-8.84147e-09
1.23713e-08
-1.82743e-10
-1.00477e-08
8.79432e-09
-3.29696e-10
-1.09991e-08
5.73833e-09
-2.78267e-10
-1.21796e-08
4.84836e-09
-4.18061e-10
-1.31245e-08
6.2236e-09
-9.91749e-10
-1.27004e-08
8.13322e-09
-1.8005e-09
-1.01114e-08
8.16179e-09
-1.96679e-09
-5.6852e-09
5.302e-09
-1.54559e-09
-1.40317e-09
1.14255e-09
-7.44308e-10
1.1098e-09
-1.5741e-09
-1.33615e-10
9.51434e-10
-7.2352e-11
-9.52679e-10
-3.84639e-11
4.76649e-09
-2.49657e-09
-5.1805e-11
1.01009e-08
-3.47806e-09
2.6311e-09
1.24802e-08
-3.01866e-09
7.46754e-09
1.05823e-08
-1.26084e-09
1.13186e-08
6.85579e-09
1.01994e-09
1.17886e-08
4.64e-09
2.90498e-09
8.48707e-09
6.51608e-09
2.63151e-09
3.96604e-09
1.18896e-08
8.29483e-10
1.4374e-09
1.51121e-08
2.31699e-10
6.49618e-10
1.62083e-08
1.14081e-09
-2.72534e-10
1.83501e-08
1.22018e-09
7.9883e-10
1.80785e-08
2.53672e-10
3.31393e-09
1.38316e-08
2.8687e-09
1.66673e-08
4.294e-09
1.49465e-09
1.63417e-08
1.49465e-09
-1.20582e-09
2.01131e-08
1.07484e-09
-3.85085e-09
1.94531e-08
5.07682e-10
-6.56136e-09
1.93839e-08
-2.3365e-10
-9.08329e-09
1.81657e-08
-6.78941e-10
-1.10799e-08
1.53436e-08
-1.01221e-09
-1.29276e-08
1.1877e-08
-1.26162e-09
-1.49846e-08
9.48802e-09
-1.69077e-09
-1.67766e-08
9.21176e-09
-2.54597e-09
-1.71892e-08
1.01541e-08
-3.49436e-09
-1.51404e-08
9.83378e-09
-3.75284e-09
-1.06048e-08
6.84734e-09
-3.25444e-09
-5.3588e-09
2.36906e-09
-2.35147e-09
-1.36332e-09
-1.21339e-09
-1.64963e-09
2.7082e-10
-1.31698e-09
-1.86396e-09
8.17767e-10
2.04881e-09
-2.63482e-09
2.36659e-09
6.50237e-09
-3.29688e-09
6.2429e-09
8.90609e-09
-2.76313e-09
1.18233e-08
8.00683e-09
-1.22246e-09
1.60212e-08
5.68077e-09
6.29701e-10
1.64968e-08
4.37723e-09
2.01823e-09
1.30572e-08
6.82916e-09
1.32208e-09
8.16124e-09
1.18573e-08
-4.11425e-10
4.58032e-09
1.68896e-08
-1.48617e-09
3.4648e-09
1.73906e-08
-1.29955e-09
3.21708e-09
1.64701e-08
-1.2892e-10
2.38845e-09
1.8697e-08
4.37095e-10
3.31102e-09
1.6203e-08
9.25077e-10
3.49734e-09
1.17927e-08
1.75893e-09
2.26851e-08
-2.6612e-09
-2.92546e-10
1.6987e-08
-2.92543e-10
-3.2655e-09
2.40512e-08
-8.22856e-10
-5.98999e-09
2.37817e-08
-1.51543e-09
-8.4255e-09
2.40514e-08
-2.20699e-09
-1.05412e-08
2.29205e-08
-2.66782e-09
-1.2658e-08
2.02928e-08
-2.88073e-09
-1.52127e-08
1.7482e-08
-3.08e-09
-1.79894e-08
1.57513e-08
-3.47882e-09
-1.95862e-08
1.48413e-08
-3.99549e-09
-1.87243e-08
1.33486e-08
-4.01414e-09
-1.51307e-08
9.56456e-09
-3.29351e-09
-9.73302e-09
3.82641e-09
-2.35081e-09
-4.69918e-09
-1.38115e-09
-1.2411e-09
-1.4656e-09
-3.83891e-09