/*--------------------------------*- C++ -*----------------------------------*\
| =========                 |                                                 |
| \\      /  F ield         | OpenFOAM: The Open Source CFD Toolbox           |
|  \\    /   O peration     | Version:  2312                                  |
|   \\  /    A nd           | Website:  www.openfoam.com                      |
|    \\/     M anipulation  |                                                 |
\*---------------------------------------------------------------------------*/
FoamFile
{
    version     2.0;
    format      ascii;
    arch        "LSB;label=32;scalar=64";
    class       volScalarField;
    location    "1.4496027068";
    object      alpha.water;
}
// * * * * * * * * * * * * * * * * * * * * * * * * * * * * * * * * * * * * * //

dimensions      [0 0 0 0 0 0 0];

internalField   nonuniform List<scalar> 
90000
(
1
1.00004
1.00004
1.00003
1.00003
1.00003
1.00002
1.00001
1
0.999995
0.999987
0.999981
0.999978
0.999979
0.999984
0.999991
0.999999
1.00001
1.00001
1.00002
1.00001
1.00001
1.00001
1
1.00001
1.00001
1.00002
1.00002
1.00002
1.00003
1.00005
1.00007
1.00006
1.00005
1.00004
1.00003
1.00002
1.00001
0.999993
0.99998
0.99997
0.999964
0.999964
0.999969
0.999979
0.999991
1
1.00001
1.00002
1.00002
1.00001
1.00001
1.00001
1.00001
1.00002
1.00002
1.00003
1.00002
0.999983
0.999845
1.00004
1.00005
1.00004
1.00003
1.00003
1.00002
1.00001
1
0.999995
0.999985
0.999976
0.99997
0.999966
0.999966
0.999968
0.999972
0.999978
0.999983
0.999988
0.999992
0.999994
0.999995
0.999998
1
1.00001
1.00002
1.00004
1.00008
1.00014
0.999996
1.00002
1.00002
1.00002
1.00002
1.00001
1.00001
1.00001
1
0.999998
0.999992
0.999985
0.999978
0.999971
0.999964
0.99996
0.999957
0.999958
0.999962
0.999968
0.999975
0.999983
0.999989
0.999993
0.999998
1
1
1
0.999996
1.00006
1.00002
1.00001
0.999994
0.999994
0.999994
0.999995
0.999998
1
1
1.00001
1
1
0.999995
0.999987
0.999977
0.999968
0.999962
0.999959
0.999961
0.999967
0.999975
0.999983
0.99999
0.999995
0.999998
1
1.00001
1.00002
1.00001
1.00003
1.00001
0.999993
0.999967
0.999971
0.999974
0.999979
0.999986
0.999995
1
1.00001
1.00002
1.00002
1.00002
1.00001
1
0.999993
0.999985
0.99998
0.999978
0.999981
0.999986
0.999992
0.999998
1
1
1.00001
1.00001
1.00001
1.00001
1
0.999994
0.999977
0.999949
0.999955
0.999959
0.999967
0.999977
0.999989
1
1.00001
1.00002
1.00003
1.00003
1.00003
1.00003
1.00002
1.00001
1
0.999997
0.999994
0.999995
0.999997
1
1.00001
1.00001
1.00002
1.00001
1.00001
1
0.999991
0.999988
0.999967
0.999946
0.999952
0.999957
0.999964
0.999973
0.999984
0.999994
1
1.00001
1.00002
1.00003
1.00003
1.00003
1.00003
1.00002
1.00001
1
0.999995
0.999991
0.999992
0.999997
1
1.00001
1.00001
1.00001
1
0.999991
0.999986
0.999992
0.999966
0.999964
0.999968
0.999972
0.999976
0.99998
0.999984
0.999987
0.999991
0.999996
1
1.00001
1.00002
1.00002
1.00002
1.00001
1.00001
0.999995
0.999986
0.999981
0.999981
0.999985
0.999989
0.999992
0.99999
0.999985
0.999979
0.999978
0.999984
0.999994
0.99998
1
1
1
1
0.999999
0.999994
0.999988
0.999984
0.999983
0.999986
0.999992
0.999999
1
1.00001
1
0.999999
0.999991
0.999984
0.99998
0.999978
0.999977
0.999975
0.99997
0.999964
0.99996
0.999962
0.999971
0.999983
0.999989
1.00001
1.00005
1.00005
1.00004
1.00004
1.00002
1.00001
0.999998
0.999987
0.999981
0.999981
0.999984
0.999991
0.999996
1
1
1
1
0.999999
0.999996
0.999992
0.999984
0.999974
0.999964
0.999958
0.999959
0.999968
0.99998
0.999986
0.999988
1.00004
1.00008
1.00007
1.00007
1.00005
1.00004
1.00002
1
0.999992
0.999984
0.999982
0.999983
0.999987
0.999992
0.999997
1
1.00001
1.00002
1.00002
1.00002
1.00001
1
0.999989
0.99998
0.999978
0.999985
0.999994
0.999998
0.999996
0.999994
1.00005
1.00008
1.00007
1.00005
1.00004
1.00002
1.00001
0.999997
0.999989
0.999984
0.999982
0.999981
0.999982
0.999985
0.999991
1
1.00001
1.00002
1.00003
1.00003
1.00002
1.00001
1
1
1
1.00001
1.00001
1
0.999993
0.999989
1.00005
1.00003
1.00002
1.00001
0.999997
0.999989
0.999985
0.999984
0.999984
0.999985
0.999984
0.999981
0.999978
0.999979
0.999985
0.999996
1.00001
1.00002
1.00002
1.00002
1.00002
1.00001
1.00001
1.00001
1.00001
1
0.999993
0.999978
0.999968
0.999965
1.00001
0.999963
0.99996
0.999955
0.999956
0.999961
0.999971
0.999982
0.99999
0.999994
0.999993
0.999988
0.999984
0.999984
0.999989
0.999997
1.00001
1.00001
1.00001
1.00001
1.00001
1.00001
1.00001
1.00001
1
0.999987
0.999969
0.999955
0.99995
0.999958
0.999969
0.999914
0.999922
0.999929
0.999943
0.999961
0.99998
0.999996
1.00001
1.00001
1
0.999999
0.999995
0.999995
0.999999
1
1
1
1
1
1.00001
1.00002
1.00002
1.00002
1
0.999989
0.999978
0.999976
0.999982
1
0.999943
0.999906
0.999923
0.999939
0.999958
0.999978
0.999995
1.00001
1.00001
1.00001
1
1
1
1
1
1
0.999998
0.999994
0.999994
1
1.00001
1.00002
1.00002
1.00002
1.00001
1.00001
1.00001
1.00002
1.00004
1.00005
0.999946
0.999931
0.999948
0.999962
0.999975
0.999987
0.999994
0.999997
0.999996
0.999994
0.999995
1
1.00001
1.00001
1.00001
1
0.999989
0.999983
0.999984
0.999992
1
1.00001
1.00001
1
1
1.00001
1.00002
1.00004
1.00004
1.00003
0.999965
0.99996
0.999968
0.999974
0.999979
0.999982
0.999983
0.999983
0.999984
0.99999
1
1.00001
1.00002
1.00002
1.00001
0.999999
0.999985
0.999979
0.99998
0.999983
0.999984
0.999979
0.999971
0.999967
0.99997
0.99998
0.999989
0.99999
0.999977
0.999944
0.99998
0.999978
0.99998
0.999982
0.999985
0.999987
0.999989
0.999993
1
1.00001
1.00003
1.00004
1.00004
1.00003
1.00001
0.999996
0.999986
0.999984
0.999985
0.999984
0.999976
0.999964
0.999956
0.999956
0.999963
0.99997
0.999968
0.999953
0.999929
0.99993
0.999988
0.999997
1
1
1.00001
1.00001
1.00002
1.00002
1.00003
1.00004
1.00004
1.00004
1.00003
1.00001
0.999995
0.999988
0.999991
0.999998
1
0.999996
0.999985
0.999976
0.999976
0.999984
0.999994
0.999996
0.999988
0.999974
0.999969
1
1
1.00003
1.00003
1.00004
1.00004
1.00004
1.00004
1.00003
1.00003
1.00003
1.00002
1.00001
0.999994
0.999981
0.99998
0.999992
1.00001
1.00002
1.00002
1.00001
1
0.999999
1.00001
1.00002
1.00002
1.00002
1.00001
1.00001
1.00003
1.00003
1.00002
1.00005
1.00005
1.00005
1.00004
1.00004
1.00003
1.00002
1.00002
1.00001
0.999999
0.999985
0.999976
0.999978
0.999993
1.00001
1.00003
1.00003
1.00002
1.00001
1.00001
1.00002
1.00003
1.00003
1.00002
1.00001
1.00001
1.00001
1.00001
0.999989
1.00003
1.00005
1.00004
1.00003
1.00003
1.00002
1.00002
1.00002
1.00002
1.00001
0.999997
0.999987
0.999985
0.999995
1.00001
1.00002
1.00002
1.00001
0.999998
0.999998
1.00001
1.00003
1.00004
1.00003
1.00002
1.00001
1.00001
0.999999
0.999979
0.99998
1.00003
1.00002
1.00001
1.00001
1.00001
1.00001
1.00002
1.00002
1.00002
1.00001
0.999999
0.99999
0.999989
0.999995
1
0.999995
0.999981
0.99997
0.999973
0.999993
1.00002
1.00004
1.00004
1.00003
1.00002
1.00002
1.00001
0.999993
0.999993
1.00002
1.00001
0.999988
0.999989
0.999991
0.999996
1
1.00001
1.00002
1.00001
0.999999
0.999987
0.999983
0.999986
0.999991
0.999987
0.999976
0.999967
0.99997
0.999991
1.00002
1.00004
1.00004
1.00003
1.00002
1.00001
1.00001
0.999992
0.999992
1.00002
0.999997
0.99999
0.999962
0.999965
0.999968
0.999975
0.999985
0.999993
0.999996
0.999992
0.999988
0.99999
0.999998
1.00001
1.00001
1.00001
1
1
1.00002
1.00004
1.00005
1.00004
1.00002
1.00001
1
0.999996
0.999989
0.999983
0.999994
0.999991
0.999952
0.999974
0.99994
0.999945
0.999951
0.999962
0.999975
0.999985
0.99999
0.999994
1
1.00001
1.00003
1.00004
1.00003
1.00003
1.00003
1.00003
1.00004
1.00005
1.00003
1.00001
1
1
1
0.999996
0.999997
1
0.99999
0.999959
0.999983
0.999961
0.999937
0.99995
0.999962
0.999974
0.999983
0.999988
0.999991
0.999995
1.00001
1.00002
1.00002
1.00002
1.00002
1.00001
1.00002
1.00002
1.00003
1.00001
0.999989
0.999979
0.999983
0.999994
0.999998
0.999991
1
1
0.99997
0.999979
1.00002
0.999965
0.999964
0.999976
0.99998
0.999979
0.999976
0.999974
0.999976
0.999986
0.999998
1.00001
1.00001
1.00001
1
1.00001
1.00001
1.00001
1
0.999983
0.999969
0.999971
0.999975
0.999975
0.999979
0.999973
0.999982
0.999982
0.999974
1.00002
0.999993
0.999985
0.999982
0.999978
0.999969
0.999962
0.999962
0.999969
0.999982
0.999997
1.00001
1.00001
1.00001
1.00001
1.00001
1.00001
1.00002
1.00001
0.999998
0.999991
0.99999
0.999991
0.999976
0.999959
0.999972
0.999967
0.999967
0.999985
1.00001
1
0.999978
0.999992
0.999967
0.999961
0.999961
0.99997
0.999983
0.999995
1
1
1
0.999994
0.99999
0.999993
1
1.00001
1.00001
1.00001
1.00001
1.00002
1.00001
0.999999
0.999974
0.999956
0.999983
0.999976
0.999967
1
1
0.999972
0.999998
0.999978
0.999963
0.999976
0.999992
1
1.00001
0.999995
0.999978
0.999964
0.999957
0.999959
0.999971
0.999991
1.00001
1.00001
1.00001
1.00001
1.00001
1.00001
0.999983
0.999967
0.999963
0.999955
0.999982
0.999975
0.999973
0.999997
0.999977
0.999986
1
0.99998
0.999997
1.00001
1.00001
1
0.999979
0.999956
0.999941
0.999941
0.999952
0.999975
0.999998
1.00001
1.00002
1.00001
0.999996
0.999983
0.999977
0.999964
0.999937
0.99994
0.999976
0.999961
0.999966
0.999975
0.999986
0.999987
0.999983
0.999998
0.999988
1
1.00002
1.00001
0.999995
0.999978
0.999964
0.999957
0.999959
0.999968
0.999983
1
1.00001
1.00001
1
0.999986
0.999987
0.999978
0.999971
0.999968
0.999962
0.999977
1.00002
0.999977
0.999968
0.999996
1
0.999994
0.999998
0.999988
0.999997
1.00001
1.00001
0.999997
0.999994
0.999991
0.999985
0.999977
0.999973
0.999975
0.999982
0.99999
0.999995
0.999988
0.999989
0.999983
1.00001
1.00001
0.999996
1
1.00001
1.00001
1.00003
0.99999
0.999995
1.00002
1.00001
1.00001
0.999997
1.00001
1.00002
1
1.00001
1.00001
1.00001
0.999992
0.999974
0.999966
0.999969
0.999978
0.999982
0.99998
0.999979
0.999974
1
0.999998
1.00002
1.00001
0.999992
1.00001
1.00002
0.999997
1.00001
1
1.00002
1.00002
1
1.00001
1.00001
1.00004
1.00002
1.00001
1.00002
1.00001
0.999986
0.999973
0.999977
0.999989
0.999995
0.999993
0.999979
0.99997
0.999985
0.99998
1.00002
1.00002
1
1
0.999992
1.00001
1.00003
0.999986
0.999994
1.00002
1.00001
0.999997
0.99999
1.00001
1
1
1
1.00001
0.999996
0.999981
0.999984
1
1.00002
1.00001
0.999995
0.999981
0.99998
0.999984
1.00002
0.999994
1.00001
1.00001
0.999985
1
1.00001
1.00001
1
0.999973
0.999982
1.00002
0.999985
0.99998
0.999994
0.999993
0.999986
1.00001
1.00005
0.999995
0.99998
0.999995
1.00001
1.00002
1.00001
0.999992
0.99998
0.999989
1.00001
0.99999
1.00001
0.999991
0.999972
1.00002
0.999992
0.999992
0.999987
0.999979
0.999971
0.999988
0.999992
1
0.999982
0.999974
1
0.999991
1.00001
1.00005
1.00006
0.999989
0.999999
1.00001
1.00001
1
0.999986
0.999983
0.999992
0.999996
1.00001
0.999983
0.999971
1.00002
0.999967
1
0.999991
0.999976
0.999984
1
0.999991
1
0.999993
0.999976
1
0.999981
1.00001
1.00001
1.00003
1.00002
0.999999
0.999999
1
1.00001
1
0.999987
0.999979
0.999996
1.00001
0.999986
0.999986
1.00001
0.999993
1.00003
0.999992
0.999962
1.00001
1.00001
0.999991
1
0.999992
0.999995
1.00002
1
1.00001
0.999984
0.999992
1.00003
1.00004
0.999984
0.999939
1
1.00001
1
0.999993
0.999998
0.999997
0.999993
0.999995
1.00001
1.00003
0.999994
1
0.999983
1.00002
0.99997
0.999993
1
0.999979
0.999997
1.00003
1.00001
1
0.999981
0.999964
1.00002
1.00001
0.999986
0.999978
1.00004
0.999953
1.00001
1.00001
0.999988
0.999998
1.00001
0.999998
0.999991
1.00001
0.999987
1.00001
0.99995
1.00002
0.999991
0.999998
0.999985
0.999973
0.999999
1.00002
0.999989
0.999979
0.999993
0.999997
1
0.999964
1
1.00003
0.999987
0.999989
1.00002
0.99995
1
1.00001
1.00002
0.99999
0.999969
1.00002
1.00001
0.999996
0.999986
1.00005
0.999994
0.999968
1.00004
0.999969
0.999985
1.00001
0.999994
1.00001
1.00002
0.99999
0.999995
0.999998
1
1.00004
0.99996
0.999963
1.00001
1.00007
0.999979
0.999844
0.999983
1.00001
1.00001
0.999992
0.999966
1
0.999998
1.00003
0.999959
0.99997
1.00005
0.999972
0.99998
1.00001
0.999973
0.999982
1.00003
0.999966
0.999982
1.00001
0.999993
0.999981
0.99998
0.999994
0.999985
1.00001
1.00001
0.999981
1.00007
0.999923
0.999985
0.99999
0.999971
1.00001
0.999976
1
0.999974
1.00001
0.999988
1.00001
0.999932
1.00003
1.00001
0.999945
0.999998
0.999991
0.999965
0.999996
1.00003
0.999981
0.999997
1.00001
1
0.999993
1.00001
0.999952
0.999986
1
1.00003
1.00006
0.999989
0.999989
0.999961
1
0.999998
1
0.999999
1
0.999993
1.00001
0.999989
1
1
1
1
1
0.999997
1
1
1
1
0.999999
0.999983
0.999999
1
1.00002
1
0.999972
0.999996
1
0.99995
0.999994
1
1
1
1
1
1
1
1
0.999994
0.999995
1
0.999993
1
0.999997
0.999999
0.999998
1
1
1
0.999999
0.999998
0.999999
1
1
1
1
0.999997
0.999962
0.812351
0.75365
0.790629
0.795261
0.813661
0.77519
0.779783
0.805994
0.794184
0.819307
0.820019
0.83037
0.773281
0.843107
0.791138
0.840143
0.778225
0.823808
0.787944
0.824493
0.813156
0.790861
0.806167
0.802403
0.768366
0.798071
0.78853
0.792544
0.751568
0.812872
0.177724
0.120979
0.129967
0.111513
0.140737
0.111958
0.131411
0.123279
0.10591
0.13825
0.152839
0.139081
0.131446
0.153336
0.143319
0.156378
0.130431
0.127496
0.134097
0.127093
0.134225
0.11093
0.122517
0.145782
0.111653
0.129643
0.111246
0.134595
0.120794
0.177235
8.13314e-05
0.00147697
0.000240653
0.000653221
0.000975131
0.000849938
0.00107035
0.000359334
0.00286867
0.00195164
0.00206405
0.00157644
0.000926454
0.00103401
0.00039456
0.00255447
0.000529199
0.000236368
0.000672066
0.00481801
0.00209157
0.00285156
8.64704e-05
0.000318822
0.000749199
0.000783286
0.000636641
0.000240196
0.00207574
8.60318e-05
3.79019e-07
0.000147128
0.000110145
3.26195e-05
0.000880345
0.0001018
0.000558769
2.80285e-05
0.000711202
0.00289134
0.000421792
0.00214828
0.00020217
0.0012492
0.000165024
0.00187099
0.000299588
0.000460383
0.000199824
0.000159819
0.00308653
0.000432356
8.64708e-05
0.000548539
0.00049749
0.000664621
3.01585e-05
4.41711e-05
1.1465e-05
7.90771e-07
1.39046e-07
7.75665e-07
1.27008e-05
6.96829e-06
4.2686e-05
5.53307e-06
3.9604e-06
2.71633e-05
2.25328e-05
2.72722e-05
7.63111e-05
5.00437e-06
1.0546e-05
6.62938e-06
1.05861e-05
2.88611e-06
7.08741e-06
5.19146e-06
1.23472e-05
7.78709e-06
2.56009e-06
0.000126277
0.000105565
2.67628e-06
-4.27595e-23
7.2989e-06
2.08179e-06
3.40553e-06
1.56323e-06
1.44049e-07
1.22126e-07
8.97743e-07
1.06488e-06
3.73413e-07
6.828e-08
2.16994e-08
1.97478e-07
5.38276e-06
1.49743e-05
2.57572e-06
9.39416e-06
7.77919e-06
8.95172e-06
6.21722e-06
1.35362e-06
2.43782e-06
6.26585e-06
4.9805e-06
7.59665e-06
4.02144e-06
2.06905e-06
2.81715e-05
1.21043e-05
1.47149e-07
-1.06291e-07
6.10786e-25
2.66638e-07
3.78681e-07
6.56596e-07
1.0935e-07
1.03405e-07
2.23727e-07
1.6069e-07
8.6626e-08
5.29215e-09
6.80182e-10
2.82454e-08
8.59829e-07
1.83729e-06
1.13927e-07
3.69947e-07
2.15495e-06
5.8875e-06
4.40714e-06
2.61246e-06
1.81361e-06
5.12983e-06
4.31805e-06
4.07251e-06
1.22714e-06
2.50598e-07
2.74615e-06
9.79341e-07
3.74051e-08
-2.49651e-27
9.18216e-09
9.33717e-08
2.62544e-07
8.94359e-08
1.08854e-07
1.83731e-09
1.7546e-09
2.91783e-08
1.30463e-07
9.15766e-08
4.45078e-10
3.75428e-10
1.83244e-10
6.23802e-09
1.2074e-08
1.04787e-07
5.22665e-07
9.42539e-07
1.85577e-06
3.81901e-06
3.64819e-06
1.89417e-06
4.73363e-07
2.24295e-07
1.1093e-07
3.55134e-08
1.53904e-08
1.67742e-09
6.54e-10
1.73516e-10
1.43199e-07
1.86873e-07
3.92365e-08
3.48722e-09
1.67245e-09
5.21229e-10
1.7241e-09
2.48138e-10
2.58477e-08
2.62008e-08
2.11941e-09
1.31204e-10
2.41008e-11
2.36068e-10
1.75585e-09
4.39822e-09
4.09356e-09
2.49162e-09
1.55928e-07
2.8019e-06
3.00638e-06
1.82341e-07
1.53854e-09
7.76789e-10
2.21533e-10
3.06364e-09
3.18353e-10
3.95041e-11
9.51714e-11
2.24195e-09
3.24126e-08
3.71567e-08
1.9098e-10
1.19189e-09
4.67294e-10
3.31297e-10
6.72311e-10
1.54003e-10
4.90838e-11
4.10963e-11
3.2636e-10
8.91735e-11
1.86204e-11
2.06799e-11
1.37939e-10
2.1613e-10
7.79442e-10
5.3476e-10
1.24001e-09
1.18433e-07
2.86919e-07
3.64655e-09
2.90788e-10
2.08351e-10
5.42411e-11
1.90138e-10
2.71209e-11
1.46693e-11
7.74388e-11
2.9525e-10
2.56651e-11
4.1991e-11
1.44946e-10
5.83113e-10
3.26561e-10
1.76615e-10
2.49065e-10
1.03352e-10
4.53701e-11
3.836e-11
3.85168e-11
2.29113e-11
8.79212e-12
4.38974e-12
1.2276e-11
2.18372e-11
7.8451e-11
1.12264e-10
2.06049e-10
3.37672e-10
4.95039e-10
2.93069e-10
7.14472e-11
3.20382e-11
1.18775e-11
1.53721e-11
2.92509e-12
8.28205e-12
2.03952e-11
3.27585e-11
2.26145e-11
4.41413e-11
1.03492e-10
2.45447e-10
1.7863e-10
3.65578e-11
6.29935e-11
3.31289e-11
1.54745e-11
1.20437e-11
4.98378e-12
2.49406e-12
1.40739e-12
1.05691e-12
1.51864e-12
3.3904e-12
8.70576e-12
1.39953e-11
3.16186e-11
5.45858e-11
5.14867e-11
3.52918e-11
1.4568e-11
5.87548e-12
3.22996e-12
1.5135e-12
1.08854e-12
1.35973e-12
2.17728e-12
4.35014e-12
1.10189e-11
1.56778e-11
3.26193e-11
6.35104e-11
3.65954e-11
3.70401e-12
8.34989e-12
5.16165e-12
2.05005e-12
1.34978e-12
5.49171e-13
2.43028e-13
1.7244e-13
2.11279e-13
4.31972e-13
1.00118e-12
2.41624e-12
4.92556e-12
6.5711e-12
1.0829e-11
1.14666e-11
7.16469e-12
4.78557e-12
2.28538e-12
9.82908e-13
4.39842e-13
2.208e-13
1.67822e-13
2.20502e-13
4.88471e-13
1.34759e-12
1.9271e-12
5.11209e-12
8.45501e-12
3.70481e-12
2.75204e-13
6.1462e-13
4.86729e-13
2.05857e-13
8.42942e-14
3.2301e-14
1.35135e-14
1.08526e-14
1.71714e-14
4.32242e-14
1.13038e-13
3.01928e-13
6.80489e-13
1.11146e-12
1.92179e-12
1.84744e-12
1.13366e-12
6.65867e-13
3.09251e-13
1.13517e-13
4.4358e-14
1.7314e-14
1.07247e-14
1.25215e-14
2.87669e-14
7.95581e-14
2.01616e-13
4.89126e-13
6.19018e-13
2.76334e-13
1.33454e-14
3.40291e-14
2.4613e-14
9.90295e-15
2.88138e-15
8.87317e-16
3.53166e-16
3.07339e-16
5.37931e-16
1.43169e-15
4.46805e-15
1.4374e-14
3.60098e-14
7.89965e-14
1.43644e-13
1.47142e-13
7.99197e-14
3.63132e-14
1.4536e-14
4.56995e-15
1.46713e-15
5.45294e-16
3.04809e-16
3.25772e-16
7.86613e-16
2.68471e-15
9.98597e-15
2.50006e-14
3.46339e-14
1.33917e-14
3.44478e-16
1.10287e-15
6.33042e-16
2.20819e-16
6.16161e-17
1.76731e-17
7.34321e-18
7.48202e-18
1.37667e-17
3.68312e-17
1.18534e-16
4.00991e-16
1.11491e-15
2.63343e-15
4.76257e-15
4.94959e-15
2.66083e-15
1.12693e-15
4.05583e-16
1.2128e-16
3.78021e-17
1.40807e-17
7.3822e-18
6.68654e-18
1.54547e-17
5.73399e-17
2.21852e-16
6.4205e-16
1.12448e-15
3.47618e-16
6.1531e-18
2.16666e-17
1.17594e-17
3.94356e-18
1.12677e-18
3.28067e-19
1.51187e-19
1.8546e-19
3.64504e-19
9.61971e-19
2.95256e-18
9.5396e-18
2.62549e-17
6.00557e-17
1.05648e-16
1.08469e-16
6.05928e-17
2.64103e-17
9.65276e-18
3.03243e-18
9.89084e-19
3.73039e-19
1.83853e-19
1.38018e-19
2.83967e-19
1.05297e-18
3.96152e-18
1.19108e-17
2.21011e-17
6.1948e-18
9.39035e-20
3.53146e-19
1.93736e-19
6.52296e-20
1.84735e-20
5.41427e-21
2.84305e-21
4.13052e-21
8.49603e-21
2.18478e-20
6.44953e-20
1.98819e-19
5.23985e-19
1.15835e-18
1.97091e-18
2.00484e-18
1.16798e-18
5.303e-19
2.02399e-19
6.63059e-20
2.2553e-20
8.75369e-21
4.16741e-21
2.64079e-21
4.64833e-21
1.72115e-20
6.58299e-20
1.97859e-19
3.61336e-19
9.50378e-20
1.21963e-21
5.02731e-21
2.8037e-21
9.33711e-22
2.60256e-22
7.64468e-23
4.80764e-23
8.09774e-23
1.68179e-22
4.14901e-22
1.16559e-21
3.41486e-21
8.72058e-21
1.87884e-20
3.07446e-20
3.10108e-20
1.89006e-20
8.85784e-21
3.49567e-21
1.19805e-21
4.27581e-22
1.73279e-22
8.22968e-23
4.59653e-23
6.60523e-23
2.40698e-22
9.41597e-22
2.83885e-21
5.17054e-21
1.25077e-21
1.36914e-23
6.04135e-23
3.42909e-23
1.14621e-23
3.09821e-24
9.38843e-25
7.45446e-25
1.38049e-24
2.8014e-24
6.51478e-24
1.7221e-23
4.796e-23
1.17237e-22
2.41381e-22
3.81769e-22
3.85746e-22
2.43805e-22
1.18089e-22
4.87766e-23
1.78179e-23
6.76407e-24
2.89989e-24
1.40952e-24
7.30924e-25
8.14632e-25
2.85134e-24
1.14097e-23
3.45745e-23
6.25806e-23
1.38785e-23
1.30501e-25
6.28978e-25
3.56647e-25
1.19355e-25
3.16802e-26
1.02709e-26
1.0423e-26
1.99153e-26
3.85535e-26
8.39651e-26
2.08211e-25
5.42625e-25
1.24296e-24
2.44822e-24
3.81461e-24
3.87453e-24
2.51369e-24
1.26526e-24
5.53092e-25
2.16431e-25
8.79208e-26
4.03959e-26
2.06267e-26
1.03741e-26
8.93219e-27
2.89464e-26
1.18058e-25
3.57549e-25
6.36604e-25
1.30613e-25
1.09684e-27
5.47792e-27
3.17683e-27
1.0463e-27
2.79117e-28
1.00009e-28
1.25684e-28
2.41153e-28
4.44541e-28
8.97605e-28
2.02952e-27
4.77206e-27
1.01733e-26
1.93061e-26
2.93071e-26
2.93394e-26
1.95665e-26
1.05087e-26
4.98794e-27
2.12967e-27
9.41763e-28
4.70646e-28
2.56409e-28
1.29313e-28
8.88082e-29
2.51706e-28
1.03407e-27
3.12558e-27
5.4741e-27
1.06076e-27
8.10594e-30
4.07454e-29
2.43823e-29
8.11208e-30
2.11945e-30
8.70616e-31
1.30038e-30
2.47702e-30
4.25702e-30
7.74711e-30
1.5655e-29
3.33645e-29
6.69683e-29
1.20619e-28
1.74724e-28
1.75183e-28
1.23983e-28
7.18618e-29
3.6561e-29
1.69212e-29
8.24383e-30
4.5512e-30
2.6695e-30
1.38085e-30
7.96047e-31
1.85243e-30
7.62072e-30
2.32472e-29
4.04445e-29
7.5982e-30
5.45207e-32
2.7777e-31
1.6772e-31
5.57688e-32
1.4416e-32
7.04842e-33
1.19584e-32
2.14521e-32
3.28797e-32
5.2945e-32
9.65489e-32
1.89131e-31
3.48457e-31
5.75626e-31
7.97367e-31
8.17724e-31
6.0767e-31
3.70882e-31
2.04001e-31
1.06661e-31
5.91709e-32
3.62479e-32
2.28929e-32
1.23659e-32
6.45643e-33
1.1781e-32
4.82651e-32
1.50624e-31
2.60759e-31
4.8499e-32
3.32196e-34
1.65957e-33
1.0204e-33
3.26862e-34
8.67442e-35
5.09238e-35
9.0901e-35
1.50135e-34
2.09218e-34
3.0843e-34
5.08507e-34
8.64548e-34
1.36538e-33
2.04284e-33
2.78595e-33
2.95391e-33
2.3066e-33
1.5238e-33
9.49096e-34
5.67932e-34
3.51407e-34
2.35626e-34
1.62395e-34
9.4923e-35
4.79258e-35
6.66694e-35
2.67999e-34
8.53614e-34
1.45513e-33
2.7305e-34
1.79573e-36
8.58783e-36
5.29668e-36
1.68466e-36
4.42654e-37
3.10805e-37
5.67623e-37
8.91401e-37
1.16551e-36
1.56226e-36
2.20307e-36
3.13609e-36
4.43549e-36
6.44359e-36
8.61043e-36
8.81017e-36
6.97268e-36
5.07447e-36
3.63929e-36
2.47274e-36
1.70616e-36
1.27952e-36
9.87989e-37
6.33378e-37
3.17255e-37
3.37972e-37
1.28384e-36
4.1317e-36
6.92395e-36
1.34702e-36
8.77773e-39
4.05884e-38
2.43326e-38
7.5648e-39
1.97178e-39
1.72387e-39
3.25759e-39
4.77652e-39
5.561e-39
6.26048e-39
7.25757e-39
9.15453e-39
1.23669e-38
1.65509e-38
1.91414e-38
1.79756e-38
1.54809e-38
1.36296e-38
1.15942e-38
8.8818e-39
6.85411e-39
5.8283e-39
5.07984e-39
3.56059e-39
1.80255e-39
1.51534e-39
5.22951e-39
1.71127e-38
2.87402e-38
5.90446e-39
3.78841e-41
1.68489e-40
1.01051e-40
2.89114e-41
8.18592e-42
8.5741e-42
1.55381e-41
2.03839e-41
2.06183e-41
2.00242e-41
2.1135e-41
2.54481e-41
3.03707e-41
3.27873e-41
3.23528e-41
3.16265e-41
3.23035e-41
3.25166e-41
2.97684e-41
2.48685e-41
2.21992e-41
2.22636e-41
2.23789e-41
1.71895e-41
8.89401e-42
6.12434e-42
1.87332e-41
6.31665e-41
1.07889e-40
2.30758e-41
1.4515e-43
6.21479e-43
3.59325e-43
1.00455e-43
3.11315e-44
3.50094e-44
5.86474e-44
7.09701e-44
6.44198e-44
5.77089e-44
5.72825e-44
5.97529e-44
5.46976e-44
4.75395e-44
4.58775e-44
5.0425e-44
5.46823e-44
5.53899e-44
5.46051e-44
5.53913e-44
6.24628e-44
7.45808e-44
8.47977e-44
6.90188e-44
3.67998e-44
2.248e-44
6.06125e-44
2.10231e-43
3.60253e-43
7.83021e-44
4.66685e-46
2.03081e-45
1.08162e-45
3.21838e-46
9.87405e-47
1.16437e-46
1.95356e-46
2.18877e-46
1.82872e-46
1.44426e-46
1.21388e-46
9.81236e-47
7.22313e-47
5.78665e-47
5.86211e-47
6.39886e-47
6.49463e-47
6.75166e-47
8.1388e-47
1.07469e-46
1.47774e-46
2.00348e-46
2.39089e-46
2.14565e-46
1.25594e-46
7.4565e-47
1.73694e-46
6.03934e-46
1.03322e-45
2.30741e-46
1.39799e-48
5.55503e-48
3.18996e-48
9.15842e-49
2.60319e-49
3.2306e-49
5.23624e-49
5.04085e-49
3.86618e-49
2.57863e-49
1.8395e-49
1.31435e-49
9.32114e-50
7.38612e-50
6.67906e-50
5.95372e-50
5.5916e-50
6.82699e-50
1.06807e-49
1.73176e-49
2.69284e-49
4.10304e-49
5.27634e-49
5.68609e-49
3.82696e-49
2.24772e-49
4.34839e-49
1.4963e-48
2.62854e-48
6.18343e-49
3.83226e-51
1.41047e-50
9.03947e-51
2.18686e-51
6.20383e-52
7.47952e-52
1.05278e-51
9.2624e-52
6.19642e-52
3.69607e-52
2.47495e-52
1.75358e-52
1.19648e-52
7.93479e-53
5.4681e-53
4.24414e-53
4.62523e-53
7.52864e-53
1.43179e-52
2.5622e-52
4.24976e-52
7.09381e-52
1.07936e-51
1.29289e-51
9.75933e-52
5.62601e-52
9.68335e-52
3.39619e-51
6.34064e-51
1.56325e-51
8.56038e-54
3.88763e-53
2.07965e-53
4.63625e-54
1.28779e-54
1.36367e-54
1.81953e-54
1.58165e-54
9.75777e-55
5.51419e-55
3.61132e-55
2.39311e-55
1.36713e-55
7.28243e-56
4.53007e-56
3.98231e-56
5.35137e-56
9.60593e-56
1.82537e-55
3.2279e-55
5.56686e-55
1.02945e-54
1.81818e-54
2.32531e-54
1.87681e-54
1.09202e-54
1.92999e-54
7.2385e-54
1.45312e-53
3.65188e-54
2.02998e-56
8.99154e-56
4.14706e-56
9.9813e-57
2.3081e-57
2.16239e-57
2.84192e-57
2.36301e-57
1.32677e-57
7.2492e-58
4.50088e-58
2.60163e-58
1.27836e-58
6.61492e-59
4.64536e-59
4.65648e-59
6.16777e-59
9.95491e-59
1.80246e-58
3.34914e-58
6.55753e-58
1.40118e-57
2.78283e-57
3.64031e-57
2.9922e-57
1.7722e-57
3.40982e-57
1.39573e-56
3.00573e-56
7.56172e-57
4.34671e-59
1.54284e-58
8.26613e-59
1.88781e-59
3.84454e-60
3.93185e-60
4.45467e-60
3.34104e-60
1.70325e-60
8.87373e-61
4.94043e-61
2.53042e-61
1.21019e-61
6.98241e-62
5.4648e-62
5.36912e-62
6.45597e-62
9.86523e-62
1.95059e-61
4.25809e-61
9.54924e-61
2.17384e-60
4.30288e-60
5.34071e-60
4.22669e-60
2.53278e-60
5.25803e-60
2.3479e-59
5.3459e-59
1.33906e-59
6.30042e-62
2.46618e-61
1.4041e-61
2.5341e-62
5.94769e-63
6.80635e-63
6.56331e-63
4.83283e-63
2.40935e-63
1.19151e-63
5.95537e-64
2.82233e-64
1.36313e-64
8.18268e-65
6.14063e-65
5.52852e-65
6.5696e-65
1.10898e-64
2.53906e-64
6.10797e-64
1.37714e-63
2.94559e-63
5.52766e-63
6.5151e-63
5.31946e-63
3.3791e-63
7.06091e-63
3.32486e-62
7.8996e-62
1.96078e-62
8.54426e-65
4.42758e-64
1.92539e-64
2.93732e-65
8.35834e-66
8.51112e-66
7.8462e-66
6.08893e-66
3.04483e-66
1.39662e-66
6.31496e-67
2.77921e-67
1.26679e-67
6.9182e-68
4.62863e-68
4.076e-68
5.45317e-68
1.09507e-67
2.78504e-67
6.71445e-67
1.43274e-66
2.96999e-66
5.94097e-66
7.49931e-66
7.20663e-66
4.82363e-66
8.63617e-66
3.94762e-65
9.46879e-65
2.36879e-65
1.48774e-67
8.36149e-67
1.84212e-67
3.54003e-68
1.00083e-68
9.704e-69
9.16129e-69
6.99093e-69
3.23736e-69
1.3066e-69
5.25911e-70
2.1286e-70
8.89629e-71
4.37176e-71
2.82168e-71
2.79412e-71
4.51812e-71
1.03249e-70
2.66139e-70
6.1469e-70
1.2991e-69
2.90545e-69
6.74673e-69
9.89523e-69
1.0477e-68
6.84187e-69
9.76935e-69
4.31333e-68
1.05117e-67
2.49918e-68
2.19296e-70
6.44149e-70
1.8881e-70
4.20657e-71
1.24591e-71
1.16885e-71
1.0886e-71
7.46411e-72
3.06571e-72
1.08501e-72
4.0792e-73
1.65325e-73
6.98187e-74
3.52672e-74
2.48696e-74
2.77345e-74
4.73587e-74
1.03746e-73
2.44643e-73
5.35912e-73
1.18039e-72
2.93701e-72
7.53133e-72
1.17194e-71
1.21176e-71
7.57586e-72
1.06237e-71
4.44425e-71
1.06281e-70
2.51887e-71
1.66988e-73
6.09138e-73
2.82951e-73
6.51372e-74
1.43563e-74
1.22079e-74
1.10797e-74
7.06692e-75
2.7144e-75
9.23133e-76
3.62812e-76
1.59591e-76
7.17805e-77
3.80175e-77
2.76227e-77
2.96611e-77
4.5137e-77
8.48312e-77
1.80924e-76
4.00376e-76
9.63533e-76
2.62122e-75
6.89399e-75
1.02469e-74
1.00225e-74
6.40684e-75
9.79845e-75
3.94376e-74
9.55746e-74
2.58518e-74
2.11797e-76
1.0429e-75
5.0353e-76
7.87236e-77
1.51872e-77
1.22773e-77
1.17554e-77
7.70265e-78
2.98819e-78
1.05821e-78
4.4139e-79
1.97924e-79
8.63537e-80
4.33916e-80
2.90763e-80
2.74164e-80
3.58378e-80
6.06805e-80
1.29885e-79
3.17417e-79
8.44912e-79
2.38142e-78
5.99831e-78
8.25013e-78
7.83811e-78
5.47199e-78
8.52156e-78
3.53744e-77
9.23938e-77
2.62614e-77
3.19209e-79
1.30539e-78
5.25017e-79
8.22803e-80
1.66632e-80
1.47575e-80
1.52059e-80
1.01695e-80
3.98655e-81
1.42575e-81
5.76898e-82
2.38428e-82
9.4412e-83
4.39688e-83
2.78074e-83
2.46973e-83
3.12335e-83
5.41719e-83
1.25512e-82
3.33269e-82
9.06014e-82
2.42885e-81
5.61879e-81
7.42594e-81
7.07227e-81
5.27388e-81
8.16712e-81
3.38531e-80
8.58643e-80
2.32137e-80
3.13666e-82
1.25142e-81
6.04181e-82
1.03692e-82
2.34623e-83
2.23558e-83
2.15743e-83
1.23941e-83
4.36602e-84
1.3752e-84
4.82214e-85
1.7354e-85
6.41906e-86
3.07054e-86
2.09526e-86
2.01995e-86
2.75055e-86
5.10616e-86
1.23509e-85
3.2955e-85
8.64546e-85
2.20847e-84
5.01414e-84
6.96172e-84
7.00637e-84
5.41321e-84
7.80963e-84
3.15535e-83
7.80776e-83
1.81841e-83
4.86252e-85
2.75483e-84
1.28947e-84
2.16496e-85
4.98406e-86
4.12919e-86
3.1651e-86
1.30441e-86
3.39192e-87
8.09645e-88
2.2547e-88
7.09424e-89
2.6698e-89
1.46641e-89
1.16434e-89
1.2592e-89
1.82992e-89
3.51316e-89
8.57468e-89
2.28497e-88
6.13078e-88
1.68367e-87
4.31715e-87
7.15874e-87
8.09649e-87
6.36534e-87
8.38727e-87
3.06536e-86
6.85288e-86
1.61738e-86
1.17698e-87
5.93455e-87
2.29276e-87
4.26765e-88
9.40155e-89
6.35032e-89
3.84948e-89
1.17263e-89
2.4597e-90
5.18905e-91
1.35986e-91
4.4144e-92
1.70815e-92
9.27088e-93
7.16843e-93
7.63519e-93
1.09079e-92
2.13548e-92
5.42333e-92
1.53711e-91
4.6216e-91
1.48744e-90
4.52893e-90
8.93998e-90
1.10371e-89
8.6342e-90
1.05003e-89
3.50841e-89
7.45374e-89
1.85015e-89
1.81358e-90
5.86379e-90
2.47094e-90
5.57183e-91
1.20227e-91
6.10341e-92
3.33861e-92
1.08528e-92
2.72378e-93
6.66899e-94
1.90972e-94
6.23935e-95
2.18997e-95
1.00697e-95
6.59452e-96
6.48463e-96
9.08574e-96
1.84696e-95
4.92182e-95
1.46253e-94
4.6526e-94
1.60423e-93
5.24625e-93
1.11085e-92
1.40419e-92
1.07744e-92
1.27741e-92
4.14867e-92
9.01411e-92
2.24712e-92
9.02894e-94
1.77428e-93
1.43753e-93
4.4845e-94
8.40722e-95
4.16874e-95
2.97839e-95
1.4183e-95
4.81887e-96
1.35303e-96
3.85609e-97
1.13443e-97
3.33418e-98
1.27161e-98
7.33027e-99
6.82433e-99
9.39508e-99
1.89866e-98
5.05688e-98
1.50105e-97
4.76407e-97
1.62165e-96
5.20947e-96
1.09761e-95
1.38408e-95
1.08172e-95
1.38596e-95
4.82383e-95
1.00129e-94
2.4334e-95
4.16402e-97
1.44319e-96
1.27575e-96
3.36453e-97
5.90571e-98
4.1747e-98
3.99665e-98
2.54844e-98
1.01192e-98
2.79652e-99
7.13885e-100
1.81582e-100
4.6241e-101
1.5901e-101
8.70358e-102
7.82322e-102
1.04815e-101
2.0703e-101
5.42245e-101
1.57433e-100
4.81599e-100
1.55319e-99
4.64744e-99
9.2619e-99
1.15171e-98
9.49716e-99
1.22118e-98
4.14098e-98
9.12713e-98
2.33869e-98
8.06524e-100
3.87817e-99
2.1756e-99
3.45718e-100
7.5717e-101
6.44416e-101
6.83968e-101
4.69857e-101
1.77421e-101
4.46972e-102
1.04296e-102
2.50399e-103
6.26786e-104
2.16833e-104
1.19317e-104
1.07168e-104
1.43025e-104
2.80697e-104
7.25424e-104
2.04179e-103
5.8916e-103
1.74264e-102
4.68552e-102
8.38638e-102
9.99126e-102
8.41917e-102
1.10347e-101
3.36695e-101
6.78864e-101
1.99242e-101
1.97226e-102
7.70617e-102
3.70151e-102
5.45867e-103
1.08222e-103
8.85491e-104
9.86067e-104
6.19542e-104
2.15482e-104
5.37762e-105
1.34225e-105
3.60323e-106
9.86848e-107
3.58158e-107
2.0126e-107
1.82013e-107
2.38903e-107
4.52513e-107
1.13721e-106
3.03272e-106
8.08787e-106
2.14181e-105
5.04787e-105
7.82496e-105
8.26309e-105
6.72384e-105