/*--------------------------------*- C++ -*----------------------------------*\
| =========                 |                                                 |
| \\      /  F ield         | OpenFOAM: The Open Source CFD Toolbox           |
|  \\    /   O peration     | Version:  2312                                  |
|   \\  /    A nd           | Website:  www.openfoam.com                      |
|    \\/     M anipulation  |                                                 |
\*---------------------------------------------------------------------------*/
FoamFile
{
    version     2.0;
    format      ascii;
    arch        "LSB;label=32;scalar=64";
    class       volScalarField;
    location    "1.4496027068";
    object      epsilon;
}
// * * * * * * * * * * * * * * * * * * * * * * * * * * * * * * * * * * * * * //

dimensions      [0 2 -3 0 0 0 0];

internalField   nonuniform List<scalar> 
90000
(
7.45353e-06
7.4563e-06
7.45695e-06
7.45715e-06
7.45748e-06
7.45761e-06
7.45768e-06
7.4577e-06
7.4576e-06
7.45728e-06
7.45677e-06
7.45614e-06
7.45559e-06
7.4555e-06
7.45583e-06
7.45607e-06
7.45617e-06
7.45641e-06
7.45685e-06
7.45695e-06
7.45636e-06
7.45588e-06
7.45719e-06
7.45965e-06
7.46173e-06
7.46252e-06
7.46148e-06
7.46043e-06
7.4652e-06
7.47401e-06
7.45808e-06
7.51849e-06
7.52427e-06
7.52439e-06
7.52421e-06
7.52417e-06
7.52429e-06
7.52444e-06
7.5245e-06
7.52448e-06
7.52458e-06
7.52485e-06
7.52513e-06
7.52527e-06
7.52524e-06
7.52502e-06
7.52477e-06
7.52464e-06
7.52453e-06
7.5244e-06
7.52472e-06
7.52537e-06
7.52603e-06
7.52622e-06
7.52577e-06
7.52532e-06
7.52672e-06
7.53101e-06
7.5285e-06
7.48691e-06
7.45796e-06
7.52492e-06
7.53175e-06
7.53209e-06
7.53211e-06
7.53222e-06
7.53242e-06
7.53249e-06
7.53231e-06
7.53197e-06
7.53204e-06
7.53263e-06
7.53349e-06
7.53407e-06
7.53406e-06
7.53338e-06
7.53222e-06
7.53129e-06
7.5321e-06
7.5333e-06
7.53405e-06
7.5341e-06
7.53361e-06
7.53298e-06
7.53342e-06
7.53473e-06
7.53588e-06
7.54018e-06
7.54578e-06
7.48195e-06
7.45724e-06
7.52489e-06
7.53245e-06
7.53308e-06
7.53335e-06
7.53363e-06
7.5339e-06
7.53404e-06
7.53391e-06
7.53346e-06
7.53304e-06
7.53321e-06
7.53366e-06
7.53407e-06
7.53398e-06
7.5333e-06
7.5324e-06
7.5325e-06
7.53376e-06
7.53466e-06
7.53472e-06
7.53409e-06
7.53412e-06
7.53586e-06
7.53748e-06
7.53881e-06
7.54082e-06
7.54103e-06
7.54373e-06
7.4702e-06
7.457e-06
7.52469e-06
7.53242e-06
7.53312e-06
7.53341e-06
7.53361e-06
7.53378e-06
7.53394e-06
7.53406e-06
7.53398e-06
7.53372e-06
7.53333e-06
7.53286e-06
7.53235e-06
7.53225e-06
7.53289e-06
7.53373e-06
7.53435e-06
7.53449e-06
7.53409e-06
7.53342e-06
7.53375e-06
7.53543e-06
7.53721e-06
7.53829e-06
7.53824e-06
7.53764e-06
7.53833e-06
7.53353e-06
7.46376e-06
7.45719e-06
7.52483e-06
7.53217e-06
7.53273e-06
7.53286e-06
7.53286e-06
7.53289e-06
7.53308e-06
7.53339e-06
7.53375e-06
7.53403e-06
7.53418e-06
7.5341e-06
7.5336e-06
7.53303e-06
7.53335e-06
7.53409e-06
7.53446e-06
7.53422e-06
7.5337e-06
7.53361e-06
7.53431e-06
7.53534e-06
7.5361e-06
7.53641e-06
7.53613e-06
7.5347e-06
7.53814e-06
7.53097e-06
7.46292e-06
7.45758e-06
7.52508e-06
7.53224e-06
7.53295e-06
7.53333e-06
7.53352e-06
7.53345e-06
7.53318e-06
7.53299e-06
7.5333e-06
7.53405e-06
7.53494e-06
7.53556e-06
7.5356e-06
7.53482e-06
7.53358e-06
7.53282e-06
7.53299e-06
7.53355e-06
7.5341e-06
7.5345e-06
7.53467e-06
7.53442e-06
7.53371e-06
7.53324e-06
7.53465e-06
7.53687e-06
7.54078e-06
7.53363e-06
7.46217e-06
7.45755e-06
7.52614e-06
7.53343e-06
7.53448e-06
7.53521e-06
7.53574e-06
7.53584e-06
7.53528e-06
7.53409e-06
7.53296e-06
7.53355e-06
7.53477e-06
7.53583e-06
7.53618e-06
7.53551e-06
7.5339e-06
7.5319e-06
7.53156e-06
7.53307e-06
7.53423e-06
7.53472e-06
7.53451e-06
7.53363e-06
7.53275e-06
7.53324e-06
7.53588e-06
7.53867e-06
7.54045e-06
7.5322e-06
7.46041e-06
7.45798e-06
7.52785e-06
7.53512e-06
7.53614e-06
7.53696e-06
7.53749e-06
7.53757e-06
7.53712e-06
7.53606e-06
7.53457e-06
7.53348e-06
7.53396e-06
7.53463e-06
7.53513e-06
7.53525e-06
7.53489e-06
7.53419e-06
7.53365e-06
7.5338e-06
7.53431e-06
7.53452e-06
7.53413e-06
7.53328e-06
7.53287e-06
7.53416e-06
7.53663e-06
7.5384e-06
7.5381e-06
7.52933e-06
7.45874e-06
7.46065e-06
7.52889e-06
7.53574e-06
7.5365e-06
7.537e-06
7.53725e-06
7.53734e-06
7.53728e-06
7.537e-06
7.53644e-06
7.53542e-06
7.53398e-06
7.53311e-06
7.53345e-06
7.53466e-06
7.53599e-06
7.53682e-06
7.53705e-06
7.53682e-06
7.53634e-06
7.53567e-06
7.53472e-06
7.53359e-06
7.53295e-06
7.53432e-06
7.53582e-06
7.53621e-06
7.535e-06
7.52703e-06
7.4579e-06
7.46274e-06
7.52921e-06
7.53546e-06
7.53581e-06
7.53556e-06
7.53507e-06
7.53481e-06
7.53521e-06
7.53598e-06
7.53652e-06
7.5363e-06
7.53521e-06
7.5336e-06
7.53297e-06
7.53412e-06
7.53621e-06
7.53811e-06
7.53941e-06
7.53994e-06
7.53954e-06
7.53839e-06
7.53671e-06
7.53492e-06
7.5338e-06
7.53429e-06
7.53484e-06
7.53497e-06
7.53436e-06
7.5269e-06
7.45867e-06
7.46247e-06
7.53088e-06
7.53659e-06
7.53633e-06
7.53548e-06
7.53443e-06
7.53371e-06
7.53389e-06
7.53459e-06
7.53529e-06
7.53564e-06
7.53547e-06
7.5346e-06
7.53322e-06
7.53306e-06
7.53552e-06
7.53839e-06
7.54052e-06
7.54148e-06
7.54115e-06
7.53978e-06
7.53778e-06
7.53553e-06
7.53377e-06
7.53385e-06
7.53466e-06
7.53526e-06
7.53498e-06
7.52852e-06
7.45979e-06
7.46143e-06
7.53253e-06
7.53833e-06
7.53856e-06
7.53917e-06
7.53978e-06
7.54013e-06
7.5398e-06
7.53843e-06
7.53646e-06
7.53556e-06
7.53619e-06
7.53655e-06
7.53628e-06
7.53593e-06
7.53662e-06
7.53799e-06
7.53907e-06
7.53947e-06
7.53921e-06
7.53835e-06
7.53701e-06
7.53531e-06
7.53388e-06
7.53414e-06
7.535e-06
7.53552e-06
7.53571e-06
7.52935e-06
7.46044e-06
7.46591e-06
7.53193e-06
7.53939e-06
7.54129e-06
7.54388e-06
7.54581e-06
7.5463e-06
7.5449e-06
7.54193e-06
7.53842e-06
7.53599e-06
7.53668e-06
7.53836e-06
7.53973e-06
7.54029e-06
7.53993e-06
7.53857e-06
7.53651e-06
7.53508e-06
7.53505e-06
7.53568e-06
7.53594e-06
7.53561e-06
7.53506e-06
7.53502e-06
7.53527e-06
7.5359e-06
7.53645e-06
7.52961e-06
7.46133e-06
7.47037e-06
7.52925e-06
7.54159e-06
7.54527e-06
7.54782e-06
7.54859e-06
7.5474e-06
7.54461e-06
7.54099e-06
7.53748e-06
7.53507e-06
7.53598e-06
7.53862e-06
7.54098e-06
7.54205e-06
7.54152e-06
7.53952e-06
7.53653e-06
7.53369e-06
7.5326e-06
7.53407e-06
7.53559e-06
7.53632e-06
7.53625e-06
7.53581e-06
7.53622e-06
7.53783e-06
7.53867e-06
7.53252e-06
7.46421e-06
7.47072e-06
7.53658e-06
7.54593e-06
7.54768e-06
7.54767e-06
7.54587e-06
7.54286e-06
7.53983e-06
7.53746e-06
7.53559e-06
7.53422e-06
7.53526e-06
7.53804e-06
7.54048e-06
7.54163e-06
7.54132e-06
7.54007e-06
7.53809e-06
7.53587e-06
7.53414e-06
7.53422e-06
7.53551e-06
7.53651e-06
7.53673e-06
7.53692e-06
7.53812e-06
7.53982e-06
7.54118e-06
7.53615e-06
7.4663e-06
7.4672e-06
7.54381e-06
7.54881e-06
7.54753e-06
7.54455e-06
7.54064e-06
7.53707e-06
7.53617e-06
7.53649e-06
7.53601e-06
7.53539e-06
7.53627e-06
7.53805e-06
7.53964e-06
7.54046e-06
7.5407e-06
7.54024e-06
7.53903e-06
7.53739e-06
7.53588e-06
7.53514e-06
7.53538e-06
7.53606e-06
7.53664e-06
7.53756e-06
7.53912e-06
7.5407e-06
7.54183e-06
7.53552e-06
7.46513e-06
7.46574e-06
7.54689e-06
7.54996e-06
7.54723e-06
7.54354e-06
7.53996e-06
7.53782e-06
7.53712e-06
7.53704e-06
7.53669e-06
7.53691e-06
7.53715e-06
7.53744e-06
7.53787e-06
7.53851e-06
7.53909e-06
7.53929e-06
7.53898e-06
7.53816e-06
7.53706e-06
7.53598e-06
7.53597e-06
7.5366e-06
7.53723e-06
7.5385e-06
7.53988e-06
7.54066e-06
7.5405e-06
7.53287e-06
7.46369e-06
7.46979e-06
7.54746e-06
7.55091e-06
7.54833e-06
7.5453e-06
7.54286e-06
7.54118e-06
7.53971e-06
7.53817e-06
7.53709e-06
7.53648e-06
7.53583e-06
7.53553e-06
7.53551e-06
7.53583e-06
7.53657e-06
7.53746e-06
7.53797e-06
7.53783e-06
7.5371e-06
7.53637e-06
7.53651e-06
7.53715e-06
7.53909e-06
7.54116e-06
7.54174e-06
7.54131e-06
7.54029e-06
7.53288e-06
7.46445e-06
7.47387e-06
7.54716e-06
7.55143e-06
7.54919e-06
7.54671e-06
7.54492e-06
7.54357e-06
7.54209e-06
7.54039e-06
7.53875e-06
7.53727e-06
7.53588e-06
7.5346e-06
7.53354e-06
7.53365e-06
7.53497e-06
7.53638e-06
7.53709e-06
7.53714e-06
7.53686e-06
7.53687e-06
7.53827e-06
7.54134e-06
7.5439e-06
7.54447e-06
7.54372e-06
7.54319e-06
7.54306e-06
7.53756e-06
7.46811e-06
7.47713e-06
7.54609e-06
7.55097e-06
7.54933e-06
7.54786e-06
7.54692e-06
7.54595e-06
7.5446e-06
7.5429e-06
7.54102e-06
7.53899e-06
7.53678e-06
7.53476e-06
7.53439e-06
7.53561e-06
7.53693e-06
7.53758e-06
7.53763e-06
7.53785e-06
7.53878e-06
7.54092e-06
7.54401e-06
7.54616e-06
7.54608e-06
7.54444e-06
7.54353e-06
7.54379e-06
7.54476e-06
7.53955e-06
7.46996e-06
7.47925e-06
7.54502e-06
7.55115e-06
7.5505e-06
7.54981e-06
7.54908e-06
7.54792e-06
7.54634e-06
7.54446e-06
7.54226e-06
7.53967e-06
7.53729e-06
7.53705e-06
7.53847e-06
7.53897e-06
7.53846e-06
7.53778e-06
7.53809e-06
7.5398e-06
7.54275e-06
7.54624e-06
7.54835e-06
7.54775e-06
7.54568e-06
7.54495e-06
7.54534e-06
7.54629e-06
7.54701e-06
7.5406e-06
7.47246e-06
7.48034e-06
7.54523e-06
7.55267e-06
7.55281e-06
7.55218e-06
7.55095e-06
7.54925e-06
7.54735e-06
7.54532e-06
7.54307e-06
7.54079e-06
7.53984e-06
7.54032e-06
7.53966e-06
7.53798e-06
7.53661e-06
7.53685e-06
7.53902e-06
7.54263e-06
7.5467e-06
7.5493e-06
7.54917e-06
7.54744e-06
7.54705e-06
7.54786e-06
7.54921e-06
7.55046e-06
7.55052e-06
7.54366e-06
7.47625e-06
7.4818e-06
7.54827e-06
7.55589e-06
7.55596e-06
7.5548e-06
7.55304e-06
7.55121e-06
7.54945e-06
7.54752e-06
7.54526e-06
7.54311e-06
7.54222e-06
7.54099e-06
7.53838e-06
7.53589e-06
7.53616e-06
7.53784e-06
7.54113e-06
7.54582e-06
7.54904e-06
7.54965e-06
7.54881e-06
7.54942e-06
7.5509e-06
7.55266e-06
7.55462e-06
7.55551e-06
7.55556e-06
7.5483e-06
7.4815e-06
7.48663e-06
7.55366e-06
7.5607e-06
7.56021e-06
7.55859e-06
7.55681e-06
7.55522e-06
7.55356e-06
7.55141e-06
7.54876e-06
7.54614e-06
7.54398e-06
7.54107e-06
7.5381e-06
7.53745e-06
7.5378e-06
7.5395e-06
7.54384e-06
7.5474e-06
7.54869e-06
7.54917e-06
7.55155e-06
7.55388e-06
7.55576e-06
7.55831e-06
7.56e-06
7.56095e-06
7.56139e-06
7.55491e-06
7.48886e-06
7.49461e-06
7.56102e-06
7.5674e-06
7.56634e-06
7.56457e-06
7.56286e-06
7.56119e-06
7.55912e-06
7.5564e-06
7.55328e-06
7.55e-06
7.54643e-06
7.54297e-06
7.54104e-06
7.53962e-06
7.53884e-06
7.541e-06
7.54449e-06
7.54693e-06
7.54959e-06
7.55339e-06
7.55636e-06
7.55848e-06
7.56117e-06
7.56364e-06
7.56547e-06
7.56702e-06
7.56877e-06
7.56485e-06
7.49529e-06
7.50514e-06
7.57017e-06
7.57607e-06
7.57469e-06
7.57274e-06
7.57067e-06
7.56827e-06
7.5653e-06
7.56188e-06
7.55802e-06
7.5539e-06
7.55004e-06
7.54728e-06
7.54502e-06
7.5421e-06
7.54058e-06
7.54221e-06
7.54572e-06
7.55043e-06
7.55518e-06
7.55857e-06
7.56129e-06
7.5644e-06
7.56749e-06
7.57014e-06
7.57316e-06
7.57557e-06
7.57802e-06
7.57302e-06
7.50338e-06
7.51716e-06
7.58099e-06
7.58668e-06
7.58492e-06
7.58239e-06
7.57945e-06
7.576e-06
7.57213e-06
7.568e-06
7.56368e-06
7.55951e-06
7.55628e-06
7.55341e-06
7.54964e-06
7.54542e-06
7.54394e-06
7.54658e-06
7.55154e-06
7.55682e-06
7.56106e-06
7.56455e-06
7.56848e-06
7.57215e-06
7.57563e-06
7.57922e-06
7.58353e-06
7.5867e-06
7.58735e-06
7.58136e-06
7.51521e-06
7.53026e-06
7.59345e-06
7.59864e-06
7.59646e-06
7.59349e-06
7.58989e-06
7.5857e-06
7.58124e-06
7.57655e-06
7.57177e-06
7.56757e-06
7.56387e-06
7.55936e-06
7.55394e-06
7.54926e-06
7.54854e-06
7.55234e-06
7.55783e-06
7.56329e-06
7.56813e-06
7.57254e-06
7.57732e-06
7.58196e-06
7.58674e-06
7.59104e-06
7.5961e-06
7.59946e-06
7.59878e-06
7.59349e-06
7.53044e-06
7.54514e-06
7.6079e-06
7.61299e-06
7.61061e-06
7.60721e-06
7.60317e-06
7.59857e-06
7.59346e-06
7.58787e-06
7.5821e-06
7.57691e-06
7.57138e-06
7.56484e-06
7.55812e-06
7.55333e-06
7.5534e-06
7.55792e-06
7.56377e-06
7.56995e-06
7.57617e-06
7.582e-06
7.5881e-06
7.59445e-06
7.60049e-06
7.60492e-06
7.60996e-06
7.61385e-06
7.61405e-06
7.61096e-06
7.54688e-06
7.56328e-06
7.62606e-06
7.63109e-06
7.62839e-06
7.62438e-06
7.61966e-06
7.61428e-06
7.60828e-06
7.6015e-06
7.59436e-06
7.58731e-06
7.57967e-06
7.5715e-06
7.56391e-06
7.5589e-06
7.55919e-06
7.56425e-06
7.57091e-06
7.57828e-06
7.58629e-06
7.59425e-06
7.60205e-06
7.60975e-06
7.61618e-06
7.62082e-06
7.62539e-06
7.63077e-06
7.63405e-06
7.63008e-06
7.56542e-06
7.58595e-06
7.64871e-06
7.65323e-06
7.64983e-06
7.64496e-06
7.63938e-06
7.63309e-06
7.62604e-06
7.61802e-06
7.60924e-06
7.60012e-06
7.59059e-06
7.58099e-06
7.57246e-06
7.56668e-06
7.5667e-06
7.57249e-06
7.58086e-06
7.58995e-06
7.59939e-06
7.6095e-06
7.61885e-06
7.62655e-06
7.63382e-06
7.63941e-06
7.6446e-06
7.65167e-06
7.65668e-06
7.65119e-06
7.58816e-06
7.61373e-06
7.67567e-06
7.67953e-06
7.67558e-06
7.66988e-06
7.66324e-06
7.65584e-06
7.64755e-06
7.63809e-06
7.62747e-06
7.61609e-06
7.6046e-06
7.59354e-06
7.58385e-06
7.57704e-06
7.57682e-06
7.58347e-06
7.59401e-06
7.60492e-06
7.61595e-06
7.62783e-06
7.63756e-06
7.64597e-06
7.65519e-06
7.66284e-06
7.66891e-06
7.67708e-06
7.68186e-06
7.67673e-06
7.6157e-06
7.64728e-06
7.70814e-06
7.71161e-06
7.70707e-06
7.70037e-06
7.69238e-06
7.68347e-06
7.67339e-06
7.66204e-06
7.64946e-06
7.63611e-06
7.62277e-06
7.60988e-06
7.59835e-06
7.59043e-06
7.59038e-06
7.59772e-06
7.61005e-06
7.62326e-06
7.63614e-06
7.64889e-06
7.66055e-06
7.67114e-06
7.68239e-06
7.69152e-06
7.69938e-06
7.7075e-06
7.71202e-06
7.70814e-06
7.64873e-06
7.68803e-06
7.74797e-06
7.75089e-06
7.74527e-06
7.73703e-06
7.72729e-06
7.71652e-06
7.70446e-06
7.69115e-06
7.67663e-06
7.66134e-06
7.64578e-06
7.63034e-06
7.6165e-06
7.60738e-06
7.60816e-06
7.6165e-06
7.63008e-06
7.64582e-06
7.66067e-06
7.67549e-06
7.69094e-06
7.70323e-06
7.71559e-06
7.72699e-06
7.73682e-06
7.74428e-06
7.74942e-06
7.74657e-06
7.68868e-06
7.73771e-06
7.79604e-06
7.79771e-06
7.79058e-06
7.78085e-06
7.76958e-06
7.7571e-06
7.74308e-06
7.72768e-06
7.71098e-06
7.69324e-06
7.67497e-06
7.65679e-06
7.64078e-06
7.63031e-06
7.63184e-06
7.64203e-06
7.65705e-06
7.67513e-06
7.69286e-06
7.71059e-06
7.72881e-06
7.74305e-06
7.75666e-06
7.77132e-06
7.78149e-06
7.78911e-06
7.79507e-06
7.79361e-06
7.73753e-06
7.79765e-06
7.85302e-06
7.85328e-06
7.84515e-06
7.83459e-06
7.82202e-06
7.8077e-06
7.79152e-06
7.77379e-06
7.75457e-06
7.73391e-06
7.71265e-06
7.69194e-06
7.6743e-06
7.66236e-06
7.66338e-06
7.6754e-06
7.69229e-06
7.71317e-06
7.73501e-06
7.75471e-06
7.7753e-06
7.79178e-06
7.80813e-06
7.82429e-06
7.8354e-06
7.84415e-06
7.85188e-06
7.85184e-06
7.79759e-06
7.86919e-06
7.92144e-06
7.92128e-06
7.91267e-06
7.90092e-06
7.88648e-06
7.86983e-06
7.85117e-06
7.83083e-06
7.80865e-06
7.78475e-06
7.76048e-06
7.7373e-06
7.71802e-06
7.70459e-06
7.70389e-06
7.71747e-06
7.73739e-06
7.76179e-06
7.78703e-06
7.80926e-06
7.83163e-06
7.85178e-06
7.87055e-06
7.88797e-06
7.9011e-06
7.9122e-06
7.92175e-06
7.92239e-06
7.87069e-06
7.95514e-06
8.00583e-06
8.00493e-06
7.99483e-06
7.98096e-06
7.96415e-06
7.94505e-06
7.92374e-06
7.9003e-06
7.87482e-06
7.84807e-06
7.82104e-06
7.79494e-06
7.7725e-06
7.75748e-06
7.75557e-06
7.77127e-06
7.79533e-06
7.82284e-06
7.85026e-06
7.87523e-06
7.90026e-06
7.92459e-06
7.94587e-06
7.9648e-06
7.98073e-06
7.99396e-06
8.00469e-06
8.00702e-06
7.95831e-06
8.06015e-06
8.1086e-06
8.10529e-06
8.09308e-06
8.07744e-06
8.05886e-06
8.03731e-06
8.01288e-06
7.98611e-06
7.95735e-06
7.92794e-06
7.89757e-06
7.86802e-06
7.84128e-06
7.82494e-06
7.82377e-06
7.84113e-06
7.86823e-06
7.8983e-06
7.92798e-06
7.95702e-06
7.98625e-06
8.01356e-06
8.03725e-06
8.05833e-06
8.07749e-06
8.09259e-06
8.10487e-06
8.11007e-06
8.06172e-06
8.18682e-06
8.23157e-06
8.22628e-06
8.21343e-06
8.19649e-06
8.17528e-06
8.15024e-06
8.1229e-06
8.0938e-06
8.06186e-06
8.02879e-06
7.99444e-06
7.96287e-06
7.93211e-06
7.91321e-06
7.91293e-06
7.93156e-06
7.96117e-06
7.99502e-06
8.02811e-06
8.06145e-06
8.09392e-06
8.12324e-06
8.14978e-06
8.17441e-06
8.19618e-06
8.21369e-06
8.22757e-06
8.23422e-06
8.18602e-06
8.33923e-06
8.38306e-06
8.3766e-06
8.36168e-06
8.34107e-06
8.31633e-06
8.28918e-06
8.25967e-06
8.22756e-06
8.19207e-06
8.15557e-06
8.118e-06
8.08449e-06
8.05038e-06
8.02681e-06
8.02848e-06
8.05098e-06
8.08238e-06
8.11916e-06
8.15552e-06
8.1921e-06
8.22698e-06
8.25945e-06
8.28985e-06
8.317e-06
8.34018e-06
8.36092e-06
8.37771e-06
8.38618e-06
8.33852e-06
8.52688e-06
8.57295e-06
8.56076e-06
8.54128e-06
8.51793e-06
8.4914e-06
8.46206e-06
8.42851e-06
8.39252e-06
8.35505e-06
8.31704e-06
8.27673e-06
8.23913e-06
8.2032e-06
8.17783e-06
8.17982e-06
8.205e-06
8.23821e-06
8.27668e-06
8.31662e-06
8.3561e-06
8.39281e-06
8.42802e-06
8.46189e-06
8.49218e-06
8.51821e-06
8.5415e-06
8.56209e-06
8.57347e-06
8.52391e-06
8.76116e-06
8.81103e-06
8.79032e-06
8.76867e-06
8.74263e-06
8.71132e-06
8.67815e-06
8.64104e-06
8.60251e-06
8.56451e-06
8.52607e-06
8.4866e-06
8.45003e-06
8.41553e-06
8.39303e-06
8.39477e-06
8.41688e-06
8.44989e-06
8.48688e-06
8.52477e-06
8.564e-06
8.6037e-06
8.64166e-06
8.67649e-06
8.70968e-06
8.74313e-06
8.76973e-06
8.79325e-06
8.81059e-06
8.75443e-06
9.06266e-06
9.1364e-06
9.10502e-06
9.08008e-06
9.04356e-06
9.004e-06
8.96814e-06
8.92779e-06
8.89061e-06
8.8628e-06
8.84064e-06
8.83603e-06
8.85185e-06
8.86476e-06
8.88465e-06
8.89908e-06
8.87234e-06
8.84944e-06
8.83951e-06
8.84227e-06
8.86197e-06
8.89103e-06
8.92868e-06
8.96699e-06
9.00167e-06
9.0438e-06
9.08062e-06
9.10538e-06
9.13799e-06
9.05435e-06
9.5429e-06
9.74633e-06
9.66812e-06
9.68678e-06
9.59007e-06
9.51643e-06
9.50695e-06
9.46699e-06
9.45522e-06
9.54193e-06
9.72516e-06
1.00968e-05
1.0687e-05
1.12886e-05
1.17869e-05
1.18969e-05
1.13482e-05
1.07038e-05
1.01444e-05
9.73139e-06
9.55241e-06
9.45914e-06
9.46144e-06
9.50855e-06
9.51287e-06
9.58479e-06
9.69405e-06
9.67097e-06
9.75292e-06
9.52849e-06
1.08999e-05
1.17693e-05
1.1464e-05
1.20984e-05
1.14312e-05
1.1223e-05
1.1658e-05
1.15629e-05
1.18287e-05
1.30474e-05
1.50865e-05
1.90881e-05
2.58165e-05
3.26926e-05
3.78401e-05
3.84808e-05
3.34256e-05
2.60025e-05
1.96473e-05
1.51947e-05
1.317e-05
1.1875e-05
1.1544e-05
1.16576e-05
1.12147e-05
1.14112e-05
1.21278e-05
1.14697e-05
1.1819e-05
1.08404e-05
1.72912e-05
2.09775e-05
1.98771e-05
2.56985e-05
2.15007e-05
2.20641e-05
2.70503e-05
2.66478e-05
3.12867e-05
4.16632e-05
6.29187e-05
0.000104104
0.000159572
0.00021507
0.000255391
0.000254779
0.000220601
0.000161885
0.000106207
6.40773e-05
4.331e-05
3.17638e-05
2.65164e-05
2.69056e-05
2.21049e-05
2.13397e-05
2.61139e-05
1.98776e-05
2.12006e-05
1.70539e-05
5.4146e-05
6.0874e-05
6.89472e-05
0.000100028
9.34169e-05
0.000125617
0.000161088
0.000165451
0.000242253
0.000393814
0.000464571
0.000752663
0.000899009
0.00113423
0.00120599
0.00121382
0.00109982
0.000959202
0.00070999
0.000489623
0.000410607
0.000246981
0.000166603
0.000158393
0.000124998
9.18192e-05
0.000105352
7.15777e-05
6.15132e-05
5.37059e-05
0.000194691
0.000229089
0.000338727
0.000416931
0.000456081
0.000757706
0.000827598
0.000997854
0.0012911
0.00190399
0.00158829
0.00245417
0.00226469
0.00285396
0.00250228
0.00283365
0.00243545
0.00261187
0.00197814
0.00176321
0.00195188
0.00129744
0.00102284
0.000826952
0.000753313
0.000565616
0.000451133
0.000358225
0.000233213
0.000195092
0.000499404
0.000888633
0.00091411
0.00113589
0.00140003
0.00235875
0.00263703
0.00285926
0.00336903
0.00432857
0.00342869
0.00528876
0.00513094
0.00543923
0.004537
0.00528247
0.00489308
0.00499287
0.0038032
0.00371334
0.00430601
0.0033029
0.00283849
0.00231939
0.00232733
0.00163208
0.00121952
0.000968901
0.000908814
0.000502879
0.000788469
0.000997054
0.00126594
0.00147654
0.00208534
0.00287894
0.0034567
0.00366613
0.00409751
0.00659254
0.00575954
0.00814205
0.00561541
0.00725074
0.00547223
0.00728245
0.00576061
0.0072586
0.00490077
0.00467638
0.00594435
0.00424249
0.00364881
0.00321713
0.00300044
0.00224065
0.0016372
0.00135425
0.00101412
0.000803287
0.00110268
0.0011019
0.00156521
0.00178716
0.00235382
0.00304862
0.00361416
0.00471145
0.00395325
0.00541373
0.00439378
0.00465767
0.00467535
0.00491185
0.00492205
0.00524743
0.00551632
0.0045049
0.00505571
0.00459324
0.00530914
0.00450498
0.00472295
0.00384103
0.00308654
0.00252097
0.00194358
0.00168868
0.0011054
0.00117138
0.00108654
0.00113904
0.00134901
0.00203654
0.00220369
0.00291813
0.00311472
0.00328436
0.00373914
0.00383279
0.00332054
0.00403792
0.00393568
0.00441098
0.00410613
0.00501641
0.00424527
0.00423986
0.00403169
0.00405661
0.00430389
0.00355693
0.00331314
0.00312307
0.00319706
0.00228045
0.00208345
0.00144537
0.00109754
0.00116296
0.000443668
0.000637839
0.000978234
0.00124107
0.00129301
0.00133575
0.00154011
0.00168942
0.00187515
0.00219625
0.00238095
0.0027685
0.00299166
0.00313895
0.00346055
0.00353422
0.00311288
0.00291337
0.00285815
0.00239374
0.00219824
0.00187073
0.00175436
0.00159499
0.00136886
0.00132947
0.00125453
0.000998331
0.000655329
0.000462141
0.000263339
0.000354288
0.000520602
0.000695408
0.000588651
0.000633681
0.000822113
0.000969919
0.00111012
0.00131724
0.00141007
0.00156196
0.00165614
0.00183515
0.00209427
0.00208953
0.00184031
0.00162139
0.00156264
0.00135604
0.00130585
0.00113822
0.00100155
0.000844369
0.000647358
0.000591493
0.000691172
0.000522165
0.000360058
0.000263659
0.000188918
0.000224235
0.000271143
0.000354533
0.00027688
0.000272621
0.000369691
0.000508873
0.00069895
0.000913813
0.00103282
0.00110358
0.00112539
0.00120103
0.00127491
0.00126419
0.00119851
0.00111482
0.00108106
0.000998684
0.000900303
0.000703589
0.000516967
0.000376207
0.000275443
0.000278199
0.000354226
0.000271623
0.000227634
0.000192057
0.000142231
0.000153556
0.000161536
0.000182826
0.000164061
0.000153629
0.000173957
0.000226781
0.000336847
0.000517353
0.000707007
0.000873098
0.000971061
0.00103102
0.00103434
0.00102637
0.00103064
0.000970135
0.000858942
0.000688495
0.000510937
0.000334166
0.000228223
0.0001759
0.000155151
0.000165831
0.000185153
0.000161673
0.000154277
0.000143838
0.000113821
0.000111605
0.000112021
0.000115765
0.000112496
0.00010969
0.000114499
0.000127659
0.000161579
0.000240389
0.00037514
0.000556934
0.000742404
0.000881945
0.00092107
0.000914944
0.000882731
0.00074337
0.000552049
0.000368326
0.000237384
0.000161082
0.000127823
0.000114993
0.000110405
0.000113597
0.00011665
0.000112938
0.000112548
0.000113768
9.1928e-05
8.85423e-05
8.67415e-05
8.73157e-05
8.68131e-05
8.71388e-05
8.91367e-05
9.36305e-05
0.000103033
0.000125227
0.000175816
0.000272662
0.000416034
0.00057258
0.000665688
0.000659496
0.000572541
0.000418346
0.000271277
0.000174223
0.000124672
0.000103016
9.36565e-05
8.93306e-05
8.73316e-05
8.69553e-05
8.76394e-05
8.72952e-05
8.89646e-05
9.28114e-05
7.73837e-05
7.33423e-05
7.20461e-05
7.21701e-05
7.24034e-05
7.33686e-05
7.47281e-05
7.68824e-05
8.0133e-05
8.59829e-05
9.87815e-05
0.000127378
0.000181747
0.000258521
0.000327251
0.000325393
0.000257933
0.000181983
0.000127181
9.85069e-05
8.58145e-05
7.98382e-05
7.70424e-05
7.47856e-05
7.34893e-05
7.24246e-05
7.23006e-05
7.24645e-05
7.39049e-05
7.77842e-05
6.65811e-05
6.21847e-05
6.13418e-05
6.14266e-05
6.1939e-05
6.29043e-05
6.40201e-05
6.53446e-05
6.67147e-05
6.84754e-05
7.1253e-05
7.71493e-05
8.924e-05
0.000108848
0.000129362
0.000129201
0.000108718
8.9154e-05
7.73019e-05
7.1235e-05
6.86599e-05
6.65912e-05
6.54543e-05
6.40646e-05
6.29579e-05
6.22031e-05
6.13892e-05
6.17017e-05
6.26869e-05
6.67925e-05
5.77687e-05
5.34974e-05
5.2655e-05
5.27294e-05
5.34699e-05
5.42828e-05
5.50233e-05
5.57865e-05
5.64053e-05
5.68964e-05
5.72903e-05
5.8108e-05
5.9732e-05
6.27716e-05
6.61588e-05
6.6078e-05
6.28408e-05
5.97757e-05
5.83025e-05
5.72794e-05
5.69047e-05
5.6331e-05
5.582e-05
5.50749e-05
5.41664e-05
5.36041e-05
5.29203e-05
5.29553e-05
5.39132e-05
5.80939e-05
5.04235e-05
4.63157e-05
4.55541e-05
4.5709e-05
4.63033e-05
4.68718e-05
4.72772e-05
4.75929e-05
4.77271e-05
4.76359e-05
4.73406e-05
4.70822e-05
4.67499e-05
4.66368e-05
4.67272e-05
4.67099e-05
4.67366e-05
4.68099e-05
4.71584e-05
4.7438e-05
4.76631e-05
4.77744e-05
4.762e-05
4.72693e-05
4.67717e-05
4.62156e-05
4.59922e-05
4.58477e-05
4.66381e-05
5.06152e-05
4.40508e-05
4.03216e-05
3.95512e-05
3.9699e-05
4.02021e-05
4.05221e-05
4.0606e-05
4.05332e-05
4.03041e-05
3.99184e-05
3.93877e-05
3.879e-05
3.80833e-05
3.74745e-05
3.70986e-05
3.71321e-05
3.75784e-05
3.81932e-05
3.87845e-05
3.94422e-05
3.99945e-05
4.04559e-05
4.06014e-05
4.05138e-05
4.04485e-05
4.01512e-05
3.99731e-05
3.98025e-05
4.04893e-05
4.41261e-05
3.84477e-05
3.51119e-05
3.45635e-05
3.47087e-05
3.49579e-05
3.49546e-05
3.48414e-05
3.46005e-05
3.42062e-05
3.36492e-05
3.29644e-05
3.21997e-05
3.13845e-05
3.07307e-05
3.03517e-05
3.04257e-05
3.08605e-05
3.15409e-05
3.22483e-05
3.30462e-05
3.37495e-05
3.43173e-05
3.46784e-05
3.48636e-05
3.49234e-05
3.48118e-05
3.46664e-05
3.46022e-05
3.52876e-05
3.85034e-05
3.34422e-05
3.0794e-05
3.03053e-05
3.02877e-05
3.02688e-05
3.01851e-05
3.00073e-05
2.96612e-05
2.91692e-05
2.85125e-05
2.77591e-05
2.69678e-05
2.61806e-05
2.55621e-05
2.51895e-05
2.52252e-05
2.56126e-05
2.62528e-05
2.69968e-05
2.78189e-05
2.85971e-05
2.92484e-05
2.96912e-05
3.00052e-05
3.01474e-05
3.01659e-05
3.01501e-05
3.02218e-05
3.08821e-05
3.36447e-05
2.93518e-05
2.70806e-05
2.65206e-05
2.64203e-05
2.63712e-05
2.62779e-05
2.59953e-05
2.55643e-05
2.50299e-05
2.4359e-05
2.36143e-05
2.2864e-05
2.21389e-05
2.15492e-05
2.11737e-05
2.11654e-05
2.15191e-05
2.21164e-05
2.28441e-05
2.36232e-05
2.43815e-05
2.50605e-05
2.55638e-05
2.59281e-05
2.61603e-05
2.62923e-05
2.63843e-05
2.65201e-05
2.70942e-05
2.94208e-05
2.57201e-05
2.37392e-05
2.33069e-05
2.32187e-05
2.31294e-05
2.29068e-05
2.2571e-05
2.21512e-05
2.16272e-05
2.09846e-05
2.02905e-05
1.95942e-05
1.89218e-05
1.83632e-05
1.80078e-05
1.79823e-05
1.82983e-05
1.88443e-05
1.95257e-05
2.02566e-05
2.09747e-05
2.16246e-05
2.21436e-05
2.25377e-05
2.28323e-05
2.3047e-05
2.32033e-05
2.33517e-05
2.38318e-05
2.57763e-05
2.25894e-05
2.10626e-05
2.07148e-05
2.05552e-05
2.03476e-05
2.00595e-05
1.97504e-05
1.93493e-05
1.88489e-05
1.82677e-05
1.76461e-05
1.69995e-05
1.63647e-05
1.58385e-05
1.55162e-05
1.54926e-05
1.57726e-05
1.62662e-05
1.68951e-05
1.75781e-05
1.82519e-05
1.88575e-05
1.93551e-05
1.97545e-05
2.00773e-05
2.03293e-05
2.05131e-05
2.06716e-05
2.10908e-05
2.27007e-05
2.00964e-05
1.89178e-05
1.85141e-05
1.82865e-05
1.80387e-05
1.78078e-05
1.75192e-05
1.71239e-05
1.66621e-05
1.61431e-05
1.55738e-05
1.49647e-05
1.43817e-05
1.39163e-05
1.36392e-05
1.36226e-05
1.38741e-05
1.43269e-05
1.49063e-05
1.55257e-05
1.61237e-05
1.66619e-05
1.71197e-05
1.75045e-05
1.78248e-05
1.80815e-05
1.82777e-05
1.84454e-05
1.88064e-05
2.01039e-05
1.80006e-05
1.69597e-05
1.65814e-05
1.63902e-05
1.6214e-05
1.60251e-05
1.57283e-05
1.53612e-05
1.49468e-05
1.4467e-05
1.39322e-05
1.3378e-05
1.28736e-05
1.24752e-05
1.22285e-05
1.22097e-05
1.24382e-05
1.28539e-05
1.33727e-05
1.39085e-05
1.44179e-05
1.48907e-05
1.53158e-05
1.56875e-05
1.59961e-05
1.62407e-05
1.64277e-05
1.65812e-05
1.68724e-05
1.7899e-05
1.61574e-05
1.52549e-05
1.50136e-05
1.48845e-05
1.47463e-05
1.45348e-05
1.42517e-05
1.39345e-05
1.35631e-05
1.31248e-05
1.26416e-05
1.21563e-05
1.17157e-05
1.13545e-05
1.11236e-05
1.11107e-05
1.133e-05
1.1709e-05
1.21602e-05
1.26163e-05
1.30589e-05
1.34866e-05
1.38826e-05
1.42253e-05
1.4501e-05
1.47136e-05
1.48745e-05
1.50046e-05
1.52375e-05
1.6052e-05
1.45534e-05
1.39067e-05
1.37509e-05
1.36336e-05
1.34832e-05
1.32756e-05
1.30451e-05
1.27771e-05
1.24458e-05
1.20571e-05
1.16355e-05
1.12151e-05
1.08231e-05
1.04922e-05
1.02852e-05
1.0287e-05
1.04945e-05
1.08287e-05
1.12156e-05
1.16103e-05
1.20027e-05
1.23838e-05
1.27322e-05
1.30258e-05
1.32589e-05
1.34398e-05
1.358e-05
1.36946e-05
1.38843e-05
1.45272e-05
1.32909e-05
1.28521e-05
1.26824e-05
1.25618e-05
1.24265e-05
1.22672e-05
1.20848e-05
1.18461e-05
1.15466e-05
1.12013e-05
1.08379e-05
1.0479e-05
1.01369e-05
9.84449e-06
9.66852e-06
9.6793e-06
9.8644e-06
1.01511e-05
1.04816e-05
1.08247e-05
1.11677e-05
1.14956e-05
1.17892e-05
1.20354e-05
1.22339e-05
1.23921e-05
1.25168e-05
1.26173e-05
1.27695e-05
1.32678e-05
1.23052e-05
1.19206e-05
1.17538e-05
1.16748e-05
1.15778e-05
1.14524e-05
1.1285e-05
1.10626e-05
1.07959e-05
1.05036e-05
1.02097e-05
9.91733e-06
9.62703e-06
9.37411e-06
9.22433e-06
9.23355e-06
9.38914e-06
9.62823e-06
9.90577e-06
1.01993e-05
1.04927e-05
1.07694e-05
1.10148e-05
1.12229e-05
1.13954e-05
1.15351e-05
1.16443e-05
1.17293e-05
1.18479e-05
1.22246e-05
1.142e-05
1.10759e-05
1.09954e-05
1.09527e-05
1.08667e-05
1.07465e-05
1.05855e-05
1.03892e-05
1.01691e-05
9.94292e-06
9.71759e-06
9.47875e-06
9.23024e-06
9.01282e-06
8.8825e-06
8.88235e-06
9.00503e-06
9.20006e-06
9.43404e-06
9.68712e-06
9.93947e-06
1.01748e-05
1.03839e-05
1.05645e-05
1.07161e-05
1.08375e-05
1.09282e-05
1.09957e-05
1.10858e-05
1.13645e-05
1.06447e-05
1.04371e-05
1.04154e-05
1.03583e-05
1.02704e-05
1.01583e-05
1.00195e-05
9.86123e-06
9.69005e-06
9.51483e-06
9.3265e-06
9.11479e-06
8.89828e-06
8.71608e-06
8.60577e-06
8.59815e-06
8.69224e-06
8.85529e-06
9.05995e-06
9.28262e-06
9.50249e-06
9.70513e-06
9.88518e-06
1.0041e-05
1.01697e-05
1.02681e-05
1.03375e-05
1.03881e-05
1.04562e-05
1.06636e-05
1.00896e-05
1.00031e-05
9.94697e-06
9.87409e-06
9.80027e-06
9.70716e-06
9.59678e-06
9.47282e-06
9.34041e-06
9.19537e-06
9.0249e-06
8.83564e-06
8.65576e-06
8.51141e-06
8.41998e-06
8.40643e-06
8.47919e-06
8.61727e-06
8.79405e-06
8.98444e-06
9.16881e-06
9.3366e-06
9.48525e-06
9.61354e-06
9.71733e-06
9.79481e-06
9.84982e-06
9.89172e-06
9.94549e-06
1.00961e-05
9.68921e-06
9.60484e-06
9.52593e-06
9.48019e-06
9.42997e-06
9.35871e-06
9.27113e-06
9.17294e-06
9.06742e-06
8.94253e-06
8.79269e-06
8.6371e-06
8.50006e-06
8.39009e-06
8.31327e-06
8.29578e-06
8.34999e-06
8.46011e-06
8.60222e-06
8.75352e-06
8.89908e-06
9.03313e-06
9.15346e-06
9.25768e-06
9.34297e-06
9.40879e-06
9.4579e-06
9.49571e-06
9.53655e-06
9.63765e-06
9.31145e-06
9.21627e-06
9.18343e-06
9.17363e-06
9.14296e-06
9.08714e-06
9.01087e-06
8.9268e-06
8.83574e-06
8.72632e-06
8.60304e-06
8.48567e-06
8.38448e-06
8.29702e-06
8.23073e-06
8.21242e-06
8.25399e-06
8.3404e-06
8.45073e-06
8.56783e-06
8.68281e-06
8.79254e-06
8.89349e-06
8.98119e-06
9.05337e-06
9.10999e-06
9.15246e-06
9.18297e-06
9.20796e-06
9.26598e-06
8.96594e-06
8.92318e-06
8.94357e-06
8.94471e-06
8.9162e-06
8.86118e-06
8.79065e-06
8.71943e-06
8.642e-06
8.55032e-06
8.45487e-06
8.36814e-06
8.28804e-06
8.21177e-06
8.1528e-06
8.13909e-06
8.1786e-06
8.25207e-06
8.3411e-06
8.43491e-06
8.52868e-06
8.61984e-06
8.7039e-06
8.77615e-06
8.83442e-06
8.87821e-06
8.90803e-06
8.92462e-06
8.93047e-06
8.95259e-06