/*--------------------------------*- C++ -*----------------------------------*\
| =========                 |                                                 |
| \\      /  F ield         | OpenFOAM: The Open Source CFD Toolbox           |
|  \\    /   O peration     | Version:  2312                                  |
|   \\  /    A nd           | Website:  www.openfoam.com                      |
|    \\/     M anipulation  |                                                 |
\*---------------------------------------------------------------------------*/
FoamFile
{
    version     2.0;
    format      ascii;
    arch        "LSB;label=32;scalar=64";
    class       volScalarField;
    location    "1.4496027068";
    object      k;
}
// * * * * * * * * * * * * * * * * * * * * * * * * * * * * * * * * * * * * * //

dimensions      [0 2 -2 0 0 0 0];

internalField   nonuniform List<scalar> 
90000
(
2.04316e-05
2.04367e-05
2.0438e-05
2.04383e-05
2.0439e-05
2.04392e-05
2.04394e-05
2.04394e-05
2.04392e-05
2.04386e-05
2.04377e-05
2.04365e-05
2.04354e-05
2.04352e-05
2.04358e-05
2.04363e-05
2.04364e-05
2.04369e-05
2.04376e-05
2.04378e-05
2.04368e-05
2.04359e-05
2.04384e-05
2.0443e-05
2.04469e-05
2.04483e-05
2.04464e-05
2.04444e-05
2.04535e-05
2.04701e-05
2.04401e-05
2.05519e-05
2.05626e-05
2.05628e-05
2.05625e-05
2.05624e-05
2.05627e-05
2.0563e-05
2.05631e-05
2.0563e-05
2.05632e-05
2.05637e-05
2.05642e-05
2.05644e-05
2.05643e-05
2.05639e-05
2.05635e-05
2.05632e-05
2.05631e-05
2.05628e-05
2.05634e-05
2.05646e-05
2.05659e-05
2.05663e-05
2.05654e-05
2.05646e-05
2.05672e-05
2.05752e-05
2.05706e-05
2.04942e-05
2.04398e-05
2.05638e-05
2.05765e-05
2.05771e-05
2.05772e-05
2.05774e-05
2.05778e-05
2.05779e-05
2.05776e-05
2.05769e-05
2.05771e-05
2.05782e-05
2.05798e-05
2.05808e-05
2.05808e-05
2.05795e-05
2.05774e-05
2.05756e-05
2.05772e-05
2.05794e-05
2.05808e-05
2.05809e-05
2.05799e-05
2.05787e-05
2.05795e-05
2.0582e-05
2.05841e-05
2.05923e-05
2.06029e-05
2.04849e-05
2.04384e-05
2.05637e-05
2.05778e-05
2.0579e-05
2.05795e-05
2.05801e-05
2.05806e-05
2.05808e-05
2.05806e-05
2.05797e-05
2.05789e-05
2.05792e-05
2.05801e-05
2.05809e-05
2.05807e-05
2.05794e-05
2.05777e-05
2.05779e-05
2.05802e-05
2.05819e-05
2.0582e-05
2.05808e-05
2.05809e-05
2.05841e-05
2.05871e-05
2.05896e-05
2.05934e-05
2.05938e-05
2.05991e-05
2.04628e-05
2.0438e-05
2.05633e-05
2.05777e-05
2.0579e-05
2.05796e-05
2.058e-05
2.05803e-05
2.05807e-05
2.05809e-05
2.05807e-05
2.05802e-05
2.05795e-05
2.05786e-05
2.05777e-05
2.05775e-05
2.05787e-05
2.05802e-05
2.05814e-05
2.05816e-05
2.05809e-05
2.05796e-05
2.05802e-05
2.05833e-05
2.05866e-05
2.05887e-05
2.05886e-05
2.05875e-05
2.05888e-05
2.058e-05
2.04507e-05
2.04384e-05
2.05636e-05
2.05772e-05
2.05783e-05
2.05785e-05
2.05785e-05
2.05786e-05
2.0579e-05
2.05796e-05
2.05803e-05
2.05808e-05
2.05811e-05
2.05809e-05
2.058e-05
2.05789e-05
2.05795e-05
2.05809e-05
2.05816e-05
2.05812e-05
2.05802e-05
2.058e-05
2.05813e-05
2.05832e-05
2.05846e-05
2.05852e-05
2.05847e-05
2.0582e-05
2.05883e-05
2.0575e-05
2.0449e-05
2.04391e-05
2.0564e-05
2.05774e-05
2.05786e-05
2.05793e-05
2.05797e-05
2.05795e-05
2.05791e-05
2.05788e-05
2.05794e-05
2.05809e-05
2.05825e-05
2.05837e-05
2.05837e-05
2.05822e-05
2.05799e-05
2.05785e-05
2.05788e-05
2.05799e-05
2.05809e-05
2.05816e-05
2.05819e-05
2.05815e-05
2.05802e-05
2.05793e-05
2.05818e-05
2.05859e-05
2.05932e-05
2.05798e-05
2.04476e-05
2.0439e-05
2.0566e-05
2.05796e-05
2.05815e-05
2.05829e-05
2.05839e-05
2.05841e-05
2.0583e-05
2.05808e-05
2.05787e-05
2.05799e-05
2.05822e-05
2.05841e-05
2.05848e-05
2.05835e-05
2.05805e-05
2.05768e-05
2.05761e-05
2.0579e-05
2.05811e-05
2.0582e-05
2.05816e-05
2.058e-05
2.05784e-05
2.05792e-05
2.0584e-05
2.05892e-05
2.05925e-05
2.05772e-05
2.04442e-05
2.04398e-05
2.05691e-05
2.05827e-05
2.05847e-05
2.05862e-05
2.05872e-05
2.05873e-05
2.05864e-05
2.05844e-05
2.05817e-05
2.05796e-05
2.05806e-05
2.05819e-05
2.05829e-05
2.05831e-05
2.05824e-05
2.0581e-05
2.058e-05
2.05803e-05
2.05812e-05
2.05816e-05
2.05809e-05
2.05794e-05
2.05785e-05
2.05808e-05
2.05854e-05
2.05887e-05
2.05882e-05
2.05718e-05
2.04411e-05
2.04449e-05
2.0571e-05
2.05839e-05
2.05853e-05
2.05863e-05
2.05867e-05
2.05869e-05
2.05868e-05
2.05862e-05
2.05852e-05
2.05832e-05
2.05805e-05
2.0579e-05
2.05797e-05
2.0582e-05
2.05844e-05
2.05859e-05
2.05863e-05
2.05858e-05
2.05849e-05
2.05837e-05
2.0582e-05
2.05799e-05
2.05786e-05
2.05812e-05
2.0584e-05
2.05847e-05
2.05824e-05
2.05676e-05
2.04396e-05
2.04488e-05
2.05717e-05
2.05833e-05
2.0584e-05
2.05836e-05
2.05827e-05
2.05822e-05
2.05829e-05
2.05843e-05
2.05853e-05
2.05849e-05
2.05828e-05
2.05798e-05
2.05788e-05
2.05809e-05
2.05848e-05
2.05883e-05
2.05907e-05
2.05917e-05
2.05909e-05
2.05888e-05
2.05856e-05
2.05823e-05
2.05803e-05
2.05812e-05
2.05823e-05
2.05825e-05
2.05813e-05
2.05674e-05
2.04411e-05
2.04482e-05
2.05748e-05
2.05855e-05
2.0585e-05
2.05834e-05
2.05814e-05
2.05801e-05
2.05805e-05
2.05818e-05
2.0583e-05
2.05837e-05
2.05833e-05
2.05817e-05
2.05792e-05
2.0579e-05
2.05836e-05
2.05889e-05
2.05928e-05
2.05945e-05
2.05939e-05
2.05914e-05
2.05877e-05
2.05835e-05
2.05803e-05
2.05804e-05
2.05819e-05
2.0583e-05
2.05825e-05
2.05705e-05
2.04432e-05
2.04462e-05
2.05779e-05
2.05887e-05
2.05891e-05
2.05903e-05
2.05914e-05
2.05921e-05
2.05915e-05
2.05889e-05
2.05852e-05
2.05836e-05
2.05847e-05
2.05854e-05
2.05849e-05
2.05842e-05
2.05855e-05
2.05881e-05
2.05901e-05
2.05909e-05
2.05904e-05
2.05888e-05
2.05863e-05
2.05831e-05
2.05804e-05
2.05809e-05
2.05825e-05
2.05835e-05
2.05839e-05
2.0572e-05
2.04444e-05
2.04546e-05
2.05767e-05
2.05906e-05
2.05942e-05
2.05991e-05
2.06027e-05
2.06036e-05
2.0601e-05
2.05954e-05
2.05889e-05
2.05844e-05
2.05857e-05
2.05888e-05
2.05913e-05
2.05924e-05
2.05917e-05
2.05891e-05
2.05853e-05
2.05827e-05
2.05827e-05
2.05838e-05
2.05843e-05
2.05836e-05
2.05826e-05
2.05825e-05
2.0583e-05
2.05842e-05
2.05853e-05
2.05725e-05
2.04461e-05
2.04628e-05
2.05717e-05
2.05948e-05
2.06017e-05
2.06065e-05
2.06079e-05
2.06057e-05
2.06004e-05
2.05937e-05
2.05872e-05
2.05827e-05
2.05844e-05
2.05893e-05
2.05937e-05
2.05956e-05
2.05946e-05
2.05909e-05
2.05854e-05
2.05801e-05
2.05781e-05
2.05808e-05
2.05836e-05
2.05849e-05
2.05847e-05
2.0584e-05
2.05848e-05
2.05879e-05
2.05895e-05
2.0578e-05
2.04515e-05
2.04634e-05
2.05856e-05
2.0603e-05
2.06062e-05
2.06062e-05
2.06028e-05
2.05972e-05
2.05915e-05
2.05871e-05
2.05836e-05
2.05811e-05
2.05831e-05
2.05882e-05
2.05927e-05
2.05948e-05
2.05943e-05
2.05919e-05
2.05883e-05
2.05841e-05
2.05809e-05
2.0581e-05
2.05834e-05
2.05852e-05
2.05856e-05
2.05861e-05
2.05884e-05
2.05916e-05
2.05941e-05
2.05847e-05
2.04553e-05
2.04567e-05
2.0599e-05
2.06083e-05
2.06059e-05
2.06003e-05
2.0593e-05
2.05864e-05
2.05846e-05
2.05852e-05
2.05843e-05
2.05833e-05
2.05849e-05
2.05882e-05
2.05911e-05
2.05926e-05
2.05931e-05
2.05922e-05
2.059e-05
2.05869e-05
2.05841e-05
2.05827e-05
2.05831e-05
2.05843e-05
2.05854e-05
2.05872e-05
2.05901e-05
2.05931e-05
2.05952e-05
2.05834e-05
2.04531e-05
2.04542e-05
2.06047e-05
2.06104e-05
2.06053e-05
2.05984e-05
2.05917e-05
2.05876e-05
2.05863e-05
2.05862e-05
2.05856e-05
2.05861e-05
2.05865e-05
2.0587e-05
2.05878e-05
2.0589e-05
2.05901e-05
2.05905e-05
2.05899e-05
2.05884e-05
2.05863e-05
2.05843e-05
2.05842e-05
2.05853e-05
2.05865e-05
2.05888e-05
2.05914e-05
2.05928e-05
2.05925e-05
2.05783e-05
2.04503e-05
2.04619e-05
2.06057e-05
2.06121e-05
2.06073e-05
2.06016e-05
2.0597e-05
2.05938e-05
2.05911e-05
2.05883e-05
2.05864e-05
2.05852e-05
2.0584e-05
2.05835e-05
2.05834e-05
2.05841e-05
2.05855e-05
2.05871e-05
2.0588e-05
2.05878e-05
2.05864e-05
2.0585e-05
2.05852e-05
2.05864e-05
2.059e-05
2.05938e-05
2.05948e-05
2.0594e-05
2.05921e-05
2.05784e-05
2.04518e-05
2.04694e-05
2.06051e-05
2.06131e-05
2.06089e-05
2.06042e-05
2.06008e-05
2.05982e-05
2.05955e-05
2.05923e-05
2.05893e-05
2.05866e-05
2.0584e-05
2.05817e-05
2.05798e-05
2.058e-05
2.05825e-05
2.05851e-05
2.05864e-05
2.05865e-05
2.0586e-05
2.0586e-05
2.05885e-05
2.05942e-05
2.05989e-05
2.06e-05
2.05985e-05
2.05976e-05
2.05975e-05
2.05874e-05
2.04587e-05
2.04755e-05
2.06032e-05
2.06122e-05
2.06091e-05
2.06062e-05
2.06044e-05
2.06025e-05
2.06e-05
2.05969e-05
2.05934e-05
2.05897e-05
2.05856e-05
2.0582e-05
2.05814e-05
2.05838e-05
2.05863e-05
2.05874e-05
2.05874e-05
2.05878e-05
2.05895e-05
2.05935e-05
2.05992e-05
2.06031e-05
2.06029e-05
2.05999e-05
2.05982e-05
2.05987e-05
2.06007e-05
2.05911e-05
2.04621e-05
2.04795e-05
2.06011e-05
2.06124e-05
2.06111e-05
2.06097e-05
2.06082e-05
2.0606e-05
2.0603e-05
2.05996e-05
2.05956e-05
2.05908e-05
2.05866e-05
2.05864e-05
2.05891e-05
2.05901e-05
2.05891e-05
2.05877e-05
2.05882e-05
2.05913e-05
2.05968e-05
2.06033e-05
2.06072e-05
2.0606e-05
2.06021e-05
2.06007e-05
2.06015e-05
2.06033e-05
2.06047e-05
2.05929e-05
2.04666e-05
2.04815e-05
2.06013e-05
2.06151e-05
2.06152e-05
2.06139e-05
2.06115e-05
2.06083e-05
2.06048e-05
2.06011e-05
2.05971e-05
2.05931e-05
2.05915e-05
2.05925e-05
2.05913e-05
2.05881e-05
2.05854e-05
2.05858e-05
2.05898e-05
2.05965e-05
2.06041e-05
2.06089e-05
2.06086e-05
2.06053e-05
2.06045e-05
2.0606e-05
2.06086e-05
2.0611e-05
2.06111e-05
2.05983e-05
2.04736e-05
2.0484e-05
2.06067e-05
2.06208e-05
2.06208e-05
2.06186e-05
2.06154e-05
2.0612e-05
2.06088e-05
2.06053e-05
2.06013e-05
2.05975e-05
2.0596e-05
2.05937e-05
2.05888e-05
2.05841e-05
2.05845e-05
2.05876e-05
2.05936e-05
2.06024e-05
2.06084e-05
2.06094e-05
2.06078e-05
2.06088e-05
2.06115e-05
2.06148e-05
2.06184e-05
2.06201e-05
2.06202e-05
2.06068e-05
2.04831e-05
2.04926e-05
2.06164e-05
2.06295e-05
2.06286e-05
2.06256e-05
2.06223e-05
2.06194e-05
2.06164e-05
2.06125e-05
2.06078e-05
2.06031e-05
2.05992e-05
2.05938e-05
2.05881e-05
2.05868e-05
2.05875e-05
2.05907e-05
2.05988e-05
2.06054e-05
2.06077e-05
2.06085e-05
2.06128e-05
2.0617e-05
2.06204e-05
2.06251e-05
2.06282e-05
2.063e-05
2.06308e-05
2.06186e-05
2.04965e-05
2.0507e-05
2.06298e-05
2.06416e-05
2.06398e-05
2.06366e-05
2.06335e-05
2.06304e-05
2.06267e-05
2.06218e-05
2.06163e-05
2.06103e-05
2.06037e-05
2.05972e-05
2.05934e-05
2.05908e-05
2.05894e-05
2.05935e-05
2.06e-05
2.06045e-05
2.06093e-05
2.06162e-05
2.06216e-05
2.06254e-05
2.06304e-05
2.06349e-05
2.06381e-05
2.0641e-05
2.06441e-05
2.06365e-05
2.05083e-05
2.05261e-05
2.06465e-05
2.06575e-05
2.06551e-05
2.06516e-05
2.06478e-05
2.06434e-05
2.06381e-05
2.0632e-05
2.0625e-05
2.06174e-05
2.06102e-05
2.06049e-05
2.06006e-05
2.05953e-05
2.05926e-05
2.05957e-05
2.06022e-05
2.06109e-05
2.06196e-05
2.06257e-05
2.06306e-05
2.06363e-05
2.0642e-05
2.06468e-05
2.06522e-05
2.06565e-05
2.06609e-05
2.06515e-05
2.05232e-05
2.0548e-05
2.06664e-05
2.0677e-05
2.06739e-05
2.06693e-05
2.06639e-05
2.06576e-05
2.06507e-05
2.06432e-05
2.06353e-05
2.06275e-05
2.06213e-05
2.0616e-05
2.06091e-05
2.06014e-05
2.05987e-05
2.06037e-05
2.06128e-05
2.06225e-05
2.06303e-05
2.06367e-05
2.06439e-05
2.06505e-05
2.06568e-05
2.06633e-05
2.0671e-05
2.06767e-05
2.0678e-05
2.0667e-05
2.05447e-05
2.05721e-05
2.06892e-05
2.06989e-05
2.06949e-05
2.06895e-05
2.0683e-05
2.06754e-05
2.06674e-05
2.06588e-05
2.065e-05
2.06421e-05
2.06352e-05
2.0627e-05
2.06172e-05
2.06086e-05
2.06073e-05
2.06143e-05
2.06244e-05
2.06344e-05
2.06433e-05
2.06514e-05
2.06602e-05
2.06685e-05
2.06771e-05
2.06849e-05
2.06939e-05
2.07e-05
2.0699e-05
2.06889e-05
2.05723e-05
2.05994e-05
2.07155e-05
2.0725e-05
2.07207e-05
2.07146e-05
2.07073e-05
2.0699e-05
2.06898e-05
2.06795e-05
2.06688e-05
2.06592e-05
2.0649e-05
2.06371e-05
2.06249e-05
2.06161e-05
2.06162e-05
2.06245e-05
2.06352e-05
2.06466e-05
2.0658e-05
2.06687e-05
2.06799e-05
2.06915e-05
2.07023e-05
2.07104e-05
2.07195e-05
2.07264e-05
2.07268e-05
2.07206e-05
2.06024e-05
2.06327e-05
2.07486e-05
2.07581e-05
2.07532e-05
2.0746e-05
2.07375e-05
2.07277e-05
2.07168e-05
2.07043e-05
2.06911e-05
2.06782e-05
2.06643e-05
2.06494e-05
2.06355e-05
2.06262e-05
2.06267e-05
2.0636e-05
2.06483e-05
2.06618e-05
2.06766e-05
2.06911e-05
2.07055e-05
2.07196e-05
2.07311e-05
2.07396e-05
2.07479e-05
2.07574e-05
2.07631e-05
2.07556e-05
2.06364e-05
2.06742e-05
2.079e-05
2.07985e-05
2.07923e-05
2.07835e-05
2.07734e-05
2.0762e-05
2.07492e-05
2.07345e-05
2.07184e-05
2.07018e-05
2.06844e-05
2.06669e-05
2.06511e-05
2.06405e-05
2.06405e-05
2.06512e-05
2.06664e-05
2.06831e-05
2.07005e-05
2.0719e-05
2.07362e-05
2.07503e-05
2.07633e-05
2.07736e-05
2.07831e-05
2.07955e-05
2.08044e-05
2.07944e-05
2.0678e-05
2.0725e-05
2.0839e-05
2.08463e-05
2.08391e-05
2.08288e-05
2.08169e-05
2.08036e-05
2.07886e-05
2.07713e-05
2.0752e-05
2.07312e-05
2.07101e-05
2.06898e-05
2.06719e-05
2.06595e-05
2.06591e-05
2.06713e-05
2.06905e-05
2.07105e-05
2.07309e-05
2.07526e-05
2.07703e-05
2.07857e-05
2.08024e-05
2.08164e-05
2.08274e-05
2.08418e-05
2.08505e-05
2.08409e-05
2.07284e-05
2.07862e-05
2.08979e-05
2.09045e-05
2.08963e-05
2.08844e-05
2.08701e-05
2.08541e-05
2.08358e-05
2.08151e-05
2.07922e-05
2.07677e-05
2.07432e-05
2.07196e-05
2.06985e-05
2.06841e-05
2.0684e-05
2.06975e-05
2.072e-05
2.07442e-05
2.07679e-05
2.07911e-05
2.08122e-05
2.08316e-05
2.08522e-05
2.08686e-05
2.08827e-05
2.08972e-05
2.09054e-05
2.08981e-05
2.07887e-05
2.08603e-05
2.09701e-05
2.09758e-05
2.09658e-05
2.09511e-05
2.09336e-05
2.09142e-05
2.08923e-05
2.08681e-05
2.08416e-05
2.08136e-05
2.07852e-05
2.07571e-05
2.07319e-05
2.07154e-05
2.07166e-05
2.07319e-05
2.07567e-05
2.07854e-05
2.08126e-05
2.08395e-05
2.08674e-05
2.08901e-05
2.09125e-05
2.09328e-05
2.09506e-05
2.09641e-05
2.09734e-05
2.09678e-05
2.08614e-05
2.09505e-05
2.10572e-05
2.10606e-05
2.10479e-05
2.10305e-05
2.10103e-05
2.09878e-05
2.09624e-05
2.09345e-05
2.09041e-05
2.08718e-05
2.08386e-05
2.08056e-05
2.07763e-05
2.07574e-05
2.07599e-05
2.07785e-05
2.0806e-05
2.08388e-05
2.0871e-05
2.09032e-05
2.09362e-05
2.09624e-05
2.0987e-05
2.1013e-05
2.10316e-05
2.10454e-05
2.10561e-05
2.10529e-05
2.09501e-05
2.10591e-05
2.11601e-05
2.11611e-05
2.11467e-05
2.11278e-05
2.11052e-05
2.10794e-05
2.10502e-05
2.10181e-05
2.09833e-05
2.09459e-05
2.09073e-05
2.08698e-05
2.08374e-05
2.08157e-05
2.08175e-05
2.08394e-05
2.08703e-05
2.09081e-05
2.09475e-05
2.09835e-05
2.10207e-05
2.10506e-05
2.108e-05
2.11089e-05
2.11293e-05
2.11449e-05
2.11586e-05
2.1158e-05
2.10589e-05
2.11883e-05
2.12834e-05
2.12837e-05
2.12684e-05
2.12474e-05
2.12215e-05
2.11916e-05
2.11581e-05
2.11214e-05
2.10814e-05
2.10382e-05
2.09941e-05
2.09523e-05
2.0917e-05
2.08926e-05
2.08915e-05
2.09162e-05
2.09522e-05
2.09963e-05
2.10419e-05
2.10825e-05
2.11228e-05
2.1159e-05
2.11928e-05
2.12242e-05
2.12478e-05
2.12675e-05
2.12845e-05
2.12851e-05
2.11909e-05
2.13431e-05
2.1435e-05
2.14339e-05
2.1416e-05
2.13912e-05
2.13612e-05
2.1327e-05
2.12889e-05
2.12468e-05
2.1201e-05
2.11528e-05
2.11039e-05
2.10568e-05
2.10162e-05
2.09889e-05
2.09856e-05
2.10141e-05
2.10574e-05
2.1107e-05
2.11566e-05
2.12018e-05
2.12466e-05
2.12902e-05
2.13286e-05
2.13625e-05
2.13908e-05
2.14144e-05
2.14335e-05
2.14369e-05
2.13484e-05
2.15313e-05
2.16186e-05
2.16133e-05
2.15917e-05
2.15639e-05
2.15309e-05
2.14925e-05
2.1449e-05
2.14011e-05
2.13496e-05
2.12969e-05
2.12423e-05
2.11889e-05
2.1141e-05
2.11114e-05
2.11094e-05
2.11408e-05
2.11894e-05
2.12434e-05
2.1297e-05
2.13491e-05
2.14012e-05
2.14501e-05
2.14924e-05
2.15301e-05
2.15639e-05
2.15909e-05
2.16124e-05
2.16208e-05
2.15338e-05
2.17572e-05
2.18372e-05
2.18284e-05
2.18058e-05
2.1776e-05
2.17386e-05
2.16942e-05
2.16457e-05
2.15939e-05
2.1537e-05
2.14779e-05
2.14168e-05
2.13597e-05
2.13049e-05
2.12711e-05
2.12705e-05
2.13038e-05
2.1357e-05
2.14174e-05
2.14768e-05
2.15362e-05
2.15939e-05
2.16462e-05
2.16933e-05
2.17371e-05
2.17755e-05
2.18063e-05
2.18304e-05
2.18416e-05
2.17558e-05
2.20273e-05
2.21047e-05
2.20941e-05
2.20682e-05
2.20322e-05
2.19888e-05
2.19409e-05
2.18888e-05
2.1832e-05
2.17692e-05
2.17044e-05
2.16379e-05
2.15778e-05
2.15172e-05
2.14755e-05
2.14784e-05
2.15181e-05
2.15743e-05
2.16395e-05
2.17043e-05
2.17691e-05
2.18308e-05
2.18884e-05
2.1942e-05
2.19898e-05
2.20306e-05
2.20668e-05
2.20959e-05
2.21101e-05
2.20265e-05
2.23574e-05
2.24376e-05
2.24176e-05
2.23839e-05
2.23432e-05
2.22971e-05
2.22457e-05
2.2187e-05
2.21239e-05
2.2058e-05
2.19913e-05
2.192e-05
2.18533e-05
2.17901e-05
2.17454e-05
2.17489e-05
2.1793e-05
2.18518e-05
2.19197e-05
2.19902e-05
2.20597e-05
2.21243e-05
2.21861e-05
2.22457e-05
2.22983e-05
2.23436e-05
2.23842e-05
2.24198e-05
2.24384e-05
2.2353e-05
2.27658e-05
2.28513e-05
2.2817e-05
2.27801e-05
2.27353e-05
2.26813e-05
2.26237e-05
2.25595e-05
2.24928e-05
2.2426e-05
2.23594e-05
2.22903e-05
2.2226e-05
2.2166e-05
2.21267e-05
2.21294e-05
2.21681e-05
2.22258e-05
2.22906e-05
2.23568e-05
2.24251e-05
2.24945e-05
2.25604e-05
2.26211e-05
2.26785e-05
2.27361e-05
2.27818e-05
2.28219e-05
2.28506e-05
2.27553e-05
2.32854e-05
2.34101e-05
2.33586e-05
2.3317e-05
2.3255e-05
2.31874e-05
2.31261e-05
2.30568e-05
2.29932e-05
2.29447e-05
2.29071e-05
2.28994e-05
2.29265e-05
2.29495e-05
2.29851e-05
2.30091e-05
2.29627e-05
2.29225e-05
2.29053e-05
2.29095e-05
2.29431e-05
2.29935e-05
2.30584e-05
2.3124e-05
2.31836e-05
2.32552e-05
2.33175e-05
2.33589e-05
2.34128e-05
2.32727e-05
2.40994e-05
2.44389e-05
2.43111e-05
2.43433e-05
2.41833e-05
2.40603e-05
2.40448e-05
2.39777e-05
2.39577e-05
2.41029e-05
2.44143e-05
2.5033e-05
2.60026e-05
2.69751e-05
2.77721e-05
2.79395e-05
2.70737e-05
2.60296e-05
2.51145e-05
2.44237e-05
2.412e-05
2.3964e-05
2.39684e-05
2.40471e-05
2.40544e-05
2.41737e-05
2.43545e-05
2.43153e-05
2.44495e-05
2.40766e-05
2.63223e-05
2.76952e-05
2.72227e-05
2.82094e-05
2.71801e-05
2.68579e-05
2.75461e-05
2.74053e-05
2.78271e-05
2.96989e-05
3.27622e-05
3.83241e-05
4.69127e-05
5.4925e-05
6.07015e-05
6.12724e-05
5.58373e-05
4.71179e-05
3.91302e-05
3.29044e-05
2.9885e-05
2.78993e-05
2.7375e-05
2.7544e-05
2.68451e-05
2.71467e-05
2.82541e-05
2.72307e-05
2.77722e-05
2.62279e-05
3.61864e-05
4.06072e-05
3.92277e-05
4.64519e-05
4.13857e-05
4.22115e-05
4.83352e-05
4.79477e-05
5.33548e-05
6.47138e-05
8.55422e-05
0.000120151
0.000159701
0.000194714
0.000219039
0.000217442
0.000198761
0.000160848
0.000122185
8.62487e-05
6.64272e-05
5.38876e-05
4.7786e-05
4.81471e-05
4.22706e-05
4.11654e-05
4.69548e-05
3.9237e-05
4.0886e-05
3.584e-05
8.15358e-05
8.23504e-05
8.9775e-05
0.000114332
0.000110025
0.000135433
0.00015991
0.000162421
0.000208971
0.000296153
0.000323157
0.000455829
0.00050552
0.000593212
0.000612538
0.000617697
0.000578155
0.000529724
0.000432872
0.000333606
0.000306331
0.000211939
0.000162984
0.00015789
0.000135209
0.00010875
0.000118327
9.28351e-05
8.29283e-05
8.10948e-05
0.000196015
0.000196966
0.000263886
0.000294492
0.00031331
0.000454071
0.000473196
0.000530841
0.000633412
0.000841119
0.000724711
0.000999883
0.000923957
0.00110144
0.000989922
0.00109358
0.000975138
0.00103166
0.000847474
0.000785125
0.000861618
0.000635398
0.00053787
0.000471768
0.000451413
0.000366896
0.000310792
0.000276946
0.000199391
0.000196062
0.000361444
0.000500919
0.000506543
0.000582014
0.000677678
0.000979373
0.0010329
0.00107655
0.00120988
0.00143605
0.00120564
0.00166533
0.00162751
0.00168816
0.00145629
0.00165062
0.00156261
0.00157892
0.00131156
0.00128267
0.00143073
0.00118876
0.00106396
0.000930718
0.00096244
0.000751115
0.000614021
0.000532383
0.000513007
0.000362159
0.000500557
0.000557161
0.000640414
0.000693819
0.000890368
0.00112023
0.00124447
0.00128797
0.00136082
0.00186239
0.0017087
0.00220451
0.00176296
0.00201146
0.00169397
0.00201389
0.00177027
0.00201278
0.00155159
0.00149705
0.00172517
0.00138545
0.00126905
0.00118933
0.00114273
0.000938494
0.000746433
0.000667576
0.000563703
0.000507347
0.000593587
0.000605733
0.000737913
0.000812926
0.000994012
0.00114221
0.00126954
0.00154302
0.00134213
0.00164592
0.00145278
0.00150112
0.00153521
0.00154606
0.00157141
0.00162113
0.00169073
0.00147609
0.00161027
0.00150837
0.0016307
0.00145661
0.00151839
0.00133126
0.00115237
0.00105577
0.00086888
0.000782049
0.000590655
0.000615752
0.000570634
0.000599632
0.000663077
0.000845898
0.000909383
0.00108914
0.00113336
0.00118764
0.00131076
0.0013486
0.00122266
0.00141198
0.00135003
0.00148421
0.00139947
0.00163315
0.00143059
0.00144276
0.00138012
0.00141087
0.0014687
0.00126146
0.00120146
0.00114323
0.00115233
0.000927916
0.000862107
0.000691543
0.000580381
0.000596257
0.000319404
0.000410454
0.000542804
0.000629254
0.00064391
0.000670943
0.000726376
0.000768113
0.000827594
0.000928166
0.000980992
0.00109367
0.00114677
0.00119717
0.00126209
0.00129501
0.00117583
0.00112453
0.00110574
0.000988908
0.000931764
0.000821408
0.000785803
0.00074109
0.000669391
0.000654561
0.000632786
0.00054783
0.00041855
0.000328581
0.000219599
0.000273942
0.000356487
0.000425466
0.000379886
0.000401301
0.000475216
0.000528216
0.000575269
0.000646264
0.000683041
0.000731362
0.000769418
0.000823585
0.000903735
0.000898402
0.000825687
0.000756694
0.000738743
0.000666285
0.000640611
0.000583006
0.000538803
0.000482772
0.000404359
0.000380053
0.000422858
0.000355494
0.000277232
0.000219956
0.000177205
0.000200912
0.000229957
0.000272864
0.000229214
0.000227328
0.000279715
0.000346172
0.00042638
0.00050872
0.000551406
0.000576994
0.000587725
0.000615785
0.000644695
0.000640272
0.000615194
0.000583773
0.000571053
0.00053927
0.000503169
0.000427842
0.000349371
0.000282506
0.000227899
0.000229392
0.000272124
0.000229581
0.000203003
0.000178665
0.00014658
0.000155503
0.000161447
0.000175309
0.000161526
0.00015432
0.000168586
0.000202378
0.000264421
0.000351644
0.000431041
0.000493845
0.000529085
0.000550726
0.000553149
0.000550213
0.00055061
0.000528682
0.000488759
0.000423402
0.000348294
0.000262785
0.000202965
0.000169459
0.000155037
0.000162386
0.0001764
0.000161268
0.000155939
0.00014749
0.000126318
0.000125337
0.000125721
0.000128515
0.000125581
0.000123291
0.000127052
0.000137249
0.00016181
0.000212073
0.000285004
0.000369139
0.00044452
0.000496463
0.000510103
0.000507863
0.000496676
0.000444839
0.00036695
0.000281336
0.000210108
0.000161208
0.000137199
0.000127252
0.000123675
0.000126235
0.0001291
0.000126238
0.000125943
0.000126193
0.0001097
0.000107193
0.000105829
0.000106286
0.000105678
0.000105866
0.000107566
0.000111319
0.000119125
0.000136641
0.000172299
0.000231136
0.000305411
0.00037594
0.000413692
0.000411203
0.000375932
0.000306402
0.000230299
0.000171086
0.000136051
0.000118971
0.000111212
0.000107614
0.000105937
0.000105736
0.000106412
0.000106196
0.000107546
0.000110261
9.77911e-05
9.45814e-05
9.34646e-05
9.35388e-05
9.3691e-05
9.44965e-05
9.56618e-05
9.75527e-05
0.000100456
0.000105631
0.000116487
0.000138923
0.000176851
0.000223872
0.000261169
0.000260055
0.000223489
0.00017699
0.000138705
0.000116166
0.000105349
0.000100102
9.75838e-05
9.56424e-05
9.45026e-05
9.36432e-05
9.35984e-05
9.37539e-05
9.49708e-05
9.80752e-05
8.84902e-05
8.47057e-05
8.39415e-05
8.40177e-05
8.44558e-05
8.5306e-05
8.63112e-05
8.75318e-05
8.88178e-05
9.04679e-05
9.31017e-05
9.85805e-05
0.000109273
0.000125443
0.000141127
0.000140964
0.000125301
0.00010916
9.86374e-05
9.30207e-05
9.05325e-05
8.86271e-05
8.75485e-05
8.62853e-05
8.52915e-05
8.46238e-05
8.39337e-05
8.4199e-05
8.51021e-05
8.86382e-05
8.05218e-05
7.66014e-05
7.58147e-05
7.58835e-05
7.65607e-05
7.73194e-05
7.80268e-05
7.87612e-05
7.93633e-05
7.9853e-05
8.02828e-05
8.11531e-05
8.28614e-05
8.59195e-05
8.92265e-05
8.91499e-05
8.59544e-05
8.28556e-05
8.12641e-05
8.01984e-05
7.97773e-05
7.92187e-05
7.87265e-05
7.80133e-05
7.71578e-05
7.6629e-05
7.60066e-05
7.60479e-05
7.69525e-05
8.0764e-05
7.35377e-05
6.9576e-05
6.88121e-05
6.8953e-05
6.95325e-05
7.01022e-05
7.05068e-05
7.08204e-05
7.09567e-05
7.08741e-05
7.05962e-05
7.03605e-05
7.00742e-05
7.00211e-05
7.01691e-05
7.01445e-05
7.00958e-05
7.01025e-05
7.03945e-05
7.06436e-05
7.08492e-05
7.09427e-05
7.07829e-05
7.04361e-05
6.99502e-05
6.94168e-05
6.91886e-05
6.90523e-05
6.98411e-05
7.36731e-05
6.71911e-05
6.34081e-05
6.25988e-05
6.27485e-05
6.32657e-05
6.35953e-05
6.36741e-05
6.35988e-05
6.33621e-05
6.29515e-05
6.23862e-05
6.17552e-05
6.10046e-05
6.03534e-05
5.99572e-05
5.99906e-05
6.04497e-05
6.10861e-05
6.17033e-05
6.23937e-05
6.29776e-05
6.3463e-05
6.36191e-05
6.35357e-05
6.3466e-05
6.31655e-05
6.29839e-05
6.28174e-05
6.35383e-05
6.72248e-05
6.13523e-05
5.7798e-05
5.71868e-05
5.73387e-05
5.76041e-05
5.75903e-05
5.74631e-05
5.72011e-05
5.676e-05
5.61271e-05
5.53526e-05
5.44889e-05
5.35567e-05
5.28009e-05
5.23642e-05
5.24439e-05
5.29337e-05
5.37015e-05
5.4506e-05
5.54084e-05
5.61997e-05
5.68344e-05
5.72346e-05
5.74442e-05
5.75208e-05
5.74098e-05
5.72575e-05
5.71936e-05
5.79449e-05
6.13697e-05
5.58917e-05
5.29239e-05
5.23587e-05
5.23322e-05
5.23022e-05
5.2196e-05
5.19936e-05
5.15903e-05
5.10019e-05
5.02173e-05
4.93201e-05
4.83694e-05
4.74104e-05
4.66484e-05
4.6188e-05
4.62247e-05
4.66931e-05
4.74703e-05
4.83743e-05
4.93613e-05
5.02851e-05
5.10537e-05
5.15776e-05
5.19502e-05
5.2126e-05
5.2155e-05
5.214e-05
5.22266e-05
5.29869e-05
5.60747e-05
5.12128e-05
4.85508e-05
4.78778e-05
4.77495e-05
4.7679e-05
4.75656e-05
4.72251e-05
4.66898e-05
4.60198e-05
4.51845e-05
4.42523e-05
4.32972e-05
4.23601e-05
4.1591e-05
4.11e-05
4.1085e-05
4.15415e-05
4.23119e-05
4.32455e-05
4.42332e-05
4.5184e-05
4.60287e-05
4.6654e-05
4.71058e-05
4.73946e-05
4.75587e-05
4.76727e-05
4.78423e-05
4.85366e-05
5.12597e-05
4.68721e-05
4.44475e-05
4.39013e-05
4.37854e-05
4.36649e-05
4.33846e-05
4.29515e-05
4.24045e-05
4.17248e-05
4.08899e-05
3.99738e-05
3.90379e-05
3.81237e-05
3.73593e-05
3.6871e-05
3.68333e-05
3.7264e-05
3.80057e-05
3.89247e-05
3.98994e-05
4.08465e-05
4.16969e-05
4.23722e-05
4.28823e-05
4.32614e-05
4.35362e-05
4.37367e-05
4.39293e-05
4.45354e-05
4.6915e-05
4.29741e-05
4.10169e-05
4.05632e-05
4.03487e-05
4.00722e-05
3.96882e-05
3.92709e-05
3.87314e-05
3.80563e-05
3.72617e-05
3.63981e-05
3.54893e-05
3.45901e-05
3.3838e-05
3.33725e-05
3.33342e-05
3.37339e-05
3.44378e-05
3.53274e-05
3.62822e-05
3.7213e-05
3.80419e-05
3.87186e-05
3.92577e-05
3.96891e-05
4.00234e-05
4.0267e-05
4.04788e-05
4.10297e-05
4.30871e-05
3.97283e-05
3.81604e-05
3.76171e-05
3.73024e-05
3.69625e-05
3.66405e-05
3.62391e-05
3.56878e-05
3.5037e-05
3.42962e-05
3.34745e-05
3.25875e-05
3.17289e-05
3.10339e-05
3.06131e-05
3.05827e-05
3.09574e-05
3.16317e-05
3.24863e-05
3.33883e-05
3.42484e-05
3.50147e-05
3.56614e-05
3.62e-05
3.66438e-05
3.69971e-05
3.72672e-05
3.75001e-05
3.79936e-05
3.97203e-05
3.69005e-05
3.54669e-05
3.49367e-05
3.46634e-05
3.44103e-05
3.41378e-05
3.37107e-05
3.31785e-05
3.25733e-05
3.18663e-05
3.10696e-05
3.02341e-05
2.94623e-05
2.88432e-05
2.84543e-05
2.84215e-05
2.87761e-05
2.94185e-05
3.0211e-05
3.10188e-05
3.17775e-05
3.24742e-05
3.30951e-05
3.36333e-05
3.40769e-05
3.44274e-05
3.46954e-05
3.4916e-05
3.53279e-05
3.67458e-05
3.43265e-05
3.30372e-05
3.26832e-05
3.24928e-05
3.22878e-05
3.19757e-05
3.15541e-05
3.10793e-05
3.05206e-05
2.98548e-05
2.91123e-05
2.8357e-05
2.76615e-05
2.70831e-05
2.67094e-05
2.66864e-05
2.70372e-05
2.76397e-05
2.83491e-05
2.9058e-05
2.97382e-05
3.03887e-05
3.09857e-05
3.14989e-05
3.19096e-05
3.22248e-05
3.24624e-05
3.26539e-05
3.2993e-05
3.41583e-05
3.20034e-05
3.1048e-05
3.08115e-05
3.06352e-05
3.04084e-05
3.00924e-05
2.97382e-05
2.93259e-05
2.88131e-05
2.82056e-05
2.75402e-05
2.68689e-05
2.62341e-05
2.56908e-05
2.53472e-05
2.53477e-05
2.5687e-05
2.6231e-05
2.68551e-05
2.74855e-05
2.81058e-05
2.87023e-05
2.92432e-05
2.9696e-05
3.00532e-05
3.03284e-05
3.05398e-05
3.07122e-05
3.09967e-05
3.19487e-05
3.01172e-05
2.94472e-05
2.91872e-05
2.90007e-05
2.87903e-05
2.854e-05
2.82528e-05
2.78765e-05
2.7401e-05
2.6849e-05
2.62627e-05
2.56761e-05
2.5109e-05
2.46185e-05
2.43204e-05
2.43363e-05
2.46452e-05
2.51221e-05
2.56671e-05
2.62278e-05
2.67831e-05
2.73089e-05
2.77758e-05
2.81645e-05
2.84758e-05
2.8722e-05
2.89149e-05
2.90707e-05
2.93064e-05
3.00673e-05
2.86001e-05
2.79996e-05
2.77371e-05
2.76098e-05
2.74545e-05
2.72542e-05
2.69862e-05
2.6628e-05
2.61956e-05
2.57188e-05
2.52345e-05
2.47461e-05
2.42558e-05
2.38252e-05
2.35681e-05
2.35822e-05
2.38462e-05
2.42507e-05
2.47167e-05
2.52053e-05
2.56894e-05
2.61421e-05
2.65403e-05
2.68756e-05
2.7152e-05
2.73751e-05
2.75492e-05
2.76848e-05
2.78732e-05
2.84632e-05
2.72032e-05
2.66556e-05
2.65223e-05
2.6451e-05
2.63119e-05
2.61179e-05
2.58551e-05
2.55318e-05
2.51676e-05
2.4791e-05
2.44118e-05
2.40061e-05
2.35812e-05
2.32068e-05
2.29806e-05
2.29789e-05
2.31894e-05
2.35237e-05
2.39228e-05
2.43513e-05
2.47748e-05
2.51668e-05
2.55124e-05
2.5809e-05
2.6057e-05
2.62553e-05
2.64032e-05
2.65134e-05
2.66589e-05
2.71048e-05
2.59532e-05
2.56149e-05
2.55753e-05
2.54807e-05
2.53369e-05
2.51519e-05
2.49201e-05
2.46544e-05
2.43662e-05
2.40691e-05
2.37474e-05
2.33839e-05
2.30102e-05
2.26934e-05
2.24995e-05
2.24843e-05
2.26473e-05
2.29302e-05
2.32838e-05
2.36663e-05
2.40413e-05
2.4384e-05
2.46861e-05
2.49461e-05
2.51599e-05
2.53234e-05
2.54385e-05
2.55223e-05
2.56338e-05
2.59717e-05
2.50372e-05
2.48932e-05
2.47988e-05
2.46771e-05
2.45537e-05
2.43964e-05
2.4209e-05
2.39983e-05
2.37726e-05
2.35238e-05
2.32301e-05
2.29027e-05
2.25896e-05
2.23358e-05
2.21731e-05
2.21474e-05
2.22747e-05
2.2517e-05
2.28258e-05
2.31562e-05
2.34739e-05
2.3761e-05
2.40135e-05
2.423e-05
2.44048e-05
2.45353e-05
2.46278e-05
2.4698e-05
2.4787e-05
2.50366e-05
2.43633e-05
2.42228e-05
2.40893e-05
2.40119e-05
2.39263e-05
2.38041e-05
2.36543e-05
2.34864e-05
2.33048e-05
2.30885e-05
2.28281e-05
2.25565e-05
2.23155e-05
2.21202e-05
2.19829e-05
2.19511e-05
2.20471e-05
2.22418e-05
2.24919e-05
2.27564e-05
2.30091e-05
2.32403e-05
2.34469e-05
2.36252e-05
2.37709e-05
2.38832e-05
2.39668e-05
2.40306e-05
2.40988e-05
2.42685e-05
2.37204e-05
2.35578e-05
2.3502e-05
2.34859e-05
2.34329e-05
2.33367e-05
2.32062e-05
2.30617e-05
2.29033e-05
2.27119e-05
2.24957e-05
2.22891e-05
2.21097e-05
2.19538e-05
2.18355e-05
2.18029e-05
2.18772e-05
2.20308e-05
2.22255e-05
2.24309e-05
2.26314e-05
2.2822e-05
2.29971e-05
2.31492e-05
2.32743e-05
2.33721e-05
2.3445e-05
2.34968e-05
2.35384e-05
2.36367e-05
2.31234e-05
2.30477e-05
2.30855e-05
2.30885e-05
2.30388e-05
2.29439e-05
2.28226e-05
2.26989e-05
2.25632e-05
2.24021e-05
2.22338e-05
2.20803e-05
2.1938e-05
2.18025e-05
2.16973e-05
2.16725e-05
2.1743e-05
2.18737e-05
2.20309e-05
2.21955e-05
2.23596e-05
2.2519e-05
2.26662e-05
2.27927e-05
2.28947e-05