/*--------------------------------*- C++ -*----------------------------------*\
| =========                 |                                                 |
| \\      /  F ield         | OpenFOAM: The Open Source CFD Toolbox           |
|  \\    /   O peration     | Version:  2312                                  |
|   \\  /    A nd           | Website:  www.openfoam.com                      |
|    \\/     M anipulation  |                                                 |
\*---------------------------------------------------------------------------*/
FoamFile
{
    version     2.0;
    format      ascii;
    arch        "LSB;label=32;scalar=64";
    class       volScalarField;
    location    "1.4496027068";
    object      nut;
}
// * * * * * * * * * * * * * * * * * * * * * * * * * * * * * * * * * * * * * //

dimensions      [0 2 -1 0 0 0 0];

internalField   nonuniform List<scalar> 
90000
(
5.04063e-06
5.0413e-06
5.04146e-06
5.04151e-06
5.0416e-06
5.04164e-06
5.04167e-06
5.04168e-06
5.04166e-06
5.04157e-06
5.04144e-06
5.04127e-06
5.04111e-06
5.04107e-06
5.04116e-06
5.04122e-06
5.04124e-06
5.04128e-06
5.04137e-06
5.04139e-06
5.04126e-06
5.04118e-06
5.04152e-06
5.04213e-06
5.04263e-06
5.04281e-06
5.04255e-06
5.0423e-06
5.04354e-06
5.04579e-06
5.04175e-06
5.05609e-06
5.05747e-06
5.0575e-06
5.05747e-06
5.05747e-06
5.0575e-06
5.05754e-06
5.05755e-06
5.05755e-06
5.05757e-06
5.05763e-06
5.05768e-06
5.05771e-06
5.05769e-06
5.05763e-06
5.05756e-06
5.05754e-06
5.05753e-06
5.05751e-06
5.05759e-06
5.05775e-06
5.05791e-06
5.05796e-06
5.05786e-06
5.05777e-06
5.0581e-06
5.05916e-06
5.05856e-06
5.04895e-06
5.04168e-06
5.05763e-06
5.05928e-06
5.05938e-06
5.05939e-06
5.05943e-06
5.05948e-06
5.0595e-06
5.05945e-06
5.05936e-06
5.05937e-06
5.05952e-06
5.05973e-06
5.05987e-06
5.05986e-06
5.05969e-06
5.0594e-06
5.05918e-06
5.05938e-06
5.05967e-06
5.05985e-06
5.05986e-06
5.05973e-06
5.05956e-06
5.05966e-06
5.05998e-06
5.06028e-06
5.06138e-06
5.06283e-06
5.04773e-06
5.04149e-06
5.05759e-06
5.05944e-06
5.05961e-06
5.0597e-06
5.05978e-06
5.05986e-06
5.05989e-06
5.05986e-06
5.05974e-06
5.05963e-06
5.05966e-06
5.05977e-06
5.05987e-06
5.05986e-06
5.05969e-06
5.05947e-06
5.05947e-06
5.05977e-06
5.06e-06
5.06001e-06
5.05985e-06
5.05984e-06
5.06026e-06
5.06066e-06
5.06098e-06
5.0615e-06
5.06157e-06
5.06234e-06
5.04478e-06
5.04146e-06
5.05753e-06
5.05943e-06
5.05961e-06
5.0597e-06
5.05976e-06
5.05981e-06
5.05986e-06
5.05989e-06
5.05987e-06
5.0598e-06
5.0597e-06
5.05958e-06
5.05946e-06
5.05944e-06
5.0596e-06
5.0598e-06
5.05994e-06
5.05997e-06
5.05986e-06
5.05969e-06
5.05977e-06
5.06018e-06
5.06061e-06
5.06087e-06
5.06087e-06
5.06073e-06
5.06093e-06
5.05981e-06
5.04314e-06
5.04152e-06
5.05758e-06
5.05937e-06
5.0595e-06
5.05954e-06
5.05954e-06
5.05956e-06
5.05962e-06
5.05971e-06
5.05981e-06
5.05988e-06
5.05992e-06
5.05989e-06
5.05975e-06
5.0596e-06
5.05969e-06
5.05988e-06
5.05998e-06
5.05992e-06
5.05978e-06
5.05975e-06
5.05992e-06
5.06017e-06
5.06036e-06
5.06044e-06
5.06038e-06
5.06001e-06
5.06082e-06
5.05906e-06
5.04289e-06
5.0416e-06
5.05765e-06
5.05938e-06
5.05954e-06
5.05963e-06
5.05967e-06
5.05965e-06
5.0596e-06
5.05958e-06
5.05969e-06
5.05989e-06
5.06011e-06
5.06025e-06
5.06025e-06
5.06004e-06
5.05972e-06
5.05955e-06
5.05961e-06
5.05975e-06
5.05988e-06
5.05996e-06
5.06e-06
5.05994e-06
5.05978e-06
5.05965e-06
5.05996e-06
5.06045e-06
5.06142e-06
5.05966e-06
5.04267e-06
5.04158e-06
5.05791e-06
5.05967e-06
5.05993e-06
5.06011e-06
5.06024e-06
5.06026e-06
5.06011e-06
5.05982e-06
5.05957e-06
5.05974e-06
5.06005e-06
5.06031e-06
5.06039e-06
5.06022e-06
5.05982e-06
5.05932e-06
5.05924e-06
5.05962e-06
5.0599e-06
5.06001e-06
5.05997e-06
5.05976e-06
5.05953e-06
5.0596e-06
5.06021e-06
5.06088e-06
5.06133e-06
5.05931e-06
5.04222e-06
5.04169e-06
5.0583e-06
5.06009e-06
5.06035e-06
5.06056e-06
5.06069e-06
5.0607e-06
5.06058e-06
5.0603e-06
5.05993e-06
5.05966e-06
5.05982e-06
5.06001e-06
5.06014e-06
5.06017e-06
5.06007e-06
5.05988e-06
5.05973e-06
5.05976e-06
5.0599e-06
5.05996e-06
5.05987e-06
5.05967e-06
5.05954e-06
5.0598e-06
5.0604e-06
5.06083e-06
5.06076e-06
5.05861e-06
5.0418e-06
5.04236e-06
5.05853e-06
5.06024e-06
5.06044e-06
5.06057e-06
5.06064e-06
5.06065e-06
5.06063e-06
5.06054e-06
5.06039e-06
5.06013e-06
5.05978e-06
5.05961e-06
5.05973e-06
5.06003e-06
5.06034e-06
5.06052e-06
5.06055e-06
5.06048e-06
5.06036e-06
5.06021e-06
5.05999e-06
5.05972e-06
5.05953e-06
5.05987e-06
5.06024e-06
5.06032e-06
5.06002e-06
5.05807e-06
5.04161e-06
5.04287e-06
5.05862e-06
5.06017e-06
5.06026e-06
5.06021e-06
5.06009e-06
5.06003e-06
5.06012e-06
5.0603e-06
5.06042e-06
5.06036e-06
5.06008e-06
5.05969e-06
5.05959e-06
5.05989e-06
5.06039e-06
5.06083e-06
5.06113e-06
5.06125e-06
5.06114e-06
5.06086e-06
5.06046e-06
5.06002e-06
5.05977e-06
5.05991e-06
5.06004e-06
5.06006e-06
5.0599e-06
5.05808e-06
5.04182e-06
5.04279e-06
5.05905e-06
5.06044e-06
5.06038e-06
5.06017e-06
5.05991e-06
5.05975e-06
5.0598e-06
5.05997e-06
5.06013e-06
5.06021e-06
5.06016e-06
5.05994e-06
5.05961e-06
5.05962e-06
5.06023e-06
5.06091e-06
5.06141e-06
5.06163e-06
5.06155e-06
5.06121e-06
5.06073e-06
5.06018e-06
5.05978e-06
5.05982e-06
5.06001e-06
5.06015e-06
5.06007e-06
5.05849e-06
5.04211e-06
5.04251e-06
5.05945e-06
5.06086e-06
5.06092e-06
5.06107e-06
5.06123e-06
5.06132e-06
5.06125e-06
5.06091e-06
5.06043e-06
5.0602e-06
5.06034e-06
5.06043e-06
5.06037e-06
5.06029e-06
5.06046e-06
5.0608e-06
5.06106e-06
5.06116e-06
5.06111e-06
5.0609e-06
5.06056e-06
5.06012e-06
5.05978e-06
5.05987e-06
5.06008e-06
5.0602e-06
5.06025e-06
5.0587e-06
5.04228e-06
5.0436e-06
5.05928e-06
5.06111e-06
5.0616e-06
5.06225e-06
5.06273e-06
5.06284e-06
5.0625e-06
5.06177e-06
5.06092e-06
5.06033e-06
5.06049e-06
5.0609e-06
5.06123e-06
5.06136e-06
5.06126e-06
5.06092e-06
5.06043e-06
5.06011e-06
5.06012e-06
5.06026e-06
5.0603e-06
5.06019e-06
5.06005e-06
5.06006e-06
5.06014e-06
5.0603e-06
5.06044e-06
5.05877e-06
5.0425e-06
5.04466e-06
5.05863e-06
5.06169e-06
5.06261e-06
5.06324e-06
5.06342e-06
5.06312e-06
5.06243e-06
5.06154e-06
5.06069e-06
5.06012e-06
5.06034e-06
5.06098e-06
5.06154e-06
5.06179e-06
5.06165e-06
5.06116e-06
5.06045e-06
5.05977e-06
5.05949e-06
5.05984e-06
5.06019e-06
5.06035e-06
5.06032e-06
5.06024e-06
5.06039e-06
5.06081e-06
5.06102e-06
5.05953e-06
5.04321e-06
5.04469e-06
5.06051e-06
5.06279e-06
5.06321e-06
5.0632e-06
5.06274e-06
5.062e-06
5.06125e-06
5.06066e-06
5.06021e-06
5.0599e-06
5.06017e-06
5.06083e-06
5.06141e-06
5.06168e-06
5.0616e-06
5.06129e-06
5.06082e-06
5.06028e-06
5.05985e-06
5.05985e-06
5.06014e-06
5.06037e-06
5.06043e-06
5.06052e-06
5.06085e-06
5.06129e-06
5.06162e-06
5.06037e-06
5.0437e-06
5.04379e-06
5.06226e-06
5.06348e-06
5.06316e-06
5.06241e-06
5.06144e-06
5.06056e-06
5.06031e-06
5.06038e-06
5.06028e-06
5.06018e-06
5.0604e-06
5.06082e-06
5.06119e-06
5.06138e-06
5.06144e-06
5.06133e-06
5.06104e-06
5.06064e-06
5.06026e-06
5.06006e-06
5.06008e-06
5.06023e-06
5.06038e-06
5.06064e-06
5.06105e-06
5.06144e-06
5.0617e-06
5.06014e-06
5.04338e-06
5.04355e-06
5.06297e-06
5.06372e-06
5.06304e-06
5.06212e-06
5.06123e-06
5.06068e-06
5.06049e-06
5.0605e-06
5.06047e-06
5.06055e-06
5.0606e-06
5.06065e-06
5.06075e-06
5.06091e-06
5.06105e-06
5.0611e-06
5.06102e-06
5.06082e-06
5.06054e-06
5.06027e-06
5.06025e-06
5.06037e-06
5.0605e-06
5.06083e-06
5.06116e-06
5.06135e-06
5.0613e-06
5.05944e-06
5.04298e-06
5.04457e-06
5.06308e-06
5.06393e-06
5.06328e-06
5.06252e-06
5.0619e-06
5.06148e-06
5.06113e-06
5.06079e-06
5.06056e-06
5.06041e-06
5.06024e-06
5.06017e-06
5.06018e-06
5.06027e-06
5.06045e-06
5.06067e-06
5.06078e-06
5.06074e-06
5.06056e-06
5.06038e-06
5.06039e-06
5.06052e-06
5.06098e-06
5.06147e-06
5.06159e-06
5.06147e-06
5.06123e-06
5.05944e-06
5.04321e-06
5.04556e-06
5.06302e-06
5.06405e-06
5.06349e-06
5.06285e-06
5.06238e-06
5.06203e-06
5.06167e-06
5.06127e-06
5.06089e-06
5.06054e-06
5.06022e-06
5.05993e-06
5.0597e-06
5.05975e-06
5.06009e-06
5.06042e-06
5.06058e-06
5.06058e-06
5.06051e-06
5.06051e-06
5.06083e-06
5.06156e-06
5.06217e-06
5.06228e-06
5.06209e-06
5.06198e-06
5.062e-06
5.06073e-06
5.04416e-06
5.04636e-06
5.06277e-06
5.06394e-06
5.06349e-06
5.06308e-06
5.06281e-06
5.06255e-06
5.06222e-06
5.06181e-06
5.06137e-06
5.06091e-06
5.06041e-06
5.05997e-06
5.05993e-06
5.06029e-06
5.06061e-06
5.06073e-06
5.0607e-06
5.06074e-06
5.06096e-06
5.06147e-06
5.06221e-06
5.06272e-06
5.06267e-06
5.06225e-06
5.06204e-06
5.06214e-06
5.06245e-06
5.06122e-06
5.04459e-06
5.04688e-06
5.06247e-06
5.06393e-06
5.06372e-06
5.06348e-06
5.06325e-06
5.06294e-06
5.06255e-06
5.0621e-06
5.0616e-06
5.06102e-06
5.06055e-06
5.0606e-06
5.06099e-06
5.06112e-06
5.06096e-06
5.06073e-06
5.06077e-06
5.06117e-06
5.06189e-06
5.06273e-06
5.06323e-06
5.06306e-06
5.06253e-06
5.06233e-06
5.06244e-06
5.06271e-06
5.06293e-06
5.06139e-06
5.04512e-06
5.04712e-06
5.06246e-06
5.06421e-06
5.06417e-06
5.06396e-06
5.06362e-06
5.0632e-06
5.06275e-06
5.06229e-06
5.06182e-06
5.06137e-06
5.06125e-06
5.06141e-06
5.06127e-06
5.06082e-06
5.06043e-06
5.06044e-06
5.06094e-06
5.06181e-06
5.06281e-06
5.06343e-06
5.06337e-06
5.06292e-06
5.0628e-06
5.06298e-06
5.06334e-06
5.06368e-06
5.0637e-06
5.06203e-06
5.04598e-06
5.04737e-06
5.06305e-06
5.06486e-06
5.06483e-06
5.06453e-06
5.06411e-06
5.06369e-06
5.06329e-06
5.06287e-06
5.0624e-06
5.06197e-06
5.06182e-06
5.06154e-06
5.06088e-06
5.06024e-06
5.06027e-06
5.06064e-06
5.06142e-06
5.06258e-06
5.06335e-06
5.06345e-06
5.06322e-06
5.06333e-06
5.06364e-06
5.06406e-06
5.06456e-06
5.0648e-06
5.06482e-06
5.06306e-06
5.04716e-06
5.04835e-06
5.06421e-06
5.0659e-06
5.06578e-06
5.06541e-06
5.06501e-06
5.06464e-06
5.06426e-06
5.06381e-06
5.06326e-06
5.06272e-06
5.06224e-06
5.06152e-06
5.06074e-06
5.06053e-06
5.06063e-06
5.06105e-06
5.06213e-06
5.06297e-06
5.06324e-06
5.06332e-06
5.06384e-06
5.06432e-06
5.06473e-06
5.06534e-06
5.06576e-06
5.066e-06
5.06608e-06
5.06446e-06
5.04877e-06
5.05005e-06
5.06583e-06
5.06739e-06
5.06718e-06
5.0668e-06
5.06641e-06
5.06603e-06
5.06558e-06
5.06503e-06
5.06439e-06
5.06367e-06
5.06281e-06
5.06192e-06
5.06137e-06
5.06104e-06
5.06089e-06
5.06146e-06
5.0623e-06
5.06285e-06
5.06346e-06
5.0643e-06
5.06493e-06
5.06538e-06
5.06603e-06
5.06659e-06
5.06697e-06
5.06734e-06
5.06768e-06
5.06657e-06
5.05025e-06
5.05237e-06
5.06791e-06
5.06939e-06
5.06913e-06
5.06871e-06
5.06823e-06
5.06769e-06
5.06706e-06
5.06635e-06
5.0655e-06
5.06453e-06
5.06356e-06
5.06281e-06
5.06224e-06
5.06157e-06
5.06127e-06
5.06172e-06
5.06254e-06
5.06364e-06
5.06473e-06
5.06547e-06
5.06607e-06
5.06679e-06
5.06751e-06
5.06808e-06
5.06871e-06
5.06923e-06
5.06972e-06
5.06849e-06
5.05215e-06
5.05509e-06
5.07043e-06
5.07185e-06
5.07149e-06
5.07092e-06
5.07025e-06
5.06948e-06
5.06865e-06
5.06775e-06
5.06675e-06
5.06571e-06
5.06486e-06
5.06416e-06
5.06331e-06
5.06236e-06
5.06204e-06
5.0627e-06
5.06387e-06
5.06509e-06
5.06605e-06
5.06686e-06
5.06778e-06
5.06858e-06
5.06933e-06
5.07011e-06
5.07101e-06
5.07168e-06
5.07189e-06
5.07049e-06
5.05476e-06
5.05813e-06
5.07329e-06
5.07458e-06
5.0741e-06
5.07343e-06
5.07263e-06
5.07171e-06
5.07075e-06
5.06969e-06
5.06855e-06
5.0675e-06
5.06659e-06
5.06558e-06
5.06438e-06
5.06332e-06
5.06315e-06
5.06405e-06
5.06532e-06
5.06658e-06
5.0677e-06
5.06873e-06
5.06984e-06
5.07083e-06
5.07185e-06
5.07281e-06
5.07386e-06
5.07458e-06
5.07456e-06
5.07315e-06
5.0581e-06
5.06157e-06
5.07655e-06
5.07782e-06
5.07731e-06
5.07657e-06
5.0757e-06
5.0747e-06
5.07357e-06
5.07227e-06
5.07089e-06
5.06963e-06
5.06835e-06
5.06689e-06
5.06538e-06
5.06426e-06
5.06426e-06
5.06531e-06
5.06666e-06
5.06812e-06
5.06958e-06
5.07091e-06
5.07233e-06
5.07374e-06
5.07504e-06
5.07603e-06
5.07711e-06
5.07793e-06
5.078e-06
5.077e-06
5.06186e-06
5.06574e-06
5.08066e-06
5.08194e-06
5.08138e-06
5.08051e-06
5.07948e-06
5.0783e-06
5.07693e-06
5.07534e-06
5.07365e-06
5.07201e-06
5.07028e-06
5.06844e-06
5.06671e-06
5.06552e-06
5.06557e-06
5.06674e-06
5.06829e-06
5.07002e-06
5.07189e-06
5.07369e-06
5.07554e-06
5.07731e-06
5.07867e-06
5.07972e-06
5.08077e-06
5.08182e-06
5.08245e-06
5.08142e-06
5.06616e-06
5.07093e-06
5.08582e-06
5.08698e-06
5.08624e-06
5.08517e-06
5.08394e-06
5.08254e-06
5.08094e-06
5.07909e-06
5.07708e-06
5.07502e-06
5.07286e-06
5.07067e-06
5.06867e-06
5.0673e-06
5.06731e-06
5.06867e-06
5.07056e-06
5.07265e-06
5.07486e-06
5.07717e-06
5.07938e-06
5.08116e-06
5.08271e-06
5.084e-06
5.08522e-06
5.08657e-06
5.08761e-06
5.08633e-06
5.07137e-06
5.0773e-06
5.09191e-06
5.09289e-06
5.09202e-06
5.09077e-06
5.08934e-06
5.08774e-06
5.08592e-06
5.08378e-06
5.08137e-06
5.07877e-06
5.07611e-06
5.07353e-06
5.07126e-06
5.06969e-06
5.06964e-06
5.07122e-06
5.07359e-06
5.07608e-06
5.07872e-06
5.08142e-06
5.08363e-06
5.08558e-06
5.08762e-06
5.08936e-06
5.09071e-06
5.09232e-06
5.0934e-06
5.09214e-06
5.07767e-06
5.08494e-06
5.09916e-06
5.10007e-06
5.0991e-06
5.09769e-06
5.09601e-06
5.0941e-06
5.09187e-06
5.08929e-06
5.08641e-06
5.08331e-06
5.08021e-06
5.07722e-06
5.0746e-06
5.07284e-06
5.07279e-06
5.07452e-06
5.07733e-06
5.08035e-06
5.08341e-06
5.08627e-06
5.08882e-06
5.09131e-06
5.09388e-06
5.09584e-06
5.09753e-06
5.09923e-06
5.10024e-06
5.09924e-06
5.0852e-06
5.09413e-06
5.10807e-06
5.1089e-06
5.10773e-06
5.10599e-06
5.10392e-06
5.10158e-06
5.09888e-06
5.09586e-06
5.09253e-06
5.08901e-06
5.08544e-06
5.08195e-06
5.07885e-06
5.07686e-06
5.07691e-06
5.07883e-06
5.08196e-06
5.08552e-06
5.08895e-06
5.09227e-06
5.09564e-06
5.09858e-06
5.10138e-06
5.10373e-06
5.10589e-06
5.10756e-06
5.10869e-06
5.10787e-06
5.09423e-06
5.10529e-06
5.11881e-06
5.11938e-06
5.1179e-06
5.11584e-06
5.11342e-06
5.11068e-06
5.10755e-06
5.10407e-06
5.10028e-06
5.09628e-06
5.09218e-06
5.08811e-06
5.08444e-06
5.08213e-06
5.08233e-06
5.08466e-06
5.08814e-06
5.09218e-06
5.09613e-06
5.10014e-06
5.1042e-06
5.10753e-06
5.11054e-06
5.11356e-06
5.11592e-06
5.11765e-06
5.11892e-06
5.11833e-06
5.10521e-06
5.1187e-06
5.13147e-06
5.13177e-06
5.13009e-06
5.12785e-06
5.12512e-06
5.12197e-06
5.11839e-06
5.11444e-06
5.11015e-06
5.10554e-06
5.10077e-06
5.09616e-06
5.09202e-06
5.08935e-06
5.08954e-06
5.09229e-06
5.09616e-06
5.10079e-06
5.1056e-06
5.11013e-06
5.11471e-06
5.11842e-06
5.12197e-06
5.12544e-06
5.12802e-06
5.12991e-06
5.13149e-06
5.13122e-06
5.11863e-06
5.1346e-06
5.14662e-06
5.14685e-06
5.14507e-06
5.14254e-06
5.13941e-06
5.13577e-06
5.1317e-06
5.12722e-06
5.1223e-06
5.117e-06
5.11152e-06
5.10641e-06
5.10195e-06
5.09891e-06
5.09883e-06
5.1019e-06
5.10632e-06
5.11173e-06
5.11732e-06
5.12244e-06
5.12735e-06
5.13173e-06
5.13588e-06
5.13971e-06
5.14259e-06
5.14493e-06
5.14693e-06
5.14681e-06
5.13484e-06
5.15357e-06
5.16515e-06
5.16522e-06
5.16309e-06
5.16011e-06
5.15649e-06
5.15237e-06
5.14776e-06
5.14263e-06
5.13704e-06
5.13116e-06
5.1251e-06
5.11934e-06
5.11435e-06
5.11093e-06
5.11062e-06
5.11415e-06
5.11938e-06
5.12544e-06
5.13157e-06
5.13718e-06
5.14259e-06
5.14785e-06
5.15257e-06
5.1567e-06
5.16003e-06
5.1629e-06
5.16515e-06
5.1653e-06
5.15411e-06
5.17656e-06
5.18744e-06
5.187e-06
5.18442e-06
5.1811e-06
5.17716e-06
5.17258e-06
5.16735e-06
5.16155e-06
5.1553e-06
5.14891e-06
5.14224e-06
5.13561e-06
5.12987e-06
5.1262e-06
5.12599e-06
5.12985e-06
5.13575e-06
5.14229e-06
5.14892e-06
5.15526e-06
5.16151e-06
5.16744e-06
5.17257e-06
5.17714e-06
5.1811e-06
5.18436e-06
5.18685e-06
5.18755e-06
5.17673e-06
5.20397e-06
5.21377e-06
5.21294e-06
5.21029e-06
5.20678e-06
5.20239e-06
5.19711e-06
5.19129e-06
5.18504e-06
5.17819e-06
5.17103e-06
5.16372e-06
5.15661e-06
5.15006e-06
5.14599e-06
5.1459e-06
5.1499e-06
5.15639e-06
5.16363e-06
5.17093e-06
5.17807e-06
5.18497e-06
5.19133e-06
5.19692e-06
5.20224e-06
5.20677e-06
5.21036e-06
5.21309e-06
5.2142e-06
5.20379e-06
5.23649e-06
5.24574e-06
5.2448e-06
5.24183e-06
5.23763e-06
5.23254e-06
5.22683e-06
5.22065e-06
5.21384e-06
5.20634e-06
5.19856e-06
5.19065e-06
5.18328e-06
5.17605e-06
5.17113e-06
5.17147e-06
5.17609e-06
5.18294e-06
5.19072e-06
5.19854e-06
5.2063e-06
5.21365e-06
5.2206e-06
5.22696e-06
5.23262e-06
5.23743e-06
5.24162e-06
5.24495e-06
5.24637e-06
5.23656e-06
5.27588e-06
5.28524e-06
5.28332e-06
5.27947e-06
5.27471e-06
5.26937e-06
5.26332e-06
5.25643e-06
5.24896e-06
5.24112e-06
5.23329e-06
5.22472e-06
5.21671e-06
5.20926e-06
5.20401e-06
5.20442e-06
5.20951e-06
5.21656e-06
5.22464e-06
5.23304e-06
5.24129e-06
5.24897e-06
5.25628e-06
5.26341e-06
5.26947e-06
5.27472e-06
5.2795e-06
5.28354e-06
5.28532e-06
5.27563e-06
5.32412e-06
5.3338e-06
5.33036e-06
5.32624e-06
5.3211e-06
5.31489e-06
5.30815e-06
5.30071e-06
5.29301e-06
5.285e-06
5.27733e-06
5.26915e-06
5.26147e-06
5.25454e-06
5.24997e-06
5.25018e-06
5.2547e-06
5.26144e-06
5.26911e-06
5.2769e-06
5.28486e-06
5.2931e-06
5.30079e-06
5.30795e-06
5.31459e-06
5.32115e-06
5.32639e-06
5.33085e-06
5.33373e-06
5.32331e-06
5.38461e-06
5.39852e-06
5.3933e-06
5.38888e-06
5.38192e-06
5.37418e-06
5.36718e-06
5.35918e-06
5.35191e-06
5.34608e-06
5.34193e-06
5.34112e-06
5.3442e-06
5.34714e-06
5.35174e-06
5.35422e-06
5.34874e-06
5.3438e-06
5.34178e-06
5.34208e-06
5.34585e-06
5.35182e-06
5.35939e-06
5.3669e-06
5.37379e-06
5.38186e-06
5.3888e-06
5.39323e-06
5.39884e-06
5.38369e-06
5.4774e-06
5.51523e-06
5.50186e-06
5.50582e-06
5.48845e-06
5.47484e-06
5.47324e-06
5.46568e-06
5.46337e-06
5.47955e-06
5.51614e-06
5.58575e-06
5.69403e-06
5.80132e-06
5.88923e-06
5.90538e-06
5.81315e-06
5.69689e-06
5.59584e-06
5.51682e-06
5.4813e-06
5.46396e-06
5.46466e-06
5.47335e-06
5.47417e-06
5.48716e-06
5.50677e-06
5.50214e-06
5.51632e-06
5.47533e-06
5.72096e-06
5.86545e-06
5.81791e-06
5.91972e-06
5.81636e-06
5.78466e-06
5.85787e-06
5.8458e-06
5.8917e-06
6.08416e-06
6.40328e-06
6.92507e-06
7.6723e-06
8.30488e-06
8.76372e-06
8.78066e-06
8.39483e-06
7.68422e-06
7.01397e-06
6.41295e-06
6.1033e-06
5.89925e-06
5.84244e-06
5.85717e-06
5.78343e-06
5.81223e-06
5.92411e-06
5.81846e-06
5.87331e-06
5.71113e-06
6.81564e-06
7.07446e-06
6.96747e-06
7.55687e-06
7.16956e-06
7.26804e-06
7.77316e-06
7.76453e-06
8.18899e-06
9.04658e-06
1.0467e-05
1.24804e-05
1.43848e-05
1.58656e-05
1.69075e-05
1.67019e-05
1.61174e-05
1.43836e-05
1.2651e-05
1.04482e-05
9.16952e-06
8.22787e-06
7.75049e-06
7.75427e-06
7.27495e-06
7.1469e-06
7.59856e-06
6.9706e-06
7.0965e-06
6.77884e-06
1.10503e-05
1.00263e-05
1.05205e-05
1.17613e-05
1.16627e-05
1.31415e-05
1.42867e-05
1.43501e-05
1.62236e-05
2.00439e-05
2.0231e-05
2.48454e-05
2.55832e-05
2.79229e-05
2.80004e-05
2.82904e-05
2.73534e-05
2.63288e-05
2.37525e-05
2.04573e-05
2.05683e-05
1.63682e-05
1.435e-05
1.4165e-05
1.31629e-05
1.15922e-05
1.19609e-05
1.08365e-05
1.00619e-05
1.10206e-05
1.77612e-05
1.52412e-05
1.85023e-05
1.87208e-05
1.93708e-05
2.44901e-05
2.43504e-05
2.54158e-05
2.79675e-05
3.34419e-05
2.97606e-05
3.66637e-05
3.39263e-05
3.82576e-05
3.5246e-05
3.79836e-05
3.51395e-05
3.66742e-05
3.26767e-05
3.14641e-05
3.42308e-05
2.80057e-05
2.5456e-05
2.42225e-05
2.43453e-05
2.14193e-05
1.92698e-05
1.92698e-05
1.53427e-05
1.77334e-05
2.35435e-05
2.54129e-05
2.52625e-05
2.68394e-05
2.95224e-05
3.65979e-05
3.64122e-05
3.64803e-05
3.91038e-05
4.28785e-05
3.81546e-05
4.71945e-05
4.64615e-05
4.71554e-05
4.20699e-05
4.64193e-05
4.49121e-05
4.49379e-05
4.07071e-05
3.98754e-05
4.2784e-05
3.8507e-05
3.58923e-05
3.36129e-05
3.58205e-05
3.11109e-05
2.78239e-05
2.63276e-05
2.60624e-05
2.34734e-05
2.85999e-05
2.80211e-05
2.91575e-05
2.9342e-05
3.42141e-05
3.92304e-05
4.03229e-05
4.07236e-05
4.06748e-05
4.7351e-05
4.56233e-05
5.37196e-05
4.98136e-05
5.02205e-05
4.7194e-05
5.0123e-05
4.89616e-05
5.0232e-05
4.42114e-05
4.31327e-05
4.5061e-05
4.07195e-05
3.97236e-05
3.95713e-05
3.91695e-05
3.53779e-05
3.06282e-05
2.96172e-05
2.82004e-05
2.88391e-05
2.87582e-05
2.99683e-05
3.13098e-05
3.32798e-05
3.77791e-05
3.8515e-05
4.01352e-05
4.54808e-05
4.10088e-05
4.50361e-05
4.32317e-05
4.35414e-05
4.53692e-05
4.37976e-05
4.51518e-05
4.50745e-05
4.66382e-05
4.35295e-05
4.61591e-05
4.45799e-05
4.50783e-05
4.23876e-05
4.39335e-05
4.1526e-05
3.87216e-05
3.97935e-05
3.49591e-05
3.2596e-05
2.84046e-05
2.91312e-05
2.69719e-05
2.84102e-05
2.93329e-05
3.16218e-05
3.37742e-05
3.65848e-05
3.71155e-05
3.86507e-05
4.13539e-05
4.27064e-05
4.05178e-05
4.44366e-05
4.16781e-05
4.49467e-05
4.29278e-05
4.78523e-05
4.33876e-05
4.41854e-05
4.25196e-05
4.41625e-05
4.51076e-05
4.02636e-05
3.92122e-05
3.76643e-05
3.73807e-05
3.39812e-05
3.21056e-05
2.97785e-05
2.76217e-05
2.75135e-05
2.0695e-05
2.37717e-05
2.71073e-05
2.87144e-05
2.88596e-05
3.0331e-05
3.08329e-05
3.14307e-05
3.28733e-05
3.5303e-05
3.63766e-05
3.8884e-05
3.95624e-05
4.10933e-05
4.14265e-05
4.27068e-05
3.99732e-05
3.90649e-05
3.85e-05
3.67686e-05
3.55452e-05
3.246e-05
3.16775e-05
3.09903e-05
2.94608e-05
2.90044e-05
2.8726e-05
2.70557e-05
2.4059e-05
2.10258e-05
1.64812e-05
1.90635e-05
2.19696e-05
2.34279e-05
2.20644e-05
2.28724e-05
2.47225e-05
2.58899e-05
2.68297e-05
2.85362e-05
2.97781e-05
3.08204e-05
3.21714e-05
3.32651e-05
3.50988e-05
3.47645e-05
3.33413e-05
3.17831e-05
3.14319e-05
2.94639e-05
2.82839e-05
2.68758e-05
2.60872e-05
2.48425e-05
2.27317e-05
2.19777e-05
2.32833e-05
2.17821e-05
1.92113e-05
1.65148e-05
1.49596e-05
1.62013e-05
1.75523e-05
1.89006e-05
1.70778e-05
1.70604e-05
1.90473e-05
2.11942e-05
2.34093e-05
2.54884e-05
2.64949e-05
2.71506e-05
2.76242e-05
2.84149e-05
2.93408e-05
2.91849e-05
2.84202e-05
2.75121e-05
2.71484e-05
2.62076e-05
2.53093e-05
2.34148e-05
2.12497e-05
1.90929e-05
1.69706e-05
1.70232e-05
1.88146e-05
1.74641e-05
1.62934e-05
1.49586e-05
1.35955e-05
1.41727e-05
1.45222e-05
1.51291e-05
1.43128e-05
1.39513e-05
1.47043e-05
1.6254e-05
1.86811e-05
2.1511e-05
2.36514e-05
2.51397e-05
2.59446e-05
2.64755e-05
2.66233e-05
2.65462e-05
2.64742e-05
2.59298e-05
2.50305e-05
2.34341e-05
2.13682e-05
1.85986e-05
1.62452e-05
1.46929e-05
1.39431e-05
1.43112e-05
1.51255e-05
1.44777e-05
1.41857e-05
1.36111e-05
1.26168e-05
1.26682e-05
1.26987e-05
1.28403e-05
1.26169e-05
1.24721e-05
1.26883e-05
1.32804e-05
1.45837e-05
1.68383e-05
1.94873e-05
2.202e-05
2.39544e-05
2.51521e-05
2.54252e-05
2.53712e-05
2.51513e-05
2.39576e-05
2.19522e-05
1.93402e-05
1.67369e-05
1.45201e-05
1.32536e-05
1.26736e-05
1.24686e-05
1.26252e-05
1.28592e-05
1.26993e-05
1.2684e-05
1.25978e-05
1.17818e-05
1.16794e-05
1.16204e-05
1.1644e-05
1.15779e-05
1.15756e-05
1.16824e-05
1.19115e-05
1.23957e-05
1.34186e-05
1.51968e-05
1.7634e-05
2.01783e-05
2.22149e-05
2.3138e-05
2.30751e-05
2.22154e-05
2.01972e-05
1.75959e-05
1.51205e-05
1.33622e-05
1.23658e-05
1.18852e-05
1.16674e-05
1.15655e-05
1.15716e-05
1.16285e-05
1.16271e-05
1.17008e-05
1.17893e-05
1.11222e-05
1.09774e-05
1.09125e-05
1.09111e-05
1.09114e-05
1.09538e-05
1.10214e-05
1.11402e-05
1.1334e-05
1.16793e-05
1.23629e-05
1.36362e-05
1.54879e-05
1.74481e-05
1.87588e-05
1.87053e-05
1.74279e-05
1.54922e-05
1.36145e-05
1.23292e-05
1.16398e-05
1.12958e-05
1.11242e-05
1.10084e-05
1.09372e-05
1.0897e-05
1.09053e-05
1.09168e-05
1.09837e-05
1.11293e-05
1.05848e-05
1.03845e-05
1.03381e-05
1.03425e-05
1.03642e-05
1.04117e-05
1.04727e-05
1.05527e-05
1.06419e-05
1.07571e-05
1.09485e-05
1.13369e-05
1.20423e-05
1.30111e-05
1.38565e-05
1.38419e-05
1.29971e-05
1.20291e-05
1.13275e-05
1.09322e-05
1.07436e-05
1.06159e-05
1.05391e-05
1.04592e-05
1.03993e-05
1.03613e-05
1.03282e-05
1.03409e-05
1.03979e-05
1.05866e-05
1.01013e-05
9.8715e-06
9.8245e-06
9.82843e-06
9.86607e-06
9.9119e-06
9.95825e-06
1.00078e-05
1.00499e-05
1.00865e-05
1.01253e-05
1.02004e-05
1.03452e-05
1.05843e-05
1.08304e-05
1.0825e-05
1.05813e-05
1.03362e-05
1.01942e-05
1.01059e-05
1.00659e-05
1.00265e-05
9.99296e-06
9.94549e-06
9.89174e-06
9.85895e-06
9.82479e-06
9.82896e-06
9.88538e-06
1.01053e-05
9.65227e-06
9.40661e-06
9.35502e-06
9.36154e-06
9.39736e-06
9.43613e-06
9.46352e-06
9.48456e-06
9.49432e-06
9.49039e-06
9.47483e-06
9.46331e-06
9.4532e-06
9.46174e-06
9.48341e-06
9.48026e-06
9.46171e-06
9.44871e-06
9.45716e-06
9.46807e-06
9.4783e-06
9.48119e-06
9.46912e-06
9.44613e-06
9.41537e-06
9.3839e-06
9.36757e-06
9.3601e-06
9.41292e-06
9.65116e-06
9.22386e-06
8.97415e-06
8.91694e-06
8.92625e-06
8.96045e-06
8.98259e-06
8.98623e-06
8.98109e-06
8.96504e-06
8.93473e-06
8.89322e-06
8.84849e-06
8.79494e-06
8.74803e-06
8.72102e-06
8.72285e-06
8.75171e-06
8.79308e-06
8.83489e-06
8.88305e-06
8.92512e-06
8.95987e-06
8.97173e-06
8.96758e-06
8.96237e-06
8.94343e-06
8.93168e-06
8.92262e-06
8.97375e-06
9.21735e-06
8.81117e-06
8.56277e-06
8.51564e-06
8.5251e-06
8.54288e-06
8.5396e-06
8.52953e-06
8.51078e-06
8.47661e-06
8.42583e-06
8.36515e-06
8.29863e-06
8.22535e-06
8.16493e-06
8.13069e-06
8.13566e-06
8.17153e-06
8.22889e-06
8.29133e-06
8.36126e-06
8.42254e-06
8.47133e-06
8.50158e-06
8.51851e-06
8.52661e-06
8.52093e-06
8.51135e-06
8.50814e-06
8.56347e-06
8.8034e-06
8.40701e-06
8.18615e-06
8.14145e-06
8.13794e-06
8.13367e-06
8.12317e-06
8.10803e-06
8.07587e-06
8.02585e-06
7.96002e-06
7.8865e-06
7.80798e-06
7.72698e-06
7.66159e-06
7.6222e-06
7.62353e-06
7.66116e-06
7.72523e-06
7.80117e-06
7.88271e-06
7.95791e-06
8.0204e-06
8.06375e-06
8.09508e-06
8.11152e-06
8.11555e-06
8.11513e-06
8.1228e-06
8.18224e-06
8.41122e-06
8.042e-06
7.83388e-06
7.77906e-06
7.76683e-06
7.75832e-06
7.74886e-06
7.72134e-06
7.67453e-06
7.61506e-06
7.54331e-06
7.46347e-06
7.37922e-06
7.29459e-06
7.22453e-06
7.18011e-06
7.17767e-06
7.21743e-06
7.28539e-06
7.36801e-06
7.4542e-06
7.53618e-06
7.6087e-06
7.66291e-06
7.70232e-06
7.72785e-06
7.74237e-06
7.75241e-06
7.76767e-06
7.82536e-06
8.03788e-06
7.68775e-06
7.48981e-06
7.4424e-06
7.43126e-06
7.41898e-06
7.3952e-06
7.35613e-06
7.30584e-06
7.24488e-06
7.17088e-06
7.08764e-06
6.99984e-06
6.91305e-06
6.84053e-06
6.79441e-06
6.79015e-06
6.82983e-06
6.8986e-06
6.98372e-06
7.07307e-06
7.15909e-06
7.23604e-06
7.29723e-06
7.34327e-06
7.37723e-06
7.40169e-06
7.41969e-06
7.43758e-06
7.49024e-06
7.68503e-06
7.35787e-06
7.1888e-06
7.14867e-06
7.12818e-06
7.10259e-06
7.06716e-06
7.02763e-06
6.97755e-06
6.91529e-06
6.84045e-06
6.75696e-06
6.66807e-06
6.58015e-06
6.50634e-06
6.46001e-06
6.45502e-06
6.49341e-06
6.56188e-06
6.64823e-06
6.73999e-06
6.82846e-06
6.90689e-06
6.97086e-06
7.02142e-06
7.06122e-06
7.09166e-06
7.11393e-06
7.13384e-06
7.18367e-06
7.36032e-06
7.06845e-06
6.92784e-06
6.87878e-06
6.84836e-06
6.81651e-06
6.78509e-06
6.74658e-06
6.69389e-06
6.63082e-06
6.55764e-06
6.47554e-06
6.38669e-06
6.30006e-06
6.22861e-06
6.184e-06
6.17921e-06
6.21679e-06
6.28546e-06
6.37196e-06
6.46219e-06
6.54724e-06
6.62247e-06
6.68564e-06
6.73765e-06
6.77982e-06
6.81307e-06
6.83874e-06
6.86148e-06
6.90809e-06
7.06297e-06
6.808e-06
6.6753e-06
6.625e-06
6.59781e-06
6.57246e-06
6.54506e-06
6.50274e-06
6.44959e-06
6.38877e-06
6.31723e-06
6.23582e-06
6.14954e-06
6.06842e-06
6.00178e-06
5.95891e-06
5.95429e-06
5.99169e-06
6.05964e-06
6.14259e-06
6.22605e-06
6.30349e-06
6.3739e-06
6.43621e-06
6.48974e-06
6.53357e-06
6.56816e-06
6.59489e-06
6.61721e-06
6.65737e-06
6.78937e-06
6.56344e-06
6.43934e-06
6.40332e-06
6.38384e-06
6.36263e-06
6.33098e-06
6.28762e-06
6.23871e-06
6.18117e-06
6.11193e-06
6.03384e-06
5.9534e-06
5.87796e-06
5.81396e-06
5.77198e-06
5.76874e-06
5.80678e-06
5.87203e-06
5.94813e-06
6.02342e-06
6.09489e-06
6.1626e-06
6.22438e-06
6.27729e-06
6.31957e-06
6.35191e-06
6.37619e-06
6.3957e-06
6.42941e-06
6.54193e-06
6.33388e-06
6.23857e-06
6.21351e-06
6.19545e-06
6.17215e-06
6.13906e-06
6.10136e-06
6.0578e-06
6.00343e-06
5.93839e-06
5.86666e-06
5.79348e-06
5.72296e-06
5.66149e-06
5.62199e-06
5.62121e-06
5.65856e-06
5.71868e-06
5.78725e-06
5.85605e-06
5.92317e-06
5.98718e-06
6.04488e-06
6.09303e-06
6.13078e-06
6.15951e-06
6.18124e-06
6.19891e-06
6.22803e-06
6.32365e-06
6.14209e-06
6.07234e-06
6.04542e-06
6.02569e-06
6.00325e-06
5.97589e-06
5.94463e-06
5.90394e-06
5.85226e-06
5.79204e-06
5.72766e-06
5.66216e-06
5.59754e-06
5.54081e-06
5.50584e-06
5.50691e-06
5.54163e-06
5.59549e-06
5.65679e-06
5.71942e-06
5.78095e-06
5.83874e-06
5.88968e-06
5.93181e-06
5.96525e-06
5.99135e-06
6.01165e-06
6.0282e-06
6.05329e-06
6.13241e-06
5.98261e-06
5.919e-06
5.89098e-06
5.87652e-06
5.85925e-06
5.83729e-06
5.80799e-06
5.76847e-06
5.72059e-06
5.66771e-06
5.61328e-06
5.55727e-06
5.50025e-06
5.44985e-06
5.41947e-06
5.42056e-06
5.45075e-06
5.49722e-06
5.55054e-06
5.60603e-06
5.66061e-06
5.71124e-06
5.7554e-06
5.79234e-06
5.82262e-06
5.84697e-06
5.86603e-06
5.88102e-06
5.90167e-06
5.96453e-06
5.83194e-06
5.77356e-06
5.75775e-06
5.74919e-06
5.73392e-06
5.71284e-06
5.68361e-06
5.64709e-06
5.6059e-06
5.56311e-06
5.51931e-06
5.47186e-06
5.422e-06
5.37791e-06
5.35095e-06
5.35022e-06
5.37447e-06
5.41333e-06
5.45969e-06
5.50923e-06
5.55778e-06
5.60236e-06
5.64137e-06
5.67463e-06
5.70238e-06
5.72461e-06
5.74127e-06
5.75371e-06
5.76979e-06
5.81813e-06
5.69497e-06
5.65777e-06
5.65211e-06
5.6413e-06
5.6255e-06
5.60484e-06
5.57824e-06
5.54753e-06
5.5143e-06
5.47976e-06
5.44197e-06
5.39922e-06
5.35523e-06
5.31764e-06
5.29418e-06
5.2917e-06
5.31058e-06
5.34386e-06
5.38547e-06
5.43039e-06
5.47421e-06
5.51379e-06
5.54835e-06
5.57789e-06
5.60215e-06
5.62076e-06
5.63391e-06
5.64345e-06
5.6558e-06
5.69301e-06
5.59166e-06
5.57533e-06
5.56431e-06
5.55053e-06
5.53654e-06
5.51827e-06
5.49629e-06
5.47174e-06
5.44541e-06
5.41612e-06
5.38149e-06
5.34293e-06
5.30584e-06
5.27528e-06
5.25515e-06
5.25142e-06
5.26639e-06
5.29532e-06
5.33219e-06
5.37136e-06
5.40881e-06
5.44232e-06
5.47146e-06
5.49626e-06
5.5163e-06
5.53131e-06
5.542e-06
5.55e-06
5.55988e-06
5.5878e-06
5.5135e-06
5.49794e-06
5.48254e-06
5.47367e-06
5.46367e-06
5.44916e-06
5.43161e-06
5.41213e-06
5.39077e-06
5.36504e-06
5.33408e-06
5.30173e-06
5.27272e-06
5.24875e-06
5.23165e-06
5.22753e-06
5.23912e-06
5.26269e-06
5.29279e-06
5.32436e-06
5.35422e-06
5.38131e-06
5.4054e-06
5.42616e-06
5.44313e-06
5.45625e-06
5.46597e-06
5.47325e-06
5.48076e-06
5.49995e-06
5.43837e-06
5.41949e-06
5.41311e-06
5.41149e-06
5.40516e-06
5.39378e-06
5.37877e-06
5.36202e-06
5.34312e-06
5.32009e-06
5.29408e-06
5.26914e-06
5.24725e-06
5.22806e-06
5.21353e-06
5.20956e-06
5.21871e-06
5.23739e-06
5.26082e-06
5.28525e-06
5.30892e-06
5.33135e-06
5.35201e-06
5.37008e-06
5.38499e-06
5.39659e-06
5.40512e-06
5.41098e-06
5.41545e-06
5.42656e-06
5.36722e-06
5.35769e-06
5.36303e-06
5.36375e-06
5.35777e-06
5.34669e-06
5.33275e-06
5.31821e-06
5.3019e-06
5.28246e-06
5.26214e-06
5.2435e-06
5.22621e-06
5.20977e-06
5.19695e-06