/*--------------------------------*- C++ -*----------------------------------*\
| =========                 |                                                 |
| \\      /  F ield         | OpenFOAM: The Open Source CFD Toolbox           |
|  \\    /   O peration     | Version:  2312                                  |
|   \\  /    A nd           | Website:  www.openfoam.com                      |
|    \\/     M anipulation  |                                                 |
\*---------------------------------------------------------------------------*/
FoamFile
{
    version     2.0;
    format      ascii;
    arch        "LSB;label=32;scalar=64";
    class       volScalarField;
    location    "1.4496027068";
    object      p;
}
// * * * * * * * * * * * * * * * * * * * * * * * * * * * * * * * * * * * * * //

dimensions      [1 -1 -2 0 0 0 0];

internalField   nonuniform List<scalar> 
90000
(
4854.77
4854.78
4854.77
4854.77
4854.77
4854.77
4854.77
4854.77
4854.77
4854.77
4854.77
4854.77
4854.77
4854.77
4854.77
4854.77
4854.77
4854.77
4854.77
4854.77
4854.77
4854.77
4854.77
4854.77
4854.77
4854.78
4854.78
4854.78
4854.78
4854.77
4756.67
4756.67
4756.67
4756.67
4756.67
4756.67
4756.67
4756.67
4756.67
4756.67
4756.67
4756.67
4756.67
4756.67
4756.67
4756.67
4756.67
4756.67
4756.67
4756.67
4756.67
4756.67
4756.67
4756.67
4756.67
4756.67
4756.67
4756.67
4756.68
4756.67
4658.57
4658.56
4658.57
4658.57
4658.57
4658.57
4658.57
4658.57
4658.57
4658.57
4658.57
4658.57
4658.57
4658.57
4658.57
4658.57
4658.57
4658.57
4658.57
4658.57
4658.57
4658.57
4658.57
4658.57
4658.57
4658.57
4658.57
4658.57
4658.57
4658.57
4560.46
4560.46
4560.46
4560.46
4560.46
4560.46
4560.47
4560.47
4560.47
4560.47
4560.47
4560.47
4560.47
4560.47
4560.47
4560.47
4560.47
4560.46
4560.46
4560.46
4560.47
4560.47
4560.47
4560.47
4560.47
4560.46
4560.46
4560.46
4560.46
4560.47
4462.36
4462.36
4462.36
4462.36
4462.36
4462.36
4462.36
4462.36
4462.37
4462.37
4462.37
4462.37
4462.37
4462.37
4462.37
4462.37
4462.37
4462.37
4462.36
4462.36
4462.36
4462.36
4462.36
4462.36
4462.36
4462.36
4462.36
4462.36
4462.36
4462.36
4364.26
4364.26
4364.26
4364.26
4364.26
4364.26
4364.26
4364.26
4364.26
4364.26
4364.26
4364.26
4364.27
4364.27
4364.27
4364.27
4364.26
4364.26
4364.26
4364.26
4364.26
4364.26
4364.26
4364.26
4364.26
4364.26
4364.25
4364.25
4364.25
4364.25
4266.16
4266.16
4266.16
4266.16
4266.16
4266.16
4266.16
4266.16
4266.16
4266.16
4266.16
4266.16
4266.16
4266.16
4266.16
4266.16
4266.16
4266.16
4266.16
4266.16
4266.16
4266.16
4266.16
4266.15
4266.15
4266.15
4266.15
4266.15
4266.15
4266.15
4168.05
4168.06
4168.06
4168.06
4168.06
4168.05
4168.05
4168.05
4168.05
4168.05
4168.05
4168.06
4168.06
4168.06
4168.06
4168.06
4168.06
4168.06
4168.06
4168.06
4168.06
4168.05
4168.05
4168.05
4168.05
4168.05
4168.05
4168.05
4168.04
4168.05
4069.95
4069.95
4069.95
4069.95
4069.95
4069.95
4069.95
4069.95
4069.95
4069.95
4069.95
4069.95
4069.95
4069.95
4069.96
4069.96
4069.96
4069.96
4069.96
4069.95
4069.95
4069.95
4069.95
4069.95
4069.94
4069.94
4069.94
4069.94
4069.94
4069.94
3971.85
3971.85
3971.85
3971.85
3971.85
3971.85
3971.85
3971.85
3971.85
3971.85
3971.85
3971.85
3971.85
3971.85
3971.85
3971.85
3971.86
3971.86
3971.86
3971.85
3971.85
3971.85
3971.85
3971.84
3971.84
3971.84
3971.84
3971.84
3971.84
3971.84
3873.74
3873.74
3873.74
3873.74
3873.74
3873.74
3873.74
3873.74
3873.75
3873.75
3873.75
3873.75
3873.75
3873.75
3873.75
3873.75
3873.75
3873.75
3873.75
3873.75
3873.75
3873.75
3873.75
3873.74
3873.74
3873.74
3873.74
3873.74
3873.74
3873.74
3775.64
3775.63
3775.63
3775.64
3775.64
3775.64
3775.64
3775.64
3775.64
3775.65
3775.65
3775.65
3775.65
3775.65
3775.65
3775.65
3775.65
3775.65
3775.65
3775.65
3775.65
3775.65
3775.65
3775.65
3775.64
3775.64
3775.64
3775.64
3775.64
3775.64
3677.53
3677.53
3677.53
3677.53
3677.53
3677.53
3677.54
3677.54
3677.54
3677.54
3677.55
3677.55
3677.55
3677.55
3677.55
3677.55
3677.55
3677.55
3677.55
3677.55
3677.55
3677.55
3677.54
3677.54
3677.54
3677.54
3677.54
3677.54
3677.54
3677.54
3579.43
3579.42
3579.42
3579.43
3579.43
3579.43
3579.44
3579.44
3579.44
3579.44
3579.45
3579.45
3579.45
3579.45
3579.45
3579.44
3579.44
3579.44
3579.44
3579.44
3579.44
3579.44
3579.44
3579.44
3579.44
3579.44
3579.44
3579.44
3579.44
3579.44
3481.33
3481.32
3481.33
3481.33
3481.33
3481.33
3481.34
3481.34
3481.34
3481.34
3481.34
3481.34
3481.34
3481.34
3481.34
3481.34
3481.34
3481.34
3481.34
3481.34
3481.34
3481.34
3481.34
3481.34
3481.34
3481.34
3481.34
3481.34
3481.34
3481.34
3383.23
3383.23
3383.23
3383.23
3383.23
3383.24
3383.24
3383.24
3383.24
3383.24
3383.24
3383.24
3383.24
3383.23
3383.23
3383.23
3383.23
3383.23
3383.23
3383.23
3383.23
3383.23
3383.23
3383.24
3383.24
3383.24
3383.24
3383.24
3383.24
3383.24
3285.13
3285.14
3285.14
3285.14
3285.14
3285.14
3285.13
3285.13
3285.13
3285.13
3285.13
3285.13
3285.13
3285.13
3285.12
3285.12
3285.12
3285.12
3285.12
3285.12
3285.12
3285.13
3285.13
3285.13
3285.13
3285.13
3285.13
3285.13
3285.13
3285.13
3187.03
3187.04
3187.04
3187.03
3187.03
3187.03
3187.03
3187.03
3187.03
3187.02
3187.02
3187.02
3187.02
3187.02
3187.02
3187.01
3187.01
3187.01
3187.02
3187.02
3187.02
3187.02
3187.02
3187.02
3187.02
3187.02
3187.02
3187.02
3187.02
3187.02
3088.93
3088.93
3088.93
3088.93
3088.93
3088.93
3088.92
3088.92
3088.92
3088.92
3088.92
3088.91
3088.91
3088.91
3088.91
3088.91
3088.91
3088.91
3088.91
3088.91
3088.91
3088.91
3088.91
3088.91
3088.91
3088.91
3088.91
3088.91
3088.91
3088.91
2990.82
2990.82
2990.82
2990.82
2990.82
2990.82
2990.82
2990.81
2990.81
2990.81
2990.81
2990.81
2990.8
2990.8
2990.8
2990.8
2990.81
2990.81
2990.81
2990.81
2990.81
2990.81
2990.81
2990.81
2990.81
2990.81
2990.8
2990.8
2990.8
2990.8
2892.71
2892.71
2892.71
2892.71
2892.71
2892.71
2892.7
2892.7
2892.7
2892.7
2892.7
2892.7
2892.7
2892.7
2892.7
2892.7
2892.7
2892.71
2892.71
2892.71
2892.71
2892.71
2892.7
2892.7
2892.7
2892.7
2892.69
2892.69
2892.69
2892.69
2794.59
2794.59
2794.59
2794.59
2794.59
2794.59
2794.59
2794.59
2794.59
2794.59
2794.59
2794.6
2794.6
2794.6
2794.6
2794.6
2794.6
2794.6
2794.6
2794.6
2794.6
2794.6
2794.6
2794.59
2794.59
2794.59
2794.58
2794.58
2794.58
2794.58
2696.47
2696.47
2696.47
2696.47
2696.47
2696.48
2696.48
2696.48
2696.49
2696.49
2696.49
2696.49
2696.49
2696.5
2696.5
2696.5
2696.5
2696.5
2696.49
2696.49
2696.49
2696.49
2696.48
2696.48
2696.47
2696.47
2696.47
2696.47
2696.47
2696.46
2598.35
2598.35
2598.35
2598.35
2598.35
2598.36
2598.36
2598.37
2598.37
2598.38
2598.38
2598.39
2598.39
2598.39
2598.39
2598.39
2598.39
2598.39
2598.39
2598.38
2598.38
2598.37
2598.37
2598.36
2598.36
2598.35
2598.35
2598.35
2598.35
2598.35
2500.22
2500.22
2500.23
2500.23
2500.24
2500.24
2500.25
2500.26
2500.26
2500.27
2500.27
2500.28
2500.29
2500.29
2500.29
2500.29
2500.29
2500.28
2500.28
2500.27
2500.27
2500.26
2500.25
2500.24
2500.24
2500.23
2500.23
2500.23
2500.23
2500.23
2402.1
2402.1
2402.1
2402.11
2402.11
2402.12
2402.13
2402.14
2402.15
2402.16
2402.16
2402.17
2402.18
2402.18
2402.18
2402.18
2402.18
2402.18
2402.17
2402.16
2402.15
2402.14
2402.13
2402.12
2402.12
2402.11
2402.11
2402.11
2402.1
2402.1
2303.97
2303.98
2303.98
2303.99
2303.99
2304
2304.01
2304.02
2304.03
2304.04
2304.05
2304.06
2304.07
2304.07
2304.08
2304.08
2304.07
2304.07
2304.06
2304.05
2304.03
2304.02
2304.01
2304
2303.99
2303.99
2303.98
2303.98
2303.97
2303.97
2205.85
2205.85
2205.85
2205.86
2205.87
2205.88
2205.89
2205.9
2205.91
2205.93
2205.94
2205.95
2205.96
2205.96
2205.97
2205.97
2205.96
2205.95
2205.94
2205.93
2205.92
2205.9
2205.89
2205.88
2205.87
2205.86
2205.85
2205.85
2205.84
2205.84
2107.71
2107.72
2107.72
2107.73
2107.74
2107.75
2107.76
2107.78
2107.79
2107.81
2107.82
2107.84
2107.85
2107.85
2107.86
2107.86
2107.85
2107.84
2107.83
2107.82
2107.8
2107.78
2107.77
2107.76
2107.74
2107.73
2107.72
2107.71
2107.71
2107.7
2009.57
2009.57
2009.58
2009.59
2009.6
2009.62
2009.63
2009.65
2009.67
2009.69
2009.71
2009.72
2009.73
2009.74
2009.75
2009.75
2009.74
2009.73
2009.72
2009.7
2009.68
2009.66
2009.64
2009.63
2009.61
2009.59
2009.58
2009.57
2009.56
2009.56
1911.42
1911.42
1911.43
1911.44
1911.46
1911.48
1911.5
1911.52
1911.54
1911.56
1911.59
1911.6
1911.62
1911.63
1911.63
1911.63
1911.63
1911.62
1911.6
1911.58
1911.56
1911.54
1911.52
1911.49
1911.47
1911.45
1911.43
1911.42
1911.41
1911.41
1813.25
1813.26
1813.27
1813.29
1813.31
1813.33
1813.35
1813.38
1813.41
1813.44
1813.46
1813.49
1813.5
1813.52
1813.52
1813.52
1813.51
1813.5
1813.48
1813.46
1813.44
1813.41
1813.38
1813.35
1813.32
1813.3
1813.28
1813.26
1813.25
1813.25
1715.08
1715.09
1715.1
1715.12
1715.14
1715.17
1715.2
1715.24
1715.27
1715.31
1715.34
1715.37
1715.39
1715.4
1715.41
1715.41
1715.4
1715.38
1715.36
1715.33
1715.31
1715.27
1715.24
1715.2
1715.17
1715.14
1715.11
1715.09
1715.08
1715.07
1616.89
1616.9
1616.91
1616.94
1616.97
1617
1617.04
1617.09
1617.13
1617.17
1617.21
1617.24
1617.27
1617.28
1617.29
1617.29
1617.28
1617.26
1617.24
1617.21
1617.17
1617.13
1617.09
1617.04
1617
1616.96
1616.93
1616.91
1616.89
1616.88
1518.68
1518.69
1518.71
1518.74
1518.78
1518.82
1518.87
1518.93
1518.98
1519.03
1519.07
1519.11
1519.14
1519.16
1519.17
1519.17
1519.16
1519.14
1519.11
1519.07
1519.03
1518.98
1518.92
1518.87
1518.82
1518.77
1518.74
1518.71
1518.69
1518.68
1420.45
1420.46
1420.48
1420.52
1420.57
1420.62
1420.69
1420.75
1420.81
1420.87
1420.93
1420.98
1421.01
1421.04
1421.05
1421.05
1421.04
1421.01
1420.97
1420.93
1420.87
1420.81
1420.75
1420.68
1420.62
1420.57
1420.52
1420.48
1420.46
1420.45
1322.19
1322.21
1322.24
1322.28
1322.34
1322.41
1322.48
1322.56
1322.64
1322.71
1322.78
1322.83
1322.88
1322.91
1322.92
1322.92
1322.91
1322.87
1322.83
1322.77
1322.7
1322.63
1322.55
1322.48
1322.4
1322.34
1322.28
1322.24
1322.21
1322.19
1223.9
1223.92
1223.96
1224.01
1224.08
1224.16
1224.25
1224.35
1224.44
1224.53
1224.61
1224.68
1224.73
1224.77
1224.79
1224.79
1224.77
1224.73
1224.67
1224.6
1224.52
1224.43
1224.34
1224.25
1224.16
1224.08
1224.01
1223.96
1223.92
1223.91
1125.58
1125.6
1125.64
1125.71
1125.79
1125.89
1125.99
1126.11
1126.22
1126.33
1126.43
1126.51
1126.58
1126.62
1126.65
1126.65
1126.62
1126.57
1126.51
1126.42
1126.32
1126.21
1126.1
1125.99
1125.89
1125.79
1125.71
1125.65
1125.61
1125.58
1027.21
1027.23
1027.29
1027.36
1027.46
1027.57
1027.7
1027.83
1027.97
1028.1
1028.22
1028.32
1028.41
1028.46
1028.49
1028.49
1028.46
1028.4
1028.32
1028.22
1028.1
1027.97
1027.83
1027.7
1027.58
1027.47
1027.37
1027.3
1027.25
1027.22
928.785
928.816
928.876
928.965
929.078
929.213
929.363
929.523
929.685
929.842
929.988
930.114
930.214
930.282
930.315
930.315
930.279
930.208
930.108
929.982
929.839
929.683
929.524
929.37
929.225
929.094
928.983
928.895
928.835
928.804
830.302
830.337
830.405
830.507
830.64
830.798
830.974
831.162
831.355
831.543
831.718
831.87
831.99
832.073
832.113
832.112
832.068
831.982
831.861
831.71
831.537
831.353
831.165
830.984
830.815
830.663
830.534
830.434
830.367
830.332
731.75
731.786
731.864
731.981
732.134
732.314
732.517
732.736
732.964
733.189
733.398
733.581
733.726
733.825
733.873
733.871
733.817
733.715
733.567
733.386
733.18
732.962
732.743
732.533
732.339
732.165
732.018
731.905
731.831
731.794
633.124
633.158
633.242
633.372
633.542
633.746
633.978
634.229
634.496
634.765
635.017
635.236
635.408
635.524
635.579
635.578
635.513
635.391
635.213
634.995
634.751
634.494
634.241
634.003
633.782
633.588
633.425
633.3
633.217
633.183
534.432
534.437
534.523
534.664
534.852
535.08
535.336
535.62
535.93
536.254
536.554
536.821
537.018
537.157
537.209
537.214
537.133
536.993
536.776
536.518
536.229
535.924
535.635
535.372
535.13
534.918
534.741
534.608
534.52
534.517
435.731
435.601
435.703
435.845
436.043
436.289
436.556
436.87
437.232
437.641
437.986
438.34
438.53
438.72
438.719
438.771
438.639
438.516
438.226
437.935
437.596
437.219
436.896
436.614
436.359
436.14
435.956
435.835
435.716
435.852
337.13
336.596
336.83
336.887
337.069
337.325
337.569
337.916
338.341
338.967
339.285
339.88
339.855
340.301
339.971
340.315
339.911
340
339.476
339.249
338.869
338.323
337.971
337.679
337.41
337.226
337.059
337.066
336.723
337.291
238.899
237.175
237.952
237.684
237.855
238.029
238.158
238.651
239.091
240.42
240.334
241.684
240.516
242.118
240.598
242.118
240.429
241.665
240.149
240.522
240.134
239.09
238.769
238.432
238.062
238.115
237.924
238.391
237.326
239.173
140.436
136.683
138.7
137.814
138.495
137.755
137.913
138.771
138.746
141.378
140.869
143.246
139.42
143.783
139.749
143.887
139.152
142.627
139.592
141.257
140.472
138.789
139.021
138.709
137.721
138.67
138.047
139.356
136.756
140.677
53.6573
46.9142
49.816
46.6755
49.5424
46.7305
47.664
48.4863
46.67
51.0674
50.626
52.5586
48.3563
53.5507
48.5095
53.97
47.5515
51.4445
48.3255
50.2233
50.1159
47.1679
48.8246
49.0581
46.1593
49.4045
46.8509
50.7185
46.8124
53.8144
3.88758
0.378425
1.34213
0.475458
1.92954
0.643778
1.5558
1.28164
0.754248
1.90457
2.37257
2.15938
1.24606
2.63187
1.86592
3.05067
1.2325
1.35541
1.59744
1.9618
1.73531
0.886021
1.10542
2.09097
0.64986
1.44119
0.469433
1.72281
0.0826636
4.01306
-5.04401
-5.11416
-5.08589
-5.0301
-5.04159
-5.03831
-5.01049
-5.01657
-4.95586
-5.03666
-5.00309
-4.98808
-5.05663
-5.05825
-5.08115
-5.05089
-5.07461
-5.0645
-5.05553
-4.90527
-5.02859
-4.98151
-5.03384
-5.04622
-5.0533
-5.06393
-5.04715
-5.11152
-5.19042
-5.05013
-5.14606
-5.12157
-5.13671
-5.12332
-5.12912
-5.12048
-5.13511
-5.12979
-5.13065
-5.1366
-5.15243
-5.14463
-5.13909
-5.16051
-5.17061
-5.15816
-5.15678
-5.17051
-5.16748
-5.17847
-5.14496
-5.14178
-5.13618
-5.14529
-5.12104
-5.13094
-5.12769
-5.14674
-5.13025
-5.1589
-5.27923
-5.27114
-5.25888
-5.25691
-5.26838
-5.2706
-5.27973
-5.28022
-5.2829
-5.29155
-5.29847
-5.30657
-5.29573
-5.30499
-5.29534
-5.30444
-5.29174
-5.29546
-5.29058
-5.29813
-5.29039
-5.28183
-5.28048
-5.28494
-5.27439
-5.27218
-5.26272
-5.26401
-5.26738
-5.28452
-5.37605
-5.37184
-5.37241
-5.37746
-5.38549
-5.38553
-5.38859
-5.39008
-5.39457
-5.40261
-5.39744
-5.40563
-5.39957
-5.40683
-5.39879
-5.40902
-5.39632
-5.39818
-5.39377
-5.39724
-5.40502
-5.39585
-5.38944
-5.39104
-5.39086
-5.39008
-5.38276
-5.37852
-5.37487
-5.38043
-5.46467
-5.4664
-5.46737
-5.47043
-5.4733
-5.4744
-5.47644
-5.47809
-5.48074
-5.48498
-5.48676
-5.48883
-5.4886
-5.49017
-5.48975
-5.49112
-5.48874
-5.48792
-5.48693
-5.48674
-5.48621
-5.48322
-5.48093
-5.47921
-5.47759
-5.47596
-5.47289
-5.4704
-5.4693
-5.46777
-5.56447
-5.56473
-5.56549
-5.56774
-5.5699
-5.57111
-5.57244
-5.57386
-5.57554
-5.57742
-5.57916
-5.58064
-5.58136
-5.58201
-5.58206
-5.58227
-5.58174
-5.58111
-5.58038
-5.57968
-5.57871
-5.57737
-5.57593
-5.57467
-5.57352
-5.57222
-5.57001
-5.56796
-5.56716
-5.56686
-5.66212
-5.66233
-5.66308
-5.66433
-5.66567
-5.66654
-5.66757
-5.66859
-5.66966
-5.67082
-5.67202
-5.67311
-5.67388
-5.67439
-5.67457
-5.67466
-5.67439
-5.67396
-5.67335
-5.67278
-5.67202
-5.67119
-5.67026
-5.66938
-5.66856
-5.66764
-5.6663
-5.66516
-5.66443
-5.66406
-5.75873
-5.75898
-5.75944
-5.76009
-5.76089
-5.76153
-5.76218
-5.76282
-5.76349
-5.76413
-5.76477
-5.76542
-5.76596
-5.76633
-5.76659
-5.76667
-5.76649
-5.76623
-5.76592
-5.76561
-5.76523
-5.76479
-5.76428
-5.76376
-5.76321
-5.76259
-5.76183
-5.76121
-5.76082
-5.76054
-5.85491
-5.855
-5.85527
-5.85557
-5.85593
-5.8563
-5.85667
-5.85699
-5.85727
-5.85751
-5.85775
-5.85801
-5.85826
-5.85843
-5.8586
-5.85866
-5.85863
-5.8586
-5.8586
-5.8586
-5.85854
-5.85842
-5.85824
-5.85806
-5.85778
-5.85745
-5.85709
-5.85682
-5.85664
-5.85648
-5.95068
-5.95076
-5.95084
-5.95089
-5.95099
-5.9511
-5.95115
-5.95119
-5.95118
-5.95111
-5.95104
-5.95104
-5.95105
-5.95105
-5.9511
-5.95115
-5.95124
-5.95142
-5.95164
-5.95186
-5.95204
-5.9522
-5.95232
-5.9524
-5.9524
-5.95235
-5.95228
-5.9522
-5.95215
-5.9521
-6.04633
-6.04637
-6.0463
-6.04622
-6.04611
-6.04597
-6.04581
-6.04562
-6.04537
-6.04506
-6.04478
-6.04458
-6.04442
-6.0443
-6.04427
-6.04434
-6.0445
-6.04479
-6.04512
-6.04551
-6.04591
-6.04631
-6.04665
-6.0469
-6.04711
-6.0473
-6.04746
-6.04753
-6.04761
-6.04765
-6.14202
-6.14198
-6.14183
-6.14162
-6.14134
-6.14103
-6.1407
-6.14034
-6.13991
-6.13944
-6.13901
-6.13866
-6.13837
-6.13818
-6.13812
-6.13819
-6.13839
-6.13872
-6.13913
-6.13964
-6.14021
-6.14077
-6.14127
-6.14169
-6.14205
-6.14241
-6.14273
-6.14295
-6.14311
-6.14318
-6.23776
-6.23766
-6.23747
-6.23716
-6.23677
-6.23635
-6.2359
-6.23541
-6.23487
-6.2343
-6.23376
-6.23329
-6.23293
-6.23271
-6.23264
-6.23272
-6.23293
-6.23328
-6.23375
-6.23435
-6.23502
-6.23566
-6.23624
-6.23676
-6.23726
-6.23774
-6.23815
-6.23847
-6.23868
-6.23877
-6.33362
-6.33354
-6.33329
-6.33291
-6.33245
-6.33196
-6.33142
-6.33086
-6.33027
-6.32964
-6.32904
-6.32852
-6.32812
-6.32787
-6.32779
-6.32785
-6.32805
-6.32841
-6.32892
-6.32956
-6.33027
-6.33096
-6.3316
-6.33219
-6.33275
-6.3333
-6.33377
-6.33414
-6.33438
-6.33448
-6.42969
-6.42957
-6.42925
-6.42885
-6.42836
-6.42782
-6.42725
-6.42667
-6.42604
-6.4254
-6.42479
-6.42427
-6.42386
-6.4236
-6.4235
-6.42355
-6.42375
-6.42411
-6.42465
-6.42529
-6.42598
-6.42666
-6.42732
-6.42795
-6.42857
-6.42914
-6.42963
-6.43001
-6.43026
-6.43038
-6.52593
-6.52574
-6.52545
-6.52506
-6.52455
-6.52399
-6.52341
-6.52279
-6.52216
-6.52154
-6.52098
-6.52048
-6.52006
-6.51979
-6.51969
-6.51974
-6.51995
-6.52033
-6.52084
-6.52144
-6.52207
-6.52273
-6.5234
-6.52406
-6.52469
-6.52527
-6.52575
-6.52612
-6.52637
-6.52648
-6.62232
-6.62218
-6.62192
-6.62152
-6.621
-6.62044
-6.61984
-6.61923
-6.61863
-6.61808
-6.61757
-6.6171
-6.61668
-6.61641
-6.61631
-6.61638
-6.61661
-6.61698
-6.61744
-6.61797
-6.61854
-6.61916
-6.61981
-6.62046
-6.62109
-6.62164
-6.6221
-6.62246
-6.62271
-6.62283
-6.71896
-6.71888
-6.71862
-6.7182
-6.71768
-6.71713
-6.71655
-6.71598
-6.71545
-6.71496
-6.71449
-6.71404
-6.71365
-6.71339
-6.71332
-6.71342
-6.71365
-6.71399
-6.71439
-6.71484
-6.71534
-6.71591
-6.71652
-6.71714
-6.71773
-6.71826
-6.7187
-6.71904
-6.71928
-6.7194
-6.81584
-6.81572
-6.81544
-6.81504
-6.81456
-6.81405
-6.81353
-6.81302
-6.81255
-6.8121
-6.81166
-6.81124
-6.8109
-6.81069
-6.81064
-6.81073
-6.81095
-6.81124
-6.81159
-6.81198
-6.81242
-6.81292
-6.81348
-6.81406
-6.8146
-6.8151
-6.81552
-6.81584
-6.81607
-6.81618
-6.91279
-6.91264
-6.91241
-6.91207
-6.91167
-6.91122
-6.91075
-6.91029
-6.90985
-6.90943
-6.90902
-6.90867
-6.9084
-6.90822
-6.90817
-6.90825
-6.90843
-6.90869
-6.90899
-6.90934
-6.90973
-6.91019
-6.91069
-6.9112
-6.9117
-6.91215
-6.91254
-6.91285
-6.91306
-6.91316
-7.00989
-7.00981
-7.00964
-7.00937
-7.00902
-7.00862
-7.0082
-7.00777
-7.00735
-7.00696
-7.00662
-7.00634
-7.00612
-7.00598
-7.00593
-7.00598
-7.00612
-7.00634
-7.00662
-7.00693
-7.00728
-7.00768
-7.00813
-7.00858
-7.00901
-7.00941
-7.00976
-7.01003
-7.01022
-7.01031
-7.10728
-7.10724
-7.10709
-7.10687
-7.10657
-7.10622
-7.10583
-7.10544
-7.10506
-7.10473
-7.10444
-7.10423
-7.10407
-7.10397
-7.10392
-7.10394
-7.10404
-7.1042
-7.10443
-7.1047
-7.10502
-7.10538
-7.10577
-7.10616
-7.10654
-7.10687
-7.10716
-7.10738
-7.10753
-7.1076
-7.20481
-7.20475
-7.20462
-7.20444
-7.20421
-7.20391
-7.20358
-7.20323
-7.20291
-7.20262
-7.2024
-7.20225
-7.20214
-7.20206
-7.20202
-7.20201
-7.20206
-7.20217
-7.20235
-7.20258
-7.20287
-7.2032
-7.20355
-7.20389
-7.2042
-7.20447
-7.20469
-7.20487
-7.20499
-7.20505
-7.30238
-7.30228
-7.3022
-7.30208
-7.30191
-7.30167
-7.30139
-7.3011
-7.30082
-7.30059
-7.30043
-7.30031
-7.30023
-7.30017
-7.30013
-7.30011
-7.30014
-7.30021
-7.30035
-7.30055
-7.30081
-7.30111
-7.30141
-7.3017
-7.30196
-7.30218
-7.30237
-7.30251
-7.30261
-7.30267
-7.40004
-7.39999
-7.39996
-7.39987
-7.39974
-7.39955
-7.39932
-7.39908
-7.39886
-7.39868
-7.39855
-7.39845
-7.39839
-7.39834
-7.3983
-7.39829
-7.3983
-7.39835
-7.39846
-7.39864
-7.39886
-7.39911
-7.39937
-7.39961
-7.39983
-7.40002
-7.40017
-7.40029
-7.40038
-7.40043
-7.49794
-7.49796
-7.49792
-7.49784
-7.49772
-7.49757
-7.49738
-7.49719
-7.49702
-7.49688
-7.49678
-7.49671
-7.49666
-7.49663
-7.4966
-7.49659
-7.4966
-7.49664
-7.49674
-7.49687
-7.49705
-7.49724
-7.49744
-7.49764
-7.49781
-7.49796
-7.49808
-7.49818
-7.49825
-7.49828
-7.59603
-7.59604
-7.59598
-7.59589
-7.59578
-7.59566
-7.59552
-7.59538
-7.59526
-7.59517
-7.59509
-7.59504
-7.595
-7.59497
-7.59496
-7.59495
-7.59497
-7.59501
-7.59509
-7.59521
-7.59535
-7.59549
-7.59563
-7.59576
-7.59588
-7.59598
-7.59607
-7.59614
-7.59618
-7.59621
-7.69409
-7.69406
-7.69398
-7.69391
-7.69384
-7.69376
-7.69369
-7.69361
-7.69355
-7.69348
-7.69342
-7.69337
-7.69334
-7.69332
-7.69331
-7.69332
-7.69335
-7.69341
-7.69349
-7.69358
-7.69368
-7.69377
-7.69386
-7.69393
-7.694
-7.69407
-7.69412
-7.69416
-7.69419
-7.6942
-7.79204
-7.79198
-7.79192
-7.7919
-7.79189
-7.79188
-7.79188
-7.79187
-7.79184
-7.7918
-7.79174
-7.79169
-7.79165
-7.79163
-7.79162
-7.79164
-7.79169
-7.79176
-7.79184
-7.79192
-7.79199
-7.79205
-7.7921
-7.79214
-7.79218
-7.79221
-7.79224
-7.79226
-7.79227
-7.79229
-7.88998
-7.88993
-7.88993
-7.88996
-7.89001
-7.89006
-7.89011
-7.89014
-7.89014
-7.89011
-7.89006
-7.89001
-7.88997
-7.88995
-7.88995
-7.88998
-7.89003
-7.89009
-7.89015
-7.89022
-7.89027
-7.89032
-7.89036
-7.8904
-7.89042
-7.89044
-7.89045
-7.89045
-7.89046
-7.89047
-7.98807
-7.98805
-7.9881
-7.98817
-7.98823
-7.9883
-7.98836
-7.9884
-7.98842
-7.9884
-7.98838
-7.98835
-7.98832
-7.98831
-7.98833
-7.98835
-7.9884
-7.98844
-7.98849
-7.98853
-7.98858
-7.98862
-7.98866
-7.98869
-7.98872
-7.98873
-7.98873
-7.98873
-7.98873
-7.98874
-8.08634
-8.08637
-8.08643
-8.08648
-8.08653
-8.08658
-8.08663
-8.08666
-8.08669
-8.0867
-8.08671
-8.08671
-8.08672
-8.08673
-8.08675
-8.08678
-8.08681
-8.08683
-8.08686
-8.0869
-8.08693
-8.08697
-8.087
-8.08703
-8.08705
-8.08706
-8.08706
-8.08706
-8.08707
-8.08708
-8.18475
-8.18479
-8.18482
-8.18483
-8.18485
-8.18488
-8.18491
-8.18495
-8.18498
-8.18502
-8.18506
-8.18509
-8.18513
-8.18516
-8.18519
-8.18521
-8.18524
-8.18526
-8.18528
-8.1853
-8.18532
-8.18535
-8.18537
-8.18539
-8.18541
-8.18542
-8.18543
-8.18545
-8.18546
-8.18547
-8.28316
-8.28317
-8.28316
-8.28316
-8.28317
-8.2832
-8.28323
-8.28327
-8.28332
-8.28337
-8.28343
-8.28349
-8.28354
-8.28358
-8.28362
-8.28365
-8.28367
-8.28369
-8.28371
-8.28372
-8.28373
-8.28374
-8.28375
-8.28377
-8.28378
-8.28381
-8.28383
-8.28386
-8.28389
-8.2839
-8.3815
-8.38147
-8.38146
-8.38148
-8.38151
-8.38154
-8.38159
-8.38164
-8.3817
-8.38177
-8.38184
-8.3819
-8.38196
-8.382
-8.38204
-8.38207
-8.3821
-8.38212
-8.38214
-8.38215
-8.38215
-8.38216
-8.38216
-8.38217
-8.3822
-8.38223
-8.38227
-8.38231
-8.38235
-8.38237
-8.47983
-8.4798
-8.47981
-8.47985
-8.47989
-8.47995
-8.48
-8.48007
-8.48014
-8.48021
-8.48028
-8.48034
-8.48039
-8.48044
-8.48048
-8.48051
-8.48054
-8.48057
-8.48058
-8.48059
-8.48059
-8.4806
-8.48061
-8.48063
-8.48067
-8.48071
-8.48076
-8.48081
-8.48084
-8.48086
-8.57823
-8.57823
-8.57826
-8.5783
-8.57836
-8.57842
-8.57848
-8.57856
-8.57863
-8.5787
-8.57876
-8.57881
-8.57885
-8.57889
-8.57893
-8.57896
-8.57899
-8.57902
-8.57904
-8.57906
-8.57907
-8.5791
-8.57912
-8.57916
-8.57921
-8.57926
-8.5793
-8.57935
-8.57938
-8.57939
-8.67674
-8.67675
-8.67678
-8.67682
-8.67687
-8.67694
-8.67701
-8.67708
-8.67714
-8.6772
-8.67725
-8.67729
-8.67732
-8.67735
-8.67738
-8.67741
-8.67745
-8.67748
-8.67751
-8.67755
-8.67759
-8.67764
-8.67768
-8.67774
-8.67779
-8.67784
-8.67788
-8.67791
-8.67793
-8.67794
-8.77531
-8.77532
-8.77534
-8.77538
-8.77542
-8.77548
-8.77554
-8.7756
-8.77565
-8.77569
-8.77572
-8.77575
-8.77577
-8.7758
-8.77583
-8.77586
-8.7759
-8.77594
-8.776
-8.77606
-8.77612
-8.77619
-8.77626
-8.77632
-8.77637
-8.77642
-8.77645
-8.77647
-8.77648
-8.77648
-8.87391
-8.87391
-8.87393
-8.87395
-8.87399
-8.87403
-8.87407
-8.87411
-8.87414
-8.87416
-8.87418
-8.8742
-8.87421
-8.87424
-8.87426
-8.8743
-8.87435
-8.87441
-8.87449
-8.87457
-8.87465
-8.87474
-8.87481
-8.87488
-8.87493
-8.87497
-8.87499
-8.875
-8.87501
-8.87501
-8.97251
-8.97252
-8.97253
-8.97254
-8.97256
-8.97258
-8.9726
-8.97261
-8.97261
-8.97262
-8.97263
-8.97264
-8.97266
-8.97268
-8.97272
-8.97277
-8.97283
-8.9729
-8.97299
-8.97308
-8.97317
-8.97326
-8.97334
-8.9734
-8.97345
-8.97348
-8.9735
-8.97351
-8.97352
-8.97352
-9.07112
-9.07112
-9.07113
-9.07113
-9.07113
-9.07113
-9.07111
-9.0711
-9.07109
-9.07109
-9.07109
-9.07111
-9.07113
-9.07116
-9.07121
-9.07127
-9.07134
-9.07142
-9.07151
-9.0716
-9.07169
-9.07177
-9.07184
-9.07189
-9.07194
-9.07197
-9.07199
-9.072
-9.07201
-9.07201
-9.16971
-9.16971
-9.16971
-9.1697
-9.16968
-9.16965
-9.16963
-9.1696
-9.16958
-9.16958
-9.16958
-9.1696
-9.16963
-9.16968
-9.16973
-9.1698
-9.16987
-9.16995
-9.17003
-9.17011
-9.17019
-9.17026
-9.17032
-9.17037
-9.1704
-9.17044
-9.17046
-9.17047
-9.17048
-9.17048
-9.26826
-9.26826
-9.26825
-9.26823
-9.2682
-9.26817
-9.26814
-9.26811
-9.26809
-9.26809
-9.2681
-9.26812
-9.26816
-9.26821
-9.26827
-9.26834
-9.26841
-9.26848
-9.26855
-9.26861
-9.26867
-9.26873
-9.26878
-9.26882
-9.26885
-9.26888
-9.26891
-9.26892
-9.26893
-9.26893
-9.3668
-9.36679
-9.36678
-9.36676
-9.36672
-9.36669
-9.36666
-9.36663
-9.36662
-9.36662
-9.36663
-9.36665
-9.36669
-9.36675
-9.3668
-9.36686
-9.36692
-9.36698
-9.36704
-9.36709
-9.36713
-9.36718
-9.36722
-9.36725
-9.36729
-9.36731
-9.36734
-9.36735
-9.36736
-9.36736
-9.46532
-9.46532
-9.46531
-9.46528
-9.46525
-9.46522
-9.4652
-9.46517
-9.46516
-9.46516
-9.46517
-9.46519
-9.46523
-9.46527
-9.46532
-9.46537
-9.46542
-9.46547
-9.46551
-9.46554
-9.46558
-9.46561
-9.46564
-9.46567
-9.4657
-9.46572
-9.46574
-9.46575
-9.46576
-9.46576
-9.56383
-9.56384
-9.56383
-9.56381
-9.56379
-9.56376
-9.56374
-9.56372
-9.5637
-9.5637
-9.56371
-9.56373
-9.56375
-9.56379
-9.56383
-9.56386
-9.5639
-9.56393
-9.56396
-9.56398
-9.564
-9.56403
-9.56405
-9.56407
-9.56409
-9.56411
-9.56412
-9.56413
-9.56413
-9.56413
-9.66233
-9.66234
-9.66233
-9.66232
-9.6623
-9.66228
-9.66226
-9.66224
-9.66223
-9.66223
-9.66223
-9.66225
-9.66226
-9.66228
-9.66231
-9.66233
-9.66235
-9.66237
-9.66239
-9.6624
-9.66241
-9.66243
-9.66244
-9.66245
-9.66247
-9.66248
-9.66248
-9.66249
-9.66249
-9.66249
-9.76079
-9.76079
-9.76079
-9.76079
-9.76078
-9.76077
-9.76076
-9.76075
-9.76074
-9.76074
-9.76074
-9.76074
-9.76075
-9.76076
-9.76077
-9.76078
-9.76079
-9.7608
-9.7608
-9.76081
-9.76081
-9.76081
-9.76082
-9.76082
-9.76082
-9.76083
-9.76083
-9.76083
-9.76083
-9.76083
4854.78
4854.78
4854.78
4854.77
4854.77
4854.77
4854.77
4854.77
4854.77
4854.77
4854.77
4854.77
4854.77
4854.77
4854.77
4854.77
4854.77
4854.77
4854.77
4854.77
4854.77
4854.77
4854.77
4854.77
4854.77
4854.78
4854.78
4854.78
4854.78
4854.78
4756.67
4756.67
4756.67
4756.67
4756.67
4756.67
4756.67
4756.67
4756.67
4756.67
4756.67
4756.67
4756.67
4756.67
4756.67
4756.67
4756.67
4756.67
4756.67
4756.67
4756.67
4756.67
4756.67
4756.67
4756.67
4756.67
4756.67
4756.67
4756.68
4756.67
4658.56
4658.56
4658.56
4658.57
4658.57
4658.57
4658.57
4658.57
4658.57
4658.57
4658.57
4658.57
4658.57
4658.57
4658.57
4658.57
4658.57
4658.56
4658.57
4658.57
4658.57
4658.57
4658.57
4658.57
4658.57
4658.57
4658.57
4658.57
4658.57
4658.57
4560.46
4560.46
4560.46
4560.46
4560.46
4560.46
4560.47
4560.47
4560.47
4560.47
4560.47
4560.47
4560.47
4560.47
4560.47
4560.47
4560.47
4560.47
4560.47
4560.47
4560.47
4560.47
4560.47
4560.47
4560.47
4560.46
4560.46
4560.46
4560.46
4560.46
4462.36
4462.36
4462.36
4462.36
4462.36
4462.36
4462.36
4462.36
4462.37
4462.37
4462.37
4462.37
4462.37
4462.37
4462.37
4462.37
4462.37
4462.37
4462.36
4462.36
4462.36
4462.36
4462.36
4462.36
4462.36
4462.36
4462.36
4462.36
4462.36
4462.36
4364.26
4364.26
4364.26
4364.26
4364.26
4364.26
4364.26
4364.26
4364.26
4364.26
4364.26
4364.27
4364.27
4364.27
4364.27
4364.27
4364.27
4364.26
4364.26
4364.26
4364.26
4364.26
4364.26
4364.26
4364.26
4364.26
4364.25
4364.25
4364.25
4364.25
4266.16
4266.16
4266.16
4266.16
4266.16
4266.16
4266.16
4266.16
4266.16
4266.16
4266.16
4266.16
4266.16
4266.16
4266.16
4266.16
4266.16
4266.16
4266.16
4266.16
4266.16
4266.16
4266.16
4266.15
4266.15
4266.15
4266.15
4266.15
4266.15
4266.15
4168.06
4168.06
4168.06
4168.06
4168.06
4168.05
4168.05
4168.05
4168.05
4168.05
4168.05
4168.05
4168.06
4168.06
4168.06
4168.06
4168.06
4168.06
4168.06
4168.06
4168.06
4168.05
4168.05
4168.05
4168.05
4168.05
4168.04
4168.05
4168.05
4168.05
4069.95
4069.96
4069.95
4069.95
4069.95
4069.95
4069.95
4069.95
4069.95
4069.95
4069.95
4069.95
4069.95
4069.95
4069.96
4069.96
4069.96
4069.96
4069.96
4069.96
4069.95
4069.95
4069.95
4069.95
4069.94
4069.94
4069.94
4069.94
4069.94
4069.94
3971.85
3971.85
3971.85
3971.85
3971.85
3971.85
3971.85
3971.85
3971.85
3971.85
3971.85
3971.85
3971.85
3971.85
3971.85
3971.85
3971.86
3971.86
3971.86
3971.85
3971.85
3971.85
3971.85
3971.84
3971.84
3971.84
3971.84
3971.84
3971.84
3971.84
3873.74
3873.74
3873.74
3873.74
3873.74
3873.74
3873.74
3873.74
3873.75
3873.75
3873.75
3873.75
3873.75
3873.75
3873.75
3873.75
3873.75
3873.75
3873.75
3873.75
3873.75
3873.75
3873.75
3873.75
3873.74
3873.74
3873.74
3873.74
3873.74
3873.74
3775.63
3775.63
3775.63
3775.63
3775.64
3775.64
3775.64
3775.64
3775.64
3775.65
3775.65
3775.65
3775.65
3775.65
3775.65
3775.65
3775.65
3775.65
3775.65
3775.65
3775.65
3775.65
3775.65
3775.65
3775.64
3775.64
3775.64
3775.64
3775.64
3775.64
3677.53
3677.53
3677.53
3677.53
3677.53
3677.53
3677.54
3677.54
3677.54
3677.55
3677.55
3677.55
3677.55
3677.55
3677.55
3677.55
3677.55
3677.55
3677.55
3677.55
3677.55
3677.55
3677.55
3677.55
3677.54
3677.54
3677.54
3677.54
3677.54
3677.54
3579.42
3579.42
3579.42
3579.43
3579.43
3579.43
3579.44
3579.44
3579.44
3579.44
3579.45
3579.45
3579.45
3579.45
3579.45
3579.45
3579.44
3579.44
3579.44
3579.44
3579.44
3579.44
3579.44
3579.44
3579.44
3579.44
3579.44
3579.44
3579.44
3579.44
3481.32
3481.32
3481.33
3481.33
3481.33
3481.34
3481.34
3481.34
3481.34
3481.34
3481.34
3481.34
3481.34
3481.34
3481.34
3481.34
3481.34
3481.34
3481.34
3481.34
3481.34
3481.34
3481.34
3481.34
3481.34
3481.34
3481.34
3481.35
3481.35
3481.35
3383.23
3383.23
3383.23
3383.23
3383.24
3383.24
3383.24
3383.24
3383.24
3383.24
3383.24
3383.24
3383.24
3383.24
3383.23
3383.23
3383.23
3383.23
3383.23
3383.23
3383.23
3383.23
3383.23
3383.24
3383.24
3383.24
3383.24
3383.24
3383.24
3383.24
3285.14
3285.14
3285.14
3285.14
3285.14
3285.14