/*--------------------------------*- C++ -*----------------------------------*\
| =========                 |                                                 |
| \\      /  F ield         | OpenFOAM: The Open Source CFD Toolbox           |
|  \\    /   O peration     | Version:  2312                                  |
|   \\  /    A nd           | Website:  www.openfoam.com                      |
|    \\/     M anipulation  |                                                 |
\*---------------------------------------------------------------------------*/
FoamFile
{
    version     2.0;
    format      ascii;
    arch        "LSB;label=32;scalar=64";
    class       volScalarField;
    location    "1.4496027068";
    object      p_rgh;
}
// * * * * * * * * * * * * * * * * * * * * * * * * * * * * * * * * * * * * * //

dimensions      [1 -1 -2 0 0 0 0];

internalField   nonuniform List<scalar> 
90000
(
4903.82
4903.83
4903.83
4903.83
4903.82
4903.82
4903.82
4903.82
4903.82
4903.82
4903.82
4903.81
4903.81
4903.81
4903.82
4903.82
4903.82
4903.82
4903.82
4903.82
4903.82
4903.82
4903.82
4903.82
4903.82
4903.83
4903.83
4903.83
4903.83
4903.82
4903.83
4903.83
4903.83
4903.83
4903.83
4903.82
4903.82
4903.82
4903.82
4903.82
4903.81
4903.81
4903.81
4903.81
4903.81
4903.82
4903.82
4903.82
4903.82
4903.82
4903.82
4903.82
4903.82
4903.82
4903.82
4903.83
4903.83
4903.83
4903.82
4903.8
4903.82
4903.83
4903.83
4903.82
4903.82
4903.82
4903.82
4903.82
4903.82
4903.82
4903.81
4903.81
4903.81
4903.81
4903.81
4903.81
4903.81
4903.81
4903.81
4903.81
4903.81
4903.82
4903.82
4903.82
4903.82
4903.82
4903.83
4903.84
4903.86
4903.82
4903.82
4903.82
4903.82
4903.82
4903.82
4903.82
4903.82
4903.82
4903.82
4903.82
4903.81
4903.81
4903.81
4903.81
4903.8
4903.8
4903.8
4903.8
4903.8
4903.81
4903.81
4903.81
4903.81
4903.81
4903.82
4903.82
4903.81
4903.81
4903.83
4903.82
4903.81
4903.81
4903.81
4903.81
4903.81
4903.81
4903.81
4903.82
4903.82
4903.82
4903.82
4903.82
4903.81
4903.81
4903.8
4903.8
4903.8
4903.8
4903.8
4903.8
4903.81
4903.81
4903.81
4903.81
4903.81
4903.82
4903.82
4903.81
4903.82
4903.81
4903.8
4903.79
4903.79
4903.79
4903.8
4903.8
4903.81
4903.81
4903.82
4903.82
4903.82
4903.82
4903.82
4903.82
4903.81
4903.81
4903.8
4903.8
4903.8
4903.81
4903.81
4903.81
4903.81
4903.81
4903.81
4903.81
4903.81
4903.81
4903.8
4903.8
4903.79
4903.77
4903.78
4903.78
4903.79
4903.79
4903.8
4903.81
4903.82
4903.82
4903.83
4903.83
4903.83
4903.83
4903.82
4903.82
4903.81
4903.81
4903.81
4903.81
4903.81
4903.81
4903.81
4903.81
4903.81
4903.81
4903.81
4903.8
4903.79
4903.79
4903.78
4903.77
4903.77
4903.77
4903.78
4903.79
4903.79
4903.8
4903.81
4903.81
4903.82
4903.83
4903.83
4903.83
4903.83
4903.82
4903.82
4903.81
4903.8
4903.8
4903.8
4903.8
4903.8
4903.81
4903.81
4903.8
4903.79
4903.79
4903.79
4903.79
4903.77
4903.77
4903.78
4903.78
4903.78
4903.79
4903.79
4903.79
4903.79
4903.8
4903.8
4903.81
4903.82
4903.82
4903.82
4903.82
4903.81
4903.8
4903.79
4903.79
4903.79
4903.79
4903.79
4903.79
4903.79
4903.78
4903.77
4903.77
4903.78
4903.79
4903.78
4903.8
4903.8
4903.8
4903.8
4903.8
4903.79
4903.79
4903.78
4903.78
4903.79
4903.79
4903.8
4903.81
4903.81
4903.81
4903.8
4903.8
4903.79
4903.79
4903.78
4903.78
4903.77
4903.77
4903.76
4903.75
4903.76
4903.76
4903.77
4903.78
4903.8
4903.84
4903.84
4903.84
4903.83
4903.82
4903.81
4903.79
4903.78
4903.78
4903.78
4903.78
4903.79
4903.8
4903.8
4903.81
4903.81
4903.8
4903.8
4903.8
4903.79
4903.78
4903.77
4903.76
4903.75
4903.75
4903.76
4903.77
4903.78
4903.78
4903.83
4903.88
4903.87
4903.86
4903.85
4903.83
4903.81
4903.8
4903.78
4903.78
4903.78
4903.78
4903.78
4903.79
4903.8
4903.8
4903.81
4903.82
4903.82
4903.82
4903.81
4903.8
4903.78
4903.77
4903.77
4903.78
4903.78
4903.79
4903.78
4903.78
4903.85
4903.87
4903.86
4903.85
4903.83
4903.81
4903.8
4903.79
4903.78
4903.78
4903.77
4903.77
4903.78
4903.78
4903.79
4903.8
4903.81
4903.83
4903.83
4903.83
4903.82
4903.81
4903.8
4903.8
4903.8
4903.8
4903.8
4903.79
4903.78
4903.78
4903.84
4903.81
4903.8
4903.79
4903.78
4903.77
4903.77
4903.77
4903.77
4903.77
4903.77
4903.77
4903.77
4903.77
4903.78
4903.79
4903.81
4903.82
4903.82
4903.82
4903.81
4903.81
4903.8
4903.81
4903.81
4903.8
4903.78
4903.76
4903.75
4903.75
4903.79
4903.72
4903.72
4903.72
4903.72
4903.73
4903.75
4903.76
4903.78
4903.78
4903.78
4903.78
4903.77
4903.77
4903.77
4903.79
4903.8
4903.8
4903.8
4903.8
4903.8
4903.8
4903.81
4903.81
4903.8
4903.77
4903.75
4903.73
4903.72
4903.73
4903.73
4903.65
4903.66
4903.68
4903.7
4903.73
4903.76
4903.78
4903.8
4903.8
4903.79
4903.79
4903.78
4903.78
4903.78
4903.78
4903.79
4903.78
4903.78
4903.79
4903.8
4903.81
4903.81
4903.81
4903.79
4903.77
4903.76
4903.76
4903.76
4903.8
4903.69
4903.63
4903.66
4903.69
4903.72
4903.75
4903.78
4903.79
4903.8
4903.79
4903.79
4903.78
4903.78
4903.78
4903.78
4903.78
4903.77
4903.76
4903.76
4903.77
4903.79
4903.81
4903.82
4903.81
4903.8
4903.8
4903.8
4903.82
4903.85
4903.87
4903.69
4903.67
4903.7
4903.72
4903.74
4903.76
4903.77
4903.77
4903.77
4903.76
4903.76
4903.77
4903.78
4903.78
4903.78
4903.76
4903.75
4903.74
4903.74
4903.75
4903.77
4903.78
4903.78
4903.77
4903.77
4903.78
4903.81
4903.83
4903.85
4903.81
4903.72
4903.71
4903.72
4903.73
4903.74
4903.74
4903.74
4903.74
4903.74
4903.75
4903.77
4903.79
4903.8
4903.8
4903.78
4903.76
4903.73
4903.72
4903.72
4903.73
4903.73
4903.73
4903.71
4903.7
4903.71
4903.73
4903.74
4903.74
4903.72
4903.66
4903.73
4903.73
4903.73
4903.74
4903.74
4903.74
4903.74
4903.75
4903.76
4903.79
4903.81
4903.83
4903.83
4903.81
4903.78
4903.75
4903.73
4903.73
4903.73
4903.73
4903.71
4903.69
4903.68
4903.68
4903.69
4903.7
4903.69
4903.66
4903.61
4903.62
4903.73
4903.75
4903.76
4903.77
4903.78
4903.78
4903.79
4903.8
4903.81
4903.83
4903.84
4903.83
4903.81
4903.77
4903.74
4903.73
4903.74
4903.75
4903.76
4903.75
4903.72
4903.71
4903.71
4903.72
4903.74
4903.74
4903.72
4903.69
4903.68
4903.75
4903.74
4903.79
4903.8
4903.82
4903.82
4903.82
4903.82
4903.82
4903.81
4903.81
4903.8
4903.77
4903.73
4903.71
4903.71
4903.73
4903.77
4903.79
4903.79
4903.77
4903.75
4903.75
4903.76
4903.78
4903.79
4903.77
4903.75
4903.75
4903.78
4903.8
4903.76
4903.83
4903.83
4903.83
4903.82
4903.81
4903.79
4903.78
4903.78
4903.76
4903.74
4903.71
4903.69
4903.7
4903.73
4903.78
4903.81
4903.82
4903.79
4903.77
4903.76
4903.77
4903.79
4903.8
4903.78
4903.75
4903.74
4903.75
4903.75
4903.69
4903.77
4903.8
4903.79
4903.78
4903.76
4903.76
4903.75
4903.76
4903.76
4903.75
4903.73
4903.71
4903.71
4903.73
4903.77
4903.8
4903.79
4903.76
4903.73
4903.73
4903.75
4903.79
4903.81
4903.79
4903.76
4903.73
4903.72
4903.7
4903.65
4903.65
4903.74
4903.72
4903.71
4903.7
4903.71
4903.72
4903.74
4903.76
4903.76
4903.75
4903.72
4903.71
4903.71
4903.73
4903.74
4903.73
4903.69
4903.66
4903.66
4903.71
4903.76
4903.8
4903.8
4903.77
4903.75
4903.73
4903.7
4903.66
4903.66
4903.72
4903.67
4903.62
4903.63
4903.64
4903.65
4903.68
4903.71
4903.73
4903.72
4903.7
4903.68
4903.68
4903.69
4903.71
4903.7
4903.67
4903.65
4903.65
4903.7
4903.76
4903.8
4903.79
4903.75
4903.72
4903.7
4903.68
4903.64
4903.63
4903.69
4903.64
4903.6
4903.53
4903.54
4903.55
4903.58
4903.61
4903.64
4903.66
4903.66
4903.66
4903.68
4903.71
4903.74
4903.76
4903.75
4903.73
4903.73
4903.76
4903.8
4903.82
4903.79
4903.73
4903.68
4903.66
4903.63
4903.61
4903.59
4903.61
4903.6
4903.5
4903.53
4903.44
4903.46
4903.48
4903.52
4903.56
4903.6
4903.62
4903.65
4903.68
4903.72
4903.77
4903.8
4903.81
4903.79
4903.78
4903.8
4903.82
4903.82
4903.77
4903.7
4903.65
4903.64
4903.64
4903.61
4903.6
4903.6
4903.57
4903.48
4903.55
4903.45
4903.39
4903.43
4903.47
4903.52
4903.55
4903.58
4903.6
4903.63
4903.67
4903.72
4903.75
4903.76
4903.75
4903.75
4903.76
4903.77
4903.76
4903.71
4903.64
4903.59
4903.59
4903.6
4903.6
4903.57
4903.58
4903.57
4903.48
4903.5
4903.61
4903.42
4903.42
4903.46
4903.48
4903.49
4903.5
4903.51
4903.53
4903.58
4903.63
4903.68
4903.7
4903.7
4903.7
4903.72
4903.74
4903.73
4903.68
4903.62
4903.56
4903.55
4903.54
4903.52
4903.52
4903.48
4903.49
4903.48
4903.44
4903.56
4903.49
4903.42
4903.42
4903.41
4903.4
4903.39
4903.41
4903.45
4903.51
4903.58
4903.64
4903.68
4903.69
4903.69
4903.7
4903.72
4903.74
4903.71
4903.66
4903.63
4903.6
4903.58
4903.52
4903.44
4903.46
4903.42
4903.4
4903.44
4903.49
4903.47
4903.39
4903.38
4903.31
4903.3
4903.32
4903.36
4903.43
4903.49
4903.54
4903.58
4903.59
4903.6
4903.61
4903.63
4903.67
4903.7
4903.72
4903.71
4903.69
4903.68
4903.65
4903.58
4903.48
4903.39
4903.45
4903.4
4903.35
4903.43
4903.42
4903.32
4903.39
4903.26
4903.22
4903.27
4903.34
4903.41
4903.44
4903.44
4903.42
4903.41
4903.42
4903.46
4903.53
4903.61
4903.68
4903.7
4903.69
4903.68
4903.67
4903.63
4903.53
4903.45
4903.4
4903.34
4903.39
4903.34
4903.3
4903.35
4903.27
4903.28
4903.32
4903.17
4903.24
4903.3
4903.33
4903.32
4903.28
4903.25
4903.24
4903.29
4903.36
4903.48
4903.58
4903.66
4903.69
4903.67
4903.63
4903.57
4903.54
4903.47
4903.35
4903.32
4903.4
4903.31
4903.28
4903.27
4903.27
4903.24
4903.2
4903.23
4903.19
4903.14
4903.2
4903.19
4903.17
4903.15
4903.15
4903.18
4903.24
4903.32
4903.42
4903.52
4903.6
4903.62
4903.61
4903.57
4903.58
4903.53
4903.49
4903.45
4903.39
4903.4
4903.48
4903.3
4903.21
4903.26
4903.23
4903.16
4903.15
4903.09
4903.11
4903.04
4903.03
4903.03
4903.05
4903.09
4903.12
4903.15
4903.21
4903.28
4903.36
4903.45
4903.51
4903.52
4903.55
4903.54
4903.62
4903.61
4903.55
4903.54
4903.51
4903.45
4903.45
4903.26
4903.21
4903.26
4903.15
4903.09
4903.02
4903.05
4903.07
4902.84
4902.89
4902.93
4902.96
4902.96
4902.96
4903.01
4903.1
4903.21
4903.3
4903.35
4903.41
4903.43
4903.56
4903.57
4903.63
4903.59
4903.5
4903.5
4903.5
4903.34
4903.31
4903.22
4903.19
4903.14
4902.98
4902.97
4902.91
4902.98
4902.9
4902.68
4902.75
4902.73
4902.71
4902.73
4902.83
4902.96
4903.08
4903.16
4903.2
4903.25
4903.37
4903.41
4903.6
4903.59
4903.55
4903.52
4903.45
4903.48
4903.45
4903.22
4903.16
4903.15
4903.02
4902.9
4902.79
4902.78
4902.73
4902.68
4902.66
4902.48
4902.43
4902.42
4902.5
4902.64
4902.8
4902.89
4902.94
4903
4903.1
4903.21
4903.44
4903.4
4903.5
4903.54
4903.44
4903.48
4903.45
4903.4
4903.28
4903.07
4902.99
4903.01
4902.78
4902.66
4902.62
4902.54
4902.45
4902.5
4902.63
4902.14
4902.11
4902.22
4902.36
4902.49
4902.56
4902.62
4902.71
4902.88
4903.08
4903.13
4903.3
4903.32
4903.3
4903.52
4903.41
4903.38
4903.3
4903.19
4903.05
4903
4902.88
4902.79
4902.58
4902.43
4902.42
4902.29
4902.28
4902.4
4902.39
4901.79
4901.86
4901.96
4902.06
4902.13
4902.21
4902.35
4902.54
4902.72
4902.92
4902.97
4903.05
4903.33
4903.2
4903.36
4903.33
4903.24
4903.2
4903.17
4903
4902.9
4902.71
4902.48
4902.43
4902.2
4902.17
4902.05
4902.05
4901.95
4901.85
4901.45
4901.5
4901.58
4901.67
4901.74
4901.86
4902.11
4902.34
4902.45
4902.63
4902.9
4902.99
4903.27
4903.19
4903.11
4903.3
4903.26
4903.1
4903.01
4902.83
4902.67
4902.6
4902.33
4902.19
4901.9
4901.78
4901.81
4901.74
4901.45
4901.23
4901.01
4901.08
4901.13
4901.2
4901.37
4901.55
4901.74
4901.96
4902.24
4902.55
4902.62
4902.83
4902.9
4903.18
4903
4903.09
4903.07
4902.88
4902.81
4902.76
4902.48
4902.21
4901.92
4901.63
4901.67
4901.47
4901.21
4901.07
4901.23
4900.85
4900.51
4900.56
4900.54
4900.71
4900.95
4901.09
4901.29
4901.62
4901.79
4902.18
4902.16
4902.66
4902.72
4902.87
4902.87
4902.81
4902.86
4902.81
4902.52
4902.26
4902.07
4901.83
4901.6
4901.2
4901.14
4901.07
4900.72
4900.6
4900.66
4900.32
4899.88
4899.92
4900.04
4900.07
4900.17
4900.61
4900.84
4901.05
4901.32
4901.94
4901.98
4902.13
4902.63
4902.47
4902.59
4902.71
4902.56
4902.49
4902.3
4901.92
4901.66
4901.37
4901.1
4900.99
4900.4
4900.21
4900.24
4900.34
4899.88
4899.29
4899.21
4899.17
4899.28
4899.36
4899.44
4899.84
4900.1
4900.57
4900.6
4901.06
4901.77
4901.76
4901.99
4902.31
4902.15
4902.24
4902.34
4901.92
4901.69
4901.52
4901.12
4900.68
4900.36
4900.14
4899.84
4899.72
4899.54
4899.3
4899.57
4899.06
4898.71
4898.2
4898.35
4898.6
4898.61
4899
4899.1
4899.61
4899.94
4900.68
4900.62
4901.66
4901.55
4901.7
4901.61
4901.92
4901.4
4901.63
4901.25
4900.81
4900.5
4900.01
4899.62
4899.3
4899.1
4898.66
4898.65
4898.72
4898.49
4899.21
4898.6
4896.88
4897.52
4897.45
4897.59
4897.78
4897.9
4898.42
4898.81
4900.19
4900.03
4901.43
4900.27
4901.87
4900.35
4901.87
4900.17
4901.41
4899.91
4900.28
4899.91
4898.83
4898.44
4898.18
4897.83
4897.95
4897.68
4898.01
4897.06
4898.92
4898.05
4894.5
4896.55
4895.67
4896.35
4895.61
4895.76
4896.62
4896.6
4899.23
4898.69
4901.07
4897.27
4901.6
4897.6
4901.72
4897
4900.47
4897.44
4899.11
4898.32
4896.63
4896.86
4896.56
4895.57
4896.52
4895.91
4897.21
4894.59
4898.35
3999.3
3707.8
3890.09
3909.42
4001.55
3812.11
3835.32
3963.3
3904.19
4030.46
4033.47
4085.62
3804.47
4148.4
3891.25
4134.44
3827.65
4052.67
3875.57
4054.77
3999.67
3888.57
3964.47
3946.45
3778.43
3925.78
3876.94
3900.28
3697.6
4001.99
888.413
604.068
649.517
557.32
703.405
559.691
656.875
616.353
529.869
691.07
763.741
695.441
656.739
766.461
716.122
781.936
651.701
637.3
670.209
635.914
670.98
554.843
612.409
728.533
558.184
648.013
555.992
672.802
602.86
886.122
0.418631
7.3924
1.18086
3.31892
4.93214
4.30356
5.44381
1.84917
14.5748
9.8656
10.4665
8.0205
4.67142
5.21263
1.96238
12.8939
2.64846
1.18063
3.3886
24.4639
10.5799
14.4627
0.454738
1.61505
3.78013
3.94154
3.21819
1.15292
10.3382
0.436227
0.00613517
0.785665
0.580241
0.194762
4.5506
0.553538
2.89006
0.164672
3.67881
14.8899
2.16798
11.0587
1.05135
6.41699
0.828703
9.61851
1.53488
2.34846
1.01088
0.794066
15.8858
2.23299
0.458972
2.82725
2.58885
3.43885
0.177733
0.230773
0.0789894
-0.0045793
-0.0301487
-0.0187211
0.0560602
0.0279804
0.203772
0.00675964
-0.0106171
0.110553
0.0835938
0.0997907
0.349988
-0.0319775
0.00791346
-0.0218776
0.00851571
-0.0409599
-0.00622516
-0.0198941
0.0225064
-0.00894757
-0.02862
0.628603
0.52136
-0.022555
-0.0260374
0.0144419
-0.00345144
0.00219693
-0.0108386
-0.0354184
-0.0289505
-0.0205974
-0.0202689
-0.0290179
-0.0386761
-0.0389611
-0.0410862
-0.0148759
0.0318627
-0.0424077
-0.000810626
-0.0176283
-0.00530655
-0.0271684
-0.0451091
-0.0495462
-0.0164047
-0.0251244
-0.00674178
-0.0293148
-0.0475151
0.10107
0.0216642
-0.0438082
-0.0449747
-0.043633
-0.0348843
-0.0300493
-0.0249104
-0.033391
-0.0195618
-0.0206289
-0.0219418
-0.0254112
-0.0287197
-0.0298446
-0.0317364
-0.0288664
-0.0262002
-0.0398056
-0.0401943
-0.0325622
-0.0120258
-0.0216499
-0.0309953
-0.036708
-0.0162914
-0.019879
-0.0202338
-0.0355167
-0.0403016
-0.0237305
-0.0310521
-0.0344522
-0.033043
-0.0313615
-0.0278289
-0.0244213
-0.0242629
-0.0226281
-0.0218062
-0.0220733
-0.0226768
-0.0243667
-0.0267467
-0.0284592
-0.029789
-0.031204
-0.0328505
-0.0346997
-0.0359309
-0.0350982
-0.0334923
-0.0290797
-0.0182591
-0.0194231
-0.0286021
-0.0358406
-0.0364925
-0.036419
-0.0358645
-0.0346323
-0.0332713
-0.032017
-0.0308687
-0.0287794
-0.0263224
-0.0250919
-0.0244943
-0.0241965
-0.0213684
-0.0215738
-0.0223245
-0.023438
-0.0247762
-0.0257773
-0.026819
-0.0278352
-0.0289136
-0.0300607
-0.0312404
-0.0323344
-0.033115
-0.0327584
-0.0180265
-0.0169698
-0.0326149
-0.0331966
-0.0326006
-0.0320331
-0.0312567
-0.0304382
-0.0295125
-0.0286341
-0.027795
-0.0267046
-0.0253394
-0.0244048
-0.0236688
-0.0233123
-0.0198792
-0.0201269
-0.0205897
-0.0212352
-0.0220358
-0.0226776
-0.0233263
-0.0239701
-0.0246445
-0.0252748
-0.0259226
-0.026564
-0.0271058
-0.0274774
-0.0270563
-0.0261703
-0.0276153
-0.0273753
-0.0270698
-0.0267644
-0.0263805
-0.0259393
-0.0254256
-0.0249134
-0.0243623
-0.0237376
-0.0229823
-0.0223571
-0.0219676
-0.0216879
-0.017955
-0.0180507
-0.0183203
-0.0186232
-0.0189831
-0.0193535
-0.019723
-0.0200352
-0.0203249
-0.0205649
-0.0207969
-0.0210624
-0.021309
-0.0214828
-0.0216445
-0.0217099
-0.0216801
-0.0216485
-0.0216541
-0.0216523
-0.0215871
-0.0214683
-0.0212907
-0.0211133
-0.0208324
-0.0204965
-0.0201352
-0.0198683
-0.0196895
-0.0195246
-0.0156259
-0.0157053
-0.0157917
-0.0158398
-0.0159448
-0.0160483
-0.0161046
-0.0161356
-0.0161328
-0.016062
-0.0159904
-0.0159855
-0.0159975
-0.016003
-0.016053
-0.0161027
-0.0161935
-0.0163735
-0.0165908
-0.0168117
-0.016986
-0.0171534
-0.0172742
-0.0173515
-0.0173475
-0.0173001
-0.0172333
-0.0171494
-0.0170978
-0.0170521
-0.0131782
-0.0132183
-0.0131544
-0.0130683
-0.0129626
-0.0128244
-0.0126567
-0.012469
-0.0122205
-0.0119083
-0.0116254
-0.0114278
-0.011272
-0.0111502
-0.0111246
-0.0111866
-0.0113527
-0.0116356
-0.0119714
-0.0123628
-0.0127606
-0.0131567
-0.0134978
-0.0137519
-0.0139571
-0.0141458
-0.0143075
-0.0143847
-0.0144647
-0.0144993
-0.0107708
-0.0107321
-0.0105762
-0.0103697
-0.0100889
-0.00978112
-0.00945263
-0.00908695
-0.00865889
-0.00819132
-0.00776238
-0.00740934
-0.00712395
-0.00692709
-0.00686728
-0.00693857
-0.00714399
-0.00746766
-0.00787908
-0.00839255
-0.00896096
-0.00951966
-0.0100221
-0.0104363
-0.0108028
-0.0111552
-0.0114762
-0.0117042
-0.0118634
-0.0119303
-0.00840861
-0.00831136
-0.00811577
-0.00781263
-0.00741674
-0.00700191
-0.00655211
-0.00605702
-0.00551509
-0.00494671
-0.00440656
-0.00394399
-0.00358203
-0.00335613
-0.0032939
-0.00336615
-0.00357767
-0.00392517
-0.00440263
-0.00500491
-0.00567119
-0.00630915
-0.00689009
-0.00741486
-0.00791107
-0.00838903
-0.00879873
-0.00911594
-0.00932896
-0.00941931
-0.00616933
-0.00608506
-0.00583837
-0.00546346
-0.00500297
-0.00450557
-0.00397228
-0.00341152
-0.00281608
-0.00218951
-0.0015862
-0.00107229
-0.000672755
-0.000422358
-0.000344091
-0.000402886
-0.000602705
-0.000955176
-0.00146785
-0.00211061
-0.00281971
-0.00350908
-0.00414579
-0.00473817
-0.00530329
-0.00584534
-0.00631629
-0.00668748
-0.00693025
-0.00703377
-0.00413769
-0.00402069
-0.00370425
-0.00329718
-0.00281077
-0.00226748
-0.00170336
-0.00111538
-0.000491204
0.000152275
0.000758252
0.00127678
0.00168918
0.0019548
0.00204921
0.00200183
0.00180257
0.00143556
0.00090313
0.000261991
-0.000426778
-0.00110988
-0.00176519
-0.00239932
-0.00301557
-0.00359106
-0.00408324
-0.00446478
-0.00471349
-0.00482526
-0.00228316
-0.00209458
-0.00179853
-0.00140507
-0.000901345
-0.00033747
0.000244537
0.000857378
0.00149092
0.00210686
0.00267035
0.00316944
0.00358503
0.00386022
0.00396234
0.00391102
0.00369908
0.00332384
0.00280773
0.00221241
0.0015781
0.000921327
0.000254747
-0.000406179
-0.00104185
-0.00161574
-0.00209666
-0.00246776
-0.00271521
-0.00283395
-0.000572377
-0.000426624
-0.00017414
0.000227222
0.000749203
0.00131386
0.00190704
0.00252238
0.00312158
0.00367163
0.00417743
0.00465298
0.00506697
0.00534372
0.00543842
0.00536502
0.00513659
0.00477403
0.00430883
0.00378279
0.0032109
0.00259257
0.00194062
0.00128613
0.000663096
0.000108692
-0.000353804
-0.000712655
-0.000955903
-0.00107599
0.000890493
0.000966297
0.00123338
0.00165437
0.00217147
0.00272371
0.00330257
0.00387467
0.00440497
0.00488964
0.00535621
0.00581097
0.00620429
0.00645811
0.00652958
0.00643244
0.00619746
0.00586306
0.00546111
0.00501087
0.00450768
0.00394379
0.00333343
0.00271278
0.00212062
0.00159199
0.00114919
0.000805014
0.000570602
0.000453317
0.00210545
0.00223094
0.0025097
0.00291362
0.00338715
0.00389841
0.00442219
0.00492811
0.00540147
0.00585128
0.00629291
0.00670969
0.00705092
0.00726121
0.00731326
0.007217
0.00700097
0.00670516
0.00636004
0.00597403
0.00553303
0.00502615
0.00446781
0.00389456
0.00334532
0.00285186
0.00243465
0.00210686
0.00188062
0.00176633
0.00326448
0.00341296
0.00364086
0.00397921
0.0043836
0.00483259
0.00529632
0.00575696
0.00620027
0.00662437
0.00702524
0.00737917
0.00765482
0.00782591
0.00787597
0.00780284
0.0076211
0.00736218
0.00705561
0.00671093
0.00631639
0.00586245
0.00536192
0.00484717
0.00435195
0.00390174
0.0035142
0.00320499
0.00299111
0.00288633
0.00426192
0.0043395
0.00450831
0.00478136
0.00512915
0.00552645
0.0059518
0.00638396
0.00679928
0.00718577
0.00752989
0.00781424
0.00802941
0.00816895
0.00822034
0.00817191
0.00802696
0.0078064
0.00753474
0.00722371
0.00686874
0.00646517
0.00602413
0.00557174
0.00513535
0.004736
0.00439053
0.00411637
0.00393087
0.00384427
0.00497224
0.00500696
0.00515752
0.00538366
0.00568004
0.00602983
0.00641709
0.00681085
0.0071857
0.00752431
0.00780632
0.00802185
0.00817884
0.00828477
0.00833282
0.00831
0.00821229
0.00804656
0.00782344
0.00755077
0.00723145
0.00687022
0.00648144
0.00608844
0.00571477
0.00537857
0.0050935
0.00487167
0.00472317
0.00465221
0.00553592
0.00560356
0.00573413
0.0059068
0.00614043
0.0064351
0.00677165
0.00711604
0.00744336
0.00772868
0.00794899
0.00810376
0.00821232
0.00828968
0.0083345
0.00833629
0.00828583
0.00817597
0.0080022
0.00776604
0.00747621
0.00714814
0.00680279
0.00646384
0.006152
0.0058807
0.00565657
0.00548283
0.00536235
0.00529789
0.00607399
0.00617038
0.00624977
0.00636502
0.00653951
0.00677777
0.00705807
0.0073505
0.00762644
0.00785639
0.00802454
0.00813962
0.0082215
0.00828247
0.00832313
0.00833725
0.00831478
0.00824178
0.00810469
0.0079003
0.00763963
0.00734436
0.00703973
0.00674889
0.00648851
0.00626676
0.00608477
0.00594131
0.0058375
0.00577785
0.00650843
0.00655875
0.00659496
0.00667709
0.00681344
0.00700303
0.0072308
0.00747209
0.00769453
0.00787283
0.00800274
0.00809584
0.00816381
0.00821275
0.0082452
0.00825992
0.00824821
0.00819548
0.00808571
0.00791458
0.00769215
0.00744014
0.00718253
0.0069386
0.00672054
0.00653376
0.00637925
0.00625702
0.00616925
0.00612044
0.00670557
0.00669205
0.00672841
0.00681085
0.00693026
0.00708481
0.00726908
0.00746116
0.00763164
0.00776563
0.00786589
0.0079398
0.00799092
0.0080244
0.00804796
0.00806139
0.00805305
0.00800693
0.00791446
0.00777806
0.00760231
0.00740523
0.00720504
0.00701468
0.00684189
0.0066914
0.00656635
0.00646921
0.0064023
0.00636764
0.00672264
0.00670844
0.00677011
0.00686204
0.00696791
0.00709073
0.00722977
0.00736752
0.00748635
0.00758212
0.00765772
0.00771444
0.00775271
0.00777951
0.00779409
0.00779714
0.0077827
0.00773887
0.00765651
0.00753613
0.00740249
0.00726203
0.00712429
0.00699415
0.00687453
0.00676872
0.0066806
0.00661316
0.00656763
0.00654375
0.00676377
0.00679055
0.00686665
0.00694438
0.00701491
0.00708762
0.00716368
0.00723646
0.00730436
0.00736908
0.00742818
0.00747679
0.00751105
0.00753128
0.00753981
0.00753215
0.00750134
0.00744405
0.00736375
0.00727002
0.00717023
0.00707789
0.00699415
0.00691758
0.00684734
0.00678478
0.00673262
0.0066927
0.00666464
0.00664685
0.00691175
0.00697014
0.00702532
0.0070529
0.00706281
0.00706747
0.00707106
0.007081
0.00710749
0.00715236
0.00720623
0.00725613
0.00729665
0.00732124
0.00732567
0.00730569
0.0072594
0.00719189
0.0071133
0.0070347
0.00696322
0.00690228
0.0068509
0.00680637
0.00676763
0.00673511
0.00670981
0.00669121
0.00667661
0.00666311
0.00706757
0.00712021
0.00712306
0.00708931
0.00704309
0.00699226
0.00694326
0.0069122
0.00691243
0.00694354
0.00699176
0.00704188
0.00708261
0.00710465
0.00710246
0.00707479
0.00702483
0.00696174
0.00689534
0.0068329
0.00677746
0.00672978
0.00668854
0.00665429
0.00662862
0.00661173
0.00660276
0.00659859
0.00659357
0.0065839
0.00708351
0.00709863
0.00705025
0.00698499
0.00692004
0.00685366
0.00679095
0.00674753
0.00673437
0.00674619
0.00677349
0.0068043
0.00682768
0.00683545
0.0068241
0.0067955
0.00675484
0.00670894
0.00666232
0.0066166
0.0065717
0.00652829
0.00648883
0.00645678
0.00643466
0.00642349
0.00642067
0.00642295
0.00642187
0.00641435
0.00690978
0.00687849
0.00681766
0.00676682
0.00672195
0.00667264
0.0066244
0.00658655
0.00656152
0.00654843
0.00654266
0.00653922
0.00653267
0.00651917
0.00649806
0.006472
0.00644382
0.00641548
0.00638633
0.00635452
0.00631913
0.00628194
0.00624712
0.00621932
0.00620137
0.00619324
0.00619108
0.00618788
0.00618241
0.00617383
0.00660416
0.00656126
0.0065332
0.00651671
0.00649675
0.00646856
0.00643681
0.00640366
0.00636795
0.00633008
0.00629224
0.00625599
0.00622202
0.00619004
0.006161
0.00613552
0.00611347
0.00609362
0.00607367
0.00605167
0.00602725
0.00600203
0.0059786
0.00595895
0.00594346
0.00593076
0.0059184
0.00590489
0.00589082
0.00587945
0.00629405
0.00628442
0.00629056
0.00629012
0.0062754
0.00625108
0.00622091
0.0061827
0.00613417
0.00607729
0.0060175
0.00596079
0.0059106
0.00586796
0.00583287
0.00580426
0.00578069
0.005761
0.00574419
0.00572961
0.00571703
0.00570605
0.00569537
0.00568282
0.00566629
0.00564458
0.00561774
0.00558932
0.00556413
0.00554795
0.00605026
0.00607591
0.00608545
0.00607191
0.00604212
0.00600579
0.00596424
0.00591307
0.00585132
0.00578259
0.00571339
0.00564953
0.00559417
0.0055474
0.00550818
0.0054751
0.00544747
0.00542561
0.00541015
0.00540102
0.00539704
0.00539489
0.00538988
0.00537729
0.00535431
0.00532028
0.00527949
0.00523842
0.00520422
0.00518361
0.00582146
0.00584847
0.00583667
0.00580131
0.00575512
0.00570429
0.00564748
0.0055826
0.00551155
0.00543973
0.00537184
0.00531104
0.00525817
0.00521224
0.00517204
0.00513707
0.00510759
0.00508458
0.00506878
0.00505999
0.0050553
0.00504996
0.00503852
0.00501666
0.00498258
0.00493815
0.00488924
0.00484292
0.00480608
0.00478506
0.00551753
0.00552341
0.00549326
0.00544784
0.0053946
0.00533369
0.00526558
0.00519285
0.00512066
0.005054
0.00499475
0.00494314
0.00489778
0.00485723
0.00482052
0.00478715
0.00475746
0.00473244
0.00471173
0.00469386
0.00467596
0.00465432
0.00462585
0.00458884
0.00454409
0.00449487
0.00444649
0.00440431
0.0043728
0.00435542
0.00511268
0.00510001
0.00506986
0.00502765
0.00497592
0.00491304
0.004842
0.00477044
0.00470505
0.00464996
0.00460357
0.00456418
0.00452953
0.0044972
0.00446598
0.00443502
0.00440396
0.00437201
0.00433817
0.00430126
0.00426024
0.00421465
0.00416506
0.00411323
0.00406185
0.00401416
0.00397313
0.00394197
0.00392154
0.00391139
0.00464036
0.00462847
0.00460594
0.00457329
0.0045275
0.00447019
0.00440818
0.00434927
0.00429897
0.0042586
0.00422655
0.00419969
0.00417503
0.00414996
0.00412266
0.00409094
0.00405314
0.00400788
0.00395458
0.00389381
0.00382752
0.00375867
0.00369131
0.0036294
0.00357604
0.00353367
0.00350326
0.00348407
0.00347407
0.00347017
0.00414296
0.00413693
0.00412228
0.00409759
0.00406185
0.0040201
0.0039787
0.00394244
0.00391335
0.00389039
0.0038717
0.00385485
0.00383673
0.00381404
0.00378521
0.00374703
0.00369756
0.00363634
0.00356377
0.00348261
0.00339725
0.0033132
0.00323607
0.00317029
0.00311892
0.00308267
0.00306
0.00304821
0.00304367
0.00304051
0.00363838
0.00363198
0.00362142
0.00360595
0.00358689
0.00356904
0.003555
0.00354496
0.00353762
0.0035311
0.00352285
0.00351087
0.00349318
0.00346662
0.00343057
0.00338185
0.00331984
0.00324525
0.00316002
0.00306836
0.00297579
0.00288831
0.00281071
0.0027475
0.00270007
0.00266775
0.00264742
0.0026363
0.00263125
0.00262907
0.00313418
0.00312572
0.00312016
0.00311673
0.00311749
0.00312442
0.00313581
0.00314827
0.00315779
0.00316141
0.00315726
0.00314408
0.00312082
0.00308632
0.00304
0.00298091
0.00291
0.00282913
0.00274152
0.00265149
0.00256382
0.00248284
0.00241245
0.00235538
0.00231215
0.00228058
0.00225933
0.00224613
0.00223919
0.00223662
0.00264432
0.00264078
0.00264288
0.0026525
0.00267087
0.00269614
0.00272373
0.00274822
0.00276503
0.00277121
0.00276546
0.00274688
0.00271559
0.00267195
0.00261683
0.00255136
0.00247784
0.00239911
0.00231827
0.00223866
0.00216316
0.00209437
0.0020346
0.001985
0.00194519
0.00191404
0.00189112
0.00187567
0.00186737
0.00186511
0.00218581
0.00218879
0.00219769
0.00221723
0.00224604
0.00227969
0.00231263
0.00233982
0.00235682
0.00236114
0.00235144
0.00232729
0.00228942
0.00223955
0.00217997
0.00211369
0.00204404
0.00197366
0.00190479
0.00183956
0.001779
0.00172387
0.00167486
0.00163215
0.00159572
0.00156563
0.00154221
0.00152581
0.00151708
0.00151604
0.00175384
0.00175707
0.00177042
0.00179405
0.00182542
0.00185938
0.00189106
0.00191642
0.00193183
0.00193434
0.00192249
0.00189558
0.00185529
0.00180432
0.00174632
0.00168585
0.00162528
0.0015669
0.00151225
0.00146189
0.0014155
0.0013726
0.00133299
0.00129673
0.00126432
0.00123664
0.00121473
0.00119978
0.00119266
0.00119181
0.00133085
0.00133137
0.00134402
0.00136669
0.00139532
0.00142557
0.00145385
0.00147685
0.00149065
0.00149256
0.00148129
0.00145665
0.00142077
0.00137606
0.00132664
0.00127629
0.00122795
0.00118301
0.00114229
0.00110556
0.0010717
0.00103932
0.00100822
0.000978507
0.000951602
0.000928451
0.000910283
0.000898208
0.000892858
0.000892124
0.000915468
0.000910821
0.000921032
0.000939685
0.000963412
0.000988467
0.00101268
0.00103339
0.00104701
0.0010506
0.00104268
0.00102357
0.000995334
0.000960758
0.000923907
0.000887313
0.000852112
0.000820444
0.000792618
0.00076801
0.000745291
0.000722667
0.000700349
0.000678657
0.000658488
0.000641437
0.000628426
0.000619932
0.0006166
0.000615727
0.000519293
0.000514651
0.000521635
0.000534518
0.000551476
0.000570103
0.000588975
0.000605358
0.000616614
0.000620615
0.000616276
0.00060463
0.000587194
0.000565913
0.000542547
0.00051887
0.000497021
0.000477967
0.000461859
0.000448075
0.000435295
0.000422192
0.000409172
0.000396384
0.000384537
0.000374722
0.000367112
0.000362354
0.000360659
0.000360172
0.000156519
0.000155715
0.000158405
0.000164144
0.000172573
0.000182812
0.000193157
0.000202113
0.000208364
0.000211211
0.000210451
0.000206251
0.000199088
0.00018995
0.000179862
0.000169857
0.000160908
0.000153551
0.000147866
0.000143619
0.000139982
0.000136381
0.000132968
0.000129618
0.000126466
0.000123762
0.000121588
0.000120304
0.000119802
0.000119809
4903.83
4903.83
4903.83
4903.83
4903.83
4903.82
4903.82
4903.82
4903.82
4903.82
4903.81
4903.81
4903.81
4903.81
4903.81
4903.82
4903.82
4903.82
4903.82
4903.82
4903.82
4903.82
4903.82
4903.82
4903.83
4903.83
4903.83
4903.83
4903.84
4903.85
4903.83
4903.83
4903.83
4903.83
4903.83
4903.82
4903.82
4903.82
4903.82
4903.81
4903.81
4903.81
4903.81
4903.81
4903.81
4903.81
4903.82
4903.82
4903.82
4903.82
4903.82
4903.82
4903.82
4903.82
4903.82
4903.83
4903.83
4903.83
4903.83
4903.83
4903.83
4903.83
4903.83
4903.82
4903.82
4903.82
4903.82
4903.82
4903.82
4903.81
4903.81
4903.81
4903.81
4903.81
4903.8
4903.8
4903.81
4903.81
4903.81
4903.81
4903.81
4903.81
4903.82
4903.82
4903.82
4903.82
4903.82
4903.82
4903.84
4903.83
4903.82
4903.82
4903.82
4903.82
4903.82
4903.82
4903.82
4903.82
4903.82
4903.82
4903.81
4903.81
4903.81
4903.8
4903.8
4903.8
4903.8
4903.8
4903.8
4903.8
4903.81
4903.81
4903.81
4903.81
4903.82
4903.82
4903.83
4903.81
4903.83
4903.82
4903.81
4903.8
4903.8
4903.8