/*--------------------------------*- C++ -*----------------------------------*\
| =========                 |                                                 |
| \\      /  F ield         | OpenFOAM: The Open Source CFD Toolbox           |
|  \\    /   O peration     | Version:  2312                                  |
|   \\  /    A nd           | Website:  www.openfoam.com                      |
|    \\/     M anipulation  |                                                 |
\*---------------------------------------------------------------------------*/
FoamFile
{
    version     2.0;
    format      ascii;
    arch        "LSB;label=32;scalar=64";
    class       surfaceScalarField;
    location    "1.4496027068";
    object      phi;
}
// * * * * * * * * * * * * * * * * * * * * * * * * * * * * * * * * * * * * * //

dimensions      [0 3 -1 0 0 0 0];

oriented        oriented;

internalField   nonuniform List<scalar> 
263100
(
-3.21979e-09
6.43957e-09
-3.21978e-09
1.39236e-09
-2.89045e-09
-1.80878e-09
3.41952e-09
-7.26795e-10
-1.37397e-09
4.78874e-09
-5.63498e-10
-8.76421e-10
5.75804e-09
-8.45437e-10
-1.91265e-10
6.57622e-09
-1.24837e-09
3.67271e-10
7.26245e-09
-1.63773e-09
8.94451e-10
7.60265e-09
-1.81414e-09
1.42454e-09
7.37331e-09
-1.63007e-09
1.81966e-09
6.48861e-09
-1.04031e-09
1.89689e-09
4.98051e-09
-2.31957e-10
1.72499e-09
2.98624e-09
6.55296e-10
1.33755e-09
8.29499e-10
1.34867e-09
8.19686e-10
-1.00576e-09
1.62966e-09
2.28354e-10
-2.13342e-09
1.35923e-09
-2.00725e-10
-2.36071e-09
6.3578e-10
-3.73509e-10
-1.73894e-09
-2.40317e-10
-3.46648e-10
-6.71394e-10
-9.68746e-10
-6.83527e-11
1.82938e-10
-1.34284e-09
5.11136e-10
1.99602e-10
-1.08541e-09
1.0813e-09
-1.02499e-09
-2.54708e-10
1.48104e-09
-3.52607e-09
9.27551e-10
1.56543e-09
-6.90774e-09
2.02154e-09
1.34474e-09
-1.00895e-08
2.3367e-09
8.26135e-10
-1.17738e-08
1.46152e-09
2.04515e-10
-1.06831e-08
-5.77756e-10
-5.26524e-10
-5.85861e-09
-3.67785e-09
-1.15305e-09
4.05067e-09
-6.46994e-09
-3.43787e-09
1.69454e-08
-8.41166e-09
-4.47519e-09
4.60321e-08
-2.90755e-08
7.81118e-10
4.78064e-09
7.81119e-10
7.32356e-10
-3.76105e-09
7.91417e-10
7.42897e-10
-1.58569e-09
7.33397e-10
7.9162e-10
-1.36515e-09
6.44277e-10
1.03154e-09
-1.80712e-09
6.20622e-10
1.47951e-09
-2.37571e-09
5.87657e-10
2.10083e-09
-2.87119e-09
5.32417e-10
2.81353e-09
-3.05148e-09
4.59931e-10
3.5327e-09
-2.79747e-09
4.01541e-10
4.12443e-09
-2.07108e-09
4.12659e-10
4.4796e-09
-1.06497e-09
4.72713e-10
4.57197e-09
-8.90073e-11
6.67102e-10
4.33311e-09
6.77974e-10
9.42047e-10
3.82175e-09
8.83958e-10
1.30197e-09
2.98908e-09
5.92303e-10
1.65061e-09
1.84291e-09
-9.16708e-11
1.92385e-09
5.43677e-10
-9.67415e-10
2.06913e-09
-7.3762e-10
-1.66995e-09
2.01239e-09
-1.93707e-09
-1.86448e-09
1.7346e-09
-2.98884e-09
-1.38398e-09
1.34646e-09
-3.92519e-09
-3.19851e-10
9.81868e-10
-4.73663e-09
9.29659e-10
7.78018e-10
-5.42838e-09
1.97531e-09
7.00756e-10
-5.67924e-09
1.79384e-09
7.57057e-10
-5.62232e-09
3.3457e-10
1.03984e-09
-5.68812e-09
-2.28045e-09
1.74869e-09
-5.95201e-09
-6.08687e-09
2.66452e-09
-1.86424e-09
-1.54911e-08
4.93425e-09
1.21728e-08
-3.05957e-08
8.15216e-09
5.49417e-08
3.26264e-09
1.77741e-09
1.16121e-09
1.77742e-09
-4.14775e-10
-2.48564e-09
8.55034e-10
-1.81632e-09
-9.17287e-10
6.78313e-10
-2.74087e-09
-8.43966e-10
3.5217e-10
-3.31928e-09
-1.29589e-09
1.91306e-11
-3.48665e-09
-2.03907e-09
-2.13928e-10
-3.07511e-09
-2.80834e-09
-5.14628e-10
-2.05268e-09
-3.33063e-09
-7.77538e-10
-4.51356e-10
-3.5432e-09
-8.82165e-10
1.5401e-09
-3.28589e-09
-7.94233e-10
3.66942e-09
-2.69571e-09
-5.06798e-10
5.52255e-09
-1.95279e-09
1.09689e-11
6.8453e-09
-1.15449e-09
5.16449e-10
7.11705e-09
-5.1401e-10
1.13625e-09
6.23541e-09
-8.67214e-11
1.57019e-09
4.24633e-09
1.25576e-10
1.77704e-09
1.486e-09
1.63431e-10
1.62707e-09
-1.40545e-09
5.15087e-11
1.15774e-09
-3.74234e-09
-4.80862e-11
4.97539e-10
-4.9791e-09
-5.43385e-12
-1.74915e-10
-4.91783e-09
1.82905e-10
-6.05578e-10
-3.71929e-09
4.95226e-10
-8.11434e-10
-1.68856e-09
5.94988e-10
-7.0042e-10
4.82388e-10
-1.32806e-11
-4.13501e-10
2.39015e-09
-1.49162e-09
-1.28531e-10
3.15493e-09
-3.13233e-09
4.41208e-11
4.557e-10
-3.83661e-09
4.09904e-10
-6.85374e-09
-1.16529e-08
3.4349e-09
-4.40481e-09
-4.14858e-08
8.40586e-09
3.33025e-08
1.71955e-08
1.70954e-09
-2.28588e-09
1.70954e-09
-1.29904e-09
-1.74135e-10
7.04037e-10
-3.19538e-09
5.28839e-10
4.56906e-10
-4.54427e-09
4.77503e-10
3.41068e-11
-5.5869e-09
2.14752e-11
-2.6996e-10
-6.15323e-09
-8.61347e-10
-6.09816e-10
-6.05847e-09
-1.89019e-09
-1.01494e-09
-5.1762e-09
-2.87486e-09
-1.34346e-09
-3.56272e-09
-3.66431e-09
-1.50073e-09
-1.33259e-09
-4.07106e-09
-1.45594e-09
1.25101e-09
-4.06643e-09
-1.22658e-09
3.73195e-09
-3.6284e-09
-8.223e-10
5.59204e-09
-2.73697e-09
-2.98799e-10
6.38538e-09
-1.44608e-09
1.12266e-10
5.90807e-09
7.2943e-11
2.85037e-10
4.20644e-09
1.59992e-09
1.88217e-10
1.68407e-09
2.71132e-09
-7.06148e-11
-9.50432e-10
3.19829e-09
-5.62247e-10
-2.94682e-09
2.93273e-09
-1.03768e-09
-3.67053e-09
2.08641e-09
-1.42308e-09
-2.8282e-09
9.6273e-10
-1.67775e-09
-6.13093e-10
-3.14548e-11
-1.74439e-09
2.37139e-09
-8.66614e-10
-1.57972e-09
5.22761e-09
-1.73204e-09
-1.1962e-09
7.18237e-09
-2.78108e-09
-7.27189e-10
8.87274e-09
-4.15903e-09
-7.29819e-10
1.14645e-08
-3.68868e-09
-2.81079e-09
3.43733e-09
-4.50287e-10
-3.25133e-09
-1.0555e-08
-2.48078e-08
-2.76385e-09
1.5404e-08
7.27255e-09
1.38794e-09
-5.04777e-09
1.38794e-09
-1.36476e-09
2.09287e-09
5.52801e-10
-3.11259e-09
1.97217e-09
3.64415e-10
-4.37998e-09
1.76404e-09
3.69845e-11
-5.40934e-09
1.28158e-09
-1.81043e-10
-6.12689e-09
3.05045e-10
-4.07759e-10
-6.39842e-09
-9.10949e-10
-6.76678e-10
-6.15965e-09
-2.25773e-09
-8.35806e-10
-5.34695e-09
-3.45485e-09
-1.01362e-09
-3.96138e-09
-4.41457e-09
-1.04553e-09
-2.18762e-09
-4.86936e-09
-9.86594e-10
-3.15507e-10
-4.6721e-09
-8.56509e-10
1.36512e-09
-3.70926e-09
-7.48249e-10
2.51697e-09
-1.95953e-09
-6.88823e-10
3.01227e-09
2.57815e-10
-7.38864e-10
2.69017e-09
2.74273e-09
-8.84463e-10
1.73423e-09
4.64233e-09
-1.04004e-09
5.89324e-10
5.4691e-09
-1.18816e-09
-1.75583e-10
4.99373e-09
-1.35255e-09
-1.00555e-10
3.47268e-09
-1.51047e-09
9.61371e-10
1.49772e-09
-1.63948e-09
2.93311e-09
-3.33266e-10
-1.70867e-09
5.37369e-09
-1.63774e-09
-1.70864e-09
7.55229e-09
-2.37363e-09
-1.58136e-09
8.59466e-09
-2.63004e-09
-1.24689e-09
8.18846e-09
-3.26012e-09
-5.57397e-10
8.66594e-09
-3.65202e-09
-5.89732e-10
5.83509e-09
3.99501e-09
-1.69839e-09
-6.27715e-09
-8.69872e-09
-4.08389e-09
9.25807e-09
-2.01322e-10
6.49401e-10
-6.29872e-09
6.49402e-10
-7.79165e-10
3.39939e-09
2.22131e-10
-1.60208e-09
2.65261e-09
2.31031e-10
-2.17031e-09
2.22918e-09
1.85463e-10
-2.7285e-09
1.72863e-09
1.84996e-10
-3.31932e-09
7.88346e-10
1.70632e-10
-3.90342e-09
-4.47814e-10
1.71592e-10
-4.50186e-09
-1.83562e-09
2.12961e-10
-5.04252e-09
-3.13003e-09
2.37255e-10
-5.33587e-09
-4.2499e-09
1.33989e-10
-5.28411e-09
-4.9503e-09
1.80098e-11
-4.7856e-09
-5.03302e-09
-1.64579e-10
-3.80708e-09
-4.331e-09
-3.97735e-10
-2.43042e-09
-2.74834e-09
-6.39392e-10
-8.41743e-10
-5.81091e-10
-8.07152e-10
6.60078e-10
2.07397e-09
-8.90479e-10
1.88951e-09
4.19034e-09
-8.28847e-10
2.76451e-09
5.23711e-09
-6.83231e-10
3.38866e-09
4.88633e-09
-5.42577e-10
3.92749e-09
3.39919e-09
-4.76435e-10
4.61308e-09
1.34748e-09
-5.34461e-10
5.5482e-09
-5.70291e-10
-6.90622e-10
6.57371e-09
-1.78589e-09
-8.70169e-10
7.41701e-09
-2.17781e-09
-1.03891e-09
7.6345e-09
-1.60317e-09
-1.256e-09
5.86276e-09
-2.44944e-10
-1.26864e-09
2.9543e-09
3.2097e-10
-1.10143e-09
2.12358e-09
7.12685e-09
-2.34531e-09
-4.04584e-09
2.40735e-09
-4.98198e-09
8.18027e-09
-2.99518e-09
-5.78508e-10
-5.07875e-09
-5.78508e-10
8.00851e-12
3.33133e-09
-4.20413e-10
7.39337e-10
2.18538e-09
-1.77954e-10
1.40446e-09
1.66239e-09
-1.84749e-11
1.76743e-09
1.183e-09
2.54978e-10
1.58726e-09
4.72797e-10
5.5906e-10
7.46177e-10
-3.97345e-10
8.43434e-10
-7.17588e-10
-1.40642e-09
1.07527e-09
-2.63934e-09
-2.40019e-09
1.21896e-09
-4.7626e-09
-3.31104e-09
1.1966e-09
-6.66668e-09
-4.04455e-09
9.95394e-10
-7.79438e-09
-4.51771e-09
5.95384e-10
-7.74285e-09
-4.51781e-09
1.0706e-10
-6.46064e-09
-3.80679e-09
-2.58541e-10
-4.2556e-09
-2.40237e-09
-4.18873e-10
-1.36542e-09
-5.38886e-10
-3.0583e-10
1.52509e-09
1.28906e-09
-4.61029e-12
4.02168e-09
2.43242e-09
3.10708e-10
5.74763e-09
2.52755e-09
6.55582e-10
6.66984e-09
1.62138e-09
8.97359e-10
6.94955e-09
1.02561e-10
1.02172e-09
6.74377e-09
-1.2362e-09
9.36405e-10
6.2207e-09
-1.97222e-09
7.74977e-10
5.22882e-09
-1.73202e-09
6.06248e-10
3.83836e-09
-3.7528e-10
2.13535e-10
1.71488e-09
2.48694e-09
-5.67143e-10
-1.52347e-09
4.81338e-09
-1.22012e-09
-1.94374e-09
9.95002e-09
-2.37229e-09
-3.71454e-09
8.04044e-09
-3.83093e-09
6.71208e-09
-2.20709e-09
-2.08637e-09
-8.49667e-10
-2.08637e-09
6.44159e-10
2.04608e-09
-1.37851e-09
3.0107e-09
9.85575e-10
-1.10856e-09
5.00029e-09
5.01353e-10
-7.74557e-10
6.34607e-09
1.80707e-10
-2.93592e-10
6.7432e-09
-4.72744e-11
1.68204e-10
5.91615e-09
-1.55761e-10
6.24966e-10
3.90659e-09
-3.17206e-10
9.52468e-10
9.6704e-10
-5.65402e-10
1.12773e-09
-2.43021e-09
-9.97183e-10
1.0958e-09
-5.66574e-09
-1.69024e-09
8.82714e-10
-8.02391e-09
-2.72139e-09
5.53714e-10
-9.01762e-09
-3.77497e-09
2.36377e-10
-8.39287e-09
-4.43991e-09
-7.3826e-12
-6.3015e-09
-4.45567e-09
-4.87643e-11
-3.20797e-09
-3.78522e-09
1.537e-10
2.82997e-10
-2.66809e-09
4.84134e-10
3.5507e-09
-1.66879e-09
8.71877e-10
5.98224e-09
-1.16154e-09
1.31695e-09
7.28921e-09
-1.32699e-09
1.71951e-09
7.47808e-09
-1.9914e-09
1.99736e-09
6.7848e-09
-2.62513e-09
2.18284e-09
5.30889e-09
-2.62877e-09
2.23594e-09
3.06626e-09
-1.49411e-09
2.10723e-09
2.70806e-10
7.96711e-10
1.72355e-09
-2.06407e-09
4.10733e-09
8.12742e-10
-4.36595e-09
7.29149e-09
-7.81897e-11
-3.30401e-09
9.57765e-09
-5.9038e-10
-2.17006e-09
7.58767e-09
-5.80399e-10
3.6914e-09
9.4261e-10
-3.01482e-09
5.21346e-09
-3.01482e-09
1.36004e-09
-2.62342e-10
-2.04412e-09
4.79073e-09
-6.33371e-10
-1.79248e-09
7.56825e-09
-9.16737e-10
-1.34096e-09
9.44289e-09
-8.08593e-10
-8.66713e-10
1.01267e-08
-3.1599e-10
-3.96313e-10
9.40965e-09
5.78388e-10
7.25309e-13
7.39907e-09
1.52706e-09
1.81508e-10
4.34791e-09
2.22268e-09
2.7359e-10
7.68561e-10
2.32408e-09
2.62373e-10
-2.69292e-09
1.58984e-09
1.79077e-10
-5.47374e-09
3.56769e-13
5.14426e-11
-7.1513e-09
-2.12768e-09
2.04831e-11
-7.52272e-09
-4.1587e-09
8.28497e-11
-6.5898e-09
-5.60687e-09
2.18508e-10
-4.56503e-09
-6.1815e-09
3.84095e-10
-1.86193e-09
-5.94622e-09
6.03311e-10
9.92983e-10
-5.33451e-09
8.56058e-10
3.52895e-09
-4.78602e-09
1.14983e-09
5.29942e-09
-4.50519e-09
1.48241e-09
5.99825e-09
-4.35185e-09
1.74597e-09
5.48965e-09
-4.02641e-09
2.00049e-09
3.86341e-09
-3.02515e-09
2.11737e-09
1.41285e-09
-9.03045e-10
1.95798e-09
-1.30838e-09
2.03629e-09
1.5848e-09
-3.10231e-09
5.02613e-09
9.84145e-10
-3.51029e-09
6.9645e-09
8.50198e-10
-1.46146e-09
6.3554e-09
1.29372e-09
2.36083e-10
3.69179e-09
2.32119e-09
1.51829e-09
2.51096e-09
-2.85171e-09
1.09225e-08
-2.85171e-09
1.99145e-09
-3.4353e-09
-1.6867e-09
5.5095e-09
-2.83489e-09
-1.33035e-09
8.20657e-09
-2.7897e-09
-8.35367e-10
9.84891e-09
-2.05222e-09
-4.06502e-10
1.02801e-08
-6.49587e-10
-1.02047e-10
9.64416e-09
1.19508e-09
1.68589e-11
8.05066e-09
3.09946e-09
1.88959e-11
5.84257e-09
4.53332e-09
-1.06583e-10
3.31479e-09
5.01025e-09
-1.6562e-10
7.68238e-10
4.21475e-09
-8.90103e-11
-1.5764e-09
2.21335e-09
1.18817e-10
-3.57631e-09
-5.25876e-10
3.85598e-10
-5.07846e-09
-3.2787e-09
6.13117e-10
-5.88981e-09
-5.53133e-09
7.33283e-10
-5.85227e-09
-6.94762e-09
7.34676e-10
-4.83636e-09
-7.54508e-09
5.98413e-10
-2.96755e-09
-7.59052e-09
4.11238e-10
-7.05476e-10
-7.33553e-09
3.18112e-10
1.31151e-09
-6.83603e-09
3.48791e-10
2.59638e-09
-6.07342e-09
4.74157e-10
2.74135e-09
-4.68205e-09
5.50378e-10
1.82485e-09
-2.46691e-09
4.01593e-10
3.83898e-10
5.3889e-10
4.8522e-11
-8.59725e-10
3.66544e-09
-3.27339e-10
-9.62117e-10
5.55563e-09
-3.58795e-10
2.91761e-10
5.49765e-09
2.91147e-10
1.77622e-09
3.79922e-09
1.15781e-09
1.38671e-09
2.55929e-09
1.61248e-09
2.38425e-09
5.89126e-10
-6.77817e-10
1.22623e-08
-6.77816e-10
2.74254e-09
-7.34356e-09
4.50911e-10
4.75207e-09
-5.53903e-09
6.64206e-10
5.91771e-09
-4.87312e-09
8.9189e-10
6.28212e-09
-3.49874e-09
1.06099e-09
5.99544e-09
-1.4128e-09
1.03298e-09
5.40451e-09
9.61263e-10
8.10699e-10
4.76285e-09
3.30792e-09
4.20374e-10
4.23031e-09
4.93554e-09
1.17357e-10
3.70563e-09
5.52487e-09
-3.73051e-12
2.95553e-09
4.81837e-09
1.32093e-10
1.68829e-09
3.02195e-09
4.44667e-10
-2.39417e-10
6.43989e-10
7.45566e-10
-2.642e-09
-1.72962e-09
8.43991e-10
-5.03474e-09
-3.86869e-09
7.23674e-10
-6.80722e-09
-5.53299e-09
3.53802e-10
-7.44154e-09
-6.74935e-09
-1.6481e-10
-6.77358e-09
-7.60295e-09
-6.60621e-10
-5.10894e-09
-8.0415e-09
-9.6763e-10
-3.07518e-09
-7.80022e-09
-1.08349e-09
-1.37916e-09
-6.65361e-09
-1.1339e-09
-4.23311e-10
-4.46912e-09
-1.18824e-09
-1.24357e-10
-1.39263e-09
-1.39008e-09
2.32227e-10
1.70286e-09
-1.53077e-09
1.003e-09
4.27175e-09
-1.37779e-09
2.36479e-09
5.09006e-09
-8.86266e-10
3.65076e-09
4.41567e-09
-1.83851e-10
3.39732e-09
3.96996e-09
1.11083e-10
1.35199e-09
5.10082e-09
-4.63489e-10
4.87372e-09
-1.11997e-09
2.71119e-09
6.8158e-09
2.71119e-09
2.51403e-09
-1.04411e-08
3.25616e-09
1.60577e-09
-8.27796e-09
3.61602e-09
1.10281e-10
-6.76703e-09
3.36251e-09
-1.40771e-09
-4.85465e-09
2.85094e-09
-2.47793e-09
-2.38799e-09
2.02572e-09
-2.78971e-09
2.2774e-10
1.02812e-09
-2.00056e-09
2.31822e-09
1.85289e-10
-4.04352e-10
3.69134e-09
-3.65444e-10
1.44923e-09
4.18381e-09
-5.23731e-10
2.78887e-09
3.89009e-09
-4.19682e-10
2.91305e-09
3.16854e-09
-2.75788e-10
1.59632e-09
2.19201e-09
-2.33306e-10
-8.97246e-10
1.14904e-09
-3.85445e-10
-3.896e-09
-7.83361e-11
-7.92737e-10
-6.52371e-09
-1.56446e-09
-1.34606e-09
-8.08164e-09
-3.3237e-09
-1.88066e-09
-8.27992e-09
-5.14534e-09
-2.28294e-09
-7.29562e-09
-6.55735e-09
-2.50405e-09
-5.66382e-09
-6.97788e-09
-2.50051e-09
-3.93383e-09
-6.07426e-09
-2.36274e-09
-2.32731e-09
-3.9308e-09
-2.19987e-09
-7.14438e-10
-1.12188e-09
-1.93479e-09
1.21791e-09
1.28702e-09
-1.55966e-09
3.43235e-09
2.89364e-09
-8.69572e-10
5.19969e-09
3.40053e-09
-1.01504e-10
5.42239e-09
3.81478e-09
3.6182e-10
3.6831e-09
5.47815e-09
2.1827e-10
1.42058e-09
7.66792e-09
-3.19349e-10
6.06863e-09
2.01282e-10
5.81549e-09
-4.83679e-09
5.81549e-09
7.50243e-10
-1.05538e-08
5.14683e-09
-3.71342e-09
-8.21425e-09
4.37397e-09
-7.61457e-09
-6.11065e-09
3.22091e-09
-1.06872e-08
-3.68297e-09
1.87887e-09
-1.22086e-08
-1.24037e-09
3.5365e-10
-1.18375e-08
6.51476e-10
-8.12579e-10
-9.62454e-09
1.82646e-09
-1.73555e-09
-6.06556e-09
2.43893e-09
-2.31611e-09
-2.16707e-09
2.7232e-09
-2.44126e-09
8.95009e-10
3.17673e-09
-2.34521e-09
2.33726e-09
4.02404e-09
-2.28786e-09
2.0008e-09
4.98162e-09
-2.43897e-09
2.98381e-10
5.65378e-09
-2.78751e-09
-2.03339e-09
5.48271e-09
-3.21875e-09
-4.21232e-09
4.18616e-09
-3.57083e-09
-5.67549e-09
1.88113e-09
-3.75516e-09
-6.21814e-09
-8.76693e-10
-3.75644e-09
-5.98206e-09
-3.28835e-09
-3.55186e-09
-5.20819e-09
-4.56599e-09
-3.24477e-09
-4.0204e-09
-4.44845e-09
-2.87806e-09
-2.31363e-09
-3.25353e-09
-2.44638e-09
6.41242e-12
-1.619e-09
-1.87683e-09
2.63419e-09
-2.42999e-10
-1.13985e-09
5.05786e-09
6.89605e-10
-2.50176e-10
6.18545e-09
1.72109e-09
5.29166e-10
5.39109e-09
3.73548e-09
8.52429e-10
3.58312e-09
6.44173e-09
8.16653e-10
2.0161e-09
8.05376e-09
1.13982e-09
6.4072e-09
1.62844e-09
5.45727e-09
-1.57675e-08
5.45727e-09
-3.29501e-09
-4.30811e-09
2.48059e-09
-1.01398e-08
-2.58124e-09
1.1874e-09
-1.51896e-08
-5.96658e-10
-4.89095e-10
-1.84697e-08
1.34025e-09
-1.76792e-09
-1.94488e-08
2.71073e-09
-2.99562e-09
-1.78549e-08
2.92332e-09
-3.88607e-09
-1.41772e-08
2.32669e-09
-4.1927e-09
-9.4048e-09
1.74176e-09
-4.08211e-09
-4.66734e-09
1.85927e-09
-3.87079e-09
-1.02756e-09
3.22639e-09
-3.67674e-09
1.19168e-09
5.52962e-09
-3.70365e-09
1.91235e-09
8.20071e-09
-3.91369e-09
1.62916e-09
1.01718e-08
-4.20925e-09
8.705e-10
1.06355e-08
-4.37573e-09
-1.30631e-11
9.38628e-09
-4.31189e-09
-8.76344e-10
6.74792e-09
-4.01743e-09
-1.68811e-09
3.46123e-09
-3.56017e-09
-2.46719e-09
5.3813e-10
-3.09875e-09
-2.99739e-09
-1.33492e-09
-2.76298e-09
-2.88958e-09
-2.0573e-09
-2.563e-09
-1.83811e-09
-2.00859e-09
-2.35376e-09
1.2894e-10
-1.57204e-09
-2.05857e-09
2.49298e-09
-9.40839e-10
-1.6962e-09
4.1792e-09
3.47332e-10
-1.36252e-09
4.49473e-09
2.56261e-09
-1.17168e-09
3.74773e-09
5.81122e-09
-1.34977e-09
2.85642e-09
8.51784e-09
-1.22238e-09
1.52114e-09
9.86085e-09
-5.29961e-10
9.36679e-09
-1.4969e-09
8.89354e-10
-1.75607e-08
8.89355e-10
-8.30718e-09
7.09701e-09
-2.2336e-09
-1.48547e-08
7.28643e-09
-3.34601e-09
-1.90388e-08
8.17501e-09
-4.61488e-09
-2.09579e-08
8.47746e-09
-5.24586e-09
-2.03962e-08
7.39637e-09
-5.27345e-09
-1.76221e-08
5.03181e-09
-4.9045e-09
-1.346e-08
2.4114e-09
-4.26213e-09
-9.07884e-09
8.58823e-10
-3.5045e-09
-5.20894e-09
9.61695e-10
-2.96816e-09
-2.2197e-09
3.06829e-09
-2.81656e-09
2.03239e-11
6.31548e-09
-3.00279e-09
1.77342e-09
9.75744e-09
-3.28224e-09
3.21344e-09
1.21499e-08
-3.39196e-09
4.29488e-09
1.27475e-08
-3.17542e-09
4.77676e-09
1.15783e-08
-2.67047e-09
4.337e-09
9.17916e-09
-2.0066e-09
2.9413e-09
6.20138e-09
-1.37827e-09
9.28048e-10
3.57941e-09
-1.07654e-09
-1.04006e-09
1.67993e-09
-1.10276e-09
-2.19825e-09
4.20002e-10
-1.37427e-09
-2.22908e-09
-2.32987e-10
-1.79208e-09
-1.23766e-09
-4.13011e-10
-2.18645e-09
-1.58813e-11
3.61048e-10
-2.54954e-09
8.41209e-10
2.46694e-09
-2.99802e-09
9.47463e-10
6.03698e-09
-3.60594e-09
8.00597e-10
9.94139e-09
-4.02139e-09
4.45346e-10
1.26724e-08
-3.85429e-09
-3.33568e-10
1.46708e-08
-4.09616e-09
1.34971e-08
-4.50952e-09
-4.13503e-09
-9.30615e-09
-4.13503e-09
-1.08645e-08
2.01165e-08
-6.30865e-09
-1.48685e-08
1.74592e-08
-6.18835e-09
-1.67065e-08
1.60909e-08
-6.09811e-09
-1.64248e-08
1.35976e-08
-5.42198e-09
-1.44053e-08
9.70124e-09
-4.34325e-09
-1.15621e-08
5.22061e-09
-3.04815e-09
-8.8135e-09
1.54209e-09
-1.89105e-09
-6.53391e-09
-3.69699e-10
-1.05675e-09
-4.85397e-09
9.63656e-11
-8.13084e-10
-3.34325e-09
2.62235e-09
-1.05576e-09
-1.3806e-09
5.93534e-09
-1.56708e-09
1.19152e-09
9.1543e-09
-1.95001e-09
4.1272e-09
1.1107e-08
-1.87466e-09
6.63608e-09
1.16034e-08
-1.35262e-09
7.92721e-09
1.08489e-08
-5.59876e-10
7.59128e-09
9.30377e-09
2.01084e-10
5.67842e-09
7.49188e-09
6.01258e-10
2.84873e-09
5.79941e-09
5.81751e-10
1.23158e-10
4.14914e-09
2.26932e-10
-1.62587e-09
2.40876e-09
-2.6616e-10
-2.26528e-09
1.06632e-09
-6.81719e-10
-2.19377e-09
5.37282e-10
-1.04111e-09
-2.15482e-09
1.72232e-09
-1.42205e-09
-2.4576e-09
4.71426e-09
-1.9749e-09
-2.761e-09
8.77314e-09
-2.47587e-09
-2.55572e-09
1.22919e-08
-2.61063e-09
-2.17753e-09
1.48591e-08
-2.62148e-09
-1.04402e-09
1.6514e-08
-3.01657e-09
1.31885e-08
-7.37273e-10
-6.55343e-09
3.78957e-09
-6.55343e-09
-9.01499e-09
2.8813e-08
-6.23193e-09
-9.7642e-09
2.36407e-08
-5.42963e-09
-9.175e-09
1.9924e-08
-4.41981e-09
-7.60132e-09
1.50726e-08
-3.04761e-09
-5.7257e-09
9.44375e-09
-1.61931e-09
-4.39264e-09
4.34093e-09
-4.57166e-10
-4.15537e-09
1.11105e-09
1.87817e-10
-4.54833e-09
-2.78119e-10
2.94483e-10
-5.09845e-09
9.96404e-10
-3.56048e-10
-4.5777e-09
3.26719e-09
-1.16936e-09
-2.63091e-09
5.76678e-09
-1.77894e-09
6.73176e-10
7.67257e-09
-1.82059e-09
4.36915e-09
8.76286e-09
-1.34935e-09
7.30409e-09
9.19211e-09
-5.22423e-10
8.63727e-09
9.28547e-09
2.29547e-10
8.10128e-09
9.15544e-09
6.82767e-10
6.18285e-09
8.66722e-09
7.4373e-10
3.82285e-09
7.5649e-09
6.00855e-10
1.94009e-09
5.63028e-09
4.15585e-10
7.93789e-10
3.21633e-09
3.58588e-10
1.53145e-10
1.13551e-09
5.91375e-10
-6.69369e-10
3.99221e-10
9.72254e-10
-1.89636e-09
1.76167e-09
1.1837e-09
-3.1876e-09
4.80375e-09
1.17931e-09
-3.61438e-09
7.85329e-09
1.31041e-09
-3.05325e-09
9.99729e-09
1.69757e-09
-1.83398e-09
1.12782e-08
2.34755e-09
3.86949e-10
1.09709e-08
3.34741e-09
7.74485e-09
5.88482e-09
-5.43447e-09
1.46633e-08
-5.43447e-09
-4.33631e-09
3.17911e-08
-4.0404e-09
-3.29498e-09
2.57603e-08
-3.12759e-09
-1.86243e-09
2.06794e-08
-2.15761e-09
-4.43482e-10
1.49188e-08
-1.24127e-09
2.0222e-10
9.37605e-09
-5.63372e-10
-2.65765e-10
5.1802e-09
-3.6704e-10
-1.84981e-09
3.23556e-09
-5.46079e-10
-3.8238e-09
2.88149e-09
-1.19898e-09
-4.88687e-09
3.80698e-09
-1.76559e-09
-4.39546e-09
4.91264e-09
-2.15676e-09
-2.08291e-09
5.41986e-09
-1.98546e-09
1.20722e-09
5.67812e-09
-1.31477e-09
4.31044e-09
5.98761e-09
-3.46187e-10
6.31368e-09
6.81787e-09
3.54599e-10
6.90902e-09
8.02346e-09
6.54885e-10
6.37702e-09
9.15736e-09
5.27589e-10
5.44335e-09
9.38853e-09
2.24306e-10
4.78157e-09
8.24685e-09
9.21107e-12
4.57011e-09
5.84646e-09
4.02745e-11
4.38058e-09
3.04506e-09
4.13749e-10
3.49982e-09
1.17076e-09
8.94928e-10
1.71553e-09
1.03525e-09
1.18347e-09
-3.13479e-10
2.57623e-09
1.23037e-09
-1.59125e-09
4.78191e-09
1.30022e-09
-1.41525e-09
5.90087e-09
1.77555e-09
-1.76275e-10
6.07666e-09
2.6998e-09
1.57298e-09
5.83887e-09
3.74439e-09
2.2924e-09
5.23976e-09
5.09879e-09
6.87592e-09
3.23664e-09
-3.54146e-09
2.17726e-08
-3.54146e-09
-1.16803e-09
3.18073e-08
-2.33021e-09
5.50456e-10
2.62599e-08
-2.16673e-09
1.80209e-09
2.13055e-08
-1.83522e-09
2.57126e-09
1.57973e-08
-1.61791e-09
2.3568e-09
1.10639e-08
-1.45816e-09
1.13138e-09
7.84e-09
-1.43325e-09
-5.31138e-10
6.36469e-09
-1.47698e-09
-1.96147e-09
5.79032e-09
-1.49651e-09
-2.40613e-09
5.47079e-09
-1.24117e-09
-1.54251e-09
4.57192e-09
-5.46821e-10
2.57965e-10
3.19239e-09
4.01313e-10
2.07676e-09
2.54372e-09
1.28715e-09
2.98297e-09
2.86367e-09
2.18622e-09
3.09785e-09
4.52492e-09
2.14584e-09
2.87716e-09
6.77289e-09
1.44397e-09
3.04369e-09
8.46031e-09
5.15972e-10
3.83856e-09
8.60781e-09
-9.26428e-12
5.08723e-09
7.27823e-09
-2.5402e-10
5.96502e-09
5.20369e-09
-1.93311e-10
5.53766e-09
3.64465e-09
-1.26099e-10
3.68909e-09
3.38152e-09
-3.23601e-10
1.16812e-09
4.62798e-09
-1.04737e-09
-7.27223e-10
6.54967e-09
-2.0654e-09
-9.15685e-10
7.2934e-09
-2.31014e-09
1.36161e-10
6.79994e-09
-1.92071e-09
1.30834e-09
6.58409e-09
-1.6188e-09
1.44318e-09
7.58038e-09
-1.78867e-09
2.52872e-11
9.7964e-09
-3.05232e-09
1.33694e-08
-6.42923e-09
-2.72745e-09
2.72664e-08
-2.72745e-09
-1.8632e-10
3.15711e-08
-2.24983e-09
1.57197e-09
2.68602e-08
-2.31642e-09
2.92386e-09
2.19624e-08
-1.97936e-09
3.70471e-09
1.6539e-08
-1.50643e-09
3.7282e-09
1.19435e-08
-8.98727e-10
2.97681e-09
8.97711e-09
-3.88887e-10
2.07448e-09
7.10092e-09
1.60586e-10
1.58291e-09
5.61339e-09
6.64862e-10
1.81111e-09
3.74868e-09
1.4935e-09
2.15327e-09
1.64957e-09
2.5807e-09
1.94004e-09
-3.56651e-10
3.75869e-09
6.88129e-10
-4.17852e-10
4.2009e-09
-1.10138e-09
1.27811e-09
3.35169e-09
-2.508e-09
3.93226e-09
1.96867e-09
-2.45733e-09
6.32365e-09
3.69023e-10
-7.68749e-10
7.42896e-09
-6.76042e-10
1.86908e-09
7.02252e-09
-1.05463e-09
4.12824e-09
6.05156e-09
-1.01951e-09
4.71373e-09
5.56768e-09
-9.30439e-10
3.3472e-09
6.2447e-09
-1.21996e-09
7.31884e-10
8.26103e-09
-2.26319e-09
-1.46118e-09
1.03536e-08
-3.54214e-09
-1.78913e-09
1.09098e-08
-4.04123e-09
-3.26888e-10
9.66502e-09
-3.82733e-09
9.30104e-10
9.05631e-09
-3.48046e-09
9.50508e-10
1.06074e-08
-3.98806e-09
-4.92182e-10
1.44042e-08
-5.32623e-09
-2.65088e-09
1.97209e-08
-7.74214e-09
1.79428e-08
-7.23736e-09
-2.35024e-09
3.19985e-08
-2.35024e-09
4.5973e-10
3.04081e-08
-1.62118e-09
2.47525e-09
2.60066e-08
-1.14816e-09
4.03249e-09
2.06885e-08
-2.78664e-10
4.93153e-09
1.50887e-08
5.50392e-10
4.98603e-09
1.07586e-08
1.13014e-09
4.70028e-09
7.62457e-09
1.64521e-09
4.41498e-09
5.28948e-09
2.116e-09
4.26204e-09
2.89756e-09
2.90137e-09
3.76417e-09
7.18007e-10
3.57004e-09
2.33713e-09
-1.00518e-09
4.12317e-09
-5.02006e-10
-1.107e-09
3.62043e-09
-4.06307e-09
9.7663e-10
2.17988e-09
-6.67021e-09
3.73824e-09
1.4212e-10
-7.59576e-09
6.59085e-09
-1.74925e-09
-5.92874e-09
7.30801e-09
-2.66777e-09
-2.41273e-09
6.67962e-09
-2.77385e-09
1.03832e-09
5.95522e-09
-2.37966e-09
2.65087e-09
6.28142e-09
-1.83366e-09
2.10626e-09
8.07983e-09
-1.96501e-09
1.79163e-10
1.09659e-08
-2.80538e-09
-1.48203e-09
1.36004e-08
-3.70189e-09
-1.3176e-09
1.3907e-08
-3.74378e-09
5.95595e-10
1.17695e-08
-2.78746e-09
2.20521e-09
9.55295e-09
-1.49224e-09
2.02026e-09
1.02509e-08
-9.88127e-10
4.392e-10
1.39327e-08
-1.7242e-09
-1.17046e-09
1.8736e-08
-2.72654e-09
-8.83054e-10
2.25967e-08
-3.19414e-09
1.7794e-08
-7.53547e-10
-7.08075e-10
3.34246e-08
-7.08074e-10
2.18082e-09
2.70142e-08
5.00176e-10
3.98533e-09
2.30537e-08
1.13913e-09
4.98705e-09
1.78043e-08
1.87337e-09
4.90132e-09
1.27114e-08
2.46019e-09
4.10588e-09
8.72922e-09
2.83514e-09
3.34833e-09
5.65582e-09
2.75501e-09
2.90769e-09
3.22943e-09
2.54882e-09
2.19319e-09
1.38972e-09
2.28474e-09
8.18232e-10
2.44903e-10
1.91385e-09
-2.05712e-09
8.83205e-10
1.04272e-09
-5.7897e-09
3.10498e-09
-4.44649e-10
-9.05033e-09
6.42129e-09
-2.17389e-09
-1.02249e-08
8.36509e-09
-3.46127e-09
-8.51019e-09
8.48688e-09
-3.62676e-09
-4.72295e-09
6.65907e-09
-3.14922e-09
-8.48193e-10
4.87111e-09
-2.06683e-09
1.16578e-09
5.14939e-09
-1.20285e-09
9.07861e-10
7.72159e-09
-1.18143e-09
-7.35296e-10
1.18792e-08
-2.16776e-09
-1.71494e-09
1.51772e-08
-3.25409e-09
-6.19616e-10
1.58197e-08
-3.33706e-09
2.39016e-09
1.30492e-08
-2.16076e-09
4.91839e-09
9.57658e-09
-3.24144e-10
5.02334e-09
8.76639e-09
7.06016e-10
3.09053e-09
1.17499e-08
4.53488e-10
1.05116e-09
1.60692e-08
-1.00761e-10
4.01182e-10
1.90082e-08
3.49698e-10
1.28115e-09
2.01626e-08
1.53173e-09
1.75576e-08
1.53759e-09
1.41682e-09
3.05828e-08
1.41682e-09
3.53552e-09
2.22801e-08
2.60261e-09
4.14467e-09
1.92277e-08
3.20724e-09
3.45121e-09
1.51813e-08
3.31418e-09
1.67842e-09
1.15743e-08
2.91978e-09
-7.80183e-11
8.43672e-09
2.07443e-09
-1.38864e-09
5.89574e-09
1.11232e-09
-2.10828e-09
3.62466e-09
3.77392e-10
-2.80338e-09
2.23929e-09
-1.00285e-10
-4.56312e-09
2.53836e-09
-4.91477e-10
-7.01944e-09
4.58927e-09
-1.23058e-09
-9.38253e-09
7.6906e-09
-2.23044e-09
-1.00244e-08
9.61577e-09
-2.58187e-09
-8.25987e-09
8.86435e-09
-2.30093e-09
-4.48057e-09
5.89692e-09
-1.22018e-09
-7.12379e-10
2.77392e-09
9.95432e-11
9.6185e-10
1.77394e-09
1.41477e-09
2.19575e-10
4.52281e-09
1.35816e-09
-1.59919e-09
9.64522e-09
-1.2776e-10
-2.52986e-09
1.44556e-08
-1.67929e-09
-1.01272e-09
1.57208e-08
-2.0912e-09
2.81061e-09
1.31051e-08
-1.1184e-09
6.35281e-09
9.14614e-09
3.80962e-10
6.99451e-09
7.5784e-09
1.39917e-09
4.81777e-09
1.01551e-08
8.32832e-10
2.28791e-09
1.49032e-08
-5.98076e-10
1.13722e-09
1.79767e-08
-7.56833e-10
1.1356e-09
1.89922e-08
1.26283e-11
1.25132e-09
2.01504e-08
-7.95858e-11
1.92485e-08
-3.93979e-10
2.91235e-09
2.47485e-08
2.91235e-09
2.81291e-09
1.91349e-08
3.24996e-09
1.86211e-09
1.72518e-08
2.93665e-09
-3.8334e-10
1.51196e-08
2.32439e-09
-2.99799e-09
1.2784e-08
1.43013e-09
-5.22769e-09
1.03372e-08
3.61385e-10
-6.43548e-09
7.44543e-09
-3.06807e-10
-6.98543e-09
4.67347e-09
-4.689e-10
-7.6671e-09
3.38179e-09
-4.46177e-10
-8.92597e-09
4.39248e-09
-6.0424e-10
-1.01775e-08
6.85709e-09
-1.05044e-09
-1.00846e-08
8.8999e-09
-1.35363e-09
-7.7661e-09
8.31534e-09
-1.07106e-09
-3.70709e-09
4.80323e-09
-3.61198e-11
4.01939e-11
8.79533e-10
1.25444e-09
1.83767e-09
-1.17723e-09
2.15449e-09
7.89913e-10
1.24247e-09
1.57986e-09
-1.18706e-09
6.58194e-09
-9.7534e-11
-2.14571e-09
1.21666e-08
-1.59691e-09
-3.28751e-10
1.42206e-08
-1.62067e-09
3.82298e-09
1.17743e-08
-2.25802e-10
7.63359e-09
8.00488e-09
1.30231e-09
8.24195e-09
5.79998e-09
2.77976e-09
5.58509e-09
8.18775e-09
2.0995e-09
2.41786e-09
1.2902e-08
4.61725e-10
6.8976e-10
1.67235e-08
-7.03456e-11
-2.89878e-11
1.88152e-08
-1.06413e-10
-1.85556e-11
1.9529e-08
-5.19236e-10
8.43527e-10
1.93214e-08
1.44885e-11
1.78003e-08
2.31725e-09
2.52766e-09
1.96978e-08
2.52766e-09
6.8719e-10
1.87708e-08
2.23852e-09
-1.43344e-09
1.76001e-08
1.80662e-09
-4.13128e-09
1.67306e-08
1.12281e-09
-6.89937e-09
1.52691e-08
3.18086e-10
-8.91533e-09
1.26448e-08
-2.61256e-10
-1.01131e-08
9.06209e-09
-3.99388e-10
-1.10924e-08
5.99457e-09
-3.40258e-10
-1.23328e-08
5.08004e-09
-4.79133e-10
-1.3343e-08
6.41774e-09
-1.05789e-09
-1.29546e-08
8.28912e-09
-1.87399e-09
-1.03516e-08
8.29219e-09
-2.04119e-09
-5.86274e-09
5.41976e-09
-1.61231e-09
-1.49673e-09
1.25002e-09
-7.95383e-10
1.08982e-09
-1.48898e-09
-1.71389e-10
9.80531e-10
-2.7809e-11
-9.86149e-10
2.66657e-11
4.76768e-09
-2.53423e-09
5.468e-11
1.00825e-08
-3.51932e-09
2.78794e-09
1.24789e-08
-3.05435e-09
7.66002e-09
1.06286e-08
-1.28375e-09
1.15025e-08
6.95057e-09
1.00161e-09
1.19169e-08
4.76363e-09
2.87099e-09
8.54976e-09
6.64692e-09
2.56837e-09
3.99831e-09
1.20228e-08
7.47578e-10
1.48188e-09
1.52735e-08
1.55349e-10
7.17617e-10
1.6408e-08
1.08342e-09
-2.01212e-10
1.85772e-08
1.1745e-09
8.52372e-10
1.83061e-08
2.08176e-10
3.33918e-09
1.4042e-08
2.82385e-09
1.68675e-08
4.26105e-09
1.44954e-09
1.68223e-08
1.44954e-09
-1.33079e-09
2.0593e-08
1.01217e-09
-4.01685e-09
1.99069e-08
4.27495e-10
-6.72499e-09
1.98083e-08
-3.25781e-10
-9.21381e-09
1.85664e-08
-7.72589e-10
-1.11753e-08
1.57264e-08
-1.09686e-09
-1.30154e-08
1.22398e-08
-1.33265e-09
-1.51062e-08
9.81984e-09
-1.75179e-09
-1.69601e-08
9.50082e-09
-2.60483e-09
-1.74322e-08
1.0401e-08
-3.55887e-09
-1.5408e-08
1.00493e-08
-3.82266e-09
-1.08487e-08
7.04892e-09
-3.32303e-09
-5.54403e-09
2.5633e-09
-2.4111e-09
-1.48313e-09
-1.03577e-09
-1.69855e-09
2.08358e-10
-1.17881e-09
-1.9084e-09
8.05218e-10
2.1377e-09
-2.68157e-09
2.41643e-09
6.55387e-09
-3.34702e-09
6.37165e-09
8.9582e-09
-2.80643e-09
1.20246e-08
8.09572e-09
-1.24889e-09
1.62499e-08
5.82386e-09
6.17093e-10
1.66918e-08
4.56077e-09
2.00207e-09
1.31878e-08
7.03562e-09
1.28176e-09
8.2468e-09
1.2081e-08
-4.72661e-10
4.66229e-09
1.71364e-08
-1.54466e-09
3.5577e-09
1.76864e-08
-1.33837e-09
3.30103e-09
1.6807e-08
-1.57719e-10
2.44155e-09
1.90506e-08
3.99695e-10
3.34618e-09
1.65497e-08
8.79814e-10
3.53064e-09
1.2129e-08
1.73131e-09
2.30404e-08
-2.66834e-09
-3.46419e-10
1.75497e-08
-3.46416e-10
-3.41927e-09
2.46186e-08
-9.00792e-10
-6.18859e-09
2.43285e-08
-1.60985e-09
-8.61856e-09
2.45813e-08
-2.30728e-09
-1.06981e-08
2.34342e-08
-2.76128e-09
-1.27822e-08
2.07832e-08
-2.95906e-09
-1.53366e-08
1.79335e-08
-3.14394e-09
-1.81522e-08
1.61476e-08
-3.5369e-09
-1.98079e-08
1.51761e-08
-4.05852e-09
-1.89916e-08
1.36326e-08
-4.08567e-09
-1.54073e-08
9.81988e-09
-3.37084e-09
-9.98235e-09
4.07075e-09
-2.42511e-09
-4.90296e-09
-1.14941e-09