/*--------------------------------*- C++ -*----------------------------------*\
| =========                 |                                                 |
| \\      /  F ield         | OpenFOAM: The Open Source CFD Toolbox           |
|  \\    /   O peration     | Version:  2312                                  |
|   \\  /    A nd           | Website:  www.openfoam.com                      |
|    \\/     M anipulation  |                                                 |
\*---------------------------------------------------------------------------*/
FoamFile
{
    version     2.0;
    format      ascii;
    arch        "LSB;label=32;scalar=64";
    class       volVectorField;
    location    "1.4496027068";
    object      U;
}
// * * * * * * * * * * * * * * * * * * * * * * * * * * * * * * * * * * * * * //

dimensions      [0 1 -1 0 0 0 0];

internalField   nonuniform List<vector> 
90000
(
(-3.46288e-05 4.35593e-05 -3.46288e-05)
(-1.45831e-05 -1.62453e-05 -2.21735e-05)
(3.43362e-05 -2.17893e-06 -1.87514e-05)
(3.93283e-05 -1.13712e-06 -1.59749e-05)
(5.28897e-05 -2.97296e-06 -1.16208e-05)
(6.14424e-05 -5.6273e-06 -6.74825e-06)
(6.90975e-05 -8.15006e-06 -1.82331e-06)
(7.45693e-05 -9.37394e-06 2.5365e-06)
(7.54592e-05 -8.43201e-06 5.73154e-06)
(7.00106e-05 -5.01825e-06 7.3052e-06)
(5.79336e-05 1.17035e-07 7.32759e-06)
(4.01204e-05 5.69543e-06 6.18087e-06)
(1.87954e-05 1.03827e-05 3.99075e-06)
(-1.81287e-06 1.25571e-05 9.4272e-07)
(-1.7076e-05 1.13364e-05 -2.62732e-06)
(-2.39809e-05 7.39181e-06 -5.12319e-06)
(-2.14515e-05 1.65109e-06 -5.64367e-06)
(-1.19826e-05 -4.0088e-06 -3.95629e-06)
(-1.25147e-06 -7.16063e-06 -1.20493e-07)
(4.04241e-06 -6.15492e-06 4.18955e-06)
(-1.23554e-06 -1.187e-06 7.05483e-06)
(-2.02655e-05 6.01432e-06 7.25904e-06)
(-5.14162e-05 1.32327e-05 4.5195e-06)
(-8.58121e-05 1.65158e-05 -1.54606e-06)
(-0.000111895 1.24954e-05 -9.6704e-06)
(-0.000117026 8.72235e-07 -1.80705e-05)
(-8.61241e-05 -1.69815e-05 -2.91567e-05)
(-3.76899e-05 -2.40652e-05 -6.0439e-05)
(0.000137515 -1.34448e-05 -0.000133369)
(0.000147821 0.000277149 -0.000304107)
(4.88968e-06 6.7155e-05 4.88969e-06)
(8.4473e-06 -3.6599e-05 5.0019e-06)
(7.16756e-06 -1.29312e-05 4.2041e-06)
(7.44945e-06 -1.05964e-05 2.94636e-06)
(8.80416e-06 -1.44427e-05 2.21693e-06)
(1.2224e-05 -1.94029e-05 1.38652e-06)
(1.76191e-05 -2.3815e-05 5.4454e-07)
(2.43932e-05 -2.54051e-05 -2.50302e-07)
(3.16837e-05 -2.27232e-05 -8.21828e-07)
(3.83441e-05 -1.53099e-05 -5.99304e-07)
(4.31146e-05 -4.55131e-06 3.87859e-07)
(4.53822e-05 6.42264e-06 2.37657e-06)
(4.46926e-05 1.41117e-05 5.12823e-06)
(4.09837e-05 1.6587e-05 8.76473e-06)
(3.43424e-05 1.24385e-05 1.22572e-05)
(2.44612e-05 3.42738e-06 1.49637e-05)
(1.21246e-05 -7.28443e-06 1.64518e-05)
(-9.5575e-07 -1.63186e-05 1.6119e-05)
(-1.34473e-05 -1.96777e-05 1.37495e-05)
(-2.47063e-05 -1.51624e-05 1.02424e-05)
(-3.46249e-05 -3.8955e-06 6.75255e-06)
(-4.33934e-05 1.09545e-05 4.3985e-06)
(-5.11725e-05 2.36907e-05 3.08365e-06)
(-5.6081e-05 2.56206e-05 3.55464e-06)
(-5.71061e-05 1.31035e-05 6.4673e-06)
(-5.69283e-05 -1.33714e-05 1.50429e-05)
(-5.02273e-05 -5.59072e-05 2.85784e-05)
(-8.43954e-05 -0.000119074 6.46894e-05)
(6.30883e-05 -0.000178512 7.96766e-05)
(0.000132922 0.000567526 4.85056e-05)
(1.69098e-05 3.08768e-05 1.69099e-05)
(1.03036e-05 -3.30309e-05 1.01852e-05)
(-1.54526e-05 -1.49085e-05 8.58424e-06)
(-2.27828e-05 -1.34366e-05 5.84677e-06)
(-3.04535e-05 -1.7872e-05 3.10045e-06)
(-3.44009e-05 -2.40872e-05 -1.69132e-07)
(-3.33639e-05 -3.00219e-05 -3.28747e-06)
(-2.63233e-05 -3.30551e-05 -5.86133e-06)
(-1.33553e-05 -3.23264e-05 -7.44773e-06)
(4.74976e-06 -2.68795e-05 -7.57041e-06)
(2.57827e-05 -1.8132e-05 -5.9664e-06)
(4.61574e-05 -8.90389e-06 -2.57385e-06)
(6.25861e-05 -1.84096e-06 2.6645e-06)
(7.10252e-05 1.2589e-06 7.53837e-06)
(6.80819e-05 -1.68063e-08 1.16502e-05)
(5.34853e-05 -4.3387e-06 1.43805e-05)
(2.92069e-05 -9.55029e-06 1.43642e-05)
(-1.77425e-08 -1.37183e-05 1.15882e-05)
(-2.70385e-05 -1.42521e-05 6.86478e-06)
(-4.53079e-05 -1.00144e-05 1.38725e-06)
(-5.13153e-05 -1.69992e-06 -3.19428e-06)
(-4.47778e-05 8.25398e-06 -5.01648e-06)
(-2.78214e-05 1.45693e-05 -4.1749e-06)
(-5.89995e-06 9.82739e-06 -1.59364e-06)
(1.51711e-05 -6.21418e-06 1.18443e-06)
(2.98024e-05 -2.86679e-05 2.32395e-06)
(3.86113e-05 -5.34326e-05 8.94438e-06)
(-3.51714e-05 -0.000164576 4.14564e-05)
(-7.8316e-05 -0.000405853 0.000101281)
(-1.90553e-05 0.000462222 0.000164196)
(1.82621e-05 -5.52972e-06 1.82621e-05)
(6.98337e-06 -1.33964e-05 1.11568e-05)
(-2.70171e-05 -1.78659e-06 9.26102e-06)
(-3.86389e-05 -1.7471e-06 6.39903e-06)
(-5.06509e-05 -6.66435e-06 2.73199e-06)
(-5.8954e-05 -1.46578e-05 -1.10717e-06)
(-6.15738e-05 -2.37216e-05 -4.55044e-06)
(-5.6911e-05 -3.13097e-05 -7.61676e-06)
(-4.45576e-05 -3.6377e-05 -9.78843e-06)
(-2.52337e-05 -3.72379e-05 -1.07405e-05)
(-7.85797e-07 -3.43715e-05 -1.03398e-05)
(2.51774e-05 -2.8687e-05 -8.36877e-06)
(4.75371e-05 -2.04144e-05 -5.15794e-06)
(6.12477e-05 -1.1109e-05 -1.78785e-06)
(6.29755e-05 -1.54588e-06 9.84911e-07)
(5.17899e-05 7.24951e-06 1.33859e-06)
(2.99605e-05 1.30374e-05 -4.90009e-08)
(3.09792e-06 1.51895e-05 -2.74443e-06)
(-2.11346e-05 1.38388e-05 -5.80006e-06)
(-3.53627e-05 1.02305e-05 -8.39005e-06)
(-3.50823e-05 6.03769e-06 -1.00781e-05)
(-1.93617e-05 2.32754e-06 -1.01944e-05)
(8.11791e-06 -1.72785e-06 -8.28455e-06)
(3.87455e-05 -1.00128e-05 -4.49028e-06)
(6.324e-05 -2.33201e-05 7.5612e-07)
(8.0307e-05 -3.79736e-05 1.28811e-06)
(0.000105757 -3.35491e-05 -1.67976e-05)
(0.000112381 -4.98428e-05 -1.98963e-05)
(-6.00878e-05 -0.000360754 -4.69223e-07)
(-0.000113359 0.000227735 7.79542e-05)
(1.57196e-05 -3.72299e-05 1.57196e-05)
(4.51859e-06 1.05601e-05 9.81213e-06)
(-2.64113e-05 1.34335e-05 8.51726e-06)
(-3.7289e-05 1.21748e-05 6.51625e-06)
(-4.88339e-05 7.31637e-06 4.13202e-06)
(-5.77353e-05 -1.58246e-06 1.46431e-06)
(-6.28459e-05 -1.33462e-05 -1.11243e-06)
(-6.32099e-05 -2.55911e-05 -2.67987e-06)
(-5.81197e-05 -3.5899e-05 -5.06633e-06)
(-4.70524e-05 -4.3194e-05 -6.74964e-06)
(-3.10609e-05 -4.58623e-05 -8.04764e-06)
(-1.23719e-05 -4.28364e-05 -8.6126e-06)
(5.85398e-06 -3.34862e-05 -9.01939e-06)
(2.01794e-05 -1.77015e-05 -9.21764e-06)
(2.85847e-05 2.65537e-06 -9.70947e-06)
(2.93894e-05 2.33535e-05 -1.02384e-05)
(2.2518e-05 3.90984e-05 -1.03147e-05)
(1.11809e-05 4.60592e-05 -1.03326e-05)
(7.34699e-07 4.22527e-05 -1.05795e-05)
(-3.49209e-06 2.9757e-05 -1.07216e-05)
(2.21658e-06 1.32264e-05 -1.05516e-05)
(1.85071e-05 -2.42006e-06 -9.78548e-06)
(4.16146e-05 -1.43048e-05 -8.46937e-06)
(6.55607e-05 -2.30132e-05 -6.17654e-06)
(8.25564e-05 -3.00695e-05 -1.72585e-06)
(8.53719e-05 -4.21554e-05 6.11098e-06)
(8.06186e-05 -4.33267e-05 3.80361e-06)
(0.000105755 3.53571e-05 -8.53584e-06)
(-1.39947e-05 -0.000158095 -1.81772e-05)
(-8.30909e-05 0.000107196 1.32784e-05)
(7.86797e-06 -5.88029e-05 7.86798e-06)
(1.35647e-06 2.91163e-05 4.90999e-06)
(-1.41973e-05 2.45038e-05 5.11343e-06)
(-1.85903e-05 2.13251e-05 5.00563e-06)
(-2.42199e-05 1.65671e-05 5.28825e-06)
(-2.99764e-05 7.26164e-06 5.32896e-06)
(-3.59074e-05 -5.85129e-06 5.25186e-06)
(-4.18624e-05 -2.05191e-05 5.16546e-06)
(-4.76711e-05 -3.37047e-05 4.76177e-06)
(-5.20157e-05 -4.4615e-05 3.07728e-06)
(-5.33703e-05 -5.08229e-05 5.19848e-08)
(-5.07524e-05 -5.02742e-05 -3.07174e-06)
(-4.34607e-05 -4.14785e-05 -6.38388e-06)
(-3.16455e-05 -2.3688e-05 -9.53679e-06)
(-1.66555e-05 1.33756e-06 -1.17618e-05)
(-8.10291e-07 2.74954e-05 -1.28604e-05)
(1.3161e-05 4.84098e-05 -1.2145e-05)
(2.3487e-05 5.79189e-05 -1.01992e-05)
(3.07327e-05 5.30956e-05 -7.75389e-06)
(3.65283e-05 3.68315e-05 -5.4812e-06)
(4.27005e-05 1.54956e-05 -4.03801e-06)
(5.09145e-05 -4.4813e-06 -3.35126e-06)
(6.09404e-05 -1.85742e-05 -3.26311e-06)
(7.05483e-05 -2.47297e-05 -3.65731e-06)
(7.66188e-05 -2.27741e-05 -4.82958e-06)
(7.37465e-05 -1.90288e-05 -4.17755e-06)
(3.21695e-05 -2.21085e-05 -1.42678e-06)
(3.87174e-05 5.36415e-05 -1.47643e-05)
(-9.5842e-06 -2.07243e-05 -2.98063e-05)
(-5.24856e-05 8.65765e-05 -1.87816e-05)
(-5.14148e-06 -6.07666e-05 -5.14148e-06)
(-4.43501e-06 3.53399e-05 -3.87713e-06)
(4.35785e-06 2.54538e-05 -1.91107e-06)
(1.09134e-05 2.0567e-05 -3.42532e-07)
(1.63468e-05 1.56104e-05 2.60128e-06)
(1.75512e-05 7.13071e-06 5.78308e-06)
(1.26225e-05 -4.25253e-06 8.75305e-06)
(1.17159e-06 -1.7113e-05 1.10342e-05)
(-1.59841e-05 -2.94538e-05 1.21939e-05)
(-3.67074e-05 -4.0079e-05 1.16662e-05)
(-5.74511e-05 -4.73305e-05 9.48964e-06)
(-7.32559e-05 -4.97736e-05 5.08655e-06)
(-7.90659e-05 -4.5407e-05 -4.91222e-07)
(-7.2452e-05 -3.27421e-05 -5.21924e-06)
(-5.47287e-05 -1.26128e-05 -8.12296e-06)
(-2.87611e-05 1.07023e-05 -8.47376e-06)
(9.84385e-07 3.0797e-05 -6.87098e-06)
(2.85224e-05 4.17852e-05 -3.40715e-06)
(4.97904e-05 4.00864e-05 7.92302e-07)
(6.30723e-05 2.76078e-05 4.2377e-06)
(6.89447e-05 9.43718e-06 6.49374e-06)
(6.91194e-05 -8.1332e-06 7.29802e-06)
(6.53795e-05 -1.87799e-05 7.21678e-06)
(5.77211e-05 -1.97304e-05 6.54235e-06)
(4.55646e-05 -9.68311e-06 3.77507e-06)
(3.29178e-05 1.40332e-05 -2.59983e-06)
(-3.86705e-06 2.89456e-05 -7.36564e-06)
(-1.83792e-05 8.98643e-05 -1.77001e-05)
(-3.02631e-05 6.40362e-05 -2.71805e-05)
(-3.05779e-05 7.65549e-05 -1.70013e-05)
(-2.02487e-05 -3.47128e-05 -2.02487e-05)
(-1.27893e-05 2.8512e-05 -1.53603e-05)
(2.19159e-05 1.65123e-05 -1.29162e-05)
(4.01582e-05 1.13527e-05 -9.808e-06)
(5.738e-05 6.93536e-06 -5.09246e-06)
(6.65318e-05 1.87937e-06 1.11464e-07)
(6.46732e-05 -3.62243e-06 5.12179e-06)
(5.04903e-05 -1.02609e-05 9.32153e-06)
(2.54593e-05 -1.69542e-05 1.18878e-05)
(-6.79421e-06 -2.38027e-05 1.23118e-05)
(-4.08549e-05 -3.0836e-05 1.07137e-05)
(-6.96952e-05 -3.76529e-05 7.64509e-06)
(-8.70067e-05 -4.22447e-05 4.20401e-06)
(-8.90092e-05 -4.13503e-05 6.779e-07)
(-7.50752e-05 -3.38881e-05 -1.83314e-06)
(-4.84951e-05 -2.07086e-05 -2.11952e-06)
(-1.45675e-05 -6.06255e-06 -2.45168e-07)
(2.01549e-05 4.70138e-06 3.03962e-06)
(4.91451e-05 7.83189e-06 6.89996e-06)
(6.79256e-05 2.65968e-06 1.03594e-05)
(7.51743e-05 -8.01586e-06 1.33111e-05)
(7.24002e-05 -1.86222e-05 1.53683e-05)
(6.13055e-05 -2.23429e-05 1.61062e-05)
(4.25908e-05 -1.53344e-05 1.51776e-05)
(1.60202e-05 2.88633e-06 1.22194e-05)
(-9.93728e-06 3.55718e-05 5.41428e-06)
(-3.58053e-05 6.59422e-05 -9.01793e-07)
(-4.28057e-05 0.00010316 -7.98776e-06)
(-2.73835e-05 8.70333e-05 -8.49496e-06)
(-1.04103e-05 5.33574e-05 3.89287e-06)
(-3.07726e-05 1.86997e-05 -3.07726e-05)
(-1.65211e-05 1.01877e-05 -2.43214e-05)
(3.70239e-05 2.14697e-06 -2.19027e-05)
(6.17573e-05 -1.70362e-06 -1.76039e-05)
(8.58587e-05 -3.09709e-06 -1.23732e-05)
(9.9002e-05 -1.86868e-06 -6.69125e-06)
(9.90904e-05 1.62099e-06 -1.33554e-06)
(8.54147e-05 5.57023e-06 2.52082e-06)
(5.97532e-05 7.89449e-06 5.52316e-06)
(2.60567e-05 6.51427e-06 7.23073e-06)
(-1.00512e-05 -4.38131e-07 7.67958e-06)
(-4.20505e-05 -1.31188e-05 7.04472e-06)
(-6.46366e-05 -2.92359e-05 6.17466e-06)
(-7.49385e-05 -4.30364e-05 5.33138e-06)
(-7.19191e-05 -5.10258e-05 4.58331e-06)
(-5.66815e-05 -5.10916e-05 4.09104e-06)
(-3.24939e-05 -4.45519e-05 4.71995e-06)
(-3.95245e-06 -3.63907e-05 6.07031e-06)
(2.36325e-05 -3.08212e-05 7.8275e-06)
(4.54238e-05 -2.99151e-05 9.81898e-06)
(5.79109e-05 -3.21152e-05 1.155e-05)
(5.88316e-05 -3.33794e-05 1.33214e-05)
(4.78335e-05 -2.8322e-05 1.41327e-05)
(2.70147e-05 -1.23164e-05 1.29775e-05)
(-7.27931e-08 1.45631e-05 1.0169e-05)
(-2.39452e-05 4.75127e-05 5.57294e-06)
(-3.62976e-05 7.45812e-05 3.79051e-06)
(-2.7564e-05 8.19054e-05 5.94611e-06)
(-2.04828e-06 5.64334e-05 1.32492e-05)
(6.27664e-06 2.0697e-05 1.61389e-05)
(-3.1559e-05 8.33013e-05 -3.1559e-05)
(-1.29401e-05 -1.75438e-05 -2.37017e-05)
(4.4733e-05 -1.66609e-05 -2.04332e-05)
(6.8605e-05 -1.80566e-05 -1.58151e-05)
(9.12006e-05 -1.3791e-05 -1.09415e-05)
(0.000101647 -4.00961e-06 -6.50494e-06)
(0.000100579 9.87575e-06 -2.83782e-06)
(8.92561e-05 2.48774e-05 1.42284e-07)
(7.00078e-05 3.60744e-05 1.7942e-06)
(4.6092e-05 3.93704e-05 3.28682e-06)
(2.04612e-05 3.17384e-05 5.51495e-06)
(-4.44446e-06 1.33317e-05 7.88087e-06)
(-2.63348e-05 -1.2009e-05 9.85971e-06)
(-4.37394e-05 -3.75638e-05 1.12677e-05)
(-5.53969e-05 -5.75743e-05 1.16412e-05)
(-5.9415e-05 -6.87409e-05 1.08478e-05)
(-5.42433e-05 -7.11147e-05 8.71183e-06)
(-3.96465e-05 -6.80956e-05 6.06551e-06)
(-1.85979e-05 -6.33807e-05 3.84848e-06)
(3.76593e-06 -5.85498e-05 2.71936e-06)
(2.12116e-05 -5.31681e-05 2.41896e-06)
(2.86161e-05 -4.4056e-05 2.19034e-06)
(2.4075e-05 -2.78996e-05 7.71049e-07)
(1.11902e-05 -2.53039e-06 -1.60139e-06)
(-3.46769e-06 2.92451e-05 -4.1599e-06)
(-1.14918e-05 5.38085e-05 -4.37917e-06)
(-5.44275e-06 6.19933e-05 4.27694e-07)
(1.19716e-05 4.6042e-05 6.70751e-06)
(1.9569e-05 2.16209e-05 1.07937e-05)
(8.95983e-06 1.23595e-05 4.59502e-06)
(-1.4286e-05 0.000124165 -1.4286e-05)
(5.00956e-06 -5.35584e-05 -4.89003e-06)
(4.23379e-05 -4.1549e-05 -1.7571e-06)
(5.36668e-05 -3.83014e-05 1.26625e-06)
(6.16132e-05 -2.76698e-05 4.07371e-06)
(6.17381e-05 -9.59902e-06 5.15015e-06)
(5.71155e-05 1.30493e-05 4.59233e-06)
(5.08152e-05 3.43089e-05 3.11584e-06)
(4.49354e-05 5.01248e-05 2.56704e-06)
(3.97937e-05 5.57876e-05 3.6492e-06)
(3.37124e-05 4.78999e-05 5.85164e-06)
(2.40227e-05 2.77901e-05 9.3384e-06)
(8.37127e-06 4.33025e-07 1.27315e-05)
(-1.33709e-05 -2.79511e-05 1.43094e-05)
(-3.81174e-05 -5.12256e-05 1.39003e-05)
(-5.98379e-05 -6.7458e-05 1.08882e-05)
(-7.24554e-05 -7.66703e-05 6.03365e-06)
(-7.24515e-05 -8.07063e-05 6.83438e-07)
(-6.04912e-05 -8.05906e-05 -3.93674e-06)
(-4.14965e-05 -7.56304e-05 -6.95669e-06)
(-2.21716e-05 -6.5e-05 -8.95898e-06)
(-8.35621e-06 -4.62776e-05 -1.06411e-05)
(-2.27411e-06 -1.88647e-05 -1.27994e-05)
(1.66293e-07 1.33005e-05 -1.3953e-05)
(4.77252e-06 4.15973e-05 -1.30274e-05)
(1.61604e-05 5.36595e-05 -9.40122e-06)
(3.18226e-05 4.74832e-05 -3.78555e-06)
(3.8611e-05 3.2951e-05 1.90276e-07)
(2.39847e-05 3.15688e-05 -2.48623e-06)
(5.41334e-06 3.57757e-05 -7.76151e-06)
(1.84072e-05 0.000108248 1.84072e-05)
(2.96207e-05 -9.01609e-05 2.38246e-05)
(2.06008e-05 -7.04447e-05 2.72796e-05)
(9.5704e-06 -5.97431e-05 2.57577e-05)
(-6.85562e-06 -4.35981e-05 2.25829e-05)
(-2.02756e-05 -2.05915e-05 1.69029e-05)
(-2.78238e-05 5.32446e-06 9.7759e-06)
(-2.56543e-05 2.85729e-05 3.83813e-06)
(-1.3158e-05 4.4209e-05 -3.19432e-07)
(5.12612e-06 4.98435e-05 -1.27597e-06)
(2.24159e-05 4.43778e-05 5.91139e-07)
(3.07326e-05 3.05716e-05 3.50672e-06)
(2.49014e-05 1.18435e-05 5.71094e-06)
(5.4721e-06 -7.57172e-06 5.99011e-06)
(-2.30347e-05 -2.54339e-05 3.2992e-06)
(-5.25566e-05 -4.11857e-05 -1.20666e-06)
(-7.44458e-05 -5.53981e-05 -6.39511e-06)
(-8.3614e-05 -6.77086e-05 -1.1049e-05)
(-7.93928e-05 -7.59652e-05 -1.42387e-05)
(-6.57124e-05 -7.59324e-05 -1.56999e-05)
(-4.83582e-05 -6.46998e-05 -1.64227e-05)
(-3.13591e-05 -4.23044e-05 -1.67908e-05)
(-1.51916e-05 -1.16918e-05 -1.60983e-05)
(1.92232e-06 1.82929e-05 -1.42089e-05)
(2.30902e-05 3.82762e-05 -9.44681e-06)
(4.4678e-05 4.30651e-05 -3.82021e-06)
(5.59015e-05 3.99162e-05 1.07279e-06)
(4.73124e-05 4.67128e-05 1.42305e-06)
(2.43339e-05 6.67155e-05 -2.34915e-06)
(6.12917e-06 5.68446e-05 1.14878e-06)
(5.21407e-05 1.77969e-05 5.21407e-05)
(4.41022e-05 -0.000110935 4.80723e-05)
(-2.33152e-05 -8.84863e-05 4.31619e-05)
(-5.53645e-05 -7.01955e-05 3.46739e-05)
(-9.27857e-05 -4.82795e-05 2.44476e-05)
(-0.000116366 -2.32502e-05 1.25411e-05)
(-0.000122499 -2.72188e-07 1.01674e-06)
(-0.00010939 1.85474e-05 -8.35728e-06)
(-7.96548e-05 3.01722e-05 -1.34456e-05)
(-4.07477e-05 3.43357e-05 -1.49385e-05)
(-3.9148e-06 3.47922e-05 -1.41821e-05)
(1.95499e-05 3.5029e-05 -1.31902e-05)
(2.47171e-05 3.43612e-05 -1.2903e-05)
(1.36284e-05 3.2057e-05 -1.40412e-05)
(-7.8105e-06 2.47856e-05 -1.62719e-05)
(-3.16025e-05 1.12855e-05 -1.85263e-05)
(-5.06921e-05 -8.4685e-06 -2.0036e-05)
(-6.09592e-05 -3.0948e-05 -2.06821e-05)
(-6.22152e-05 -4.98286e-05 -2.0249e-05)
(-5.66705e-05 -5.83365e-05 -1.92289e-05)
(-4.65774e-05 -5.31528e-05 -1.77734e-05)
(-3.20775e-05 -3.62505e-05 -1.58327e-05)
(-1.21671e-05 -1.375e-05 -1.27319e-05)
(1.29476e-05 5.6437e-06 -8.21443e-06)
(3.94546e-05 1.70862e-05 -2.1011e-06)
(5.83829e-05 2.31918e-05 4.13681e-06)
(5.98161e-05 3.50261e-05 7.50594e-06)
(4.50153e-05 6.06957e-05 7.73034e-06)
(2.87062e-05 8.08312e-05 9.21598e-06)
(1.18635e-05 6.05312e-05 1.34735e-05)
(6.02306e-05 -0.000110223 6.02307e-05)
(2.70281e-05 -8.47851e-05 3.90207e-05)
(-8.12701e-05 -6.32439e-05 2.96734e-05)
(-0.000127002 -4.1958e-05 1.65535e-05)
(-0.000170303 -1.81307e-05 2.46811e-06)
(-0.000192161 2.94841e-06 -1.033e-05)
(-0.000189218 1.5734e-05 -1.94516e-05)
(-0.000162152 1.98636e-05 -2.37226e-05)
(-0.000118673 2.08464e-05 -2.51647e-05)
(-6.98765e-05 2.27188e-05 -2.49987e-05)
(-2.55993e-05 3.17569e-05 -2.38051e-05)
(4.5148e-06 4.81663e-05 -2.3207e-05)
(1.79508e-05 6.71218e-05 -2.35644e-05)
(1.91994e-05 8.13768e-05 -2.44761e-05)
(1.30109e-05 8.37404e-05 -2.48341e-05)
(4.05999e-06 7.16066e-05 -2.40498e-05)
(-5.02845e-06 4.68461e-05 -2.21146e-05)
(-1.33066e-05 1.5792e-05 -1.92691e-05)
(-2.11122e-05 -1.16538e-05 -1.62676e-05)
(-2.76874e-05 -2.86711e-05 -1.40144e-05)
(-3.0085e-05 -3.2847e-05 -1.27149e-05)
(-2.46679e-05 -2.70695e-05 -1.15483e-05)
(-9.59821e-06 -1.73424e-05 -9.89405e-06)
(1.30036e-05 -8.68428e-06 -7.57648e-06)
(3.46484e-05 -1.02783e-06 -5.19936e-06)
(4.49684e-05 1.50776e-05 -3.66292e-06)
(4.19963e-05 4.37885e-05 -4.36488e-06)
(3.37513e-05 7.30435e-05 -3.18624e-06)
(2.31875e-05 8.54499e-05 1.619e-06)
(8.91391e-06 7.50177e-05 -5.72641e-06)
(3.23757e-05 -0.000182025 3.23758e-05)
(-2.22389e-05 7.31557e-06 6.2711e-06)
(-0.000127879 1.88253e-05 -4.74197e-06)
(-0.00017094 3.44744e-05 -1.67752e-05)
(-0.00020233 4.83438e-05 -2.4104e-05)
(-0.0002093 5.18681e-05 -2.6667e-05)
(-0.000192164 4.26065e-05 -2.69383e-05)
(-0.000156443 2.6259e-05 -2.51626e-05)
(-0.000112768 1.4343e-05 -2.16234e-05)
(-7.06745e-05 1.5053e-05 -1.88793e-05)
(-3.52225e-05 3.22205e-05 -1.78688e-05)
(-9.22992e-06 6.05689e-05 -1.87724e-05)
(9.74927e-06 9.23976e-05 -2.01086e-05)
(2.54305e-05 0.000115706 -2.03633e-05)
(3.7885e-05 0.000121909 -1.84502e-05)
(4.58376e-05 0.000109877 -1.46411e-05)
(4.63575e-05 8.39745e-05 -9.804e-06)
(3.7269e-05 5.13539e-05 -5.09961e-06)
(1.98212e-05 2.24411e-05 -2.01177e-06)
(-8.55764e-07 2.53125e-06 -1.23648e-06)
(-1.75581e-05 -8.42242e-06 -2.85146e-06)
(-2.39939e-05 -1.19953e-05 -5.8123e-06)
(-1.86668e-05 -1.11339e-05 -8.73721e-06)
(-6.356e-06 -5.10858e-06 -1.11652e-05)
(5.33025e-06 1.00937e-05 -1.39737e-05)
(1.02636e-05 4.01864e-05 -1.82855e-05)
(8.51096e-06 7.78712e-05 -2.21011e-05)
(8.5841e-06 0.000104036 -2.21631e-05)
(3.63421e-08 0.000119763 -2.41829e-05)
(-5.53225e-06 0.000117135 -3.08037e-05)
(-1.27932e-05 -0.000146702 -1.27932e-05)
(-7.24548e-05 0.00013763 -2.93961e-05)
(-0.000134735 0.00012686 -3.02722e-05)
(-0.000159585 0.00012536 -3.16456e-05)
(-0.000167793 0.000115327 -2.93826e-05)
(-0.000155664 9.02408e-05 -2.43735e-05)
(-0.000130448 5.49869e-05 -1.73183e-05)
(-0.000101828 2.18138e-05 -1.06049e-05)
(-7.60006e-05 2.24904e-06 -5.41431e-06)
(-5.60561e-05 4.19086e-06 -3.47649e-06)
(-4.07111e-05 2.70854e-05 -5.00074e-06)
(-2.44579e-05 6.12623e-05 -8.42212e-06)
(-2.07742e-06 9.60545e-05 -1.13258e-05)
(2.63368e-05 0.000118872 -1.0982e-05)
(5.4369e-05 0.0001247 -7.53973e-06)
(7.41269e-05 0.000114705 -1.82667e-06)
(7.94411e-05 9.42238e-05 4.41286e-06)
(6.81668e-05 6.9196e-05 8.35909e-06)
(4.36252e-05 4.68362e-05 9.30463e-06)
(1.404e-05 2.9359e-05 7.41859e-06)
(-9.82276e-06 1.55418e-05 4.34341e-06)
(-2.15188e-05 5.76591e-06 1.0288e-06)
(-2.33681e-05 2.6821e-06 -1.59412e-06)
(-2.19895e-05 1.27894e-05 -4.27744e-06)
(-2.29701e-05 3.98584e-05 -8.34849e-06)
(-2.6113e-05 7.8323e-05 -1.30203e-05)
(-2.63667e-05 0.000115389 -1.60681e-05)
(-2.3149e-05 0.000142316 -1.81714e-05)
(-1.79164e-05 0.000164552 -2.29433e-05)
(-8.22536e-06 0.000143306 -1.07649e-05)
(-3.72765e-05 -2.85996e-05 -3.72765e-05)
(-8.22715e-05 0.000251293 -3.66135e-05)
(-9.57427e-05 0.000211453 -3.25631e-05)
(-9.6138e-05 0.000185757 -2.75282e-05)
(-8.48446e-05 0.000147885 -1.91477e-05)
(-6.66587e-05 9.83108e-05 -9.84598e-06)
(-4.93947e-05 4.71022e-05 -1.60205e-06)
(-4.08385e-05 8.57674e-06 3.6114e-06)
(-4.21394e-05 -8.77436e-06 5.20037e-06)
(-4.82533e-05 -9.58477e-07 9.48224e-07)
(-4.98939e-05 2.5821e-05 -5.33013e-06)
(-3.83994e-05 5.74849e-05 -1.05873e-05)
(-1.18744e-05 8.43867e-05 -1.22345e-05)
(2.46579e-05 0.000100089 -1.02316e-05)
(5.94444e-05 0.000104661 -4.87038e-06)
(8.17097e-05 0.000101062 1.19924e-06)
(8.59303e-05 9.2482e-05 5.21992e-06)
(7.30235e-05 8.07878e-05 6.69763e-06)
(5.04918e-05 6.70382e-05 6.8242e-06)
(2.77123e-05 5.0133e-05 6.63653e-06)
(1.17914e-05 3.1106e-05 7.07005e-06)
(3.64802e-06 1.38924e-05 9.2194e-06)
(-2.3365e-06 7.11157e-06 1.20904e-05)
(-1.2203e-05 1.98884e-05 1.33667e-05)
(-2.56059e-05 5.15634e-05 1.23875e-05)
(-3.4676e-05 8.84332e-05 1.15743e-05)
(-3.39985e-05 0.000117604 1.20787e-05)
(-2.73013e-05 0.000139364 1.40453e-05)
(-3.28879e-06 0.000148632 1.85483e-05)
(7.85565e-06 0.000106938 3.82646e-05)
(-3.86394e-05 9.93768e-05 -3.86394e-05)
(-5.67278e-05 0.000309075 -2.94726e-05)
(-3.67406e-05 0.000251666 -2.38329e-05)
(-2.66275e-05 0.000206485 -1.73709e-05)
(-1.0967e-05 0.000151333 -1.05884e-05)
(8.38202e-07 9.30626e-05 -4.97044e-06)
(2.50872e-06 4.31469e-05 -2.35478e-06)
(-8.37358e-06 1.51888e-05 -2.67168e-06)
(-2.82897e-05 8.71171e-06 -7.0338e-06)
(-4.55112e-05 2.16403e-05 -1.16802e-05)
(-4.92031e-05 4.11869e-05 -1.59279e-05)
(-3.52173e-05 5.73316e-05 -1.65328e-05)
(-5.77504e-06 6.79369e-05 -1.37662e-05)
(2.78719e-05 7.44163e-05 -8.08261e-06)
(5.45426e-05 8.03222e-05 -2.22091e-06)
(6.7794e-05 8.67256e-05 9.45104e-07)
(6.78255e-05 9.20486e-05 1.66895e-06)
(5.983e-05 9.15347e-05 9.68459e-07)
(5.10272e-05 8.12221e-05 6.71124e-07)
(4.62186e-05 5.99346e-05 2.59888e-06)
(4.46922e-05 3.27709e-05 6.57947e-06)
(4.03403e-05 9.8344e-06 1.12073e-05)
(2.72582e-05 2.25067e-06 1.46173e-05)
(6.74499e-06 1.66432e-05 1.53751e-05)
(-1.13492e-05 4.37256e-05 1.51351e-05)
(-1.68174e-05 6.51698e-05 1.67614e-05)
(-9.50371e-06 7.54303e-05 2.18993e-05)
(5.01097e-06 7.78951e-05 2.90486e-05)
(2.41016e-05 6.41473e-05 3.95425e-05)
(1.76558e-05 5.45457e-05 3.29206e-05)
(-3.17233e-05 0.000187473 -3.17232e-05)
(-2.90533e-05 0.000321787 -2.20562e-05)
(2.6304e-06 0.000263095 -2.0581e-05)
(1.0506e-05 0.000211803 -1.80004e-05)
(2.29681e-05 0.000154138 -1.5698e-05)
(2.62461e-05 0.000101608 -1.41347e-05)
(1.90438e-05 6.5075e-05 -1.35462e-05)
(3.91342e-06 4.9846e-05 -1.37877e-05)
(-1.31747e-05 4.76095e-05 -1.45141e-05)
(-2.40725e-05 5.2322e-05 -1.40931e-05)
(-2.24674e-05 5.24728e-05 -1.07636e-05)
(-7.64096e-06 4.66999e-05 -4.24085e-06)
(1.22962e-05 4.29918e-05 3.02868e-06)
(2.61331e-05 4.44499e-05 9.40831e-06)
(3.11255e-05 5.63502e-05 1.02592e-05)
(3.02732e-05 7.38779e-05 6.99332e-06)
(2.94269e-05 8.86177e-05 1.89203e-06)
(3.38967e-05 9.15405e-05 -1.44688e-06)
(4.45114e-05 7.96435e-05 -1.49824e-06)
(5.5989e-05 5.64139e-05 3.37432e-07)
(5.97618e-05 3.08941e-05 3.12735e-06)
(4.84289e-05 1.59072e-05 3.38218e-06)
(2.45303e-05 2.02315e-05 -5.38621e-07)
(1.3287e-07 4.03808e-05 -8.68767e-06)
(-1.10189e-05 5.71707e-05 -1.20384e-05)
(-5.068e-06 5.83003e-05 -1.00154e-05)
(6.87697e-06 5.3645e-05 -6.25518e-06)
(1.7969e-05 4.92797e-05 -4.70746e-06)
(7.21154e-06 4.94258e-05 -1.0048e-05)
(-4.63335e-06 9.20069e-05 -3.37164e-05)
(-2.68192e-05 0.000248187 -2.68192e-05)
(-1.9331e-05 0.000319789 -2.28392e-05)
(1.33477e-05 0.00026763 -2.32019e-05)
(2.17935e-05 0.000218324 -2.13774e-05)
(3.42126e-05 0.000164032 -1.86666e-05)
(3.8618e-05 0.000118932 -1.46729e-05)
(3.47714e-05 8.9756e-05 -1.10334e-05)
(2.58011e-05 7.49519e-05 -7.02462e-06)
(1.79436e-05 6.49138e-05 -1.97126e-06)
(1.62061e-05 5.26082e-05 5.19017e-06)
(1.93943e-05 3.51053e-05 1.31166e-05)
(2.1081e-05 1.41573e-05 2.08076e-05)
(1.4127e-05 6.13544e-06 2.51242e-05)
(-1.99438e-06 1.36468e-05 2.12038e-05)
(-1.93139e-05 3.73311e-05 1.2988e-05)
(-2.71616e-05 6.36404e-05 2.98405e-06)
(-1.81184e-05 7.91857e-05 -4.3289e-06)
(4.93713e-06 7.82088e-05 -6.93093e-06)
(3.19275e-05 6.57807e-05 -5.90686e-06)
(4.82578e-05 5.08442e-05 -4.2271e-06)
(4.36818e-05 4.40341e-05 -4.9589e-06)
(2.12862e-05 5.33656e-05 -1.15522e-05)
(-5.46915e-06 7.4206e-05 -2.11473e-05)
(-1.95076e-05 9.18609e-05 -2.67391e-05)
(-1.26522e-05 9.0512e-05 -2.72277e-05)
(3.67191e-06 8.11731e-05 -2.50636e-05)
(1.10608e-05 8.46976e-05 -2.60326e-05)
(6.38359e-06 0.000107793 -3.18939e-05)
(-1.98048e-05 0.000151214 -4.83809e-05)
(-2.17453e-05 0.000168227 -4.95166e-05)
(-2.43067e-05 0.000299713 -2.43067e-05)
(-1.52681e-05 0.000312496 -1.98727e-05)
(2.03964e-05 0.000267011 -1.74114e-05)
(3.27131e-05 0.000216187 -1.17905e-05)
(4.59884e-05 0.000162135 -5.01803e-06)
(5.08832e-05 0.000117915 1.02375e-06)
(4.93256e-05 8.75238e-05 6.08994e-06)
(4.59686e-05 6.63816e-05 1.0637e-05)
(4.35699e-05 4.54163e-05 1.61836e-05)
(4.05672e-05 2.02194e-05 2.18877e-05)
(3.17695e-05 -2.36865e-06 2.73908e-05)
(1.06497e-05 -1.70082e-05 2.58628e-05)
(-2.28673e-05 -9.38214e-06 1.79844e-05)
(-5.53885e-05 1.55161e-05 6.13606e-06)
(-7.41041e-05 4.8171e-05 -8.71892e-06)
(-7.0351e-05 6.71802e-05 -1.67103e-05)
(-4.27585e-05 7.04709e-05 -1.82582e-05)
(-5.11665e-06 6.3967e-05 -1.61911e-05)
(2.27305e-05 5.93445e-05 -1.20964e-05)
(2.77476e-05 6.47087e-05 -1.23772e-05)
(1.26166e-05 8.3582e-05 -1.79851e-05)
(-8.33637e-06 0.000110899 -2.5512e-05)
(-1.72722e-05 0.000127712 -2.87117e-05)
(-5.36219e-06 0.000122622 -2.4932e-05)
(1.5358e-05 0.00010132 -1.70932e-05)
(2.35933e-05 9.8183e-05 -1.1605e-05)
(1.40186e-05 0.000124929 -1.48219e-05)
(-4.87547e-06 0.000174818 -2.09692e-05)
(-1.27909e-05 0.000226276 -2.63971e-05)
(-5.65671e-06 0.000185069 -1.22624e-05)
(-1.32213e-05 0.000332669 -1.32213e-05)
(1.68758e-06 0.000290032 -4.08289e-06)
(3.48898e-05 0.000248449 1.73439e-06)
(4.59277e-05 0.000194511 7.81234e-06)
(5.08538e-05 0.000140392 1.25708e-05)
(4.59964e-05 9.62389e-05 1.58082e-05)
(3.7686e-05 6.51829e-05 1.67405e-05)
(3.14829e-05 4.02936e-05 1.67622e-05)
(2.60083e-05 1.62693e-05 1.64525e-05)
(1.64541e-05 -3.21681e-06 1.55517e-05)
(-4.25222e-06 -9.25798e-06 1.14178e-05)
(-3.85416e-05 2.89843e-06 2.66899e-06)
(-7.56764e-05 3.33972e-05 -1.01373e-05)
(-9.96166e-05 6.20748e-05 -2.05773e-05)
(-9.67832e-05 7.94812e-05 -2.35876e-05)
(-6.73289e-05 7.3575e-05 -2.25217e-05)
(-2.6383e-05 5.95731e-05 -1.61615e-05)
(5.56068e-06 5.53519e-05 -1.00202e-05)
(1.40138e-05 6.90055e-05 -9.11374e-06)
(1.81376e-06 9.98158e-05 -1.62418e-05)
(-1.43829e-05 0.000134047 -2.5156e-05)
(-1.56432e-05 0.000154232 -2.85824e-05)
(6.53079e-06 0.000143324 -2.31361e-05)
(3.88453e-05 0.000111136 -1.05817e-05)
(5.43151e-05 8.98203e-05 2.38734e-07)
(4.23966e-05 0.000108332 2.09745e-07)
(2.00005e-05 0.000151067 -4.03359e-06)
(1.51385e-06 0.000194129 -2.42539e-06)
(8.83779e-06 0.000216695 4.85555e-06)
(1.21164e-05 0.000175407 5.73059e-06)
(5.05621e-06 0.000327525 5.05621e-06)
(2.44558e-05 0.000247959 1.29929e-05)
(4.12504e-05 0.000212421 1.78187e-05)
(3.96556e-05 0.00016395 2.00559e-05)
(2.69848e-05 0.00011733 1.92471e-05)
(8.15212e-06 8.20465e-05 1.50257e-05)
(-7.86484e-06 5.5009e-05 9.65625e-06)
(-1.76641e-05 3.18536e-05 5.19261e-06)
(-2.38123e-05 1.45025e-05 2.63395e-06)
(-3.49498e-05 1.18578e-05 -2.57226e-07)
(-5.64792e-05 2.86441e-05 -5.01791e-06)
(-8.28766e-05 5.87881e-05 -1.26538e-05)
(-9.96278e-05 8.77653e-05 -1.65756e-05)
(-9.42867e-05 9.4968e-05 -1.66654e-05)
(-6.50726e-05 7.98234e-05 -1.04634e-05)
(-2.41644e-05 5.21192e-05 -1.17487e-06)
(5.8126e-06 3.3716e-05 7.93565e-06)
(1.00148e-05 4.62179e-05 8.76753e-06)
(-6.01499e-06 8.7241e-05 -4.14916e-07)
(-2.3099e-05 0.00013502 -1.36513e-05)
(-2.17958e-05 0.00016182 -2.02452e-05)
(6.45085e-06 0.000153037 -1.65447e-05)
(4.84222e-05 0.00011559 -5.56916e-06)
(7.2651e-05 8.41692e-05 4.18718e-06)
(6.19786e-05 9.14303e-05 2.12141e-06)
(3.39267e-05 0.000133606 -7.54465e-06)
(1.4626e-05 0.000172216 -1.0907e-05)
(9.36223e-06 0.000191104 -7.29659e-06)
(1.41299e-05 0.000201219 -7.00514e-06)
(9.42156e-06 0.00018882 -1.10809e-05)
(1.70716e-05 0.000281011 1.70716e-05)
(3.14181e-05 0.0002059 2.03237e-05)
(2.55531e-05 0.000180686 1.99655e-05)
(9.21112e-06 0.000148141 1.75828e-05)
(-1.60602e-05 0.000118021 1.27397e-05)
(-4.15496e-05 9.25235e-05 6.20708e-06)
(-5.93351e-05 6.67393e-05 1.64266e-06)
(-6.73202e-05 4.22365e-05 -2.29543e-08)
(-7.24362e-05 2.91488e-05 -2.96341e-07)
(-8.2193e-05 3.60304e-05 -1.46569e-06)
(-9.58295e-05 6.17314e-05 -4.55982e-06)
(-0.000103678 8.83968e-05 -7.49135e-06)
(-9.23126e-05 9.51475e-05 -6.50925e-06)
(-5.85588e-05 7.25895e-05 -3.33827e-07)
(-1.49703e-05 3.13186e-05 8.40634e-06)
(1.58724e-05 1.84103e-06 1.55903e-05)
(1.67681e-05 3.83529e-06 1.35623e-05)
(-2.03999e-06 5.09172e-05 4.04996e-06)
(-1.96808e-05 0.000111212 -9.12766e-06)
(-1.71885e-05 0.000148987 -1.32313e-05)
(1.51035e-05 0.000144398 -6.25191e-06)
(6.02117e-05 0.000107514 5.58432e-06)
(8.57209e-05 7.17834e-05 1.5832e-05)
(7.24982e-05 7.4455e-05 1.27938e-05)
(3.84366e-05 0.000115835 1.8835e-06)
(1.30302e-05 0.000163505 -4.50652e-06)
(2.76612e-06 0.000187888 -6.53632e-06)
(-4.43001e-06 0.000196354 -1.03257e-05)
(5.82125e-06 0.000207546 -9.17794e-06)
(1.04732e-05 0.00019304 1.12998e-05)
(1.82409e-05 0.000220814 1.82409e-05)
(2.09745e-05 0.000187388 1.71346e-05)
(-2.43398e-06 0.000171964 1.56961e-05)
(-2.61988e-05 0.000156541 1.259e-05)
(-5.48717e-05 0.000139482 8.30537e-06)
(-7.9744e-05 0.000114742 4.87865e-06)
(-9.54581e-05 8.22436e-05 3.50197e-06)
(-0.000105622 5.22298e-05 3.72294e-06)
(-0.000116599 4.02587e-05 2.05906e-06)
(-0.000128965 5.24558e-05 -2.48699e-06)
(-0.000134081 7.61375e-05 -8.6335e-06)
(-0.000120236 8.78146e-05 -1.16259e-05)
(-8.27199e-05 6.96457e-05 -8.82815e-06)
(-3.45693e-05 2.7138e-05 -3.31315e-06)
(3.61485e-06 -1.11994e-05 1.60266e-06)
(1.43747e-05 -1.43722e-05 -2.81286e-06)
(4.49554e-06 2.37674e-05 -1.29525e-05)
(-3.42266e-06 8.58557e-05 -2.17416e-05)
(9.03632e-06 0.000129536 -2.06259e-05)
(5.0231e-05 0.000129809 -9.32591e-06)
(0.000100028 9.41908e-05 6.75968e-06)
(0.000125653 5.64057e-05 2.03258e-05)
(0.000107506 5.41247e-05 2.10434e-05)
(6.08162e-05 9.7816e-05 9.49652e-06)
(2.34109e-05 0.000142476 3.0445e-06)