/*--------------------------------*- C++ -*----------------------------------*\
| =========                 |                                                 |
| \\      /  F ield         | OpenFOAM: The Open Source CFD Toolbox           |
|  \\    /   O peration     | Version:  2312                                  |
|   \\  /    A nd           | Website:  www.openfoam.com                      |
|    \\/     M anipulation  |                                                 |
\*---------------------------------------------------------------------------*/
FoamFile
{
    version     2.0;
    format      ascii;
    arch        "LSB;label=32;scalar=64";
    class       volScalarField;
    location    "0.05";
    object      alpha.water;
}
// * * * * * * * * * * * * * * * * * * * * * * * * * * * * * * * * * * * * * //

dimensions      [0 0 0 0 0 0 0];

internalField   nonuniform List<scalar> 
80000
(
1
1
1
1
1
1
1
1
1
1
1
1
1
1
1
1
1
1
1
1
1
1
1
1
1
1
1
1
1
1
1
1
1
1
1
1
1
1
1
1
1
1
1
1
1
1
1
1
1
1
1
1
1
1
1
1
1
1
1
1
1
1
1
1
1
1
1
1
1
1
1
1
1
1
1
1
1
1
1
1
1
1
1
1
1
1
1
1
1
1
1
1
1
1
1
1
1
1
1
1
1
1
1
1
1
1
1
1
1
1
1
1
1
1
1
1
1
1
1
1
1
1
1
1
1
1
1
1
1
1
1
1
1
1
1
1
1
1
1
1
1
1
1
1
1
1
1
1
1
1
1
1
1
1
1
1
1
1
1
1
1
1
1
0.999999
0.999999
0.999999
0.999999
0.999998
0.999998
0.999998
0.999998
0.999998
0.999998
0.999998
0.999997
0.999996
0.999996
0.999996
0.999997
0.999998
1
1
1
1
0.999999
0.999998
0.999998
0.999998
0.999999
1
1
1
1
1
1
1
1
1
0.999996
0.999988
1
1
1
1
1
1
1
1
1
1
1
1
1
1
1
1
1
1
1
1
1
1
1
1
1
1
1
1
1
1
1
1
1
1
1
1
1
1
1
1
1
1
1
1
1
1
1
1
1
1
1
1
1
1
1
1
1
1
1
1
1
1
1
1
1
1
1
1
1
1
1
1
1
1
1
1
1
1
1
1
1
1
1
1
1
1
1
1
1
1
1
1
1
1
1
1
1
1
1
1
1
1
1
1
1
1
1
1
1
1
1
1
1
1
1
1
1
1
1
1
1
1
1
1
1
1
1
1
1
1
1
1
1
1
1
1
1
1
1
1
1
1
1
1
1
1
1
1
1
1
1
1
1
1
1
1
1
1
1
1
1
0.999999
0.999999
0.999999
0.999998
0.999998
0.999997
0.999997
0.999997
0.999997
0.999997
0.999997
0.999996
0.999995
0.999994
0.999993
0.999993
0.999994
0.999996
0.999999
1
1
1
0.999998
0.999996
0.999996
0.999997
0.999998
1
1
1
1
1
1
1
1
1
1
1.00001
0.999995
1
1
1
1
1
1
1
1
1
1
1
1
1
1
1
1
1
1
1
1
1
1
1
1
1
1
1
1
1
1
1
1
1
1
1
1
1
1
1
1
1
1
1
1
1
1
1
1
1
1
1
1
1
1
1
1
1
1
1
1
1
1
1
1
1
1
1
1
1
1
1
1
1
1
1
1
1
1
1
1
1
1
1
1
1
1
1
1
1
1
1
1
1
1
1
1
1
1
1
1
1
1
1
1
1
1
1
1
1
1
1
1
1
1
1
1
1
1
1
1
1
1
1
1
1
1
1
1
1
1
1
1
1
1
1
1
1
1
1
1
1
1
1
1
1
1
1
1
1
1
1
1
1
1
1
1
1
1
1
1
1
0.999999
0.999999
0.999999
0.999998
0.999998
0.999998
0.999997
0.999997
0.999997
0.999997
0.999997
0.999997
0.999996
0.999995
0.999994
0.999994
0.999994
0.999997
0.999999
1
1
1
0.999998
0.999997
0.999997
0.999998
0.999999
1
1
1
1
1
1
1
1
1
1
1.00001
1.00002
1
1
1
1
1
1
1
1
1
1
1
1
1
1
1
1
1
1
1
1
1
1
1
1
1
1
1
1
1
1
1
1
1
1
1
1
1
1
1
1
1
1
1
1
1
1
1
1
1
1
1
1
1
1
1
1
1
1
1
1
1
1
1
1
1
1
1
1
1
1
1
1
1
1
1
1
1
1
1
1
1
1
1
1
1
1
1
1
1
1
1
1
1
1
1
1
1
1
1
1
1
1
1
1
1
1
1
1
1
1
1
1
1
1
1
1
1
1
1
1
1
1
1
1
1
1
1
1
1
1
1
1
1
1
1
1
1
1
1
1
1
1
1
1
1
1
1
1
1
1
1
1
1
1
1
1
1
1
1
1
1
0.999999
0.999999
0.999999
0.999998
0.999998
0.999998
0.999998
0.999998
0.999998
0.999998
0.999997
0.999997
0.999996
0.999995
0.999994
0.999994
0.999995
0.999997
0.999999
1
1
1
0.999998
0.999998
0.999998
0.999999
0.999999
1
1
1
1
1
1
1
1
0.999998
0.999993
0.999992
1
1
1
1
1
0.999999
1
1
1
1
0.999999
0.999999
1
1
1
1
1
1
1
1
1
1
1
1
1
1
1
1
1
1
1
1
1
1
1
1
1
1
1
1
1
1
1
1
1
1
1
1
1
1
1
1
1
1
1
1
1
1
1
1
1
1
1
1
1
1
1
1
1
1
1
1
1
1
1
1
1
1
1
1
1
1
1
1
1
1
1
1
1
1
1
1
1
1
1
1
1
1
1
1
1
1
1
1
1
1
1
1
1
1
1
1
1
1
1
1
1
1
1
1
1
1
1
1
1
1
1
1
1
1
1
1
1
1
1
1
1
1
1
1
1
1
1
1
1
1
1
1
1
1
1
1
1
1
1
1
1
1
1
1
1
1
1
0.999999
0.999999
0.999999
0.999998
0.999998
0.999998
0.999998
0.999998
0.999998
0.999998
0.999997
0.999996
0.999995
0.999995
0.999995
0.999995
0.999997
1
1
1
1
0.999999
0.999999
1
1
1
1
1
1
1
1
0.999999
0.999999
1
1
1.00001
1
1.00001
1
0.999999
1
1
0.999999
1
0.999999
1
1
1
1
1
1
1
1
1
1
1
1
1
1
1
1
1
1
1
1
1
1
1
1
1
1
1
1
1
1
1
1
1
1
1
1
1
1
1
1
1
1
1
1
1
1
1
1
1
1
1
1
1
1
1
1
1
1
1
1
1
1
1
1
1
1
1
1
1
1
1
1
1
1
1
1
1
1
1
1
1
1
1
1
1
1
1
1
1
1
1
1
1
1
1
1
1
1
1
1
1
1
1
1
1
1
1
1
1
1
1
1
1
1
1
1
1
1
1
1
1
1
1
1
1
1
1
1
1
1
1
1
1
1
1
1
1
1
1
1
1
1
1
1
1
1
1
1
1
1
1
1
1
1
1
0.999999
0.999999
0.999999
0.999999
0.999998
0.999998
0.999998
0.999998
0.999998
0.999998
0.999998
0.999997
0.999996
0.999995
0.999995
0.999996
0.999998
1
1
1
1
1
1
1
1
1
1
1
1
1
0.999999
0.999999
0.999999
0.999998
0.999998
0.999999
0.999995
1.00001
0.999997
0.999997
0.999996
1
0.999999
1
1
1
1
1
1
1
1
1
1
1
1
1
1
1
1
1
1
1
1
1
1
1
1
1
1
1
1
1
1
1
1
1
1
1
1
1
1
1
1
1
1
1
1
1
1
1
1
1
1
1
1
1
1
1
1
1
1
1
1
1
1
1
1
1
1
1
1
1
1
1
1
1
1
1
1
1
1
1
1
1
1
1
1
1
1
1
1
1
1
1
1
1
1
1
1
1
1
1
1
1
1
1
1
1
1
1
1
1
1
1
1
1
1
1
1
1
1
1
1
1
1
1
1
1
1
1
1
1
1
1
1
1
1
1
1
1
1
1
1
1
1
1
1
1
1
1
1
1
1
1
1
1
1
1
1
1
0.999999
0.999999
0.999999
0.999999
0.999999
0.999999
0.999999
0.999999
0.999999
0.999998
0.999998
0.999997
0.999997
0.999996
0.999996
0.999997
0.999998
0.999999
1
1
1
1
1
1
1
1
0.999999
1
1
0.999998
0.999997
0.999998
1
1
1
1
0.999994
1.00001
0.999928
0.999943
0.999966
0.999983
0.999992
0.999996
0.999998
0.999999
1
0.999999
1
1
1
1
1
1
1
1
1
1
1
1
1
1
1
1
1
1
1
1
1
1
1
1
1
1
1
1
1
1
1
1
1
1
1
1
1
1
1
1
1
1
1
1
1
1
1
1
1
1
1
1
1
1
1
1
1
1
1
1
1
1
1
1
1
1
1
1
1
1
1
1
1
1
1
1
1
1
1
1
1
1
1
1
1
1
1
1
1
1
1
1
1
1
1
1
1
1
1
1
1
1
1
1
1
1
1
1
1
1
1
1
1
1
1
1
1
1
1
1
1
1
1
1
1
1
1
1
1
1
1
1
1
1
1
1
1
1
1
1
1
1
1
1
1
1
1
1
1
1
1
1
1
1
0.999999
0.999999
0.999999
0.999999
0.999999
0.999999
0.999999
0.999999
0.999999
0.999998
0.999998
0.999997
0.999997
0.999998
0.999999
1
1
1
1
1
1
1
1
1
0.999999
0.999999
0.999999
0.999998
0.999997
0.999998
0.999999
0.999999
0.999998
1
0.999995
1
0.990374
0.996182
0.998979
0.99977
0.999924
0.999957
0.999976
0.999987
0.999992
0.999996
0.999998
0.999999
0.999999
1
1
0.999999
0.999998
0.999998
0.999997
0.999997
0.999997
0.999998
0.999998
0.999998
0.999998
0.999998
0.999998
0.999998
0.999998
0.999998
0.999998
0.999998
0.999998
0.999998
0.999998
0.999998
0.999998
0.999998
0.999998
0.999998
0.999998
0.999998
0.999998
0.999998
0.999998
0.999998
0.999998
0.999998
0.999998
0.999998
0.999998
0.999998
0.999998
0.999998
0.999998
0.999998
0.999998
0.999998
0.999998
0.999998
0.999998
0.999998
0.999998
0.999998
0.999998
0.999998
0.999998
0.999998
0.999998
0.999998
0.999998
0.999998
0.999998
0.999998
0.999998
0.999998
0.999998
0.999998
0.999998
0.999998
0.999998
0.999998
0.999998
0.999998
0.999998
0.999998
0.999998
0.999998
0.999998
0.999998
0.999998
0.999998
0.999998
0.999998
0.999998
0.999998
0.999998
0.999998
0.999998
0.999998
0.999998
0.999998
0.999998
0.999998
0.999998
0.999998
0.999998
0.999998
0.999998
0.999998
0.999998
0.999998
0.999998
0.999998
0.999998
0.999998
0.999998
0.999998
0.999998
0.999998
0.999998
0.999998
0.999998
0.999998
0.999998
0.999998
0.999998
0.999998
0.999998
0.999998
0.999998
0.999998
0.999998
0.999998
0.999998
0.999998
0.999998
0.999998
0.999998
0.999998
0.999998
0.999998
0.999998
0.999998
0.999998
0.999998
0.999998
0.999998
0.999998
0.999998
0.999998
0.999998
0.999998
0.999998
0.999998
0.999998
0.999998
0.999998
0.999998
0.999998
0.999998
0.999998
0.999998
0.999998
0.999998
0.999998
0.999998
0.999998
0.999998
0.999998
0.999998
0.999998
0.999997
0.999997
0.999997
0.999996
0.999997
0.999997
0.999998
0.999998
0.999999
0.999999
0.999999
1
1
1
1
1
0.999999
0.999999
0.999999
0.999999
0.999999
1
1
1
1
1
0.999998
0.999996
0.610642
0.70809
0.792116
0.84585
0.880362
0.90611
0.926708
0.943615
0.957611
0.969119
0.978525
0.984019
0.988141
0.991454
0.99376
0.995605
0.997186
0.99805
0.99873
0.999322
0.999734
0.999834
0.999917
0.999983
0.999998
0.999998
0.999998
0.999998
0.999998
0.999998
0.999998
0.999998
0.999998
0.999998
0.999998
0.999998
0.999998
0.999998
0.999998
0.999998
0.999998
0.999998
0.999998
0.999998
0.999998
0.999998
0.999998
0.999998
0.999998
0.999998
0.999998
0.999998
0.999998
0.999998
0.999998
0.999998
0.999998
0.999998
0.999998
0.999998
0.999998
0.999998
0.999998
0.999998
0.999998
0.999998
0.999998
0.999998
0.999998
0.999998
0.999998
0.999998
0.999998
0.999998
0.999998
0.999998
0.999998
0.999998
0.999998
0.999998
0.999998
0.999998
0.999998
0.999998
0.999998
0.999998
0.999998
0.999998
0.999998
0.999998
0.999998
0.999998
0.999998
0.999998
0.999998
0.999998
0.999998
0.999998
0.999998
0.999998
0.999998
0.999998
0.999998
0.999998
0.999998
0.999998
0.999998
0.999998
0.999998
0.999998
0.999998
0.999998
0.999998
0.999998
0.999998
0.999998
0.999998
0.999998
0.999998
0.999998
0.999998
0.999998
0.999998
0.999998
0.999998
0.999998
0.999998
0.999998
0.999998
0.999998
0.999998
0.999998
0.999998
0.999998
0.999998
0.999998
0.999998
0.999998
0.999998
0.999998
0.999998
0.999998
0.999998
0.999998
0.999998
0.999998
0.999998
0.999998
0.999998
0.999998
0.999998
0.999998
0.999998
0.999998
0.999998
0.999998
0.999998
0.999998
0.999998
0.999998
0.999998
0.999998
0.999998
0.999998
0.999998
0.999998
0.999998
0.999998
0.999998
0.999998
0.999998
0.999998
0.999997
0.999997
0.999997
0.999996
0.999997
0.999998
0.999998
0.999998
0.999998
0.999999
1
1
1
1
1
0.999999
0.999999
0.999999
0.999999
0.999999
0.999999
1
1
1
1
1
1
1
1.9104e-26
1.20895e-24
5.13302e-23
1.83789e-21
6.23377e-20
2.14557e-18
8.29778e-17
4.09246e-15
3.37077e-13
1.09452e-10
8.04927e-05
0.00240032
0.00463819
0.0066624
0.00869595
0.0104795
0.0120197
0.0137108
0.015229
0.0165323
0.0177547
0.0189952
0.0201184
0.0210373
0.0218049
0.0225107
0.0231196
0.0236355
0.0240707
0.0244444
0.0247656
0.0250412
0.0252777
0.0254803
0.0256539
0.0258032
0.0259315
0.0260414
0.0261356
0.0262161
0.0262851
0.0263442
0.0263947
0.0264379
0.0264749
0.0265065
0.0265335
0.0265565
0.0265763
0.0265931
0.0266075
0.0266199
0.0266304
0.0266394
0.0266472
0.0266537
0.0266594
0.0266642
0.0266683
0.0266718
0.0266748
0.0266774
0.0266796
0.0266815
0.0266831
0.0266845
0.0266856
0.0266867
0.0266875
0.0266882
0.0266889
0.0266894
0.0266899
0.0266902
0.0266906
0.0266909
0.0266911
0.0266913
0.0266915
0.0266916
0.0266918
0.0266919
0.026692
0.0266921
0.0266921
0.0266922
0.0266922
0.0266923
0.0266923
0.0266924
0.0266924
0.0266924
0.0266924
0.0266924
0.0266925
0.0266925
0.0266925
0.0266925
0.0266925
0.0266925
0.0266925
0.0266925
0.0266925
0.0266925
0.0266926
0.0266926
0.0266926
0.0266926
0.0266926
0.0266926
0.0266926
0.0266927
0.0266927
0.0266927
0.0266927
0.0266928
0.0266928
0.0266929
0.026693
0.026693
0.0266931
0.0266932
0.0266933
0.0266935
0.0266936
0.0266938
0.0266941
0.0266943
0.0266947
0.026695
0.0266955
0.026696
0.0266965
0.0266972
0.026698
0.026699
0.0267001
0.0267014
0.0267029
0.0267047
0.0267068
0.0267092
0.026712
0.0267154
0.0267193
0.0267238
0.0267292
0.0267355
0.0267429
0.0267515
0.0267617
0.0267735
0.0267874
0.0268037
0.0268228
0.0268452
0.0268713
0.0269018
0.0269375
0.0269791
0.0270277
0.0270845
0.0271511
0.0272291
0.0273204
0.0274275
0.0275528
0.0276984
0.0278677
0.0280649
0.0282952
0.0285645
0.0288844
0.0292588
0.0296953
0.0302043
0.0307981
0.0314929
0.0323123
0.0332805
0.0344166
0.0357471
0.0373071
0.0391422
0.041319
0.0438876
0.0469213
0.0504932
0.0547141
0.0597213
0.0656629
0.0727126
0.0811063
0.0911684
0.103478
0.119085
0.13959
0.168655
0.208795
0.256405
3.21903e-28
1.87821e-26
1.19016e-24
5.014e-23
1.78772e-21
6.05486e-20
2.14551e-18
8.2976e-17
4.0924e-15
3.37075e-13
1.09119e-10
3.00143e-09
1.18181e-08
3.18886e-08
6.8253e-08
1.18545e-07
1.78738e-07
2.46455e-07
3.17382e-07
3.91311e-07
4.65493e-07
5.41553e-07
6.15012e-07
6.83125e-07
7.45648e-07
8.02772e-07
8.53817e-07
9.01722e-07
9.45872e-07
9.85136e-07
1.01963e-06
1.04976e-06
1.07597e-06
1.09875e-06
1.11854e-06
1.13657e-06
1.15274e-06
1.16684e-06
1.17907e-06
1.18964e-06
1.19878e-06
1.20667e-06
1.21349e-06
1.21937e-06
1.22444e-06
1.22881e-06
1.23256e-06
1.23579e-06
1.23856e-06
1.24094e-06
1.24298e-06
1.24473e-06
1.24624e-06
1.24754e-06
1.24865e-06
1.2496e-06
1.25042e-06
1.25112e-06
1.25172e-06
1.25224e-06
1.25268e-06
1.25306e-06
1.25338e-06
1.25366e-06
1.25389e-06
1.2541e-06
1.25427e-06
1.25442e-06
1.25455e-06
1.25465e-06
1.25475e-06
1.25483e-06
1.2549e-06
1.25495e-06
1.255e-06
1.25505e-06
1.25508e-06
1.25511e-06
1.25514e-06
1.25516e-06
1.25518e-06
1.2552e-06
1.25521e-06
1.25522e-06
1.25523e-06
1.25524e-06
1.25525e-06
1.25526e-06
1.25526e-06
1.25526e-06
1.25527e-06
1.25527e-06
1.25527e-06
1.25528e-06
1.25528e-06
1.25528e-06
1.25528e-06
1.25528e-06
1.25528e-06
1.25528e-06
1.25528e-06
1.25528e-06
1.25528e-06
1.25528e-06
1.25529e-06
1.25529e-06
1.25529e-06
1.25529e-06
1.25529e-06
1.25529e-06
1.25529e-06
1.25529e-06
1.2553e-06
1.2553e-06
1.2553e-06
1.25531e-06
1.25531e-06
1.25532e-06
1.25533e-06
1.25534e-06
1.25535e-06
1.25536e-06
1.25537e-06
1.25539e-06
1.25541e-06
1.25544e-06
1.25546e-06
1.2555e-06
1.25554e-06
1.25558e-06
1.25563e-06
1.2557e-06
1.25577e-06
1.25586e-06
1.25596e-06
1.25608e-06
1.25621e-06
1.25638e-06
1.25657e-06
1.25679e-06
1.25705e-06
1.25735e-06
1.25771e-06
1.25813e-06
1.25862e-06
1.2592e-06
1.25987e-06
1.26066e-06
1.26159e-06
1.26268e-06
1.26395e-06
1.26545e-06
1.2672e-06
1.26925e-06
1.27166e-06
1.27447e-06
1.27777e-06
1.28163e-06
1.28615e-06
1.29143e-06
1.29761e-06
1.30483e-06
1.31329e-06
1.32318e-06
1.33476e-06
1.34834e-06
1.36424e-06
1.38283e-06
1.40456e-06
1.43002e-06
1.45988e-06
1.49491e-06
1.53257e-06
1.57685e-06
1.62879e-06
1.68967e-06
1.76111e-06
1.8453e-06
1.94062e-06
2.04844e-06
2.17595e-06
2.32656e-06
2.50555e-06
2.71466e-06
2.93189e-06
3.175e-06
3.43017e-06
3.73783e-06
4.11858e-06
4.55536e-06
5.00354e-06
5.64339e-06
6.67157e-06
7.86979e-06
9.28114e-06
1.09369e-05
2.93853e-05
2.3975e-05
7.05848e-05
0.000108333
1.8341e-35
2.98671e-33
-6.63381e-30
-1.00267e-27
-6.22154e-26
-2.46902e-24
3.10901e-18
8.82079e-16
4.78876e-14
8.89436e-13
3.44063e-16
2.921e-14
2.00786e-12
3.65703e-09
1.29678e-08
2.78791e-08
4.77577e-08
7.04971e-08
9.54258e-08
1.22174e-07
1.49547e-07
1.77942e-07
2.05867e-07
2.32288e-07
2.56794e-07
2.79329e-07
2.9962e-07
3.18768e-07
3.36552e-07
3.52476e-07
3.66556e-07
3.78927e-07
3.89749e-07
3.99194e-07
4.07429e-07
4.14909e-07
4.21617e-07
4.27482e-07
4.32579e-07
4.37005e-07
4.40838e-07
4.4416e-07
4.47036e-07
4.49524e-07
4.51675e-07
4.5353e-07
4.55128e-07
4.56503e-07
4.57685e-07
4.58702e-07
4.59576e-07
4.60327e-07
4.60974e-07
4.61529e-07
4.62006e-07
4.62417e-07
4.62769e-07
4.63072e-07
4.63331e-07
4.63554e-07
4.63744e-07
4.63907e-07
4.64047e-07
4.64166e-07
4.64269e-07
4.64357e-07
4.64432e-07
4.64497e-07
4.64552e-07
4.64599e-07
4.64639e-07
4.64674e-07
4.64703e-07
4.64728e-07
4.64749e-07
4.64767e-07
4.64783e-07
4.64796e-07
4.64807e-07
4.64816e-07
4.64823e-07
4.6483e-07
4.64835e-07
4.6484e-07
4.64843e-07
4.64846e-07
4.64849e-07
4.64851e-07
4.64852e-07
4.64853e-07
4.64854e-07
4.64855e-07
4.64855e-07
4.64855e-07
4.64855e-07
4.64855e-07
4.64855e-07
4.64854e-07
4.64854e-07
4.64854e-07
4.64853e-07
4.64853e-07
4.64852e-07
4.64852e-07
4.64851e-07
4.64851e-07
4.6485e-07
4.6485e-07
4.6485e-07
4.6485e-07
4.6485e-07
4.6485e-07
4.6485e-07
4.64851e-07
4.64851e-07
4.64853e-07
4.64854e-07
4.64856e-07
4.64858e-07
4.64861e-07
4.64865e-07
4.6487e-07
4.64875e-07
4.64882e-07
4.6489e-07
4.64899e-07
4.6491e-07
4.64923e-07
4.64939e-07
4.64958e-07
4.64979e-07
4.65005e-07
4.65035e-07
4.65071e-07
4.65113e-07
4.65162e-07
4.65219e-07
4.65287e-07
4.65366e-07
4.65459e-07
4.65567e-07
4.65695e-07
4.65845e-07
4.6602e-07
4.66225e-07
4.66467e-07
4.66749e-07
4.67079e-07
4.67467e-07
4.67922e-07
4.68454e-07
4.69078e-07
4.6981e-07
4.70667e-07
4.71671e-07
4.72846e-07
4.74222e-07
4.75831e-07
4.77713e-07
4.79913e-07
4.82485e-07
4.85494e-07
4.89016e-07
4.93137e-07
4.97965e-07
5.03625e-07
5.10254e-07
5.18016e-07
5.27107e-07
5.37782e-07
5.50341e-07
5.65196e-07
5.81664e-07
6.01204e-07
6.24236e-07
6.5136e-07
6.83378e-07
7.2146e-07
7.65732e-07
8.17249e-07
8.78869e-07
9.52332e-07
1.04055e-06
1.14488e-06
1.25552e-06
1.38138e-06
1.51617e-06
1.71399e-06
2.00806e-06
2.35138e-06
2.70999e-06
3.21941e-06
4.0352e-06
5.0731e-06
6.47245e-06
8.2954e-06
1.06658e-05
3.07741e-06
1.56034e-06
2.23582e-06
4.34089e-51
-3.71128e-37
-9.35726e-35
-9.15539e-33
-5.94866e-31
-2.89755e-29
5.99391e-25
4.27251e-23
-8.38509e-24
-7.60784e-22
-8.52619e-21
-1.0368e-18
-2.81375e-26
-8.9398e-17
-3.16348e-16
-5.72439e-16
1.12767e-10
4.26606e-10
8.92761e-10
1.50873e-09
2.21001e-09
2.99626e-09
3.84547e-09
4.71798e-09
5.56869e-09
6.38389e-09
7.14465e-09
7.86582e-09
8.54329e-09
9.16325e-09
9.72231e-09
1.02218e-08
1.06654e-08
1.1058e-08
1.14041e-08
1.17172e-08
1.19978e-08
1.2245e-08
1.24616e-08
1.26516e-08
1.2817e-08
1.2961e-08
1.30863e-08
1.31953e-08
1.329e-08
1.33721e-08
1.34432e-08
1.35046e-08
1.35576e-08
1.36033e-08
1.36428e-08
1.36767e-08
1.3706e-08
1.37312e-08
1.37528e-08
1.37714e-08
1.37874e-08
1.38011e-08
1.38128e-08
1.38228e-08
1.38314e-08
1.38388e-08
1.3845e-08
1.38504e-08
1.38549e-08
1.38587e-08
1.38619e-08
1.38647e-08
1.3867e-08
1.38688e-08
1.38704e-08
1.38717e-08
1.38728e-08
1.38736e-08
1.38743e-08
1.38748e-08
1.38751e-08
1.38754e-08
1.38755e-08
1.38756e-08
1.38756e-08
1.38755e-08
1.38754e-08
1.38752e-08
1.3875e-08
1.38748e-08
1.38745e-08
1.38742e-08
1.38739e-08
1.38736e-08
1.38732e-08
1.38729e-08
1.38725e-08
1.38721e-08
1.38718e-08
1.38714e-08
1.3871e-08
1.38706e-08
1.38702e-08
1.38698e-08
1.38693e-08
1.38689e-08
1.38685e-08
1.38681e-08
1.38677e-08
1.38673e-08
1.38669e-08
1.38665e-08
1.38661e-08
1.38657e-08
1.38653e-08
1.38649e-08
1.38645e-08
1.38642e-08
1.38638e-08
1.38635e-08
1.38632e-08
1.38629e-08
1.38626e-08
1.38623e-08
1.38621e-08
1.38619e-08
1.38618e-08
1.38617e-08
1.38617e-08
1.38617e-08
1.38618e-08
1.3862e-08
1.38624e-08
1.38628e-08
1.38634e-08
1.38641e-08
1.38651e-08
1.38663e-08
1.38678e-08
1.38696e-08
1.38718e-08
1.38744e-08
1.38775e-08
1.38812e-08
1.38857e-08
1.3891e-08
1.38972e-08
1.39046e-08
1.39133e-08
1.39235e-08
1.39357e-08
1.395e-08
1.39668e-08
1.39865e-08
1.40097e-08
1.40369e-08
1.40688e-08
1.41062e-08
1.415e-08
1.42014e-08
1.42615e-08
1.43318e-08
1.4414e-08
1.45102e-08
1.46227e-08
1.47543e-08
1.49084e-08
1.50889e-08
1.53007e-08
1.55496e-08
1.58413e-08
1.61821e-08
1.65817e-08
1.70519e-08
1.76065e-08
1.82598e-08
1.89698e-08
1.98109e-08
2.08085e-08
2.19921e-08
2.33999e-08
2.50862e-08
2.70353e-08
2.92933e-08
3.20286e-08
3.53519e-08
3.94134e-08
4.44034e-08
5.06131e-08
5.79097e-08
6.61055e-08
7.64141e-08
9.07019e-08
1.09185e-07
1.3062e-07
1.59981e-07
2.056e-07
2.65202e-07
3.52286e-07
4.73573e-07
5.6708e-07
4.63861e-07
4.26449e-08
5.61248e-08
-1.08926e-53
-6.4289e-51
-7.53572e-48
-6.35631e-46
-1.51855e-43
-1.37836e-41
-1.46388e-40
-3.01721e-47
-1.22637e-35
-6.18755e-35
-1.48982e-32
-4.23603e-39
-5.55996e-30
-6.87819e-28
-6.5262e-26
-3.40869e-24
-1.49524e-22
-1.20354e-26
-9.41631e-30
3.28312e-28
1.96987e-27
1.31241e-27
-1.65654e-27
-4.98954e-25
-1.27198e-24
-2.00953e-24
-1.55824e-24
3.25819e-22
1.07063e-19
3.43245e-17
9.15351e-15
2.37527e-14
3.72021e-14
4.85895e-14
3.01586e-13
2.79375e-12
5.08609e-12
7.18037e-12
9.09862e-12
1.09138e-11
1.2543e-11
1.39937e-11
1.52686e-11
1.63683e-11
1.73423e-11
1.82031e-11
1.89613e-11
1.96277e-11
2.02123e-11
2.07246e-11
2.1173e-11
2.15652e-11
2.19079e-11
2.2207e-11
2.24679e-11
2.26951e-11
2.2893e-11
2.30651e-11
2.32147e-11
2.33448e-11
2.3458e-11
2.35565e-11
2.36421e-11
2.37165e-11
2.37812e-11
2.38374e-11
2.38863e-11
2.39289e-11
2.39659e-11
2.39981e-11
2.40262e-11
2.40507e-11
2.40721e-11
2.40908e-11
2.41072e-11
2.41215e-11
2.4134e-11
2.4145e-11
2.41547e-11
2.41631e-11
2.41706e-11
2.41773e-11
2.41832e-11
2.41886e-11
2.41934e-11
2.41978e-11
2.42018e-11
2.42055e-11
2.42089e-11
2.4212e-11
2.4215e-11
2.42178e-11
2.42204e-11
2.42229e-11
2.42253e-11
2.42277e-11
2.42299e-11
2.42321e-11
2.42342e-11
2.42362e-11
2.42383e-11
2.42403e-11
2.42423e-11
2.42443e-11
2.42463e-11
2.42483e-11
2.42503e-11
2.42524e-11
2.42545e-11
2.42567e-11
2.42589e-11
2.42612e-11
2.42636e-11
2.42661e-11
2.42688e-11
2.42716e-11
2.42746e-11
2.42778e-11
2.42813e-11
2.42851e-11
2.42892e-11
2.42937e-11
2.42987e-11
2.43043e-11
2.43105e-11
2.43174e-11
2.43252e-11
2.4334e-11
2.4344e-11
2.43553e-11
2.43683e-11
2.4383e-11
2.44e-11
2.44194e-11
2.44417e-11
2.44675e-11
2.44971e-11
2.45314e-11
2.45711e-11
2.4617e-11
2.4674e-11
2.47453e-11
2.4828e-11
2.49239e-11
2.50354e-11
2.51649e-11
2.53156e-11
2.54909e-11
2.56947e-11
2.59315e-11
2.62068e-11
2.65267e-11
2.68985e-11
2.73309e-11
2.78335e-11
2.84181e-11
2.90984e-11
2.98904e-11
3.08127e-11
3.18873e-11
3.31404e-11
3.46038e-11
3.63156e-11
3.83222e-11
4.06795e-11
4.34335e-11
4.66746e-11
5.04447e-11
5.48749e-11
6.01346e-11
6.63959e-11
7.39096e-11
8.24932e-11
9.26853e-11
1.05055e-10
1.20094e-10
1.38429e-10
1.61021e-10
1.88233e-10
2.21479e-10
2.63255e-10
3.16145e-10
3.83964e-10
4.73444e-10
5.80392e-10
7.26645e-10
9.47944e-10
1.27132e-09
1.72579e-09
2.11108e-09
2.30201e-09
2.53333e-09
3.02002e-09
3.71156e-09
4.8154e-09
6.18611e-09
8.02168e-09
6.79316e-09
1.51584e-09
1.51588e-09
-7.17708e-77
-2.35397e-74
-4.04062e-72
-2.13183e-70
-1.62695e-68
2.19982e-67
5.19897e-69
-3.83666e-69
-5.34057e-62
-7.92351e-59
-6.92548e-62
-4.34183e-57
-6.88902e-57
-1.02185e-55
-2.08948e-73
1.17798e-70
2.49152e-64
3.41053e-60
-1.05034e-58
4.14383e-57
-1.68197e-54
-1.98755e-62
1.07672e-84
-4.35452e-41
-2.55269e-38
-1.2465e-35
-5.19051e-33
-6.51662e-32
-1.70307e-29
-4.04629e-27
-7.84557e-25
-1.43583e-24
-1.56218e-24
-1.40537e-24
-1.18085e-24
-9.25402e-25
-6.76194e-25
-4.604e-25
-2.93656e-25
-1.75035e-25
-1.04056e-25
-6.28333e-26
-3.83105e-26
-2.33751e-26
-1.42633e-26
-8.68669e-27
-5.3203e-27
-3.22452e-27
-1.98624e-27
-1.20349e-27
-7.31388e-28
-4.45193e-28
-2.66626e-28
-1.39973e-28
-1.14422e-28
-5.38145e-29
-3.42456e-29
1.90116e-30
-9.78445e-30
1.65778e-29
-4.89223e-30
-2.14701e-29
0
0
4.89223e-30
-3.12545e-29
0
0
2.14701e-29
-2.63623e-29
0
0
2.14701e-29
0
2.14701e-29
-2.63623e-29
-2.14701e-29
2.14701e-29
0
-4.89223e-30
-4.89223e-30
-4.89223e-30
2.63623e-29
-4.89223e-30
2.14701e-29
2.14701e-29
4.89223e-30
-2.14701e-29
0
0
0
0
2.14701e-29
0
0
-2.14701e-29
0
2.63623e-29
0
-4.89223e-30
2.14701e-29
-2.14701e-29
-4.89223e-30
0
-2.63623e-29
0
1.65778e-29
0
0
0
0
-2.14701e-29
2.14701e-29
-2.14701e-29
-2.14701e-29
2.14701e-29
2.63623e-29
0
0
-1.65778e-29
-2.14701e-29
0
2.14701e-29
0
-2.14701e-29
0
-1.65778e-29
1.65778e-29
4.89223e-30
0
0
0
0
0
0
0
4.89223e-30
-2.14701e-29
-1.65778e-29
-4.89223e-30
1.65778e-29
0
0
0
4.29401e-29
2.14701e-29
0
-4.89223e-30
1.16856e-29
0
-4.89223e-30
-3.12545e-29
-3.61467e-29
-3.91378e-29
1.27921e-15
3.2075e-15
5.45776e-15
8.08735e-15
1.11648e-14
1.47727e-14
1.90117e-14
2.40061e-14
2.9911e-14
3.76574e-14
4.69324e-14
5.50342e-14
6.61204e-14
8.04661e-14
9.76865e-14
1.19651e-13
1.46935e-13
1.81189e-13
2.23053e-13
2.73179e-13
3.37825e-13
4.20804e-13
5.26472e-13
6.63484e-13
8.37039e-13
1.07663e-12
1.42994e-12
1.98549e-12
2.75784e-12
3.15618e-12
3.50986e-12
4.2192e-12
5.15919e-12
6.44752e-12
8.2049e-12
1.04117e-11
1.27999e-11
1.62107e-11
2.25165e-11
3.17906e-11
4.42354e-11
5.74173e-11
7.52413e-11
4.91104e-11
3.5424e-11
4.18589e-11
-7.49003e-100
-5.95903e-98
1.71917e-97
-2.6184e-96
-9.97122e-95
-9.42733e-87
1.64319e-85
3.0985e-83
5.93688e-81
4.99842e-80
-1.95805e-76
-2.16367e-75
-6.27754e-76
-7.67502e-78
-1.87999e-74
-2.78317e-69
-2.12879e-69
-2.32616e-63
-5.15632e-67
-5.19163e-60
-3.20168e-60
-8.29982e-64
-2.04673e-64
-1.4222e-57
-1.63048e-54
-1.69523e-52
-1.0106e-51
-3.68323e-49
-7.91936e-47
-1.37717e-40
-4.51435e-42
-4.04055e-41
-3.45539e-43
-2.77685e-42
-1.34329e-59
1.37062e-44
1.3637e-44
1.27635e-43
6.41369e-44
-2.60535e-42
-3.56646e-39
-1.17661e-38
-6.98545e-39
-8.53856e-39
-7.82054e-39
-3.04601e-39
-1.70561e-42
0
1.78789e-40
8.26202e-41
1.44604e-40
3.62435e-40
1.81556e-40
5.65862e-42
3.07184e-40
3.07339e-40
3.07184e-40
4.54483e-51
9.29678e-40
6.92232e-41
5.15704e-40
5.19904e-40
6.74752e-40
6.23504e-40
1.56317e-39
1.71414e-38
1.38092e-39
9.12941e-40
9.12941e-40
2.91693e-39
1.36946e-39
7.77556e-40
4.54403e-40
1.74115e-39
5.06343e-40
9.23112e-39
9.03751e-39
1.03901e-39
4.78658e-39
1.87717e-39
1.80652e-39
1.80882e-39
1.05935e-39
1.87506e-39
5.18236e-40
1.08996e-39
1.8929e-39
1.89119e-38
8.36421e-40
1.51356e-39
1.90245e-39
8.3588e-40
1.0909e-39
1.89911e-39
1.87052e-39
2.84481e-39
1.95857e-39
5.14604e-40
1.89289e-39
8.3318e-40
5.68725e-41
2.75688e-39
1.87011e-39
1.85954e-39
2.79495e-39
1.86569e-39
5.67605e-41
8.29953e-40
1.94264e-39
1.92843e-39
8.28885e-40
8.93073e-39
6.43112e-40
9.15763e-39
8.90857e-39
1.08054e-39
9.07351e-40
1.48358e-39
1.86789e-39
2.66087e-39
3.26598e-39
1.48063e-39
6.41573e-40
1.77618e-39
2.68038e-39
1.49259e-39
1.84e-38
5.17059e-40
8.44677e-40
8.34177e-40
1.40251e-39
1.77707e-39
6.28417e-40
1.78141e-39
1.48175e-39
8.40395e-40
1.78916e-39
2.33809e-39
2.12611e-39
1.4223e-39
2.27946e-40
8.68861e-40
5.16056e-39
1.17648e-39
2.27657e-40
5.19121e-40
5.29641e-40
9.65696e-40
7.45201e-40
7.45157e-40
1.04066e-40
-1.20982e-37
-2.5276e-33
-3.09162e-33
-3.23384e-33
-3.55328e-33
-3.93594e-33
-4.32445e-33
-4.76086e-33
-4.74459e-33
0
-5.83199e-43
5.97196e-40
1.22306e-36
5.54199e-18
1.8911e-17
3.64082e-17
6.03648e-17
9.68688e-17
1.32595e-16
1.80888e-16
2.41414e-16
3.14706e-16
4.2544e-16
5.71717e-16
7.69263e-16
1.04514e-15
1.44332e-15
2.03113e-15
2.72885e-15
3.66425e-15
5.0029e-15
6.94655e-15
9.69467e-15
1.34776e-14
1.88997e-14
2.65738e-14
3.82944e-14
5.60292e-14
8.16338e-14
1.15245e-13
1.63682e-13
2.4158e-13
3.4483e-13
4.62435e-13
5.45013e-13
5.71445e-13
7.34472e-13
1.11939e-12
1.26206e-12
1.91794e-120
5.47608e-119
1.41804e-117
-4.07855e-114
-6.37282e-113
-1.0129e-112
-1.04502e-114
-2.1995e-113
-5.33768e-101
-5.56567e-98
1.67826e-94
-8.49657e-94
6.0705e-92
-2.73412e-90
-1.72444e-85
-1.75694e-85
-2.73021e-80
-2.70051e-83
-1.55963e-77
-4.09271e-76
-4.28017e-76
-2.63007e-78
-1.06293e-73
-9.32722e-69
7.51246e-64
1.77908e-60
1.89526e-57
3.89214e-55
4.38593e-52
3.30505e-49
7.7239e-66
3.62418e-47
2.66243e-44
-5.58693e-46
-3.53258e-44
-5.39638e-44
1.347e-44
7.09373e-44
-7.78838e-43
-1.49759e-43
-9.70993e-45
-3.35098e-45
-1.76562e-45
-6.54447e-45
-1.09343e-44
9.04751e-46
2.31114e-42
1.91538e-42
3.95305e-42
5.32728e-42
7.42441e-42
8.80218e-42
-5.50152e-41
1.12732e-41
-4.51202e-41
1.88118e-41
-2.99887e-41
-5.85356e-41
1.49653e-40
3.13384e-41
1.5565e-40
8.64374e-42
3.70541e-41
2.54487e-40
2.91891e-40
3.11117e-40
4.17949e-41
3.45359e-40
3.60739e-40
3.79356e-40
4.51431e-41
3.97027e-40
4.70636e-40
4.24553e-40
4.75989e-40
4.79604e-40
4.42412e-40
4.37057e-40
4.43771e-40
4.5363e-40
4.56751e-40
4.58973e-40
4.50475e-40
4.8912e-40
4.60798e-40
4.79405e-40
4.61224e-40
4.56435e-40
4.53385e-40
4.78483e-41
4.59751e-40
4.52714e-40
4.79691e-40
4.58975e-40
4.89873e-40
4.89227e-40
4.89066e-40
4.56727e-40
4.57743e-40
4.50416e-40
4.79768e-41
4.57192e-40
4.56474e-40
4.881e-40
4.56047e-40
4.55534e-40
4.78418e-41
4.48727e-40
4.8645e-40
4.86231e-40
4.48242e-40
4.54595e-40
3.83963e-41
4.85444e-40
4.54633e-40
4.75282e-40
4.44763e-40
4.74059e-41
4.54879e-40
4.55595e-40
4.76846e-40
4.74069e-41
3.83648e-41
4.5721e-40
4.85249e-40
4.75062e-41
4.5462e-40
4.59437e-40
4.80312e-40
4.55393e-40
4.82827e-41
4.61336e-40
4.15851e-41
4.61036e-40
4.85648e-41
4.53612e-40
4.63832e-40
4.63806e-40
4.64471e-40
5.07621e-41
4.53976e-40
4.60958e-40
5.19844e-40
5.3157e-41
4.53415e-40
4.75821e-40
4.7537e-40
4.40049e-40
5.03434e-41
4.77896e-41
2.08556e-40
7.70744e-40
-1.97843e-41
2.72098e-45
-2.12613e-44
-1.13229e-46
-2.68165e-45
-4.044e-45
-6.48417e-45
-1.14032e-44
-2.0418e-44
-3.70508e-44
-6.75945e-44
-1.23653e-43
-2.28198e-43
0
0
0
6.87899e-40
1.6094e-36
3.22923e-33
3.80845e-23
3.27832e-20
1.06037e-19
2.0987e-19
4.01944e-19
7.20618e-19
1.209e-18
1.97287e-18
3.20645e-18
5.23957e-18
8.60518e-18
1.42361e-17
2.37368e-17
3.93269e-17
6.56554e-17
1.10067e-16
1.88939e-16
3.32299e-16
5.88386e-16
1.02934e-15
1.84266e-15
3.5422e-15
6.71634e-15
1.26205e-14
2.321e-14
4.1803e-14
6.92461e-14
7.28576e-14
5.34673e-14
2.27823e-146
2.73857e-133
3.73837e-144
-1.96411e-130
-4.17873e-128
-6.53091e-130
-3.56441e-129
-2.10157e-129
-1.6203e-126
-2.59508e-112
-7.90976e-110
-1.49908e-108
-1.92973e-105
-4.03141e-106
-9.68393e-100
-7.70813e-97
-3.81488e-97
-9.05166e-94
-3.72317e-89
-3.54954e-89
-5.28657e-94
-1.1236e-84
-3.56285e-82
-2.32895e-76
-1.62436e-74
-7.56987e-74
1.55533e-78
6.85445e-75
5.14111e-72
9.27924e-69
1.57457e-65
2.28825e-62
2.22899e-59
-1.16778e-59
1.40735e-49
-6.76039e-53
4.9974e-54
9.70315e-49
-3.1021e-50
-9.05395e-54
-1.54778e-51
-3.31005e-55
-9.78254e-53
-8.93979e-53
-1.57681e-52
1.89323e-48
2.60192e-48
3.41649e-48
4.34942e-48
9.40756e-48
6.46469e-48
3.94724e-47
-3.25102e-49
4.73361e-47
-2.86695e-49
5.58027e-47
-2.45413e-49
-9.74465e-57
1.73851e-46
7.15543e-47
3.36877e-46
8.20773e-47
8.68079e-47
4.83669e-46
5.62356e-46
5.9082e-46
1.01298e-46
5.92381e-46
6.55613e-46
6.71629e-46
1.10272e-46
6.72139e-46
7.07118e-46
7.15609e-46
7.22797e-46
7.28845e-46
7.339e-46
7.38109e-46
7.41597e-46
7.44473e-46
7.46833e-46
7.48755e-46
7.50308e-46
7.5155e-46
7.52738e-46
7.53484e-46
7.53882e-46
7.54083e-46
7.52708e-46
1.19646e-46
7.54e-46
7.53813e-46
7.53568e-46
7.53274e-46
7.52941e-46
7.52578e-46
7.52186e-46
7.51769e-46
7.51326e-46
7.47809e-46
1.18723e-46
7.49944e-46
7.49446e-46
7.48941e-46
7.4844e-46
7.44808e-46
1.18057e-46
7.46989e-46
7.46532e-46
7.46092e-46
7.45674e-46
7.42528e-46
1.17441e-46
7.44613e-46
7.4434e-46
7.44125e-46
7.42095e-46
1.17066e-46
7.43934e-46
7.44004e-46
7.43708e-46
1.16921e-46
1.16914e-46
7.44814e-46
7.46013e-46
1.17022e-46
7.44734e-46
7.48978e-46
7.50479e-46
7.5229e-46
1.17861e-46
7.46493e-46
1.18568e-46
7.48139e-46
1.19598e-46
7.50486e-46
7.78457e-46
7.85029e-46
7.92577e-46
1.24419e-46
7.58715e-46
8.21981e-46
8.34265e-46
1.32478e-46
6.75152e-46
8.78138e-46
8.94139e-46
9.09938e-46
1.54446e-46
1.61665e-46
2.6128e-46
2.16974e-46
-4.38931e-49
8.75425e-47
-4.80119e-51
4.57265e-47
3.16295e-46
3.63595e-46
4.24513e-46
5.02777e-46
6.01481e-46
7.22958e-46
8.62983e-46
9.95937e-46
1.03694e-45
4.45408e-46
-1.03041e-42
-9.43766e-43
-1.09688e-73
4.25913e-43
5.44894e-34
1.72308e-30
5.23799e-27
6.64399e-24
4.31055e-23
1.34706e-22
3.34452e-22
7.62317e-22
1.63076e-21
3.35016e-21
6.76717e-21
1.35824e-20
2.72332e-20
5.54269e-20
1.12685e-19
2.3076e-19
4.71449e-19
9.79854e-19
2.08538e-18
4.44511e-18
9.32125e-18
1.96902e-17
4.4003e-17
9.58903e-17
2.05844e-16
4.18129e-16
8.10567e-16
1.45471e-15
1.96635e-15
2.05858e-15
2.17515e-158
9.7317e-155
1.89857e-151
2.53295e-148