/*--------------------------------*- C++ -*----------------------------------*\
| =========                 |                                                 |
| \\      /  F ield         | OpenFOAM: The Open Source CFD Toolbox           |
|  \\    /   O peration     | Version:  2312                                  |
|   \\  /    A nd           | Website:  www.openfoam.com                      |
|    \\/     M anipulation  |                                                 |
\*---------------------------------------------------------------------------*/
FoamFile
{
    version     2.0;
    format      ascii;
    arch        "LSB;label=32;scalar=64";
    class       volScalarField;
    location    "0.05";
    object      p;
}
// * * * * * * * * * * * * * * * * * * * * * * * * * * * * * * * * * * * * * //

dimensions      [1 -1 -2 0 0 0 0];

internalField   nonuniform List<scalar> 
80000
(
424.586
429.075
433.154
436.844
440.16
443.125
445.763
448.101
450.166
451.985
453.584
454.987
456.217
457.294
458.237
459.061
459.781
460.41
460.959
461.439
461.857
462.222
462.54
462.818
463.06
463.272
463.457
463.619
463.76
463.884
463.992
464.087
464.17
464.242
464.306
464.362
464.411
464.454
464.492
464.526
464.555
464.582
464.606
464.627
464.646
464.663
464.678
464.692
464.705
464.717
464.727
464.737
464.747
464.755
464.764
464.771
464.779
464.786
464.792
464.799
464.805
464.811
464.817
464.823
464.828
464.834
464.839
464.845
464.85
464.855
464.86
464.865
464.871
464.876
464.881
464.886
464.891
464.896
464.901
464.906
464.911
464.915
464.92
464.925
464.93
464.935
464.94
464.945
464.95
464.955
464.96
464.964
464.969
464.974
464.979
464.984
464.989
464.994
464.999
465.003
465.008
465.013
465.018
465.023
465.028
465.033
465.038
465.042
465.047
465.052
465.057
465.062
465.067
465.072
465.077
465.082
465.086
465.091
465.096
465.101
465.106
465.111
465.116
465.121
465.126
465.131
465.136
465.141
465.146
465.151
465.156
465.161
465.166
465.172
465.177
465.182
465.188
465.193
465.199
465.204
465.21
465.216
465.222
465.229
465.235
465.242
465.25
465.257
465.265
465.274
465.283
465.293
465.303
465.315
465.328
465.341
465.356
465.373
465.392
465.413
465.436
465.462
465.491
465.525
465.562
465.605
465.654
465.71
465.774
465.846
465.93
466.025
466.135
466.261
466.405
466.571
466.761
466.979
467.229
467.516
467.845
468.222
468.654
469.149
469.714
470.361
471.098
471.939
472.896
473.983
475.215
476.61
478.185
479.958
481.947
484.17
486.646
489.39
492.419
495.708
376.148
380.633
384.704
388.382
391.682
394.627
397.243
399.558
401.599
403.396
404.973
406.356
407.567
408.627
409.554
410.364
411.072
411.689
412.229
412.699
413.11
413.468
413.78
414.053
414.291
414.499
414.68
414.839
414.978
415.099
415.205
415.298
415.379
415.451
415.513
415.568
415.616
415.658
415.696
415.729
415.758
415.784
415.808
415.828
415.847
415.864
415.879
415.893
415.906
415.917
415.928
415.938
415.947
415.955
415.964
415.971
415.978
415.985
415.992
415.999
416.005
416.011
416.017
416.022
416.028
416.033
416.039
416.044
416.05
416.055
416.06
416.065
416.07
416.075
416.08
416.085
416.09
416.095
416.1
416.105
416.11
416.115
416.12
416.125
416.13
416.135
416.14
416.144
416.149
416.154
416.159
416.164
416.169
416.174
416.179
416.184
416.188
416.193
416.198
416.203
416.208
416.213
416.218
416.223
416.227
416.232
416.237
416.242
416.247
416.252
416.257
416.262
416.267
416.271
416.276
416.281
416.286
416.291
416.296
416.301
416.306
416.311
416.316
416.321
416.325
416.33
416.335
416.34
416.345
416.351
416.356
416.361
416.366
416.371
416.376
416.382
416.387
416.393
416.398
416.404
416.41
416.416
416.422
416.428
416.435
416.442
416.449
416.456
416.464
416.473
416.482
416.492
416.502
416.514
416.526
416.54
416.554
416.571
416.589
416.61
416.633
416.658
416.687
416.72
416.757
416.799
416.847
416.901
416.964
417.035
417.117
417.211
417.318
417.442
417.583
417.745
417.932
418.145
418.39
418.672
418.994
419.364
419.788
420.274
420.83
421.465
422.191
423.018
423.959
425.03
426.245
427.621
429.177
430.93
432.9
435.105
437.563
440.291
443.307
446.581
328.077
332.557
336.613
340.266
343.533
346.438
349.009
351.277
353.271
355.021
356.555
357.897
359.07
360.096
360.991
361.773
362.455
363.05
363.57
364.023
364.418
364.762
365.063
365.325
365.554
365.754
365.929
366.081
366.215
366.332
366.434
366.524
366.602
366.671
366.731
366.784
366.83
366.871
366.907
366.939
366.967
366.993
367.015
367.035
367.053
367.07
367.084
367.098
367.11
367.121
367.132
367.141
367.15
367.159
367.167
367.174
367.182
367.188
367.195
367.201
367.208
367.213
367.219
367.225
367.231
367.236
367.241
367.247
367.252
367.257
367.262
367.268
367.273
367.278
367.283
367.288
367.293
367.298
367.303
367.308
367.313
367.317
367.322
367.327
367.332
367.337
367.342
367.347
367.352
367.357
367.362
367.366
367.371
367.376
367.381
367.386
367.391
367.396
367.401
367.406
367.41
367.415
367.42
367.425
367.43
367.435
367.44
367.445
367.449
367.454
367.459
367.464
367.469
367.474
367.479
367.484
367.489
367.493
367.498
367.503
367.508
367.513
367.518
367.523
367.528
367.533
367.538
367.543
367.548
367.553
367.558
367.563
367.568
367.574
367.579
367.584
367.59
367.595
367.601
367.606
367.612
367.618
367.624
367.63
367.637
367.644
367.651
367.658
367.666
367.674
367.683
367.693
367.703
367.714
367.726
367.739
367.754
367.77
367.788
367.807
367.829
367.854
367.882
367.913
367.949
367.99
368.036
368.088
368.148
368.217
368.295
368.385
368.488
368.607
368.743
368.899
369.078
369.283
369.519
369.789
370.099
370.456
370.864
371.332
371.868
372.482
373.182
373.982
374.894
375.932
377.112
378.451
379.967
381.68
383.61
385.776
388.196
390.889
393.871
397.111
280.372
284.848
288.882
292.499
295.715
298.558
301.06
303.255
305.177
306.857
308.324
309.604
310.72
311.693
312.541
313.281
313.925
314.487
314.977
315.404
315.777
316.101
316.384
316.631
316.846
317.034
317.199
317.343
317.469
317.579
317.676
317.76
317.834
317.899
317.956
318.006
318.05
318.088
318.122
318.153
318.179
318.203
318.225
318.244
318.261
318.277
318.291
318.304
318.315
318.326
318.336
318.346
318.354
318.363
318.37
318.378
318.385
318.392
318.398
318.404
318.41
318.416
318.422
318.428
318.433
318.439
318.444
318.449
318.455
318.46
318.465
318.47
318.475
318.48
318.485
318.49
318.495
318.5
318.505
318.51
318.515
318.52
318.525
318.53
318.535
318.54
318.544
318.549
318.554
318.559
318.564
318.569
318.574
318.579
318.584
318.588
318.593
318.598
318.603
318.608
318.613
318.618
318.623
318.627
318.632
318.637
318.642
318.647
318.652
318.657
318.662
318.667
318.671
318.676
318.681
318.686
318.691
318.696
318.701
318.706
318.711
318.716
318.72
318.725
318.73
318.735
318.74
318.745
318.75
318.755
318.76
318.766
318.771
318.776
318.781
318.786
318.792
318.797
318.803
318.808
318.814
318.82
318.826
318.832
318.839
318.845
318.852
318.859
318.867
318.875
318.884
318.893
318.903
318.914
318.925
318.938
318.952
318.967
318.984
319.003
319.024
319.047
319.073
319.103
319.136
319.174
319.218
319.267
319.323
319.388
319.461
319.546
319.643
319.754
319.882
320.029
320.197
320.39
320.611
320.866
321.158
321.493
321.878
322.32
322.827
323.407
324.072
324.831
325.697
326.686
327.812
329.094
330.551
332.203
334.071
336.177
338.54
341.178
344.111
347.298
233.032
237.507
241.517
245.086
248.233
250.989
253.395
255.489
257.311
258.895
260.272
261.468
262.507
263.411
264.197
264.88
265.475
265.993
266.445
266.838
267.18
267.478
267.738
267.964
268.162
268.335
268.486
268.619
268.735
268.837
268.927
269.005
269.073
269.133
269.185
269.231
269.271
269.307
269.339
269.367
269.391
269.414
269.434
269.451
269.468
269.482
269.496
269.508
269.519
269.529
269.539
269.548
269.556
269.564
269.572
269.579
269.586
269.592
269.598
269.605
269.611
269.616
269.622
269.628
269.633
269.639
269.644
269.649
269.654
269.659
269.665
269.67
269.675
269.68
269.685
269.69
269.695
269.7
269.705
269.71
269.715
269.719
269.724
269.729
269.734
269.739
269.744
269.749
269.754
269.759
269.764
269.768
269.773
269.778
269.783
269.788
269.793
269.798
269.803
269.808
269.812
269.817
269.822
269.827
269.832
269.837
269.842
269.847
269.851
269.856
269.861
269.866
269.871
269.876
269.881
269.886
269.891
269.895
269.9
269.905
269.91
269.915
269.92
269.925
269.93
269.935
269.94
269.945
269.95
269.955
269.96
269.965
269.97
269.975
269.98
269.986
269.991
269.996
270.002
270.007
270.013
270.019
270.025
270.031
270.037
270.044
270.05
270.057
270.065
270.073
270.081
270.09
270.099
270.11
270.121
270.133
270.146
270.16
270.176
270.193
270.213
270.234
270.258
270.285
270.316
270.351
270.391
270.436
270.487
270.546
270.613
270.691
270.78
270.883
271
271.134
271.287
271.464
271.667
271.9
272.168
272.476
272.831
273.238
273.706
274.244
274.859
275.564
276.371
277.293
278.347
279.551
280.926
282.494
284.277
286.299
288.583
291.148
294.015
297.133
186.048
190.534
194.524
198.036
201.091
203.731
206.007
207.969
209.661
211.122
212.384
213.475
214.419
215.236
215.944
216.558
217.092
217.556
217.96
218.312
218.618
218.884
219.115
219.317
219.492
219.646
219.782
219.901
220.006
220.098
220.179
220.249
220.31
220.364
220.411
220.452
220.488
220.52
220.549
220.574
220.597
220.617
220.635
220.651
220.666
220.68
220.692
220.703
220.714
220.723
220.732
220.741
220.749
220.756
220.764
220.77
220.777
220.783
220.79
220.796
220.801
220.807
220.813
220.818
220.824
220.829
220.834
220.839
220.845
220.85
220.855
220.86
220.865
220.87
220.875
220.88
220.885
220.89
220.895
220.9
220.905
220.91
220.914
220.919
220.924
220.929
220.934
220.939
220.944
220.949
220.954
220.958
220.963
220.968
220.973
220.978
220.983
220.988
220.993
220.998
221.002
221.007
221.012
221.017
221.022
221.027
221.032
221.037
221.041
221.046
221.051
221.056
221.061
221.066
221.071
221.076
221.081
221.086
221.09
221.095
221.1
221.105
221.11
221.115
221.12
221.125
221.13
221.135
221.14
221.145
221.15
221.155
221.16
221.165
221.17
221.175
221.181
221.186
221.191
221.197
221.202
221.208
221.214
221.22
221.226
221.232
221.239
221.246
221.253
221.26
221.268
221.277
221.286
221.295
221.306
221.317
221.329
221.342
221.357
221.372
221.39
221.409
221.431
221.455
221.482
221.513
221.548
221.588
221.634
221.685
221.744
221.816
221.896
221.986
222.089
222.208
222.344
222.501
222.681
222.889
223.128
223.402
223.718
224.083
224.504
224.988
225.543
226.181
226.912
227.75
228.712
229.817
231.086
232.543
234.215
236.128
238.308
240.78
243.564
246.596
139.342
143.89
147.896
151.357
154.3
156.789
158.898
160.691
162.221
163.53
164.653
165.617
166.445
167.158
167.774
168.307
168.768
169.17
169.518
169.821
170.085
170.314
170.513
170.685
170.834
170.966
171.083
171.187
171.279
171.361
171.432
171.493
171.546
171.592
171.633
171.669
171.7
171.728
171.753
171.775
171.795
171.813
171.829
171.844
171.857
171.869
171.88
171.891
171.9
171.909
171.918
171.926
171.933
171.941
171.947
171.954
171.96
171.967
171.972
171.978
171.984
171.99
171.995
172.001
172.006
172.011
172.016
172.021
172.027
172.032
172.037
172.042
172.047
172.052
172.057
172.062
172.067
172.072
172.077
172.082
172.086
172.091
172.096
172.101
172.106
172.111
172.116
172.121
172.126
172.131
172.135
172.14
172.145
172.15
172.155
172.16
172.165
172.17
172.174
172.179
172.184
172.189
172.194
172.199
172.204
172.209
172.214
172.218
172.223
172.228
172.233
172.238
172.243
172.248
172.253
172.258
172.262
172.267
172.272
172.277
172.282
172.287
172.292
172.297
172.302
172.307
172.312
172.317
172.322
172.327
172.332
172.337
172.342
172.347
172.352
172.357
172.362
172.367
172.373
172.378
172.384
172.389
172.395
172.401
172.407
172.413
172.419
172.426
172.432
172.44
172.447
172.455
172.464
172.473
172.483
172.493
172.505
172.517
172.529
172.543
172.558
172.575
172.594
172.613
172.636
172.663
172.693
172.728
172.767
172.813
172.865
172.921
172.987
173.063
173.151
173.252
173.368
173.502
173.656
173.833
174.038
174.273
174.545
174.859
175.223
175.643
176.128
176.686
177.326
178.061
178.909
179.89
181.027
182.344
183.872
185.643
187.691
190.046
192.733
195.666
92.6662
97.3939
101.543
105.003
107.824
110.129
112.034
113.627
114.97
116.106
117.071
117.889
118.585
119.179
119.689
120.128
120.507
120.836
121.122
121.371
121.586
121.773
121.934
122.071
122.187
122.291
122.388
122.475
122.555
122.626
122.689
122.738
122.78
122.818
122.851
122.88
122.906
122.929
122.949
122.967
122.983
122.998
123.011
123.023
123.035
123.045
123.054
123.063
123.072
123.079
123.087
123.094
123.101
123.107
123.113
123.119
123.125
123.131
123.137
123.142
123.148
123.153
123.158
123.164
123.169
123.174
123.179
123.184
123.189
123.194
123.199
123.204
123.209
123.214
123.219
123.224
123.229
123.234
123.239
123.244
123.249
123.253
123.258
123.263
123.268
123.273
123.278
123.283
123.288
123.293
123.298
123.302
123.307
123.312
123.317
123.322
123.327
123.332
123.337
123.341
123.346
123.351
123.356
123.361
123.366
123.371
123.376
123.381
123.385
123.39
123.395
123.4
123.405
123.41
123.415
123.42
123.424
123.429
123.434
123.439
123.444
123.449
123.454
123.459
123.464
123.469
123.474
123.478
123.483
123.488
123.493
123.498
123.503
123.508
123.513
123.518
123.524
123.529
123.534
123.539
123.544
123.55
123.555
123.561
123.566
123.572
123.578
123.584
123.59
123.596
123.603
123.61
123.617
123.624
123.632
123.64
123.649
123.659
123.671
123.683
123.697
123.712
123.729
123.748
123.77
123.792
123.818
123.847
123.879
123.916
123.958
124.005
124.059
124.121
124.192
124.273
124.367
124.475
124.599
124.742
124.908
125.099
125.321
125.578
125.874
126.22
126.622
127.09
127.623
128.232
128.941
129.771
130.742
131.881
133.222
134.804
136.676
138.88
141.451
144.276
47.048
51.9279
56.2341
59.5468
62.0506
64.0094
65.5971
66.915
68.023
68.9564
69.7399
70.3805
70.9179
71.3732
71.7597
72.0907
72.3774
72.6248
72.8403
73.0274
73.1893
73.328
73.4488
73.5424
73.6111
73.6812
73.7568
73.8283
73.9003
73.9621
74.0103
74.0538
74.0909
74.1216
74.1477
74.1705
74.1906
74.2084
74.2243
74.2386
74.2516
74.2634
74.2742
74.2842
74.2935
74.3022
74.3103
74.3179
74.3252
74.3321
74.3388
74.3452
74.3514
74.3574
74.3632
74.369
74.3746
74.38
74.3855
74.3908
74.3961
74.4013
74.4064
74.4116
74.4167
74.4217
74.4268
74.4318
74.4368
74.4418
74.4467
74.4517
74.4566
74.4616
74.4665
74.4714
74.4763
74.4812
74.4861
74.491
74.4959
74.5008
74.5057
74.5106
74.5155
74.5204
74.5253
74.5302
74.5351
74.5399
74.5448
74.5497
74.5546
74.5595
74.5644
74.5692
74.5741
74.579
74.5839
74.5888
74.5936
74.5985
74.6034
74.6083
74.6132
74.6181
74.6229
74.6278
74.6327
74.6376
74.6425
74.6473
74.6522
74.6571
74.662
74.6669
74.6718
74.6767
74.6816
74.6864
74.6913
74.6962
74.7011
74.706
74.7109
74.7158
74.7208
74.7257
74.7306
74.7355
74.7405
74.7454
74.7504
74.7554
74.7603
74.7653
74.7704
74.7754
74.7805
74.7856
74.7908
74.796
74.8012
74.8065
74.8119
74.8173
74.8229
74.8285
74.8343
74.8402
74.8463
74.8526
74.8591
74.8659
74.8729
74.8803
74.8881
74.8967
74.9059
74.9159
74.9267
74.9385
74.9513
74.9657
74.9815
74.9987
75.0177
75.039
75.063
75.09
75.1206
75.1552
75.1947
75.2398
75.2915
75.3509
75.4192
75.4979
75.5887
75.6936
75.8151
75.9561
76.12
76.3106
76.533
76.7955
77.1079
77.4753
77.8859
78.3429
78.8913
79.5425
80.3141
81.2344
82.3375
83.6731
85.3175
87.3444
89.8127
92.5673
14.4604
17.2214
19.4534
20.7178
21.5015
22.1059
22.6061
23.0237
23.374
23.6632
23.9289
24.1516
24.3452
24.5099
24.6528
24.7758
24.8848
24.9862
25.0812
25.1631
25.2375
25.3066
25.3694
25.422
25.4643
25.502
25.5347
25.5636
25.5878
25.6095
25.6295
25.6478
25.6644
25.6793
25.6928
25.7051
25.7164
25.7268
25.7364
25.7454
25.7538
25.7616
25.7691
25.7762
25.7829
25.7894
25.7957
25.8018
25.8077
25.8134
25.819
25.8246
25.83
25.8353
25.8406
25.8459
25.851
25.8562
25.8613
25.8663
25.8714
25.8764
25.8814
25.8864
25.8913
25.8963
25.9012
25.9062
25.9111
25.916
25.9209
25.9258
25.9307
25.9356
25.9405
25.9454
25.9503
25.9552
25.9601
25.965
25.9699
25.9747
25.9796
25.9845
25.9894
25.9943
25.9992
26.004
26.0089
26.0138
26.0187
26.0236
26.0284
26.0333
26.0382
26.0431
26.048
26.0528
26.0577
26.0626
26.0675
26.0724
26.0772
26.0821
26.087
26.0919
26.0968
26.1016
26.1065
26.1114
26.1163
26.1212
26.126
26.1309
26.1358
26.1407
26.1456
26.1504
26.1553
26.1602
26.1651
26.17
26.1749
26.1797
26.1846
26.1895
26.1944
26.1993
26.2042
26.2091
26.214
26.2189
26.2238
26.2287
26.2337
26.2386
26.2435
26.2485
26.2534
26.2584
26.2634
26.2684
26.2734
26.2785
26.2835
26.2887
26.2938
26.299
26.3043
26.3096
26.315
26.3205
26.3261
26.3318
26.3376
26.3436
26.3498
26.3563
26.363
26.37
26.3773
26.3851
26.3934
26.4022
26.4117
26.422
26.4332
26.4455
26.4589
26.4737
26.4902
26.5086
26.5293
26.5527
26.5791
26.6092
26.6436
26.6831
26.7286
26.7813
26.8425
26.9138
26.997
27.0946
27.2098
27.346
27.5077
27.6992
27.9262
28.1963
28.5214
28.9131
29.3865
29.9669
30.6839
31.5929
32.8142
34.5182
36.8705
39.6651
-0.552021
-0.546566
-0.54104
-0.533786
-0.525805
-0.517598
-0.509153
-0.500253
-0.490426
-0.478344
-0.459763
-0.41444
-0.359739
-0.306044
-0.251936
-0.201942
-0.156605
-0.109203
-0.0653221
-0.0259922
0.0111228
0.0481575
0.0820631
0.110938
0.136345
0.160044
0.181316
0.200593
0.217894
0.233465
0.247569
0.260403
0.272131
0.282898
0.292841
0.302177
0.310935
0.319143
0.326874
0.334198
0.341173
0.34785
0.35427
0.360471
0.366483
0.372333
0.378043
0.383635
0.389125
0.394527
0.399855
0.405119
0.410328
0.415491
0.420613
0.4257
0.430759
0.435791
0.440802
0.445794
0.45077
0.455733
0.460683
0.465624
0.470556
0.47548
0.480398
0.48531
0.490218
0.495122
0.500022
0.504919
0.509814
0.514707
0.519598
0.524487
0.529375
0.534262
0.539147
0.544032
0.548917
0.5538
0.558683
0.563566
0.568448
0.57333
0.578211
0.583092
0.587974
0.592854
0.597735
0.602616
0.607496
0.612377
0.617257
0.622137
0.627018
0.631898
0.636778
0.641658
0.646538
0.651418
0.656298
0.661179
0.666059
0.670939
0.675819
0.680699
0.68558
0.69046
0.69534
0.700221
0.705101
0.709982
0.714863
0.719744
0.724626
0.729507
0.734389
0.739271
0.744154
0.749037
0.753921
0.758805
0.76369
0.768576
0.773463
0.778351
0.783241
0.788132
0.793026
0.797921
0.802819
0.807721
0.812626
0.817535
0.822449
0.827369
0.832295
0.83723
0.842174
0.847129
0.852096
0.857078
0.862077
0.867097
0.87214
0.877212
0.882316
0.887458
0.892644
0.897882
0.903181
0.908551
0.914003
0.919551
0.925212
0.931003
0.936944
0.943061
0.949382
0.955945
0.962791
0.969966
0.977527
0.985543
0.99408
1.0032
1.01301
1.02362
1.03517
1.04785
1.06189
1.07749
1.09483
1.1142
1.13593
1.16046
1.18836
1.22025
1.25669
1.29836
1.34617
1.40127
1.46527
1.53958
1.62604
1.72664
1.84427
1.98238
2.14479
2.33646
2.5649
2.8357
3.16292
3.57123
4.10617
4.86072
5.92292
7.22437
-0.594567
-0.589327
-0.583562
-0.577021
-0.570007
-0.562738
-0.555291
-0.547624
-0.539635
-0.531927
-0.526315
-0.524316
-0.52141
-0.517439
-0.512872
-0.507733
-0.502226
-0.496798
-0.491314
-0.485757
-0.480279
-0.474954
-0.469691
-0.464422
-0.459151
-0.453912
-0.44867
-0.443389
-0.43809
-0.432803
-0.427534
-0.422284
-0.417057
-0.411857
-0.406683
-0.401529
-0.396399
-0.391299
-0.386224
-0.381174
-0.376143
-0.37113
-0.366133
-0.361149
-0.356177
-0.351216
-0.346265
-0.341322
-0.336387
-0.331458
-0.326536
-0.321619
-0.316706
-0.311798
-0.306893
-0.301991
-0.297091
-0.292194
-0.2873
-0.282407
-0.277516
-0.272626
-0.267738
-0.26285
-0.257964
-0.253079
-0.248194
-0.24331
-0.238427
-0.233544
-0.228662
-0.22378
-0.218898
-0.214017
-0.209136
-0.204255
-0.199374
-0.194494
-0.189614
-0.184733
-0.179853
-0.174973
-0.170093
-0.165213
-0.160333
-0.155454
-0.150574
-0.145694
-0.140815
-0.135935
-0.131056
-0.126176
-0.121296
-0.116417
-0.111537
-0.106658
-0.101778
-0.0968989
-0.0920194
-0.0871399
-0.0822604
-0.077381
-0.0725015
-0.067622
-0.0627425
-0.0578631
-0.0529836
-0.0481041
-0.0432246
-0.0383451
-0.0334656
-0.0285861
-0.0237066
-0.0188271
-0.0139475
-0.00906791
-0.00418831
0.000691321
0.00557099
0.0104507
0.0153304
0.0202102
0.0250901
0.02997
0.03485
0.0397301
0.0446103
0.0494906
0.0543711
0.0592517
0.0641325
0.0690136
0.0738949
0.0787764
0.0836583
0.0885406
0.0934233
0.0983066
0.10319
0.108075
0.11296
0.117846
0.122733
0.127622
0.132511
0.137402
0.142295
0.147189
0.152086
0.156985
0.161887
0.166792
0.171701
0.176613
0.18153
0.186452
0.19138
0.196314
0.201255
0.206204
0.211163
0.216131
0.22111
0.226102
0.231107
0.236127
0.241163
0.24622
0.251297
0.256399
0.261529
0.266693
0.271889
0.277127
0.28241
0.287743
0.293131
0.298581
0.304092
0.309662
0.315298
0.321006
0.326789
0.332651
0.338586
0.344604
0.350701
0.356881
0.363161
0.369548
0.376025
0.382675
0.38963
0.396746
0.403949
0.41119
0.418283
0.424203
0.428872
0.432747
-0.638099
-0.632878
-0.627253
-0.621156
-0.614691
-0.607999
-0.601187
-0.59437
-0.587692
-0.581541
-0.576526
-0.572365
-0.568096
-0.563377
-0.558318
-0.55291
-0.547298
-0.541698
-0.53608
-0.53047
-0.524926
-0.519465
-0.514065
-0.508702
-0.503381
-0.498095
-0.492829
-0.487573
-0.482324
-0.477087
-0.471865
-0.466661
-0.461477
-0.456317
-0.45118
-0.446067
-0.440978
-0.435912
-0.430866
-0.42584
-0.42083
-0.415835
-0.410853
-0.405882
-0.400922
-0.39597
-0.391027
-0.386092
-0.381163
-0.37624
-0.371322
-0.366409
-0.3615
-0.356594
-0.351692
-0.346792
-0.341895
-0.336999
-0.332106
-0.327215
-0.322324
-0.317436
-0.312548
-0.307662
-0.302776
-0.297891
-0.293007
-0.288124
-0.283241
-0.278358
-0.273476
-0.268595
-0.263713
-0.258832
-0.253951
-0.249071
-0.24419
-0.23931
-0.23443
-0.22955
-0.22467
-0.21979
-0.21491
-0.21003
-0.20515
-0.200271
-0.195391
-0.190511
-0.185632
-0.180752
-0.175873
-0.170993
-0.166114
-0.161234
-0.156355
-0.151476
-0.146596
-0.141717
-0.136837
-0.131958
-0.127079
-0.122199
-0.11732
-0.11244
-0.107561
-0.102682
-0.0978022
-0.0929228
-0.0880434
-0.083164
-0.0782845
-0.0734051
-0.0685257
-0.0636462
-0.0587667
-0.0538872
-0.0490077
-0.0441282
-0.0392486
-0.034369
-0.0294894
-0.0246097
-0.01973
-0.0148502
-0.00997029
-0.00509034
-0.000210293
0.00466986
0.00955014
0.0144306
0.0193111
0.0241919
0.0290729
0.0339542
0.0388357
0.0437176
0.0485998
0.0534825
0.0583657
0.0632494
0.0681339
0.073019
0.0779051
0.0827921
0.0876802
0.0925696
0.0974604
0.102353
0.107247
0.112143
0.117042
0.121943
0.126847
0.131754
0.136665
0.14158
0.1465
0.151424
0.156355
0.161292
0.166236
0.171188
0.176149
0.18112
0.186101
0.191093
0.196099
0.20112
0.206156
0.211209
0.216283
0.221379
0.226501
0.231652
0.236834
0.242051
0.247306
0.252602
0.257943
0.263329
0.268762
0.274245
0.279783
0.285382
0.291044
0.296773
0.30257
0.308436
0.314384
0.32041
0.326497
0.332658
0.338878
0.34512
0.351515
0.35782
0.363797
0.369861
0.375872
0.38144
-0.68231
-0.677131
-0.671641
-0.665822
-0.659729
-0.653458
-0.647099
-0.640765
-0.634565
-0.628662
-0.623196
-0.618066
-0.612948
-0.607684
-0.602264
-0.596708
-0.591087
-0.585469
-0.579866
-0.574303
-0.568795
-0.56335
-0.557956
-0.552606
-0.547296
-0.542019
-0.536765
-0.531532
-0.526315
-0.521112
-0.515924
-0.510752
-0.5056
-0.500471
-0.495365
-0.490281
-0.485217
-0.480173
-0.475147
-0.470138
-0.465143
-0.46016
-0.455188
-0.450226
-0.445273
-0.440329
-0.435392
-0.430461
-0.425537
-0.420618
-0.415703
-0.410793
-0.405886
-0.400983
-0.396082
-0.391184
-0.386288
-0.381394
-0.376502
-0.371611
-0.366722
-0.361834
-0.356947
-0.35206
-0.347175
-0.342291
-0.337407
-0.332523
-0.327641
-0.322758
-0.317876
-0.312995
-0.308113
-0.303232
-0.298351
-0.293471
-0.28859
-0.28371
-0.278829
-0.273949
-0.269069
-0.264189
-0.259309
-0.254429
-0.249549
-0.24467
-0.23979
-0.23491
-0.230031
-0.225151
-0.220271
-0.215392
-0.210512
-0.205632
-0.200753
-0.195873
-0.190994
-0.186114
-0.181234
-0.176355
-0.171475
-0.166596
-0.161716
-0.156837
-0.151957
-0.147078
-0.142198
-0.137319
-0.132439
-0.127559
-0.12268
-0.1178
-0.112921
-0.108041
-0.103161
-0.0982818
-0.0934022
-0.0885225
-0.0836428
-0.078763
-0.0738833
-0.0690035
-0.0641236
-0.0592437
-0.0543637
-0.0494836
-0.0446035
-0.0397233
-0.0348429
-0.0299624
-0.0250818
-0.020201
-0.01532
-0.0104388
-0.00555726
-0.000675468
0.00420668
0.00908922
0.0139722
0.0188558
0.0237399
0.0286247
0.0335103
0.0383968
0.0432843
0.0481729
0.0530628
0.0579542
0.0628472
0.067742
0.0726389
0.077538
0.0824398
0.0873444
0.0922523
0.0971637
0.102079
0.106999
0.111924
0.116855
0.121792
0.126737
0.13169
0.136651
0.141621
0.146602
0.151595
0.1566
0.161619
0.166651
0.171699
0.176765
0.181849
0.186955
0.192086
0.197242
0.202427
0.207641
0.212885
0.218161
0.223472
0.228821
0.234214
0.239655
0.245147
0.250692
0.256295
0.261966
0.26772
0.273498
0.279289
0.285147
0.291055
0.296985
0.302685
0.308196
0.313678
0.31912
0.324502
0.329728
-0.726846
-0.721734
-0.716368
-0.710759
-0.704954
-0.699011
-0.692999
-0.686993
-0.681074
-0.675317
-0.669764
-0.66437
-0.659017
-0.653624
-0.648171
-0.642666
-0.637142
-0.63163
-0.626144
-0.62069
-0.615281
-0.609916
-0.604593
-0.599302
-0.594043
-0.588811
-0.583601
-0.578412
-0.573239
-0.568079
-0.562933
-0.5578
-0.552686
-0.547594
-0.542522
-0.537468
-0.532431
-0.527409
-0.522403
-0.517411
-0.512431
-0.507461
-0.5025
-0.497548
-0.492604
-0.487668
-0.482737
-0.477813
-0.472894
-0.467979
-0.463069
-0.458162
-0.453259
-0.448358
-0.44346
-0.438564
-0.43367
-0.428777
-0.423886
-0.418997
-0.414109
-0.409221
-0.404335
-0.39945
-0.394565
-0.389681
-0.384797
-0.379915
-0.375032
-0.37015
-0.365268
-0.360387
-0.355506
-0.350625
-0.345744
-0.340863
-0.335982
-0.331102
-0.326222
-0.321342
-0.316461
-0.311581
-0.306701
-0.301821
-0.296941
-0.292062
-0.287182
-0.282302
-0.277422
-0.272542
-0.267663
-0.262783
-0.257903
-0.253024
-0.248144
-0.243264
-0.238385
-0.233505
-0.228625
-0.223746
-0.218866
-0.213986
-0.209107
-0.204227
-0.199348
-0.194468
-0.189588
-0.184709
-0.179829
-0.174949
-0.17007
-0.16519
-0.16031
-0.155431
-0.150551
-0.145671
-0.140791
-0.135912
-0.131032
-0.126152
-0.121272
-0.116392
-0.111512
-0.106632
-0.101752
-0.0968724
-0.0919922
-0.087112
-0.0822316
-0.0773512
-0.0724706
-0.0675898
-0.0627089
-0.0578278
-0.0529464
-0.0480648
-0.0431829
-0.0383006
-0.0334179
-0.0285348
-0.0236511
-0.0187669
-0.0138819
-0.00899621
-0.00410961
0.000777985
0.0056667
0.0105567
0.0154481
0.0203411
0.0252359
0.0301326
0.0350316
0.0399331
0.0448374
0.0497447
0.0546554
0.0595699
0.0644887
0.0694126
0.0743424
0.0792788
0.0842222
0.0891734
0.0941328
0.0991014
0.104081
0.109072
0.114073
0.119086
0.124111
0.129149
0.134204
0.139277
0.144369
0.149482
0.154618
0.159775
0.164955
0.170158
0.175392
0.180656
0.185951
0.191271
0.196627
0.202023
0.207461
0.212936
0.218435
0.224013
0.229659
0.235311
0.240961
0.246579
0.252108
0.257555
0.262929
0.268199
0.273377
0.278455
-0.771635
-0.766568
-0.761308
-0.755871
-0.750293
-0.744616
-0.738879
-0.73313
-0.727421
-0.7218
-0.716285
-0.710857
-0.705468
-0.700078
-0.694675
-0.689259
-0.683843
-0.678443
-0.673066
-0.667716
-0.662399
-0.657113
-0.651857
-0.646626
-0.641419
-0.636232
-0.631063
-0.62591
-0.620777
-0.615667
-0.610577
-0.605508
-0.600452
-0.595406
-0.590372
-0.58535
-0.580342
-0.575345
-0.570359
-0.565382
-0.560415
-0.555457
-0.550507
-0.545566
-0.540631
-0.535702
-0.530779
-0.525861
-0.520948
-0.516039
-0.511133
-0.50623
-0.50133
-0.496432
-0.491536
-0.486642
-0.48175
-0.47686
-0.47197
-0.467082
-0.462195
-0.457309
-0.452423
-0.447539
-0.442655
-0.437771
-0.432888
-0.428006
-0.423123
-0.418242
-0.41336
-0.408479
-0.403598
-0.398717
-0.393836
-0.388955
-0.384075
-0.379195
-0.374314
-0.369434
-0.364554
-0.359674
-0.354794
-0.349914
-0.345034
-0.340154
-0.335274
-0.330394
-0.325514
-0.320635
-0.315755
-0.310875
-0.305995
-0.301116
-0.296236
-0.291356
-0.286476
-0.281597
-0.276717
-0.271837
-0.266957
-0.262078
-0.257198
-0.252318
-0.247438
-0.242559
-0.237679
-0.232799
-0.22792
-0.22304
-0.21816
-0.21328
-0.208401
-0.203521
-0.198641
-0.193761
-0.188881
-0.184002
-0.179122
-0.174242
-0.169362
-0.164482
-0.159602
-0.154722
-0.149842
-0.144962
-0.140082
-0.135202
-0.130321
-0.125441
-0.12056
-0.11568
-0.110799
-0.105918
-0.101037
-0.0961553
-0.0912737
-0.0863917
-0.0815094
-0.0766267
-0.0717436
-0.0668599
-0.0619757
-0.0570908
-0.0522052
-0.0473187
-0.0424313
-0.0375428
-0.0326532
-0.0277621
-0.0228696
-0.0179753
-0.0130792
-0.00818099
-0.00328046
0.00162266
0.00652861
0.0114377
0.0163502
0.0212669
0.0261889
0.0311167
0.0360506
0.0409911
0.0459389
0.0508954
0.0558617
0.0608379
0.0658229
0.0708154
0.0758178
0.0808322
0.0858612
0.0909068
0.0959683
0.101048
0.106146
0.111263
0.116399
0.121537
0.126708
0.131905
0.137131
0.142392
0.147681
0.153
0.158347
0.163722
0.169125
0.174564
0.18003
0.185501
0.19096
0.196384
0.201749
0.207046
0.212271
0.217411
0.222467
0.227478
-0.816577
-0.811552
-0.806388
-0.801098
-0.795707
-0.790241
-0.784728
-0.7792
-0.773688
-0.768221
-0.762811
-0.757449
-0.752118
-0.7468
-0.741485
-0.736175
-0.730872
-0.725583
-0.720314
-0.715066
-0.70984
-0.704636
-0.699454
-0.694292
-0.689148
-0.68402
-0.678908
-0.67381
-0.668729
-0.663666
-0.65862
-0.653589
-0.64857
-0.64356
-0.638559
-0.633568
-0.628586
-0.623614
-0.618649
-0.613692
-0.608742
-0.603799
-0.598863
-0.593933
-0.589009
-0.584089
-0.579175
-0.574264
-0.569356
-0.564452
-0.559551
-0.554652
-0.549756
-0.544861
-0.539968
-0.535077
-0.530187
-0.525298
-0.52041
-0.515524
-0.510638
-0.505753
-0.500868
-0.495984
-0.491101
-0.486218
-0.481335
-0.476453
-0.471571
-0.46669
-0.461809
-0.456927
-0.452047
-0.447166
-0.442285
-0.437405
-0.432524
-0.427644
-0.422763
-0.417883
-0.413003
-0.408123
-0.403243
-0.398363
-0.393483
-0.388603
-0.383723
-0.378843
-0.373963
-0.369083
-0.364203
-0.359324
-0.354444
-0.349564
-0.344684
-0.339804
-0.334924
-0.330045
-0.325165
-0.320285
-0.315405
-0.310525
-0.305646
-0.300766
-0.295886
-0.291006
-0.286126
-0.281247
-0.276367
-0.271487
-0.266607
-0.261727
-0.256847
-0.251968
-0.247088
-0.242208
-0.237328
-0.232448
-0.227568
-0.222688
-0.217808
-0.212928
-0.208048
-0.203168
-0.198288
-0.193408
-0.188528
-0.183648
-0.178768
-0.173887
-0.169007
-0.164126
-0.159245
-0.154365
-0.149484
-0.144602
-0.139721
-0.134839
-0.129957
-0.125075
-0.120193
-0.11531
-0.110426
-0.105542
-0.100657
-0.095772
-0.0908858
-0.0859988
-0.0811107
-0.0762215
-0.0713311
-0.0664391
-0.0615456
-0.0566502
-0.0517528
-0.0468531
-0.0419507
-0.0370454
-0.0321368
-0.0272247
-0.0223098
-0.0173914
-0.0124689
-0.00754157
-0.00260902
0.00232882
0.00727106
0.0122184
0.0171735
0.0221391
0.0271141
0.0321
0.0371002
0.0421123
0.0471356
0.0521733