/*--------------------------------*- C++ -*----------------------------------*\
| =========                 |                                                 |
| \\      /  F ield         | OpenFOAM: The Open Source CFD Toolbox           |
|  \\    /   O peration     | Version:  2312                                  |
|   \\  /    A nd           | Website:  www.openfoam.com                      |
|    \\/     M anipulation  |                                                 |
\*---------------------------------------------------------------------------*/
FoamFile
{
    version     2.0;
    format      ascii;
    arch        "LSB;label=32;scalar=64";
    class       surfaceScalarField;
    location    "0.05";
    object      phi;
}
// * * * * * * * * * * * * * * * * * * * * * * * * * * * * * * * * * * * * * //

dimensions      [0 3 -1 0 0 0 0];

oriented        oriented;

internalField   nonuniform List<scalar> 
231600
(
1.13109e-07
-1.16163e-07
3.05393e-09
2.25868e-07
-1.15808e-07
3.04729e-09
3.33258e-07
-1.1044e-07
3.04858e-09
4.34273e-07
-1.04071e-07
3.05554e-09
5.27718e-07
-9.651e-08
3.06608e-09
6.12901e-07
-8.82613e-08
3.07752e-09
6.89611e-07
-7.9799e-08
3.0873e-09
7.58013e-07
-7.14954e-08
3.09477e-09
8.18526e-07
-6.36107e-08
3.10003e-09
8.7172e-07
-5.63011e-08
3.10261e-09
9.18252e-07
-4.964e-08
3.102e-09
9.58805e-07
-4.36515e-08
3.09833e-09
9.94042e-07
-3.83257e-08
3.09093e-09
1.02459e-06
-3.36277e-08
3.08091e-09
1.05102e-06
-2.95051e-08
3.06992e-09
1.07386e-06
-2.59024e-08
3.05922e-09
1.09358e-06
-2.27674e-08
3.04854e-09
1.11059e-06
-2.0047e-08
3.03813e-09
1.12525e-06
-1.76892e-08
3.02869e-09
1.13788e-06
-1.5649e-08
3.02028e-09
1.14875e-06
-1.38866e-08
3.01276e-09
1.15811e-06
-1.23655e-08
3.00619e-09
1.16616e-06
-1.10537e-08
3.00075e-09
1.17309e-06
-9.92374e-09
2.99641e-09
1.17905e-06
-8.9519e-09
2.9931e-09
1.18418e-06
-8.11694e-09
2.99067e-09
1.18859e-06
-7.40007e-09
2.98901e-09
1.19238e-06
-6.78468e-09
2.98803e-09
1.19565e-06
-6.25627e-09
2.98762e-09
1.19847e-06
-5.80221e-09
2.98763e-09
1.20089e-06
-5.4116e-09
2.98791e-09
1.20298e-06
-5.07522e-09
2.98836e-09
1.20477e-06
-4.78534e-09
2.98889e-09
1.20632e-06
-4.53553e-09
2.9894e-09
1.20765e-06
-4.32033e-09
2.98982e-09
1.20879e-06
-4.13497e-09
2.99014e-09
1.20978e-06
-3.97532e-09
2.99039e-09
1.21063e-06
-3.8378e-09
2.99062e-09
1.21135e-06
-3.71938e-09
2.99082e-09
1.21198e-06
-3.61745e-09
2.99097e-09
1.21252e-06
-3.52975e-09
2.99104e-09
1.21298e-06
-3.45432e-09
2.99106e-09
1.21338e-06
-3.38943e-09
2.99113e-09
1.21372e-06
-3.3336e-09
2.99119e-09
1.21402e-06
-3.28557e-09
2.99115e-09
1.21427e-06
-3.24423e-09
2.991e-09
1.21449e-06
-3.20867e-09
2.99092e-09
1.21468e-06
-3.17806e-09
2.99087e-09
1.21484e-06
-3.15171e-09
2.99076e-09
1.21498e-06
-3.12903e-09
2.99064e-09
1.2151e-06
-3.10953e-09
2.99058e-09
1.2152e-06
-3.09278e-09
2.99058e-09
1.21529e-06
-3.07839e-09
2.9906e-09
1.21537e-06
-3.06605e-09
2.99066e-09
1.21543e-06
-3.05544e-09
2.99071e-09
1.21549e-06
-3.04633e-09
2.99074e-09
1.21553e-06
-3.0385e-09
2.99076e-09
1.21558e-06
-3.03177e-09
2.99079e-09
1.21561e-06
-3.02599e-09
2.9908e-09
1.21564e-06
-3.02102e-09
2.99082e-09
1.21567e-06
-3.01675e-09
2.99083e-09
1.21569e-06
-3.01309e-09
2.99084e-09
1.21571e-06
-3.00994e-09
2.99085e-09
1.21573e-06
-3.00724e-09
2.99085e-09
1.21574e-06
-3.00491e-09
2.99086e-09
1.21575e-06
-3.00292e-09
2.99086e-09
1.21576e-06
-3.0012e-09
2.99086e-09
1.21577e-06
-2.99973e-09
2.99086e-09
1.21578e-06
-2.99847e-09
2.99086e-09
1.21579e-06
-2.99738e-09
2.99086e-09
1.21579e-06
-2.99645e-09
2.99086e-09
1.2158e-06
-2.99565e-09
2.99086e-09
1.2158e-06
-2.99496e-09
2.99086e-09
1.2158e-06
-2.99437e-09
2.99086e-09
1.21581e-06
-2.99386e-09
2.99086e-09
1.21581e-06
-2.99343e-09
2.99086e-09
1.21581e-06
-2.99305e-09
2.99085e-09
1.21581e-06
-2.99273e-09
2.99085e-09
1.21582e-06
-2.99245e-09
2.99085e-09
1.21582e-06
-2.99222e-09
2.99085e-09
1.21582e-06
-2.99201e-09
2.99084e-09
1.21582e-06
-2.99183e-09
2.99084e-09
1.21582e-06
-2.99168e-09
2.99084e-09
1.21582e-06
-2.99155e-09
2.99083e-09
1.21582e-06
-2.99144e-09
2.99083e-09
1.21582e-06
-2.99134e-09
2.99083e-09
1.21582e-06
-2.99126e-09
2.99082e-09
1.21582e-06
-2.99118e-09
2.99082e-09
1.21582e-06
-2.99112e-09
2.99082e-09
1.21582e-06
-2.99106e-09
2.99081e-09
1.21582e-06
-2.99101e-09
2.99081e-09
1.21582e-06
-2.99097e-09
2.9908e-09
1.21582e-06
-2.99093e-09
2.9908e-09
1.21582e-06
-2.9909e-09
2.9908e-09
1.21582e-06
-2.99087e-09
2.99079e-09
1.21583e-06
-2.99084e-09
2.99079e-09
1.21583e-06
-2.99082e-09
2.99079e-09
1.21583e-06
-2.9908e-09
2.99078e-09
1.21583e-06
-2.99077e-09
2.99078e-09
1.21583e-06
-2.99075e-09
2.99077e-09
1.21583e-06
-2.99073e-09
2.99077e-09
1.21583e-06
-2.99071e-09
2.99077e-09
1.21583e-06
-2.9907e-09
2.99076e-09
1.21583e-06
-2.99068e-09
2.99076e-09
1.21583e-06
-2.99065e-09
2.99076e-09
1.21583e-06
-2.99063e-09
2.99075e-09
1.21583e-06
-2.99061e-09
2.99075e-09
1.21582e-06
-2.99058e-09
2.99074e-09
1.21582e-06
-2.99055e-09
2.99074e-09
1.21582e-06
-2.99052e-09
2.99074e-09
1.21582e-06
-2.99049e-09
2.99073e-09
1.21582e-06
-2.99045e-09
2.99073e-09
1.21582e-06
-2.9904e-09
2.99073e-09
1.21582e-06
-2.99035e-09
2.99072e-09
1.21582e-06
-2.99029e-09
2.99072e-09
1.21582e-06
-2.99022e-09
2.99071e-09
1.21582e-06
-2.99014e-09
2.99071e-09
1.21582e-06
-2.99004e-09
2.99071e-09
1.21582e-06
-2.98994e-09
2.9907e-09
1.21582e-06
-2.98981e-09
2.9907e-09
1.21582e-06
-2.98967e-09
2.9907e-09
1.21582e-06
-2.9895e-09
2.9907e-09
1.21582e-06
-2.98931e-09
2.99069e-09
1.21582e-06
-2.98908e-09
2.99069e-09
1.21581e-06
-2.98882e-09
2.99069e-09
1.21581e-06
-2.98851e-09
2.99069e-09
1.21581e-06
-2.98816e-09
2.99069e-09
1.21581e-06
-2.98775e-09
2.99069e-09
1.2158e-06
-2.98727e-09
2.99069e-09
1.2158e-06
-2.98671e-09
2.99069e-09
1.21579e-06
-2.98606e-09
2.9907e-09
1.21579e-06
-2.9853e-09
2.9907e-09
1.21578e-06
-2.98441e-09
2.99071e-09
1.21577e-06
-2.98338e-09
2.99071e-09
1.21577e-06
-2.98218e-09
2.99072e-09
1.21576e-06
-2.98078e-09
2.99073e-09
1.21574e-06
-2.97915e-09
2.99074e-09
1.21573e-06
-2.97725e-09
2.99075e-09
1.21572e-06
-2.97503e-09
2.99076e-09
1.2157e-06
-2.97244e-09
2.99078e-09
1.21568e-06
-2.96942e-09
2.9908e-09
1.21565e-06
-2.9659e-09
2.99082e-09
1.21562e-06
-2.9618e-09
2.99084e-09
1.21559e-06
-2.95701e-09
2.99087e-09
1.21555e-06
-2.95144e-09
2.99091e-09
1.2155e-06
-2.94493e-09
2.99094e-09
1.21545e-06
-2.93734e-09
2.99099e-09
1.21539e-06
-2.9285e-09
2.99105e-09
1.21531e-06
-2.9182e-09
2.99111e-09
1.21523e-06
-2.90621e-09
2.99117e-09
1.21513e-06
-2.89226e-09
2.99123e-09
1.21501e-06
-2.87607e-09
2.99128e-09
1.21488e-06
-2.85726e-09
2.99132e-09
1.21472e-06
-2.83541e-09
2.99132e-09
1.21454e-06
-2.81003e-09
2.99129e-09
1.21432e-06
-2.78051e-09
2.99121e-09
1.21408e-06
-2.74614e-09
2.99105e-09
1.21379e-06
-2.70609e-09
2.9908e-09
1.21346e-06
-2.65944e-09
2.99043e-09
1.21308e-06
-2.6051e-09
2.98993e-09
1.21263e-06
-2.54178e-09
2.9893e-09
1.21211e-06
-2.46794e-09
2.98854e-09
1.21151e-06
-2.3818e-09
2.98764e-09
1.21081e-06
-2.28132e-09
2.98664e-09
1.20999e-06
-2.16417e-09
2.98559e-09
1.20904e-06
-2.02769e-09
2.98452e-09
1.20794e-06
-1.86885e-09
2.98342e-09
1.20665e-06
-1.68416e-09
2.98223e-09
1.20514e-06
-1.46945e-09
2.98078e-09
1.20339e-06
-1.21992e-09
2.97887e-09
1.20134e-06
-9.30158e-10
2.97659e-09
1.19897e-06
-5.93677e-10
2.97342e-09
1.1962e-06
-2.02479e-10
2.96909e-09
1.19298e-06
2.54342e-10
2.96301e-09
1.18923e-06
7.81798e-10
2.9601e-09
1.18488e-06
1.39332e-09
2.9625e-09
1.17982e-06
2.09905e-09
2.96303e-09
1.17394e-06
2.91647e-09
2.96162e-09
1.16713e-06
3.85686e-09
2.95942e-09
1.15923e-06
4.9443e-09
2.95734e-09
1.15007e-06
6.20393e-09
2.95584e-09
1.13944e-06
7.66369e-09
2.95488e-09
1.12713e-06
9.35402e-09
2.95423e-09
1.11287e-06
1.13066e-08
2.95301e-09
1.09637e-06
1.35546e-08
2.95073e-09
1.07729e-06
1.61338e-08
2.94679e-09
1.05527e-06
1.90863e-08
2.94005e-09
1.02988e-06
2.24571e-08
2.93221e-09
1.00067e-06
2.62919e-08
2.92381e-09
9.67124e-07
3.06311e-08
2.91479e-09
9.28714e-07
3.55057e-08
2.90542e-09
8.84889e-07
4.09327e-08
2.8957e-09
8.35103e-07
4.69043e-08
2.88546e-09
7.78854e-07
5.33765e-08
2.87442e-09
7.15728e-07
6.02625e-08
2.86339e-09
6.45444e-07
6.7428e-08
2.85544e-09
5.67912e-07
7.46738e-08
2.85475e-09
4.83314e-07
8.1726e-08
2.86643e-09
3.92255e-07
8.81753e-08
2.89661e-09
9.41816e-08
2.97412e-09
1.15605e-07
-2.3456e-07
2.78987e-09
2.30869e-07
-2.33859e-07
2.78716e-09
3.40248e-07
-2.22616e-07
2.79883e-09
4.42702e-07
-2.09344e-07
2.81778e-09
5.37039e-07
-1.93688e-07
2.84094e-09
6.22633e-07
-1.76717e-07
2.86516e-09
6.9937e-07
-1.59422e-07
2.88648e-09
7.6752e-07
-1.42555e-07
2.90141e-09
8.27606e-07
-1.26614e-07
2.91228e-09
8.80282e-07
-1.11893e-07
2.9192e-09
9.26256e-07
-9.85323e-08
2.92122e-09
9.66244e-07
-8.65613e-08
2.91874e-09
1.00094e-06
-7.59362e-08
2.91305e-09
1.03097e-06
-6.65731e-08
2.90468e-09
1.05694e-06
-5.83692e-08
2.89464e-09
1.07937e-06
-5.12129e-08
2.88363e-09
1.09872e-06
-4.49901e-08
2.87257e-09
1.1154e-06
-3.95908e-08
2.86207e-09
1.12977e-06
-3.49147e-08
2.85243e-09
1.14215e-06
-3.08711e-08
2.84351e-09
1.1528e-06
-2.73781e-08
2.83553e-09
1.16197e-06
-2.43632e-08
2.82874e-09
1.16986e-06
-2.17638e-08
2.82315e-09
1.17665e-06
-1.95259e-08
2.81869e-09
1.18248e-06
-1.76017e-08
2.8153e-09
1.1875e-06
-1.59488e-08
2.81286e-09
1.19182e-06
-1.453e-08
2.81131e-09
1.19554e-06
-1.33125e-08
2.81051e-09
1.19874e-06
-1.22675e-08
2.81034e-09
1.20149e-06
-1.13696e-08
2.81062e-09
1.20387e-06
-1.05972e-08
2.81117e-09
1.20591e-06
-9.9318e-09
2.81182e-09
1.20767e-06
-9.35828e-09
2.81245e-09
1.20919e-06
-8.86392e-09
2.81299e-09
1.21049e-06
-8.4379e-09
2.81342e-09
1.21161e-06
-8.07084e-09
2.81374e-09
1.21257e-06
-7.7546e-09
2.81398e-09
1.2134e-06
-7.48218e-09
2.81421e-09
1.21412e-06
-7.24759e-09
2.81442e-09
1.21473e-06
-7.04564e-09
2.81456e-09
1.21526e-06
-6.87186e-09
2.81459e-09
1.21571e-06
-6.72236e-09
2.81461e-09
1.2161e-06
-6.59377e-09
2.81469e-09
1.21643e-06
-6.48317e-09
2.81476e-09
1.21672e-06
-6.38797e-09
2.8147e-09
1.21697e-06
-6.30605e-09
2.81449e-09
1.21719e-06
-6.23568e-09
2.81442e-09
1.21737e-06
-6.17525e-09
2.81447e-09
1.21753e-06
-6.1233e-09
2.81453e-09
1.21767e-06
-6.07863e-09
2.81461e-09
1.21778e-06
-6.04021e-09
2.81467e-09
1.21788e-06
-6.00717e-09
2.81471e-09
1.21797e-06
-5.97877e-09
2.81474e-09
1.21804e-06
-5.95436e-09
2.81476e-09
1.21811e-06
-5.93339e-09
2.81479e-09
1.21816e-06
-5.91539e-09
2.81482e-09
1.21821e-06
-5.89992e-09
2.81485e-09
1.21825e-06
-5.88664e-09
2.81489e-09
1.21828e-06
-5.87523e-09
2.81491e-09
1.21831e-06
-5.86542e-09
2.81493e-09
1.21834e-06
-5.857e-09
2.81495e-09
1.21836e-06
-5.84976e-09
2.81496e-09
1.21838e-06
-5.84354e-09
2.81497e-09
1.2184e-06
-5.8382e-09
2.81498e-09
1.21841e-06
-5.83361e-09
2.81498e-09
1.21842e-06
-5.82967e-09
2.81498e-09
1.21843e-06
-5.82628e-09
2.81498e-09
1.21844e-06
-5.82337e-09
2.81498e-09
1.21845e-06
-5.82087e-09
2.81498e-09
1.21846e-06
-5.81872e-09
2.81498e-09
1.21846e-06
-5.81688e-09
2.81498e-09
1.21847e-06
-5.81529e-09
2.81497e-09
1.21847e-06
-5.81393e-09
2.81497e-09
1.21847e-06
-5.81276e-09
2.81497e-09
1.21848e-06
-5.81176e-09
2.81496e-09
1.21848e-06
-5.81089e-09
2.81496e-09
1.21848e-06
-5.81015e-09
2.81495e-09
1.21848e-06
-5.80951e-09
2.81495e-09
1.21848e-06
-5.80896e-09
2.81494e-09
1.21849e-06
-5.80849e-09
2.81493e-09
1.21849e-06
-5.80808e-09
2.81493e-09
1.21849e-06
-5.80772e-09
2.81492e-09
1.21849e-06
-5.80742e-09
2.81492e-09
1.21849e-06
-5.80716e-09
2.81491e-09
1.21849e-06
-5.80693e-09
2.8149e-09
1.21849e-06
-5.80673e-09
2.8149e-09
1.21849e-06
-5.80656e-09
2.81489e-09
1.21849e-06
-5.80641e-09
2.81488e-09
1.21849e-06
-5.80628e-09
2.81487e-09
1.21849e-06
-5.80617e-09
2.81487e-09
1.21849e-06
-5.80607e-09
2.81486e-09
1.21849e-06
-5.80598e-09
2.81485e-09
1.21849e-06
-5.8059e-09
2.81485e-09
1.21849e-06
-5.80583e-09
2.81484e-09
1.21849e-06
-5.80576e-09
2.81483e-09
1.21849e-06
-5.80571e-09
2.81482e-09
1.21849e-06
-5.80565e-09
2.81482e-09
1.21849e-06
-5.8056e-09
2.81481e-09
1.21849e-06
-5.80556e-09
2.8148e-09
1.21849e-06
-5.80551e-09
2.8148e-09
1.21849e-06
-5.80547e-09
2.81479e-09
1.21849e-06
-5.80543e-09
2.81478e-09
1.21849e-06
-5.80538e-09
2.81477e-09
1.21849e-06
-5.80534e-09
2.81477e-09
1.21849e-06
-5.8053e-09
2.81476e-09
1.21849e-06
-5.80525e-09
2.81475e-09
1.21849e-06
-5.8052e-09
2.81475e-09
1.21849e-06
-5.80514e-09
2.81474e-09
1.21849e-06
-5.80508e-09
2.81473e-09
1.21849e-06
-5.80501e-09
2.81472e-09
1.21849e-06
-5.80494e-09
2.81472e-09
1.21849e-06
-5.80485e-09
2.81471e-09
1.21849e-06
-5.80476e-09
2.8147e-09
1.21849e-06
-5.80465e-09
2.8147e-09
1.21849e-06
-5.80452e-09
2.81469e-09
1.21849e-06
-5.80438e-09
2.81468e-09
1.21849e-06
-5.80422e-09
2.81468e-09
1.21849e-06
-5.80403e-09
2.81467e-09
1.21849e-06
-5.80382e-09
2.81466e-09
1.21849e-06
-5.80357e-09
2.81466e-09
1.21849e-06
-5.80328e-09
2.81465e-09
1.21849e-06
-5.80295e-09
2.81465e-09
1.21849e-06
-5.80256e-09
2.81464e-09
1.21848e-06
-5.80211e-09
2.81464e-09
1.21848e-06
-5.80159e-09
2.81463e-09
1.21848e-06
-5.80098e-09
2.81463e-09
1.21848e-06
-5.80028e-09
2.81462e-09
1.21847e-06
-5.79946e-09
2.81462e-09
1.21847e-06
-5.7985e-09
2.81462e-09
1.21847e-06
-5.79739e-09
2.81461e-09
1.21846e-06
-5.7961e-09
2.81461e-09
1.21846e-06
-5.79459e-09
2.81461e-09
1.21845e-06
-5.79284e-09
2.81461e-09
1.21844e-06
-5.7908e-09
2.81461e-09
1.21844e-06
-5.78842e-09
2.81461e-09
1.21843e-06
-5.78565e-09
2.81461e-09
1.21842e-06
-5.78242e-09
2.81461e-09
1.2184e-06
-5.77866e-09
2.81462e-09
1.21839e-06
-5.77427e-09
2.81463e-09
1.21837e-06
-5.76916e-09
2.81464e-09
1.21835e-06
-5.76321e-09
2.81465e-09
1.21832e-06
-5.75628e-09
2.81467e-09
1.21829e-06
-5.7482e-09
2.8147e-09
1.21826e-06
-5.73879e-09
2.81473e-09
1.21822e-06
-5.72781e-09
2.81477e-09
1.21818e-06
-5.71502e-09
2.81482e-09
1.21812e-06
-5.70011e-09
2.81488e-09
1.21806e-06
-5.68272e-09
2.81495e-09
1.21799e-06
-5.66246e-09
2.81504e-09
1.21791e-06
-5.63885e-09
2.81513e-09
1.21781e-06
-5.61137e-09
2.81523e-09
1.2177e-06
-5.57942e-09
2.81533e-09
1.21756e-06
-5.54227e-09
2.81541e-09
1.21741e-06
-5.49908e-09
2.81548e-09
1.21723e-06
-5.44882e-09
2.81551e-09
1.21702e-06
-5.39028e-09
2.8155e-09
1.21678e-06
-5.32202e-09
2.81541e-09
1.2165e-06
-5.24239e-09
2.81523e-09
1.21618e-06
-5.14955e-09
2.81493e-09
1.2158e-06
-5.04139e-09
2.81448e-09
1.21537e-06
-4.91534e-09
2.81389e-09
1.21486e-06
-4.76838e-09
2.81314e-09
1.21427e-06
-4.59698e-09
2.81221e-09
1.21358e-06
-4.39714e-09
2.81113e-09
1.21279e-06
-4.16441e-09
2.80994e-09
1.21186e-06
-3.89375e-09
2.80869e-09
1.21077e-06
-3.57938e-09
2.80739e-09
1.20951e-06
-3.2145e-09
2.8059e-09
1.20804e-06
-2.79084e-09
2.80413e-09
1.20632e-06
-2.29851e-09
2.80205e-09
1.20432e-06
-1.72638e-09
2.79941e-09
1.20199e-06
-1.06182e-09
2.79605e-09
1.19928e-06
-2.88878e-10
2.79181e-09
1.19613e-06
6.11772e-10
2.78573e-09
1.19249e-06
1.64752e-09
2.77273e-09
1.18829e-06
2.82111e-09
2.78153e-09
1.18342e-06
4.19117e-09
2.78478e-09
1.17777e-06
5.78816e-09
2.78351e-09
1.17121e-06
7.63173e-09
2.78066e-09
1.16361e-06
9.76837e-09
2.77846e-09
1.15478e-06
1.22467e-08
2.77649e-09
1.14454e-06
1.51207e-08
2.77538e-09
1.13267e-06
1.84494e-08
2.77495e-09
1.11891e-06
2.22944e-08
2.7743e-09
1.10297e-06
2.67226e-08
2.7717e-09
1.08454e-06
3.18094e-08
2.76708e-09
1.06323e-06
3.76432e-08
2.76113e-09
1.03862e-06
4.43188e-08
2.75379e-09
1.01023e-06
5.19328e-08
2.74565e-09
9.77557e-07
6.05729e-08
2.73673e-09
9.40028e-07
7.03113e-08
2.72745e-09
8.97053e-07
8.11941e-08
2.71798e-09
8.4803e-07
9.32223e-08
2.70766e-09
7.9238e-07
1.0633e-07
2.69633e-09
7.2959e-07
1.20366e-07
2.68453e-09
6.59268e-07
1.35077e-07
2.67589e-09
5.81208e-07
1.50064e-07
2.67587e-09
4.95449e-07
1.64784e-07
2.69498e-09
4.02294e-07
1.7856e-07
2.73231e-09
1.91322e-07
2.83341e-09
1.20369e-07
-3.57124e-07
2.19502e-09
2.40323e-07
-3.56013e-07
2.20093e-09
3.53304e-07
-3.3783e-07
2.23632e-09
4.5821e-07
-3.16533e-07
2.28289e-09
5.53863e-07
-2.91678e-07
2.33187e-09
6.39799e-07
-2.65038e-07
2.38064e-09
7.16143e-07
-2.38187e-07
2.4252e-09
7.83397e-07
-2.12263e-07
2.45977e-09
8.42285e-07
-1.87983e-07
2.48333e-09
8.9362e-07
-1.65725e-07
2.4984e-09
9.38218e-07
-1.45641e-07
2.50608e-09
9.76869e-07
-1.27724e-07
2.50828e-09
1.01031e-06
-1.11877e-07
2.50585e-09
1.03919e-06
-9.7955e-08
2.49912e-09
1.06412e-06
-8.57859e-08
2.48931e-09
1.08561e-06
-7.51872e-08
2.47829e-09
1.10414e-06
-6.5982e-08
2.46703e-09
1.1201e-06
-5.80046e-08
2.45597e-09
1.13384e-06
-5.11019e-08
2.44538e-09
1.14566e-06
-4.51355e-08
2.43569e-09
1.15584e-06
-3.99824e-08
2.42711e-09
1.16459e-06
-3.55359e-08
2.41975e-09
1.17212e-06
-3.17036e-08
2.41366e-09
1.17859e-06
-2.84054e-08
2.40885e-09
1.18415e-06
-2.55704e-08
2.40531e-09
1.18894e-06
-2.31365e-08
2.40297e-09
1.19306e-06
-2.10488e-08
2.4017e-09
1.1966e-06
-1.92585e-08
2.40136e-09
1.19965e-06
-1.77229e-08
2.40176e-09
1.20229e-06
-1.64038e-08
2.40271e-09
1.20455e-06
-1.52686e-08
2.4039e-09
1.20651e-06
-1.42899e-08
2.40501e-09
1.20819e-06
-1.34457e-08
2.4059e-09
1.20963e-06
-1.27178e-08
2.4066e-09
1.21088e-06
-1.20903e-08
2.40714e-09
1.21195e-06
-1.15495e-08
2.40751e-09
1.21287e-06
-1.10837e-08
2.4078e-09
1.21366e-06
-1.06824e-08
2.40807e-09
1.21434e-06
-1.0337e-08
2.40832e-09
1.21492e-06
-1.00396e-08
2.40848e-09
1.21542e-06
-9.78371e-09
2.40848e-09
1.21586e-06
-9.56358e-09
2.40852e-09
1.21623e-06
-9.37425e-09
2.40853e-09
1.21655e-06
-9.21145e-09
2.40855e-09
1.21682e-06
-9.07145e-09
2.40867e-09
1.21706e-06
-8.95109e-09
2.40888e-09
1.21727e-06
-8.84761e-09
2.40891e-09
1.21744e-06
-8.75867e-09
2.40885e-09
1.21759e-06
-8.68225e-09
2.40884e-09
1.21772e-06
-8.61655e-09
2.40888e-09
1.21783e-06
-8.56005e-09
2.40892e-09
1.21793e-06
-8.51146e-09
2.40897e-09
1.21801e-06
-8.4697e-09
2.40903e-09
1.21808e-06
-8.43381e-09
2.40909e-09
1.21814e-06
-8.40298e-09
2.40915e-09
1.2182e-06
-8.37652e-09
2.40922e-09
1.21824e-06
-8.35379e-09
2.40928e-09
1.21828e-06
-8.33427e-09
2.40934e-09
1.21831e-06
-8.3175e-09
2.40938e-09
1.21834e-06
-8.3031e-09
2.40942e-09
1.21837e-06
-8.29072e-09
2.40945e-09
1.21839e-06
-8.28008e-09
2.40948e-09
1.2184e-06
-8.27095e-09
2.4095e-09
1.21842e-06
-8.2631e-09
2.40952e-09
1.21843e-06
-8.25636e-09
2.40953e-09
1.21844e-06
-8.25056e-09
2.40955e-09
1.21845e-06
-8.24559e-09
2.40955e-09
1.21846e-06
-8.24131e-09
2.40956e-09
1.21847e-06
-8.23764e-09
2.40957e-09
1.21848e-06
-8.23448e-09
2.40957e-09
1.21848e-06
-8.23177e-09
2.40957e-09
1.21849e-06
-8.22944e-09
2.40957e-09
1.21849e-06
-8.22744e-09
2.40957e-09
1.21849e-06
-8.22572e-09
2.40957e-09
1.2185e-06
-8.22424e-09
2.40957e-09
1.2185e-06
-8.22296e-09
2.40957e-09
1.2185e-06
-8.22187e-09
2.40957e-09
1.2185e-06
-8.22093e-09
2.40956e-09
1.2185e-06
-8.22012e-09
2.40956e-09
1.21851e-06
-8.21942e-09
2.40956e-09
1.21851e-06
-8.21882e-09
2.40955e-09
1.21851e-06
-8.2183e-09
2.40955e-09
1.21851e-06
-8.21785e-09
2.40954e-09
1.21851e-06
-8.21746e-09
2.40954e-09
1.21851e-06
-8.21712e-09
2.40953e-09
1.21851e-06
-8.21683e-09
2.40953e-09
1.21851e-06
-8.21657e-09
2.40952e-09
1.21851e-06
-8.21635e-09
2.40952e-09
1.21851e-06
-8.21615e-09
2.40951e-09
1.21851e-06
-8.21598e-09
2.40951e-09
1.21851e-06
-8.21583e-09
2.4095e-09
1.21851e-06
-8.2157e-09
2.40949e-09
1.21851e-06
-8.21558e-09
2.40949e-09
1.21851e-06
-8.21547e-09
2.40948e-09
1.21851e-06
-8.21538e-09
2.40948e-09
1.21851e-06
-8.21529e-09
2.40947e-09
1.21851e-06
-8.21521e-09
2.40947e-09
1.21851e-06
-8.21513e-09
2.40946e-09
1.21851e-06
-8.21506e-09
2.40945e-09
1.21851e-06
-8.215e-09
2.40945e-09
1.21851e-06
-8.21493e-09
2.40944e-09
1.21851e-06
-8.21486e-09
2.40944e-09
1.21851e-06
-8.2148e-09
2.40943e-09
1.21851e-06
-8.21473e-09
2.40942e-09
1.21851e-06
-8.21466e-09
2.40942e-09
1.21851e-06
-8.21459e-09
2.40941e-09
1.21851e-06
-8.21451e-09
2.40941e-09
1.21851e-06
-8.21442e-09
2.4094e-09
1.21851e-06
-8.21433e-09
2.4094e-09
1.21851e-06
-8.21423e-09
2.40939e-09
1.21851e-06
-8.21412e-09
2.40939e-09
1.21851e-06
-8.21399e-09
2.40938e-09
1.21851e-06
-8.21385e-09
2.40937e-09
1.21851e-06
-8.21368e-09
2.40937e-09
1.21851e-06
-8.2135e-09
2.40936e-09
1.21851e-06
-8.21329e-09
2.40936e-09
1.21851e-06
-8.21305e-09
2.40935e-09
1.21851e-06
-8.21277e-09
2.40935e-09
1.21851e-06
-8.21245e-09
2.40935e-09
1.21851e-06
-8.21208e-09
2.40934e-09
1.21851e-06
-8.21166e-09
2.40934e-09
1.21851e-06
-8.21116e-09
2.40933e-09
1.2185e-06
-8.21059e-09
2.40933e-09
1.2185e-06
-8.20993e-09
2.40933e-09
1.2185e-06
-8.20916e-09
2.40933e-09
1.2185e-06
-8.20827e-09
2.40932e-09
1.2185e-06
-8.20723e-09
2.40932e-09
1.21849e-06
-8.20602e-09
2.40932e-09
1.21849e-06
-8.20462e-09
2.40932e-09
1.21849e-06
-8.20299e-09
2.40932e-09
1.21848e-06
-8.20108e-09
2.40932e-09
1.21848e-06
-8.19887e-09
2.40932e-09
1.21847e-06
-8.19629e-09
2.40933e-09
1.21847e-06
-8.19328e-09
2.40933e-09
1.21846e-06
-8.18979e-09
2.40934e-09
1.21845e-06
-8.18571e-09
2.40935e-09
1.21844e-06
-8.18097e-09
2.40936e-09
1.21842e-06
-8.17544e-09
2.40938e-09
1.21841e-06
-8.169e-09
2.4094e-09
1.21839e-06
-8.16151e-09
2.40942e-09
1.21837e-06
-8.15277e-09
2.40945e-09
1.21835e-06
-8.1426e-09
2.40949e-09
1.21832e-06
-8.13075e-09
2.40953e-09
1.21829e-06
-8.11694e-09
2.40959e-09
1.21825e-06
-8.10085e-09
2.40966e-09
1.21821e-06
-8.08211e-09
2.40975e-09
1.21816e-06
-8.06025e-09
2.40986e-09
1.2181e-06
-8.03477e-09
2.41001e-09
1.21803e-06
-8.00505e-09
2.41018e-09
1.21795e-06
-7.97042e-09
2.41038e-09
1.21786e-06
-7.93011e-09
2.41061e-09
1.21775e-06
-7.88323e-09
2.41085e-09
1.21763e-06
-7.82873e-09
2.41111e-09
1.21748e-06
-7.76537e-09
2.41138e-09
1.21731e-06
-7.69167e-09
2.41163e-09
1.21711e-06
-7.6058e-09
2.41185e-09
1.21688e-06
-7.50556e-09
2.41198e-09
1.21662e-06
-7.38844e-09
2.41196e-09
1.21631e-06
-7.25181e-09
2.4118e-09
1.21595e-06
-7.09265e-09
2.41146e-09
1.21553e-06
-6.9072e-09
2.41093e-09
1.21505e-06
-6.69088e-09
2.41015e-09
1.21449e-06
-6.43832e-09
2.40905e-09
1.21383e-06
-6.14352e-09
2.40765e-09
1.21307e-06
-5.80011e-09
2.40605e-09
1.21219e-06
-5.40076e-09
2.40435e-09
1.21116e-06
-4.93717e-09
2.40252e-09
1.20995e-06
-4.39954e-09
2.40035e-09
1.20855e-06
-3.77545e-09
2.39767e-09
1.20691e-06
-3.0496e-09
2.39454e-09
1.205e-06
-2.20596e-09
2.3911e-09
1.20278e-06
-1.22737e-09
2.38664e-09
1.20019e-06
-8.97531e-11
2.38243e-09
1.19718e-06
1.24354e-09
2.37866e-09
1.19367e-06
2.76468e-09
2.38677e-09
1.18964e-06
4.49917e-09
2.35824e-09
1.18494e-06
6.51745e-09
2.37312e-09
1.1795e-06
8.8588e-09
2.37542e-09
1.17319e-06
1.15773e-08
2.37145e-09
1.16585e-06
1.47324e-08
2.36871e-09
1.15733e-06
1.83921e-08
2.36588e-09
1.14745e-06
2.26368e-08
2.36416e-09
1.13598e-06
2.75526e-08
2.3635e-09
1.12269e-06
3.323e-08
2.36235e-09
1.10728e-06
3.97694e-08
2.35985e-09
1.08945e-06
4.72902e-08
2.35538e-09
1.06882e-06
5.59294e-08
2.34977e-09
1.04496e-06
6.58354e-08
2.34312e-09
1.0174e-06
7.71598e-08
2.33555e-09
9.85607e-07
9.00432e-08
2.32726e-09
9.48993e-07
1.04608e-07
2.31859e-09
9.06936e-07
1.20942e-07
2.30955e-09
8.58783e-07
1.39074e-07
2.29941e-09
8.03885e-07
1.58938e-07
2.28789e-09
7.41634e-07
1.80339e-07
2.27583e-09
6.71528e-07
2.02914e-07
2.26505e-09
5.93255e-07
2.26076e-07
2.26053e-09
5.06766e-07
2.49003e-07
2.27312e-09
4.12362e-07
2.70607e-07
2.3075e-09
2.90655e-07
2.4044e-09
1.28025e-07
-4.86406e-07
1.25929e-09
2.55571e-07
-4.84837e-07
1.27777e-09
3.74226e-07
-4.57833e-07
1.34664e-09
4.82833e-07
-4.26571e-07
1.43478e-09
5.80295e-07
-3.90662e-07
1.52342e-09
6.66478e-07
-3.52826e-07
1.60574e-09
7.41944e-07
-3.15327e-07
1.67948e-09
8.07601e-07
-2.79658e-07
1.73966e-09
8.64497e-07
-2.46668e-07
1.78357e-09
9.13687e-07
-2.16726e-07
1.81324e-09
9.56139e-07
-1.8992e-07
1.83061e-09
9.92735e-07
-1.66154e-07
1.83859e-09
1.02426e-06
-1.45236e-07
1.83903e-09
1.0514e-06
-1.26928e-07
1.83369e-09
1.07476e-06
-1.10969e-07
1.82481e-09
1.09486e-06
-9.71015e-08
1.81419e-09
1.11216e-06
-8.50809e-08
1.80285e-09
1.12704e-06
-7.46788e-08
1.79136e-09
1.13985e-06
-6.56865e-08
1.78039e-09
1.15086e-06
-5.79181e-08
1.77038e-09
1.16033e-06
-5.12114e-08
1.76147e-09
1.16847e-06
-4.5426e-08
1.7537e-09
1.17546e-06
-4.04415e-08
1.74712e-09
1.18147e-06
-3.61532e-08
1.74179e-09
1.18663e-06
-3.24691e-08
1.73782e-09
1.19107e-06
-2.93088e-08
1.73533e-09
1.19489e-06
-2.66009e-08
1.73434e-09
1.19818e-06
-2.42819e-08
1.73477e-09
1.20101e-06
-2.22951e-08
1.73629e-09
1.20346e-06
-2.05891e-08
1.73862e-09
1.20557e-06
-1.91198e-08
1.74108e-09
1.20739e-06
-1.7851e-08
1.743e-09
1.20895e-06
-1.67551e-08
1.74434e-09
1.2103e-06
-1.58095e-08
1.74531e-09
1.21146e-06
-1.49944e-08
1.74607e-09
1.21245e-06
-1.4292e-08
1.74662e-09
1.2133e-06
-1.3687e-08
1.74702e-09
1.21404e-06
-1.3166e-08
1.74744e-09
1.21467e-06
-1.27175e-08
1.74772e-09
1.21521e-06
-1.23315e-08
1.74795e-09
1.21568e-06
-1.19994e-08
1.74815e-09
1.21608e-06
-1.17137e-08
1.74824e-09
1.21643e-06
-1.1468e-08
1.74826e-09
1.21673e-06
-1.12567e-08
1.74823e-09
1.21698e-06
-1.10751e-08
1.74828e-09
1.2172e-06
-1.0919e-08
1.74841e-09
1.21739e-06
-1.07848e-08
1.74849e-09
1.21756e-06
-1.06694e-08
1.74851e-09
1.2177e-06
-1.05703e-08
1.74854e-09
1.21782e-06
-1.04852e-08
1.74861e-09
1.21792e-06
-1.04119e-08
1.7487e-09
1.21801e-06
-1.0349e-08
1.74882e-09
1.21809e-06
-1.02948e-08
1.74895e-09
1.21815e-06
-1.02483e-08
1.74909e-09
1.21821e-06
-1.02084e-08
1.74922e-09
1.21826e-06
-1.01742e-08
1.74933e-09
1.2183e-06
-1.01447e-08
1.74944e-09
1.21833e-06
-1.01195e-08
1.74953e-09
1.21837e-06
-1.00978e-08
1.74962e-09
1.21839e-06
-1.00791e-08
1.74969e-09
1.21841e-06
-1.00631e-08
1.74976e-09
1.21843e-06
-1.00494e-08
1.74981e-09
1.21845e-06
-1.00375e-08
1.74986e-09
1.21846e-06
-1.00274e-08
1.7499e-09
1.21848e-06
-1.00187e-08
1.74994e-09
1.21849e-06
-1.00112e-08
1.74997e-09
1.2185e-06
-1.00047e-08
1.75e-09
1.2185e-06
-9.9992e-09
1.75002e-09
1.21851e-06
-9.99445e-09
1.75004e-09
1.21852e-06
-9.99037e-09
1.75005e-09
1.21852e-06
-9.98687e-09
1.75007e-09
1.21853e-06
-9.98385e-09
1.75008e-09
1.21853e-06
-9.98126e-09
1.75009e-09
1.21853e-06
-9.97904e-09
1.7501e-09
1.21853e-06
-9.97713e-09
1.75011e-09
1.21854e-06
-9.97548e-09
1.75011e-09
1.21854e-06
-9.97407e-09
1.75012e-09
1.21854e-06
-9.97285e-09
1.75012e-09
1.21854e-06
-9.9718e-09
1.75013e-09
1.21854e-06
-9.9709e-09
1.75013e-09
1.21854e-06
-9.97012e-09
1.75014e-09
1.21855e-06
-9.96945e-09
1.75014e-09
1.21855e-06
-9.96887e-09
1.75014e-09
1.21855e-06
-9.96837e-09
1.75014e-09
1.21855e-06
-9.96793e-09
1.75014e-09
1.21855e-06
-9.96755e-09
1.75014e-09
1.21855e-06
-9.96723e-09
1.75015e-09
1.21855e-06
-9.96694e-09
1.75015e-09
1.21855e-06
-9.96669e-09
1.75015e-09
1.21855e-06
-9.96647e-09
1.75015e-09
1.21855e-06
-9.96628e-09
1.75015e-09
1.21855e-06
-9.96611e-09
1.75015e-09
1.21855e-06
-9.96595e-09
1.75015e-09
1.21855e-06
-9.96582e-09
1.75015e-09
1.21855e-06
-9.96569e-09
1.75015e-09
1.21855e-06
-9.96558e-09
1.75015e-09
1.21855e-06
-9.96548e-09
1.75015e-09
1.21855e-06
-9.96538e-09
1.75015e-09
1.21855e-06
-9.96529e-09
1.75015e-09
1.21855e-06
-9.9652e-09
1.75015e-09
1.21855e-06
-9.96512e-09
1.75015e-09
1.21855e-06
-9.96504e-09
1.75015e-09
1.21855e-06
-9.96495e-09
1.75015e-09
1.21855e-06
-9.96487e-09
1.75015e-09
1.21855e-06
-9.96478e-09
1.75015e-09
1.21855e-06
-9.96468e-09
1.75015e-09
1.21855e-06
-9.96458e-09
1.75015e-09
1.21855e-06
-9.96448e-09
1.75015e-09
1.21855e-06
-9.96436e-09
1.75015e-09
1.21855e-06
-9.96423e-09
1.75015e-09
1.21855e-06
-9.96408e-09
1.75015e-09
1.21855e-06
-9.96392e-09
1.75015e-09
1.21855e-06
-9.96373e-09
1.75015e-09
1.21855e-06
-9.96353e-09
1.75015e-09
1.21855e-06
-9.96329e-09
1.75015e-09
1.21855e-06
-9.96302e-09
1.75016e-09
1.21855e-06
-9.96271e-09
1.75016e-09
1.21855e-06
-9.96235e-09
1.75016e-09
1.21855e-06
-9.96194e-09
1.75016e-09
1.21855e-06
-9.96146e-09
1.75016e-09
1.21854e-06
-9.96091e-09
1.75017e-09
1.21854e-06
-9.96028e-09
1.75017e-09
1.21854e-06
-9.95954e-09
1.75017e-09
1.21854e-06
-9.95869e-09
1.75018e-09
1.21854e-06
-9.95769e-09
1.75018e-09
1.21854e-06
-9.95654e-09
1.75019e-09
1.21854e-06
-9.9552e-09
1.75019e-09
1.21853e-06
-9.95364e-09
1.7502e-09
1.21853e-06
-9.95182e-09
1.75021e-09
1.21853e-06
-9.94971e-09
1.75022e-09
1.21852e-06
-9.94725e-09
1.75023e-09
1.21852e-06
-9.94439e-09
1.75025e-09
1.21851e-06
-9.94105e-09
1.75026e-09
1.21851e-06
-9.93717e-09
1.75028e-09
1.2185e-06
-9.93265e-09
1.7503e-09
1.21849e-06
-9.92738e-09
1.75033e-09
1.21848e-06
-9.92125e-09
1.75036e-09
1.21847e-06
-9.91411e-09
1.7504e-09
1.21846e-06
-9.90579e-09
1.75044e-09
1.21844e-06
-9.8961e-09
1.75049e-09
1.21842e-06
-9.88482e-09
1.75055e-09
1.2184e-06
-9.87167e-09
1.75063e-09
1.21837e-06
-9.85637e-09
1.75071e-09
1.21835e-06
-9.83854e-09
1.75082e-09
1.21831e-06
-9.81777e-09
1.75095e-09
1.21827e-06
-9.79357e-09
1.75111e-09
1.21822e-06
-9.76538e-09
1.75131e-09
1.21817e-06
-9.7325e-09
1.75156e-09
1.21811e-06
-9.69414e-09
1.75188e-09
1.21803e-06
-9.64943e-09
1.75228e-09
1.21795e-06
-9.5974e-09
1.75275e-09
1.21785e-06
-9.5369e-09
1.75328e-09
1.21773e-06
-9.4666e-09
1.75388e-09
1.21759e-06
-9.38495e-09
1.75455e-09
1.21743e-06
-9.29004e-09
1.75527e-09
1.21725e-06
-9.1795e-09
1.75597e-09
1.21704e-06
-9.05021e-09
1.75652e-09
1.21679e-06
-8.8985e-09
1.75677e-09
1.2165e-06
-8.7213e-09
1.75673e-09
1.21617e-06
-8.51496e-09
1.75641e-09
1.21578e-06
-8.27471e-09
1.75579e-09
1.21534e-06
-7.99436e-09
1.75482e-09
1.21482e-06
-7.66643e-09
1.75338e-09
1.21421e-06
-7.28258e-09
1.75139e-09
1.21351e-06
-6.83526e-09
1.74913e-09
1.21269e-06
-6.3151e-09
1.74689e-09
1.21173e-06
-5.71162e-09
1.74444e-09
1.21061e-06
-5.01252e-09
1.74113e-09
1.20931e-06
-4.20111e-09
1.73655e-09
1.20779e-06
-3.25535e-09
1.73167e-09
1.20601e-06
-2.15557e-09
1.72752e-09
1.20395e-06
-8.8554e-10
1.72283e-09
1.20153e-06
6.01675e-10
1.7173e-09
1.19872e-06
2.33728e-09
1.71867e-09
1.19548e-06
4.27538e-09
1.72991e-09
1.1917e-06
6.53863e-09
1.73989e-09
1.18733e-06
9.17974e-09
1.70877e-09
1.18227e-06
1.22142e-08
1.70973e-09
1.1764e-06
1.57468e-08
1.70682e-09
1.16956e-06
1.98578e-08
1.70754e-09
1.16162e-06
2.4624e-08
1.70399e-09
1.1524e-06
3.01573e-08
1.70047e-09
1.14169e-06
3.65674e-08
1.6991e-09
1.12926e-06
4.39691e-08
1.69741e-09
1.11484e-06
5.24957e-08
1.69342e-09
1.09813e-06
6.23158e-08
1.68765e-09
1.07876e-06
7.36193e-08
1.68074e-09
1.05631e-06
8.66129e-08
1.67323e-09
1.0303e-06
1.01512e-07
1.66531e-09
1.00016e-06
1.18521e-07
1.65678e-09
9.65293e-07
1.3783e-07
1.64757e-09
9.25002e-07
1.59593e-07
1.63747e-09
8.78548e-07
1.83901e-07
1.62552e-09
8.25151e-07
2.10728e-07
1.61088e-09
7.64023e-07
2.39876e-07
1.59543e-09
6.94449e-07