/*--------------------------------*- C++ -*----------------------------------*\
| =========                 |                                                 |
| \\      /  F ield         | OpenFOAM: The Open Source CFD Toolbox           |
|  \\    /   O peration     | Version:  2312                                  |
|   \\  /    A nd           | Website:  www.openfoam.com                      |
|    \\/     M anipulation  |                                                 |
\*---------------------------------------------------------------------------*/
FoamFile
{
    version     2.0;
    format      ascii;
    arch        "LSB;label=32;scalar=64";
    class       surfaceScalarField;
    location    "1.065074";
    object      alphaPhi0.water;
}
// * * * * * * * * * * * * * * * * * * * * * * * * * * * * * * * * * * * * * //

dimensions      [0 3 -1 0 0 0 0];

oriented        oriented;

internalField   nonuniform List<scalar> 
263100
(
-1.74734e-09
3.49451e-09
-1.74734e-09
-5.39047e-10
1.63289e-10
-1.40344e-09
-4.5237e-10
1.09535e-09
-1.21313e-09
-2.82456e-10
8.98701e-10
-1.10797e-09
-7.29858e-11
5.74764e-10
-8.33463e-10
2.92567e-10
1.26975e-10
-5.49087e-10
7.66086e-10
-2.79399e-10
-2.52011e-10
1.22501e-09
-5.27989e-10
1.77582e-11
1.52294e-09
-4.84191e-10
1.49784e-10
1.47876e-09
-1.51103e-10
1.80808e-10
1.11595e-09
3.24531e-10
5.09746e-11
5.04482e-10
8.83823e-10
-2.29746e-10
-1.34618e-10
1.2954e-09
-5.83721e-10
-5.46234e-10
1.43795e-09
-9.2611e-10
-5.17242e-10
1.29329e-09
-1.1987e-09
1.49768e-11
9.2066e-10
-1.3114e-09
9.48871e-10
4.04565e-10
-1.1849e-09
1.97515e-09
1.18098e-11
-8.77707e-10
2.61032e-09
-1.10592e-10
-3.61716e-10
2.52847e-09
1.40211e-10
1.03619e-10
1.5784e-09
7.25755e-10
3.82388e-10
-3.12041e-10
1.55806e-09
4.82787e-10
-2.80123e-09
2.23433e-09
3.9212e-10
-5.28012e-09
2.47794e-09
1.17517e-10
-6.87543e-09
1.94584e-09
-2.63123e-10
-6.67984e-09
5.94903e-10
-7.3927e-10
-4.13581e-09
-1.33101e-09
-1.20062e-09
1.69092e-09
-3.41575e-09
-2.43354e-09
9.79063e-09
-4.22063e-09
-3.92659e-09
2.77393e-08
-1.80164e-08
-2.69385e-10
3.99077e-09
-2.69385e-10
-5.50676e-10
6.45721e-10
-2.50413e-10
-7.31626e-10
1.44695e-09
-2.28516e-10
-8.68057e-10
1.20589e-09
-2.41415e-10
-8.58413e-10
6.87506e-10
-2.01508e-10
-7.26476e-10
9.15659e-11
-1.74295e-10
-4.21577e-10
-4.88971e-10
-1.58823e-10
1.6563e-11
-8.37517e-10
-1.64617e-10
5.20838e-10
-8.06711e-10
-1.79223e-10
1.02384e-09
-4.29927e-10
-1.75682e-10
1.46793e-09
9.48033e-11
-1.16867e-10
1.83375e-09
6.66872e-10
-3.73635e-12
2.10377e-09
1.05289e-09
1.60105e-10
2.23199e-09
1.14349e-09
3.88371e-10
2.18279e-09
9.49333e-10
6.40324e-10
1.90792e-09
6.25627e-10
8.32611e-10
1.41e-09
2.63246e-10
9.09234e-10
8.25672e-10
2.89482e-11
8.38089e-10
1.95675e-10
1.73464e-10
6.13142e-10
-3.86716e-10
6.78486e-10
3.03596e-10
-9.09072e-10
1.47059e-09
2.4096e-11
-1.38442e-09
2.37973e-09
-1.2057e-10
-1.75524e-09
2.98307e-09
-1.84198e-10
-1.86798e-09
2.81266e-09
-7.32286e-11
-1.7665e-09
1.69492e-09
2.41957e-10
-1.82622e-09
-1.92047e-10
8.77867e-10
-2.14066e-09
-2.93094e-09
1.88864e-09
-9.28252e-11
-9.05546e-09
3.52185e-09
8.25036e-09
-1.83779e-08
5.71244e-09
3.22136e-08
3.68096e-09
2.38411e-10
3.4949e-09
2.38411e-10
-4.59676e-10
1.37941e-09
-3.73853e-11
-8.72782e-10
1.93678e-09
-8.13703e-11
-1.22936e-09
1.68365e-09
-1.2551e-10
-1.51158e-09
1.14886e-09
-1.76961e-10
-1.63197e-09
5.16236e-10
-2.8734e-10
-1.53161e-09
-1.02253e-10
-4.47332e-10
-1.14991e-09
-5.63629e-10
-5.87249e-10
-4.50185e-10
-7.4961e-10
-6.57624e-10
5.54136e-10
-6.77993e-10
-6.27743e-10
1.71581e-09
-4.43657e-10
-4.70211e-10
2.85416e-09
-1.45318e-10
-1.55716e-10
3.69383e-09
1.5313e-10
2.39963e-10
3.97796e-09
4.21531e-10
6.19485e-10
3.53295e-09
6.48444e-10
9.23282e-10
2.45587e-09
8.34065e-10
1.03807e-09
9.44364e-10
1.02929e-09
9.05923e-10
-6.56318e-10
1.24786e-09
5.34584e-10
-1.85802e-09
1.52522e-09
-2.3594e-12
-2.41488e-09
1.81655e-09
-4.36618e-10
-2.12818e-09
2.1621e-09
-8.37059e-10
-9.99426e-10
2.42312e-09
-1.0384e-09
6.46815e-10
2.42808e-09
-9.72701e-10
2.43862e-09
1.81917e-09
-7.04977e-10
4.00424e-09
6.57031e-10
-4.68757e-10
4.85959e-09
-6.74844e-10
-3.5275e-10
3.15137e-09
-1.51245e-09
2.72252e-10
-2.03653e-09
-5.91007e-09
1.99614e-09
-1.80476e-09
-2.46021e-08
5.93195e-09
1.99358e-08
1.04222e-08
5.08432e-10
2.49032e-09
5.08432e-10
-1.78903e-10
1.80898e-09
2.92059e-10
-6.57314e-10
2.22777e-09
2.27338e-10
-1.09561e-09
2.05557e-09
1.20891e-10
-1.51697e-09
1.68293e-09
-3.60076e-11
-1.85458e-09
1.16338e-09
-2.04976e-10
-1.985e-09
5.70926e-10
-4.08522e-10
-1.80791e-09
1.94229e-11
-5.99319e-10
-1.22872e-09
-4.34581e-10
-7.14665e-10
-2.64206e-10
-7.45293e-10
-7.10246e-10
9.49911e-10
-9.02304e-10
-5.73782e-10
2.15583e-09
-8.63194e-10
-3.2357e-10
3.02455e-09
-5.71296e-10
-6.08367e-12
3.30901e-09
3.06346e-11
2.13532e-10
2.87886e-09
8.44005e-10
3.10494e-10
1.80059e-09
1.73657e-09
2.24862e-10
3.26699e-10
2.56289e-09
-2.94776e-11
-1.1469e-09
3.1077e-09
-3.65407e-10
-2.10638e-09
3.25401e-09
-7.48824e-10
-2.19011e-09
3.00227e-09
-1.07538e-09
-1.20699e-09
2.48346e-09
-1.26928e-09
6.5806e-10
1.90648e-09
-1.30681e-09
3.01218e-09
1.26303e-09
-1.1472e-09
5.15356e-09
5.99208e-10
-8.87698e-10
6.53416e-09
-1.36153e-10
-5.70175e-10
7.47765e-09
-9.75374e-10
-6.48228e-10
8.81883e-09
-7.8824e-10
-2.09589e-09
3.85638e-09
2.02864e-09
-3.03097e-09
-6.58436e-09
-1.20441e-08
-2.19051e-09
1.04603e-08
2.81417e-09
7.62637e-10
9.97016e-10
7.62637e-10
1.92254e-10
1.76657e-09
6.39114e-10
-8.07606e-11
1.96491e-09
5.75925e-10
-3.99217e-10
1.94801e-09
4.89712e-10
-7.99284e-10
1.83839e-09
3.39531e-10
-1.20963e-09
1.55444e-09
1.47687e-10
-1.55069e-09
1.10012e-09
-3.07913e-11
-1.72084e-09
5.40116e-10
-1.75374e-10
-1.63446e-09
-3.39214e-11
-3.09997e-10
-1.27299e-09
-5.84788e-10
-3.61086e-10
-7.14658e-10
-9.86867e-10
-3.45751e-10
-9.81178e-11
-1.10281e-09
-2.94169e-10
4.17932e-10
-7.96795e-10
-2.59027e-10
7.22402e-10
2.32593e-13
-2.92475e-10
7.17256e-10
1.20146e-09
-4.12685e-10
3.87973e-10
2.56181e-09
-5.85532e-10
-1.27987e-10
3.728e-09
-7.53076e-10
-5.85755e-10
4.33448e-09
-8.73363e-10
-6.64878e-10
4.18759e-09
-9.48558e-10
-1.43571e-10
3.392e-09
-9.88863e-10
9.76846e-10
2.28846e-09
-9.85872e-10
2.63067e-09
1.15816e-09
-9.5165e-10
4.38016e-09
3.71198e-10
-8.95349e-10
5.78066e-09
1.65346e-12
-8.39237e-10
6.25009e-09
1.10832e-10
-7.58264e-10
5.52095e-09
2.51926e-10
-5.51771e-10
5.02164e-09
4.09071e-10
-7.68382e-10
3.60446e-09
5.22968e-09
-1.87396e-09
-4.12343e-09
-1.22146e-09
-3.203e-09
7.68021e-09
-1.44394e-09
7.60442e-10
-5.07103e-10
7.60442e-10
6.82649e-10
1.04934e-09
7.55861e-10
7.79396e-10
1.11325e-09
7.34217e-10
7.87062e-10
1.25553e-09
6.88455e-10
6.2363e-10
1.42671e-09
6.09542e-10
2.96234e-10
1.44073e-09
5.05688e-10
-1.74975e-10
1.25179e-09
4.05827e-10
-7.59129e-10
8.7503e-10
3.4219e-10
-1.41091e-09
4.07397e-10
2.91548e-10
-2.04999e-09
-1.22901e-10
2.28108e-10
-2.55154e-09
-5.49308e-10
7.04554e-11
-2.86584e-09
-7.46041e-10
-8.77251e-11
-2.86297e-09
-5.46669e-10
-3.49038e-10
-2.50818e-09
1.13949e-10
-6.0659e-10
-1.85502e-09
1.18268e-09
-8.00355e-10
-1.00548e-09
2.44289e-09
-9.08e-10
-8.19644e-11
3.48819e-09
-8.57463e-10
7.96451e-10
3.98003e-09
-6.83394e-10
1.63248e-09
3.6768e-09
-4.65315e-10
2.41081e-09
2.74774e-09
-2.55283e-10
3.15101e-09
1.57341e-09
-1.31434e-10
3.79624e-09
5.53575e-10
-1.37433e-10
4.28811e-09
4.17134e-11
-2.54391e-10
4.453e-09
2.18524e-10
-4.72285e-10
4.1755e-09
1.17716e-09
-8.80075e-10
2.72508e-09
2.822e-09
-1.21353e-09
5.92918e-10
3.77251e-09
-1.32923e-09
7.16173e-11
8.22601e-09
-2.57628e-09
-3.24539e-09
6.18485e-09
-4.18778e-09
7.37366e-09
-2.99866e-09
3.19698e-10
-1.18273e-09
3.19698e-10
9.92098e-10
-1.50011e-10
3.9615e-10
1.61628e-09
-1.34386e-11
3.91282e-10
2.14771e-09
2.43239e-10
3.89259e-10
2.44341e-09
6.37725e-10
4.26169e-10
2.39202e-09
9.84549e-10
4.63051e-10
1.91404e-09
1.17553e-09
5.23561e-10
9.57662e-10
1.22269e-09
5.78567e-10
-3.93849e-10
1.10517e-09
6.09661e-10
-1.99225e-09
8.57446e-10
5.48353e-10
-3.59672e-09
5.75579e-10
3.7831e-10
-4.80973e-09
3.01088e-10
3.45283e-11
-5.30637e-09
1.22097e-10
-3.25192e-10
-4.93806e-09
1.96937e-10
-6.12941e-10
-3.74945e-09
5.8677e-10
-7.48648e-10
-1.96783e-09
1.19036e-09
-6.67731e-10
4.1871e-11
1.75852e-09
-3.95501e-10
1.88035e-09
2.01796e-09
3.04734e-11
3.28094e-09
1.84636e-09
3.52482e-10
4.06466e-09
1.25036e-09
6.42531e-10
4.19139e-09
5.16092e-10
8.5709e-10
3.77231e-09
3.82555e-11
8.54034e-10
2.96894e-09
1.007e-10
6.58193e-10
1.82661e-09
9.41656e-10
3.32807e-10
5.78558e-10
2.48522e-09
-1.38757e-10
-7.55169e-10
4.93635e-09
-8.43829e-10
-2.64181e-09
7.0896e-09
-1.47065e-09
-2.04119e-09
9.78615e-09
-2.16961e-09
-2.4783e-09
9.25722e-09
-2.60285e-09
6.53933e-09
-1.55137e-09
-6.17583e-10
-4.66583e-11
-6.17583e-10
8.94498e-10
-1.53991e-09
-3.02682e-10
2.15391e-09
-1.12875e-09
-3.06374e-10
3.29318e-09
-7.39729e-10
-3.0323e-10
4.15132e-09
-1.43226e-10
-2.0604e-10
4.50436e-09
5.53112e-10
-3.45027e-11
4.17404e-09
1.24985e-09
1.53294e-10
3.06996e-09
1.88659e-09
3.4052e-10
1.2894e-09
2.33853e-09
4.45293e-10
-9.21406e-10
2.54316e-09
4.2009e-10
-3.15261e-09
2.42233e-09
2.81003e-10
-4.89857e-09
1.89945e-09
5.52793e-11
-5.80466e-09
1.10049e-09
-1.41606e-10
-5.61377e-09
2.74381e-10
-3.03937e-10
-4.39121e-09
-3.51378e-10
-2.80688e-10
-2.42513e-09
-7.08587e-10
-2.59262e-11
-1.42881e-10
-7.18456e-10
2.63475e-10
1.9083e-09
-6.17086e-10
6.64195e-10
3.32893e-09
-5.63905e-10
1.06368e-09
3.87416e-09
-6.60663e-10
1.41904e-09
3.58088e-09
-7.58953e-10
1.59408e-09
2.65485e-09
-6.0935e-10
1.57526e-09
1.27556e-09
5.54699e-11
1.41465e-09
-3.91477e-10
1.43026e-09
1.17544e-09
-2.09552e-09
3.38611e-09
8.26755e-10
-3.15928e-09
5.76596e-09
3.02072e-10
-3.78761e-09
7.91763e-09
-7.33137e-11
-2.55131e-09
8.93945e-09
-1.9511e-10
-9.16762e-10
7.84423e-09
4.26904e-11
4.75164e-09
1.16481e-09
-1.48914e-09
2.8078e-09
-1.48914e-09
6.8984e-10
-2.64418e-09
-1.19838e-09
2.43982e-09
-1.82382e-09
-1.16516e-09
4.02738e-09
-1.40739e-09
-1.01712e-09
5.25375e-09
-6.75981e-10
-7.78515e-10
5.9051e-09
3.11916e-10
-4.85044e-10
5.76788e-09
1.52592e-09
-2.05528e-10
4.77161e-09
2.82323e-09
2.16567e-12
3.06646e-09
3.88087e-09
1.19985e-10
9.04656e-10
4.49603e-09
1.90682e-10
-1.27732e-09
4.41815e-09
2.05427e-10
-3.0584e-09
3.561e-09
1.89222e-10
-4.12832e-09
2.05119e-09
2.47987e-10
-4.35744e-09
3.13244e-10
3.78898e-10
-3.79013e-09
-1.22767e-09
5.48282e-10
-2.62582e-09
-2.34408e-09
7.4247e-10
-1.19099e-09
-2.90588e-09
1.03076e-09
1.26544e-10
-2.98888e-09
1.3134e-09
1.10596e-09
-2.81111e-09
1.48749e-09
1.57579e-09
-2.49597e-09
1.53627e-09
1.4541e-09
-2.00633e-09
1.49517e-09
7.65787e-10
-1.25554e-09
1.43283e-09
-2.9339e-10
-1.54373e-10
1.36478e-09
-1.51006e-09
1.50215e-09
1.26549e-09
-2.65271e-09
3.55576e-09
1.14311e-09
-3.08674e-09
5.37679e-09
1.06062e-09
-2.51229e-09
6.45696e-09
1.19993e-09
-7.60128e-10
5.90418e-09
1.67003e-09
6.95428e-10
4.39711e-09
2.43106e-09
3.11482e-09
2.71405e-09
-1.80326e-09
6.34164e-09
-1.80326e-09
6.66604e-10
-3.70869e-09
-1.35662e-09
2.53215e-09
-2.46887e-09
-1.17072e-09
4.14133e-09
-2.07926e-09
-8.8049e-10
5.30467e-09
-1.23606e-09
-5.45021e-10
5.88136e-09
2.99599e-11
-2.38474e-10
5.7712e-09
1.68022e-09
1.19248e-11
5.09943e-09
3.41299e-09
1.46108e-10
3.97757e-09
4.89514e-09
1.93589e-10
2.60364e-09
5.71837e-09
2.76714e-10
1.19218e-09
5.58715e-09
4.22746e-10
-7.52403e-11
4.43421e-09
6.39754e-10
-1.14218e-09
2.52563e-09
9.03097e-10
-2.01677e-09
3.54014e-10
1.19732e-09
-2.66564e-09
-1.62363e-09
1.43796e-09
-3.08448e-09
-3.105e-09
1.57246e-09
-3.20509e-09
-3.92766e-09
1.50437e-09
-2.96158e-09
-4.18787e-09
1.26364e-09
-2.47092e-09
-4.01839e-09
9.60964e-10
-1.93184e-09
-3.54958e-09
7.00786e-10
-1.50487e-09
-2.81303e-09
5.27638e-10
-1.31846e-09
-1.75097e-09
4.46784e-10
-1.41848e-09
-3.12607e-10
4.15093e-10
-1.60226e-09
1.44249e-09
4.43174e-10
-1.59272e-09
3.2484e-09
5.54845e-10
-9.9098e-10
4.3032e-09
7.89522e-10
2.43927e-10
4.26822e-09
1.32295e-09
1.35622e-09
3.29377e-09
1.8943e-09
1.25935e-09
2.76285e-09
2.11433e-09
3.31094e-09
1.3063e-09
-7.89807e-10
7.97018e-09
-7.89807e-10
1.06782e-09
-5.10329e-09
-1.92403e-10
2.19635e-09
-3.42412e-09
7.47598e-11
2.99751e-09
-2.91606e-09
2.7365e-10
3.42732e-09
-1.94346e-09
4.94945e-10
3.47683e-09
-4.68762e-10
6.41386e-10
3.31041e-09
1.3729e-09
6.4538e-10
3.12607e-09
3.24466e-09
5.17124e-10
3.05056e-09
4.73559e-09
4.11151e-10
3.03282e-09
5.55389e-09
3.88968e-10
2.92412e-09
5.39399e-09
5.52945e-10
2.49396e-09
4.3103e-09
8.52885e-10
1.54659e-09
2.64409e-09
1.1661e-09
-3.35332e-11
9.68728e-10
1.31971e-09
-1.91222e-09
-7.34574e-10
1.33251e-09
-3.81813e-09
-1.97286e-09
1.07678e-09
-5.30127e-09
-2.7975e-09
5.95472e-10
-6.01546e-09
-3.2988e-09
3.351e-13
-5.95158e-09
-3.57929e-09
-3.8568e-10
-5.20109e-09
-3.51388e-09
-7.04149e-10
-4.07101e-09
-2.98441e-09
-8.82766e-10
-2.89692e-09
-1.98667e-09
-8.41748e-10
-1.8905e-09
-4.92321e-10
-6.91694e-10
-9.32274e-10
1.14029e-09
-4.77784e-10
1.22103e-10
2.54375e-09
-1.35751e-10
1.30418e-09
3.10684e-09
2.45785e-10
2.16284e-09
3.03931e-09
5.91849e-10
1.94047e-09
3.00805e-09
6.85619e-10
7.41268e-10
3.92541e-09
1.38001e-10
4.43473e-09
-4.12007e-10
1.22254e-09
5.71289e-09
1.22254e-09
1.19357e-09
-6.16251e-09
1.52219e-09
7.21689e-10
-4.45037e-09
1.87939e-09
-1.31057e-11
-3.72897e-09
1.89236e-09
-8.47635e-10
-2.59254e-09
1.77891e-09
-1.4732e-09
-9.92039e-10
1.39108e-09
-1.62222e-09
8.78389e-10
8.4017e-10
-1.02644e-09
2.49421e-09
3.21689e-10
1.9348e-10
3.7365e-09
-6.39838e-11
1.69113e-09
4.39006e-09
-1.70456e-10
2.97796e-09
4.39694e-09
-1.11508e-10
3.43348e-09
4.02531e-09
1.97302e-11
2.73427e-09
3.41614e-09
1.15569e-10
1.03568e-09
2.77794e-09
5.53494e-11
-1.46498e-09
2.08462e-09
-1.95873e-10
-4.1275e-09
1.41038e-09
-6.54646e-10
-6.29128e-09
5.67529e-10
-1.19182e-09
-7.41048e-09
-5.36332e-10
-1.67592e-09
-7.3684e-09
-1.60034e-09
-2.07022e-09
-6.36512e-09
-2.38826e-09
-2.16613e-09
-4.81359e-09
-2.56435e-09
-1.97482e-09
-3.08451e-09
-2.04716e-09
-1.62896e-09
-1.39535e-09
-9.0374e-10
-1.20197e-09
1.98114e-10
3.93376e-10
-7.53814e-10
1.7023e-09
1.4403e-09
-3.1711e-10
2.73894e-09
2.06245e-09
5.45013e-11
2.82309e-09
2.73461e-09
2.05242e-10
1.77578e-09
3.98865e-09
-2.59691e-11
6.35534e-10
5.30376e-09
-4.0004e-10
4.87399e-09
2.12804e-11
3.33103e-09
-6.75601e-10
3.33103e-09
4.75787e-10
-5.90821e-09
3.06455e-09
-2.07472e-09
-4.34738e-09
2.83615e-09
-4.43622e-09
-3.25897e-09
2.2214e-09
-6.39738e-09
-1.84188e-09
1.47174e-09
-7.49915e-09
-2.45302e-10
5.47604e-10
-7.36529e-09
1.14129e-09
-2.6283e-10
-5.96244e-09
2.09117e-09
-9.08665e-10
-3.50852e-09
2.73245e-09
-1.38514e-09
-6.33994e-10
3.08027e-09
-1.51525e-09
1.7554e-09
3.4908e-09
-1.44621e-09
2.97456e-09
4.2002e-09
-1.37495e-09
2.74871e-09
5.06056e-09
-1.42816e-09
1.26658e-09
5.90476e-09
-1.69317e-09
-9.89809e-10
6.36842e-09
-2.11792e-09
-3.31216e-09
6.15565e-09
-2.54728e-09
-5.07013e-09
5.05544e-09
-2.86817e-09
-5.91259e-09
3.184e-09
-3.00286e-09
-5.72198e-09
1.02289e-09
-2.89979e-09
-4.81631e-09
-7.46437e-10
-2.57932e-09
-3.52652e-09
-1.74517e-09
-2.08816e-09
-2.02535e-09
-1.91262e-09
-1.58044e-09
-4.21696e-10
-1.34519e-09
-1.10113e-09
1.16639e-09
-5.02889e-10
-6.54945e-10
2.47937e-09
3.7445e-10
-2.57803e-10
3.12182e-09
1.33668e-09
1.32306e-11
2.84517e-09
2.74701e-09
1.38022e-10
2.01758e-09
4.44914e-09
2.08743e-10
1.40294e-09
5.17836e-09
5.99135e-10
4.9325e-09
1.31445e-09
3.74724e-09
-7.89972e-09
3.74724e-09
-1.57682e-09
-2.29112e-09
2.07377e-09
-5.73677e-09
-1.25891e-09
1.36387e-09
-8.98162e-09
-1.01998e-10
3.20055e-10
-1.13109e-08
1.1547e-09
-4.98416e-10
-1.21904e-08
2.02236e-09
-1.27831e-09
-1.14506e-08
2.46784e-09
-2.00485e-09
-9.13779e-09
2.19801e-09
-2.39447e-09
-5.82406e-09
1.84529e-09
-2.42843e-09
-2.38026e-09
1.9129e-09
-2.30148e-09
3.11214e-10
2.8766e-09
-2.12682e-09
1.92691e-09
4.60491e-09
-2.09834e-09
2.20692e-09
6.95022e-09
-2.27765e-09
1.50616e-09
9.02584e-09
-2.55293e-09
3.01639e-10
1.02087e-08
-2.77781e-09
-9.01809e-10
1.01234e-08
-2.89138e-09
-1.75057e-09
8.64967e-09
-2.83011e-09
-2.13396e-09
6.08056e-09
-2.53378e-09
-2.17856e-09
3.20157e-09
-2.08352e-09
-1.98196e-09
7.72701e-10
-1.60601e-09
-1.63081e-09
-7.09154e-10
-1.24687e-09
-1.03611e-09
-1.36595e-09
-1.00632e-09
-1.12446e-10
-1.2948e-09
-8.74957e-10
1.00981e-09
-7.71039e-10
-8.0661e-10
1.98045e-09
1.30584e-10
-7.27465e-10
2.40952e-09
1.52835e-09
-6.4837e-10
2.3771e-09
3.28472e-09
-5.23331e-10
2.28808e-09
4.65098e-09
-7.29698e-11
1.63242e-09
5.339e-09
6.38422e-10
6.6386e-09
1.73976e-10
1.47743e-09
-1.06563e-08
1.47743e-09
-4.4496e-09
4.30695e-09
-4.55442e-10
-8.63602e-09
4.17897e-09
-1.0861e-09
-1.15547e-08
4.81499e-09
-1.8715e-09
-1.31717e-08
5.33878e-09
-2.47552e-09
-1.32346e-08
4.88924e-09
-2.74133e-09
-1.16148e-08
3.54259e-09
-2.65384e-09
-8.85709e-09
1.82296e-09
-2.3606e-09
-5.68933e-09
5.95234e-10
-1.91392e-09
-2.80707e-09
5.74436e-10
-1.56182e-09
-6.19232e-10
1.98699e-09
-1.34171e-09
7.31061e-10
4.59292e-09
-1.40674e-09
1.49834e-09
7.72879e-09
-1.63048e-09
1.90202e-09
1.03682e-08
-1.82814e-09
2.14093e-09
1.17426e-08
-1.8264e-09
2.31118e-09
1.15672e-08
-1.61264e-09
2.32964e-09
9.87067e-09
-1.16491e-09
2.01534e-09
7.15892e-09
-6.15147e-10
1.33632e-09
4.29808e-09
-2.13512e-10
3.66808e-10
2.00187e-09
-3.59105e-11
-5.30755e-10
4.97393e-10
-1.05007e-10
-1.00456e-09
-2.80846e-10
-4.56195e-10
-8.68955e-10
-4.66175e-10
-8.65563e-10
-2.82467e-10
-9.73153e-11
-1.20149e-09
4.20184e-10
9.22916e-10
-1.44175e-09
8.89302e-10
2.69852e-09
-1.54913e-09
1.15457e-09
4.62893e-09
-1.44175e-09
1.04336e-09
6.18447e-09
-1.15109e-09
8.91456e-11
7.96452e-09
-1.30915e-09
9.19714e-09
-2.14706e-09
-1.43028e-09
-7.68883e-09
-1.43028e-09
-6.16086e-09
1.20733e-08
-2.95939e-09
-9.04233e-09
1.02551e-08
-3.13492e-09
-1.06329e-08
9.73533e-09
-3.279e-09
-1.08645e-08
8.60485e-09
-2.98628e-09
-9.78596e-09
6.33848e-09
-2.47896e-09
-7.86932e-09
3.42681e-09
-1.75142e-09
-5.76049e-09
7.53722e-10
-9.94893e-10
-3.89122e-09
-8.80848e-10
-3.62044e-10
-2.5164e-09
-7.3119e-10
-6.01273e-11
-1.62025e-09
1.2179e-09
-1.4358e-10
-6.92856e-10
4.08429e-09
-4.55123e-10
5.26863e-10
7.28219e-09
-8.13378e-10
2.0363e-09
9.75349e-09
-9.15054e-10
3.57786e-09
1.09478e-08
-7.22403e-10
4.76091e-09
1.07028e-08
-2.33922e-10
5.2301e-09
9.22775e-09
3.17908e-10
4.67196e-09
7.13496e-09
7.65033e-10
3.20662e-09
5.03969e-09
9.09959e-10
1.3434e-09
3.31024e-09
7.06794e-10
-2.496e-10
1.98758e-09
1.96067e-10
-1.21256e-09
9.57011e-10
-2.40316e-10
-1.47993e-09
3.86572e-10
-5.8398e-10
-1.31489e-09
5.34157e-10
-7.87252e-10
-1.14376e-09
1.7374e-09
-9.27493e-10
-1.0364e-09
3.74152e-09
-1.01585e-09
-1.00951e-09
5.83241e-09
-1.01498e-09
-1.37689e-09
8.08498e-09
-1.26569e-09
-1.67805e-09
1.03792e-08
-1.86373e-09
8.98964e-09
-1.37632e-09
-3.59389e-09
-4.70647e-10
-3.59389e-09
-5.65782e-09
1.79155e-08
-3.80829e-09
-6.59036e-09
1.44905e-08
-3.32576e-09
-6.47681e-09
1.2523e-08
-2.91364e-09
-5.46369e-09
9.74168e-09
-2.14585e-09
-4.0271e-09
6.16854e-09
-1.24579e-09
-2.7395e-09
2.56548e-09
-3.95404e-10
-2.08815e-09
-3.67771e-11
1.68264e-10
-2.09069e-09
-1.29196e-09
4.28018e-10
-2.47146e-09
-5.74392e-10
2.14693e-10
-2.58984e-09
1.589e-09
-2.86364e-10
-1.90536e-09
4.18616e-09
-8.34834e-10
-2.77398e-10
6.66161e-09
-1.05289e-09
1.94433e-09
8.45873e-09
-9.49746e-10
4.14871e-09
9.28117e-09
-5.24307e-10
5.64295e-09
9.20969e-09
4.83946e-11
6.00543e-09
8.46911e-09
4.64322e-10
5.16904e-09
7.38198e-09
6.46505e-10
3.55742e-09
6.10432e-09
5.62783e-10
1.80001e-09
4.70603e-09
3.19195e-10
4.49017e-10
3.15889e-09
8.57296e-11
-3.15276e-10
1.57452e-09
3.14906e-11
-7.32438e-10
5.23412e-10
1.85138e-10
-1.25741e-09
5.5148e-10
4.67105e-10
-1.89259e-09
1.79977e-09
5.99846e-10
-2.41989e-09
3.69797e-09
6.51777e-10
-2.76596e-09
5.73178e-09
5.43116e-10
-2.80382e-09
7.86253e-09
3.1415e-10
-1.53708e-09
8.62847e-09
4.40754e-10
5.51485e-09
1.80664e-09
-3.57563e-09
6.6489e-09
-3.57563e-09
-3.27109e-09
2.03847e-08
-2.88859e-09
-2.68108e-09
1.62845e-08
-2.47975e-09
-1.61828e-09
1.33517e-08
-1.96728e-09
-3.43693e-10
9.74772e-09
-1.33171e-09
6.33597e-10
5.85768e-09
-6.95534e-10
8.7508e-10
2.62419e-09
-3.16787e-10
1.69762e-10
8.37113e-10
-1.85277e-10
-1.1601e-09
4.50477e-10
-4.40675e-10
-2.36827e-09
1.4165e-09
-8.27509e-10
-2.74742e-09
3.05329e-09
-1.14377e-09
-2.00101e-09
4.60195e-09
-1.2243e-09
-2.49042e-10
5.88113e-09
-1.02386e-09
1.95838e-09
6.74027e-09
-5.2157e-10
3.85098e-09
7.28852e-09
8.72899e-11
4.94664e-09
7.70187e-09
4.06706e-10
5.07672e-09
7.78636e-09
5.32894e-10
4.43272e-09
7.51033e-09
4.60249e-10
3.46037e-09
6.69029e-09
2.85733e-10
2.58767e-09
5.23021e-09
2.13675e-10
1.9343e-09
3.35575e-09
3.17784e-10
1.28726e-09
1.52397e-09
5.91873e-10
2.77707e-10
6.2766e-10
8.57429e-10
-1.04487e-09
9.50513e-10
9.3273e-10
-2.27517e-09
2.22843e-09
8.41265e-10
-2.92395e-09
3.60045e-09
7.75534e-10
-2.89903e-09
4.87154e-09
8.13703e-10
-1.91361e-09
5.63035e-09
1.15124e-09
-2.59307e-10
4.85706e-09
1.9752e-09
3.5131e-09
1.68477e-09
-2.67257e-09
1.19111e-08
-2.67257e-09
-9.84563e-10
2.05103e-08
-1.97554e-09
3.40613e-10
1.66791e-08
-1.85205e-09
1.57059e-09
1.35296e-08
-1.51284e-09
2.71698e-09
9.69597e-09
-1.16985e-09
3.19927e-09
6.19152e-09
-8.66169e-10
2.75195e-09
3.69253e-09
-6.55032e-10
1.60032e-09
2.5022e-09
-5.41295e-10
1.04677e-10
2.42674e-09
-5.08973e-10
-1.06008e-09
3.01062e-09
-4.59398e-10
-1.43492e-09
3.60498e-09
-2.03956e-10
-8.61712e-10
3.78085e-09
2.31315e-10
3.23908e-10
3.99314e-09
7.02119e-10
1.54868e-09
4.37623e-09
1.1546e-09
2.42111e-09
5.0152e-09
1.42242e-09
2.8545e-09
5.89801e-09
1.3826e-09
2.97257e-09
6.55594e-09
1.10057e-09
3.0121e-09
6.62059e-09
8.09955e-10
3.04051e-09
5.9535e-09
6.51688e-10
2.93984e-09
4.58728e-09
6.97283e-10
2.43717e-09
3.01841e-09
8.33791e-10
1.19759e-09
1.98481e-09
8.28088e-10
-5.829e-10
2.029e-09
4.7306e-10
-2.22002e-09
2.8861e-09
-1.9441e-10
-3.05379e-09
3.94745e-09
-8.10787e-10
-2.89585e-09
4.40139e-09
-9.38738e-10
-1.98045e-09
4.73182e-09
-8.06558e-10
-6.79722e-10
4.86153e-09
-5.74517e-10
-1.6998e-10
4.99618e-09
-6.24021e-10
5.49794e-09
-2.01003e-09
-1.83164e-09
1.54698e-08
-1.83164e-09
2.04646e-10
1.96922e-08
-1.35566e-09
1.87704e-09
1.62299e-08
-1.32284e-09
3.38839e-09
1.29322e-08
-9.81898e-10
4.52303e-09
9.08857e-09
-5.66232e-10
4.86099e-09
5.92039e-09
-8.35689e-11
4.36803e-09
3.90354e-09
2.79074e-10
3.2969e-09
3.02117e-09
5.56592e-10
2.06061e-09
2.82225e-09
8.49788e-10
1.15791e-09
2.68792e-09
1.2406e-09
6.77986e-10
2.34134e-09
1.76891e-09
3.90267e-10
1.72453e-09
2.38275e-09
7.41905e-11
1.55713e-09
2.80317e-09
-3.02231e-10
2.05378e-09
2.75532e-09
-5.36346e-10
3.06768e-09
2.23185e-09
-3.20336e-10
4.15479e-09
1.55997e-09
3.2357e-10
4.95866e-09
9.64875e-10
1.24503e-09
5.03263e-09
6.65886e-10
1.97567e-09
4.59696e-09
6.34256e-10
1.97712e-09
3.92569e-09
7.01105e-10
8.79743e-10
3.59938e-09
6.00966e-10
-9.53858e-10
3.88922e-09
4.4261e-11
-2.81271e-09
4.84972e-09
-8.50247e-10
-3.74046e-09
5.34984e-09
-1.46329e-09
-3.29964e-09
5.02059e-09
-1.49524e-09
-2.13098e-09
4.53432e-09
-1.32061e-09
-1.01043e-09
4.84258e-09
-1.24895e-09
-5.33374e-10
5.88538e-09
-1.46669e-09
-9.20286e-10
7.88103e-09
-2.38331e-09
7.02895e-09
-2.37865e-09
-1.01035e-09
1.74154e-08
-1.01035e-09
1.43007e-09
1.76326e-08
-4.37825e-10
3.2054e-09
1.45407e-08
-1.12022e-10
4.7771e-09
1.09537e-08
4.021e-10
5.75822e-09
7.2217e-09
8.94142e-10
5.99049e-09
4.36649e-09
1.33446e-09
5.51186e-09
2.74131e-09
1.65159e-09
4.61989e-09
1.89264e-09
2.02612e-09
3.59665e-09
1.4537e-09
2.3929e-09
2.59151e-09
9.78144e-10
2.71468e-09
1.37289e-09
5.89016e-10
2.97273e-09
-2.13444e-10
4.57797e-10
2.85792e-09
-1.86313e-09
9.02212e-10
2.30931e-09
-3.09478e-09
1.80861e-09
1.47388e-09
-3.54712e-09
2.99391e-09
5.06507e-10
-2.88065e-09
3.54891e-09
-1.02332e-10
-1.4735e-09
3.77555e-09
-2.84622e-10
-1.05113e-10
3.85212e-09
-2.5395e-10
4.72893e-10
4.07228e-09
-1.06616e-10
-8.37043e-11
4.65155e-09
-1.983e-10
-1.50216e-09
5.6736e-09
-6.6648e-10
-3.06801e-09
6.79118e-09
-1.35199e-09
-3.67955e-09
6.98462e-09
-1.57039e-09
-2.98641e-09
5.83683e-09
-1.26675e-09
-1.69961e-09
4.17067e-09
-5.4464e-10
-8.32952e-10
3.55109e-09
1.7238e-11
-5.37792e-10
4.38967e-09
8.59962e-11
-7.21098e-10
6.36699e-09
-3.47431e-10
-6.40173e-10
8.5733e-09
-8.57198e-10
6.35898e-09
-2.01442e-10
2.51258e-10
1.68959e-08
2.51258e-10
2.74773e-09
1.42219e-08
9.15657e-10
4.50165e-09
1.14769e-08
1.31862e-09
5.71938e-09
7.91752e-09
1.82292e-09
6.13165e-09
4.51515e-09
2.28688e-09
5.72269e-09
2.25677e-09
2.4944e-09
4.86152e-09
1.0779e-09
2.48174e-09
3.88624e-09
5.15316e-10
2.29253e-09
2.84684e-09
3.16319e-10
2.10314e-09
1.51414e-09
3.19576e-10
1.9088e-09
-2.62258e-10
6.72801e-10
1.60556e-09
-2.36237e-09
1.51322e-09
9.54707e-10
-4.27724e-09
2.64738e-09
7.46315e-11
-5.1829e-09
3.25762e-09
-6.4931e-10
-4.75512e-09
3.31078e-09
-8.67938e-10
-3.28328e-09
2.74896e-09
-8.15517e-10
-1.64042e-09
2.43506e-09
-4.61237e-10
-8.19134e-10
3.06164e-09
-1.9259e-10
-1.08053e-09
4.48263e-09
-3.00746e-10
-2.15241e-09
6.42756e-09
-8.4178e-10
-3.22326e-09
8.08986e-09
-1.47776e-09
-3.29227e-09
8.40359e-09
-1.68419e-09
-2.16489e-09
6.91174e-09
-1.20803e-09
-6.88491e-10
4.30106e-09
-9.3095e-11
4.98144e-11
2.68139e-09
6.17774e-10
-1.88896e-10
3.02159e-09
6.52829e-10
-6.13916e-10
4.31441e-09
3.7296e-10
-7.15136e-10
5.88496e-09
3.98995e-10
-1.09968e-10
7.16982e-09
5.09424e-10
5.8213e-09
1.31569e-10
1.32452e-09
1.42584e-08
1.32452e-09
3.65393e-09
9.79582e-09
2.07509e-09
5.00059e-09
7.60755e-09
2.48879e-09
5.38574e-09
4.77389e-09
2.70586e-09
4.78804e-09
2.4373e-09
2.60402e-09
3.61535e-09
1.14265e-09
2.19823e-09
2.47377e-09
4.51902e-10
1.66472e-09
1.49833e-09
1.72841e-10
1.20416e-09
5.45411e-10
2.37874e-10
9.10861e-10
-7.23962e-10
7.88653e-10
6.77703e-10
-2.41389e-09
1.90882e-09
3.33399e-10
-4.08184e-09
3.13664e-09
-7.23995e-11
-4.97625e-09
3.74542e-09
-3.19668e-10
-4.69792e-09
3.14353e-09
-2.86087e-10
-3.4493e-09
1.79352e-09
1.33832e-10
-2.00686e-09
5.93837e-10
5.62832e-10
-1.33619e-09
5.84607e-10
1.0216e-09
-1.69048e-09
2.26016e-09
1.0029e-09
-2.75298e-09
5.07524e-09
3.34967e-10
-3.55251e-09
7.60073e-09
-4.87219e-10
-3.28148e-09
8.49453e-09
-7.73757e-10
-1.79598e-09
7.11171e-09
-2.81414e-10
-2.24799e-11
4.43844e-09
6.2597e-10
6.00934e-10
2.39905e-09
1.22319e-09
-1.39698e-10
2.31432e-09
1.05879e-09
-1.18068e-09
3.66303e-09
3.25138e-10
-1.5772e-09
4.77241e-09
-1.92538e-10
-1.23618e-09
5.53132e-09
-1.79921e-10
-4.2418e-10
6.42058e-09
-2.75644e-10
5.18802e-09
1.60671e-10
2.16899e-09
9.90366e-09
2.16899e-09
3.64911e-09
5.66676e-09
2.55931e-09
4.26702e-09
4.23792e-09
2.65913e-09
3.76301e-09
2.67894e-09
2.50143e-09
2.47085e-09
1.56152e-09
2.07045e-09
1.0755e-09
8.95437e-10
1.54825e-09
-5.01692e-11
3.66045e-10
1.1214e-09
-8.45291e-10
-3.64857e-11
9.18695e-10
-1.60243e-09
4.48421e-11
8.69947e-10
-2.61819e-09
9.21403e-10
8.10447e-10
-3.67328e-09
2.252e-09
6.48231e-10
-4.25829e-09
3.15303e-09
5.11147e-10
-3.87131e-09
2.682e-09
6.17225e-10
-2.61772e-09
8.22778e-10
9.94785e-10
-1.30178e-09
-1.2062e-09
1.59048e-09
-9.20783e-10
-1.92208e-09
2.02312e-09
-1.56758e-09
-6.56714e-10
1.77264e-09
-2.66142e-09
2.2136e-09
1.04173e-09
-3.33813e-09
5.42531e-09
2.58891e-10
-2.81223e-09
6.80812e-09
2.29353e-10
-1.06167e-09
5.93781e-09
7.87072e-10
7.1574e-10
3.60233e-09
1.71881e-09
1.08574e-09
1.47725e-09
2.57644e-09
-2.79061e-10
1.31455e-09
2.41864e-09
-1.91212e-09
2.40419e-09
1.46962e-09
-2.76855e-09
3.51286e-09
8.77966e-10
-2.79977e-09
4.07707e-09
5.71081e-10
-2.00049e-09
4.16168e-09
4.3445e-10
-4.84227e-11
3.5021e-09
8.95161e-10
2.4814e-09
2.66474e-09
2.27352e-09
5.29695e-09
2.27352e-09
2.96719e-09
2.31751e-09
2.53588e-09
2.92813e-09
1.66909e-09
2.50909e-09
1.93406e-09
1.35187e-09
2.23768e-09
4.3231e-10
1.17303e-09
1.82278e-09
-9.95448e-10
7.92728e-10
1.47656e-09
-2.03359e-09
7.43448e-11
1.28597e-09
-2.86047e-09
-4.84376e-10
1.23876e-09
-3.70861e-09
-2.76535e-10
1.14136e-09
-4.46771e-09
7.56945e-10
9.0326e-10
-4.67049e-09
1.85672e-09
5.81578e-10
-3.99371e-09
1.97804e-09
4.74552e-10
-2.46187e-09
3.93317e-10
7.09603e-10
-9.3471e-10
-1.93069e-09
1.14086e-09
-3.68638e-10
-3.33269e-09
1.43425e-09
-8.95604e-10
-2.69614e-09
1.14942e-09
-1.78729e-09
-3.25147e-10
4.11517e-10
-2.08397e-09
2.47266e-09
-8.16147e-11
-1.07924e-09
4.1641e-09
1.74809e-10
9.20951e-10
3.78903e-09
9.60035e-10
2.70106e-09
1.89927e-09
2.19564e-09
2.88391e-09
2.49746e-10
3.08027e-09
1.15903e-09
1.12736e-10
2.96304e-09
-1.18833e-09
1.47934e-09
2.01368e-09
-2.59519e-09
2.00667e-09
1.59025e-09
-2.85969e-09
1.62015e-09
1.93004e-09
-2.83379e-09
2.0422e-09
1.82748e-09
-1.14809e-09
8.9492e-10
1.44499e-09
1.57884e-09
-2.4777e-09
3.09463e-09
-3.81506e-10
4.19446e-09
2.15104e-09
9.27526e-10
2.15104e-09
2.01709e-09
5.23253e-11
2.29657e-09
1.42001e-09
1.31017e-10
2.05657e-09
2.19718e-10
8.30347e-10
1.65499e-09
-1.23415e-09
1.35487e-09
1.21304e-09
-2.51907e-09
1.13016e-09
8.93832e-10
-3.64913e-09
4.59261e-10
6.97343e-10
-4.73424e-09
6.75621e-11
4.94844e-10
-5.65954e-09
4.28613e-10
1.94458e-10
-6.1154e-09
1.42399e-09
-2.27049e-10
-5.48356e-09
1.53935e-09
-3.33275e-10
-3.73183e-09
1.52414e-10
3.0163e-11
-1.68385e-09
-2.2787e-09
5.3243e-10
-3.54908e-10
-4.34581e-09
9.36313e-10
-2.1844e-10
-4.63898e-09
9.73442e-10
-6.20945e-10
-3.14146e-09
6.37629e-10
-4.8571e-10
-1.0441e-09
3.97344e-10
8.46612e-10
3.7792e-10
6.20161e-10
3.06215e-09
4.82077e-10
1.35856e-09
4.951e-09
-5.82445e-10
2.37851e-09
4.92814e-09
-1.03287e-09
2.82642e-09
3.23554e-09
-6.68157e-10
2.44633e-09
7.93142e-10
7.9484e-10
1.57096e-09
-9.74031e-10
2.32084e-09
7.38086e-10
-1.36236e-09
1.45688e-09
7.75717e-10
-1.17655e-09
-1.96428e-10
1.51402e-09
-8.54266e-10
-2.69483e-10
1.91168e-09
3.97462e-10
-2.6999e-09
2.21547e-09
1.31666e-09
-6.22353e-09
2.57182e-09
7.31822e-10
-3.71031e-11
1.49587e-09
-2.11773e-09
1.49587e-09
6.86885e-10
-4.45275e-10
1.20673e-09
-3.16589e-10
3.77343e-10
6.64366e-10
-1.46888e-09
1.70157e-09
1.85724e-10
-2.52272e-09
2.40357e-09
-8.99513e-11
-3.56565e-09
2.28997e-09
-2.03769e-10
-4.72437e-09
1.79866e-09
-2.48281e-10
-6.00467e-09
1.64584e-09
-3.36968e-10
-6.89457e-09
1.84059e-09
-5.31818e-10
-6.61362e-09
1.56295e-09
-4.13425e-10
-5.00357e-09
-6.62942e-11
-8.13993e-12
-2.70003e-09
-2.88098e-09
6.8591e-10
-7.2597e-10
-5.66385e-09
1.30769e-09
1.12584e-10
-7.08498e-09
1.74246e-09
2.25024e-10
-6.5506e-09
1.61685e-09
5.79546e-10