/*--------------------------------*- C++ -*----------------------------------*\
| =========                 |                                                 |
| \\      /  F ield         | OpenFOAM: The Open Source CFD Toolbox           |
|  \\    /   O peration     | Version:  2312                                  |
|   \\  /    A nd           | Website:  www.openfoam.com                      |
|    \\/     M anipulation  |                                                 |
\*---------------------------------------------------------------------------*/
FoamFile
{
    version     2.0;
    format      ascii;
    arch        "LSB;label=32;scalar=64";
    class       volScalarField;
    location    "1.065074";
    object      alpha.water;
}
// * * * * * * * * * * * * * * * * * * * * * * * * * * * * * * * * * * * * * //

dimensions      [0 0 0 0 0 0 0];

internalField   nonuniform List<scalar> 
90000
(
1
1.00005
1.00004
1.00004
1.00003
1.00003
1.00002
1.00001
1.00001
1
0.999998
0.999997
0.999998
1
1.00001
1.00001
1.00002
1.00003
1.00003
1.00003
1.00002
1.00002
1.00001
1.00001
1.00001
1.00001
1.00002
1.00003
1.00003
1.00003
1.00005
1.00008
1.00006
1.00006
1.00005
1.00004
1.00003
1.00001
1.00001
1
0.999997
0.999997
1
1.00001
1.00002
1.00003
1.00004
1.00004
1.00004
1.00003
1.00002
1.00002
1.00001
1.00001
1.00002
1.00003
1.00004
1.00001
0.999919
0.999608
1.00004
1.00006
1.00005
1.00004
1.00004
1.00003
1.00002
1.00002
1.00001
1
0.999999
0.999996
0.999995
0.999996
0.999999
1
1
1.00001
1.00001
1.00001
1
1
1.00001
1.00001
1.00002
1.00003
1.00006
1.00015
1.00029
0.999965
1.00003
1.00004
1.00004
1.00003
1.00003
1.00003
1.00002
1.00002
1.00002
1.00001
1
0.999998
0.999992
0.999986
0.999981
0.999978
0.999977
0.999978
0.999982
0.999987
0.999992
0.999998
1
1.00001
1.00001
1.00001
0.999987
0.999966
1.00011
1.00001
1.00002
1.00002
1.00002
1.00002
1.00002
1.00002
1.00002
1.00003
1.00002
1.00002
1.00002
1.00001
0.999997
0.999987
0.999977
0.999969
0.999966
0.999968
0.999974
0.999982
0.999992
1
1.00001
1.00001
1.00002
1.00002
1.00003
0.99999
1.00003
0.999999
1.00001
0.999998
1
1
1.00001
1.00002
1.00002
1.00003
1.00003
1.00003
1.00003
1.00002
1.00001
1
0.999989
0.99998
0.999976
0.999977
0.999983
0.999992
1
1.00001
1.00002
1.00002
1.00001
1.00001
1.00002
1
1
0.999989
0.999996
0.999976
0.999981
0.999987
0.999995
1
1.00001
1.00002
1.00003
1.00003
1.00003
1.00003
1.00002
1.00002
1.00001
1
0.999997
0.999996
0.999999
1.00001
1.00001
1.00002
1.00002
1.00003
1.00002
1.00002
1.00001
1
0.999995
0.999995
0.999982
0.999961
0.999967
0.999974
0.999982
0.999992
1
1.00001
1.00002
1.00002
1.00003
1.00003
1.00003
1.00003
1.00002
1.00002
1.00002
1.00001
1.00001
1.00001
1.00002
1.00002
1.00002
1.00002
1.00002
1.00002
1.00001
1
1
1.00001
0.999974
0.99996
0.999966
0.999971
0.999977
0.999983
0.999989
0.999995
1
1.00001
1.00001
1.00002
1.00002
1.00003
1.00003
1.00003
1.00003
1.00002
1.00002
1.00002
1.00001
1.00001
1.00001
1.00001
1.00001
1
1
1
1.00001
1.00001
0.999975
0.999979
0.999983
0.999985
0.999987
0.999988
0.999988
0.999988
0.999989
0.999992
0.999998
1.00001
1.00002
1.00002
1.00003
1.00003
1.00003
1.00003
1.00002
1.00001
1.00001
1
0.999997
0.999991
0.999986
0.999985
0.999988
0.999997
1
1
0.999989
1.00001
1.00001
1.00001
1.00001
1
0.999997
0.999991
0.999987
0.999987
0.999991
0.999998
1.00001
1.00002
1.00002
1.00003
1.00002
1.00002
1.00002
1.00001
1
0.999992
0.999984
0.999978
0.999975
0.999977
0.999985
0.999992
0.999994
0.99999
1.00001
1.00005
1.00004
1.00004
1.00003
1.00002
1.00001
0.999996
0.999989
0.999986
0.999986
0.99999
0.999996
1
1.00001
1.00001
1.00001
1.00001
1.00001
1
0.999996
0.999989
0.999983
0.999979
0.99998
0.999986
0.999993
0.999996
0.999993
0.999995
1.00004
1.00006
1.00006
1.00005
1.00003
1.00002
1
0.999994
0.999986
0.999982
0.999981
0.999981
0.999981
0.999983
0.999984
0.999987
0.999991
0.999994
0.999996
0.999996
0.999994
0.999991
0.999989
0.999989
0.999992
0.999997
0.999999
0.999997
0.999996
1
1.00004
1.00005
1.00004
1.00002
1.00001
0.999999
0.999991
0.999986
0.999983
0.999982
0.99998
0.999977
0.999973
0.999971
0.999971
0.999974
0.99998
0.999986
0.999991
0.999994
0.999995
0.999995
0.999994
0.999995
0.999996
0.999994
0.999989
0.999984
0.999984
0.999981
1.00003
1
0.999995
0.999986
0.999981
0.999979
0.999981
0.999986
0.999989
0.999991
0.999988
0.999983
0.999977
0.999972
0.999971
0.999974
0.99998
0.999986
0.999992
0.999996
0.999997
0.999998
0.999998
0.999997
0.999994
0.999986
0.999976
0.999969
0.999964
0.999959
0.999996
0.99996
0.99996
0.999961
0.999966
0.999975
0.999986
0.999996
1
1
0.999997
0.999989
0.999981
0.999976
0.999975
0.999977
0.999981
0.999986
0.99999
0.999994
0.999997
1
1
1
1
0.999992
0.999984
0.999978
0.999971
0.999979
0.999971
0.99994
0.99995
0.999959
0.999971
0.999984
0.999996
1
1
1
0.999992
0.999983
0.999977
0.999974
0.999974
0.999976
0.999978
0.99998
0.999982
0.999987
0.999994
1
1.00001
1.00001
1.00001
1.00001
1.00001
1
1.00001
1.00002
0.999964
0.999947
0.999959
0.999969
0.99998
0.999989
0.999994
0.999994
0.99999
0.999984
0.999978
0.999975
0.999975
0.999978
0.99998
0.99998
0.999978
0.999977
0.999978
0.999983
0.999992
1
1.00001
1.00001
1.00001
1.00001
1.00001
1.00001
1.00002
1.00002
0.999971
0.999962
0.99997
0.999977
0.999982
0.999985
0.999985
0.999983
0.999979
0.999978
0.999981
0.999987
0.999994
0.999998
0.999998
0.999994
0.999988
0.999984
0.999984
0.999989
0.999995
0.999998
0.999996
0.999989
0.999984
0.999984
0.999988
0.999991
0.999991
0.999971
0.99998
0.999973
0.999977
0.999981
0.999986
0.999988
0.999989
0.99999
0.999992
0.999997
1.00001
1.00002
1.00002
1.00002
1.00001
1
0.999996
0.999993
0.999994
0.999998
0.999998
0.999993
0.999984
0.999976
0.999975
0.999979
0.99998
0.999976
0.999962
0.999953
0.999985
0.999983
0.999988
0.999994
1
1.00001
1.00001
1.00001
1.00001
1.00002
1.00003
1.00003
1.00002
1.00001
1
0.999996
0.999994
0.999997
1
1
0.999996
0.999986
0.99998
0.999982
0.999992
0.999999
0.999997
0.999988
0.999979
0.999996
0.999991
0.999998
1
1.00001
1.00002
1.00002
1.00002
1.00002
1.00002
1.00002
1.00002
1.00001
1
0.999991
0.999987
0.99999
0.999999
1.00001
1.00001
1
0.999992
0.999984
0.999987
0.999999
1.00001
1.00001
1
0.999999
1
1.00001
1
1.00001
1.00002
1.00002
1.00002
1.00002
1.00002
1.00002
1.00001
1.00001
1
0.999994
0.999987
0.999987
0.999994
1.00001
1.00002
1.00002
1.00001
1
0.999991
0.999993
1
1.00001
1.00001
1
0.999994
0.999992
0.999989
0.999978
1.00001
1.00002
1.00002
1.00002
1.00001
1.00001
1.00001
1.00001
1.00001
1.00001
1
0.999994
0.999993
0.999998
1.00001
1.00002
1.00002
1.00001
1
0.999994
0.999997
1.00001
1.00002
1.00002
1.00001
1
0.999999
0.999995
0.999983
0.999991
1.00001
1.00001
1.00001
1.00001
1.00001
1.00001
1.00001
1.00001
1.00001
1.00001
0.999999
0.999992
0.999993
0.999999
1.00001
1.00001
1
0.99999
0.999985
0.999992
1.00001
1.00003
1.00003
1.00002
1.00001
1.00001
1.00001
1.00001
1.00002
1.00004
1
1
1
1
1
1
1
1
1
0.999994
0.999986
0.999984
0.999989
0.999996
1
0.999996
0.999989
0.999986
0.999994
1.00001
1.00003
1.00003
1.00002
1.00001
1.00001
1.00001
1.00001
1.00002
1.00004
1.00002
1
0.999994
0.999991
0.999987
0.999985
0.999986
0.999988
0.999988
0.999985
0.999983
0.999985
0.999993
1
1.00001
1.00001
1.00001
1
1.00001
1.00002
1.00003
1.00002
1.00001
0.999999
0.999994
0.999999
1
0.999996
1.00001
1.00001
0.999974
0.999995
0.99998
0.999977
0.999973
0.999972
0.999975
0.999978
0.999981
0.999984
0.99999
1
1.00001
1.00002
1.00002
1.00002
1.00001
1.00001
1.00001
1.00001
1.00001
0.999997
0.999989
0.999992
0.999997
1
1
1
1
0.999979
0.999999
0.999987
0.999971
0.999972
0.999972
0.999974
0.999976
0.999979
0.999981
0.999985
0.999994
1
1.00001
1.00001
1.00001
1
0.999996
0.999997
0.999997
0.999992
0.999983
0.999976
0.999979
0.999991
0.999992
0.99999
0.999997
1
0.999982
0.999992
1.00003
0.999983
0.999978
0.999981
0.99998
0.999978
0.999976
0.999974
0.999975
0.999981
0.999991
1
1.00001
1
1
0.999997
0.999998
0.999998
0.999993
0.999985
0.999982
0.999982
0.999979
0.99998
0.999975
0.999972
0.999982
0.999988
0.999982
1.00002
0.999999
0.99999
0.999988
0.999986
0.999981
0.999976
0.999972
0.999972
0.999977
0.999987
0.999998
1.00001
1.00001
1.00001
1
1
1
0.999997
0.999992
0.999989
0.999994
0.999995
0.999977
0.999967
0.999973
0.999976
0.999978
0.999991
1.00001
1
0.999979
0.999995
0.999989
0.999985
0.999982
0.999981
0.999982
0.999984
0.999988
0.999994
0.999998
0.999999
0.999997
0.999994
0.999993
0.999991
0.999989
0.999989
0.999995
0.999998
0.999999
0.999995
0.999974
0.999972
0.999991
0.999991
0.999979
1
1
0.999973
0.999997
0.999994
0.999991
0.999992
0.999995
0.999995
0.999993
0.999989
0.999984
0.999982
0.999981
0.999981
0.999983
0.999987
0.999991
0.999992
0.999991
0.999993
1
1
0.999981
0.999975
0.999971
0.999981
0.999993
0.999985
0.999976
0.999997
0.999986
0.999992
1
0.999996
1
1
1
1
0.999992
0.999984
0.999979
0.999978
0.999982
0.999989
0.999997
1
0.999999
0.999994
0.999992
0.999984
0.999986
0.999976
0.999949
0.999956
0.999978
0.999981
0.99997
0.999973
0.999983
0.999992
0.999995
1.00001
0.999999
1
1.00001
1.00001
1
1
0.999994
0.999989
0.999987
0.99999
0.999995
1
1
0.999997
0.999987
0.999978
0.999985
0.999978
0.999974
0.999973
0.999965
0.999987
1.00001
0.999988
0.999969
0.999996
1.00001
0.999996
1
0.999993
0.999994
1.00001
1.00001
1.00001
1.00001
1
0.999994
0.999989
0.999988
0.999991
0.999994
0.999994
0.999991
0.999984
0.999983
0.999981
1
0.999999
0.999989
0.999999
1.00001
1.00002
1.00002
0.999992
0.999994
1.00003
1.00001
0.999996
0.999991
0.999996
0.999997
1
1.00001
1
0.999996
0.999989
0.999985
0.999985
0.999988
0.99999
0.999989
0.999984
0.999982
0.999981
1
0.999997
1.00001
1
0.999989
1
1.00002
1.00001
1
1
1.00002
1.00003
0.999998
0.999993
0.999996
1.00001
1
1
0.999997
0.999991
0.999989
0.999991
0.999996
0.999998
0.999994
0.99999
0.999986
0.999984
0.999993
0.999986
1.00001
1
1.00001
1
1.00001
1.00001
1.00002
0.999998
1
1.00002
1.00001
0.999997
0.999987
0.999997
1
0.999995
1.00001
0.999997
0.999991
0.999996
1
1.00001
1.00001
1
0.999996
0.999998
1
0.999999
1.00002
0.999991
1.00001
1.00001
0.999999
0.999996
1.00001
1.00001
1
0.999988
1.00001
1.00002
0.999987
0.999982
1
1
0.999989
1
1.00002
0.999996
0.999999
1
1
1
1
1.00001
1.00001
1.00001
1.00001
0.999985
1
0.999996
0.999994
1
0.999993
0.999974
0.999992
0.999999
0.999986
0.999998
1.00001
1.00001
0.999987
0.999994
1.00001
0.999992
0.999996
1.00004
1.00004
1
0.999992
0.99999
0.999997
1.00001
1.00001
1
0.999994
0.999987
1
0.999988
0.999982
1.00001
0.999986
0.99999
1.00001
0.999996
0.999995
1.00002
0.999996
1.00001
0.999998
1
1.00001
0.99999
1
1.00001
1.00002
1.00002
1.00001
0.999992
0.999989
1.00001
1.00001
0.999998
0.999984
0.99999
1.00001
0.999997
1
1.00002
0.999971
1.00001
1.00001
0.999992
0.999998
1.00001
0.999993
1.00001
0.999996
1.00001
1.00001
0.999999
1.00002
0.99999
0.999984
1.00002
1.00002
0.999975
0.99997
0.999995
1.00002
1.00001
0.999987
0.999989
1.00001
1.00002
1.00001
1.00002
0.999997
1.00001
0.999987
0.999997
0.999998
0.999986
0.999993
1.00001
1
0.999999
0.999999
1.00001
1.00002
0.999985
0.999961
1.00002
1.00001
0.999978
1
1.00002
0.999985
1.00001
0.999999
0.999975
1
1.00003
1
0.999991
1
1
0.999979
0.999975
1.00001
1.00001
0.999975
0.999999
1.00001
0.999992
0.999986
1.00001
1.00002
0.999972
0.999974
1.00003
0.999981
0.999993
1.00001
0.99999
1.00001
1.00002
0.999966
0.999993
0.999974
1.00001
1.00001
0.99998
1.00001
1.00003
0.999984
0.999983
1.00005
0.999988
0.999972
1.00003
0.999996
0.999984
0.999991
1.00001
1.00003
0.999972
0.999978
1.00004
1
0.99998
1.00001
0.999988
0.999982
1.00002
1.00001
0.999966
0.999915
0.999982
1
1.00001
0.999972
0.999996
1.00001
1.00001
1.00004
0.999961
0.999983
1.00002
0.999992
0.999996
1
0.999971
1.00002
1.00001
0.999965
1.00001
1.00001
0.999955
1.00001
1
0.999979
0.999992
1
0.99999
0.999998
1.00001
0.99989
1
0.999986
0.999967
0.999965
1
1
0.999966
1.00001
0.999994
0.999985
0.999983
0.999979
1
0.999991
0.999994
1
1
1
0.999994
1.00001
1.00002
0.999988
0.999975
1.00002
0.999999
0.999949
0.999992
1
0.999989
0.999928
0.999985
0.999625
0.999921
0.999974
0.999858
0.999917
1.00002
0.999995
0.999986
1.00002
1
0.999989
1
0.999993
0.999993
0.999998
0.999999
1
0.999995
0.999988
1.00001
1.00002
0.999999
0.999975
0.999945
0.999843
0.99996
0.999934
0.999691
0.999901
0.999997
1
1.00001
1
1
1
1
1.00001
1.00001
1
0.999995
0.999959
0.999915
0.999911
0.999938
0.999934
0.999908
0.999913
0.999971
0.999983
1
1
1.00001
1
1
0.999999
1
0.999999
1
0.999995
0.847009
0.826531
0.844064
0.848745
0.855437
0.857337
0.860855
0.864613
0.857801
0.858054
0.854425
0.860303
0.847911
0.857196
0.865119
0.863507
0.858732
0.849197
0.859611
0.855304
0.857855
0.857501
0.864509
0.861157
0.857208
0.854938
0.847883
0.845046
0.827245
0.847367
0.226958
0.200126
0.254898
0.20469
0.220152
0.200365
0.212543
0.192917
0.163293
0.195336
0.18937
0.207631
0.165682
0.165906
0.223404
0.217243
0.16682
0.163288
0.206818
0.191225
0.195152
0.162218
0.192579
0.212877
0.200442
0.220797
0.203278
0.256414
0.197372
0.228723
0.00322014
0.00314529
0.00357981
0.00120217
0.00223309
0.000619159
0.000797627
0.000253913
0.000218582
0.000187216
0.000623011
0.000188725
6.90781e-05
7.11725e-05
0.00011996
0.000125117
9.21082e-05
6.45126e-05
0.000181422
0.00138071
0.000174874
0.000212635
0.000252305
0.000830737
0.0006234
0.00237938
0.00114729
0.00373995
0.0032642
0.00304289
0.000760314
0.0021229
0.00120235
0.000239712
0.000287614
0.000316034
0.000142882
0.000101783
0.000241948
0.000208706
0.000142998
0.000173473
4.08731e-05
1.4754e-05
1.74203e-05
2.44591e-05
5.08225e-05
4.41546e-05
6.49753e-05
0.000111931
0.000182316
0.00022396
0.000109925
0.000146573
0.000335255
0.000317693
0.000273385
0.00111519
0.00217717
0.000743965
0.000104674
0.000357715
0.000223626
4.53987e-05
3.28194e-05
5.12143e-05
0.000173299
2.86879e-05
2.5656e-05
2.35652e-05
5.48058e-05
1.66038e-05
5.06679e-05
1.72436e-05
5.36849e-06
5.64455e-06
2.3716e-05
5.56815e-05
6.09904e-06
6.32927e-05
2.06716e-05
3.54216e-05
2.64451e-05
0.000178451
6.35174e-05
3.76432e-05
4.82443e-05
0.000210896
0.000354384
0.000102298
9.00909e-06
6.37178e-06
3.94693e-05
7.06025e-06
8.88005e-07
3.37963e-07
1.13203e-05
2.58653e-06
1.00917e-06
4.68065e-06
6.89319e-06
3.56956e-06
9.51976e-06
1.53238e-05
5.09693e-06
5.28783e-06
1.69366e-05
1.3217e-05
5.41199e-06
6.41091e-06
8.5343e-07
7.68448e-07
2.211e-06
1.22008e-05
1.78994e-07
9.5788e-07
6.86579e-06
3.79765e-05
6.61269e-06
8.53033e-06
5.98085e-07
9.14413e-07
4.10212e-06
9.18807e-07
1.40186e-07
9.5689e-08
9.98158e-10
1.85816e-08
9.84374e-07
1.46095e-06
3.09404e-07
2.20847e-06
5.91467e-06
6.7058e-06
6.75439e-06
6.74056e-06
5.15471e-06
5.63011e-06
2.81875e-06
3.82628e-07
1.12075e-06
9.22739e-07
1.75018e-08
1.05428e-09
1.01368e-07
1.36503e-07
9.09265e-07
4.19019e-06
9.20425e-07
5.62873e-07
3.28159e-08
8.19276e-08
3.09758e-07
7.15054e-08
2.49865e-08
1.42221e-08
6.04206e-10
3.16067e-09
1.53683e-08
2.12133e-09
1.42439e-09
1.44032e-07
6.18948e-08
5.67932e-07
3.56152e-06
4.13782e-06
5.4242e-07
9.44578e-09
8.36054e-08
2.63414e-09
2.47783e-08
1.42007e-08
2.98884e-09
6.38887e-10
1.72085e-08
2.50134e-08
6.99874e-08
3.15367e-07
8.31439e-08
3.18015e-08
2.12613e-09
7.4837e-09
1.83516e-08
4.33275e-09
1.96418e-09
2.26383e-09
4.19438e-10
1.88653e-10
4.94428e-11
1.24317e-09
2.22529e-10
3.83187e-10
1.28727e-09
4.00813e-09
3.1638e-08
8.54255e-08
3.84833e-09
1.30099e-09
3.5127e-10
3.05949e-10
1.71518e-09
1.1239e-10
2.0149e-10
3.90197e-10
2.18024e-09
1.73916e-09
4.2702e-09
1.85781e-08
7.36523e-09
2.04687e-09
4.93959e-10
1.06857e-09
1.00261e-09
3.72821e-10
2.36923e-10
3.14074e-10
1.13512e-10
4.26317e-11
4.81621e-11
1.34791e-10
8.71308e-11
3.86495e-11
2.94902e-10
3.04674e-10
9.70707e-10
1.1526e-09
2.87523e-10
3.53432e-10
4.3267e-11
9.29836e-11
1.29508e-10
4.63837e-11
4.14995e-11
9.90773e-11
2.78976e-10
2.03323e-10
3.58454e-10
1.01238e-09
1.02555e-09
4.83643e-10
2.34795e-10
3.0972e-10
1.86334e-10
1.07809e-10
7.91739e-11
4.75921e-11
2.61191e-11
1.08585e-11
8.04956e-12
1.13812e-11
9.14874e-12
2.03041e-11
6.62767e-11
1.03218e-10
6.88528e-11
5.43568e-11
8.71775e-11
6.84312e-11
2.11007e-11
9.68002e-12
1.1047e-11
7.85362e-12
1.05483e-11
2.35526e-11
4.12035e-11
7.136e-11
1.0946e-10
1.85639e-10
3.05689e-10
2.38325e-10
3.92689e-11
7.01933e-11
3.78882e-11
2.2128e-11
1.19101e-11
4.80874e-12
2.24767e-12
1.34416e-12
1.06002e-12
1.66026e-12
2.79867e-12
5.10886e-12
1.16767e-11
2.07906e-11
2.3103e-11
1.67848e-11
2.10246e-11
1.18163e-11
5.09504e-12
2.85285e-12
1.64162e-12
1.09425e-12
1.28156e-12
1.9708e-12
4.24796e-12
1.0902e-11
2.13497e-11
3.7982e-11
7.09594e-11
3.98436e-11
4.10652e-12
8.05951e-12
4.73651e-12
1.94957e-12
1.13129e-12
5.5509e-13
2.52112e-13
1.8899e-13
2.42356e-13
4.98661e-13
1.06024e-12
2.26147e-12
4.714e-12
5.029e-12
7.42066e-12
7.10308e-12
4.55953e-12
4.77978e-12
2.281e-12
1.08068e-12
5.06658e-13
2.46291e-13
1.87259e-13
2.35385e-13
4.98778e-13
1.02482e-12
1.90087e-12
4.78352e-12
8.17449e-12
4.1281e-12
3.06369e-13
5.5803e-13
4.62762e-13
1.91549e-13
7.11414e-14
2.6544e-14
1.09864e-14
9.25364e-15
1.55053e-14
3.80094e-14
9.94656e-14
2.67789e-13
5.86168e-13
1.00507e-12
1.46952e-12
1.4685e-12
1.00782e-12
5.94032e-13
2.71393e-13
1.01703e-13
3.91387e-14
1.58508e-14
9.35259e-15
1.04295e-14
2.40438e-14
6.62064e-14
1.90619e-13
4.68035e-13
5.65883e-13
3.09326e-13
1.36069e-14
3.24186e-14
2.08317e-14
7.40012e-15
2.01037e-15
5.85198e-16
2.35778e-16
2.36052e-16
4.42453e-16
1.19167e-15
3.79076e-15
1.2522e-14
3.17189e-14
6.90927e-14
1.08223e-13
1.07856e-13
6.98592e-14
3.21235e-14
1.27463e-14
3.88275e-15
1.22823e-15
4.56029e-16
2.37713e-16
2.21729e-16
5.21994e-16
1.87857e-15
7.32769e-15
2.12429e-14
3.30918e-14
1.37502e-14
3.05197e-16
9.0805e-16
4.55441e-16
1.37443e-16
3.77144e-17
1.06582e-17
4.84986e-18
6.19564e-18
1.28159e-17
3.50705e-17
1.1196e-16
3.72387e-16
1.03981e-15
2.3947e-15
3.91439e-15
3.90787e-15
2.4069e-15
1.05256e-15
3.81358e-16
1.15794e-16
3.63622e-17
1.32904e-17
6.25557e-18
4.59374e-18
9.3096e-18
3.45152e-17
1.37149e-16
4.6594e-16
9.29825e-16
3.09788e-16
5.07004e-18
1.60008e-17
7.90253e-18
2.28297e-18
6.12783e-19
1.71826e-19
9.8299e-20
1.58151e-19
3.4995e-19
9.46975e-19
2.89868e-18
9.28733e-18
2.54071e-17
5.72235e-17
9.36091e-17
9.41381e-17
5.7843e-17
2.56819e-17
9.50937e-18
3.00971e-18
9.80209e-19
3.62107e-19
1.61061e-19
9.43094e-20
1.49984e-19
5.5408e-19
2.25882e-18
8.04758e-18
1.64256e-17
5.1167e-18
6.98652e-20
2.43489e-19
1.16131e-19
3.26285e-20
8.24557e-21
2.42716e-21
1.88639e-21
3.62603e-21
8.23687e-21
2.16557e-20
6.42217e-20
1.98201e-19
5.21176e-19
1.14572e-18
1.85508e-18
1.8555e-18
1.15213e-18
5.30034e-19
2.03563e-19
6.65739e-20
2.24908e-20
8.56483e-21
3.7528e-21
1.84514e-21
2.10999e-21
7.52143e-21
3.20356e-20
1.19429e-19
2.49339e-19
7.16684e-20
7.94628e-22
3.07717e-21
1.44206e-21
3.79282e-22
9.54421e-23
3.07278e-23
3.38461e-23
7.3866e-23
1.65364e-22
4.15091e-22
1.17219e-21
3.44411e-21
8.80243e-21
1.89927e-20
3.01455e-20
3.00789e-20
1.90588e-20
8.97589e-21
3.5395e-21
1.20849e-21
4.28923e-22
1.71267e-22
7.67387e-23
3.41813e-23
2.67374e-23
8.49464e-23
3.76466e-22
1.46853e-21
3.17197e-21
8.28821e-22
7.62412e-24
3.1329e-23
1.47838e-23
3.74566e-24
9.28147e-25
3.51204e-25
5.65454e-25
1.30101e-24
2.78394e-24
6.55532e-24
1.74328e-23
4.87816e-23
1.19415e-22
2.46052e-22
3.81902e-22
3.84147e-22
2.48351e-22
1.20403e-22
4.964e-23
1.81019e-23
6.84232e-24
2.89827e-24
1.35233e-24
5.87423e-25
3.23469e-25
8.00452e-25
3.64671e-24
1.4907e-23
3.3121e-23
7.84091e-24
5.66758e-26
2.77271e-25
1.20598e-25
3.06492e-26
7.33578e-27
3.98983e-27
8.57284e-27
1.92011e-26
3.84533e-26
8.46919e-26
2.1158e-25
5.53523e-25
1.2697e-24
2.50893e-24
3.87941e-24
3.93579e-24
2.58042e-24
1.29614e-24
5.6498e-25
2.20595e-25
8.91968e-26
4.05809e-26
2.01632e-26
8.9227e-27
3.87077e-27
6.44668e-27
2.92028e-26
1.24622e-25
2.836e-25
6.05521e-26
3.54848e-28
1.92114e-27
8.34408e-28
2.02877e-28
5.25847e-29
4.51615e-29
1.0993e-28
2.35446e-28
4.45e-28
9.08836e-28
2.06423e-27
4.85424e-27
1.0373e-26
1.97975e-26
2.99679e-26
2.99288e-26
2.00289e-26
1.07374e-26
5.0896e-27
2.17017e-27
9.55847e-28
4.7389e-28
2.5344e-28
1.1698e-28
4.50678e-29
4.61684e-29
1.94051e-28
8.55401e-28
1.99081e-27
3.83001e-28
1.96482e-30
1.05633e-29
4.98481e-30
1.15195e-30
3.52848e-31
4.58065e-31
1.1801e-30
2.4362e-30
4.2743e-30
7.84542e-30
1.58762e-29
3.38545e-29
6.82626e-29
1.23563e-28
1.78565e-28
1.78735e-28
1.26863e-28
7.34374e-29
3.72578e-29
1.71991e-29
8.35137e-30
4.58546e-30
2.65737e-30
1.29404e-30
4.83206e-31
3.07328e-31
1.07054e-30
4.82597e-30
1.1498e-29
1.99317e-30
7.81905e-33
5.40374e-32
2.33316e-32
5.68556e-33
2.20736e-33
4.29245e-33
1.11636e-32
2.1212e-32
3.29898e-32
5.33386e-32
9.74015e-32
1.91386e-31
3.54119e-31
5.86627e-31
8.113e-31
8.32156e-31
6.19721e-31
3.77161e-31
2.06751e-31
1.08004e-31
5.98409e-32
3.65177e-32
2.28628e-32
1.18583e-32
4.57321e-33
2.05623e-33
5.06155e-33
2.26959e-32
5.45538e-32
8.52773e-33
2.90501e-35
2.25337e-34
9.14024e-35
2.43502e-35
1.38519e-35
3.53611e-35
8.6364e-35
1.48807e-34
2.09514e-34
3.09962e-34
5.12401e-34
8.72352e-34
1.3783e-33
2.06659e-33
2.82147e-33
2.99773e-33
2.34438e-33
1.54386e-33
9.59202e-34
5.73799e-34
3.54533e-34
2.36897e-34
1.62226e-34
9.22486e-35
3.80346e-35
1.41719e-35
2.14008e-35
8.89109e-35
2.10582e-34
3.04282e-35
1.05982e-37
6.82108e-37
3.34946e-37
9.5376e-38
8.76723e-38
2.37074e-37
5.463e-37
8.85422e-37
1.16545e-36
1.56774e-36
2.21487e-36
3.15032e-36
4.45903e-36
6.50838e-36
8.72073e-36
8.92502e-36
7.05245e-36
5.11434e-36
3.66198e-36
2.48941e-36
1.71643e-36
1.28369e-36
9.86092e-37
6.19994e-37
2.71293e-37
9.31378e-38
8.30177e-38
2.89394e-37
6.80301e-37
9.55807e-38
2.55683e-40
2.02498e-39
1.05796e-39
3.71159e-40
4.96717e-40
1.41229e-39
3.17792e-39
4.74549e-39
5.54108e-39
6.25555e-39
7.25918e-39
9.15864e-39
1.24102e-38
1.66866e-38
1.92928e-38
1.80743e-38
1.55426e-38
1.36705e-38
1.16377e-38
8.92133e-39
6.87631e-39
5.82913e-39
5.05745e-39
3.49595e-39
1.6162e-39
5.49601e-40
3.25873e-40
8.46809e-40
1.96696e-39
2.74708e-40
6.45601e-43
6.36701e-42
2.88288e-42
1.41578e-42
2.51922e-42
7.41684e-42
1.51645e-41
2.01305e-41
2.04553e-41
1.99606e-41
2.11343e-41
2.54976e-41
3.04817e-41
3.29252e-41
3.24058e-41
3.16222e-41
3.23376e-41
3.25702e-41
2.98065e-41
2.48913e-41
2.21967e-41
2.22195e-41
2.22983e-41
1.69569e-41
8.26386e-42
2.88547e-42
1.37057e-42
2.4231e-42
5.18559e-42
7.27212e-43
2.14173e-45
1.42553e-44
7.69977e-45
5.33392e-45
1.18701e-44
3.13104e-44
5.71159e-44
7.00338e-44
6.39879e-44
5.75539e-44
5.72493e-44
5.9732e-44
5.45761e-44
4.73566e-44
4.56529e-44
5.02151e-44
5.45879e-44
5.53046e-44
5.44777e-44
5.52768e-44
6.23986e-44
7.44644e-44
8.46328e-44
6.83317e-44
3.49219e-44
1.2881e-44
5.70593e-45
7.04023e-45
1.2653e-44
1.84839e-45
4.40488e-48
2.86389e-47
2.04739e-47
1.96151e-47
4.383e-47
1.0572e-46
1.91215e-46
2.16872e-46
1.81953e-46
1.43685e-46
1.20624e-46
9.73063e-47
7.14876e-47
5.72582e-47
5.80938e-47
6.35883e-47
6.46787e-47
6.71812e-47
8.09932e-47
1.07022e-46
1.47252e-46
1.99569e-46
2.37693e-46
2.12102e-46
1.20279e-46
4.93526e-47
2.21452e-47
2.13772e-47
3.03062e-47
4.72863e-48
1.04929e-50
6.94538e-50
5.52694e-50
5.87886e-50
1.19605e-49
2.93914e-49
5.1255e-49
4.96573e-49
3.81281e-49
2.53492e-49
1.80923e-49
1.2954e-49
9.2068e-50
7.31204e-50
6.6156e-50
5.8954e-50
5.53552e-50
6.75444e-50
1.05735e-49
1.71631e-49
2.67034e-49
4.07126e-49
5.22181e-49
5.61627e-49
3.69322e-49
1.66257e-49
7.51704e-50
6.27989e-50
7.15517e-50
1.18649e-50
2.6521e-53
1.46674e-52
1.33446e-52
1.37618e-52
2.90985e-52
6.81307e-52
1.0203e-51
9.00889e-52
6.00619e-52
3.58615e-52
2.42231e-52
1.72932e-52
1.18352e-52
7.83809e-53
5.37532e-53
4.15835e-53
4.54092e-53
7.4208e-53
1.41514e-52
2.53766e-52
4.21133e-52
7.02803e-52
1.06786e-51
1.27449e-51
9.45568e-52
4.39483e-52
1.98296e-52
1.56512e-52
1.58491e-52
2.79345e-53
4.19459e-56
2.83317e-55
2.37572e-55
2.73331e-55
5.85951e-55
1.22796e-54
1.74139e-54
1.51863e-54
9.37478e-55
5.35182e-55
3.54869e-55
2.36373e-55
1.34805e-55
7.13587e-56
4.41311e-56
3.8895e-56
5.27019e-56
9.51069e-56
1.81139e-55
3.20558e-55
5.52254e-55
1.01923e-54
1.7951e-54
2.28495e-54
1.81626e-54
8.58272e-55
4.03358e-55
3.27315e-55
3.27904e-55
6.02468e-56
8.25024e-59
5.10088e-58
3.93074e-58
5.03501e-58
9.18783e-58
1.90185e-57
2.67623e-57
2.24214e-57
1.26812e-57
7.0369e-58
4.4118e-58
2.54983e-58
1.24566e-58
6.42654e-59
4.53852e-59
4.59267e-59
6.12115e-59
9.90001e-59
1.79333e-58
3.33171e-58
6.51335e-58
1.38807e-57
2.74812e-57
3.57573e-57
2.89616e-57
1.3864e-57
7.00599e-58
6.04543e-58
6.22508e-58
1.14768e-58
2.20431e-61
6.18166e-61
7.9246e-61
9.39562e-61
1.61575e-60
3.4873e-60
4.15695e-60
3.15463e-60
1.62427e-60
8.57272e-61
4.79529e-61
2.45049e-61
1.17299e-61
6.84686e-62
5.41429e-62
5.34001e-62
6.42992e-62
9.82843e-62
1.94421e-61
4.24483e-61
9.50808e-61
2.15884e-60
4.25742e-60
5.25308e-60
4.09209e-60
1.98523e-60
1.09075e-60
9.94857e-61
1.05481e-60
1.92502e-61
1.80053e-64
1.15086e-63
1.664e-63
1.72299e-63
3.11792e-63
6.13057e-63
6.10591e-63
4.5762e-63
2.29914e-63
1.14656e-63
5.74696e-64
2.73196e-64
1.33551e-64
8.11365e-65
6.11054e-65
5.50273e-65
6.54309e-65
1.10524e-64
2.53103e-64
6.08484e-64
1.36952e-63
2.92095e-63
5.46241e-63
6.39735e-63
5.14835e-63
2.71533e-63
1.63415e-63
1.5557e-63
1.66875e-63
2.97634e-64
2.98051e-67
3.36923e-66
2.80599e-66
2.76423e-66
4.57763e-66
7.56857e-66
7.20671e-66
5.70727e-66
2.87265e-66
1.32578e-66
6.02025e-67
2.67971e-67
1.24266e-67
6.84294e-68
4.58496e-68
4.03917e-68
5.41316e-68
1.08838e-67
2.76796e-67
6.66504e-67
1.41906e-66
2.93395e-66
5.85714e-66
7.35286e-66
7.0108e-66
4.11909e-66
2.56111e-66
2.42604e-66
2.53e-66
4.33485e-67
9.58166e-70
4.72482e-69
3.58573e-69
3.63045e-69
5.48108e-69
8.48441e-69
8.25579e-69
6.42378e-69
2.97832e-69
1.20532e-69
4.89531e-70
2.02193e-70
8.63323e-71
4.28179e-71
2.77188e-71
2.7538e-71
4.474e-71
1.02489e-70
2.64241e-70
6.09455e-70
1.28494e-69
2.86629e-69
6.64396e-69
9.70645e-69
1.02401e-68
6.14945e-69
3.69913e-69
3.41304e-69
3.53189e-69
5.97006e-70
1.01106e-72
3.43748e-72
3.98948e-72
4.26981e-72
6.62736e-72
1.00516e-71
9.60777e-72
6.69685e-72
2.73844e-72
9.71115e-73
3.71399e-73
1.54655e-73
6.69728e-74
3.42792e-74
2.43488e-74
2.73285e-74
4.69265e-74
1.0303e-73
2.4292e-73
5.31043e-73
1.1656e-72
2.88654e-72
7.37165e-72
1.14134e-71
1.17705e-71
6.81168e-72
4.18271e-72
4.03658e-72
4.59195e-72
8.0697e-73
5.80013e-76
5.84214e-75
5.79223e-75
5.67052e-75
7.68458e-75
1.00149e-74
9.33635e-75
6.06598e-75
2.30097e-75
7.87871e-76
3.20291e-76
1.46382e-76
6.79724e-77
3.66881e-77
2.69423e-77
2.91251e-77
4.45202e-77
8.37552e-77
1.78396e-76
3.93403e-76
9.40782e-76
2.53557e-75
6.61271e-75
9.73256e-75
9.49162e-75
5.58655e-75
3.98507e-75
4.40071e-75
5.86763e-75
1.06673e-75
1.49252e-78
1.37605e-77
8.73575e-78
7.27015e-78
7.72035e-78
9.27612e-78
9.31007e-78
6.13514e-78
2.29899e-78
8.3209e-79
3.70682e-79
1.76152e-79
8.02401e-80
4.1353e-80
2.8057e-80
2.65983e-80
3.48561e-80
5.89646e-80
1.25829e-79
3.0587e-79
8.06734e-79
2.24306e-78
5.57836e-78
7.53306e-78
7.11022e-78
4.62895e-78
3.72353e-78
4.7726e-78
6.96499e-78
1.23733e-78
4.39947e-81
1.35871e-80
9.19978e-81
6.3202e-81
6.88554e-81
1.01767e-80
1.08908e-80
7.09902e-81
2.67324e-81
1.03101e-81
4.65341e-82
2.07381e-82
8.63128e-83
4.134e-83
2.64665e-83
2.35907e-83
2.98508e-83
5.16431e-83
1.19171e-82
3.14835e-82
8.48346e-82
2.24214e-81
5.10396e-81
6.56462e-81
6.1236e-81
4.28868e-81
3.55526e-81
4.66867e-81
6.64765e-81
1.11067e-81
1.88664e-84
6.44227e-84
7.06328e-84
5.68198e-84
7.6666e-84
1.23793e-83
1.15852e-83
6.42738e-84
2.38078e-84
9.06017e-85
3.72568e-85
1.4602e-85
5.69384e-86
2.80903e-86
1.94514e-86
1.88434e-86
2.56838e-86
4.74702e-86
1.13975e-85
3.01764e-85
7.82936e-85
1.96663e-84
4.37531e-84
5.84279e-84
5.65264e-84
4.08179e-84
3.2303e-84
3.91169e-84
4.91088e-84
7.76105e-85
1.00486e-87
1.10925e-86
9.97923e-87
8.33783e-87
1.22186e-86
1.46217e-86
9.84174e-87
4.30405e-87
1.46359e-87
4.72254e-88
1.53853e-88
5.14005e-89
2.04531e-89
1.19305e-89
9.86472e-90
1.08174e-89
1.57609e-89
2.97794e-89
7.09631e-89
1.85102e-88
4.87193e-88
1.31322e-87
3.31159e-87
5.28492e-87
5.69438e-87
4.15449e-87
3.03998e-87
3.15089e-87
3.28279e-87
4.97918e-88
2.37966e-90
2.27483e-89
1.57133e-89
1.34722e-89
1.62764e-89
1.34276e-89
7.8718e-90
3.23887e-90
9.83201e-91
2.51448e-91
6.58305e-92
2.07536e-92
8.68556e-93
5.40377e-93
4.59514e-93
4.96995e-93
7.01487e-93
1.29283e-92
3.06863e-92
8.38194e-92
2.53804e-91
8.4817e-91
2.70948e-90
5.42787e-90
6.49343e-90
4.67455e-90
3.05805e-90
2.71999e-90
2.40058e-90
3.57995e-91
4.90028e-93
1.81134e-92
1.35569e-92
1.07488e-92
1.21762e-92
1.07661e-92
7.54717e-93
3.1828e-93
8.51791e-94
1.8803e-94
4.6183e-95
1.44528e-95
5.98686e-96
3.36413e-96
2.40772e-96
2.30371e-96
3.12478e-96
5.91118e-96
1.48678e-95
4.44846e-95
1.53598e-94
6.08774e-94
2.31965e-93
5.4217e-93
6.86287e-93
4.84381e-93
2.94131e-93
2.4917e-93
2.12985e-93
3.30643e-94
1.84184e-96
8.41504e-96
9.9087e-96
8.67433e-96
1.02379e-95
1.11157e-95
8.06452e-96
2.87274e-96
6.35151e-97
1.30812e-97
3.33874e-98
1.04866e-98
3.8623e-99
1.76959e-99
1.07281e-99
1.00631e-99
1.49974e-99
3.19851e-99
8.77495e-99
2.7252e-98
9.566e-98
3.85579e-97
1.54568e-96
3.93225e-96
5.25289e-96
4.00617e-96
2.65102e-96
2.46215e-96
2.41523e-96
4.03983e-97
1.26731e-99
1.45511e-98
1.40053e-98
1.13719e-98
1.43318e-98
1.44625e-98
7.29718e-99
1.74863e-99
3.13865e-100
6.43105e-101
1.7121e-101
5.18087e-102
1.70893e-102
7.1814e-103
4.56104e-103
4.63158e-103
7.43903e-103
1.72253e-102
4.81271e-102
1.41238e-101
4.51285e-101
1.6964e-100
6.78428e-100
1.95087e-99
3.03091e-99
3.02627e-99
2.47835e-99
2.82474e-99
3.35344e-99
5.87346e-100
2.88678e-102
2.57924e-101
1.83656e-101
1.49029e-101
1.81246e-101
1.49307e-101
4.65452e-102
7.89416e-103
1.41004e-103
3.20759e-104
9.18932e-105
3.0321e-105
1.16267e-105
5.66545e-106
3.66744e-106
3.30849e-106
4.44711e-106
8.70322e-106
2.16845e-105
5.74397e-105
1.70437e-104
6.31447e-104
2.68824e-103
9.22992e-103
1.96358e-102
2.59731e-102
2.60216e-102
3.54018e-102
4.7744e-102
8.26253e-103
4.82019e-105
2.0192e-104
1.40769e-104
1.24707e-104
1.38274e-104
8.7233e-105
2.38819e-105
4.67752e-106
1.00463e-106
2.3507e-107
6.87926e-108
2.66762e-108
1.20738e-108
6.17338e-109
3.83228e-109
2.99281e-109
3.00827e-109
3.93469e-109
8.17919e-109
2.22329e-108
7.61775e-108
3.19941e-107
1.52979e-106
6.31743e-106
1.65912e-105
2.54261e-105
2.77218e-105