/*--------------------------------*- C++ -*----------------------------------*\
| =========                 |                                                 |
| \\      /  F ield         | OpenFOAM: The Open Source CFD Toolbox           |
|  \\    /   O peration     | Version:  2312                                  |
|   \\  /    A nd           | Website:  www.openfoam.com                      |
|    \\/     M anipulation  |                                                 |
\*---------------------------------------------------------------------------*/
FoamFile
{
    version     2.0;
    format      ascii;
    arch        "LSB;label=32;scalar=64";
    class       volScalarField;
    location    "1.065074";
    object      epsilon;
}
// * * * * * * * * * * * * * * * * * * * * * * * * * * * * * * * * * * * * * //

dimensions      [0 2 -3 0 0 0 0];

internalField   nonuniform List<scalar> 
90000
(
9.34447e-06
9.34676e-06
9.34735e-06
9.34758e-06
9.34765e-06
9.34753e-06
9.34727e-06
9.34697e-06
9.34671e-06
9.3465e-06
9.34635e-06
9.34629e-06
9.3463e-06
9.34636e-06
9.34645e-06
9.34664e-06
9.34706e-06
9.34761e-06
9.34801e-06
9.34802e-06
9.34753e-06
9.34669e-06
9.34676e-06
9.34803e-06
9.34924e-06
9.34982e-06
9.34954e-06
9.34872e-06
9.34879e-06
9.35031e-06
9.34707e-06
9.39233e-06
9.39583e-06
9.39575e-06
9.39549e-06
9.39523e-06
9.39506e-06
9.39496e-06
9.39483e-06
9.39465e-06
9.39458e-06
9.3947e-06
9.39489e-06
9.39506e-06
9.39523e-06
9.39537e-06
9.39543e-06
9.39539e-06
9.39522e-06
9.39499e-06
9.39511e-06
9.39543e-06
9.39566e-06
9.39558e-06
9.39507e-06
9.39433e-06
9.39478e-06
9.39628e-06
9.39408e-06
9.3565e-06
9.34772e-06
9.39608e-06
9.39971e-06
9.3996e-06
9.39931e-06
9.39908e-06
9.39902e-06
9.39906e-06
9.39906e-06
9.39891e-06
9.39878e-06
9.39896e-06
9.39928e-06
9.39962e-06
9.39977e-06
9.39964e-06
9.39927e-06
9.39888e-06
9.39919e-06
9.39983e-06
9.40028e-06
9.40047e-06
9.40053e-06
9.40058e-06
9.40085e-06
9.40135e-06
9.40166e-06
9.40238e-06
9.40155e-06
9.35491e-06
9.34778e-06
9.39614e-06
9.39997e-06
9.40006e-06
9.39993e-06
9.39973e-06
9.39961e-06
9.39956e-06
9.39956e-06
9.39947e-06
9.39934e-06
9.39941e-06
9.39962e-06
9.39984e-06
9.39985e-06
9.39963e-06
9.39946e-06
9.39985e-06
9.40047e-06
9.40084e-06
9.40088e-06
9.40085e-06
9.40132e-06
9.40226e-06
9.40315e-06
9.40368e-06
9.40402e-06
9.40362e-06
9.40126e-06
9.35131e-06
9.34752e-06
9.39589e-06
9.40003e-06
9.40033e-06
9.40035e-06
9.40021e-06
9.39998e-06
9.3998e-06
9.39972e-06
9.39966e-06
9.39963e-06
9.3996e-06
9.39951e-06
9.39933e-06
9.39924e-06
9.39959e-06
9.40011e-06
9.40053e-06
9.40071e-06
9.40061e-06
9.40044e-06
9.40077e-06
9.4017e-06
9.4027e-06
9.40334e-06
9.40337e-06
9.4029e-06
9.40201e-06
9.39875e-06
9.35005e-06
9.34717e-06
9.39604e-06
9.40016e-06
9.40054e-06
9.40066e-06
9.40064e-06
9.40048e-06
9.40021e-06
9.39994e-06
9.39979e-06
9.39978e-06
9.39993e-06
9.40014e-06
9.4002e-06
9.40014e-06
9.40014e-06
9.40023e-06
9.40026e-06
9.40014e-06
9.40002e-06
9.40022e-06
9.40075e-06
9.40133e-06
9.40171e-06
9.40181e-06
9.40176e-06
9.40198e-06
9.40326e-06
9.4005e-06
9.35057e-06
9.34735e-06
9.39668e-06
9.40053e-06
9.40084e-06
9.40102e-06
9.40117e-06
9.4012e-06
9.40101e-06
9.40056e-06
9.40004e-06
9.3999e-06
9.40019e-06
9.40065e-06
9.40091e-06
9.40076e-06
9.40025e-06
9.39965e-06
9.39929e-06
9.39944e-06
9.39991e-06
9.40039e-06
9.40064e-06
9.40054e-06
9.40016e-06
9.40036e-06
9.40176e-06
9.4035e-06
9.40493e-06
9.40172e-06
9.35058e-06
9.34773e-06
9.39768e-06
9.40115e-06
9.40136e-06
9.40156e-06
9.40183e-06
9.402e-06
9.40193e-06
9.40154e-06
9.40088e-06
9.4004e-06
9.40041e-06
9.40071e-06
9.40089e-06
9.40068e-06
9.40005e-06
9.39924e-06
9.39874e-06
9.39932e-06
9.39999e-06
9.40038e-06
9.40033e-06
9.3999e-06
9.39992e-06
9.4011e-06
9.40266e-06
9.40416e-06
9.40483e-06
9.40084e-06
9.35009e-06
9.34826e-06
9.39871e-06
9.40188e-06
9.40192e-06
9.40202e-06
9.40225e-06
9.40249e-06
9.40256e-06
9.40239e-06
9.40197e-06
9.4014e-06
9.40083e-06
9.40044e-06
9.40026e-06
9.40022e-06
9.40022e-06
9.40023e-06
9.4003e-06
9.4005e-06
9.40071e-06
9.40071e-06
9.40043e-06
9.40014e-06
9.40066e-06
9.4018e-06
9.40302e-06
9.40391e-06
9.40389e-06
9.39959e-06
9.34966e-06
9.34946e-06
9.3991e-06
9.40204e-06
9.40195e-06
9.40184e-06
9.40188e-06
9.40205e-06
9.40233e-06
9.40257e-06
9.40259e-06
9.40225e-06
9.40149e-06
9.40043e-06
9.39964e-06
9.39988e-06
9.40078e-06
9.40168e-06
9.40233e-06
9.40264e-06
9.40259e-06
9.4022e-06
9.40157e-06
9.40105e-06
9.40108e-06
9.40177e-06
9.40256e-06
9.40297e-06
9.40268e-06
9.3986e-06
9.3496e-06
9.35058e-06
9.39884e-06
9.40166e-06
9.40153e-06
9.40119e-06
9.40086e-06
9.4008e-06
9.40121e-06
9.40184e-06
9.40233e-06
9.4024e-06
9.40192e-06
9.40099e-06
9.39996e-06
9.39984e-06
9.40105e-06
9.40249e-06
9.40365e-06
9.40436e-06
9.4044e-06
9.40382e-06
9.40283e-06
9.40182e-06
9.40122e-06
9.4014e-06
9.40193e-06
9.40233e-06
9.40226e-06
9.39855e-06
9.35009e-06
9.35077e-06
9.39893e-06
9.40196e-06
9.40192e-06
9.40171e-06
9.40145e-06
9.40124e-06
9.4012e-06
9.40136e-06
9.40165e-06
9.40189e-06
9.40186e-06
9.40145e-06
9.40062e-06
9.39978e-06
9.40086e-06
9.40263e-06
9.40409e-06
9.40483e-06
9.40475e-06
9.40402e-06
9.40298e-06
9.40195e-06
9.4012e-06
9.40129e-06
9.40181e-06
9.40231e-06
9.40249e-06
9.39917e-06
9.35058e-06
9.35056e-06
9.39953e-06
9.40286e-06
9.40324e-06
9.40381e-06
9.4043e-06
9.4045e-06
9.40426e-06
9.40346e-06
9.40229e-06
9.40164e-06
9.40192e-06
9.40216e-06
9.40209e-06
9.40187e-06
9.40206e-06
9.40268e-06
9.40313e-06
9.40319e-06
9.40296e-06
9.40258e-06
9.40215e-06
9.40173e-06
9.40142e-06
9.4016e-06
9.40196e-06
9.40237e-06
9.40271e-06
9.39933e-06
9.35079e-06
9.35255e-06
9.39974e-06
9.4039e-06
9.40498e-06
9.40623e-06
9.40719e-06
9.40749e-06
9.40684e-06
9.40526e-06
9.40325e-06
9.40162e-06
9.40174e-06
9.40261e-06
9.40341e-06
9.40382e-06
9.40378e-06
9.40316e-06
9.40191e-06
9.40067e-06
9.40042e-06
9.40102e-06
9.40164e-06
9.40199e-06
9.40205e-06
9.40204e-06
9.40219e-06
9.40256e-06
9.40285e-06
9.39926e-06
9.35114e-06
9.3553e-06
9.39949e-06
9.40537e-06
9.40699e-06
9.40825e-06
9.40876e-06
9.40832e-06
9.40698e-06
9.40506e-06
9.40305e-06
9.40132e-06
9.40123e-06
9.40252e-06
9.40389e-06
9.40464e-06
9.40453e-06
9.40356e-06
9.40198e-06
9.40056e-06
9.40019e-06
9.40102e-06
9.40206e-06
9.40273e-06
9.40291e-06
9.40271e-06
9.40285e-06
9.40328e-06
9.40352e-06
9.40009e-06
9.35256e-06
9.35663e-06
9.40307e-06
9.4078e-06
9.40864e-06
9.40876e-06
9.40804e-06
9.40669e-06
9.4052e-06
9.40393e-06
9.4028e-06
9.40159e-06
9.40118e-06
9.40239e-06
9.40379e-06
9.40456e-06
9.40453e-06
9.40389e-06
9.40293e-06
9.40202e-06
9.4016e-06
9.4019e-06
9.40276e-06
9.40353e-06
9.4038e-06
9.40382e-06
9.40418e-06
9.4048e-06
9.40548e-06
9.40293e-06
9.35455e-06
9.35629e-06
9.40737e-06
9.40998e-06
9.40945e-06
9.40809e-06
9.40636e-06
9.40483e-06
9.40411e-06
9.404e-06
9.40351e-06
9.40258e-06
9.40204e-06
9.4027e-06
9.40361e-06
9.4041e-06
9.40418e-06
9.40403e-06
9.40364e-06
9.40315e-06
9.40285e-06
9.40306e-06
9.4035e-06
9.40405e-06
9.40452e-06
9.40504e-06
9.40584e-06
9.40678e-06
9.40767e-06
9.40459e-06
9.35532e-06
9.35634e-06
9.41e-06
9.41158e-06
9.4104e-06
9.4088e-06
9.40715e-06
9.40585e-06
9.40522e-06
9.40494e-06
9.4043e-06
9.40354e-06
9.40296e-06
9.40291e-06
9.40303e-06
9.40312e-06
9.40338e-06
9.40372e-06
9.40393e-06
9.40396e-06
9.40402e-06
9.40421e-06
9.40449e-06
9.40491e-06
9.40553e-06
9.40653e-06
9.40764e-06
9.40856e-06
9.40892e-06
9.40482e-06
9.35563e-06
9.35875e-06
9.41125e-06
9.4132e-06
9.41215e-06
9.4108e-06
9.40956e-06
9.4085e-06
9.40745e-06
9.4062e-06
9.405e-06
9.40405e-06
9.40315e-06
9.40247e-06
9.40199e-06
9.40183e-06
9.4022e-06
9.40298e-06
9.40379e-06
9.40439e-06
9.40478e-06
9.40502e-06
9.40538e-06
9.40596e-06
9.40731e-06
9.40888e-06
9.40986e-06
9.41018e-06
9.40982e-06
9.40547e-06
9.357e-06
9.36171e-06
9.41205e-06
9.41472e-06
9.41387e-06
9.41281e-06
9.41182e-06
9.41086e-06
9.40964e-06
9.40815e-06
9.40656e-06
9.40505e-06
9.40361e-06
9.40232e-06
9.40129e-06
9.40078e-06
9.40129e-06
9.40253e-06
9.40379e-06
9.40477e-06
9.40544e-06
9.40602e-06
9.40696e-06
9.40868e-06
9.41051e-06
9.41162e-06
9.41192e-06
9.41186e-06
9.41164e-06
9.40795e-06
9.35979e-06
9.3647e-06
9.41311e-06
9.41618e-06
9.4156e-06
9.41489e-06
9.41418e-06
9.41326e-06
9.41195e-06
9.41031e-06
9.40846e-06
9.40652e-06
9.40459e-06
9.40296e-06
9.40179e-06
9.40134e-06
9.40197e-06
9.40325e-06
9.40456e-06
9.40577e-06
9.40696e-06
9.40842e-06
9.41033e-06
9.41216e-06
9.41326e-06
9.4135e-06
9.41351e-06
9.41379e-06
9.41407e-06
9.41079e-06
9.3629e-06
9.36769e-06
9.41487e-06
9.41842e-06
9.41812e-06
9.41759e-06
9.41685e-06
9.41571e-06
9.41415e-06
9.41228e-06
9.41019e-06
9.40795e-06
9.40602e-06
9.40449e-06
9.40344e-06
9.4029e-06
9.40315e-06
9.40416e-06
9.40562e-06
9.40745e-06
9.40953e-06
9.41177e-06
9.41372e-06
9.41486e-06
9.41511e-06
9.41533e-06
9.41592e-06
9.41664e-06
9.41707e-06
9.41384e-06
9.36618e-06
9.37121e-06
9.41803e-06
9.42182e-06
9.42164e-06
9.42097e-06
9.41984e-06
9.41823e-06
9.41631e-06
9.41422e-06
9.4121e-06
9.4101e-06
9.40821e-06
9.40635e-06
9.40459e-06
9.40332e-06
9.40331e-06
9.40465e-06
9.40686e-06
9.40954e-06
9.41237e-06
9.41473e-06
9.41618e-06
9.41689e-06
9.4175e-06
9.41844e-06
9.41964e-06
9.42058e-06
9.42095e-06
9.41773e-06
9.37028e-06
9.37585e-06
9.42274e-06
9.42654e-06
9.42619e-06
9.42507e-06
9.4234e-06
9.42142e-06
9.41936e-06
9.41722e-06
9.41503e-06
9.41276e-06
9.41035e-06
9.40781e-06
9.40526e-06
9.40349e-06
9.4037e-06
9.40566e-06
9.40863e-06
9.41198e-06
9.41489e-06
9.41702e-06
9.41848e-06
9.4198e-06
9.42135e-06
9.42315e-06
9.42477e-06
9.4257e-06
9.42618e-06
9.42294e-06
9.37584e-06
9.38197e-06
9.42919e-06
9.43268e-06
9.43188e-06
9.43027e-06
9.42827e-06
9.42614e-06
9.42386e-06
9.42139e-06
9.41875e-06
9.41589e-06
9.4128e-06
9.40953e-06
9.4065e-06
9.40474e-06
9.40503e-06
9.40727e-06
9.41077e-06
9.41417e-06
9.41702e-06
9.41948e-06
9.42186e-06
9.42419e-06
9.42657e-06
9.42887e-06
9.43057e-06
9.4318e-06
9.43275e-06
9.42986e-06
9.38299e-06
9.39017e-06
9.43744e-06
9.44034e-06
9.43904e-06
9.43711e-06
9.43492e-06
9.43251e-06
9.42981e-06
9.42682e-06
9.4236e-06
9.42003e-06
9.41614e-06
9.41224e-06
9.40908e-06
9.40692e-06
9.40687e-06
9.40917e-06
9.4128e-06
9.41647e-06
9.4201e-06
9.42367e-06
9.42685e-06
9.42976e-06
9.43267e-06
9.435e-06
9.43693e-06
9.4389e-06
9.4406e-06
9.43856e-06
9.39055e-06
9.40069e-06
9.4472e-06
9.44973e-06
9.44815e-06
9.446e-06
9.44348e-06
9.44056e-06
9.43721e-06
9.43361e-06
9.42955e-06
9.42511e-06
9.4205e-06
9.41634e-06
9.41279e-06
9.40976e-06
9.40927e-06
9.41177e-06
9.41582e-06
9.42049e-06
9.42517e-06
9.4294e-06
9.43315e-06
9.43667e-06
9.4399e-06
9.44252e-06
9.4452e-06
9.44799e-06
9.44997e-06
9.44719e-06
9.39975e-06
9.41315e-06
9.45882e-06
9.46126e-06
9.45938e-06
9.4568e-06
9.45373e-06
9.45011e-06
9.44604e-06
9.44159e-06
9.4367e-06
9.43148e-06
9.42646e-06
9.42185e-06
9.41714e-06
9.4131e-06
9.41245e-06
9.4156e-06
9.42062e-06
9.42624e-06
9.43173e-06
9.43691e-06
9.44164e-06
9.44553e-06
9.44931e-06
9.45284e-06
9.45639e-06
9.45948e-06
9.46064e-06
9.45772e-06
9.4116e-06
9.4277e-06
9.47262e-06
9.47475e-06
9.4725e-06
9.46949e-06
9.46586e-06
9.46161e-06
9.45684e-06
9.45157e-06
9.44581e-06
9.43983e-06
9.43406e-06
9.42811e-06
9.42207e-06
9.4173e-06
9.41683e-06
9.42091e-06
9.42703e-06
9.43378e-06
9.44034e-06
9.4464e-06
9.45207e-06
9.4569e-06
9.4617e-06
9.46626e-06
9.47029e-06
9.47319e-06
9.4741e-06
9.4716e-06
9.42669e-06
9.44478e-06
9.48894e-06
9.49086e-06
9.48833e-06
9.48493e-06
9.48079e-06
9.47592e-06
9.47034e-06
9.46405e-06
9.45716e-06
9.45004e-06
9.44283e-06
9.43528e-06
9.42798e-06
9.42266e-06
9.42253e-06
9.42758e-06
9.43476e-06
9.44266e-06
9.45036e-06
9.45739e-06
9.46445e-06
9.47089e-06
9.47683e-06
9.48204e-06
9.48629e-06
9.48929e-06
9.4911e-06
9.48958e-06
9.44492e-06
9.46539e-06
9.50899e-06
9.51076e-06
9.50791e-06
9.504e-06
9.49914e-06
9.49335e-06
9.48671e-06
9.47914e-06
9.47087e-06
9.46224e-06
9.4533e-06
9.44416e-06
9.43568e-06
9.42981e-06
9.42994e-06
9.43592e-06
9.44418e-06
9.45332e-06
9.4625e-06
9.47099e-06
9.47981e-06
9.48779e-06
9.4945e-06
9.50028e-06
9.50489e-06
9.50878e-06
9.51223e-06
9.51107e-06
9.46647e-06
9.49062e-06
9.53391e-06
9.53534e-06
9.53193e-06
9.52724e-06
9.52139e-06
9.5145e-06
9.50659e-06
9.49767e-06
9.48791e-06
9.47752e-06
9.46665e-06
9.45575e-06
9.44593e-06
9.43923e-06
9.43944e-06
9.44643e-06
9.45607e-06
9.46661e-06
9.47761e-06
9.48802e-06
9.49847e-06
9.50747e-06
9.51517e-06
9.52186e-06
9.52752e-06
9.53275e-06
9.53747e-06
9.53627e-06
9.49242e-06
9.52165e-06
9.5644e-06
9.56529e-06
9.56118e-06
9.55552e-06
9.54854e-06
9.5404e-06
9.53113e-06
9.52068e-06
9.50908e-06
9.49652e-06
9.4834e-06
9.47056e-06
9.45929e-06
9.45167e-06
9.45181e-06
9.45977e-06
9.47095e-06
9.48306e-06
9.49615e-06
9.50849e-06
9.52031e-06
9.53059e-06
9.53999e-06
9.54824e-06
9.55533e-06
9.56186e-06
9.5671e-06
9.56612e-06
9.52359e-06
9.55948e-06
9.60139e-06
9.60167e-06
9.59678e-06
9.58998e-06
9.5816e-06
9.57187e-06
9.56082e-06
9.54838e-06
9.53455e-06
9.51969e-06
9.50441e-06
9.48967e-06
9.47691e-06
9.46824e-06
9.46814e-06
9.47688e-06
9.48976e-06
9.5038e-06
9.51899e-06
9.53326e-06
9.54701e-06
9.55924e-06
9.57068e-06
9.58062e-06
9.58938e-06
9.59695e-06
9.60246e-06
9.60206e-06
9.56072e-06
9.60518e-06
9.64602e-06
9.64558e-06
9.63956e-06
9.63129e-06
9.62124e-06
9.60962e-06
9.59642e-06
9.58174e-06
9.56562e-06
9.54852e-06
9.5311e-06
9.51422e-06
9.49949e-06
9.48951e-06
9.4894e-06
9.49923e-06
9.51407e-06
9.53043e-06
9.54792e-06
9.56436e-06
9.58064e-06
9.59521e-06
9.60856e-06
9.62037e-06
9.63095e-06
9.63937e-06
9.64529e-06
9.64541e-06
9.60535e-06
9.6602e-06
9.69925e-06
9.6978e-06
9.6905e-06
9.68084e-06
9.66922e-06
9.65569e-06
9.64027e-06
9.62323e-06
9.60467e-06
9.58504e-06
9.56508e-06
9.54557e-06
9.52849e-06
9.51717e-06
9.51743e-06
9.52902e-06
9.54599e-06
9.56484e-06
9.58498e-06
9.60396e-06
9.62314e-06
9.63999e-06
9.65531e-06
9.66919e-06
9.68143e-06
9.69053e-06
9.69698e-06
9.69766e-06
9.65975e-06
9.72613e-06
9.76276e-06
9.76049e-06
9.75238e-06
9.74167e-06
9.7285e-06
9.71291e-06
9.6951e-06
9.6755e-06
9.65426e-06
9.63168e-06
9.6088e-06
9.58658e-06
9.56732e-06
9.55451e-06
9.55476e-06
9.56809e-06
9.5873e-06
9.60877e-06
9.63225e-06
9.65426e-06
9.67594e-06
9.6951e-06
9.7128e-06
9.72881e-06
9.74231e-06
9.75236e-06
9.7599e-06
9.76209e-06
9.7262e-06
9.80542e-06
9.83988e-06
9.83737e-06
9.82852e-06
9.81627e-06
9.80097e-06
9.78299e-06
9.76268e-06
9.74046e-06
9.71643e-06
9.69077e-06
9.66499e-06
9.6401e-06
9.61854e-06
9.60396e-06
9.60349e-06
9.61823e-06
9.64031e-06
9.66477e-06
9.69166e-06
9.71661e-06
9.74053e-06
9.76234e-06
9.78296e-06
9.80104e-06
9.81576e-06
9.8279e-06
9.8374e-06
9.84095e-06
9.80668e-06
9.90118e-06
9.93418e-06
9.93077e-06
9.92016e-06
9.90569e-06
9.88804e-06
9.86778e-06
9.84503e-06
9.81996e-06
9.79299e-06
9.76428e-06
9.73563e-06
9.70776e-06
9.68339e-06
9.66717e-06
9.66636e-06
9.68274e-06
9.70791e-06
9.73563e-06
9.76521e-06
9.79281e-06
9.81936e-06
9.84437e-06
9.86779e-06
9.88813e-06
9.90457e-06
9.91934e-06
9.93087e-06
9.93451e-06
9.9021e-06
1.00169e-05
1.00473e-05
1.0042e-05
1.00295e-05
1.00134e-05
9.99404e-06
9.97152e-06
9.9461e-06
9.91793e-06
9.88808e-06
9.85635e-06
9.82479e-06
9.7941e-06
9.76657e-06
9.74877e-06
9.74824e-06
9.76654e-06
9.79428e-06
9.82496e-06
9.85691e-06
9.88748e-06
9.91729e-06
9.94565e-06
9.97117e-06
9.99408e-06
1.00129e-05
1.00296e-05
1.00424e-05
1.00464e-05
1.0016e-05
1.01553e-05
1.01823e-05
1.0176e-05
1.0163e-05
1.01457e-05
1.01243e-05
1.0099e-05
1.00713e-05
1.00407e-05
1.00085e-05
9.97402e-06
9.9394e-06
9.90643e-06
9.87572e-06
9.85568e-06
9.85536e-06
9.8755e-06
9.90577e-06
9.93922e-06
9.97358e-06
1.00075e-05
1.00402e-05
1.00711e-05
1.00985e-05
1.01239e-05
1.01458e-05
1.01632e-05
1.01762e-05
1.01823e-05
1.01541e-05
1.03221e-05
1.03472e-05
1.03404e-05
1.0326e-05
1.03067e-05
1.02831e-05
1.02557e-05
1.02263e-05
1.01935e-05
1.01589e-05
1.01226e-05
1.00853e-05
1.00507e-05
1.00174e-05
9.99453e-06
9.99567e-06
1.00178e-05
1.00495e-05
1.00856e-05
1.01224e-05
1.01587e-05
1.0193e-05
1.02255e-05
1.0256e-05
1.02827e-05
1.03068e-05
1.03255e-05
1.03392e-05
1.03477e-05
1.03225e-05
1.05259e-05
1.05495e-05
1.05403e-05
1.05238e-05
1.05026e-05
1.04778e-05
1.04484e-05
1.04174e-05
1.03834e-05
1.03473e-05
1.03117e-05
1.02724e-05
1.02353e-05
1.0202e-05
1.01776e-05
1.01787e-05
1.02027e-05
1.02357e-05
1.02725e-05
1.03111e-05
1.03481e-05
1.03835e-05
1.04172e-05
1.04502e-05
1.04777e-05
1.05022e-05
1.05238e-05
1.05408e-05
1.05503e-05
1.05251e-05
1.07768e-05
1.07993e-05
1.07872e-05
1.07691e-05
1.07457e-05
1.07197e-05
1.06895e-05
1.0658e-05
1.06248e-05
1.0589e-05
1.05548e-05
1.05173e-05
1.0481e-05
1.0451e-05
1.04282e-05
1.04278e-05
1.04501e-05
1.04831e-05
1.0518e-05
1.05539e-05
1.05895e-05
1.06247e-05
1.06582e-05
1.06896e-05
1.0719e-05
1.0746e-05
1.07698e-05
1.07879e-05
1.07993e-05
1.07747e-05
1.10919e-05
1.11209e-05
1.11041e-05
1.10834e-05
1.10584e-05
1.10314e-05
1.09996e-05
1.09694e-05
1.09439e-05
1.09153e-05
1.08949e-05
1.08841e-05
1.08802e-05
1.08817e-05
1.08907e-05
1.08938e-05
1.08838e-05
1.08794e-05
1.08834e-05
1.08972e-05
1.09167e-05
1.09429e-05
1.09714e-05
1.09987e-05
1.1029e-05
1.10603e-05
1.10844e-05
1.11021e-05
1.11194e-05
1.10924e-05
1.15319e-05
1.15957e-05
1.15732e-05
1.15659e-05
1.15421e-05
1.15025e-05
1.1476e-05
1.14723e-05
1.1489e-05
1.15283e-05
1.1671e-05
1.19062e-05
1.22451e-05
1.26384e-05
1.30283e-05
1.30363e-05
1.26439e-05
1.22465e-05
1.1911e-05
1.16727e-05
1.15302e-05
1.14901e-05
1.14722e-05
1.14766e-05
1.15029e-05
1.15409e-05
1.15655e-05
1.15752e-05
1.15959e-05
1.1531e-05
1.24082e-05
1.26228e-05
1.27005e-05
1.2892e-05
1.28147e-05
1.27134e-05
1.28512e-05
1.30245e-05
1.33765e-05
1.40757e-05
1.56868e-05
1.83021e-05
2.18533e-05
2.57665e-05
2.97651e-05
2.98124e-05
2.58153e-05
2.18607e-05
1.83613e-05
1.57089e-05
1.40863e-05
1.33847e-05
1.30286e-05
1.28543e-05
1.27173e-05
1.2809e-05
1.28913e-05
1.27067e-05
1.26238e-05
1.24084e-05
1.53622e-05
1.58923e-05
1.72714e-05
2.01126e-05
1.85083e-05
1.8259e-05
2.24654e-05
2.29231e-05
2.525e-05
3.32375e-05
4.67887e-05
6.75502e-05
9.78915e-05
0.000128094
0.000157093
0.000157351
0.000128407
9.79954e-05
6.82471e-05
4.69336e-05
3.33641e-05
2.53296e-05
2.29577e-05
2.25359e-05
1.83005e-05
1.84839e-05
2.01058e-05
1.73e-05
1.58932e-05
1.53486e-05
2.72364e-05
3.07149e-05
3.95532e-05
6.14146e-05
5.08512e-05
5.53681e-05
0.000120483
0.000115387
0.000135138
0.000264298
0.000333104
0.000424864
0.000634804
0.00077347
0.000879649
0.000877696
0.000772964
0.000633603
0.000431127
0.000334207
0.000265624
0.000135884
0.000115873
0.00012149
5.57572e-05
5.08762e-05
6.14751e-05
3.96995e-05
3.06366e-05
2.71399e-05
8.01198e-05
0.000139261
0.000145008
0.000291041
0.000357269
0.000384612
0.000678735
0.000797952
0.000788837
0.00150496
0.00191305
0.00194126
0.00256343
0.00272557
0.00292588
0.00291967
0.00274068
0.00256155
0.00197006
0.00187735
0.00149963
0.000788507
0.000805709
0.000684483
0.000387771
0.000362129
0.000293396
0.00014545
0.000138172
8.00385e-05
0.00026811
0.000592597
0.00061824
0.00118328
0.00188303
0.00219698
0.00308023
0.0043425
0.00418722
0.00570976
0.00687411
0.00613123
0.00685415
0.00770538
0.00749086
0.00736352
0.00760603
0.00684679
0.00605087
0.00669457
0.00567298
0.00418454
0.00438572
0.00311873
0.00225114
0.00192737
0.00120322
0.000617208
0.000588097
0.000273993
0.000530122
0.000852604
0.000979024
0.00192108
0.00277812
0.00354101
0.00464559
0.00603857
0.00637946
0.00872317
0.00950596
0.00915116
0.00943134
0.00966718
0.00833151
0.00824618
0.00940866
0.00948542
0.00780168
0.00893167
0.00860708
0.0064234
0.00610392
0.00475177
0.00371043
0.00286595
0.00194766
0.000981199
0.000843583
0.000531126
0.000665598
0.00092598
0.0010636
0.00194286
0.00265421
0.00268521
0.003957
0.00524507
0.00472109
0.00737304
0.00761492
0.00620977
0.00646445
0.00725284
0.0066717
0.00674811
0.0074086
0.00666946
0.00603271
0.00735139
0.0074778
0.00479321
0.00531854
0.00400838
0.00273455
0.002705
0.00197
0.00109037
0.000935537
0.000666566
0.000616386
0.000702119
0.000826975
0.00159775
0.00182005
0.00187407
0.00253924
0.00315057
0.00353016
0.00502908
0.0045845
0.00424071
0.00439017
0.00478877
0.00562636
0.00574574
0.00506331
0.00459899
0.00459555
0.00466565
0.00521093
0.00349149
0.00315104
0.00258032
0.00189952
0.00186896
0.00163204
0.000837258
0.000713312
0.000611307
0.000475143
0.000528142
0.000646977
0.00115961
0.00123398
0.00122578
0.001631
0.0018481
0.00215896
0.00301732
0.00293972
0.00279344
0.00310122
0.00343687
0.00371502
0.00374433
0.00353958
0.00314801
0.00286389
0.00287649
0.00309263
0.00219196
0.00186563
0.00164068
0.00124546
0.00125488
0.00117725
0.000650124
0.000536478
0.000471651
0.000313709
0.00036071
0.000434374
0.000658534
0.000672477
0.000630513
0.000936981
0.00116251
0.00141883
0.00188204
0.0020543
0.00204914
0.00210461
0.0022499
0.00229835
0.00230415
0.0022946
0.00211534
0.00202544
0.00201799
0.00189817
0.00142664
0.0011711
0.000945174
0.000634677
0.00068489
0.000668462
0.000434227
0.000367762
0.000316726
0.000210351
0.000234425
0.000261007
0.000323445
0.000323137
0.00030168
0.000379892
0.000520658
0.000767001
0.00117538
0.00153046
0.00177886
0.00193036
0.0020162
0.00201408
0.00201202
0.002036
0.00193369
0.00177013
0.00152396
0.00117956
0.000767351
0.000525737
0.000387327
0.000304194
0.000329223
0.000327513
0.000260894
0.00023713
0.000211738
0.000149902
0.000158398
0.000162849
0.000173517
0.000173039
0.000170139
0.00018556
0.000225198
0.000310307
0.000506908
0.000859781
0.00129025
0.00165111
0.00187914
0.0019683
0.00196764
0.00188882
0.00165512
0.00128753
0.000857185
0.000510276
0.000311493
0.000226633
0.000187841
0.000172214
0.000175939
0.000176238
0.000164297
0.000159361
0.000150914
0.000113478
0.000115267
0.000114596
0.000115108
0.000114626
0.00011514
0.000119786
0.000129684
0.000150775
0.000203856
0.000334141
0.000604862
0.00100419
0.00138091
0.00160485
0.00160453
0.00138518
0.00100763
0.000603943
0.000333661
0.000204964
0.000151504
0.000130477
0.000120203
0.000115605
0.000115544
0.000116009
0.000114839
0.000115645
0.000114114
9.03135e-05
9.02215e-05
8.92039e-05
8.89867e-05
8.89591e-05
8.96983e-05
9.15818e-05
9.53628e-05
0.000101359
0.00011342
0.000142858
0.000217813
0.000372634
0.000621258
0.00085646
0.000855221
0.000621816
0.000374158
0.000217944
0.000143129
0.000114192
0.000101788
9.56301e-05
9.1975e-05
8.9863e-05
8.91396e-05
8.90924e-05
8.97235e-05
9.05982e-05
9.05399e-05
7.45918e-05
7.38698e-05
7.3014e-05
7.3217e-05
7.33367e-05
7.4272e-05
7.61634e-05
7.82251e-05
8.07628e-05
8.42558e-05
9.03855e-05
0.0001045
0.000135446
0.000189795
0.000259242
0.000259134
0.000189827
0.000135928
0.00010461
9.08499e-05
8.4645e-05
8.10569e-05
7.84902e-05
7.6439e-05
7.471e-05
7.39155e-05
7.31377e-05
7.33887e-05
7.40825e-05
7.46007e-05
6.33296e-05
6.17171e-05
6.14176e-05
6.17067e-05
6.2509e-05
6.36111e-05
6.52711e-05
6.6599e-05
6.81036e-05
6.96235e-05
7.136e-05
7.38907e-05
7.85181e-05
8.65098e-05
9.69203e-05
9.7163e-05
8.68781e-05
7.87163e-05
7.37633e-05
7.1555e-05
6.98861e-05
6.82637e-05
6.67246e-05
6.51916e-05
6.37647e-05
6.26318e-05
6.18314e-05
6.15507e-05
6.21882e-05
6.38824e-05
5.56368e-05
5.27758e-05
5.27321e-05
5.32162e-05
5.39032e-05
5.48917e-05
5.6023e-05
5.67981e-05
5.77549e-05
5.85436e-05
5.90689e-05
5.9402e-05
5.98352e-05
6.06652e-05
6.17977e-05
6.17422e-05
6.078e-05
6.0004e-05
5.95471e-05
5.92132e-05
5.86309e-05
5.79504e-05
5.71456e-05
5.5942e-05
5.47292e-05
5.36921e-05
5.31647e-05
5.27874e-05
5.33112e-05
5.60098e-05
4.90905e-05
4.60539e-05
4.58313e-05
4.62077e-05
4.68016e-05
4.75056e-05
4.80789e-05
4.86177e-05
4.91416e-05
4.93503e-05
4.92822e-05
4.91446e-05
4.89295e-05
4.86336e-05
4.84312e-05
4.83642e-05
4.8687e-05
4.90003e-05
4.929e-05
4.94711e-05
4.94617e-05
4.92978e-05
4.88315e-05
4.81053e-05
4.73737e-05
4.67484e-05
4.63481e-05
4.59509e-05
4.63798e-05
4.94134e-05
4.34933e-05
4.05111e-05
4.01634e-05
4.04718e-05
4.09355e-05
4.13845e-05
4.16843e-05
4.19371e-05
4.19565e-05
4.17415e-05
4.14477e-05
4.11056e-05
4.06098e-05
4.00508e-05
3.96686e-05
3.97085e-05
4.01737e-05
4.06491e-05
4.10833e-05
4.1489e-05
4.18295e-05
4.20587e-05
4.19596e-05
4.16738e-05
4.13379e-05
4.10118e-05
4.06906e-05
4.0352e-05
4.07129e-05
4.36426e-05
3.84942e-05
3.57114e-05
3.54511e-05
3.56866e-05
3.59691e-05
3.61729e-05
3.62677e-05
3.61884e-05
3.59217e-05
3.55599e-05
3.51007e-05
3.45474e-05
3.38927e-05
3.33156e-05
3.29771e-05
3.3049e-05
3.34344e-05
3.39294e-05
3.45235e-05
3.51534e-05
3.57098e-05
3.60906e-05
3.62324e-05
3.62321e-05
3.61514e-05
3.59943e-05
3.57403e-05
3.55278e-05
3.58867e-05
3.85025e-05
3.40181e-05
3.17368e-05
3.146e-05
3.15546e-05
3.16339e-05
3.16835e-05
3.15995e-05
3.13074e-05
3.09196e-05
3.04385e-05
2.9867e-05
2.92406e-05
2.85989e-05
2.8064e-05
2.77383e-05
2.77706e-05
2.81093e-05
2.86287e-05
2.92868e-05
2.9984e-05
3.06184e-05
3.1107e-05
3.14137e-05
3.15848e-05
3.16329e-05
3.15834e-05
3.1457e-05
3.13903e-05
3.17649e-05
3.41007e-05
3.03336e-05
2.82531e-05
2.79698e-05
2.80003e-05
2.80138e-05
2.79585e-05
2.76821e-05
2.72953e-05
2.6874e-05
2.63493e-05
2.57303e-05
2.50782e-05
2.44465e-05
2.39246e-05
2.35936e-05
2.35915e-05
2.39084e-05
2.44423e-05
2.512e-05
2.5826e-05
2.64817e-05
2.70204e-05
2.74053e-05
2.76579e-05
2.78168e-05
2.78867e-05
2.78894e-05
2.79144e-05
2.82653e-05
3.03488e-05
2.69703e-05
2.51879e-05
2.50057e-05
2.4977e-05
2.48998e-05
2.47036e-05
2.4376e-05
2.40415e-05
2.36415e-05
2.31056e-05
2.24757e-05
2.1819e-05
2.12038e-05
2.07026e-05
2.03863e-05
2.03732e-05
2.06662e-05
2.11724e-05
2.18079e-05
2.24681e-05
2.30947e-05
2.36473e-05
2.40909e-05
2.44158e-05
2.4648e-05
2.48029e-05
2.48952e-05
2.49715e-05
2.52889e-05
2.70735e-05
2.40794e-05
2.27354e-05
2.25017e-05
2.23669e-05
2.21867e-05
2.19361e-05
2.16574e-05
2.13468e-05
2.09277e-05
2.0393e-05
1.97909e-05
1.91711e-05
1.85916e-05
1.81085e-05
1.7798e-05
1.77706e-05
1.80391e-05
1.85183e-05
1.91204e-05
1.97559e-05
2.03691e-05
2.09197e-05
2.13742e-05
2.17227e-05
2.19956e-05
2.2206e-05
2.2355e-05
2.2466e-05
2.27576e-05
2.42351e-05
2.17649e-05
2.06514e-05
2.0332e-05
2.01357e-05
1.99407e-05
1.97259e-05
1.94681e-05
1.91298e-05
1.87054e-05
1.82057e-05
1.76585e-05
1.70894e-05
1.65487e-05
1.60959e-05
1.58093e-05
1.57919e-05
1.60505e-05
1.65024e-05
1.70616e-05
1.76459e-05
1.82044e-05
1.87141e-05
1.91554e-05
1.9517e-05
1.98065e-05
2.00318e-05
2.01991e-05
2.03274e-05
2.05873e-05
2.17895e-05
1.97311e-05
1.87496e-05
1.84608e-05
1.83075e-05
1.81691e-05
1.79779e-05
1.76937e-05
1.73471e-05
1.69552e-05
1.64984e-05
1.59936e-05
1.54676e-05
1.49743e-05
1.45713e-05
1.43241e-05
1.43175e-05
1.45531e-05
1.49565e-05
1.5454e-05
1.59772e-05
1.64824e-05
1.69513e-05
1.73664e-05
1.77171e-05
1.7998e-05
1.82179e-05
1.83848e-05
1.85109e-05
1.87305e-05
1.97014e-05
1.79783e-05
1.71418e-05
1.6943e-05
1.6855e-05
1.67261e-05
1.65145e-05
1.62364e-05
1.59323e-05
1.55787e-05
1.51559e-05
1.46845e-05
1.42025e-05
1.3761e-05
1.34062e-05
1.31899e-05
1.31877e-05
1.34009e-05
1.37596e-05
1.41978e-05
1.46599e-05
1.51138e-05
1.55415e-05
1.59257e-05
1.62531e-05
1.65158e-05
1.67181e-05
1.68684e-05
1.69799e-05
1.71606e-05
1.7943e-05
1.64615e-05
1.58045e-05
1.56792e-05
1.55972e-05
1.54576e-05
1.52648e-05
1.50441e-05
1.47836e-05
1.44548e-05
1.40675e-05
1.3646e-05
1.32265e-05
1.2845e-05
1.25322e-05
1.23347e-05
1.23282e-05
1.25166e-05
1.28331e-05
1.32179e-05
1.36251e-05
1.40305e-05
1.44155e-05
1.47625e-05
1.50549e-05
1.52874e-05
1.54647e-05
1.55964e-05
1.56955e-05
1.58461e-05
1.647e-05
1.51852e-05
1.47154e-05
1.4603e-05
1.4507e-05
1.43952e-05
1.4255e-05
1.40759e-05
1.38297e-05
1.35252e-05
1.31831e-05
1.28222e-05
1.24669e-05
1.21336e-05
1.18463e-05
1.16605e-05
1.16532e-05
1.1827e-05
1.21135e-05
1.24532e-05
1.28075e-05
1.31584e-05
1.34909e-05
1.3791e-05
1.40457e-05
1.42506e-05
1.44093e-05
1.45283e-05
1.46179e-05
1.47435e-05
1.52352e-05
1.42034e-05
1.3829e-05
1.37045e-05
1.36337e-05
1.35529e-05
1.34348e-05
1.32617e-05
1.30294e-05
1.27632e-05
1.24734e-05
1.2173e-05
1.18713e-05
1.15735e-05
1.13083e-05
1.11412e-05
1.11409e-05
1.13002e-05
1.15522e-05
1.18434e-05
1.21446e-05
1.2442e-05
1.27267e-05
1.29844e-05
1.32063e-05
1.33889e-05
1.35321e-05
1.36387e-05
1.37176e-05
1.38212e-05
1.42053e-05
1.33754e-05
1.30462e-05
1.29683e-05
1.29262e-05
1.28426e-05
1.27231e-05
1.25596e-05
1.23626e-05
1.21433e-05
1.19049e-05
1.16559e-05
1.13952e-05
1.11299e-05
1.08973e-05
1.07562e-05
1.07573e-05
1.08906e-05
1.11013e-05
1.13486e-05
1.16106e-05
1.18715e-05
1.21188e-05
1.23417e-05
1.2534e-05
1.26925e-05
1.28159e-05
1.29059e-05
1.29717e-05
1.30549e-05
1.33512e-05
1.26272e-05
1.24129e-05
1.23876e-05
1.23295e-05
1.22381e-05
1.21285e-05
1.19919e-05
1.18329e-05
1.16493e-05
1.14481e-05
1.12341e-05
1.10045e-05
1.07744e-05
1.05816e-05
1.0466e-05
1.0461e-05
1.05651e-05
1.07421e-05
1.09598e-05
1.11956e-05
1.14301e-05
1.16472e-05
1.18381e-05
1.19987e-05
1.21275e-05
1.22259e-05
1.22978e-05
1.23514e-05
1.24185e-05
1.26455e-05
1.20667e-05
1.19708e-05
1.19138e-05
1.18324e-05
1.17532e-05
1.16627e-05
1.1552e-05
1.14175e-05
1.12598e-05
1.10886e-05
1.09037e-05
1.0706e-05
1.05152e-05
1.03591e-05
1.02608e-05
1.02484e-05
1.03293e-05
1.04804e-05
1.06729e-05
1.08806e-05
1.10829e-05
1.12658e-05
1.14221e-05
1.155e-05
1.16515e-05
1.17305e-05
1.17917e-05
1.18403e-05
1.18972e-05
1.20691e-05
1.16718e-05
1.15691e-05
1.14746e-05
1.14137e-05
1.13584e-05
1.12859e-05
1.11939e-05
1.10797e-05
1.09499e-05
1.08092e-05
1.06541e-05
1.04906e-05
1.03367e-05
1.02076e-05
1.01194e-05
1.01037e-05
1.017e-05
1.02968e-05
1.04562e-05
1.06246e-05
1.07861e-05
1.09323e-05
1.10598e-05
1.11678e-05
1.1257e-05
1.13294e-05
1.13872e-05
1.14329e-05
1.14789e-05
1.16011e-05
1.12815e-05
1.11394e-05
1.10941e-05
1.10746e-05
1.10368e-05
1.0976e-05
1.08958e-05
1.08006e-05
1.06971e-05
1.05814e-05
1.04503e-05
1.03144e-05
1.01879e-05
1.00785e-05
1.00023e-05
9.99068e-06
1.00485e-05
1.01509e-05
1.02751e-05
1.04046e-05
1.05312e-05
1.06529e-05
1.0767e-05
1.08682e-05
1.09526e-05
1.10197e-05
1.1071e-05
1.11075e-05
1.11364e-05
1.12122e-05
1.08902e-05
1.08193e-05
1.08367e-05
1.08276e-05
1.0789e-05
1.07295e-05
1.06565e-05
1.05787e-05
1.04949e-05
1.03947e-05
1.02802e-05
1.01663e-05
1.00607e-05
9.96887e-06
9.90566e-06
9.89935e-06
9.95155e-06
1.00352e-05
1.01325e-05
1.02354e-05
1.03416e-05
1.04492e-05
1.05517e-05
1.06412e-05
1.07139e-05
1.07691e-05
1.0807e-05
1.08285e-05
1.084e-05
1.08804e-05
1.06198e-05
1.06468e-05
1.06524e-05