/*--------------------------------*- C++ -*----------------------------------*\
| =========                 |                                                 |
| \\      /  F ield         | OpenFOAM: The Open Source CFD Toolbox           |
|  \\    /   O peration     | Version:  2312                                  |
|   \\  /    A nd           | Website:  www.openfoam.com                      |
|    \\/     M anipulation  |                                                 |
\*---------------------------------------------------------------------------*/
FoamFile
{
    version     2.0;
    format      ascii;
    arch        "LSB;label=32;scalar=64";
    class       volScalarField;
    location    "1.065074";
    object      k;
}
// * * * * * * * * * * * * * * * * * * * * * * * * * * * * * * * * * * * * * //

dimensions      [0 2 -2 0 0 0 0];

internalField   nonuniform List<scalar> 
90000
(
2.35911e-05
2.3595e-05
2.3596e-05
2.35964e-05
2.35965e-05
2.35963e-05
2.35959e-05
2.35954e-05
2.3595e-05
2.35947e-05
2.35944e-05
2.35942e-05
2.35942e-05
2.35944e-05
2.35945e-05
2.35948e-05
2.35955e-05
2.35965e-05
2.35972e-05
2.35972e-05
2.35964e-05
2.35949e-05
2.35951e-05
2.35975e-05
2.35996e-05
2.36007e-05
2.36001e-05
2.35986e-05
2.35992e-05
2.36026e-05
2.35958e-05
2.36753e-05
2.36817e-05
2.36816e-05
2.36811e-05
2.36806e-05
2.36803e-05
2.36802e-05
2.368e-05
2.36797e-05
2.36796e-05
2.36799e-05
2.36802e-05
2.36805e-05
2.36808e-05
2.3681e-05
2.36811e-05
2.3681e-05
2.36806e-05
2.36802e-05
2.36805e-05
2.36811e-05
2.36815e-05
2.36815e-05
2.36806e-05
2.36793e-05
2.36802e-05
2.3683e-05
2.36792e-05
2.3614e-05
2.35969e-05
2.3682e-05
2.36887e-05
2.36886e-05
2.3688e-05
2.36877e-05
2.36876e-05
2.36877e-05
2.36876e-05
2.36874e-05
2.36872e-05
2.36876e-05
2.36882e-05
2.36888e-05
2.3689e-05
2.36887e-05
2.3688e-05
2.36873e-05
2.36878e-05
2.3689e-05
2.36898e-05
2.36902e-05
2.36902e-05
2.36903e-05
2.36908e-05
2.36917e-05
2.36923e-05
2.36938e-05
2.36931e-05
2.36109e-05
2.35969e-05
2.36822e-05
2.36892e-05
2.36894e-05
2.36891e-05
2.36888e-05
2.36886e-05
2.36886e-05
2.36885e-05
2.36884e-05
2.36881e-05
2.36883e-05
2.36887e-05
2.36891e-05
2.36891e-05
2.36887e-05
2.36884e-05
2.3689e-05
2.36902e-05
2.36908e-05
2.36909e-05
2.36908e-05
2.36916e-05
2.36933e-05
2.36949e-05
2.36959e-05
2.36967e-05
2.3696e-05
2.36924e-05
2.3604e-05
2.35963e-05
2.36818e-05
2.36893e-05
2.36898e-05
2.36898e-05
2.36896e-05
2.36892e-05
2.36889e-05
2.36888e-05
2.36887e-05
2.36887e-05
2.36886e-05
2.36884e-05
2.36881e-05
2.3688e-05
2.36886e-05
2.36896e-05
2.36904e-05
2.36907e-05
2.36905e-05
2.36901e-05
2.36906e-05
2.36923e-05
2.36941e-05
2.36952e-05
2.36953e-05
2.36945e-05
2.36932e-05
2.36872e-05
2.36013e-05
2.35957e-05
2.3682e-05
2.36895e-05
2.36901e-05
2.36904e-05
2.36903e-05
2.369e-05
2.36895e-05
2.36891e-05
2.36889e-05
2.3689e-05
2.36893e-05
2.36896e-05
2.36897e-05
2.36896e-05
2.36897e-05
2.36899e-05
2.36899e-05
2.36897e-05
2.36895e-05
2.36898e-05
2.36907e-05
2.36917e-05
2.36924e-05
2.36926e-05
2.36925e-05
2.36927e-05
2.36953e-05
2.369e-05
2.3602e-05
2.3596e-05
2.36831e-05
2.36901e-05
2.36907e-05
2.3691e-05
2.36913e-05
2.36913e-05
2.3691e-05
2.36901e-05
2.36893e-05
2.36892e-05
2.36898e-05
2.36907e-05
2.36911e-05
2.36908e-05
2.36899e-05
2.36888e-05
2.36882e-05
2.36885e-05
2.36893e-05
2.36901e-05
2.36905e-05
2.36903e-05
2.36896e-05
2.36899e-05
2.36925e-05
2.36956e-05
2.36983e-05
2.36923e-05
2.3602e-05
2.35967e-05
2.36848e-05
2.36912e-05
2.36916e-05
2.36921e-05
2.36925e-05
2.36928e-05
2.36927e-05
2.36919e-05
2.36907e-05
2.369e-05
2.36901e-05
2.36908e-05
2.36911e-05
2.36907e-05
2.36895e-05
2.3688e-05
2.36871e-05
2.36882e-05
2.36894e-05
2.36901e-05
2.369e-05
2.36891e-05
2.36891e-05
2.36912e-05
2.36941e-05
2.36968e-05
2.3698e-05
2.36907e-05
2.3601e-05
2.35977e-05
2.36867e-05
2.36925e-05
2.36927e-05
2.36929e-05
2.36934e-05
2.36938e-05
2.36939e-05
2.36935e-05
2.36928e-05
2.36917e-05
2.36908e-05
2.36902e-05
2.36899e-05
2.36898e-05
2.36898e-05
2.36897e-05
2.36898e-05
2.36902e-05
2.36905e-05
2.36905e-05
2.369e-05
2.36894e-05
2.36904e-05
2.36925e-05
2.36947e-05
2.36963e-05
2.36962e-05
2.36884e-05
2.36001e-05
2.35999e-05
2.36874e-05
2.36928e-05
2.36928e-05
2.36926e-05
2.36927e-05
2.36931e-05
2.36936e-05
2.36939e-05
2.3694e-05
2.36933e-05
2.36919e-05
2.369e-05
2.36887e-05
2.36892e-05
2.36908e-05
2.36924e-05
2.36935e-05
2.36939e-05
2.36938e-05
2.36931e-05
2.36919e-05
2.3691e-05
2.36911e-05
2.36924e-05
2.36938e-05
2.36945e-05
2.36939e-05
2.36865e-05
2.35999e-05
2.3602e-05
2.3687e-05
2.36921e-05
2.3692e-05
2.36914e-05
2.36908e-05
2.36908e-05
2.36915e-05
2.36927e-05
2.36936e-05
2.36936e-05
2.36927e-05
2.3691e-05
2.36892e-05
2.36891e-05
2.36913e-05
2.36938e-05
2.36959e-05
2.36971e-05
2.36971e-05
2.3696e-05
2.36943e-05
2.36924e-05
2.36914e-05
2.36917e-05
2.36926e-05
2.36933e-05
2.36932e-05
2.36864e-05
2.36008e-05
2.36023e-05
2.36873e-05
2.36927e-05
2.36927e-05
2.36922e-05
2.36917e-05
2.36914e-05
2.36914e-05
2.36918e-05
2.36923e-05
2.36927e-05
2.36927e-05
2.36919e-05
2.36904e-05
2.36889e-05
2.36909e-05
2.36941e-05
2.36967e-05
2.3698e-05
2.36979e-05
2.36965e-05
2.36946e-05
2.36927e-05
2.36913e-05
2.36915e-05
2.36924e-05
2.36933e-05
2.36936e-05
2.36876e-05
2.36017e-05
2.36018e-05
2.36884e-05
2.36944e-05
2.3695e-05
2.36961e-05
2.36969e-05
2.36973e-05
2.36969e-05
2.36955e-05
2.36934e-05
2.36923e-05
2.36928e-05
2.36932e-05
2.36931e-05
2.36927e-05
2.36931e-05
2.36942e-05
2.36951e-05
2.36952e-05
2.36947e-05
2.3694e-05
2.36932e-05
2.36923e-05
2.36916e-05
2.3692e-05
2.36927e-05
2.36934e-05
2.36941e-05
2.36879e-05
2.36021e-05
2.36053e-05
2.36886e-05
2.36962e-05
2.36981e-05
2.37005e-05
2.37023e-05
2.37028e-05
2.37016e-05
2.36988e-05
2.36952e-05
2.36923e-05
2.36926e-05
2.36942e-05
2.36956e-05
2.36964e-05
2.36963e-05
2.36952e-05
2.36929e-05
2.36907e-05
2.36902e-05
2.36911e-05
2.36922e-05
2.36927e-05
2.36927e-05
2.36927e-05
2.36931e-05
2.36938e-05
2.36943e-05
2.36878e-05
2.36028e-05
2.36102e-05
2.36879e-05
2.36988e-05
2.37018e-05
2.37042e-05
2.37051e-05
2.37043e-05
2.37019e-05
2.36984e-05
2.36947e-05
2.36917e-05
2.36917e-05
2.36941e-05
2.36966e-05
2.3698e-05
2.36978e-05
2.3696e-05
2.36931e-05
2.36904e-05
2.36896e-05
2.36909e-05
2.36928e-05
2.36939e-05
2.36942e-05
2.36938e-05
2.36942e-05
2.3695e-05
2.36955e-05
2.36894e-05
2.36053e-05
2.36124e-05
2.36947e-05
2.37033e-05
2.37048e-05
2.37051e-05
2.37038e-05
2.37012e-05
2.36985e-05
2.36962e-05
2.36941e-05
2.3692e-05
2.36915e-05
2.36938e-05
2.36964e-05
2.36978e-05
2.36977e-05
2.36965e-05
2.36948e-05
2.3693e-05
2.36921e-05
2.36924e-05
2.36939e-05
2.36952e-05
2.36957e-05
2.36957e-05
2.36965e-05
2.36976e-05
2.36989e-05
2.36944e-05
2.36088e-05
2.36115e-05
2.37025e-05
2.37072e-05
2.37062e-05
2.37037e-05
2.37005e-05
2.36976e-05
2.36962e-05
2.36961e-05
2.36953e-05
2.36937e-05
2.3693e-05
2.36943e-05
2.3696e-05
2.36969e-05
2.36971e-05
2.36968e-05
2.3696e-05
2.3695e-05
2.36943e-05
2.36945e-05
2.36951e-05
2.3696e-05
2.36968e-05
2.36977e-05
2.36992e-05
2.3701e-05
2.37026e-05
2.36971e-05
2.36099e-05
2.36114e-05
2.37071e-05
2.371e-05
2.37078e-05
2.37048e-05
2.37016e-05
2.36991e-05
2.36979e-05
2.36975e-05
2.36966e-05
2.36955e-05
2.36946e-05
2.36946e-05
2.36949e-05
2.36951e-05
2.36956e-05
2.36962e-05
2.36965e-05
2.36964e-05
2.36964e-05
2.36965e-05
2.36968e-05
2.36975e-05
2.36985e-05
2.37003e-05
2.37023e-05
2.37039e-05
2.37046e-05
2.36972e-05
2.36101e-05
2.36159e-05
2.37092e-05
2.37127e-05
2.37107e-05
2.37081e-05
2.37057e-05
2.37037e-05
2.37019e-05
2.36997e-05
2.36978e-05
2.36963e-05
2.36948e-05
2.36937e-05
2.3693e-05
2.36928e-05
2.36934e-05
2.36948e-05
2.36961e-05
2.36971e-05
2.36976e-05
2.36979e-05
2.36983e-05
2.36992e-05
2.37015e-05
2.37044e-05
2.37061e-05
2.37066e-05
2.3706e-05
2.36981e-05
2.36124e-05
2.36212e-05
2.37105e-05
2.37152e-05
2.37135e-05
2.37114e-05
2.37095e-05
2.37078e-05
2.37057e-05
2.37031e-05
2.37004e-05
2.36979e-05
2.36954e-05
2.36933e-05
2.36916e-05
2.36908e-05
2.36917e-05
2.36939e-05
2.3696e-05
2.36976e-05
2.36986e-05
2.36995e-05
2.3701e-05
2.3704e-05
2.37073e-05
2.37091e-05
2.37096e-05
2.37094e-05
2.37091e-05
2.37025e-05
2.36173e-05
2.36264e-05
2.37121e-05
2.37175e-05
2.37162e-05
2.37148e-05
2.37135e-05
2.37119e-05
2.37096e-05
2.37068e-05
2.37036e-05
2.37003e-05
2.3697e-05
2.36943e-05
2.36924e-05
2.36918e-05
2.36929e-05
2.3695e-05
2.36971e-05
2.36991e-05
2.37011e-05
2.37036e-05
2.3707e-05
2.37102e-05
2.37119e-05
2.37121e-05
2.3712e-05
2.37125e-05
2.37131e-05
2.37073e-05
2.36225e-05
2.36315e-05
2.37148e-05
2.3721e-05
2.37203e-05
2.37192e-05
2.37178e-05
2.37158e-05
2.37132e-05
2.371e-05
2.37064e-05
2.37025e-05
2.36994e-05
2.3697e-05
2.36954e-05
2.36946e-05
2.36949e-05
2.36965e-05
2.36989e-05
2.3702e-05
2.37056e-05
2.37095e-05
2.37129e-05
2.37147e-05
2.37148e-05
2.3715e-05
2.3716e-05
2.37173e-05
2.37181e-05
2.37123e-05
2.3628e-05
2.36372e-05
2.37197e-05
2.37264e-05
2.37259e-05
2.37247e-05
2.37226e-05
2.37198e-05
2.37165e-05
2.3713e-05
2.37094e-05
2.37062e-05
2.37032e-05
2.37003e-05
2.36974e-05
2.36952e-05
2.3695e-05
2.36971e-05
2.37009e-05
2.37055e-05
2.37105e-05
2.37146e-05
2.37169e-05
2.37178e-05
2.37186e-05
2.37201e-05
2.37222e-05
2.37239e-05
2.37246e-05
2.37188e-05
2.36348e-05
2.36447e-05
2.37272e-05
2.3734e-05
2.37333e-05
2.37313e-05
2.37283e-05
2.3725e-05
2.37215e-05
2.3718e-05
2.37144e-05
2.37108e-05
2.37069e-05
2.37027e-05
2.36983e-05
2.36952e-05
2.36955e-05
2.36988e-05
2.37038e-05
2.37097e-05
2.37147e-05
2.37182e-05
2.37205e-05
2.37225e-05
2.37249e-05
2.3728e-05
2.37308e-05
2.37324e-05
2.37332e-05
2.37273e-05
2.3644e-05
2.36545e-05
2.37376e-05
2.37439e-05
2.37426e-05
2.37398e-05
2.37364e-05
2.37329e-05
2.37292e-05
2.37251e-05
2.37208e-05
2.37161e-05
2.3711e-05
2.37054e-05
2.37002e-05
2.36974e-05
2.36979e-05
2.37015e-05
2.37074e-05
2.37133e-05
2.3718e-05
2.3722e-05
2.3726e-05
2.37297e-05
2.37336e-05
2.37375e-05
2.37405e-05
2.37425e-05
2.3744e-05
2.37385e-05
2.36558e-05
2.36679e-05
2.37512e-05
2.37565e-05
2.37543e-05
2.37511e-05
2.37475e-05
2.37436e-05
2.37392e-05
2.37343e-05
2.37291e-05
2.37231e-05
2.37165e-05
2.37099e-05
2.37046e-05
2.37011e-05
2.37009e-05
2.37046e-05
2.37107e-05
2.37169e-05
2.37231e-05
2.37291e-05
2.37343e-05
2.3739e-05
2.37438e-05
2.37477e-05
2.37508e-05
2.37541e-05
2.37569e-05
2.37533e-05
2.36683e-05
2.36853e-05
2.37673e-05
2.3772e-05
2.37695e-05
2.3766e-05
2.37619e-05
2.37571e-05
2.37517e-05
2.37458e-05
2.37391e-05
2.37316e-05
2.37237e-05
2.37168e-05
2.3711e-05
2.3706e-05
2.3705e-05
2.37091e-05
2.37159e-05
2.37239e-05
2.37318e-05
2.37387e-05
2.37448e-05
2.37505e-05
2.37559e-05
2.37601e-05
2.37645e-05
2.37692e-05
2.37727e-05
2.37677e-05
2.36838e-05
2.37061e-05
2.37866e-05
2.37914e-05
2.37884e-05
2.37842e-05
2.37791e-05
2.37731e-05
2.37664e-05
2.37591e-05
2.37509e-05
2.37421e-05
2.37338e-05
2.37263e-05
2.37185e-05
2.37117e-05
2.37105e-05
2.37157e-05
2.37242e-05
2.37336e-05
2.37427e-05
2.37511e-05
2.37589e-05
2.37653e-05
2.37716e-05
2.37774e-05
2.37832e-05
2.37884e-05
2.37903e-05
2.37851e-05
2.37035e-05
2.37303e-05
2.38099e-05
2.3814e-05
2.38103e-05
2.38054e-05
2.37993e-05
2.37924e-05
2.37845e-05
2.37758e-05
2.37661e-05
2.37561e-05
2.37467e-05
2.37369e-05
2.37268e-05
2.37188e-05
2.3718e-05
2.37248e-05
2.3735e-05
2.37462e-05
2.3757e-05
2.3767e-05
2.37765e-05
2.37845e-05
2.37924e-05
2.37999e-05
2.38065e-05
2.38113e-05
2.38128e-05
2.38079e-05
2.37288e-05
2.3759e-05
2.38372e-05
2.38409e-05
2.38368e-05
2.38312e-05
2.38244e-05
2.38164e-05
2.38072e-05
2.37966e-05
2.3785e-05
2.37733e-05
2.37614e-05
2.37489e-05
2.37368e-05
2.37278e-05
2.37276e-05
2.3736e-05
2.37479e-05
2.37609e-05
2.37737e-05
2.37854e-05
2.37972e-05
2.3808e-05
2.38178e-05
2.38265e-05
2.38334e-05
2.38383e-05
2.38413e-05
2.38381e-05
2.37593e-05
2.37937e-05
2.38707e-05
2.38743e-05
2.38696e-05
2.38632e-05
2.38552e-05
2.38456e-05
2.38345e-05
2.38217e-05
2.38079e-05
2.37936e-05
2.37789e-05
2.37638e-05
2.37497e-05
2.37399e-05
2.37401e-05
2.375e-05
2.37636e-05
2.37787e-05
2.3794e-05
2.38081e-05
2.38229e-05
2.38363e-05
2.38474e-05
2.38571e-05
2.38648e-05
2.38711e-05
2.38767e-05
2.38742e-05
2.37956e-05
2.38362e-05
2.39125e-05
2.39155e-05
2.39099e-05
2.39021e-05
2.38924e-05
2.38809e-05
2.38677e-05
2.38526e-05
2.38363e-05
2.38192e-05
2.38013e-05
2.37832e-05
2.37669e-05
2.37558e-05
2.37561e-05
2.37676e-05
2.37836e-05
2.38011e-05
2.38192e-05
2.38365e-05
2.3854e-05
2.38692e-05
2.3882e-05
2.38933e-05
2.39029e-05
2.39112e-05
2.3919e-05
2.39167e-05
2.38393e-05
2.38884e-05
2.39636e-05
2.39656e-05
2.39588e-05
2.39494e-05
2.39378e-05
2.39243e-05
2.39087e-05
2.38911e-05
2.38717e-05
2.38509e-05
2.38292e-05
2.3808e-05
2.37894e-05
2.37767e-05
2.37769e-05
2.37901e-05
2.38087e-05
2.38287e-05
2.38501e-05
2.38706e-05
2.38904e-05
2.39078e-05
2.39235e-05
2.39374e-05
2.39494e-05
2.39599e-05
2.39687e-05
2.39666e-05
2.38916e-05
2.3952e-05
2.40254e-05
2.40264e-05
2.40183e-05
2.40071e-05
2.39932e-05
2.39769e-05
2.39583e-05
2.39373e-05
2.39142e-05
2.38895e-05
2.38643e-05
2.384e-05
2.3819e-05
2.38046e-05
2.38045e-05
2.38189e-05
2.38403e-05
2.38634e-05
2.38882e-05
2.3912e-05
2.39351e-05
2.39556e-05
2.39748e-05
2.39914e-05
2.40061e-05
2.40186e-05
2.40277e-05
2.40265e-05
2.39538e-05
2.40287e-05
2.41e-05
2.40999e-05
2.40899e-05
2.40762e-05
2.40594e-05
2.40399e-05
2.40176e-05
2.39929e-05
2.3966e-05
2.39377e-05
2.3909e-05
2.38812e-05
2.38569e-05
2.38404e-05
2.38404e-05
2.38566e-05
2.3881e-05
2.39079e-05
2.39367e-05
2.39642e-05
2.39913e-05
2.40156e-05
2.4038e-05
2.40576e-05
2.40754e-05
2.40895e-05
2.40993e-05
2.40989e-05
2.40285e-05
2.41209e-05
2.41889e-05
2.41871e-05
2.4175e-05
2.41589e-05
2.41395e-05
2.41168e-05
2.40908e-05
2.40623e-05
2.40313e-05
2.39989e-05
2.3966e-05
2.39339e-05
2.39057e-05
2.38871e-05
2.38878e-05
2.39069e-05
2.39347e-05
2.39659e-05
2.39992e-05
2.40307e-05
2.40623e-05
2.40904e-05
2.4116e-05
2.4139e-05
2.41597e-05
2.4175e-05
2.41856e-05
2.4186e-05
2.41196e-05
2.42313e-05
2.42949e-05
2.42917e-05
2.42783e-05
2.42604e-05
2.42384e-05
2.42122e-05
2.41824e-05
2.41497e-05
2.41144e-05
2.40771e-05
2.40395e-05
2.40029e-05
2.39714e-05
2.39502e-05
2.39509e-05
2.39728e-05
2.40042e-05
2.40399e-05
2.40787e-05
2.41148e-05
2.41506e-05
2.41825e-05
2.42121e-05
2.42387e-05
2.42615e-05
2.42782e-05
2.42906e-05
2.42935e-05
2.4231e-05
2.4364e-05
2.44234e-05
2.442e-05
2.44052e-05
2.43847e-05
2.4359e-05
2.43289e-05
2.42951e-05
2.42582e-05
2.42183e-05
2.41761e-05
2.41339e-05
2.4093e-05
2.40579e-05
2.40339e-05
2.40332e-05
2.40572e-05
2.40936e-05
2.4134e-05
2.41782e-05
2.4219e-05
2.42586e-05
2.42949e-05
2.43292e-05
2.43594e-05
2.43841e-05
2.44042e-05
2.44199e-05
2.44252e-05
2.43657e-05
2.4524e-05
2.45805e-05
2.45755e-05
2.45577e-05
2.45335e-05
2.4504e-05
2.44701e-05
2.44322e-05
2.43905e-05
2.4346e-05
2.42989e-05
2.42522e-05
2.42066e-05
2.4167e-05
2.41404e-05
2.41391e-05
2.41658e-05
2.42072e-05
2.42527e-05
2.43008e-05
2.43461e-05
2.43901e-05
2.44315e-05
2.44705e-05
2.45045e-05
2.45319e-05
2.45566e-05
2.45758e-05
2.4581e-05
2.45252e-05
2.47169e-05
2.47684e-05
2.47605e-05
2.47397e-05
2.47127e-05
2.46802e-05
2.46425e-05
2.46001e-05
2.45534e-05
2.45043e-05
2.44524e-05
2.4401e-05
2.43513e-05
2.43065e-05
2.42775e-05
2.42766e-05
2.43064e-05
2.43517e-05
2.44018e-05
2.44535e-05
2.45037e-05
2.45528e-05
2.45997e-05
2.46421e-05
2.46804e-05
2.47119e-05
2.47399e-05
2.47611e-05
2.47667e-05
2.47153e-05
2.49475e-05
2.49925e-05
2.4983e-05
2.49611e-05
2.49321e-05
2.48962e-05
2.4854e-05
2.48078e-05
2.47571e-05
2.47044e-05
2.46483e-05
2.4592e-05
2.4539e-05
2.44892e-05
2.44565e-05
2.4456e-05
2.44889e-05
2.45379e-05
2.45922e-05
2.46475e-05
2.4703e-05
2.47567e-05
2.48076e-05
2.48529e-05
2.48953e-05
2.49322e-05
2.49613e-05
2.49829e-05
2.49921e-05
2.49454e-05
2.52242e-05
2.52649e-05
2.52547e-05
2.52306e-05
2.51982e-05
2.51586e-05
2.51128e-05
2.50641e-05
2.50099e-05
2.49537e-05
2.48951e-05
2.48348e-05
2.47795e-05
2.47258e-05
2.46888e-05
2.46907e-05
2.47266e-05
2.47777e-05
2.48357e-05
2.48946e-05
2.49535e-05
2.50093e-05
2.50628e-05
2.51132e-05
2.51577e-05
2.51983e-05
2.52297e-05
2.52526e-05
2.52657e-05
2.52251e-05
2.55607e-05
2.55975e-05
2.55839e-05
2.55563e-05
2.55207e-05
2.54791e-05
2.54299e-05
2.53788e-05
2.53229e-05
2.52647e-05
2.52076e-05
2.51451e-05
2.50864e-05
2.50332e-05
2.49943e-05
2.49964e-05
2.50348e-05
2.50872e-05
2.51458e-05
2.52068e-05
2.52661e-05
2.53231e-05
2.53785e-05
2.54331e-05
2.54789e-05
2.55202e-05
2.55568e-05
2.55847e-05
2.55991e-05
2.55604e-05
2.59725e-05
2.60059e-05
2.59883e-05
2.59584e-05
2.59193e-05
2.58756e-05
2.58249e-05
2.5773e-05
2.57186e-05
2.56617e-05
2.56077e-05
2.55496e-05
2.54945e-05
2.54479e-05
2.54132e-05
2.5413e-05
2.5447e-05
2.54976e-05
2.55511e-05
2.56065e-05
2.56624e-05
2.57187e-05
2.57736e-05
2.58256e-05
2.58748e-05
2.59199e-05
2.59599e-05
2.59891e-05
2.60062e-05
2.59705e-05
2.64858e-05
2.65273e-05
2.65028e-05
2.64695e-05
2.64285e-05
2.63834e-05
2.63302e-05
2.62809e-05
2.6239e-05
2.61954e-05
2.61678e-05
2.61595e-05
2.6168e-05
2.61842e-05
2.62133e-05
2.62193e-05
2.61879e-05
2.61664e-05
2.61594e-05
2.61715e-05
2.61972e-05
2.62376e-05
2.62841e-05
2.63292e-05
2.63797e-05
2.64309e-05
2.64709e-05
2.6499e-05
2.65246e-05
2.64879e-05
2.71942e-05
2.72861e-05
2.72536e-05
2.72428e-05
2.72045e-05
2.71427e-05
2.70984e-05
2.70921e-05
2.71182e-05
2.71932e-05
2.74532e-05
2.79012e-05
2.85421e-05
2.92507e-05
2.99781e-05
2.99967e-05
2.92655e-05
2.85444e-05
2.79138e-05
2.74576e-05
2.71968e-05
2.71197e-05
2.70908e-05
2.70995e-05
2.71428e-05
2.72022e-05
2.72422e-05
2.72567e-05
2.72861e-05
2.71942e-05
2.85521e-05
2.88669e-05
2.89884e-05
2.92774e-05
2.91621e-05
2.90274e-05
2.92414e-05
2.95085e-05
3.00582e-05
3.12176e-05
3.38253e-05
3.80401e-05
4.34634e-05
4.88595e-05
5.44466e-05
5.45235e-05
4.89732e-05
4.34779e-05
3.8164e-05
3.38587e-05
3.12411e-05
3.00716e-05
2.95126e-05
2.92471e-05
2.90328e-05
2.91542e-05
2.92756e-05
2.89983e-05
2.887e-05
2.85535e-05
3.28224e-05
3.36248e-05
3.54802e-05
3.9109e-05
3.71601e-05
3.70209e-05
4.24102e-05
4.31454e-05
4.6257e-05
5.60553e-05
7.23139e-05
9.422e-05
0.000121975
0.000145801
0.000169057
0.000169191
0.000146238
0.000122142
9.51151e-05
7.24328e-05
5.61885e-05
4.636e-05
4.31937e-05
4.24978e-05
3.70773e-05
3.71342e-05
3.90999e-05
3.55178e-05
3.36295e-05
3.28046e-05
4.77006e-05
5.21851e-05
6.15171e-05
8.0924e-05
7.30072e-05
7.93655e-05
0.000128094
0.000127671
0.00014545
0.000223205
0.000271041
0.00032408
0.000416808
0.000475075
0.000524133
0.000522884
0.000476085
0.000416941
0.000327111
0.000271665
0.000223926
0.000146015
0.000128076
0.000128784
7.97541e-05
7.30765e-05
8.09825e-05
6.16604e-05
5.21112e-05
4.75867e-05
9.72154e-05
0.000138504
0.00014854
0.000231354
0.000260342
0.000286009
0.00040598
0.000454941
0.00048055
0.000715616
0.000838711
0.000876617
0.00101819
0.00107221
0.00113907
0.00113109
0.00107936
0.00101918
0.000880089
0.000831844
0.000714267
0.000480759
0.000457528
0.000408368
0.000287434
0.000262687
0.000232862
0.000148896
0.000137957
9.71294e-05
0.000212709
0.000387519
0.000399696
0.000617635
0.000790357
0.000902411
0.00113558
0.00138938
0.00143853
0.0017317
0.0018536
0.00180037
0.00193636
0.00209303
0.0019875
0.00196268
0.00207729
0.00193855
0.00176356
0.0018158
0.00172093
0.00143981
0.00139818
0.00114677
0.000914253
0.000801107
0.00062785
0.00040065
0.000384844
0.00021582
0.000349582
0.000468645
0.000573898
0.000809303
0.00102951
0.00120119
0.00147153
0.0017375
0.00174457
0.00216654
0.00226215
0.00229231
0.00222999
0.00230077
0.0022072
0.00218575
0.00226114
0.00224767
0.00210133
0.00216343
0.00214499
0.00175808
0.00174301
0.00149011
0.0012339
0.00105228
0.00081924
0.000578141
0.000467644
0.000350477
0.000416921
0.000500425
0.000579091
0.000853919
0.00101127
0.00103814
0.00132298
0.00156487
0.00148565
0.00198988
0.00202757
0.00176934
0.00177022
0.00191887
0.00189399
0.00189832
0.00194217
0.00182014
0.00177117
0.00202161
0.00202243
0.00150318
0.00158144
0.00133384
0.00105142
0.00102512
0.000861245
0.000593831
0.000503376
0.000414753
0.000408084
0.000423087
0.000511005
0.000773767
0.0008124
0.000819641
0.000984359
0.00115439
0.00124607
0.00154235
0.00144713
0.00139247
0.00138664
0.00146479
0.0016763
0.0016953
0.00151964
0.00142859
0.00146847
0.00146294
0.0015881
0.00124246
0.00115854
0.000992221
0.000827591
0.000822456
0.000784041
0.000515999
0.000428795
0.000408579
0.000352295
0.000361362
0.000428759
0.000636758
0.000631251
0.0006048
0.000727619
0.000799781
0.000887727
0.00110061
0.00105688
0.00104148
0.00112525
0.00119735
0.00127238
0.00128086
0.00122298
0.00113691
0.00106442
0.00104777
0.00112547
0.000896973
0.000810117
0.000732453
0.00061167
0.00063606
0.000643212
0.000432346
0.000367258
0.000349458
0.000261073
0.000286005
0.000326785
0.000445882
0.000430897
0.000384515
0.000501579
0.000580446
0.000663885
0.000801603
0.000834419
0.000831397
0.00084218
0.000882389
0.000895797
0.000897351
0.000895152
0.000845357
0.000824898
0.000823156
0.000810415
0.000667284
0.000582424
0.000505959
0.000387077
0.000435345
0.000450689
0.000327459
0.000291023
0.00026236
0.000194868
0.000214386
0.000232588
0.000276326
0.000267444
0.000242547
0.000274897
0.000339997
0.000440394
0.000586747
0.000692264
0.000759425
0.000796791
0.000819425
0.000816891
0.000815867
0.000824998
0.000797912
0.000756566
0.000689043
0.000588887
0.000440985
0.00034182
0.000278695
0.000244069
0.000270891
0.000279016
0.000232064
0.000216512
0.000196017
0.000154027
0.00016297
0.000167407
0.000176824
0.000173576
0.000167289
0.000174253
0.000195293
0.000239794
0.000336965
0.000477449
0.000620346
0.000726232
0.000788598
0.000808889
0.000808098
0.000790851
0.000727147
0.000619248
0.000476147
0.000338425
0.000240404
0.000196161
0.000175662
0.000168566
0.000175675
0.000178755
0.000167913
0.000163983
0.000155027
0.000127138
0.000130372
0.00013013
0.000130609
0.000129355
0.000128383
0.000130594
0.000136431
0.000149622
0.00018202
0.000255902
0.000381721
0.000531124
0.000651574
0.00071539
0.000714936
0.000652676
0.000532197
0.000381109
0.000255504
0.000182817
0.000150255
0.000136996
0.000130786
0.000128611
0.000130086
0.000131471
0.000130316
0.000130823
0.000127971
0.000108749
0.000109789
0.000108825
0.000108425
0.000108049
0.000108069
0.00010893
0.000111207
0.000115162
0.000123608
0.000143995
0.000193179
0.000280022
0.000393088
0.000482592
0.000481929
0.000393034
0.000280549
0.000193052
0.00014414
0.000124311
0.000115645
0.000111545
0.000109219
0.000108132
0.000108191
0.00010868
0.00010934
0.000110098
0.000109113
9.54894e-05
9.54322e-05
9.46199e-05
9.46e-05
9.44953e-05
9.49182e-05
9.60529e-05
9.73668e-05
9.90979e-05
0.000101611
0.000106195
0.000116986
0.00014058
0.000178964
0.000222327
0.000222198
0.000178909
0.000140844
0.000117066
0.000106591
0.000101999
9.94383e-05
9.76966e-05
9.63377e-05
9.52678e-05
9.4934e-05
9.45949e-05
9.49984e-05
9.56374e-05
9.55056e-05
8.53081e-05
8.42086e-05
8.39025e-05
8.40433e-05
8.45631e-05
8.53143e-05
8.6525e-05
8.74697e-05
8.85476e-05
8.96186e-05
9.0841e-05
9.27363e-05
9.65126e-05
0.000103437
0.000112371
0.000112556
0.000103734
9.67167e-05
9.26757e-05
9.10082e-05
8.98094e-05
8.86531e-05
8.75686e-05
8.64807e-05
8.54757e-05
8.47071e-05
8.41885e-05
8.40978e-05
8.47205e-05
8.58149e-05
7.7938e-05
7.55786e-05
7.54858e-05
7.58434e-05
7.63725e-05
7.71708e-05
7.80938e-05
7.86835e-05
7.93867e-05
7.99036e-05
8.01602e-05
8.02613e-05
8.04948e-05
8.11546e-05
8.21976e-05
8.21752e-05
8.13063e-05
8.0698e-05
8.04305e-05
8.02874e-05
7.99345e-05
7.94957e-05
7.89392e-05
7.8023e-05
7.70827e-05
7.62744e-05
7.58922e-05
7.56411e-05
7.61773e-05
7.83698e-05
7.15637e-05
6.88071e-05
6.85378e-05
6.88455e-05
6.93714e-05
6.99946e-05
7.04863e-05
7.09082e-05
7.12759e-05
7.13209e-05
7.10939e-05
7.08162e-05
7.04975e-05
7.01483e-05
6.99379e-05
6.99035e-05
7.02697e-05
7.06627e-05
7.10495e-05
7.13406e-05
7.14587e-05
7.14277e-05
7.11077e-05
7.05274e-05
6.99216e-05
6.93922e-05
6.90585e-05
6.87275e-05
6.91831e-05
7.1896e-05
6.59191e-05
6.30084e-05
6.26238e-05
6.29116e-05
6.33585e-05
6.3782e-05
6.40367e-05
6.42156e-05
6.4143e-05
6.38219e-05
6.3417e-05
6.29753e-05
6.24011e-05
6.1794e-05
6.14007e-05
6.14691e-05
6.19948e-05
6.25496e-05
6.30695e-05
6.35586e-05
6.39828e-05
6.42833e-05
6.42526e-05
6.40236e-05
6.37319e-05
6.34374e-05
6.31421e-05
6.28368e-05
6.32426e-05
6.6056e-05
6.06744e-05
5.78256e-05
5.75307e-05
5.77651e-05
5.80448e-05
5.82314e-05
5.82881e-05
5.81558e-05
5.78212e-05
5.73768e-05
5.68344e-05
5.6193e-05
5.54503e-05
5.48026e-05
5.44336e-05
5.45307e-05
5.49847e-05
5.55634e-05
5.62454e-05
5.69588e-05
5.75859e-05
5.80258e-05
5.82086e-05
5.82387e-05
5.81803e-05
5.80391e-05
5.77987e-05
5.76109e-05
5.8035e-05
6.07055e-05
5.58232e-05
5.33939e-05
5.30665e-05
5.31405e-05
5.31979e-05
5.32126e-05
5.30838e-05
5.2735e-05
5.22815e-05
5.17279e-05
5.10708e-05
5.03452e-05
4.95979e-05
4.89725e-05
4.85968e-05
4.86452e-05
4.9054e-05
4.96695e-05
5.04357e-05
5.12375e-05
5.19608e-05
5.25193e-05
5.28767e-05
5.30879e-05
5.31679e-05
5.31418e-05
5.30331e-05
5.29958e-05
5.34533e-05
5.59618e-05
5.16928e-05
4.93848e-05
4.90181e-05
4.90088e-05
4.89798e-05
4.88757e-05
4.85329e-05
4.80737e-05
4.75809e-05
4.69721e-05
4.62481e-05
4.54742e-05
4.47148e-05
4.4082e-05
4.36821e-05
4.36857e-05
4.40778e-05
4.47281e-05
4.55432e-05
4.63834e-05
4.71567e-05
4.77904e-05
4.82505e-05
4.85638e-05
4.87745e-05
4.88846e-05
4.89174e-05
4.89782e-05
4.94197e-05
5.1754e-05
4.77955e-05
4.57203e-05
4.54502e-05
4.53744e-05
4.52435e-05
4.49804e-05
4.45695e-05
4.41582e-05
4.36766e-05
4.30331e-05
4.22695e-05
4.14626e-05
4.06954e-05
4.00636e-05
3.96629e-05
3.96484e-05
4.00229e-05
4.06638e-05
4.14592e-05
4.22766e-05
4.30455e-05
4.37211e-05
4.42683e-05
4.46765e-05
4.49778e-05
4.51883e-05
4.53228e-05
4.54388e-05
4.58478e-05
4.79295e-05
4.43085e-05
4.26618e-05
4.23362e-05
4.21412e-05
4.18972e-05
4.15688e-05
4.12084e-05
4.0814e-05
4.02883e-05
3.96172e-05
3.88555e-05
3.80626e-05
3.73118e-05
3.6678e-05
3.62671e-05
3.62311e-05
3.65869e-05
3.72172e-05
3.79998e-05
3.8817e-05
3.95981e-05
4.02958e-05
4.08729e-05
4.13203e-05
4.16755e-05
4.19541e-05
4.21558e-05
4.23113e-05
4.2695e-05
4.44899e-05
4.14021e-05
3.99835e-05
3.95578e-05
3.9295e-05
3.90362e-05
3.87504e-05
3.84098e-05
3.79668e-05
3.74107e-05
3.67565e-05
3.60375e-05
3.52825e-05
3.45564e-05
3.394e-05
3.35452e-05
3.35195e-05
3.38728e-05
3.44873e-05
3.52396e-05
3.60174e-05
3.67541e-05
3.7422e-05
3.79989e-05
3.84731e-05
3.88555e-05
3.91556e-05
3.93816e-05
3.95587e-05
3.99092e-05
4.14292e-05
3.87689e-05
3.74847e-05
3.70949e-05
3.68887e-05
3.67006e-05
3.64412e-05
3.60575e-05
3.55884e-05
3.5057e-05
3.44399e-05
3.37554e-05
3.30349e-05
3.23504e-05
3.17835e-05
3.14311e-05
3.14191e-05
3.17504e-05
3.23154e-05
3.30055e-05
3.3724e-05
3.44114e-05
3.50455e-05
3.56049e-05
3.60774e-05
3.64569e-05
3.67553e-05
3.69835e-05
3.71594e-05
3.74634e-05
3.87375e-05
3.64367e-05
3.53134e-05
3.50367e-05
3.49129e-05
3.47335e-05
3.444e-05
3.40536e-05
3.36305e-05
3.31425e-05
3.25581e-05
3.1901e-05
3.1221e-05
3.05897e-05
3.00755e-05
2.97581e-05
2.97522e-05
3.00604e-05
3.05767e-05
3.12016e-05
3.18541e-05
3.24894e-05
3.30845e-05
3.36178e-05
3.40715e-05
3.44359e-05
3.47175e-05
3.49276e-05
3.50858e-05
3.53421e-05
3.64029e-05
3.43583e-05
3.34537e-05
3.32705e-05
3.31515e-05
3.29525e-05
3.26778e-05
3.23644e-05
3.19988e-05
3.15372e-05
3.09889e-05
3.03852e-05
2.97766e-05
2.92162e-05
2.87508e-05
2.84538e-05
2.84424e-05
2.87222e-05
2.91898e-05
2.97531e-05
3.03426e-05
3.09242e-05
3.14729e-05
3.19666e-05
3.23829e-05
3.27144e-05
3.29679e-05
3.31565e-05
3.32998e-05
3.35179e-05
3.43879e-05
3.25586e-05
3.18942e-05
3.17247e-05
3.1584e-05
3.14208e-05
3.12198e-05
3.09661e-05
3.06157e-05
3.0178e-05
2.96807e-05
2.91501e-05
2.86215e-05
2.81197e-05
2.76828e-05
2.7398e-05
2.7386e-05
2.76508e-05
2.80845e-05
2.85936e-05
2.91186e-05
2.96334e-05
3.01174e-05
3.05528e-05
3.0923e-05
3.12218e-05
3.14539e-05
3.16283e-05
3.17603e-05
3.19455e-05
3.26479e-05
3.11414e-05
3.05911e-05
3.04055e-05
3.03034e-05
3.01891e-05
3.00205e-05
2.97703e-05
2.94311e-05
2.90385e-05
2.86067e-05
2.81543e-05
2.76952e-05
2.72377e-05
2.6827e-05
2.65667e-05
2.6566e-05
2.68137e-05
2.7203e-05
2.76487e-05
2.8105e-05
2.85511e-05
2.89741e-05
2.93546e-05
2.96813e-05
2.99511e-05
3.01635e-05
3.03225e-05
3.04409e-05
3.05962e-05
3.11565e-05
2.99392e-05
2.94402e-05
2.93208e-05
2.92597e-05
2.91378e-05
2.89614e-05
2.87182e-05
2.84232e-05
2.80919e-05
2.77287e-05
2.7346e-05
2.69421e-05
2.65284e-05
2.61629e-05
2.59402e-05
2.59418e-05
2.61521e-05
2.64827e-05
2.68681e-05
2.72729e-05
2.76722e-05
2.80473e-05
2.83825e-05
2.86696e-05
2.89054e-05
2.90891e-05
2.92242e-05
2.93236e-05
2.94501e-05
2.98904e-05
2.88282e-05
2.84923e-05
2.84497e-05
2.83622e-05
2.82244e-05
2.80583e-05
2.78505e-05
2.76071e-05
2.73242e-05
2.70123e-05
2.66784e-05
2.63181e-05
2.59546e-05
2.5648e-05
2.54634e-05
2.54552e-05
2.56213e-05
2.59024e-05
2.62465e-05
2.66163e-05
2.69812e-05
2.73159e-05
2.7608e-05
2.78519e-05
2.80461e-05
2.81935e-05
2.83006e-05
2.83808e-05
2.8483e-05
2.88316e-05
2.79738e-05
2.78136e-05
2.77243e-05
2.75997e-05
2.74778e-05
2.73382e-05
2.71665e-05
2.69573e-05
2.6711e-05
2.64421e-05
2.61503e-05
2.58369e-05
2.55324e-05
2.52815e-05
2.51232e-05
2.51031e-05
2.52332e-05
2.54754e-05
2.57827e-05
2.61119e-05
2.64302e-05
2.67162e-05
2.69589e-05
2.71563e-05
2.73121e-05
2.74324e-05
2.75249e-05
2.7598e-05
2.76861e-05
2.79568e-05
2.73579e-05
2.71898e-05
2.70426e-05
2.69475e-05
2.68608e-05
2.67471e-05
2.66025e-05
2.64227e-05
2.62177e-05
2.59946e-05
2.57477e-05
2.54862e-05
2.52388e-05
2.50304e-05
2.48876e-05
2.48619e-05
2.4969e-05
2.51736e-05
2.54297e-05
2.56988e-05
2.59554e-05
2.61866e-05
2.63873e-05
2.65563e-05
2.66952e-05
2.68072e-05
2.68963e-05
2.69665e-05
2.70389e-05
2.72337e-05
2.67431e-05
2.65168e-05
2.6444e-05
2.64124e-05
2.63522e-05
2.62557e-05
2.61287e-05
2.59776e-05
2.58129e-05
2.56283e-05
2.54181e-05
2.51993e-05
2.49948e-05
2.48173e-05
2.46934e-05
2.46745e-05
2.47682e-05
2.49341e-05
2.51345e-05
2.53427e-05
2.55456e-05
2.57397e-05
2.59208e-05
2.60807e-05
2.62135e-05
2.63188e-05
2.6399e-05
2.6456e-05
2.6502e-05
2.66243e-05
2.61218e-05
2.6007e-05
2.60329e-05
2.6018e-05
2.59565e-05
2.58618e-05
2.57458e-05
2.56217e-05
2.54877e-05
2.53267e-05
2.51422e-05
2.49579e-05
2.47867e-05
2.46373e-05
2.45344e-05
2.45241e-05
2.46088e-05
2.47445e-05
2.49023e-05
2.50684e-05
2.52392e-05
2.54117e-05
2.55754e-05
2.57179e-05