/*--------------------------------*- C++ -*----------------------------------*\
| =========                 |                                                 |
| \\      /  F ield         | OpenFOAM: The Open Source CFD Toolbox           |
|  \\    /   O peration     | Version:  2312                                  |
|   \\  /    A nd           | Website:  www.openfoam.com                      |
|    \\/     M anipulation  |                                                 |
\*---------------------------------------------------------------------------*/
FoamFile
{
    version     2.0;
    format      ascii;
    arch        "LSB;label=32;scalar=64";
    class       volScalarField;
    location    "1.065074";
    object      nut;
}
// * * * * * * * * * * * * * * * * * * * * * * * * * * * * * * * * * * * * * //

dimensions      [0 2 -1 0 0 0 0];

internalField   nonuniform List<scalar> 
90000
(
5.36023e-06
5.36071e-06
5.36082e-06
5.36086e-06
5.36087e-06
5.36085e-06
5.36081e-06
5.36077e-06
5.36073e-06
5.3607e-06
5.36066e-06
5.36063e-06
5.36062e-06
5.36064e-06
5.36066e-06
5.36069e-06
5.36076e-06
5.36089e-06
5.36099e-06
5.36099e-06
5.36088e-06
5.36069e-06
5.36075e-06
5.36109e-06
5.36139e-06
5.36153e-06
5.36143e-06
5.36123e-06
5.36144e-06
5.3621e-06
5.36087e-06
5.37104e-06
5.37195e-06
5.37194e-06
5.37188e-06
5.37182e-06
5.37179e-06
5.37178e-06
5.37176e-06
5.37174e-06
5.37174e-06
5.37178e-06
5.37183e-06
5.37186e-06
5.37189e-06
5.37191e-06
5.3719e-06
5.37188e-06
5.37183e-06
5.37177e-06
5.37182e-06
5.37192e-06
5.37199e-06
5.37199e-06
5.37188e-06
5.37172e-06
5.37186e-06
5.37231e-06
5.37185e-06
5.36373e-06
5.361e-06
5.37198e-06
5.37293e-06
5.37292e-06
5.37286e-06
5.37281e-06
5.37281e-06
5.37282e-06
5.37281e-06
5.37277e-06
5.37277e-06
5.37283e-06
5.37292e-06
5.37301e-06
5.37303e-06
5.37298e-06
5.37286e-06
5.37274e-06
5.37283e-06
5.373e-06
5.37311e-06
5.37315e-06
5.37315e-06
5.37315e-06
5.37321e-06
5.37335e-06
5.37343e-06
5.3737e-06
5.37389e-06
5.36326e-06
5.36097e-06
5.37202e-06
5.373e-06
5.37303e-06
5.37299e-06
5.37296e-06
5.37294e-06
5.37294e-06
5.37294e-06
5.37291e-06
5.37288e-06
5.37291e-06
5.37298e-06
5.37304e-06
5.37303e-06
5.37297e-06
5.37291e-06
5.37299e-06
5.37315e-06
5.37325e-06
5.37325e-06
5.37322e-06
5.37331e-06
5.37354e-06
5.37376e-06
5.37391e-06
5.37407e-06
5.37401e-06
5.37373e-06
5.36216e-06
5.36088e-06
5.37199e-06
5.37301e-06
5.37307e-06
5.37307e-06
5.37303e-06
5.37299e-06
5.37297e-06
5.37296e-06
5.37296e-06
5.37295e-06
5.37294e-06
5.37291e-06
5.37286e-06
5.37285e-06
5.37296e-06
5.37309e-06
5.3732e-06
5.37324e-06
5.3732e-06
5.37314e-06
5.37319e-06
5.37342e-06
5.37366e-06
5.37381e-06
5.37381e-06
5.37371e-06
5.37364e-06
5.37279e-06
5.36166e-06
5.36077e-06
5.372e-06
5.37302e-06
5.3731e-06
5.37313e-06
5.37311e-06
5.37307e-06
5.37301e-06
5.37297e-06
5.37298e-06
5.373e-06
5.37305e-06
5.3731e-06
5.3731e-06
5.37309e-06
5.37311e-06
5.37315e-06
5.37317e-06
5.37314e-06
5.37309e-06
5.37311e-06
5.37322e-06
5.37335e-06
5.37344e-06
5.37348e-06
5.37346e-06
5.37344e-06
5.37389e-06
5.37306e-06
5.36171e-06
5.36083e-06
5.37209e-06
5.37308e-06
5.37318e-06
5.37323e-06
5.37326e-06
5.37326e-06
5.3732e-06
5.37308e-06
5.373e-06
5.37304e-06
5.37314e-06
5.37327e-06
5.37333e-06
5.37328e-06
5.37314e-06
5.37301e-06
5.37294e-06
5.37299e-06
5.37309e-06
5.37318e-06
5.37322e-06
5.37318e-06
5.37308e-06
5.3731e-06
5.37345e-06
5.37387e-06
5.37428e-06
5.37341e-06
5.36168e-06
5.36091e-06
5.3723e-06
5.37322e-06
5.37331e-06
5.37339e-06
5.37346e-06
5.37349e-06
5.37345e-06
5.37333e-06
5.37317e-06
5.37311e-06
5.37318e-06
5.37329e-06
5.37334e-06
5.37327e-06
5.37309e-06
5.37286e-06
5.37276e-06
5.37293e-06
5.37309e-06
5.37317e-06
5.37314e-06
5.37302e-06
5.37299e-06
5.37327e-06
5.37367e-06
5.37405e-06
5.37422e-06
5.37319e-06
5.36152e-06
5.36106e-06
5.37257e-06
5.37341e-06
5.37347e-06
5.37353e-06
5.3736e-06
5.37365e-06
5.37364e-06
5.37358e-06
5.37347e-06
5.37333e-06
5.37323e-06
5.37318e-06
5.37316e-06
5.37315e-06
5.37313e-06
5.3731e-06
5.37309e-06
5.37313e-06
5.37317e-06
5.37317e-06
5.3731e-06
5.37301e-06
5.37313e-06
5.37343e-06
5.37375e-06
5.37397e-06
5.37395e-06
5.37285e-06
5.36137e-06
5.3614e-06
5.37268e-06
5.37346e-06
5.37348e-06
5.37349e-06
5.37352e-06
5.37356e-06
5.37362e-06
5.37367e-06
5.37366e-06
5.37357e-06
5.37338e-06
5.37312e-06
5.37296e-06
5.37305e-06
5.37327e-06
5.37346e-06
5.37359e-06
5.37363e-06
5.37359e-06
5.37348e-06
5.37333e-06
5.37319e-06
5.37322e-06
5.37341e-06
5.37361e-06
5.37369e-06
5.3736e-06
5.37256e-06
5.36131e-06
5.36169e-06
5.37264e-06
5.37337e-06
5.37336e-06
5.3733e-06
5.37324e-06
5.37324e-06
5.37335e-06
5.37351e-06
5.37362e-06
5.37363e-06
5.37349e-06
5.37325e-06
5.37301e-06
5.37303e-06
5.37333e-06
5.37366e-06
5.37392e-06
5.37406e-06
5.37406e-06
5.37391e-06
5.37366e-06
5.37341e-06
5.37327e-06
5.37332e-06
5.37344e-06
5.37352e-06
5.37348e-06
5.37254e-06
5.36143e-06
5.36172e-06
5.37272e-06
5.37347e-06
5.37345e-06
5.37338e-06
5.3733e-06
5.37327e-06
5.37329e-06
5.37336e-06
5.37345e-06
5.3735e-06
5.37349e-06
5.37337e-06
5.37316e-06
5.37295e-06
5.37326e-06
5.3737e-06
5.37405e-06
5.37423e-06
5.3742e-06
5.37401e-06
5.37374e-06
5.37346e-06
5.37324e-06
5.37328e-06
5.37341e-06
5.37353e-06
5.37356e-06
5.37273e-06
5.36156e-06
5.36159e-06
5.37289e-06
5.37369e-06
5.37377e-06
5.37391e-06
5.37404e-06
5.3741e-06
5.37405e-06
5.37386e-06
5.37359e-06
5.37345e-06
5.37353e-06
5.37358e-06
5.37356e-06
5.37351e-06
5.37358e-06
5.37374e-06
5.37385e-06
5.37387e-06
5.37381e-06
5.37369e-06
5.37355e-06
5.37339e-06
5.37327e-06
5.37334e-06
5.37344e-06
5.37355e-06
5.37363e-06
5.37279e-06
5.36163e-06
5.36205e-06
5.37288e-06
5.37391e-06
5.37419e-06
5.37454e-06
5.3748e-06
5.37488e-06
5.37472e-06
5.37432e-06
5.37383e-06
5.37345e-06
5.37352e-06
5.37375e-06
5.37396e-06
5.37407e-06
5.37406e-06
5.3739e-06
5.37359e-06
5.37327e-06
5.37317e-06
5.37328e-06
5.37339e-06
5.37343e-06
5.37341e-06
5.37342e-06
5.37348e-06
5.37359e-06
5.37367e-06
5.37277e-06
5.36172e-06
5.3627e-06
5.37268e-06
5.37427e-06
5.37472e-06
5.37507e-06
5.3752e-06
5.37509e-06
5.37474e-06
5.37425e-06
5.37375e-06
5.37336e-06
5.3734e-06
5.37376e-06
5.37411e-06
5.3743e-06
5.37427e-06
5.37402e-06
5.37361e-06
5.37322e-06
5.37306e-06
5.37319e-06
5.37342e-06
5.37356e-06
5.37358e-06
5.37353e-06
5.37361e-06
5.37376e-06
5.37383e-06
5.373e-06
5.36207e-06
5.36293e-06
5.3737e-06
5.3749e-06
5.37514e-06
5.37518e-06
5.37499e-06
5.37463e-06
5.37423e-06
5.3739e-06
5.37361e-06
5.37336e-06
5.37336e-06
5.37371e-06
5.37408e-06
5.37427e-06
5.37426e-06
5.37409e-06
5.37383e-06
5.37356e-06
5.37338e-06
5.37336e-06
5.37352e-06
5.37369e-06
5.37374e-06
5.37376e-06
5.37388e-06
5.37407e-06
5.37427e-06
5.37365e-06
5.36249e-06
5.36271e-06
5.37478e-06
5.37544e-06
5.3753e-06
5.37495e-06
5.37448e-06
5.37404e-06
5.37382e-06
5.37381e-06
5.37372e-06
5.37356e-06
5.37355e-06
5.37376e-06
5.37401e-06
5.37414e-06
5.37416e-06
5.37411e-06
5.37398e-06
5.37381e-06
5.37367e-06
5.37363e-06
5.37366e-06
5.37374e-06
5.37385e-06
5.37398e-06
5.3742e-06
5.37445e-06
5.37469e-06
5.37393e-06
5.36256e-06
5.36267e-06
5.37539e-06
5.37578e-06
5.37546e-06
5.37501e-06
5.37453e-06
5.37415e-06
5.37397e-06
5.37394e-06
5.37387e-06
5.3738e-06
5.37375e-06
5.37378e-06
5.37383e-06
5.37387e-06
5.37395e-06
5.37401e-06
5.37403e-06
5.37398e-06
5.37393e-06
5.3739e-06
5.37389e-06
5.37393e-06
5.37403e-06
5.37427e-06
5.37454e-06
5.37477e-06
5.37487e-06
5.37384e-06
5.36249e-06
5.36332e-06
5.37564e-06
5.37609e-06
5.37578e-06
5.37538e-06
5.37502e-06
5.37472e-06
5.37447e-06
5.3742e-06
5.374e-06
5.37387e-06
5.37372e-06
5.37361e-06
5.37355e-06
5.37355e-06
5.37365e-06
5.37381e-06
5.37396e-06
5.37405e-06
5.37407e-06
5.37406e-06
5.37406e-06
5.37411e-06
5.37441e-06
5.37479e-06
5.37501e-06
5.37508e-06
5.37498e-06
5.3739e-06
5.36275e-06
5.36403e-06
5.37576e-06
5.37636e-06
5.37608e-06
5.37575e-06
5.37545e-06
5.37521e-06
5.37493e-06
5.37462e-06
5.37431e-06
5.37402e-06
5.37375e-06
5.37351e-06
5.37333e-06
5.37326e-06
5.37339e-06
5.37365e-06
5.37389e-06
5.37405e-06
5.37415e-06
5.37421e-06
5.37435e-06
5.37474e-06
5.37517e-06
5.37539e-06
5.37542e-06
5.37539e-06
5.37535e-06
5.37449e-06
5.36336e-06
5.36468e-06
5.37587e-06
5.37655e-06
5.37634e-06
5.37609e-06
5.37589e-06
5.37568e-06
5.3754e-06
5.37506e-06
5.37468e-06
5.37428e-06
5.37389e-06
5.3736e-06
5.37343e-06
5.37339e-06
5.37353e-06
5.37376e-06
5.37398e-06
5.3742e-06
5.37442e-06
5.37472e-06
5.37515e-06
5.37554e-06
5.37572e-06
5.37568e-06
5.37562e-06
5.37568e-06
5.37579e-06
5.37504e-06
5.36395e-06
5.36527e-06
5.37608e-06
5.37688e-06
5.37673e-06
5.37654e-06
5.37634e-06
5.37609e-06
5.37576e-06
5.37538e-06
5.37495e-06
5.37449e-06
5.37415e-06
5.37395e-06
5.37385e-06
5.37378e-06
5.37379e-06
5.37391e-06
5.37415e-06
5.37452e-06
5.37498e-06
5.37548e-06
5.37589e-06
5.37605e-06
5.37597e-06
5.37593e-06
5.37603e-06
5.3762e-06
5.37634e-06
5.37557e-06
5.36454e-06
5.36586e-06
5.37651e-06
5.37739e-06
5.37728e-06
5.37708e-06
5.37681e-06
5.37646e-06
5.37606e-06
5.37565e-06
5.37523e-06
5.37492e-06
5.37465e-06
5.37439e-06
5.37407e-06
5.37379e-06
5.37372e-06
5.37392e-06
5.37436e-06
5.37494e-06
5.37558e-06
5.37608e-06
5.3763e-06
5.37632e-06
5.37633e-06
5.37647e-06
5.37672e-06
5.37696e-06
5.37705e-06
5.37625e-06
5.3653e-06
5.36659e-06
5.37722e-06
5.37813e-06
5.37801e-06
5.37774e-06
5.37737e-06
5.37696e-06
5.37658e-06
5.37621e-06
5.37584e-06
5.37548e-06
5.37509e-06
5.37463e-06
5.37411e-06
5.37372e-06
5.37375e-06
5.3741e-06
5.37469e-06
5.37543e-06
5.37604e-06
5.37642e-06
5.3766e-06
5.37676e-06
5.37699e-06
5.37734e-06
5.37771e-06
5.37791e-06
5.378e-06
5.37715e-06
5.36628e-06
5.36756e-06
5.37828e-06
5.37914e-06
5.37897e-06
5.37863e-06
5.37823e-06
5.37786e-06
5.37748e-06
5.37705e-06
5.3766e-06
5.37611e-06
5.37554e-06
5.37488e-06
5.37427e-06
5.37398e-06
5.37403e-06
5.37439e-06
5.3751e-06
5.3758e-06
5.37633e-06
5.37675e-06
5.37717e-06
5.37755e-06
5.37794e-06
5.37842e-06
5.37876e-06
5.379e-06
5.37913e-06
5.37828e-06
5.36757e-06
5.36893e-06
5.37972e-06
5.38048e-06
5.38023e-06
5.37987e-06
5.37949e-06
5.37909e-06
5.37864e-06
5.37813e-06
5.37758e-06
5.37693e-06
5.37615e-06
5.37536e-06
5.3748e-06
5.37443e-06
5.37438e-06
5.37471e-06
5.37542e-06
5.37615e-06
5.37688e-06
5.37757e-06
5.37812e-06
5.37856e-06
5.37908e-06
5.37951e-06
5.37984e-06
5.38021e-06
5.3805e-06
5.38002e-06
5.36889e-06
5.37081e-06
5.38147e-06
5.38214e-06
5.3819e-06
5.38155e-06
5.38112e-06
5.38062e-06
5.38006e-06
5.37945e-06
5.37872e-06
5.37785e-06
5.37693e-06
5.37617e-06
5.37558e-06
5.37501e-06
5.37486e-06
5.37526e-06
5.37605e-06
5.377e-06
5.37791e-06
5.37865e-06
5.37924e-06
5.37983e-06
5.38043e-06
5.38087e-06
5.38132e-06
5.38186e-06
5.38229e-06
5.38164e-06
5.37066e-06
5.37315e-06
5.38358e-06
5.38434e-06
5.38406e-06
5.38362e-06
5.38306e-06
5.38242e-06
5.38171e-06
5.38093e-06
5.38001e-06
5.379e-06
5.37809e-06
5.37732e-06
5.37648e-06
5.3757e-06
5.37553e-06
5.37611e-06
5.37708e-06
5.37815e-06
5.37912e-06
5.37999e-06
5.38083e-06
5.38151e-06
5.38221e-06
5.38281e-06
5.3834e-06
5.38403e-06
5.38421e-06
5.38351e-06
5.37285e-06
5.37581e-06
5.38625e-06
5.3869e-06
5.38653e-06
5.38599e-06
5.38533e-06
5.38459e-06
5.38375e-06
5.38279e-06
5.38168e-06
5.38057e-06
5.37959e-06
5.37855e-06
5.37745e-06
5.37654e-06
5.37642e-06
5.37718e-06
5.37832e-06
5.37953e-06
5.38069e-06
5.38177e-06
5.38284e-06
5.3837e-06
5.38456e-06
5.38538e-06
5.38604e-06
5.38658e-06
5.38672e-06
5.38594e-06
5.37569e-06
5.37907e-06
5.38932e-06
5.38992e-06
5.3895e-06
5.38891e-06
5.38819e-06
5.38734e-06
5.38633e-06
5.38513e-06
5.3838e-06
5.38253e-06
5.38128e-06
5.37993e-06
5.37857e-06
5.37756e-06
5.37752e-06
5.37845e-06
5.37973e-06
5.38112e-06
5.38253e-06
5.38385e-06
5.38518e-06
5.38638e-06
5.38746e-06
5.38841e-06
5.38913e-06
5.38963e-06
5.38996e-06
5.38939e-06
5.37911e-06
5.38304e-06
5.39311e-06
5.3937e-06
5.39323e-06
5.39255e-06
5.3917e-06
5.39065e-06
5.38939e-06
5.3879e-06
5.38633e-06
5.38481e-06
5.38324e-06
5.38159e-06
5.38002e-06
5.37894e-06
5.37896e-06
5.38003e-06
5.38148e-06
5.38311e-06
5.3848e-06
5.38638e-06
5.38805e-06
5.38959e-06
5.39081e-06
5.3919e-06
5.39276e-06
5.39338e-06
5.39396e-06
5.3935e-06
5.38329e-06
5.38791e-06
5.39786e-06
5.39839e-06
5.3978e-06
5.39695e-06
5.39589e-06
5.3946e-06
5.39308e-06
5.39134e-06
5.38952e-06
5.38768e-06
5.38576e-06
5.38379e-06
5.38199e-06
5.38077e-06
5.38079e-06
5.38203e-06
5.38378e-06
5.38569e-06
5.38764e-06
5.38954e-06
5.39153e-06
5.39328e-06
5.3947e-06
5.396e-06
5.39712e-06
5.39794e-06
5.39877e-06
5.3984e-06
5.38829e-06
5.39391e-06
5.40366e-06
5.40406e-06
5.40331e-06
5.40228e-06
5.40102e-06
5.3995e-06
5.39772e-06
5.39569e-06
5.39351e-06
5.39122e-06
5.38886e-06
5.38657e-06
5.38456e-06
5.38318e-06
5.38319e-06
5.3846e-06
5.38667e-06
5.38884e-06
5.39107e-06
5.39334e-06
5.39559e-06
5.39761e-06
5.39938e-06
5.40098e-06
5.40237e-06
5.40344e-06
5.40442e-06
5.40405e-06
5.39425e-06
5.40121e-06
5.41065e-06
5.41095e-06
5.41007e-06
5.40884e-06
5.4073e-06
5.40545e-06
5.4033e-06
5.40087e-06
5.39824e-06
5.39551e-06
5.3928e-06
5.39019e-06
5.38792e-06
5.38637e-06
5.38638e-06
5.38792e-06
5.39025e-06
5.39273e-06
5.39531e-06
5.398e-06
5.40062e-06
5.40298e-06
5.40518e-06
5.40706e-06
5.40873e-06
5.41007e-06
5.41109e-06
5.41078e-06
5.40131e-06
5.40999e-06
5.41911e-06
5.41929e-06
5.4182e-06
5.41668e-06
5.41479e-06
5.41254e-06
5.40996e-06
5.4071e-06
5.40406e-06
5.40094e-06
5.39786e-06
5.39487e-06
5.39223e-06
5.39046e-06
5.39054e-06
5.39227e-06
5.39487e-06
5.39776e-06
5.40084e-06
5.40395e-06
5.40698e-06
5.40972e-06
5.4123e-06
5.41448e-06
5.41652e-06
5.41811e-06
5.41919e-06
5.41895e-06
5.4098e-06
5.42056e-06
5.42922e-06
5.42921e-06
5.42787e-06
5.42606e-06
5.42385e-06
5.42122e-06
5.41823e-06
5.41496e-06
5.41148e-06
5.40792e-06
5.40437e-06
5.4009e-06
5.39787e-06
5.39585e-06
5.39605e-06
5.39809e-06
5.40103e-06
5.40444e-06
5.40809e-06
5.41157e-06
5.41502e-06
5.41818e-06
5.42111e-06
5.42366e-06
5.42607e-06
5.42783e-06
5.42901e-06
5.4288e-06
5.42022e-06
5.43322e-06
5.44125e-06
5.44112e-06
5.43963e-06
5.43759e-06
5.43504e-06
5.43201e-06
5.4286e-06
5.4249e-06
5.42096e-06
5.41689e-06
5.41282e-06
5.40889e-06
5.40555e-06
5.40324e-06
5.40341e-06
5.40571e-06
5.40906e-06
5.41302e-06
5.41728e-06
5.42115e-06
5.42507e-06
5.42868e-06
5.43203e-06
5.43501e-06
5.4377e-06
5.43959e-06
5.44094e-06
5.44102e-06
5.43302e-06
5.44844e-06
5.4559e-06
5.45574e-06
5.45405e-06
5.45167e-06
5.4487e-06
5.44525e-06
5.44141e-06
5.43724e-06
5.43281e-06
5.42822e-06
5.4237e-06
5.41931e-06
5.41564e-06
5.41302e-06
5.41298e-06
5.4155e-06
5.41944e-06
5.42389e-06
5.42864e-06
5.433e-06
5.43739e-06
5.44148e-06
5.44539e-06
5.44883e-06
5.45169e-06
5.45396e-06
5.45571e-06
5.45608e-06
5.44853e-06
5.46685e-06
5.47384e-06
5.47349e-06
5.47141e-06
5.4686e-06
5.46519e-06
5.4613e-06
5.45696e-06
5.45225e-06
5.4473e-06
5.44221e-06
5.43728e-06
5.43241e-06
5.42828e-06
5.42541e-06
5.42527e-06
5.42807e-06
5.43257e-06
5.43748e-06
5.44256e-06
5.44744e-06
5.45236e-06
5.457e-06
5.46144e-06
5.46536e-06
5.46852e-06
5.47137e-06
5.47358e-06
5.47388e-06
5.4669e-06
5.48908e-06
5.49531e-06
5.49467e-06
5.49226e-06
5.48908e-06
5.48529e-06
5.4809e-06
5.47602e-06
5.47073e-06
5.4653e-06
5.4597e-06
5.45426e-06
5.44905e-06
5.44435e-06
5.44126e-06
5.44117e-06
5.4443e-06
5.44916e-06
5.45449e-06
5.45989e-06
5.46537e-06
5.47083e-06
5.47606e-06
5.48088e-06
5.48534e-06
5.489e-06
5.49231e-06
5.49471e-06
5.495e-06
5.4888e-06
5.51571e-06
5.52098e-06
5.52019e-06
5.5176e-06
5.51415e-06
5.50992e-06
5.50498e-06
5.49964e-06
5.49389e-06
5.48811e-06
5.48208e-06
5.47606e-06
5.47065e-06
5.4654e-06
5.46193e-06
5.46189e-06
5.46538e-06
5.47054e-06
5.47627e-06
5.48199e-06
5.48803e-06
5.49392e-06
5.49964e-06
5.50479e-06
5.50975e-06
5.51411e-06
5.51756e-06
5.52002e-06
5.52078e-06
5.51543e-06
5.54768e-06
5.55208e-06
5.55123e-06
5.54837e-06
5.54449e-06
5.53978e-06
5.53439e-06
5.52876e-06
5.52263e-06
5.51652e-06
5.51034e-06
5.50394e-06
5.49835e-06
5.49273e-06
5.48883e-06
5.48904e-06
5.49289e-06
5.49818e-06
5.50422e-06
5.51024e-06
5.51654e-06
5.52257e-06
5.52863e-06
5.53436e-06
5.53958e-06
5.5445e-06
5.54826e-06
5.55094e-06
5.55215e-06
5.54787e-06
5.5864e-06
5.58989e-06
5.58884e-06
5.58558e-06
5.58124e-06
5.5762e-06
5.57037e-06
5.56446e-06
5.55814e-06
5.5519e-06
5.54599e-06
5.53958e-06
5.53377e-06
5.52828e-06
5.52433e-06
5.52462e-06
5.52861e-06
5.5339e-06
5.53981e-06
5.54591e-06
5.55209e-06
5.55818e-06
5.56446e-06
5.57078e-06
5.57622e-06
5.58127e-06
5.58579e-06
5.58894e-06
5.59022e-06
5.58665e-06
5.63354e-06
5.63622e-06
5.63494e-06
5.63143e-06
5.62669e-06
5.62134e-06
5.61517e-06
5.60915e-06
5.60298e-06
5.59702e-06
5.59158e-06
5.58605e-06
5.58124e-06
5.57686e-06
5.57379e-06
5.57398e-06
5.57695e-06
5.58151e-06
5.58634e-06
5.59153e-06
5.59705e-06
5.60302e-06
5.60929e-06
5.61541e-06
5.62138e-06
5.62682e-06
5.63173e-06
5.63493e-06
5.63639e-06
5.63372e-06
5.69201e-06
5.69492e-06
5.69303e-06
5.68933e-06
5.68455e-06
5.67902e-06
5.67248e-06
5.66684e-06
5.66196e-06
5.65793e-06
5.65657e-06
5.6586e-06
5.6643e-06
5.67055e-06
5.67844e-06
5.67947e-06
5.67109e-06
5.66402e-06
5.65893e-06
5.657e-06
5.65798e-06
5.66185e-06
5.66719e-06
5.67253e-06
5.67867e-06
5.68463e-06
5.6894e-06
5.69244e-06
5.69451e-06
5.69263e-06
5.77156e-06
5.77866e-06
5.77614e-06
5.7752e-06
5.77083e-06
5.76444e-06
5.75886e-06
5.75805e-06
5.76082e-06
5.77297e-06
5.81193e-06
5.88455e-06
5.98758e-06
6.09289e-06
6.20816e-06
6.21204e-06
6.09638e-06
5.98785e-06
5.88753e-06
5.81293e-06
5.77353e-06
5.76086e-06
5.75758e-06
5.75904e-06
5.76426e-06
5.77048e-06
5.7751e-06
5.77647e-06
5.77859e-06
5.77202e-06
5.91301e-06
5.94138e-06
5.95485e-06
5.98392e-06
5.97272e-06
5.9648e-06
5.98819e-06
6.01692e-06
6.07889e-06
6.23118e-06
6.56432e-06
7.11582e-06
7.77989e-06
8.33845e-06
8.96346e-06
8.97455e-06
8.36145e-06
7.78243e-06
7.13916e-06
6.56807e-06
6.23587e-06
6.08062e-06
6.01675e-06
5.9891e-06
5.96522e-06
5.97211e-06
5.98354e-06
5.956e-06
5.94218e-06
5.91351e-06
6.31147e-06
6.4029e-06
6.55975e-06
6.84426e-06
6.71474e-06
6.75552e-06
7.20557e-06
7.30868e-06
7.62669e-06
8.50838e-06
1.00588e-05
1.18278e-05
1.36786e-05
1.49361e-05
1.6374e-05
1.63729e-05
1.4989e-05
1.37014e-05
1.19305e-05
1.00607e-05
8.51645e-06
7.63661e-06
7.314e-06
7.21272e-06
6.76078e-06
6.71424e-06
6.84341e-06
6.5628e-06
6.40431e-06
6.31021e-06
7.51866e-06
7.97969e-06
8.61097e-06
9.59678e-06
9.4335e-06
1.02387e-05
1.22568e-05
1.27137e-05
1.40895e-05
1.6965e-05
1.98487e-05
2.22483e-05
2.46306e-05
2.62617e-05
2.81071e-05
2.80356e-05
2.63908e-05
2.46931e-05
2.23372e-05
1.98744e-05
1.69896e-05
1.4121e-05
1.27408e-05
1.22865e-05
1.02671e-05
9.44678e-06
9.6012e-06
8.61927e-06
7.97744e-06
7.5094e-06
1.06163e-05
1.23977e-05
1.36942e-05
1.65517e-05
1.7074e-05
1.91416e-05
2.18551e-05
2.3344e-05
2.6347e-05
3.06251e-05
3.30934e-05
3.5627e-05
3.63979e-05
3.79619e-05
3.99104e-05
3.94366e-05
3.82571e-05
3.64957e-05
3.53848e-05
3.31727e-05
3.06181e-05
2.6381e-05
2.3383e-05
2.19272e-05
1.91754e-05
1.71498e-05
1.66335e-05
1.37181e-05
1.23968e-05
1.06083e-05
1.5188e-05
2.28071e-05
2.32565e-05
2.90147e-05
2.98561e-05
3.33599e-05
3.76785e-05
4.00081e-05
4.44788e-05
4.72684e-05
4.49839e-05
4.75791e-05
4.92336e-05
5.11683e-05
4.74597e-05
4.70821e-05
5.10599e-05
4.93979e-05
4.62601e-05
4.43258e-05
4.69846e-05
4.45865e-05
4.01168e-05
3.79504e-05
3.34174e-05
2.9968e-05
2.94856e-05
2.34068e-05
2.26653e-05
1.52998e-05
2.07474e-05
2.31837e-05
3.02775e-05
3.06846e-05
3.43363e-05
3.66725e-05
4.19508e-05
4.49942e-05
4.29375e-05
4.84285e-05
4.84496e-05
5.16791e-05
4.74541e-05
4.9282e-05
5.2626e-05
5.21425e-05
4.89066e-05
4.7935e-05
5.09382e-05
4.71622e-05
4.81104e-05
4.33066e-05
4.47955e-05
4.20557e-05
3.69299e-05
3.47727e-05
3.10136e-05
3.06586e-05
2.33316e-05
2.08143e-05
2.35038e-05
2.43399e-05
2.83765e-05
3.3778e-05
3.4677e-05
3.61225e-05
3.9809e-05
4.20192e-05
4.20761e-05
4.83336e-05
4.8588e-05
4.53721e-05
4.3628e-05
4.56905e-05
4.83908e-05
4.80617e-05
4.58226e-05
4.47055e-05
4.68005e-05
5.00341e-05
4.92285e-05
4.24267e-05
4.23212e-05
3.99465e-05
3.63841e-05
3.49642e-05
3.38867e-05
2.91068e-05
2.43762e-05
2.32262e-05
2.43158e-05
2.29452e-05
2.84185e-05
3.37252e-05
3.26362e-05
3.2263e-05
3.43436e-05
3.80681e-05
3.95854e-05
4.25714e-05
4.11119e-05
4.11508e-05
3.94173e-05
4.03245e-05
4.49487e-05
4.50183e-05
4.10477e-05
3.99389e-05
4.22315e-05
4.12839e-05
4.35595e-05
3.97921e-05
3.83364e-05
3.43388e-05
3.24511e-05
3.25737e-05
3.38993e-05
2.86207e-05
2.31987e-05
2.45773e-05
2.35088e-05
2.22524e-05
2.55729e-05
3.14687e-05
2.90629e-05
2.68567e-05
2.92144e-05
3.11501e-05
3.28516e-05
3.61316e-05
3.41972e-05
3.49466e-05
3.67459e-05
3.75425e-05
3.92205e-05
3.94343e-05
3.803e-05
3.6954e-05
3.56052e-05
3.4349e-05
3.68625e-05
3.30346e-05
3.16601e-05
2.94292e-05
2.70363e-05
2.90159e-05
3.16287e-05
2.58767e-05
2.26273e-05
2.3303e-05
1.95541e-05
2.04095e-05
2.2126e-05
2.71709e-05
2.48491e-05
2.11044e-05
2.41652e-05
2.60836e-05
2.79575e-05
3.07279e-05
3.05034e-05
3.0359e-05
3.03306e-05
3.11459e-05
3.14229e-05
3.14526e-05
3.14289e-05
3.04048e-05
3.0236e-05
3.02195e-05
3.11403e-05
2.80899e-05
2.60691e-05
2.4376e-05
2.12464e-05
2.49051e-05
2.73477e-05
2.22249e-05
2.07267e-05
1.95594e-05
1.62472e-05
1.76454e-05
1.86536e-05
2.12465e-05
1.99214e-05
1.75504e-05
1.79029e-05
1.9982e-05
2.27578e-05
2.63613e-05
2.81815e-05
2.91789e-05
2.96e-05
2.99728e-05
2.98191e-05
2.97748e-05
3.00865e-05
2.96324e-05
2.91026e-05
2.8039e-05
2.64598e-05
2.28084e-05
2.00017e-05
1.80478e-05
1.76245e-05
2.00605e-05
2.1393e-05
1.85778e-05
1.77918e-05
1.63316e-05
1.42439e-05
1.50906e-05
1.54883e-05
1.62175e-05
1.56703e-05
1.48039e-05
1.4727e-05
1.52424e-05
1.66774e-05
2.01596e-05
2.38621e-05
2.68434e-05
2.87486e-05
2.97848e-05
2.99178e-05
2.98692e-05
2.98017e-05
2.87512e-05
2.68049e-05
2.3804e-05
2.02005e-05
1.66985e-05
1.52808e-05
1.47846e-05
1.48496e-05
1.5787e-05
1.63178e-05
1.54448e-05
1.51866e-05
1.43327e-05
1.28197e-05
1.32711e-05
1.32992e-05
1.33378e-05
1.31379e-05
1.28834e-05
1.2814e-05
1.29176e-05
1.3363e-05
1.4627e-05
1.76384e-05
2.1681e-05
2.52823e-05
2.76697e-05
2.87008e-05
2.86701e-05
2.76778e-05
2.52979e-05
2.16444e-05
1.76089e-05
1.46756e-05
1.34115e-05
1.29456e-05
1.2807e-05
1.28772e-05
1.31811e-05
1.34095e-05
1.33091e-05
1.33193e-05
1.2916e-05
1.17854e-05
1.2024e-05
1.19487e-05
1.18899e-05
1.18111e-05
1.17182e-05
1.16607e-05
1.16715e-05
1.1776e-05
1.2124e-05
1.30627e-05
1.54198e-05
1.89384e-05
2.23847e-05
2.44734e-05
2.44416e-05
2.23584e-05
1.89324e-05
1.53903e-05
1.30642e-05
1.21793e-05
1.1825e-05
1.17097e-05
1.16726e-05
1.17104e-05
1.18183e-05
1.19317e-05
1.19922e-05
1.20416e-05
1.18347e-05
1.10018e-05
1.1096e-05
1.10357e-05
1.10005e-05
1.09583e-05
1.09173e-05
1.09023e-05
1.09073e-05
1.09436e-05
1.10286e-05
1.12292e-05
1.17868e-05
1.31319e-05
1.51876e-05
1.71601e-05
1.71474e-05
1.51757e-05
1.31343e-05
1.17904e-05
1.12553e-05
1.10619e-05
1.09789e-05
1.09442e-05
1.09275e-05
1.09334e-05
1.09736e-05
1.10112e-05
1.10674e-05
1.11118e-05
1.10042e-05
1.03423e-05
1.03407e-05
1.03157e-05
1.03019e-05
1.02958e-05
1.0298e-05
1.0323e-05
1.03393e-05
1.03616e-05
1.0382e-05
1.04076e-05
1.0475e-05
1.06768e-05
1.1131e-05
1.17257e-05
1.17348e-05
1.11474e-05
1.0695e-05
1.04793e-05
1.04175e-05
1.03871e-05
1.03619e-05
1.03431e-05
1.0325e-05
1.03121e-05
1.03107e-05
1.03166e-05
1.03414e-05
1.03875e-05
1.0375e-05
9.82605e-06
9.74106e-06
9.72519e-06
9.72825e-06
9.73872e-06
9.7643e-06
9.79736e-06
9.81017e-06
9.82085e-06
9.81513e-06
9.79041e-06
9.76008e-06
9.74589e-06
9.77078e-06
9.83986e-06
9.84333e-06
9.78882e-06
9.76758e-06
9.77739e-06
9.79757e-06
9.80809e-06
9.81463e-06
9.81399e-06
9.79377e-06
9.77096e-06
9.75191e-06
9.75019e-06
9.75501e-06
9.79658e-06
9.86907e-06
9.38925e-06
9.25214e-06
9.22446e-06
9.23165e-06
9.25427e-06
9.2817e-06
9.30032e-06
9.30767e-06
9.30419e-06
9.27654e-06
9.23032e-06
9.18401e-06
9.14154e-06
9.10629e-06
9.08956e-06
9.09319e-06
9.1278e-06
9.17115e-06
9.21734e-06
9.259e-06
9.29145e-06
9.31426e-06
9.31915e-06
9.30605e-06
9.28812e-06
9.27037e-06
9.2607e-06
9.25143e-06
9.28782e-06
9.41471e-06
8.99172e-06
8.81992e-06
8.78801e-06
8.8014e-06
8.82575e-06
8.84712e-06
8.85378e-06
8.84964e-06
8.82556e-06
8.78242e-06
8.7328e-06
8.68323e-06
8.62973e-06
8.58071e-06
8.55345e-06
8.56391e-06
8.61014e-06
8.66245e-06
8.71396e-06
8.76312e-06
8.80818e-06
8.84264e-06
8.85508e-06
8.85238e-06
8.84317e-06
8.83129e-06
8.81833e-06
8.80654e-06
8.84157e-06
8.99823e-06
8.60712e-06
8.42708e-06
8.40256e-06
8.41526e-06
8.43022e-06
8.43671e-06
8.43104e-06
8.41122e-06
8.37644e-06
8.3321e-06
8.28226e-06
8.22605e-06
8.16477e-06
8.11328e-06
8.08657e-06
8.09778e-06
8.13827e-06
8.18927e-06
8.24711e-06
8.30609e-06
8.35772e-06
8.39636e-06
8.41627e-06
8.42507e-06
8.42694e-06
8.42267e-06
8.41241e-06
8.40783e-06
8.44672e-06
8.61409e-06
8.24444e-06
8.08468e-06
8.05612e-06
8.05437e-06
8.05151e-06
8.04335e-06
8.02576e-06
7.99451e-06
7.95618e-06
7.91167e-06
7.85951e-06
7.80137e-06
7.7414e-06
7.69126e-06
7.66264e-06
7.66897e-06
7.70443e-06
7.75569e-06
7.81713e-06
7.88007e-06
7.93618e-06
7.98037e-06
8.01035e-06
8.03073e-06
8.0427e-06
8.04741e-06
8.04673e-06
8.05247e-06
8.09551e-06
8.26537e-06
7.92829e-06
7.76897e-06
7.73155e-06
7.7202e-06
7.70735e-06
7.6898e-06
7.65804e-06
7.62024e-06
7.58186e-06
7.53622e-06
7.48144e-06
7.42124e-06
7.36086e-06
7.31007e-06
7.27872e-06
7.28058e-06
7.31362e-06
7.36652e-06
7.4314e-06
7.49739e-06
7.5576e-06
7.60732e-06
7.64559e-06
7.67449e-06
7.697e-06
7.71242e-06
7.72201e-06
7.73426e-06
7.77658e-06
7.94308e-06
7.62308e-06
7.46911e-06
7.43491e-06
7.41862e-06
7.39876e-06
7.37101e-06
7.33425e-06
7.29966e-06
7.26216e-06
7.21324e-06
7.15457e-06
7.09119e-06
7.02944e-06
6.97777e-06
6.94503e-06
6.9444e-06
6.97587e-06
7.02892e-06
7.09367e-06
7.15938e-06
7.22081e-06
7.2752e-06
7.32105e-06
7.35748e-06
7.38683e-06
7.40957e-06
7.42608e-06
7.44136e-06
7.48082e-06
7.63666e-06
7.33787e-06
7.20474e-06
7.16888e-06
7.14582e-06
7.12065e-06
7.08953e-06
7.05681e-06
7.02307e-06
6.98036e-06
6.92672e-06
6.86565e-06
6.8013e-06
6.73936e-06
6.68611e-06
6.65116e-06
6.64818e-06
6.67848e-06
6.73173e-06
6.79686e-06
6.86418e-06
6.92819e-06
6.98563e-06
7.03436e-06
7.07382e-06
7.10669e-06
7.13378e-06
7.15453e-06
7.1718e-06
7.20893e-06
7.35058e-06
7.08808e-06
6.96714e-06
6.92669e-06
6.90159e-06
6.87761e-06
6.85104e-06
6.82028e-06
6.78174e-06
6.73389e-06
6.67886e-06
6.6191e-06
6.55593e-06
6.49435e-06
6.44099e-06
6.40603e-06
6.40329e-06
6.43364e-06
6.48654e-06
6.55065e-06
6.61646e-06
6.67848e-06
6.73484e-06
6.78414e-06
6.82565e-06
6.86022e-06
6.88828e-06
6.91029e-06
6.92859e-06
6.96289e-06
7.0894e-06
6.85582e-06
6.74464e-06
6.70841e-06
6.68957e-06
6.67199e-06
6.64798e-06
6.61324e-06
6.571e-06
6.52363e-06
6.47032e-06
6.41188e-06
6.34989e-06
6.29006e-06
6.23947e-06
6.20716e-06
6.20531e-06
6.23427e-06
6.28392e-06
6.34416e-06
6.40648e-06
6.46588e-06
6.52083e-06
6.56983e-06
6.61179e-06
6.64624e-06
6.67398e-06
6.69577e-06
6.71355e-06
6.74384e-06
6.85501e-06
6.64618e-06
6.54733e-06
6.52079e-06
6.50856e-06
6.4915e-06
6.46402e-06
6.42805e-06
6.38897e-06
6.34572e-06
6.29477e-06
6.23725e-06
6.17691e-06
6.11988e-06
6.07245e-06
6.04242e-06
6.04107e-06
6.06872e-06
6.11528e-06
6.17129e-06
6.22932e-06
6.28566e-06
6.33867e-06
6.38676e-06
6.4282e-06
6.462e-06
6.48861e-06
6.50888e-06
6.52483e-06
6.55083e-06
6.64692e-06
6.45413e-06
6.37309e-06
6.35388e-06
6.34165e-06
6.32232e-06
6.29587e-06
6.26634e-06
6.23347e-06
6.19268e-06
6.14381e-06
6.08921e-06
6.03324e-06
5.98073e-06
5.93629e-06
5.90739e-06
5.90574e-06
5.93184e-06
5.9755e-06
6.0276e-06
6.08148e-06
6.13429e-06
6.18425e-06
6.2298e-06
6.26894e-06
6.30068e-06
6.32532e-06
6.34391e-06
6.35843e-06
6.38076e-06
6.4619e-06
6.28279e-06
6.22146e-06
6.2029e-06
6.18868e-06
6.17247e-06
6.15368e-06
6.13108e-06
6.09983e-06
6.0601e-06
6.01416e-06
5.96433e-06
5.91381e-06
5.86507e-06
5.82209e-06
5.79381e-06
5.79237e-06
5.81813e-06
5.86011e-06
5.90879e-06
5.95827e-06
6.00626e-06
6.05116e-06
6.09184e-06
6.1272e-06
6.15638e-06
6.17944e-06
6.19697e-06
6.2105e-06
6.22963e-06
6.29661e-06
6.14505e-06
6.09035e-06
6.07131e-06
6.06197e-06
6.05219e-06
6.03737e-06
6.01465e-06
5.98315e-06
5.94608e-06
5.90465e-06
5.86051e-06
5.81506e-06
5.76926e-06
5.72782e-06
5.70143e-06
5.7013e-06
5.72626e-06
5.76516e-06
5.80918e-06
5.85364e-06
5.89652e-06
5.93674e-06
5.97272e-06
6.0038e-06
6.03006e-06
6.05122e-06
6.06736e-06
6.07964e-06
6.09583e-06
6.15019e-06
6.0314e-06
5.97919e-06
5.96639e-06
5.96088e-06
5.94977e-06
5.93318e-06
5.90995e-06
5.88136e-06
5.84881e-06
5.81266e-06
5.77412e-06
5.73305e-06
5.69078e-06
5.65325e-06
5.63027e-06
5.63042e-06
5.65202e-06
5.68584e-06
5.72497e-06
5.76566e-06
5.8053e-06
5.84206e-06
5.87448e-06
5.90197e-06
5.92452e-06
5.94233e-06
5.95577e-06
5.96599e-06
5.9792e-06
6.0226e-06
5.92336e-06
5.88603e-06
5.88046e-06
5.87188e-06
5.85839e-06
5.84198e-06
5.82132e-06
5.79687e-06
5.76817e-06
5.73631e-06
5.70196e-06
5.66476e-06
5.62704e-06
5.59499e-06
5.57564e-06
5.5747e-06
5.59202e-06
5.62127e-06
5.65693e-06
5.69495e-06
5.73208e-06
5.76572e-06
5.79469e-06
5.81858e-06
5.83735e-06
5.8514e-06
5.86149e-06
5.86916e-06
5.87954e-06
5.91621e-06
5.83657e-06
5.81616e-06
5.80651e-06
5.794e-06
5.78164e-06
5.76742e-06
5.74983e-06
5.72827e-06
5.70282e-06
5.6749e-06
5.64448e-06
5.61175e-06
5.57962e-06
5.55299e-06
5.53618e-06
5.53402e-06
5.54774e-06
5.57327e-06
5.60553e-06
5.63981e-06
5.67271e-06
5.70203e-06
5.72667e-06
5.74652e-06
5.76197e-06
5.77369e-06
5.78253e-06
5.78946e-06
5.79859e-06
5.8283e-06
5.77125e-06
5.75112e-06
5.73589e-06
5.72602e-06
5.71692e-06
5.70506e-06
5.68992e-06
5.67113e-06
5.64969e-06
5.62623e-06
5.60022e-06
5.57255e-06
5.54621e-06
5.524e-06
5.50874e-06
5.50597e-06
5.51725e-06
5.53899e-06
5.56609e-06
5.59439e-06
5.62126e-06
5.64534e-06
5.66609e-06
5.68343e-06
5.6975e-06
5.70874e-06
5.71757e-06
5.72449e-06
5.73219e-06
5.75384e-06
5.70554e-06
5.68097e-06
5.67288e-06
5.66931e-06
5.6628e-06
5.65257e-06
5.63919e-06
5.62331e-06
5.60595e-06
5.58646e-06
5.56419e-06
5.54081e-06
5.51895e-06
5.49993e-06
5.48664e-06
5.48458e-06
5.49452e-06
5.51218e-06
5.53348e-06
5.55553e-06
5.57696e-06
5.59733e-06
5.61622e-06
5.63279e-06
5.64645e-06
5.65727e-06
5.66542e-06
5.67117e-06
5.67617e-06
5.68991e-06
5.63913e-06
5.62631e-06
5.62848e-06
5.62675e-06
5.62022e-06
5.61026e-06
5.5981e-06
5.58505e-06
5.57088e-06
5.55377e-06
5.53408e-06
5.51439e-06
5.49602e-06
5.48001e-06
5.46905e-06
5.46791e-06