/*--------------------------------*- C++ -*----------------------------------*\
| =========                 |                                                 |
| \\      /  F ield         | OpenFOAM: The Open Source CFD Toolbox           |
|  \\    /   O peration     | Version:  2312                                  |
|   \\  /    A nd           | Website:  www.openfoam.com                      |
|    \\/     M anipulation  |                                                 |
\*---------------------------------------------------------------------------*/
FoamFile
{
    version     2.0;
    format      ascii;
    arch        "LSB;label=32;scalar=64";
    class       volScalarField;
    location    "1.065074";
    object      p;
}
// * * * * * * * * * * * * * * * * * * * * * * * * * * * * * * * * * * * * * //

dimensions      [1 -1 -2 0 0 0 0];

internalField   nonuniform List<scalar> 
90000
(
4850.48
4850.48
4850.48
4850.48
4850.48
4850.48
4850.48
4850.47
4850.47
4850.47
4850.47
4850.47
4850.47
4850.47
4850.47
4850.47
4850.47
4850.47
4850.47
4850.47
4850.47
4850.47
4850.47
4850.47
4850.47
4850.48
4850.48
4850.48
4850.48
4850.47
4752.38
4752.38
4752.38
4752.38
4752.38
4752.38
4752.37
4752.37
4752.37
4752.37
4752.37
4752.37
4752.37
4752.37
4752.37
4752.37
4752.37
4752.37
4752.37
4752.37
4752.37
4752.37
4752.37
4752.37
4752.37
4752.37
4752.37
4752.38
4752.38
4752.38
4654.27
4654.27
4654.27
4654.27
4654.27
4654.27
4654.27
4654.27
4654.27
4654.27
4654.27
4654.27
4654.27
4654.27
4654.27
4654.27
4654.27
4654.27
4654.27
4654.27
4654.27
4654.27
4654.27
4654.27
4654.27
4654.27
4654.27
4654.27
4654.28
4654.28
4556.17
4556.17
4556.17
4556.17
4556.17
4556.17
4556.17
4556.17
4556.17
4556.17
4556.17
4556.17
4556.17
4556.17
4556.17
4556.17
4556.17
4556.17
4556.17
4556.17
4556.17
4556.17
4556.17
4556.17
4556.17
4556.17
4556.17
4556.17
4556.17
4556.17
4458.06
4458.06
4458.06
4458.06
4458.07
4458.07
4458.07
4458.07
4458.07
4458.07
4458.07
4458.07
4458.07
4458.07
4458.07
4458.07
4458.07
4458.07
4458.07
4458.07
4458.07
4458.07
4458.07
4458.07
4458.07
4458.07
4458.07
4458.07
4458.06
4458.07
4359.96
4359.96
4359.96
4359.96
4359.96
4359.96
4359.96
4359.97
4359.97
4359.97
4359.97
4359.97
4359.97
4359.97
4359.97
4359.97
4359.97
4359.97
4359.97
4359.97
4359.97
4359.97
4359.97
4359.97
4359.97
4359.96
4359.96
4359.96
4359.96
4359.96
4261.86
4261.86
4261.86
4261.86
4261.86
4261.86
4261.86
4261.86
4261.86
4261.86
4261.86
4261.87
4261.87
4261.87
4261.87
4261.87
4261.87
4261.87
4261.87
4261.87
4261.87
4261.87
4261.86
4261.86
4261.86
4261.86
4261.86
4261.86
4261.86
4261.86
4163.76
4163.76
4163.76
4163.76
4163.76
4163.76
4163.76
4163.76
4163.76
4163.76
4163.76
4163.76
4163.76
4163.76
4163.77
4163.77
4163.77
4163.77
4163.77
4163.76
4163.76
4163.76
4163.76
4163.76
4163.76
4163.76
4163.76
4163.76
4163.76
4163.76
4065.66
4065.66
4065.66
4065.66
4065.66
4065.66
4065.66
4065.66
4065.66
4065.66
4065.66
4065.66
4065.66
4065.66
4065.66
4065.66
4065.66
4065.66
4065.66
4065.66
4065.66
4065.66
4065.66
4065.66
4065.66
4065.66
4065.66
4065.66
4065.66
4065.66
3967.57
3967.57
3967.57
3967.56
3967.56
3967.56
3967.56
3967.56
3967.56
3967.56
3967.56
3967.56
3967.56
3967.56
3967.56
3967.56
3967.56
3967.56
3967.56
3967.56
3967.56
3967.56
3967.56
3967.56
3967.56
3967.56
3967.56
3967.56
3967.56
3967.56
3869.46
3869.47
3869.46
3869.46
3869.46
3869.46
3869.46
3869.46
3869.46
3869.46
3869.46
3869.46
3869.46
3869.46
3869.46
3869.46
3869.46
3869.46
3869.46
3869.46
3869.46
3869.46
3869.46
3869.46
3869.46
3869.46
3869.46
3869.46
3869.46
3869.46
3771.36
3771.36
3771.36
3771.36
3771.36
3771.36
3771.36
3771.36
3771.36
3771.36
3771.36
3771.35
3771.35
3771.35
3771.35
3771.35
3771.35
3771.36
3771.36
3771.36
3771.36
3771.36
3771.36
3771.36
3771.36
3771.36
3771.36
3771.36
3771.36
3771.36
3673.26
3673.26
3673.26
3673.26
3673.26
3673.26
3673.26
3673.26
3673.26
3673.26
3673.26
3673.25
3673.25
3673.25
3673.25
3673.25
3673.25
3673.25
3673.26
3673.26
3673.26
3673.26
3673.26
3673.26
3673.26
3673.26
3673.26
3673.26
3673.26
3673.26
3575.15
3575.15
3575.15
3575.15
3575.15
3575.15
3575.16
3575.16
3575.16
3575.16
3575.16
3575.16
3575.15
3575.15
3575.15
3575.15
3575.15
3575.15
3575.15
3575.16
3575.16
3575.16
3575.16
3575.16
3575.16
3575.16
3575.16
3575.16
3575.16
3575.16
3477.05
3477.05
3477.05
3477.05
3477.05
3477.05
3477.06
3477.06
3477.06
3477.06
3477.06
3477.06
3477.05
3477.05
3477.05
3477.05
3477.05
3477.05
3477.05
3477.05
3477.06
3477.06
3477.06
3477.06
3477.06
3477.06
3477.06
3477.06
3477.06
3477.06
3378.95
3378.95
3378.95
3378.95
3378.95
3378.96
3378.96
3378.96
3378.96
3378.96
3378.96
3378.95
3378.95
3378.95
3378.95
3378.95
3378.95
3378.95
3378.95
3378.95
3378.95
3378.96
3378.96
3378.96
3378.96
3378.96
3378.96
3378.96
3378.96
3378.96
3280.85
3280.86
3280.86
3280.86
3280.86
3280.86
3280.86
3280.86
3280.85
3280.85
3280.85
3280.85
3280.85
3280.85
3280.85
3280.85
3280.85
3280.85
3280.85
3280.85
3280.85
3280.85
3280.85
3280.86
3280.86
3280.86
3280.86
3280.86
3280.86
3280.86
3182.76
3182.76
3182.76
3182.76
3182.76
3182.76
3182.76
3182.76
3182.75
3182.75
3182.75
3182.75
3182.75
3182.75
3182.75
3182.75
3182.75
3182.75
3182.75
3182.75
3182.75
3182.75
3182.75
3182.75
3182.76
3182.76
3182.76
3182.76
3182.76
3182.76
3084.66
3084.66
3084.66
3084.66
3084.66
3084.66
3084.66
3084.66
3084.65
3084.65
3084.65
3084.65
3084.65
3084.65
3084.65
3084.65
3084.65
3084.65
3084.65
3084.65
3084.65
3084.65
3084.65
3084.65
3084.66
3084.66
3084.66
3084.66
3084.66
3084.66
2986.56
2986.56
2986.56
2986.56
2986.56
2986.56
2986.56
2986.56
2986.56
2986.55
2986.55
2986.55
2986.55
2986.55
2986.55
2986.55
2986.55
2986.55
2986.55
2986.55
2986.55
2986.55
2986.55
2986.56
2986.56
2986.56
2986.56
2986.56
2986.56
2986.56
2888.47
2888.47
2888.46
2888.46
2888.46
2888.46
2888.46
2888.46
2888.45
2888.45
2888.45
2888.45
2888.45
2888.45
2888.45
2888.45
2888.45
2888.45
2888.45
2888.45
2888.45
2888.45
2888.46
2888.46
2888.46
2888.46
2888.46
2888.46
2888.46
2888.47
2790.37
2790.37
2790.37
2790.36
2790.36
2790.36
2790.36
2790.36
2790.35
2790.35
2790.35
2790.35
2790.35
2790.35
2790.35
2790.35
2790.35
2790.35
2790.35
2790.35
2790.35
2790.36
2790.36
2790.36
2790.36
2790.36
2790.36
2790.37
2790.37
2790.37
2692.27
2692.27
2692.27
2692.27
2692.26
2692.26
2692.26
2692.26
2692.25
2692.25
2692.25
2692.25
2692.25
2692.25
2692.25
2692.25
2692.25
2692.25
2692.25
2692.25
2692.25
2692.26
2692.26
2692.26
2692.26
2692.27
2692.27
2692.27
2692.27
2692.27
2594.17
2594.17
2594.17
2594.17
2594.17
2594.16
2594.16
2594.16
2594.15
2594.15
2594.15
2594.15
2594.15
2594.15
2594.15
2594.15
2594.15
2594.15
2594.15
2594.15
2594.16
2594.16
2594.16
2594.16
2594.17
2594.17
2594.17
2594.17
2594.18
2594.18
2496.08
2496.08
2496.07
2496.07
2496.07
2496.07
2496.06
2496.06
2496.06
2496.05
2496.05
2496.05
2496.05
2496.05
2496.05
2496.05
2496.05
2496.05
2496.05
2496.05
2496.06
2496.06
2496.06
2496.07
2496.07
2496.07
2496.08
2496.08
2496.08
2496.08
2397.99
2397.98
2397.98
2397.98
2397.98
2397.97
2397.97
2397.96
2397.96
2397.96
2397.95
2397.95
2397.95
2397.95
2397.95
2397.95
2397.95
2397.95
2397.95
2397.95
2397.96
2397.96
2397.97
2397.97
2397.98
2397.98
2397.98
2397.99
2397.99
2397.99
2299.9
2299.9
2299.89
2299.89
2299.89
2299.88
2299.88
2299.87
2299.87
2299.86
2299.86
2299.85
2299.85
2299.85
2299.85
2299.85
2299.85
2299.85
2299.85
2299.86
2299.86
2299.87
2299.87
2299.88
2299.88
2299.89
2299.89
2299.9
2299.9
2299.9
2201.81
2201.81
2201.81
2201.8
2201.8
2201.79
2201.79
2201.78
2201.77
2201.77
2201.76
2201.76
2201.75
2201.75
2201.75
2201.75
2201.75
2201.75
2201.75
2201.76
2201.76
2201.77
2201.78
2201.79
2201.79
2201.8
2201.81
2201.81
2201.81
2201.82
2103.73
2103.73
2103.73
2103.72
2103.71
2103.71
2103.7
2103.69
2103.68
2103.67
2103.67
2103.66
2103.65
2103.65
2103.65
2103.65
2103.65
2103.65
2103.66
2103.66
2103.67
2103.68
2103.69
2103.7
2103.71
2103.71
2103.72
2103.73
2103.73
2103.73
2005.66
2005.65
2005.65
2005.64
2005.63
2005.62
2005.61
2005.6
2005.59
2005.58
2005.57
2005.56
2005.56
2005.55
2005.55
2005.55
2005.55
2005.56
2005.56
2005.57
2005.58
2005.59
2005.6
2005.61
2005.62
2005.63
2005.64
2005.65
2005.65
2005.65
1907.58
1907.58
1907.57
1907.57
1907.56
1907.54
1907.53
1907.52
1907.5
1907.49
1907.48
1907.47
1907.46
1907.45
1907.45
1907.45
1907.45
1907.46
1907.47
1907.48
1907.49
1907.5
1907.52
1907.53
1907.54
1907.55
1907.56
1907.57
1907.58
1907.58
1809.52
1809.51
1809.5
1809.49
1809.48
1809.47
1809.45
1809.43
1809.42
1809.4
1809.38
1809.37
1809.36
1809.36
1809.35
1809.35
1809.36
1809.36
1809.37
1809.39
1809.4
1809.42
1809.43
1809.45
1809.47
1809.48
1809.49
1809.5
1809.51
1809.51
1711.46
1711.45
1711.44
1711.43
1711.41
1711.39
1711.37
1711.35
1711.33
1711.31
1711.3
1711.28
1711.27
1711.26
1711.26
1711.26
1711.26
1711.27
1711.28
1711.3
1711.31
1711.33
1711.35
1711.37
1711.39
1711.41
1711.43
1711.44
1711.45
1711.45
1613.4
1613.4
1613.39
1613.37
1613.35
1613.33
1613.3
1613.28
1613.25
1613.23
1613.21
1613.19
1613.17
1613.16
1613.16
1613.16
1613.16
1613.17
1613.19
1613.21
1613.23
1613.26
1613.28
1613.31
1613.33
1613.35
1613.37
1613.39
1613.4
1613.4
1515.36
1515.36
1515.34
1515.32
1515.3
1515.27
1515.24
1515.21
1515.18
1515.15
1515.12
1515.1
1515.08
1515.07
1515.06
1515.06
1515.07
1515.08
1515.1
1515.12
1515.15
1515.18
1515.21
1515.24
1515.27
1515.3
1515.33
1515.35
1515.36
1515.37
1417.34
1417.33
1417.31
1417.29
1417.26
1417.22
1417.18
1417.15
1417.11
1417.07
1417.04
1417.01
1416.99
1416.98
1416.97
1416.97
1416.98
1416.99
1417.01
1417.04
1417.07
1417.11
1417.15
1417.19
1417.23
1417.26
1417.29
1417.32
1417.33
1417.34
1319.33
1319.32
1319.3
1319.27
1319.23
1319.19
1319.14
1319.09
1319.04
1319
1318.96
1318.93
1318.9
1318.88
1318.87
1318.87
1318.88
1318.9
1318.93
1318.96
1319
1319.04
1319.09
1319.14
1319.19
1319.23
1319.27
1319.3
1319.32
1319.34
1221.35
1221.33
1221.31
1221.27
1221.22
1221.17
1221.11
1221.05
1220.99
1220.94
1220.89
1220.85
1220.81
1220.79
1220.78
1220.78
1220.79
1220.81
1220.84
1220.89
1220.93
1220.99
1221.05
1221.11
1221.17
1221.22
1221.27
1221.31
1221.34
1221.35
1123.39
1123.37
1123.34
1123.29
1123.23
1123.16
1123.09
1123.02
1122.95
1122.88
1122.82
1122.77
1122.73
1122.71
1122.69
1122.69
1122.71
1122.73
1122.77
1122.82
1122.88
1122.94
1123.02
1123.09
1123.16
1123.23
1123.29
1123.34
1123.38
1123.39
1025.47
1025.44
1025.4
1025.34
1025.27
1025.19
1025.1
1025.01
1024.92
1024.84
1024.77
1024.71
1024.66
1024.63
1024.61
1024.61
1024.63
1024.66
1024.71
1024.77
1024.84
1024.92
1025.01
1025.1
1025.19
1025.27
1025.35
1025.41
1025.45
1025.47
927.586
927.559
927.508
927.434
927.343
927.24
927.13
927.019
926.912
926.814
926.729
926.658
926.604
926.566
926.547
926.547
926.566
926.603
926.658
926.729
926.814
926.912
927.019
927.13
927.24
927.344
927.436
927.51
927.561
927.588
829.758
829.726
829.662
829.571
829.46
829.334
829.2
829.064
828.934
828.816
828.714
828.63
828.566
828.522
828.5
828.5
828.522
828.565
828.63
828.714
828.816
828.934
829.063
829.199
829.334
829.461
829.573
829.664
829.728
829.761
731.996
731.955
731.877
731.767
731.632
731.478
731.315
731.151
730.995
730.852
730.731
730.634
730.559
730.509
730.484
730.484
730.509
730.559
730.633
730.732
730.852
730.994
731.151
731.315
731.479
731.633
731.769
731.88
731.959
731.999
634.312
634.262
634.169
634.036
633.873
633.688
633.492
633.294
633.107
632.94
632.797
632.684
632.6
632.545
632.518
632.518
632.545
632.6
632.683
632.797
632.939
633.107
633.294
633.492
633.689
633.874
634.039
634.173
634.268
634.317
536.722
536.664
536.553
536.396
536.202
535.983
535.748
535.513
535.291
535.096
534.932
534.803
534.711
534.653
534.626
534.626
534.652
534.709
534.802
534.931
535.096
535.292
535.513
535.75
535.984
536.205
536.401
536.559
536.673
536.733
439.248
439.177
439.049
438.87
438.647
438.39
438.113
437.836
437.575
437.348
437.167
437.023
436.924
436.869
436.848
436.847
436.867
436.921
437.02
437.164
437.349
437.576
437.837
438.116
438.393
438.65
438.875
439.059
439.192
439.265
341.906
341.816
341.685
341.487
341.241
340.95
340.632
340.305
339.999
339.746
339.555
339.381
339.276
339.238
339.236
339.233
339.233
339.271
339.376
339.55
339.746
340
340.308
340.634
340.951
341.242
341.492
341.699
341.838
341.932
244.728
244.603
244.505
244.29
244.047
243.717
243.361
242.972
242.56
242.274
242.038
241.923
241.785
241.806
241.897
241.888
241.8
241.772
241.909
242.036
242.274
242.562
242.975
243.363
243.717
244.043
244.292
244.528
244.638
244.765
147.739
147.471
147.681
147.348
147.179
146.772
146.482
145.93
145.261
145.212
144.945
144.882
144.409
144.595
145.127
145.077
144.59
144.388
144.86
144.964
145.216
145.258
145.933
146.493
146.764
147.162
147.336
147.724
147.523
147.796
58.4009
57.7132
59.1894
57.7831
57.6896
56.8224
56.9738
55.8625
54.3224
55.3802
55.2577
55.7128
53.9779
54.3842
56.4197
56.2313
54.3318
53.8746
55.6683
55.3471
55.3772
54.2874
55.8558
56.9969
56.813
57.682
57.7412
59.2549
57.6928
58.5026
6.33834
5.57786
7.51815
5.50569
5.97715
5.02151
5.43552
4.58253
3.19014
4.574
4.39532
5.01114
3.25446
3.31374
5.71642
5.54232
3.33698
3.13229
4.97578
4.53241
4.56827
3.13915
4.56727
5.45234
5.02459
6.00776
5.45803
7.55234
5.50607
6.39456
-4.81635
-4.78885
-4.88524
-4.91121
-4.93609
-4.95786
-4.99226
-4.99369
-4.98215
-5.01369
-5.00793
-5.02771
-5.00943
-5.02252
-5.04386
-5.03536
-5.01838
-5.00974
-5.01795
-4.99078
-5.01081
-4.98095
-4.9932
-4.99096
-4.95619
-4.93287
-4.91009
-4.89135
-4.78453
-4.82331
-5.08481
-5.07379
-5.10609
-5.11553
-5.12748
-5.11776
-5.11963
-5.11927
-5.11511
-5.1198
-5.11963
-5.11929
-5.11669
-5.11912
-5.12089
-5.12013
-5.11879
-5.11598
-5.11859
-5.12262
-5.11978
-5.11409
-5.11839
-5.1186
-5.11664
-5.12764
-5.11539
-5.10735
-5.07183
-5.08265
-5.23899
-5.24391
-5.23921
-5.23603
-5.23716
-5.23385
-5.2296
-5.22803
-5.22798
-5.22762
-5.22522
-5.22316
-5.22041
-5.22023
-5.22056
-5.22076
-5.22072
-5.22079
-5.22267
-5.22515
-5.22713
-5.22721
-5.22742
-5.22912
-5.23351
-5.23691
-5.23548
-5.23761
-5.2428
-5.23761
-5.34579
-5.34727
-5.34217
-5.33892
-5.33669
-5.33435
-5.33218
-5.32916
-5.32771
-5.32625
-5.32466
-5.3223
-5.32055
-5.31926
-5.31884
-5.31898
-5.3196
-5.3205
-5.32185
-5.32445
-5.3258
-5.32724
-5.32865
-5.33177
-5.334
-5.33609
-5.33801
-5.34103
-5.34622
-5.34447
-5.44144
-5.4412
-5.43899
-5.43627
-5.43419
-5.43221
-5.43029
-5.42811
-5.42643
-5.4249
-5.42359
-5.42194
-5.42065
-5.41965
-5.41889
-5.41894
-5.41977
-5.42065
-5.42174
-5.42339
-5.4245
-5.42596
-5.42749
-5.4297
-5.43159
-5.43338
-5.43533
-5.43804
-5.44025
-5.44033
-5.5369
-5.53647
-5.53514
-5.53325
-5.53169
-5.53017
-5.52859
-5.527
-5.5255
-5.52412
-5.52304
-5.52203
-5.52127
-5.5206
-5.52022
-5.52021
-5.52052
-5.52116
-5.52191
-5.52285
-5.52377
-5.52506
-5.52639
-5.5279
-5.52944
-5.53085
-5.53235
-5.53422
-5.53556
-5.53595
-5.63331
-5.6329
-5.63209
-5.63085
-5.62969
-5.62854
-5.62732
-5.62605
-5.62484
-5.62373
-5.62286
-5.62218
-5.62168
-5.62127
-5.62116
-5.62113
-5.62115
-5.62152
-5.62201
-5.62264
-5.6234
-5.62438
-5.62544
-5.62655
-5.6277
-5.62881
-5.62997
-5.63122
-5.6321
-5.63251
-5.73055
-5.73027
-5.72973
-5.72893
-5.7281
-5.72726
-5.72636
-5.72541
-5.7245
-5.72369
-5.72304
-5.72251
-5.72212
-5.72185
-5.72173
-5.72169
-5.72172
-5.72194
-5.7223
-5.72278
-5.72335
-5.72404
-5.72479
-5.72558
-5.72642
-5.72725
-5.72812
-5.72893
-5.72954
-5.72984
-5.82844
-5.82827
-5.8279
-5.8274
-5.82686
-5.82627
-5.82561
-5.82495
-5.82435
-5.82382
-5.82339
-5.82302
-5.82271
-5.82247
-5.82236
-5.82231
-5.82233
-5.82252
-5.82277
-5.82308
-5.82345
-5.8239
-5.82439
-5.8249
-5.82547
-5.82606
-5.82663
-5.82714
-5.82752
-5.82772
-5.92682
-5.92671
-5.92648
-5.92617
-5.92582
-5.92543
-5.92501
-5.92461
-5.92427
-5.92398
-5.92373
-5.92351
-5.92332
-5.9232
-5.92309
-5.92305
-5.92308
-5.92313
-5.92324
-5.92339
-5.92357
-5.9238
-5.92408
-5.92439
-5.92473
-5.92508
-5.92542
-5.92571
-5.92592
-5.92606
-6.02545
-6.02537
-6.02524
-6.02507
-6.02488
-6.02467
-6.02447
-6.02429
-6.02416
-6.02404
-6.02394
-6.02383
-6.02373
-6.02366
-6.02361
-6.02357
-6.02356
-6.02355
-6.02355
-6.02356
-6.02359
-6.02365
-6.02375
-6.02389
-6.02405
-6.02422
-6.02438
-6.02452
-6.02464
-6.02471
-6.12423
-6.12418
-6.12413
-6.12406
-6.124
-6.12394
-6.12391
-6.1239
-6.12391
-6.12392
-6.12392
-6.1239
-6.12388
-6.12386
-6.12385
-6.12383
-6.1238
-6.12373
-6.12365
-6.12357
-6.12348
-6.12341
-6.12337
-6.12336
-6.12337
-6.1234
-6.12344
-6.12348
-6.12352
-6.12355
-6.22314
-6.22312
-6.22312
-6.22313
-6.22316
-6.2232
-6.22328
-6.22337
-6.22347
-6.22358
-6.22367
-6.22373
-6.22378
-6.22382
-6.22384
-6.22383
-6.22378
-6.22368
-6.22354
-6.22338
-6.2232
-6.22303
-6.22288
-6.22275
-6.22264
-6.22256
-6.22251
-6.22247
-6.22246
-6.22246
-6.32212
-6.32213
-6.32216
-6.32222
-6.32229
-6.32239
-6.32252
-6.32268
-6.32285
-6.32303
-6.32319
-6.32333
-6.32344
-6.32352
-6.32355
-6.32353
-6.32347
-6.32334
-6.32316
-6.32294
-6.32269
-6.32244
-6.3222
-6.32199
-6.32181
-6.32166
-6.32155
-6.32148
-6.32144
-6.32143
-6.4211
-6.42113
-6.42118
-6.42124
-6.42133
-6.42145
-6.42161
-6.4218
-6.42202
-6.42225
-6.42247
-6.42267
-6.42283
-6.42293
-6.42296
-6.42293
-6.42283
-6.42268
-6.42246
-6.42221
-6.42192
-6.42164
-6.42136
-6.42111
-6.42089
-6.42071
-6.42059
-6.4205
-6.42045
-6.42044
-6.52005
-6.52008
-6.52012
-6.52017
-6.52026
-6.52038
-6.52055
-6.52076
-6.521
-6.52126
-6.52151
-6.52175
-6.52193
-6.52204
-6.52208
-6.52203
-6.52192
-6.52173
-6.5215
-6.52123
-6.52095
-6.52065
-6.52038
-6.52012
-6.51991
-6.51973
-6.51959
-6.5195
-6.51944
-6.51942
-6.61893
-6.61895
-6.61898
-6.61903
-6.61912
-6.61925
-6.61942
-6.61963
-6.61987
-6.62013
-6.62039
-6.62063
-6.62082
-6.62093
-6.62097
-6.62092
-6.62079
-6.6206
-6.62037
-6.6201
-6.61982
-6.61955
-6.61928
-6.61905
-6.61884
-6.61867
-6.61853
-6.61843
-6.61837
-6.61833
-6.71772
-6.71774
-6.71777
-6.71783
-6.71793
-6.71807
-6.71824
-6.71845
-6.71868
-6.71893
-6.71917
-6.71938
-6.71956
-6.71967
-6.7197
-6.71965
-6.71953
-6.71935
-6.71912
-6.71887
-6.7186
-6.71834
-6.7181
-6.71787
-6.71767
-6.71751
-6.71737
-6.71727
-6.7172
-6.71716
-6.81642
-6.81644
-6.81649
-6.81657
-6.81669
-6.81683
-6.81701
-6.81721
-6.81742
-6.81764
-6.81784
-6.81803
-6.81818
-6.81827
-6.8183
-6.81826
-6.81815
-6.81799
-6.81778
-6.81755
-6.8173
-6.81705
-6.81682
-6.8166
-6.81641
-6.81625
-6.81611
-6.81601
-6.81594
-6.8159
-6.91505
-6.91508
-6.91514
-6.91524
-6.91536
-6.91551
-6.91568
-6.91586
-6.91605
-6.91623
-6.91641
-6.91656
-6.91667
-6.91675
-6.91677
-6.91674
-6.91665
-6.91651
-6.91633
-6.91613
-6.9159
-6.91567
-6.91545
-6.91525
-6.91506
-6.9149
-6.91477
-6.91467
-6.9146
-6.91457
-7.01362
-7.01365
-7.01372
-7.01382
-7.01394
-7.01408
-7.01423
-7.01439
-7.01455
-7.0147
-7.01484
-7.01496
-7.01505
-7.01511
-7.01512
-7.0151
-7.01503
-7.01492
-7.01477
-7.0146
-7.0144
-7.0142
-7.014
-7.01381
-7.01364
-7.01349
-7.01336
-7.01327
-7.0132
-7.01317
-7.11213
-7.11216
-7.11222
-7.11231
-7.11242
-7.11254
-7.11268
-7.11281
-7.11294
-7.11306
-7.11317
-7.11327
-7.11334
-7.11338
-7.11339
-7.11337
-7.11332
-7.11323
-7.11311
-7.11297
-7.11281
-7.11264
-7.11247
-7.1123
-7.11215
-7.11201
-7.1119
-7.11181
-7.11175
-7.11172
-7.21058
-7.21061
-7.21067
-7.21074
-7.21083
-7.21093
-7.21104
-7.21115
-7.21125
-7.21135
-7.21144
-7.21151
-7.21157
-7.2116
-7.21161
-7.21159
-7.21155
-7.21148
-7.21139
-7.21127
-7.21115
-7.21101
-7.21086
-7.21072
-7.21059
-7.21047
-7.21037
-7.21029
-7.21024
-7.21022
-7.30898
-7.30901
-7.30905
-7.30911
-7.30918
-7.30926
-7.30935
-7.30944
-7.30952
-7.3096
-7.30968
-7.30973
-7.30978
-7.3098
-7.30981
-7.30979
-7.30976
-7.3097
-7.30963
-7.30954
-7.30943
-7.30932
-7.3092
-7.30909
-7.30898
-7.30888
-7.30879
-7.30872
-7.30868
-7.30865
-7.40733
-7.40735
-7.40738
-7.40743
-7.40748
-7.40755
-7.40762
-7.4077
-7.40777
-7.40783
-7.40789
-7.40794
-7.40798
-7.408
-7.408
-7.40799
-7.40796
-7.40791
-7.40785
-7.40778
-7.40769
-7.4076
-7.4075
-7.40741
-7.40731
-7.40723
-7.40716
-7.4071
-7.40706
-7.40704
-7.50562
-7.50564
-7.50567
-7.50571
-7.50575
-7.50581
-7.50587
-7.50593
-7.50599
-7.50605
-7.5061
-7.50615
-7.50618
-7.50619
-7.5062
-7.50618
-7.50616
-7.50612
-7.50607
-7.506
-7.50593
-7.50585
-7.50577
-7.50569
-7.50561
-7.50554
-7.50548
-7.50543
-7.50539
-7.50538
-7.60388
-7.60389
-7.60392
-7.60395
-7.60399
-7.60404
-7.60409
-7.60415
-7.6042
-7.60425
-7.6043
-7.60434
-7.60436
-7.60438
-7.60438
-7.60437
-7.60435
-7.60431
-7.60427
-7.60421
-7.60415
-7.60408
-7.60401
-7.60394
-7.60387
-7.60381
-7.60376
-7.60372
-7.60369
-7.60367
-7.7021
-7.70211
-7.70213
-7.70216
-7.7022
-7.70224
-7.70229
-7.70234
-7.70239
-7.70243
-7.70247
-7.70251
-7.70253
-7.70255
-7.70255
-7.70254
-7.70252
-7.70249
-7.70245
-7.7024
-7.70234
-7.70228
-7.70222
-7.70216
-7.7021
-7.70205
-7.702
-7.70197
-7.70194
-7.70193
-7.80029
-7.8003
-7.80032
-7.80035
-7.80038
-7.80042
-7.80046
-7.80051
-7.80055
-7.80059
-7.80063
-7.80066
-7.80068
-7.8007
-7.8007
-7.80069
-7.80067
-7.80065
-7.80061
-7.80057
-7.80052
-7.80046
-7.80041
-7.80035
-7.8003
-7.80026
-7.80022
-7.80019
-7.80016
-7.80015
-7.89846
-7.89847
-7.89848
-7.89851
-7.89854
-7.89857
-7.89861
-7.89865
-7.89869
-7.89873
-7.89876
-7.89879
-7.89881
-7.89882
-7.89882
-7.89882
-7.8988
-7.89878
-7.89875
-7.89871
-7.89866
-7.89862
-7.89857
-7.89852
-7.89848
-7.89844
-7.8984
-7.89837
-7.89836
-7.89834
-7.9966
-7.99661
-7.99662
-7.99664
-7.99667
-7.9967
-7.99673
-7.99677
-7.9968
-7.99684
-7.99687
-7.99689
-7.99691
-7.99692
-7.99693
-7.99692
-7.99691
-7.99689
-7.99686
-7.99683
-7.99679
-7.99675
-7.99671
-7.99666
-7.99663
-7.99659
-7.99656
-7.99654
-7.99652
-7.99651
-8.09472
-8.09473
-8.09474
-8.09476
-8.09478
-8.09481
-8.09484
-8.09487
-8.0949
-8.09493
-8.09496
-8.09498
-8.09499
-8.095
-8.09501
-8.095
-8.09499
-8.09498
-8.09495
-8.09492
-8.09489
-8.09486
-8.09482
-8.09478
-8.09475
-8.09472
-8.09469
-8.09467
-8.09466
-8.09465
-8.19283
-8.19283
-8.19284
-8.19286
-8.19288
-8.1929
-8.19293
-8.19295
-8.19298
-8.193
-8.19303
-8.19305
-8.19306
-8.19307
-8.19307
-8.19307
-8.19306
-8.19304
-8.19302
-8.193
-8.19297
-8.19294
-8.19291
-8.19288
-8.19285
-8.19283
-8.1928
-8.19279
-8.19277
-8.19277
-8.29091
-8.29092
-8.29093
-8.29094
-8.29096
-8.29098
-8.291
-8.29102
-8.29104
-8.29106
-8.29108
-8.2911
-8.29111
-8.29112
-8.29112
-8.29112
-8.29111
-8.2911
-8.29108
-8.29106
-8.29104
-8.29101
-8.29099
-8.29096
-8.29094
-8.29092
-8.2909
-8.29088
-8.29087
-8.29086
-8.38899
-8.38899
-8.389
-8.38901
-8.38902
-8.38904
-8.38906
-8.38908
-8.38909
-8.38911
-8.38913
-8.38914
-8.38915
-8.38916
-8.38916
-8.38916
-8.38915
-8.38914
-8.38913
-8.38911
-8.38909
-8.38907
-8.38905
-8.38903
-8.38901
-8.38899
-8.38897
-8.38896
-8.38895
-8.38894
-8.48704
-8.48705
-8.48705
-8.48706
-8.48707
-8.48709
-8.4871
-8.48712
-8.48713
-8.48715
-8.48716
-8.48717
-8.48718
-8.48719
-8.48719
-8.48719
-8.48718
-8.48717
-8.48716
-8.48715
-8.48713
-8.48711
-8.48709
-8.48708
-8.48706
-8.48704
-8.48703
-8.48702
-8.48701
-8.48701
-8.58509
-8.58509
-8.5851
-8.5851
-8.58511
-8.58512
-8.58514
-8.58515
-8.58516
-8.58518
-8.58519
-8.5852
-8.5852
-8.58521
-8.58521
-8.58521
-8.5852
-8.5852
-8.58519
-8.58517
-8.58516
-8.58515
-8.58513
-8.58512
-8.5851
-8.58509
-8.58508
-8.58507
-8.58506
-8.58506
-8.68312
-8.68312
-8.68313
-8.68314
-8.68314
-8.68315
-8.68316
-8.68317
-8.68318
-8.68319
-8.6832
-8.68321
-8.68322
-8.68322
-8.68322
-8.68322
-8.68322
-8.68321
-8.6832
-8.68319
-8.68318
-8.68317
-8.68316
-8.68314
-8.68313
-8.68312
-8.68311
-8.6831
-8.6831
-8.68309
-8.78114
-8.78115
-8.78115
-8.78116
-8.78116
-8.78117
-8.78118
-8.78119
-8.7812
-8.7812
-8.78121
-8.78122
-8.78122
-8.78122
-8.78123
-8.78122
-8.78122
-8.78122
-8.78121
-8.7812
-8.78119
-8.78118
-8.78117
-8.78116
-8.78115
-8.78114
-8.78113
-8.78113
-8.78112
-8.78112
-8.87916
-8.87916
-8.87916
-8.87917
-8.87917
-8.87918
-8.87919
-8.87919
-8.8792
-8.87921
-8.87921
-8.87922
-8.87922
-8.87922
-8.87922
-8.87922
-8.87922
-8.87922
-8.87921
-8.87921
-8.8792
-8.87919
-8.87918
-8.87917
-8.87916
-8.87916
-8.87915
-8.87914
-8.87914
-8.87914
-8.97716
-8.97716
-8.97717
-8.97717
-8.97717
-8.97718
-8.97719
-8.97719
-8.9772
-8.9772
-8.97721
-8.97721
-8.97721
-8.97722
-8.97722
-8.97722
-8.97721
-8.97721
-8.97721
-8.9772
-8.97719
-8.97719
-8.97718
-8.97717
-8.97717
-8.97716
-8.97716
-8.97715
-8.97715
-8.97715
-9.07516
-9.07516
-9.07516
-9.07517
-9.07517
-9.07517
-9.07518
-9.07518
-9.07519
-9.07519
-9.0752
-9.0752
-9.0752
-9.0752
-9.0752
-9.0752
-9.0752
-9.0752
-9.07519
-9.07519
-9.07519
-9.07518
-9.07517
-9.07517
-9.07516
-9.07516
-9.07515
-9.07515
-9.07515
-9.07515
-9.17315
-9.17315
-9.17315
-9.17316
-9.17316
-9.17316
-9.17317
-9.17317
-9.17317
-9.17318
-9.17318
-9.17318
-9.17318
-9.17318
-9.17318
-9.17318
-9.17318
-9.17318
-9.17318
-9.17317
-9.17317
-9.17317
-9.17316
-9.17316
-9.17315
-9.17315
-9.17315
-9.17314
-9.17314
-9.17314
-9.27114
-9.27114
-9.27114
-9.27114
-9.27114
-9.27115
-9.27115
-9.27115
-9.27116
-9.27116
-9.27116
-9.27116
-9.27116
-9.27116
-9.27116
-9.27116
-9.27116
-9.27116
-9.27116
-9.27115
-9.27115
-9.27115
-9.27115
-9.27114
-9.27114
-9.27114
-9.27113
-9.27113
-9.27113
-9.27113
-9.36912
-9.36912
-9.36912
-9.36912
-9.36912
-9.36913
-9.36913
-9.36913
-9.36913
-9.36913
-9.36914
-9.36914
-9.36914
-9.36914
-9.36914
-9.36914
-9.36913
-9.36913
-9.36913
-9.36913
-9.36913
-9.36913
-9.36912
-9.36912
-9.36912
-9.36912
-9.36911
-9.36911
-9.36911
-9.36911
-9.46709
-9.4671
-9.4671
-9.4671
-9.4671
-9.4671
-9.4671
-9.4671
-9.46711
-9.46711
-9.46711
-9.46711
-9.46711
-9.46711
-9.46711
-9.46711
-9.46711
-9.46711
-9.46711
-9.4671
-9.4671
-9.4671
-9.4671
-9.4671
-9.4671
-9.4671
-9.46709
-9.46709
-9.46709
-9.46709
-9.56507
-9.56507
-9.56507
-9.56507
-9.56507
-9.56507
-9.56508
-9.56508
-9.56508
-9.56508
-9.56508
-9.56508
-9.56508
-9.56508
-9.56508
-9.56508
-9.56508
-9.56508
-9.56508
-9.56508
-9.56508
-9.56508
-9.56507
-9.56507
-9.56507
-9.56507
-9.56507
-9.56507
-9.56507
-9.56507
-9.66304
-9.66304
-9.66304
-9.66304
-9.66305
-9.66305
-9.66305
-9.66305
-9.66305
-9.66305
-9.66305
-9.66305
-9.66305
-9.66305
-9.66305
-9.66305
-9.66305
-9.66305
-9.66305
-9.66305
-9.66305
-9.66305
-9.66305
-9.66304
-9.66304
-9.66304
-9.66304
-9.66304
-9.66304
-9.66304
-9.76101
-9.76101
-9.76101
-9.76101
-9.76102
-9.76102
-9.76102
-9.76102
-9.76102
-9.76102
-9.76102
-9.76102
-9.76102
-9.76102
-9.76102
-9.76102
-9.76102
-9.76102
-9.76102
-9.76102
-9.76102
-9.76102
-9.76102
-9.76102
-9.76101
-9.76101
-9.76101
-9.76101
-9.76101
-9.76101
4850.48
4850.48
4850.48
4850.48
4850.48
4850.48
4850.48
4850.47
4850.47
4850.47
4850.47
4850.47
4850.47
4850.47
4850.47
4850.47
4850.47
4850.47
4850.47
4850.47
4850.47
4850.47
4850.47
4850.47
4850.47
4850.48
4850.48
4850.48
4850.48
4850.49
4752.38
4752.38
4752.38
4752.38
4752.38
4752.38
4752.37
4752.37
4752.37
4752.37
4752.37
4752.37
4752.37
4752.37
4752.37
4752.37
4752.37
4752.37
4752.37
4752.37
4752.37
4752.37
4752.37
4752.37
4752.37
4752.37
4752.37
4752.37
4752.38
4752.37
4654.27
4654.27
4654.27
4654.27
4654.27
4654.27
4654.27
4654.27
4654.27
4654.27
4654.27
4654.27
4654.27
4654.27
4654.27
4654.27
4654.27
4654.27
4654.27
4654.27
4654.27
4654.27
4654.27
4654.27
4654.27
4654.27
4654.27
4654.27
4654.27
4654.27
4556.17
4556.17
4556.17
4556.17
4556.17
4556.17
4556.17
4556.17
4556.17
4556.17
4556.17
4556.17
4556.17
4556.17
4556.17
4556.17
4556.17
4556.17
4556.17
4556.17
4556.17
4556.17
4556.17
4556.17
4556.17
4556.17
4556.17
4556.17
4556.17
4556.17
4458.06
4458.06
4458.06
4458.06
4458.07
4458.07
4458.07
4458.07
4458.07
4458.07
4458.07
4458.07
4458.07
4458.07
4458.07
4458.07
4458.07
4458.07
4458.07
4458.07
4458.07
4458.07
4458.07
4458.07
4458.07
4458.07
4458.07
4458.07
4458.06
4458.07
4359.96
4359.96
4359.96
4359.96
4359.96
4359.96
4359.96
4359.97
4359.97
4359.97
4359.97
4359.97
4359.97
4359.97
4359.97
4359.97
4359.97
4359.97
4359.97
4359.97
4359.97
4359.97
4359.97
4359.97
4359.97
4359.97
4359.96
4359.96
4359.96
4359.96
4261.86
4261.86
4261.86
4261.86
4261.86
4261.86
4261.86
4261.86
4261.86
4261.86
4261.86
4261.87
4261.87
4261.87
4261.87
4261.87
4261.87
4261.87
4261.87
4261.87
4261.87
4261.87
4261.86
4261.86
4261.86
4261.86
4261.86
4261.86
4261.86
4261.86
4163.76
4163.76
4163.76
4163.76
4163.76
4163.76
4163.76
4163.76
4163.76
4163.76
4163.76
4163.76
4163.76
4163.76
4163.77
4163.77
4163.77
4163.77
4163.77
4163.76
4163.76
4163.76
4163.76
4163.76
4163.76
4163.76
4163.76
4163.76
4163.76
4163.76
4065.66
4065.67
4065.66
4065.66
4065.66
4065.66
4065.66
4065.66
4065.66
4065.66
4065.66
4065.66
4065.66
4065.66
4065.66
4065.66
4065.66
4065.66
4065.66
4065.66
4065.66
4065.66
4065.66
4065.66
4065.66
4065.66
4065.66
4065.66
4065.66
4065.66
3967.57
3967.57
3967.57
3967.56
3967.56
3967.56
3967.56
3967.56
3967.56
3967.56
3967.56
3967.56
3967.56
3967.56
3967.56
3967.56
3967.56
3967.56
3967.56
3967.56
3967.56
3967.56
3967.56
3967.56
3967.56
3967.56
3967.56
3967.56
3967.56
3967.56
3869.47
3869.47
3869.46
3869.46
3869.46
3869.46
3869.46
3869.46
3869.46
3869.46
3869.46
3869.46
3869.46
3869.46
3869.46
3869.46
3869.46
3869.46
3869.46
3869.46
3869.46
3869.46
3869.46
3869.46
3869.46
3869.46
3869.46
3869.46
3869.46
3869.46
3771.36
3771.36
3771.36
3771.36
3771.36
3771.36
3771.36
3771.36
3771.36
3771.36
3771.36
3771.35
3771.35
3771.35
3771.35
3771.35
3771.35
3771.36
3771.36
3771.36
3771.36
3771.36
3771.36
3771.36
3771.36
3771.36
3771.36
3771.36
3771.36
3771.36
3673.26
3673.26
3673.26
3673.26
3673.26
3673.26
3673.26
3673.26
3673.26
3673.26
3673.26
3673.26
3673.25
3673.25
3673.25
3673.25
3673.25
3673.25
3673.26
3673.26
3673.26
3673.26
3673.26
3673.26
3673.26
3673.26
3673.26
3673.26
3673.26
3673.26
3575.15
3575.15
3575.15
3575.15
3575.15
3575.15
3575.16
3575.16
3575.16
3575.16
3575.16
3575.16
3575.15
3575.15
3575.15
3575.15
3575.15
3575.15
3575.16
3575.16
3575.16
3575.16
3575.16
3575.16
3575.16
3575.16
3575.16
3575.16
3575.16
3575.16
3477.05
3477.05
3477.05
3477.05
3477.05
3477.06
3477.06
3477.06
3477.06
3477.06
3477.06
3477.06
3477.06
3477.05
3477.05
3477.05
3477.05
3477.05
3477.05
3477.05
3477.06
3477.06
3477.06
3477.06
3477.06
3477.06
3477.06
3477.06
3477.06
3477.06
3378.95
3378.95
3378.95
3378.95
3378.96
3378.96
3378.96
3378.96
3378.96
3378.96
3378.95
3378.95
3378.95
3378.95
3378.95
3378.95
3378.95
3378.95
3378.95
3378.95
3378.95
3378.96
3378.96
3378.96
3378.96
3378.96
3378.96
3378.96
3378.96
3378.96
3280.86
3280.86
3280.86
3280.86