/*--------------------------------*- C++ -*----------------------------------*\
| =========                 |                                                 |
| \\      /  F ield         | OpenFOAM: The Open Source CFD Toolbox           |
|  \\    /   O peration     | Version:  2312                                  |
|   \\  /    A nd           | Website:  www.openfoam.com                      |
|    \\/     M anipulation  |                                                 |
\*---------------------------------------------------------------------------*/
FoamFile
{
    version     2.0;
    format      ascii;
    arch        "LSB;label=32;scalar=64";
    class       volScalarField;
    location    "1.065074";
    object      p_rgh;
}
// * * * * * * * * * * * * * * * * * * * * * * * * * * * * * * * * * * * * * //

dimensions      [1 -1 -2 0 0 0 0];

internalField   nonuniform List<scalar> 
90000
(
4899.53
4899.53
4899.53
4899.53
4899.53
4899.53
4899.53
4899.53
4899.52
4899.52
4899.52
4899.52
4899.52
4899.52
4899.52
4899.52
4899.52
4899.52
4899.52
4899.52
4899.52
4899.52
4899.52
4899.52
4899.53
4899.53
4899.53
4899.53
4899.53
4899.52
4899.53
4899.54
4899.54
4899.53
4899.53
4899.53
4899.53
4899.53
4899.52
4899.52
4899.52
4899.52
4899.52
4899.52
4899.52
4899.52
4899.52
4899.52
4899.52
4899.52
4899.52
4899.52
4899.52
4899.52
4899.53
4899.53
4899.53
4899.53
4899.52
4899.47
4899.53
4899.54
4899.53
4899.53
4899.53
4899.53
4899.53
4899.53
4899.52
4899.52
4899.52
4899.52
4899.52
4899.52
4899.52
4899.52
4899.52
4899.52
4899.52
4899.52
4899.52
4899.52
4899.52
4899.52
4899.53
4899.53
4899.54
4899.56
4899.6
4899.52
4899.53
4899.53
4899.53
4899.53
4899.53
4899.53
4899.53
4899.53
4899.53
4899.52
4899.52
4899.52
4899.52
4899.51
4899.51
4899.51
4899.51
4899.51
4899.51
4899.51
4899.52
4899.52
4899.52
4899.52
4899.52
4899.52
4899.51
4899.5
4899.55
4899.52
4899.52
4899.52
4899.52
4899.52
4899.52
4899.53
4899.53
4899.53
4899.53
4899.53
4899.53
4899.52
4899.52
4899.51
4899.51
4899.5
4899.5
4899.5
4899.51
4899.51
4899.51
4899.52
4899.52
4899.52
4899.52
4899.53
4899.53
4899.51
4899.53
4899.52
4899.52
4899.51
4899.51
4899.51
4899.52
4899.52
4899.53
4899.53
4899.53
4899.53
4899.53
4899.53
4899.52
4899.52
4899.51
4899.51
4899.51
4899.51
4899.51
4899.51
4899.52
4899.52
4899.53
4899.53
4899.52
4899.52
4899.52
4899.51
4899.51
4899.51
4899.51
4899.5
4899.5
4899.5
4899.51
4899.51
4899.52
4899.53
4899.53
4899.53
4899.54
4899.53
4899.53
4899.53
4899.52
4899.52
4899.52
4899.52
4899.52
4899.52
4899.52
4899.53
4899.53
4899.53
4899.53
4899.52
4899.52
4899.51
4899.51
4899.51
4899.5
4899.48
4899.49
4899.49
4899.5
4899.5
4899.51
4899.52
4899.52
4899.53
4899.53
4899.53
4899.53
4899.53
4899.53
4899.53
4899.53
4899.53
4899.52
4899.53
4899.53
4899.53
4899.53
4899.53
4899.53
4899.52
4899.52
4899.51
4899.51
4899.52
4899.49
4899.48
4899.49
4899.49
4899.49
4899.5
4899.5
4899.5
4899.51
4899.51
4899.52
4899.52
4899.53
4899.53
4899.54
4899.54
4899.54
4899.53
4899.53
4899.53
4899.52
4899.52
4899.52
4899.52
4899.51
4899.51
4899.51
4899.51
4899.52
4899.52
4899.49
4899.5
4899.5
4899.5
4899.5
4899.5
4899.5
4899.5
4899.5
4899.5
4899.51
4899.51
4899.52
4899.53
4899.54
4899.54
4899.54
4899.53
4899.53
4899.52
4899.52
4899.51
4899.5
4899.5
4899.5
4899.49
4899.5
4899.51
4899.51
4899.51
4899.5
4899.53
4899.53
4899.53
4899.52
4899.52
4899.51
4899.5
4899.49
4899.49
4899.5
4899.5
4899.51
4899.52
4899.53
4899.53
4899.53
4899.53
4899.52
4899.52
4899.51
4899.5
4899.49
4899.49
4899.48
4899.49
4899.49
4899.5
4899.5
4899.5
4899.53
4899.57
4899.56
4899.56
4899.54
4899.53
4899.52
4899.5
4899.49
4899.49
4899.49
4899.49
4899.5
4899.51
4899.51
4899.51
4899.52
4899.52
4899.51
4899.51
4899.5
4899.5
4899.49
4899.49
4899.49
4899.49
4899.5
4899.5
4899.5
4899.5
4899.55
4899.59
4899.57
4899.56
4899.55
4899.53
4899.51
4899.5
4899.49
4899.48
4899.48
4899.48
4899.48
4899.48
4899.48
4899.49
4899.49
4899.5
4899.5
4899.5
4899.5
4899.5
4899.49
4899.5
4899.5
4899.51
4899.51
4899.5
4899.5
4899.51
4899.56
4899.56
4899.55
4899.53
4899.52
4899.5
4899.49
4899.49
4899.48
4899.48
4899.48
4899.47
4899.47
4899.47
4899.47
4899.47
4899.48
4899.49
4899.49
4899.5
4899.5
4899.5
4899.5
4899.5
4899.5
4899.5
4899.49
4899.49
4899.49
4899.48
4899.54
4899.5
4899.49
4899.48
4899.48
4899.48
4899.48
4899.49
4899.49
4899.49
4899.49
4899.48
4899.47
4899.46
4899.46
4899.47
4899.47
4899.48
4899.49
4899.5
4899.5
4899.5
4899.51
4899.5
4899.5
4899.49
4899.47
4899.47
4899.46
4899.45
4899.5
4899.44
4899.44
4899.44
4899.45
4899.47
4899.49
4899.5
4899.51
4899.51
4899.5
4899.49
4899.48
4899.47
4899.47
4899.47
4899.47
4899.48
4899.49
4899.49
4899.5
4899.51
4899.51
4899.51
4899.51
4899.5
4899.48
4899.48
4899.47
4899.48
4899.46
4899.41
4899.42
4899.44
4899.46
4899.48
4899.5
4899.51
4899.51
4899.5
4899.49
4899.48
4899.47
4899.46
4899.46
4899.46
4899.47
4899.47
4899.47
4899.48
4899.49
4899.51
4899.52
4899.53
4899.52
4899.52
4899.52
4899.52
4899.52
4899.55
4899.45
4899.42
4899.44
4899.46
4899.47
4899.49
4899.5
4899.5
4899.49
4899.48
4899.47
4899.46
4899.46
4899.47
4899.47
4899.47
4899.46
4899.46
4899.46
4899.47
4899.49
4899.5
4899.52
4899.52
4899.52
4899.51
4899.52
4899.53
4899.55
4899.55
4899.46
4899.44
4899.46
4899.47
4899.48
4899.48
4899.48
4899.47
4899.47
4899.46
4899.47
4899.48
4899.49
4899.5
4899.5
4899.49
4899.48
4899.47
4899.47
4899.48
4899.49
4899.5
4899.5
4899.49
4899.48
4899.48
4899.48
4899.49
4899.49
4899.46
4899.48
4899.46
4899.47
4899.48
4899.48
4899.49
4899.49
4899.49
4899.49
4899.5
4899.51
4899.53
4899.54
4899.54
4899.52
4899.51
4899.49
4899.49
4899.49
4899.5
4899.5
4899.49
4899.47
4899.46
4899.46
4899.47
4899.47
4899.46
4899.44
4899.42
4899.49
4899.48
4899.49
4899.5
4899.51
4899.52
4899.53
4899.53
4899.53
4899.54
4899.55
4899.55
4899.54
4899.53
4899.5
4899.49
4899.49
4899.49
4899.5
4899.5
4899.49
4899.48
4899.47
4899.47
4899.49
4899.51
4899.51
4899.49
4899.47
4899.51
4899.5
4899.51
4899.53
4899.54
4899.55
4899.56
4899.56
4899.55
4899.55
4899.54
4899.54
4899.52
4899.5
4899.48
4899.47
4899.48
4899.5
4899.51
4899.52
4899.51
4899.49
4899.47
4899.48
4899.51
4899.53
4899.54
4899.52
4899.51
4899.52
4899.54
4899.52
4899.55
4899.55
4899.56
4899.56
4899.56
4899.55
4899.54
4899.53
4899.52
4899.5
4899.48
4899.47
4899.47
4899.48
4899.51
4899.54
4899.55
4899.53
4899.5
4899.49
4899.49
4899.52
4899.54
4899.54
4899.52
4899.51
4899.5
4899.5
4899.47
4899.54
4899.56
4899.56
4899.55
4899.55
4899.54
4899.54
4899.53
4899.53
4899.52
4899.5
4899.48
4899.48
4899.49
4899.52
4899.54
4899.55
4899.53
4899.5
4899.49
4899.5
4899.53
4899.56
4899.57
4899.55
4899.52
4899.52
4899.51
4899.49
4899.51
4899.55
4899.55
4899.55
4899.54
4899.54
4899.53
4899.54
4899.54
4899.54
4899.52
4899.5
4899.48
4899.48
4899.49
4899.51
4899.51
4899.5
4899.47
4899.46
4899.49
4899.53
4899.57
4899.59
4899.57
4899.55
4899.55
4899.56
4899.56
4899.57
4899.62
4899.55
4899.54
4899.54
4899.53
4899.53
4899.53
4899.53
4899.53
4899.51
4899.49
4899.47
4899.46
4899.47
4899.49
4899.5
4899.49
4899.47
4899.46
4899.49
4899.53
4899.57
4899.58
4899.56
4899.53
4899.54
4899.55
4899.55
4899.58
4899.64
4899.58
4899.55
4899.53
4899.52
4899.51
4899.5
4899.49
4899.49
4899.49
4899.48
4899.47
4899.47
4899.49
4899.51
4899.53
4899.53
4899.51
4899.51
4899.52
4899.55
4899.57
4899.57
4899.55
4899.52
4899.51
4899.53
4899.54
4899.53
4899.57
4899.58
4899.48
4899.55
4899.51
4899.5
4899.48
4899.47
4899.47
4899.48
4899.48
4899.48
4899.49
4899.51
4899.54
4899.56
4899.56
4899.54
4899.52
4899.52
4899.53
4899.54
4899.53
4899.51
4899.49
4899.51
4899.53
4899.54
4899.56
4899.56
4899.56
4899.51
4899.56
4899.54
4899.5
4899.5
4899.49
4899.49
4899.49
4899.49
4899.49
4899.49
4899.51
4899.53
4899.54
4899.54
4899.52
4899.5
4899.49
4899.49
4899.5
4899.49
4899.47
4899.45
4899.47
4899.51
4899.53
4899.53
4899.56
4899.57
4899.53
4899.56
4899.66
4899.56
4899.54
4899.54
4899.53
4899.52
4899.5
4899.49
4899.48
4899.48
4899.5
4899.52
4899.53
4899.52
4899.5
4899.49
4899.49
4899.5
4899.49
4899.47
4899.47
4899.48
4899.48
4899.49
4899.49
4899.49
4899.53
4899.55
4899.55
4899.66
4899.6
4899.6
4899.59
4899.58
4899.56
4899.53
4899.51
4899.5
4899.5
4899.51
4899.53
4899.55
4899.54
4899.53
4899.51
4899.5
4899.5
4899.49
4899.49
4899.48
4899.51
4899.52
4899.48
4899.47
4899.5
4899.52
4899.54
4899.59
4899.64
4899.63
4899.57
4899.65
4899.63
4899.61
4899.59
4899.57
4899.56
4899.55
4899.55
4899.55
4899.54
4899.53
4899.51
4899.49
4899.48
4899.48
4899.47
4899.47
4899.5
4899.52
4899.53
4899.53
4899.48
4899.5
4899.57
4899.59
4899.57
4899.65
4899.66
4899.58
4899.65
4899.69
4899.67
4899.67
4899.66
4899.65
4899.62
4899.59
4899.55
4899.52
4899.5
4899.49
4899.48
4899.48
4899.48
4899.48
4899.48
4899.49
4899.53
4899.53
4899.49
4899.48
4899.49
4899.54
4899.6
4899.6
4899.59
4899.67
4899.65
4899.67
4899.72
4899.74
4899.75
4899.75
4899.74
4899.7
4899.65
4899.6
4899.56
4899.53
4899.52
4899.52
4899.53
4899.53
4899.51
4899.49
4899.48
4899.46
4899.48
4899.46
4899.39
4899.44
4899.53
4899.57
4899.56
4899.59
4899.65
4899.69
4899.72
4899.78
4899.75
4899.82
4899.84
4899.82
4899.79
4899.75
4899.7
4899.65
4899.62
4899.59
4899.58
4899.58
4899.56
4899.52
4899.47
4899.44
4899.46
4899.45
4899.44
4899.46
4899.46
4899.56
4899.66
4899.62
4899.59
4899.71
4899.77
4899.76
4899.81
4899.78
4899.8
4899.91
4899.91
4899.89
4899.86
4899.81
4899.75
4899.7
4899.65
4899.62
4899.6
4899.57
4899.53
4899.48
4899.47
4899.45
4899.53
4899.52
4899.5
4899.56
4899.62
4899.69
4899.72
4899.67
4899.72
4899.87
4899.86
4899.83
4899.83
4899.87
4899.88
4900
4899.99
4899.96
4899.9
4899.84
4899.78
4899.74
4899.7
4899.66
4899.61
4899.55
4899.51
4899.48
4899.53
4899.52
4899.57
4899.55
4899.51
4899.59
4899.68
4899.68
4899.7
4899.74
4899.85
4899.94
4899.88
4899.89
4899.94
4900.01
4900
4900.11
4900.07
4900.02
4899.98
4899.94
4899.9
4899.85
4899.78
4899.7
4899.63
4899.58
4899.57
4899.51
4899.59
4899.55
4899.55
4899.55
4899.58
4899.65
4899.71
4899.68
4899.75
4899.87
4899.9
4899.91
4899.92
4900.01
4900.07
4900.07
4900.12
4900.23
4900.19
4900.17
4900.15
4900.11
4900.03
4899.94
4899.85
4899.79
4899.74
4899.67
4899.68
4899.55
4899.59
4899.57
4899.54
4899.54
4899.63
4899.66
4899.67
4899.68
4899.82
4899.94
4899.89
4899.95
4900.09
4900.14
4900.15
4900.23
4900.33
4900.4
4900.39
4900.36
4900.3
4900.22
4900.14
4900.07
4899.99
4899.91
4899.82
4899.66
4899.67
4899.6
4899.56
4899.58
4899.54
4899.48
4899.58
4899.65
4899.66
4899.78
4899.89
4899.98
4900
4900.11
4900.28
4900.26
4900.34
4900.54
4900.55
4900.64
4900.58
4900.52
4900.47
4900.42
4900.32
4900.18
4900.04
4899.91
4899.87
4899.73
4899.64
4899.71
4899.56
4899.56
4899.62
4899.6
4899.63
4899.78
4899.76
4899.9
4899.96
4900.07
4900.23
4900.25
4900.4
4900.51
4900.63
4900.68
4900.67
4900.87
4900.83
4900.84
4900.77
4900.6
4900.42
4900.31
4900.24
4900.07
4899.97
4899.95
4899.66
4899.77
4899.72
4899.62
4899.64
4899.7
4899.69
4899.83
4899.85
4900
4900.11
4900.21
4900.44
4900.44
4900.55
4900.8
4900.9
4900.78
4900.79
4901.23
4901.28
4901.17
4900.96
4900.84
4900.75
4900.63
4900.46
4900.33
4900.09
4900.04
4899.83
4899.8
4899.75
4899.68
4899.71
4899.81
4899.82
4899.88
4899.98
4900.14
4900.34
4900.34
4900.4
4900.81
4900.94
4900.93
4901.13
4901.29
4901.19
4901.72
4901.61
4901.41
4901.39
4901.34
4901.05
4900.8
4900.66
4900.47
4900.2
4900.04
4900.09
4899.98
4899.79
4899.86
4899.91
4899.86
4899.89
4900.06
4900.25
4900.17
4900.34
4900.79
4900.76
4901.01
4901.27
4901.35
4901.58
4901.69
4901.52
4902.14
4902
4902.06
4901.89
4901.57
4901.46
4901.32
4900.89
4900.67
4900.78
4900.33
4900.13
4900.28
4900.08
4900.01
4900.04
4900.14
4900.29
4900.13
4900.29
4900.73
4900.75
4900.88
4901.26
4901.38
4901.58
4901.92
4902.06
4901.97
4901.81
4902.72
4902.73
4902.64
4902.29
4902.18
4901.98
4901.69
4901.56
4900.95
4900.82
4900.82
4900.54
4900.46
4900.42
4900.27
4900.47
4900.44
4900.32
4900.64
4900.75
4900.7
4901.17
4901.39
4901.57
4901.91
4902.2
4902.38
4902.6
4902.77
4902.32
4903.56
4903.4
4903.18
4902.98
4902.89
4902.6
4902.13
4901.99
4901.62
4901.33
4901.13
4900.94
4900.94
4900.85
4900.86
4900.88
4900.88
4900.93
4901
4901.23
4901.47
4901.6
4901.85
4902.36
4902.6
4902.66
4903.11
4903.37
4903.44
4903.25
4904.41
4902.61
4903.89
4903.92
4903.14
4903.08
4903.2
4902.7
4902.25
4902.1
4901.79
4901.62
4901.54
4901.52
4901.62
4901.63
4901.54
4901.52
4901.64
4901.73
4902.07
4902.41
4902.72
4903
4903.21
4903.06
4903.85
4903.97
4902.95
4904.05
4905.57
4905.32
4905.56
4905.2
4905.03
4904.62
4904.33
4903.84
4903.14
4903.06
4902.77
4902.54
4901.85
4902.02
4902.68
4902.62
4902
4901.82
4902.57
4902.73
4903.07
4903.11
4903.81
4904.35
4904.61
4905.01
4905.19
4905.57
4905.37
4905.62
4172.18
4072.15
4158.68
4179.98
4212.35
4220.7
4237.92
4255.04
4220.45
4222.74
4205.01
4233.98
4172.13
4217.58
4258.05
4250.04
4224.98
4178.27
4230.58
4209.36
4221.77
4218.96
4254.53
4239.4
4220.06
4209.92
4175.76
4163.51
4075.59
4174.02
1134.53
1000.97
1273.99
1023.49
1100.48
1001.6
1062.28
964.304
816.298
976.267
946.561
1037.55
828.182
829.355
1116.32
1085.65
833.899
816.213
1033.49
955.877
975.35
810.924
962.614
1063.96
1001.98
1103.71
1016.45
1281.52
987.275
1143.32
16.4882
16.1379
18.2346
6.2084
11.3867
3.21925
4.08559
1.33999
1.1732
0.983358
3.18862
0.976954
0.391363
0.388843
0.613738
0.648264
0.498646
0.368012
0.949855
7.02994
0.923942
1.14439
1.33236
4.25401
3.24233
12.1283
5.93252
19.0367
16.7424
15.5866
3.97733
10.999
6.23039
1.26807
1.50258
1.65851
0.765758
0.554662
1.27999
1.10426
0.766358
0.923494
0.243851
0.107037
0.118992
0.155963
0.292947
0.261449
0.365962
0.603529
0.96851
1.18846
0.597433
0.78578
1.75853
1.65717
1.44145
5.78068
11.2802
3.89537
0.558176
1.87998
1.18164
0.250348
0.183262
0.283022
0.927379
0.170737
0.154887
0.14428
0.310483
0.112249
0.293595
0.118529
0.0559344
0.0571834
0.151974
0.319501
0.0576555
0.355055
0.129602
0.20686
0.159581
0.954866
0.347865
0.208807
0.265818
1.11649
1.86362
0.547094
0.0487826
0.0332096
0.215086
0.0452363
0.0145047
0.0139093
0.0747342
0.0311073
0.0241305
0.0452007
0.0586076
0.0432195
0.0767501
0.109039
0.0548369
0.0557089
0.117308
0.0965442
0.0535061
0.0562422
0.0252052
0.0233188
0.0296121
0.0798413
0.0134036
0.015477
0.0451086
0.208259
0.0355463
0.0475455
0.00635865
0.0083264
0.0278691
0.0132729
0.0111225
0.0128638
0.0142691
0.0165434
0.0234701
0.0275932
0.0226458
0.0346246
0.0560669
0.0613748
0.0624028
0.0622716
0.0528206
0.0545263
0.0381397
0.0232384
0.0261494
0.0236136
0.0171544
0.0148559
0.0135152
0.0119109
0.0141608
0.0293046
0.00930266
0.00728619
0.00592853
0.00663357
0.00922358
0.00979722
0.0111017
0.0125635
0.0140637
0.0156687
0.0172313
0.0185377
0.0196158
0.0214199
0.0217256
0.025197
0.0421484
0.0453469
0.0251302
0.021543
0.021207
0.0198103
0.0190128
0.0176661
0.0162756
0.0147552
0.0133018
0.0119356
0.0106861
0.0101728
0.00754562
0.00687866
0.00745629
0.00789388
0.00875887
0.00992469
0.0110754
0.0122269
0.0134302
0.0146969
0.0159099
0.0170233
0.0178888
0.0185727
0.0190784
0.0195049
0.0197724
0.0201042
0.0196245
0.0192342
0.0187418
0.0181085
0.017363
0.0163681
0.0153132
0.0142002
0.0130584
0.0119522
0.0108081
0.00963749
0.00868714
0.00825255
0.00830494
0.00858174
0.00912674
0.0099235
0.0107517
0.0115912
0.0124947
0.0134422
0.0143485
0.0151562
0.0158148
0.0163408
0.0167325
0.0170015
0.0171244
0.0171688
0.017132
0.0169101
0.0165547
0.0160751
0.0154977
0.0148071
0.0140574
0.0132736
0.0124353
0.0115971
0.0107333
0.00992647
0.0093186
0.00901064
0.0085161
0.00867691
0.00904689
0.00954667
0.0100889
0.010682
0.0113379
0.0120005
0.0126046
0.0131263
0.0135637
0.0139305
0.0142369
0.0144809
0.0145874
0.0146381
0.0146202
0.0144349
0.014182
0.0138708
0.0134977
0.0130539
0.012564
0.0120458
0.0114768
0.0108947
0.0103172
0.00981461
0.00943566
0.00923084
0.00823237
0.00834125
0.00857444
0.00887952
0.00922536
0.00962009
0.010044
0.0104416
0.0107811
0.0110691
0.0113185
0.0115396
0.0117282
0.0118513
0.0119616
0.0120051
0.0119747
0.0119215
0.0118062
0.0116609
0.0114816
0.0112469
0.0109686
0.0106626
0.0103217
0.00996945
0.00963169
0.00934439
0.0091258
0.0089939
0.00769794
0.00777942
0.00791148
0.00807916
0.00827306
0.00848286
0.00868268
0.00885878
0.00899349
0.00910689
0.00921485
0.00932299
0.00942196
0.00949349
0.00954438
0.00957528
0.00959147
0.00960181
0.00959876
0.00958819
0.0095633
0.00950021
0.00939599
0.00925705
0.00910353
0.00893379
0.00876935
0.00862604
0.00851204
0.00843676
0.00701759
0.00706624
0.00712187
0.00718527
0.00725321
0.00730993
0.00734294
0.00735333
0.00734469
0.00733425
0.00733487
0.00734952
0.00737114
0.00738733
0.00739823
0.00741606
0.00745484
0.00751821
0.00759683
0.0076847
0.00777232
0.00784009
0.00787869
0.00788818
0.00787791
0.00784833
0.00781027
0.00777136
0.00773448
0.00770459
0.00621376
0.00622932
0.0062285
0.00621701
0.00619345
0.0061475
0.00607466
0.00598044
0.00587521
0.00577376
0.005685
0.00561587
0.00556614
0.00553193
0.00551471
0.00552336
0.00557372
0.00567142
0.00580752
0.00596971
0.00614648
0.00631835
0.00647367
0.00660475
0.00671222
0.00679029
0.00684394
0.0068765
0.00688982
0.00688704
0.00533462
0.00532251
0.00528614
0.00523257
0.00515924
0.00505828
0.00492623
0.00476873
0.00459767
0.00442433
0.00425964
0.00411615
0.004005
0.00393242
0.00390132
0.00391578
0.00398442
0.00411166
0.00429219
0.00451304
0.00475789
0.00500741
0.00524574
0.00546098
0.00564407
0.00579136
0.00589873
0.00596948
0.006007
0.00601506
0.00444667
0.00441737
0.00437142
0.00430909
0.00422141
0.00409945
0.00393973
0.00374736
0.00353133
0.00330379
0.00308017
0.00287993
0.0027227
0.00262334
0.00258882
0.0026195
0.00271528
0.0028734
0.00308695
0.0033433
0.0036257
0.00391454
0.00419203
0.00444457
0.00466111
0.00483515
0.00496388
0.00505051
0.00509922
0.00511374
0.00359963
0.00356752
0.00353082
0.00347679
0.00339167
0.00326595
0.00309719
0.0028888
0.002649
0.00239163
0.0021356
0.00190387
0.00172067
0.00160617
0.00157144
0.00161557
0.00173423
0.00191581
0.00214796
0.0024162
0.00270457
0.00299602
0.00327448
0.00352642
0.00374418
0.003921
0.0040553
0.00414919
0.00420748
0.00423406
0.00282167
0.0027961
0.00276842
0.00271813
0.0026323
0.00250418
0.00233292
0.00212093
0.00187734
0.0016164
0.00135683
0.00112137
0.000934267
0.000816607
0.0007815
0.000830988
0.000957978
0.00114801
0.00138411
0.00164918
0.00192736
0.00220405
0.00246639
0.00270388
0.0029101
0.00308118
0.00321575
0.00331509
0.00338149
0.00341614
0.00212978
0.00210989
0.00207775
0.00201636
0.00191852
0.00178274
0.00160849
0.00140048
0.00116794
0.000923362
0.000682946
0.000466307
0.000294007
0.000184522
0.000150935
0.000197501
0.000318836
0.00050173
0.000728936
0.00098264
0.00124676
0.00150768
0.00175453
0.00197904
0.00217574
0.00234254
0.00247709
0.00257959
0.00265052
0.00268925
0.00152516
0.00150502
0.00145744
0.00137665
0.00126224
0.00111627
0.000941232
0.000743347
0.000530893
0.000313947
0.000105411
-7.97663e-05
-0.000226226
-0.000319696
-0.000348958
-0.0003091
-0.000202607
-3.88019e-05
0.000168405
0.00040324
0.000650506
0.000896982
0.00113215
0.00134823
0.00153987
0.00170369
0.00183801
0.001941
0.00201214
0.00205002
0.000996768
0.000971608
0.000909009
0.000813455
0.000688815
0.000539377
0.000370866
0.000189618
2.49726e-06
-0.000182284
-0.000355057
-0.000505404
-0.000622832
-0.000697366
-0.000720771
-0.000688493
-0.000600711
-0.00046263
-0.000283601
-7.56709e-05
0.000148216
0.000375896
0.000596986
0.000803277
0.000988628
0.00114857
0.00127985
0.00138087
0.00144904
0.00148333
0.000532372
0.000500847
0.000432815
0.000334782
0.000212283
7.14722e-05
-8.14275e-05
-0.000240578
-0.000399728
-0.000552231
-0.000691116
-0.000809371
-0.000900183
-0.000957071
-0.000974597
-0.00094915
-0.000879704
-0.000768555
-0.00062125
-0.00044603
-0.000252672
-5.13296e-05
0.000148474
0.000338448
0.000511695
0.000662751
0.000787316
0.00088253
0.000946379
0.000977069
0.000123266
8.99928e-05
2.6159e-05
-6.26662e-05
-0.000171664
-0.000294423
-0.000425535
-0.000559545
-0.000690827
-0.000814055
-0.000924068
-0.00101596
-0.0010854
-0.00112796
-0.00114048
-0.00112028
-0.00106618
-0.000979036
-0.000861949
-0.000720183
-0.000560429
-0.000390372
-0.000218007
-5.10363e-05
0.00010361
0.00024004
0.000353536
0.000440611
0.000499085
0.000527039
-0.000231005
-0.000262187
-0.000315705
-0.000389623
-0.000479453
-0.000580757
-0.000688646
-0.000798128
-0.000904599
-0.00100366
-0.0010911
-0.00116312
-0.00121658
-0.00124871
-0.0012573
-0.0012406
-0.00119783
-0.00112949
-0.00103723
-0.00092471
-0.000796138
-0.000657027
-0.00051369
-0.000372671
-0.000240221
-0.000121883
-2.22591e-05
5.50673e-05
0.000107582
0.000133464
-0.000530141
-0.000556744
-0.000598673
-0.000657539
-0.00072928
-0.000810771
-0.000897995
-0.000986914
-0.00107364
-0.00115426
-0.00122508
-0.00128302
-0.00132551
-0.0013504
-0.00135608
-0.00134153
-0.00130641
-0.00125133
-0.00117756
-0.00108738
-0.000983839
-0.000870993
-0.000753696
-0.000637159
-0.000526544
-0.000426556
-0.000341307
-0.000274225
-0.000227919
-0.000204246
-0.000776798
-0.000797297
-0.000830514
-0.000876967
-0.000934467
-0.00100045
-0.00107183
-0.00114536
-0.00121755
-0.00128487
-0.00134414
-0.00139263
-0.00142793
-0.00144814
-0.00145199
-0.00143892
-0.00140899
-0.00136283
-0.00130158
-0.00122702
-0.00114169
-0.0010488
-0.000952163
-0.000855832
-0.000763845
-0.000680026
-0.000607879
-0.000550484
-0.000510318
-0.000489167
-0.000974345
-0.000990616
-0.0010175
-0.00105543
-0.00110302
-0.00115827
-0.00121868
-0.00128136
-0.00134326
-0.00140135
-0.00145283
-0.00149507
-0.00152575
-0.00154309
-0.00154605
-0.00153433
-0.00150811
-0.001468
-0.0014151
-0.00135114
-0.00127846
-0.00119989
-0.00111853
-0.00103758
-0.000960209
-0.000889496
-0.00082835
-0.000779407
-0.000744842
-0.000726283
-0.00113015
-0.00114344
-0.00116619
-0.00119868
-0.00123986
-0.00128799
-0.00134087
-0.00139593
-0.00145056
-0.00150212
-0.00154805
-0.00158586
-0.00161335
-0.00162892
-0.00163167
-0.00162134
-0.00159809
-0.00156249
-0.00151568
-0.00145943
-0.00139597
-0.00132784
-0.00125768
-0.00118815
-0.00112183
-0.00106127
-0.00100889
-0.000966891
-0.000937103
-0.000920942
-0.00125073
-0.00126189
-0.00128213
-0.00131116
-0.00134796
-0.00139098
-0.00143824
-0.00148758
-0.00153662
-0.00158305
-0.00162448
-0.00165868
-0.0016837
-0.00169807
-0.00170103
-0.00169221
-0.00167169
-0.00164004
-0.00159845
-0.00154862
-0.00149262
-0.00143269
-0.00137114
-0.00131028
-0.00125238
-0.00119966
-0.0011542
-0.00111782
-0.00109202
-0.00107798
-0.00134163
-0.00135175
-0.00137027
-0.00139657
-0.0014297
-0.00146831
-0.00151075
-0.00155506
-0.00159917
-0.00164095
-0.00167832
-0.00170931
-0.00173223
-0.00174574
-0.00174903
-0.0017417
-0.00172378
-0.0016959
-0.00165923
-0.00161527
-0.00156585
-0.00151292
-0.00145853
-0.00140478
-0.00135374
-0.00130744
-0.00126769
-0.00123602
-0.00121361
-0.00120144
-0.00140739
-0.001417
-0.00143368
-0.00145721
-0.0014868
-0.00152123
-0.00155908
-0.0015986
-0.00163798
-0.00167537
-0.00170891
-0.00173685
-0.00175771
-0.00177023
-0.00177362
-0.00176756
-0.0017521
-0.00172789
-0.00169594
-0.00165752
-0.00161418
-0.00156763
-0.0015197
-0.00147233
-0.00142746
-0.00138691
-0.00135222
-0.00132465
-0.00130513
-0.00129448
-0.00145064
-0.0014592
-0.00147383
-0.00149462
-0.00152081
-0.00155129
-0.0015847
-0.00161961
-0.00165455
-0.00168779
-0.0017176
-0.00174239
-0.0017611
-0.00177229
-0.00177552
-0.00177054
-0.00175734
-0.00173655
-0.00170911
-0.00167588
-0.00163825
-0.00159771
-0.00155592
-0.00151463
-0.00147558
-0.00144033
-0.00141017
-0.00138615
-0.00136904
-0.00135957
-0.00147274
-0.00147991
-0.00149273
-0.00151103
-0.00153408
-0.00156074
-0.0015899
-0.00162033
-0.00165105
-0.00168005
-0.00170587
-0.00172762
-0.00174391
-0.00175418
-0.00175755
-0.00175367
-0.00174275
-0.00172507
-0.00170131
-0.00167267
-0.00164023
-0.00160532
-0.00156934
-0.00153373
-0.00150012
-0.0014697
-0.00144356
-0.00142259
-0.00140757
-0.00139911
-0.00147593
-0.0014819
-0.00149321
-0.00150927
-0.00152939
-0.00155239
-0.0015775
-0.00160384
-0.00162987
-0.0016546
-0.00167695
-0.00169569
-0.00170991
-0.0017189
-0.00172203
-0.00171901
-0.0017099
-0.001695
-0.00167489
-0.00165045
-0.00162274
-0.00159293
-0.0015623
-0.00153212
-0.00150335
-0.00147716
-0.00145453
-0.0014363
-0.00142326
-0.00141582
-0.00146358
-0.00147005
-0.00147971
-0.00149289
-0.00150904
-0.00152808
-0.00154921
-0.00157139
-0.0015935
-0.00161454
-0.00163355
-0.0016496
-0.0016619
-0.00166972
-0.00167252
-0.00167007
-0.00166237
-0.00164969
-0.0016326
-0.00161188
-0.00158845
-0.00156328
-0.00153741
-0.00151186
-0.00148748
-0.00146521
-0.00144589
-0.00143031
-0.00141901
-0.00141256
-0.0014352
-0.00144052
-0.00144833
-0.00145936
-0.00147306
-0.00148912
-0.00150688
-0.0015255
-0.0015441
-0.00156185
-0.00157797
-0.00159169
-0.00160222
-0.00160892
-0.00161125
-0.00160905
-0.00160239
-0.00159161
-0.00157722
-0.00155984
-0.00154022
-0.00151915
-0.00149747
-0.00147597
-0.00145543
-0.0014366
-0.00142021
-0.00140693
-0.00139729
-0.00139172
-0.00139215
-0.00139669
-0.00140309
-0.00141232
-0.00142392
-0.00143746
-0.00145234
-0.0014679
-0.00148349
-0.00149846
-0.0015121
-0.00152368
-0.00153252
-0.00153799
-0.00153975
-0.00153772
-0.00153206
-0.00152306
-0.00151113
-0.00149675
-0.00148048
-0.00146294
-0.0014448
-0.00142673
-0.00140941
-0.00139349
-0.00137961
-0.00136834
-0.00136013
-0.00135529
-0.00133699
-0.00134063
-0.00134616
-0.00135388
-0.00136361
-0.0013749
-0.00138725
-0.00140016
-0.00141314
-0.00142559
-0.0014369
-0.00144642
-0.00145357
-0.00145791
-0.00145926
-0.00145757
-0.00145298
-0.0014457
-0.00143598
-0.00142416
-0.00141067
-0.00139601
-0.00138074
-0.00136546
-0.00135079
-0.00133733
-0.00132563
-0.00131615
-0.00130923
-0.00130506
-0.00127074
-0.0012738
-0.00127852
-0.00128504
-0.00129314
-0.00130247
-0.00131262
-0.00132323
-0.00133387
-0.00134404
-0.00135319
-0.00136078
-0.00136641
-0.00136984
-0.00137096
-0.00136972
-0.00136621
-0.00136042
-0.00135254
-0.00134278
-0.00133149
-0.0013191
-0.00130614
-0.0012932
-0.00128082
-0.00126955
-0.00125982
-0.00125199
-0.00124627
-0.00124276
-0.00119371
-0.0011964
-0.00120042
-0.00120595
-0.00121273
-0.00122049
-0.00122888
-0.00123758
-0.00124624
-0.00125439
-0.0012616
-0.00126753
-0.00127194
-0.00127471
-0.00127576
-0.00127497
-0.00127228
-0.00126766
-0.0012612
-0.00125306
-0.00124354
-0.00123308
-0.00122217
-0.00121133
-0.00120106
-0.00119178
-0.00118383
-0.00117744
-0.00117275
-0.0011698
-0.00110661
-0.0011091
-0.00111248
-0.00111719
-0.00112294
-0.00112946
-0.00113646
-0.00114364
-0.00115067
-0.00115715
-0.0011628
-0.00116746
-0.00117096
-0.00117325
-0.00117423
-0.00117374
-0.00117159
-0.00116781
-0.00116243
-0.00115564
-0.00114772
-0.00113905
-0.00113008
-0.00112122
-0.00111287
-0.00110535
-0.00109888
-0.00109362
-0.00108969
-0.00108714
-0.00101097
-0.00101331
-0.00101614
-0.0010201
-0.00102493
-0.00103041
-0.00103627
-0.0010422
-0.00104791
-0.00105309
-0.00105755
-0.00106123
-0.00106404
-0.00106589
-0.00106664
-0.00106619
-0.00106437
-0.00106121
-0.00105676
-0.0010512
-0.00104482
-0.0010379
-0.00103077
-0.00102372
-0.00101703
-0.00101093
-0.00100559
-0.00100115
-0.000997727
-0.000995472
-0.00090844
-0.000910502
-0.000912827
-0.000916062
-0.000920053
-0.000924585
-0.000929408
-0.000934267
-0.00093887
-0.000942995
-0.000946511
-0.00094935
-0.000951448
-0.00095277
-0.000953186
-0.00095261
-0.00095098
-0.000948336
-0.000944767
-0.000940435
-0.00093553
-0.000930236
-0.000924747
-0.000919249
-0.000913915
-0.000908915
-0.00090442
-0.000900592
-0.000897582
-0.000895619
-0.000799824
-0.000801523
-0.000803312
-0.000805949
-0.000809214
-0.000812929
-0.000816854
-0.000820747
-0.000824382
-0.000827582
-0.000830247
-0.000832313
-0.000833719
-0.00083446
-0.000834467
-0.000833723
-0.000832256
-0.000830116
-0.000827404
-0.000824214
-0.000820636
-0.000816755
-0.000812647
-0.000808408
-0.000804158
-0.00080005
-0.000796269
-0.000792997
-0.000790441
-0.000788776
-0.0006856
-0.000686911
-0.00068834
-0.000690524
-0.000693245
-0.000696276
-0.000699395
-0.000702416
-0.000705199
-0.00070759
-0.000709494
-0.000710849
-0.000711651
-0.000711885
-0.000711569
-0.000710744
-0.000709506
-0.00070789
-0.000705969
-0.000703765
-0.000701289
-0.000698536
-0.000695517
-0.000692283
-0.00068893
-0.000685608
-0.000682505
-0.000679803
-0.000677712
-0.000676369
-0.000566681
-0.00056772
-0.000568995
-0.000570831
-0.000573081
-0.000575485
-0.000577875
-0.000580144
-0.000582197
-0.000583922
-0.000585211
-0.000586028
-0.000586377
-0.00058629
-0.000585837
-0.000585085
-0.000584155
-0.000583047
-0.000581792
-0.00058036
-0.000578712
-0.000576797
-0.000574601
-0.000572158
-0.000569552
-0.000566944
-0.000564496
-0.000562373
-0.000560736
-0.000559671
-0.000444405
-0.000445302
-0.000446432
-0.000447963
-0.000449713
-0.000451471
-0.000453171
-0.000454771
-0.000456208
-0.000457411
-0.000458272
-0.00045877
-0.000458903
-0.000458714
-0.000458287
-0.000457725
-0.000457098
-0.000456424
-0.000455671
-0.00045479
-0.000453716
-0.000452393
-0.00045081
-0.000449001
-0.000447047
-0.000445079
-0.000443237
-0.000441634
-0.000440378
-0.000439512
-0.000319679
-0.000320457
-0.000321404
-0.000322548
-0.000323738
-0.000324846
-0.000325901
-0.000326917
-0.000327865
-0.00032868
-0.000329274
-0.000329582
-0.000329617
-0.00032943
-0.000329118
-0.000328764
-0.000328412
-0.000328056
-0.000327645
-0.000327121
-0.000326441
-0.000325556
-0.000324477
-0.000323218
-0.000321852
-0.000320469
-0.000319179
-0.000318028
-0.000317081
-0.000316392
-0.000192781
-0.000193329
-0.000194002
-0.000194681
-0.000195337
-0.000195895
-0.000196431
-0.000196965
-0.000197489
-0.000197972
-0.000198323
-0.000198467
-0.000198458
-0.000198336
-0.000198161
-0.000197991
-0.000197839
-0.000197693
-0.000197503
-0.000197237
-0.000196877
-0.000196355
-0.000195739
-0.000194995
-0.000194184
-0.000193359
-0.000192595
-0.000191876
-0.000191253
-0.000190768
-6.42953e-05
-6.44953e-05
-6.47647e-05
-6.49944e-05
-6.52067e-05
-6.53754e-05
-6.55468e-05
-6.57167e-05
-6.592e-05
-6.60731e-05
-6.62128e-05
-6.62294e-05
-6.62074e-05
-6.6148e-05
-6.608e-05
-6.60212e-05
-6.59758e-05
-6.59412e-05
-6.58878e-05
-6.58122e-05
-6.57098e-05
-6.55403e-05
-6.53483e-05
-6.51109e-05
-6.48526e-05
-6.45896e-05
-6.43482e-05
-6.41043e-05
-6.38845e-05
-6.36928e-05
4899.53
4899.54
4899.54
4899.53
4899.53
4899.53
4899.53
4899.53
4899.52
4899.52
4899.52
4899.52
4899.52
4899.52
4899.52
4899.52
4899.52
4899.52