/*--------------------------------*- C++ -*----------------------------------*\
| =========                 |                                                 |
| \\      /  F ield         | OpenFOAM: The Open Source CFD Toolbox           |
|  \\    /   O peration     | Version:  2312                                  |
|   \\  /    A nd           | Website:  www.openfoam.com                      |
|    \\/     M anipulation  |                                                 |
\*---------------------------------------------------------------------------*/
FoamFile
{
    version     2.0;
    format      ascii;
    arch        "LSB;label=32;scalar=64";
    class       surfaceScalarField;
    location    "1.065074";
    object      phi;
}
// * * * * * * * * * * * * * * * * * * * * * * * * * * * * * * * * * * * * * //

dimensions      [0 3 -1 0 0 0 0];

oriented        oriented;

internalField   nonuniform List<scalar> 
263100
(
-1.80814e-09
3.61629e-09
-1.80814e-09
-3.7e-10
3.16863e-11
-1.4224e-09
-1.84104e-10
1.06229e-09
-1.20934e-09
7.29578e-11
8.75498e-10
-1.09431e-09
3.50357e-10
5.62524e-10
-8.01726e-10
7.64009e-10
1.23686e-10
-4.99128e-10
1.26325e-09
-2.77223e-10
-1.83836e-10
1.72372e-09
-5.25504e-10
1.0314e-10
1.99876e-09
-4.86724e-10
2.49673e-10
1.90791e-09
-1.63635e-10
2.92366e-10
1.47917e-09
2.98697e-10
1.67827e-10
7.93084e-10
8.32338e-10
-1.08504e-10
6.87035e-11
1.22525e-09
-4.63054e-10
-4.26315e-10
1.34291e-09
-8.09944e-10
-4.73089e-10
1.1735e-09
-1.0886e-09
-6.6274e-12
7.78544e-10
-1.20668e-09
8.70401e-10
2.44461e-10
-1.08299e-09
1.84743e-09
-1.59761e-10
-7.78647e-10
2.43456e-09
-2.87929e-10
-2.60499e-10
2.30159e-09
-3.65782e-11
2.08319e-10
1.29676e-09
5.54498e-10
4.89169e-10
-6.49217e-10
1.39661e-09
5.88274e-10
-3.19047e-09
2.0898e-09
4.90454e-10
-5.7081e-09
2.35212e-09
2.04618e-10
-7.31067e-09
1.83884e-09
-1.97005e-10
-7.08392e-09
5.06352e-10
-6.93648e-10
-4.46338e-09
-1.4087e-09
-1.1722e-09
1.47554e-09
-3.4891e-09
-2.41012e-09
9.70598e-09
-4.28992e-09
-3.90094e-09
2.77002e-08
-1.79549e-08
-1.97562e-10
4.05902e-09
-1.97562e-10
-4.25723e-10
5.19586e-10
-1.82381e-10
-5.38467e-10
1.4014e-09
-1.56428e-10
-6.13649e-10
1.19298e-09
-1.72749e-10
-5.47005e-10
6.99217e-10
-1.33787e-10
-3.70268e-10
1.22984e-10
-1.06514e-10
-3.83999e-11
-4.4947e-10
-9.01922e-11
4.07447e-10
-8.06776e-10
-9.53329e-11
8.99243e-10
-8.00058e-10
-1.09402e-10
1.37201e-09
-4.60965e-10
-1.06533e-10
1.7691e-09
1.44506e-11
-4.39907e-11
2.07487e-09
5.33024e-10
6.24868e-11
2.28672e-09
8.57791e-10
2.24745e-10
2.35859e-09
8.86567e-10
4.53906e-10
2.25529e-09
6.38632e-10
7.07878e-10
1.92855e-09
2.71819e-10
9.03421e-10
1.3796e-09
-1.21469e-10
9.85034e-10
7.43728e-10
-3.74028e-10
9.20435e-10
5.81157e-11
-2.32436e-10
7.00519e-10
-5.83621e-10
2.81781e-10
3.93885e-10
-1.16687e-09
1.0942e-09
1.14186e-10
-1.70011e-09
2.03475e-09
-3.41125e-11
-2.1183e-09
2.68119e-09
-1.02211e-10
-2.25171e-09
2.55672e-09
3.50214e-14
-2.14268e-09
1.49258e-09
3.08717e-10
-2.15922e-09
-3.48692e-10
9.433e-10
-2.4021e-09
-3.05236e-09
1.95834e-09
-2.53693e-10
-9.15827e-09
3.59242e-09
8.19931e-09
-1.84668e-08
5.79529e-09
3.21924e-08
3.76572e-09
3.25318e-10
3.44707e-09
3.25318e-10
-3.60982e-10
1.23836e-09
3.65628e-11
-7.36115e-10
1.85176e-09
-1.29851e-11
-1.05152e-09
1.62725e-09
-5.68987e-11
-1.29514e-09
1.11207e-09
-1.07217e-10
-1.38699e-09
4.90053e-10
-2.13239e-10
-1.26916e-09
-1.33709e-10
-3.71684e-10
-8.83102e-10
-6.19136e-10
-5.1196e-10
-1.93852e-10
-8.44741e-10
-5.82974e-10
7.88493e-10
-8.26584e-10
-5.55229e-10
1.91949e-09
-6.54725e-10
-4.00343e-10
3.02752e-09
-4.26357e-10
-8.71136e-11
3.83385e-09
-1.95545e-10
3.08652e-10
4.08455e-09
1.57499e-11
6.81888e-10
3.60393e-09
1.9487e-10
9.86233e-10
2.48875e-09
3.46122e-10
1.1028e-09
9.35598e-10
5.22013e-10
9.71649e-10
-7.12693e-10
7.3577e-10
6.00526e-10
-1.96648e-09
1.01995e-09
6.34982e-11
-2.57853e-09
1.32877e-09
-3.72769e-10
-2.34635e-09
1.70181e-09
-7.77515e-10
-1.26451e-09
1.99796e-09
-9.82644e-10
3.52218e-10
2.04715e-09
-9.20167e-10
2.13715e-09
1.49051e-09
-6.56086e-10
3.72399e-09
3.87496e-10
-4.19027e-10
4.62066e-09
-8.85709e-10
-2.96866e-10
2.97559e-09
-1.67688e-09
3.32369e-10
-2.14469e-09
-6.03808e-09
2.06278e-09
-1.85134e-09
-2.46992e-08
6.0016e-09
1.98992e-08
1.04936e-08
5.82111e-10
2.32049e-09
5.82111e-10
-1.02013e-10
1.63443e-09
3.55511e-10
-5.51924e-10
2.07099e-09
2.91605e-10
-9.59808e-10
1.90594e-09
1.89875e-10
-1.35656e-09
1.53226e-09
3.72642e-11
-1.68228e-09
1.00045e-09
-1.24065e-10
-1.80959e-09
3.83713e-10
-3.29622e-10
-1.64229e-09
-2.06134e-10
-5.19954e-10
-1.08133e-09
-7.0837e-10
-6.37077e-10
-1.38282e-10
-1.0722e-09
-6.37235e-10
1.05477e-09
-1.28131e-09
-5.06277e-10
2.23994e-09
-1.28852e-09
-2.62847e-10
3.09648e-09
-1.03943e-09
4.74923e-11
3.36661e-09
-4.63127e-10
2.68838e-10
2.91831e-09
3.40791e-10
3.62377e-10
1.81758e-09
1.23477e-09
2.72023e-10
3.16918e-10
2.06948e-09
1.31066e-11
-1.19123e-09
2.63064e-09
-3.2677e-10
-2.18948e-09
2.79044e-09
-7.1221e-10
-2.31434e-09
2.55371e-09
-1.03993e-09
-1.36925e-09
2.05182e-09
-1.23481e-09
4.6875e-10
1.49528e-09
-1.27496e-09
2.81215e-09
8.81074e-10
-1.11692e-09
4.9611e-09
2.59527e-10
-8.57602e-10
6.3662e-09
-4.18713e-10
-5.386e-10
7.33806e-09
-1.19532e-09
-6.02036e-10
8.72181e-09
-9.45864e-10
-2.05455e-09
3.79651e-09
1.93563e-09
-2.98812e-09
-6.60854e-09
-1.20847e-08
-2.14905e-09
1.04813e-08
2.85925e-09
8.04647e-10
7.4809e-10
8.04647e-10
2.49015e-10
1.57919e-09
6.76686e-10
4.57459e-12
1.75694e-09
6.18003e-10
-2.88952e-10
1.71964e-09
5.39027e-10
-6.75815e-10
1.58219e-09
3.96051e-10
-1.08555e-09
1.26191e-09
2.0724e-10
-1.4378e-09
7.61481e-10
3.33081e-11
-1.62901e-09
1.53528e-10
-1.09729e-10
-1.56582e-09
-4.62995e-10
-2.49875e-10
-1.22554e-09
-1.04728e-09
-3.06533e-10
-6.82651e-10
-1.46839e-09
-2.97201e-10
-7.47874e-11
-1.58672e-09
-2.51149e-10
4.34202e-10
-1.26816e-09
-2.21888e-10
7.34464e-10
-4.45064e-10
-2.60133e-10
7.25719e-10
7.90705e-10
-3.83159e-10
3.88542e-10
2.18774e-09
-5.5789e-10
-1.44381e-10
3.38754e-09
-7.27223e-10
-6.23173e-10
4.01394e-09
-8.46496e-10
-7.24268e-10
3.87651e-09
-9.26804e-10
-2.21023e-10
3.07874e-09
-9.69926e-10
8.88512e-10
1.96867e-09
-9.67894e-10
2.53948e-09
8.35649e-10
-9.32789e-10
4.29378e-09
5.87463e-11
-8.73496e-10
5.70743e-09
-2.81709e-10
-8.14109e-10
6.20009e-09
-1.20398e-10
-7.3285e-10
5.47714e-09
9.71738e-11
-5.11512e-10
4.9943e-09
3.3408e-10
-7.39015e-10
3.59383e-09
5.24123e-09
-1.84688e-09
-4.11502e-09
-1.14177e-09
-3.17569e-09
7.815e-09
-1.40073e-09
7.59052e-10
-7.34025e-10
7.59052e-10
7.1862e-10
9.26416e-10
7.56751e-10
8.465e-10
9.45239e-10
7.41244e-10
8.758e-10
1.04473e-09
7.02616e-10
7.1997e-10
1.16413e-09
6.30709e-10
3.87288e-10
1.1196e-09
5.31641e-10
-1.00029e-10
8.71902e-10
4.33438e-10
-7.05953e-10
4.46222e-10
3.6975e-10
-1.3797e-09
-5.05659e-11
3.1789e-10
-2.03556e-09
-5.85753e-10
2.50888e-10
-2.54668e-09
-9.91044e-10
9.02761e-11
-2.86428e-09
-1.14433e-09
-6.84633e-11
-2.86187e-09
-8.84515e-10
-3.29958e-10
-2.50729e-09
-1.56882e-10
-5.86875e-10
-1.85721e-09
9.76326e-10
-7.79994e-10
-1.01433e-09
2.28778e-09
-8.87282e-10
-9.90876e-11
3.36414e-09
-8.36121e-10
7.70353e-10
3.86363e-09
-6.63211e-10
1.60249e-09
3.54675e-09
-4.46249e-10
2.38447e-09
2.58979e-09
-2.36728e-10
3.13622e-09
1.38492e-09
-1.11607e-10
3.79981e-09
3.43578e-10
-1.15135e-10
4.31265e-09
-1.69699e-10
-2.28144e-10
4.49255e-09
3.46934e-11
-4.40228e-10
4.22258e-09
1.04936e-09
-8.43839e-10
2.76979e-09
2.77251e-09
-1.16665e-09
6.35772e-10
3.8142e-09
-1.29019e-09
1.1334e-10
8.35554e-09
-2.53597e-09
-3.20326e-09
6.37315e-09
-4.14252e-09
7.60013e-09
-2.94274e-09
2.81188e-10
-1.2617e-09
2.81188e-10
1.00884e-09
-1.06267e-10
3.65324e-10
1.66347e-09
-2.17933e-11
3.66838e-10
2.21349e-09
1.78434e-10
3.70235e-10
2.51561e-09
5.03209e-10
4.12582e-10
2.46031e-09
7.75593e-10
4.53004e-10
1.9713e-09
8.99247e-10
5.15389e-10
1.00205e-09
8.98144e-10
5.71134e-10
-3.59543e-10
7.61556e-10
6.03396e-10
-1.96375e-09
5.26966e-10
5.45403e-10
-3.57028e-09
2.88043e-10
3.81246e-10
-4.78199e-09
7.92473e-11
4.16976e-11
-5.28131e-09
-2.37459e-11
-3.08144e-10
-4.9186e-09
1.21116e-10
-5.87599e-10
-3.7419e-09
5.69817e-10
-7.17201e-10
-1.97447e-09
1.20671e-09
-6.3336e-10
2.35776e-11
1.78015e-09
-3.6093e-10
1.85841e-09
2.01921e-09
6.28788e-11
3.26723e-09
1.80951e-09
3.81848e-10
4.07256e-09
1.16831e-09
6.69653e-10
4.23013e-09
3.99121e-10
8.81717e-10
3.84706e-09
-1.01104e-10
8.81182e-10
3.07473e-09
-3.5447e-11
6.9144e-10
1.95003e-09
8.38741e-10
3.73991e-10
7.05193e-10
2.43962e-09
-9.20768e-11
-6.28921e-10
4.96096e-09
-8.01038e-10
-2.53687e-09
7.19369e-09
-1.41841e-09
-1.9555e-09
9.94393e-09
-2.11692e-09
-2.4244e-09
9.43835e-09
-2.54377e-09
6.71571e-09
-1.49715e-09
-6.64404e-10
9.99337e-11
-6.64404e-10
8.96264e-10
-1.27445e-09
-3.36558e-10
2.17664e-09
-9.16392e-10
-3.35288e-10
3.32861e-09
-5.92633e-10
-3.30773e-10
4.19428e-09
-7.98373e-11
-2.32521e-10
4.55047e-09
5.29284e-10
-5.97053e-11
4.22182e-09
1.14852e-09
1.29744e-10
3.1226e-09
1.72774e-09
3.20121e-10
1.34981e-09
2.15444e-09
4.30515e-10
-8.52107e-10
2.36538e-09
4.14031e-10
-3.07656e-09
2.2763e-09
2.8653e-10
-4.82221e-09
1.79981e-09
7.51335e-11
-5.74182e-09
1.05065e-09
-1.0498e-10
-5.56769e-09
2.64322e-10
-2.67652e-10
-4.37441e-09
-3.46065e-10
-2.27774e-10
-2.43602e-09
-7.09231e-10
2.72162e-11
-1.73075e-10
-7.45045e-10
3.11982e-10
1.8743e-09
-6.82904e-10
7.04508e-10
3.31027e-09
-6.7052e-10
1.09381e-09
3.89005e-09
-8.02158e-10
1.44037e-09
3.6433e-09
-9.17092e-10
1.6126e-09
2.7653e-09
-7.65684e-10
1.59224e-09
1.4248e-09
-7.64485e-11
1.43128e-09
-2.17523e-10
1.34007e-09
1.19094e-09
-1.91361e-09
3.34214e-09
8.43568e-10
-2.98808e-09
5.76046e-09
3.24822e-10
-3.64118e-09
7.93724e-09
-4.09399e-11
-2.45344e-09
8.96154e-09
-1.56263e-10
-8.923e-10
7.84821e-09
7.78164e-11
4.70026e-09
1.163e-09
-1.50504e-09
3.1403e-09
-1.50504e-09
6.88314e-10
-2.21094e-09
-1.20622e-09
2.43706e-09
-1.44588e-09
-1.17342e-09
4.02225e-09
-1.10493e-09
-1.02722e-09
5.25294e-09
-4.72734e-10
-7.91912e-10
5.91577e-09
4.12162e-10
-4.99628e-10
5.79698e-09
1.53197e-09
-2.18299e-10
4.82483e-09
2.75398e-09
-7.66797e-12
3.14548e-09
3.76325e-09
1.16935e-10
1.00514e-09
4.35322e-09
1.98683e-10
-1.16581e-09
4.26637e-09
2.26782e-10
-2.95189e-09
3.40754e-09
2.23995e-10
-4.04305e-09
1.89291e-09
2.94403e-10
-4.31169e-09
1.40328e-10
4.38138e-10
-3.78546e-09
-1.42474e-09
5.97946e-10
-2.65884e-09
-2.57569e-09
7.85355e-10
-1.24735e-09
-3.17497e-09
1.06392e-09
6.89516e-11
-3.28763e-09
1.3338e-09
1.06955e-09
-3.12289e-09
1.49704e-09
1.58287e-09
-2.80346e-09
1.53318e-09
1.51498e-09
-2.28768e-09
1.48371e-09
8.77568e-10
-1.49802e-09
1.41515e-09
-1.41448e-10
-3.54379e-10
1.34261e-09
-1.33338e-09
1.33749e-09
1.24035e-09
-2.46967e-09
3.4087e-09
1.11554e-09
-2.91865e-09
5.2235e-09
1.03146e-09
-2.38845e-09
6.27949e-09
1.17272e-09
-7.06882e-10
5.69827e-09
1.62657e-09
6.64319e-10
4.14799e-09
2.37375e-09
2.7972e-09
2.60381e-09
-1.76901e-09
6.70557e-09
-1.76901e-09
6.60317e-10
-3.2705e-09
-1.32493e-09
2.49625e-09
-2.09658e-09
-1.14448e-09
4.08672e-09
-1.79203e-09
-8.62567e-10
5.24609e-09
-1.05518e-09
-5.3577e-10
5.83534e-09
1.00114e-10
-2.35819e-10
5.75497e-09
1.64588e-09
8.02181e-12
5.12235e-09
3.28675e-09
1.41315e-10
4.03926e-09
4.69267e-09
1.94939e-10
2.69496e-09
5.4516e-09
2.86888e-10
1.29556e-09
5.2657e-09
4.40799e-10
1.79003e-11
4.061e-09
6.64796e-10
-1.08014e-09
2.10058e-09
9.31001e-10
-1.9996e-09
-1.21978e-10
1.22251e-09
-2.69469e-09
-2.1446e-09
1.45573e-09
-3.15096e-09
-3.65808e-09
1.57937e-09
-3.28798e-09
-4.49283e-09
1.49545e-09
-3.03497e-09
-4.74064e-09
1.24048e-09
-2.51033e-09
-4.53425e-09
9.27118e-10
-1.92333e-09
-4.00983e-09
6.59815e-10
-1.44537e-09
-3.20802e-09
4.82982e-10
-1.21632e-09
-2.08508e-09
3.98833e-10
-1.28801e-09
-6.03259e-10
3.61548e-10
-1.46045e-09
1.16983e-09
3.81068e-10
-1.45838e-09
2.96574e-09
4.81626e-10
-8.82919e-10
3.98135e-09
7.07138e-10
3.00492e-10
3.90829e-09
1.22803e-09
1.342e-09
2.9214e-09
1.77543e-09
1.18835e-09
2.3766e-09
1.96486e-09
2.87935e-09
1.13832e-09
-7.15471e-10
8.16044e-09
-7.15471e-10
1.03888e-09
-4.84942e-09
-1.36445e-10
2.10814e-09
-3.24603e-09
1.15783e-10
2.87129e-09
-2.81679e-09
2.9732e-10
3.28856e-09
-1.93798e-09
5.01573e-10
3.35198e-09
-5.61491e-10
6.34399e-10
3.22156e-09
1.18449e-09
6.28014e-10
3.08472e-09
2.96487e-09
4.94658e-10
3.05414e-09
4.37031e-09
3.88608e-10
3.0696e-09
5.1065e-09
3.65075e-10
2.97239e-09
4.86519e-09
5.33024e-10
2.53161e-09
3.7053e-09
8.31809e-10
1.55619e-09
1.97168e-09
1.1398e-09
-5.92821e-11
2.44853e-10
1.28422e-09
-1.96829e-09
-1.48578e-09
1.28571e-09
-3.88937e-09
-2.72142e-09
1.0198e-09
-5.36646e-09
-3.51181e-09
5.31318e-10
-6.05462e-09
-3.95195e-09
-6.5333e-11
-5.95186e-09
-4.15403e-09
-4.47716e-10
-5.16018e-09
-4.00636e-09
-7.59773e-10
-3.99626e-09
-3.40429e-09
-9.32147e-10
-2.80204e-09
-2.35542e-09
-8.88329e-10
-1.79016e-09
-8.38828e-10
-7.4085e-10
-8.39732e-10
7.89579e-10
-5.34955e-10
1.90477e-10
2.17375e-09
-2.0326e-10
1.3355e-09
2.71445e-09
1.56695e-10
2.15302e-09
2.64149e-09
4.83992e-10
1.89954e-09
2.64387e-09
5.6549e-10
6.98899e-10
3.59708e-09
1.42331e-11
4.10237e-09
-4.96805e-10
1.29591e-09
5.58925e-09
1.29591e-09
1.1191e-09
-6.20183e-09
1.56254e-09
5.69573e-10
-4.56731e-09
1.9013e-09
-2.15536e-10
-3.89482e-09
1.89374e-09
-1.06644e-09
-2.81512e-09
1.75887e-09
-1.67612e-09
-1.27361e-09
1.35264e-09
-1.78586e-09
5.35791e-10
7.89089e-10
-1.14095e-09
2.08704e-09
2.63271e-10
1.2317e-10
3.26075e-09
-1.24419e-10
1.65142e-09
3.8428e-09
-2.34544e-10
2.95298e-09
3.77284e-09
-1.79227e-10
3.4074e-09
3.33286e-09
-5.19402e-11
2.69917e-09
2.67309e-09
3.68923e-11
9.9293e-10
2.01099e-09
-2.99085e-11
-1.50534e-09
1.32684e-09
-2.84574e-10
-4.15098e-09
6.94711e-10
-7.40921e-10
-6.28512e-09
-7.94966e-11
-1.26869e-09
-7.36947e-09
-1.10083e-09
-1.73723e-09
-7.29686e-09
-2.08398e-09
-2.11302e-09
-6.2745e-09
-2.8068e-09
-2.19221e-09
-4.72054e-09
-2.93589e-09
-1.9927e-09
-3.00141e-09
-2.39936e-09
-1.64568e-09
-1.32716e-09
-1.2611e-09
-1.22269e-09
2.48008e-10
2.74523e-11
-7.8398e-10
1.73091e-09
1.07396e-09
-3.54122e-10
2.74623e-09
1.7222e-09
5.88198e-12
2.82133e-09
2.43456e-09
1.60623e-10
1.79399e-09
3.75536e-09
-5.56399e-11
6.84952e-10
5.1265e-09
-3.92092e-10
4.73148e-09
7.86367e-11
3.36533e-09
-1.12388e-09
3.36533e-09
3.58956e-10
-6.22854e-09
3.06101e-09
-2.26664e-09
-4.71853e-09
2.80241e-09
-4.67051e-09
-3.64015e-09
2.17477e-09
-6.64387e-09
-2.22736e-09
1.41119e-09
-7.73215e-09
-6.37293e-10
4.77397e-10
-7.56684e-09
7.33759e-10
-3.38113e-10
-6.12666e-09
1.65937e-09
-9.87558e-10
-3.6364e-09
2.25872e-09
-1.46338e-09
-7.33788e-10
2.55681e-09
-1.59182e-09
1.67615e-09
2.91518e-09
-1.52754e-09
2.91239e-09
3.58105e-09
-1.45981e-09
2.70599e-09
4.41713e-09
-1.51325e-09
1.25161e-09
5.26411e-09
-1.77467e-09
-9.68001e-10
5.7594e-09
-2.18921e-09
-3.24814e-09
5.59879e-09
-2.60039e-09
-4.96746e-09
4.56159e-09
-2.89823e-09
-5.78549e-09
2.75075e-09
-3.00994e-09
-5.5912e-09
6.35491e-10
-2.8901e-09
-4.70263e-09
-1.11209e-09
-2.5597e-09
-3.44144e-09
-2.10588e-09
-2.06778e-09
-1.96678e-09
-2.2846e-09
-1.56617e-09
-3.83376e-10
-1.7256e-09
-1.09574e-09
1.19555e-09
-8.74227e-10
-6.54057e-10
2.51554e-09
3.25158e-11
-2.55299e-10
3.17384e-09
1.05379e-09
3.32749e-11
2.92002e-09
2.52725e-09
1.84044e-10
2.11575e-09
4.28889e-09
2.93588e-10
1.50127e-09
5.03968e-09
7.24412e-10
4.80657e-09
1.44485e-09
3.71742e-09
-8.54409e-09
3.71742e-09
-1.71547e-09
-2.78754e-09
2.01449e-09
-5.93216e-09
-1.77684e-09
1.29567e-09
-9.2052e-09
-5.93986e-10
2.47361e-10
-1.15397e-08
6.98116e-10
-5.70662e-10
-1.24085e-08
1.6001e-09
-1.3486e-09
-1.16461e-08
2.05824e-09
-2.06707e-09
-9.31217e-09
1.79321e-09
-2.44805e-09
-5.97584e-09
1.4222e-09
-2.48007e-09
-2.50876e-09
1.46225e-09
-2.35289e-09
2.09613e-10
2.39507e-09
-2.17882e-09
1.86045e-09
4.09992e-09
-2.15061e-09
2.18754e-09
6.43577e-09
-2.32708e-09
1.54433e-09
8.5202e-09
-2.59466e-09
3.98194e-10
9.72617e-09
-2.80273e-09
-7.57028e-10
9.6664e-09
-2.89463e-09
-1.58042e-09
8.21537e-09
-2.81263e-09
-1.97022e-09
5.65863e-09
-2.50034e-09
-2.05035e-09
2.77786e-09
-2.04461e-09
-1.89604e-09
3.29266e-10
-1.57818e-09
-1.58201e-09
-1.16883e-09
-1.23368e-09
-1.00823e-09
-1.83405e-09
-1.00689e-09
-8.25644e-11
-1.75167e-09
-8.82032e-10
1.06294e-09
-1.19345e-09
-8.08619e-10
2.06705e-09
-2.42311e-10
-7.11701e-10
2.52716e-09
1.21424e-09
-6.03218e-10
2.51326e-09
3.0068e-09
-4.48388e-10
2.41351e-09
4.37883e-09
2.73345e-11
1.69147e-09
5.04886e-09
7.30719e-10
6.29347e-09
2.18637e-10
1.40511e-09
-1.13425e-08
1.40511e-09
-4.56618e-09
3.73046e-09
-5.29615e-10
-8.77956e-09
3.6072e-09
-1.15508e-09
-1.17123e-08
4.28768e-09
-1.93371e-09
-1.33332e-08
4.85513e-09
-2.5212e-09
-1.33969e-08
4.44824e-09
-2.76969e-09
-1.17762e-08
3.12692e-09
-2.6749e-09
-9.01636e-09
1.42523e-09
-2.37722e-09
-5.84262e-09
1.93448e-10
-1.93041e-09
-2.94534e-09
1.62102e-10
-1.58272e-09
-7.25671e-10
1.55699e-09
-1.36754e-09
6.74776e-10
4.14863e-09
-1.43557e-09
1.50667e-09
7.27374e-09
-1.65675e-09
1.97754e-09
9.90629e-09
-1.84422e-09
2.27115e-09
1.12761e-08
-1.8311e-09
2.47036e-09
1.10854e-08
-1.60589e-09
2.4833e-09
9.36741e-09
-1.15282e-09
2.13434e-09
6.62792e-09
-6.08362e-10
1.40716e-09
3.74026e-09
-2.2346e-10
3.95352e-10
1.42339e-09
-7.05977e-11
-5.19017e-10
-8.73221e-11
-1.55336e-10
-9.80032e-10
-8.49942e-10
-5.11145e-10
-8.08094e-10
-1.0012e-09
-9.10398e-10
-1.77394e-10
-5.86825e-10
-1.22547e-09
5.58268e-10
4.70128e-10
-1.43655e-09
1.03863e-09
2.26396e-09
-1.51868e-09
1.28127e-09
4.17707e-09
-1.40129e-09
1.1039e-09
5.69325e-09
-1.12518e-09
5.36905e-11
7.44044e-09
-1.32962e-09
8.57072e-09
-2.21479e-09
-1.50593e-09
-8.32188e-09
-1.50593e-09
-6.22784e-09
1.14866e-08
-3.0228e-09
-9.11201e-09
9.67302e-09
-3.17128e-09
-1.0709e-08
9.1938e-09
-3.29918e-09
-1.09498e-08
8.10084e-09
-2.99517e-09
-9.88755e-09
5.87417e-09
-2.47875e-09
-7.99615e-09
2.99353e-09
-1.74859e-09
-5.90754e-09
3.4037e-10
-9.94345e-10
-4.04742e-09
-1.28533e-09
-3.72091e-10
-2.65941e-09
-1.13374e-09
-8.32161e-11
-1.72594e-09
8.10217e-10
-1.78153e-10
-7.41731e-10
3.66875e-09
-4.96214e-10
5.43112e-10
6.85227e-09
-8.55613e-10
2.11094e-09
9.29922e-09
-9.53281e-10
3.68774e-09
1.04631e-08
-7.56523e-10
4.87222e-09
1.01813e-08
-2.73506e-10
5.31255e-09
8.66928e-09
2.64337e-10
4.71147e-09
6.54446e-09
6.90814e-10
3.21173e-09
4.43256e-09
8.13637e-10
1.34047e-09
2.70557e-09
5.9536e-10
-2.25832e-10
1.39963e-09
8.5753e-11
-1.14051e-09
4.00479e-10
-3.29392e-10
-1.35843e-09
-1.33235e-10
-6.43974e-10
-1.16564e-09
3.94513e-11
-8.1341e-10
-9.98892e-10
1.23882e-09
-9.30032e-10
-9.27281e-10
3.21319e-09
-1.01529e-09
-9.62509e-10
5.25058e-09
-1.03247e-09
-1.40426e-09
7.46036e-09
-1.31967e-09
-1.74284e-09
9.73573e-09
-1.95148e-09
8.29187e-09
-1.4604e-09
-3.64092e-09
-1.03435e-09
-3.64092e-09
-5.67581e-09
1.73597e-08
-3.83243e-09
-6.59843e-09
1.39416e-08
-3.34067e-09
-6.48887e-09
1.20072e-08
-2.91807e-09
-5.50005e-09
9.26043e-09
-2.14382e-09
-4.09965e-09
5.72079e-09
-1.24264e-09
-2.85062e-09
2.14788e-09
-3.99158e-10
-2.22957e-09
-4.2886e-10
1.52145e-10
-2.2462e-09
-1.66146e-09
3.96372e-10
-2.61147e-09
-9.32845e-10
1.67587e-10
-2.6876e-09
1.23357e-09
-3.44386e-10
-1.94768e-09
3.82456e-09
-8.9315e-10
-2.67393e-10
6.28261e-09
-1.10825e-09
1.99056e-09
8.05165e-09
-1.00826e-09
4.20369e-09
8.83998e-09
-5.88283e-10
5.68079e-09
8.73432e-09
-2.87563e-11
6.01295e-09
7.96509e-09
3.73036e-10
5.15922e-09
6.86599e-09
5.33125e-10
3.55592e-09
5.59318e-09
4.43722e-10
1.83702e-09
4.21345e-09
2.1216e-10
5.42752e-10
2.68978e-09
5.11792e-12
-1.72913e-10
1.12882e-09
-1.21027e-11
-5.71308e-10
8.91079e-11
1.76107e-10
-1.11362e-09
1.06606e-10
4.74875e-10
-1.79383e-09
1.31638e-09
6.02401e-10
-2.38025e-09
3.16332e-09
6.36245e-10
-2.78305e-09
5.15254e-09
5.00681e-10
-2.84719e-09
7.26469e-09
2.5932e-10
-1.5437e-09
8.02835e-09
4.03267e-10
4.92089e-09
1.82626e-09
-3.60161e-09
6.17149e-09
-3.60161e-09
-3.25249e-09
1.9913e-08
-2.90208e-09
-2.65855e-09
1.58308e-08
-2.48293e-09
-1.60907e-09
1.29245e-08
-1.96676e-09
-3.66003e-10
9.34902e-09
-1.33204e-09
5.68587e-10
5.48832e-09
-7.0288e-10
7.69625e-10
2.28177e-09
-3.36116e-10
3.81933e-11
5.17085e-10
-2.16225e-10
-1.29973e-09
1.49693e-10
-4.75449e-10
-2.48218e-09
1.11621e-09
-8.69209e-10
-2.82569e-09
2.75977e-09
-1.18553e-09
-2.03242e-09
4.28344e-09
-1.2551e-09
-2.52293e-10
5.55652e-09
-1.05713e-09
1.96715e-09
6.38367e-09
-5.54807e-10
3.85141e-09
6.90626e-09
4.57191e-11
4.93047e-09
7.29877e-09
3.5242e-10
5.05573e-09
7.37173e-09
4.63936e-10
4.43491e-09
7.09228e-09
3.90503e-10
3.50922e-09
6.28377e-09
2.31192e-10
2.69484e-09
4.83698e-09
1.86754e-10
2.08529e-09
2.97078e-09
3.23936e-10
1.4451e-09
1.14141e-09
6.2239e-10
4.03129e-10
2.33156e-10
8.92337e-10
-9.72631e-10
5.24488e-10
9.52241e-10
-2.25535e-09
1.75637e-09
8.37162e-10
-2.93772e-09
3.09154e-09
7.48427e-10
-2.9107e-09
4.33566e-09
7.8372e-10
-1.88627e-09
5.0886e-09
1.14545e-09
-1.91949e-10
4.31099e-09
2.01712e-09
2.98809e-09
1.73524e-09
-2.68334e-09
1.15378e-08
-2.68334e-09
-9.5898e-10
2.01569e-08
-1.97312e-09
3.68842e-10
1.63444e-08
-1.84587e-09
1.58195e-09
1.32132e-08
-1.50666e-09
2.69601e-09
9.39646e-09
-1.16682e-09
3.14121e-09
5.90592e-09
-8.68698e-10
2.66375e-09
3.41537e-09
-6.62712e-10
1.49687e-09
2.22643e-09
-5.49716e-10
8.8572e-12
2.13727e-09
-5.07373e-10
-1.13846e-09
2.72047e-09
-4.65083e-10
-1.48746e-09
3.29865e-09
-1.98198e-10
-8.94635e-10
3.44634e-09
2.35867e-10
3.0081e-10
3.64377e-09
7.08683e-10
1.51626e-09
4.00651e-09
1.15274e-09
2.37959e-09
4.6244e-09
1.40924e-09
2.81665e-09
5.49523e-09
1.35702e-09
2.96607e-09
6.1421e-09
1.07084e-09
3.05679e-09
6.20264e-09
7.89664e-10
3.14353e-09
5.53456e-09
6.53036e-10
3.07925e-09
4.1685e-09
7.22814e-10
2.57325e-09
2.59541e-09
8.70814e-10
1.28601e-09
1.55583e-09
8.61932e-10
-5.56777e-10
1.59098e-09
4.74054e-10
-2.24034e-09
2.42791e-09
-2.30715e-10
-3.08989e-09
3.45428e-09
-8.59418e-10
-2.9122e-09
3.89098e-09
-9.88582e-10
-1.96005e-09
4.20962e-09
-8.3772e-10
-6.26885e-10
4.32844e-09
-5.84335e-10
-1.45804e-10
4.45634e-09
-6.37571e-10
4.9048e-09
-2.07244e-09
-1.82627e-09
1.51871e-08
-1.82627e-09
2.30891e-10
1.94313e-08
-1.34119e-09
1.8992e-09
1.59738e-08
-1.30658e-09
3.39218e-09
1.26778e-08
-9.66872e-10
4.50057e-09
8.83215e-09
-5.53979e-10
4.81348e-09
5.65623e-09
-7.38759e-11
4.30401e-09
3.62558e-09
2.8777e-10
3.22758e-09
2.72546e-09
5.65135e-10
1.99186e-09
2.50087e-09
8.59245e-10
1.10109e-09
2.34111e-09
1.25681e-09
6.2733e-10
1.9734e-09
1.78536e-09
3.35013e-10
1.32872e-09
2.39592e-09
4.34993e-12
1.15274e-09
2.80724e-09
-3.81959e-10
1.63581e-09
2.74212e-09
-6.10172e-10
2.6408e-09
2.19666e-09
-3.60607e-10
3.71493e-09
1.51552e-09
3.37426e-10
4.50383e-09
9.25045e-10
1.31968e-09
4.56725e-09
6.37786e-10
2.09022e-09
4.12649e-09
6.21773e-10
2.08943e-09
3.45902e-09
6.94033e-10
9.44902e-10
3.13824e-09
5.85287e-10
-9.49426e-10
3.43956e-09
-5.64943e-12
-2.85612e-09
4.39929e-09
-9.17674e-10
-3.79503e-09
4.89574e-09
-1.54503e-09
-3.33277e-09
4.53477e-09
-1.5591e-09
-2.13471e-09
4.04431e-09
-1.36772e-09
-1.00025e-09
4.34666e-09
-1.28736e-09
-5.33769e-10
5.36053e-09
-1.51407e-09
-9.7207e-10
7.34474e-09
-2.46555e-09
6.41768e-09
-2.49778e-09
-9.96051e-10
1.71733e-08
-9.96051e-10
1.44677e-09
1.73965e-08
-4.21364e-10
3.21221e-09
1.42942e-08
-9.82025e-11
4.76751e-09
1.06978e-08
4.11773e-10
5.73041e-09
6.95599e-09
8.996e-10
5.94816e-09
4.08661e-09
1.33727e-09
5.46123e-09
2.44432e-09
1.65256e-09
4.56577e-09
1.57842e-09
2.02592e-09
3.53597e-09
1.11305e-09
2.40016e-09
2.52512e-09
6.19659e-10
2.71408e-09
1.29164e-09
2.1879e-10
2.96912e-09
-3.17214e-10
7.8404e-11
2.83945e-09
-1.98033e-09
5.2429e-10
2.27113e-09
-3.20585e-09
1.42099e-09
1.41936e-09
-3.63367e-09
2.60996e-09
4.37406e-10
-2.91075e-09
3.13384e-09
-1.63212e-10
-1.43661e-09
3.3476e-09
-3.39482e-10
-1.94306e-11
3.42267e-09
-2.94494e-10
5.68495e-10
3.65822e-09
-1.41828e-10
-1.76874e-11
4.2624e-09
-2.3934e-10
-1.48454e-09
5.31223e-09
-7.28877e-10
-3.08479e-09
6.44077e-09
-1.42223e-09
-3.70301e-09
6.6331e-09
-1.63662e-09
-2.9944e-09
5.47983e-09
-1.31359e-09
-1.70138e-09
3.79423e-09
-5.72931e-10
-8.47687e-10
3.16914e-09
1.91205e-12
-5.80344e-10
3.99818e-09
6.24675e-11
-7.93415e-10
5.9529e-09
-3.97409e-10
-6.99972e-10
8.1593e-09
-9.25467e-10
5.92893e-09
-2.25173e-10
2.54181e-10
1.6657e-08
2.54181e-10
2.7434e-09
1.39789e-08
9.12754e-10
4.48871e-09
1.1224e-08
1.31039e-09
5.69787e-09
7.66355e-09
1.8099e-09
6.10255e-09
4.26408e-09
2.27098e-09
5.68887e-09
2.00421e-09
2.47863e-09
4.82321e-09
8.22929e-10
2.46831e-09
3.84106e-09
2.55165e-10
2.28539e-09
2.78349e-09
5.16316e-11
2.09769e-09
1.42726e-09
5.37414e-11
1.89958e-09
-3.75287e-10
4.08796e-10
1.5887e-09
-2.49687e-09
1.24704e-09
9.27906e-10
-4.41963e-09
2.38071e-09
4.0315e-11
-5.29999e-09
2.95541e-09
-6.80796e-10
-4.81524e-09
2.98758e-09
-8.89563e-10
-3.28452e-09
2.41188e-09
-8.36335e-10
-1.58434e-09
2.08738e-09
-4.67932e-10
-7.35224e-10
2.73627e-09
-1.90948e-10
-1.0038e-09
4.19379e-09
-2.95122e-10
-2.10304e-09
6.18027e-09
-8.46221e-10
-3.19746e-09
7.8645e-09
-1.48477e-09
-3.27318e-09
8.17527e-09
-1.68509e-09
-2.1422e-09
6.66615e-09
-1.18967e-09
-6.70296e-10
4.03666e-09
-5.32839e-11
3.12139e-11
2.41005e-09
6.59701e-10
-2.49421e-10
2.75449e-09
6.73996e-10
-6.88417e-10
4.04764e-09
3.69636e-10
-7.7092e-10
5.61378e-09
4.03192e-10
-8.35295e-11
6.89922e-09
5.55781e-10
5.60424e-09
2.27686e-10
1.30162e-09
1.40448e-08
1.30162e-09
3.63247e-09
9.58487e-09
2.04701e-09
4.98054e-09
7.40198e-09
2.45878e-09
5.36948e-09
4.57953e-09
2.67907e-09
4.77577e-09
2.25573e-09
2.58476e-09
3.60268e-09
9.69815e-10
2.1887e-09
2.45442e-09
2.86016e-10
1.66473e-09
1.46099e-09
1.52848e-11
1.21115e-09
4.8057e-10
8.72611e-11
9.20793e-10
-8.2279e-10
6.42116e-10
6.8911e-10
-2.54179e-09
1.7573e-09
3.42762e-10
-4.22253e-09
2.96357e-09
-6.52123e-11
-5.10372e-09
3.53332e-09
-3.0222e-10
-4.79314e-09
2.88817e-09
-2.75212e-10
-3.48853e-09
1.49653e-09
1.53691e-10
-1.984e-09
2.79103e-10
5.94737e-10
-1.27148e-09
2.76822e-10
1.06393e-09
-1.60992e-09
1.98996e-09
1.05046e-09
-2.67846e-09
4.85174e-09
3.76606e-10
-3.48955e-09
7.40732e-09
-4.49291e-10
-3.22455e-09
8.29905e-09
-7.32026e-10
-1.74127e-09
6.89018e-09
-2.29461e-10
1.29056e-11
4.19721e-09
6.85371e-10
5.83189e-10
2.16352e-09
1.27606e-09
-2.09689e-10
2.10026e-09
1.07871e-09
-1.26441e-09
3.47291e-09
3.15028e-10
-1.62917e-09
4.59384e-09
-1.99999e-10
-1.22341e-09
5.34816e-09
-1.55918e-10
-3.47798e-10
6.23468e-09
-2.24751e-10
5.04676e-09
1.99692e-10
2.13086e-09
9.77407e-09
2.13086e-09
3.63243e-09
5.53933e-09
2.52901e-09
4.26277e-09
4.1193e-09
2.63829e-09
3.76911e-09
2.56728e-09
2.49084e-09
2.48289e-09
1.45438e-09
2.07097e-09
1.08455e-09
7.91426e-10
1.55823e-09
-5.60032e-11
2.67821e-10
1.13809e-09
-8.78453e-10
-1.24643e-10
9.39411e-10
-1.67104e-09
-3.52023e-11
8.89591e-10
-2.72402e-09
8.39243e-10
8.27881e-10
-3.80738e-09
2.14856e-09
6.61696e-10
-4.40333e-09
3.00339e-09
5.23561e-10
-3.99922e-09
2.47041e-09
6.24345e-10
-2.70038e-09
5.49956e-10
1.00331e-09
-1.32609e-09
-1.51756e-09
1.60229e-09
-8.91104e-10
-2.23822e-09
2.04356e-09
-1.50436e-09
-9.37756e-10
1.78811e-09
-2.57939e-09
1.9729e-09
1.05194e-09
-3.25228e-09
5.21526e-09
2.69353e-10
-2.72688e-09
6.60152e-09
2.41038e-10
-9.81411e-10
5.71348e-09
8.02146e-10
7.71207e-10
3.36934e-09
1.73274e-09
1.08605e-09
1.26693e-09
2.58348e-09
-3.35374e-10
1.16646e-09
2.39068e-09
-1.98476e-09
2.30727e-09
1.41892e-09
-2.80555e-09
3.43001e-09
8.44807e-10
-2.80668e-09
4.01609e-09
5.64778e-10
-1.98341e-09
4.08643e-09
4.28482e-10
-2.30022e-11
3.39952e-09
8.67945e-10
2.39663e-09
2.62488e-09
2.24616e-09
5.27381e-09
2.24616e-09
2.96754e-09
2.28181e-09
2.52355e-09
2.93969e-09
1.63129e-09
2.50417e-09
1.95189e-09
1.30443e-09
2.23778e-09
4.50507e-10
1.11568e-09
1.82526e-09
-9.86597e-10
7.32176e-10
1.47912e-09
-2.04683e-09
2.12018e-11
1.28684e-09
-2.90417e-09
-5.24651e-10
1.23437e-09
-3.78937e-09
-3.06768e-10
1.1307e-09
-4.5836e-09
7.15915e-10
8.88468e-10
-4.81273e-09
1.78732e-09
5.58435e-10
-4.1399e-09
1.84318e-09
4.52877e-10
-2.58548e-09
1.97625e-10
6.81543e-10
-1.01429e-09
-2.17253e-09
1.11235e-09
-3.95094e-10
-3.58399e-09
1.40625e-09
-8.704e-10
-2.92844e-09
1.12269e-09
-1.72062e-09
-5.22798e-10
3.90885e-10
-1.99225e-09
2.30096e-09
-1.01787e-10
-9.76137e-10
3.99456e-09
1.58972e-10
1.02108e-09
3.61532e-09
9.44166e-10
2.7836e-09
1.73537e-09
2.17296e-09
2.92895e-09
1.30622e-10
3.05444e-09
1.15876e-09
8.36574e-11
2.91933e-09
-1.20947e-09
1.54719e-09
1.95893e-09
-2.59069e-09
2.1103e-09
1.5561e-09
-2.82952e-09
1.7133e-09
1.94058e-09
-2.8264e-09
2.14478e-09
1.86008e-09
-1.17915e-09
1.01198e-09
1.42503e-09
1.56096e-09
-2.37689e-09
3.03953e-09
-2.25397e-10
4.19036e-09
2.1364e-09
9.94877e-10
2.1364e-09
2.01661e-09
1.04149e-10
2.28685e-09
1.42226e-09
1.71788e-10
2.04427e-09
2.22248e-10
8.55421e-10
1.63796e-09
-1.23495e-09
1.36881e-09
1.19058e-09
-2.53028e-09
1.1441e-09
8.66854e-10
-3.67969e-09
4.83531e-10
6.67112e-10
-4.79311e-09
1.02411e-10
4.62797e-10
-5.74981e-09
4.61922e-10
1.60882e-10
-6.23511e-09
1.42917e-09
-2.58444e-10
-5.62895e-09
1.50607e-09
-3.5846e-10
-3.87546e-09
5.44743e-11
-1.01401e-12
-1.80184e-09
-2.41588e-09
5.01274e-10
-4.25074e-10
-4.49952e-09
9.09326e-10
-2.30396e-10
-4.77531e-09
9.53471e-10
-5.79284e-10
-3.25058e-09
6.25577e-10
-4.02944e-10
-1.14295e-09
3.96287e-10
9.5098e-10
2.75715e-10
6.22239e-10
3.17228e-09
3.65002e-10
1.35855e-09
5.06065e-09
-6.99274e-10
2.37727e-09
5.01733e-09
-1.08533e-09
2.81748e-09
3.30977e-09
-6.37012e-10
2.43261e-09
8.61823e-10
9.28051e-10
1.56634e-09
-9.02438e-10
2.52687e-09
7.543e-10
-1.28638e-09
1.66655e-09
8.05902e-10
-1.11977e-09
-1.5298e-11
1.54916e-09
-8.67627e-10
-3.56696e-11
1.92392e-09
3.69358e-10
-2.42702e-09
2.20583e-09
1.34114e-09
-5.92796e-09
2.59015e-09
1.1287e-09
-6.13645e-13
1.47455e-09
-1.9588e-09
1.47455e-09
6.6843e-10
-2.82835e-10
1.18122e-09
-3.35831e-10
5.31724e-10
6.33942e-10
-1.48758e-09
1.84234e-09
1.52633e-10
-2.54159e-09
2.53114e-09
-1.23519e-10
-3.59021e-09
2.40818e-09
-2.34435e-10
-4.76354e-09
1.90839e-09
-2.74731e-10
-6.06961e-09
1.73896e-09
-3.58029e-10
-6.98951e-09
1.9026e-09
-5.52453e-10
-6.73564e-09
1.57549e-09
-4.35508e-10
-5.14082e-09
-9.64065e-11
-3.05732e-11
-2.83011e-09
-2.95398e-09
6.57381e-10
-8.23605e-10
-5.74535e-09
1.281e-09
6.4703e-11
-7.15962e-09
1.7284e-09
2.28988e-10
-6.59614e-09
1.61163e-09