/*--------------------------------*- C++ -*----------------------------------*\
| =========                 |                                                 |
| \\      /  F ield         | OpenFOAM: The Open Source CFD Toolbox           |
|  \\    /   O peration     | Version:  2312                                  |
|   \\  /    A nd           | Website:  www.openfoam.com                      |
|    \\/     M anipulation  |                                                 |
\*---------------------------------------------------------------------------*/
FoamFile
{
    version     2.0;
    format      ascii;
    arch        "LSB;label=32;scalar=64";
    class       volVectorField;
    location    "1.065074";
    object      U;
}
// * * * * * * * * * * * * * * * * * * * * * * * * * * * * * * * * * * * * * //

dimensions      [0 1 -1 0 0 0 0];

internalField   nonuniform List<vector> 
90000
(
(-1.23549e-05 2.01033e-05 -1.23549e-05)
(-1.19909e-05 -8.25653e-08 -9.04825e-06)
(-8.00333e-07 6.66457e-06 -8.30432e-06)
(-8.99043e-07 5.455e-06 -8.79617e-06)
(1.80597e-06 3.80919e-06 -7.96164e-06)
(5.25877e-06 1.39454e-06 -6.92757e-06)
(9.95444e-06 -1.12221e-06 -5.63216e-06)
(1.50468e-05 -2.64495e-06 -4.11217e-06)
(1.90011e-05 -2.53424e-06 -2.64899e-06)
(2.00399e-05 -7.56303e-07 -1.82993e-06)
(1.73443e-05 2.20788e-06 -2.17218e-06)
(1.15257e-05 5.5437e-06 -3.37461e-06)
(4.07592e-06 8.17303e-06 -5.20331e-06)
(-2.46443e-06 9.19995e-06 -7.05318e-06)
(-5.52832e-06 8.46684e-06 -8.66728e-06)
(-3.28789e-06 6.3799e-06 -9.41671e-06)
(4.08536e-06 3.18365e-06 -8.70509e-06)
(1.38503e-05 5.57685e-08 -6.72023e-06)
(2.20596e-05 -1.62302e-06 -3.44066e-06)
(2.46261e-05 -7.27732e-07 -1.98856e-08)
(1.91263e-05 2.74608e-06 2.26045e-06)
(4.61931e-06 7.66342e-06 2.6869e-06)
(-1.84619e-05 1.20664e-05 1.0591e-06)
(-4.48806e-05 1.4484e-05 -2.93203e-06)
(-6.6379e-05 1.25469e-05 -8.00903e-06)
(-7.40015e-05 5.81063e-06 -1.33223e-05)
(-5.96703e-05 -4.83722e-06 -1.94442e-05)
(-2.86939e-05 -1.56345e-05 -3.48282e-05)
(6.94954e-05 -7.96526e-06 -6.95702e-05)
(7.5246e-05 0.000157604 -0.000151971)
(-5.36597e-07 4.12181e-05 -5.36598e-07)
(-2.91372e-06 2.74175e-06 -7.68863e-07)
(-5.1678e-06 1.37066e-05 -8.84149e-07)
(-5.8506e-06 1.14014e-05 -1.29039e-06)
(-5.91824e-06 6.89434e-06 -1.4284e-06)
(-4.69504e-06 1.11191e-06 -1.75351e-06)
(-2.15511e-06 -4.19753e-06 -2.1092e-06)
(1.73581e-06 -7.31149e-06 -2.46331e-06)
(6.45542e-06 -6.95571e-06 -2.69879e-06)
(1.13197e-05 -3.19615e-06 -2.65925e-06)
(1.56612e-05 2.63641e-06 -2.08498e-06)
(1.91851e-05 8.55814e-06 -9.95007e-07)
(2.18119e-05 1.26468e-05 6.15306e-07)
(2.32773e-05 1.35091e-05 2.74462e-06)
(2.31908e-05 1.11011e-05 5.05567e-06)
(2.11094e-05 6.02704e-06 6.8776e-06)
(1.67173e-05 8.22145e-08 7.77574e-06)
(1.07398e-05 -4.26026e-06 7.46927e-06)
(4.1123e-06 -4.83271e-06 5.84597e-06)
(-2.56838e-06 -7.71156e-08 3.49792e-06)
(-8.74075e-06 8.35591e-06 1.33522e-06)
(-1.4402e-05 1.82796e-05 -3.91394e-07)
(-1.93566e-05 2.61e-05 -1.15039e-06)
(-2.22677e-05 2.76952e-05 -4.73556e-07)
(-2.25643e-05 1.9842e-05 2.0078e-06)
(-2.09816e-05 2.47249e-06 7.75628e-06)
(-2.24353e-05 -2.39756e-05 1.86828e-05)
(-3.52868e-05 -6.78738e-05 3.68573e-05)
(4.47207e-05 -0.000105688 5.01697e-05)
(6.83425e-05 0.000320073 4.06277e-05)
(3.08583e-06 3.88653e-05 3.08583e-06)
(8.32259e-07 9.81611e-06 1.12586e-06)
(-6.01999e-06 1.70324e-05 7.35739e-07)
(-8.84589e-06 1.46394e-05 2.47361e-07)
(-1.15556e-05 9.01756e-06 -1.93495e-07)
(-1.33701e-05 2.32278e-06 -8.95004e-07)
(-1.33869e-05 -3.75857e-06 -2.06266e-06)
(-1.10572e-05 -7.8118e-06 -3.21389e-06)
(-5.83848e-06 -8.67252e-06 -3.97008e-06)
(2.45726e-06 -6.56674e-06 -4.08657e-06)
(1.3133e-05 -2.775e-06 -3.30943e-06)
(2.46404e-05 9.96058e-07 -1.31702e-06)
(3.45487e-05 3.6099e-06 1.62377e-06)
(4.01026e-05 4.25721e-06 4.56752e-06)
(3.90711e-05 3.09962e-06 7.1897e-06)
(3.10047e-05 8.93618e-07 8.72144e-06)
(1.74031e-05 -8.16084e-07 8.46392e-06)
(8.5105e-07 -7.855e-07 6.23795e-06)
(-1.41274e-05 1.90267e-06 2.93239e-06)
(-2.37066e-05 7.49769e-06 -1.2824e-06)
(-2.57987e-05 1.46212e-05 -4.47431e-06)
(-1.91768e-05 2.13512e-05 -5.69143e-06)
(-5.14608e-06 2.51554e-05 -5.08448e-06)
(1.24883e-05 2.13929e-05 -2.72108e-06)
(2.96806e-05 9.53189e-06 3.0961e-07)
(4.35421e-05 -7.77469e-06 2.32995e-06)
(4.27894e-05 -2.69599e-05 8.56164e-06)
(7.23104e-08 -8.74227e-05 2.31468e-05)
(-2.92045e-05 -0.000235537 6.00369e-05)
(-1.04078e-05 0.000264393 8.73623e-05)
(4.14864e-06 2.95375e-05 4.14864e-06)
(3.03565e-06 1.53766e-05 2.68155e-06)
(-3.97473e-06 2.04061e-05 2.47525e-06)
(-7.38041e-06 1.82654e-05 2.09544e-06)
(-1.12554e-05 1.35937e-05 1.44654e-06)
(-1.50517e-05 7.67309e-06 4.88052e-07)
(-1.7513e-05 1.28822e-06 -8.22157e-07)
(-1.75942e-05 -4.15822e-06 -2.15993e-06)
(-1.41742e-05 -7.85962e-06 -3.20841e-06)
(-6.67771e-06 -9.77484e-06 -3.64646e-06)
(4.15593e-06 -1.00392e-05 -3.21369e-06)
(1.63921e-05 -9.07864e-06 -1.98146e-06)
(2.70181e-05 -6.84034e-06 -2.54066e-08)
(3.29198e-05 -3.19393e-06 1.92554e-06)
(3.21072e-05 1.41179e-06 2.73166e-06)
(2.42289e-05 7.06517e-06 2.52e-06)
(1.08833e-05 1.25782e-05 1.14764e-06)
(-4.72557e-06 1.69146e-05 -1.24454e-06)
(-1.78575e-05 1.95143e-05 -3.80005e-06)
(-2.38304e-05 2.00728e-05 -5.80997e-06)
(-2.01643e-05 1.9465e-05 -6.96648e-06)
(-5.74784e-06 1.81345e-05 -6.95277e-06)
(1.62567e-05 1.50602e-05 -5.52515e-06)
(3.92745e-05 8.41037e-06 -2.61008e-06)
(5.74858e-05 -1.55753e-06 1.49049e-06)
(6.95753e-05 -1.22508e-05 2.66873e-06)
(8.25568e-05 -1.42291e-05 -6.54168e-06)
(7.94989e-05 -1.77841e-05 -1.21697e-05)
(-2.82849e-05 -0.000196966 -3.13084e-06)
(-6.28365e-05 0.000149018 3.21728e-05)
(4.6717e-06 1.58584e-05 4.6717e-06)
(6.12666e-06 1.69106e-05 4.06636e-06)
(1.55097e-06 1.97515e-05 4.10519e-06)
(-1.15798e-06 1.86608e-05 4.1139e-06)
(-4.49961e-06 1.60796e-05 3.77304e-06)
(-8.62202e-06 1.17769e-05 3.02952e-06)
(-1.26006e-05 6.00592e-06 2.24636e-06)
(-1.55371e-05 -1.66338e-07 1.31247e-06)
(-1.63575e-05 -6.00035e-06 2.23488e-07)
(-1.43146e-05 -1.11491e-05 -5.96868e-07)
(-9.79992e-06 -1.4666e-05 -1.18598e-06)
(-3.8857e-06 -1.54397e-05 -1.56055e-06)
(1.98287e-06 -1.26366e-05 -2.01037e-06)
(6.20929e-06 -5.44032e-06 -2.66224e-06)
(7.72235e-06 5.32446e-06 -3.62904e-06)
(5.92376e-06 1.75919e-05 -4.75322e-06)
(1.28674e-06 2.81902e-05 -5.57496e-06)
(-4.18577e-06 3.4476e-05 -6.08368e-06)
(-7.59298e-06 3.46795e-05 -6.36948e-06)
(-6.14598e-06 2.92892e-05 -6.27381e-06)
(2.20953e-06 2.0738e-05 -5.62133e-06)
(1.68606e-05 1.17101e-05 -4.6785e-06)
(3.43288e-05 3.57603e-06 -3.57189e-06)
(5.05741e-05 -2.15381e-06 -2.05245e-06)
(6.05187e-05 -5.33473e-06 1.97272e-07)
(5.94388e-05 -9.31027e-06 3.47261e-06)
(5.39757e-05 -7.76815e-06 1.06131e-06)
(5.71906e-05 4.31323e-05 -6.46764e-06)
(-1.07892e-05 -6.09676e-05 -1.40648e-05)
(-4.22219e-05 8.68066e-05 -5.20399e-06)
(3.49855e-06 -4.83425e-07 3.49855e-06)
(7.61013e-06 1.32092e-05 4.00974e-06)
(8.47235e-06 1.38015e-05 4.35439e-06)
(8.83699e-06 1.40746e-05 4.63351e-06)
(8.25219e-06 1.40147e-05 4.85184e-06)
(5.76625e-06 1.21806e-05 4.95103e-06)
(1.61031e-06 8.32095e-06 4.81392e-06)
(-3.86689e-06 2.95959e-06 4.69525e-06)
(-1.03322e-05 -3.20316e-06 4.40536e-06)
(-1.70934e-05 -9.23832e-06 3.6589e-06)
(-2.30174e-05 -1.37537e-05 2.17017e-06)
(-2.72498e-05 -1.5211e-05 -1.11399e-07)
(-2.89112e-05 -1.20058e-05 -2.7395e-06)
(-2.71628e-05 -3.55635e-06 -5.37756e-06)
(-2.20954e-05 9.3231e-06 -7.4787e-06)
(-1.4571e-05 2.375e-05 -8.78309e-06)
(-5.70172e-06 3.57339e-05 -8.6422e-06)
(3.24866e-06 4.15207e-05 -7.30647e-06)
(1.1738e-05 3.89321e-05 -5.29419e-06)
(1.98798e-05 2.94885e-05 -3.02075e-06)
(2.7663e-05 1.71859e-05 -1.13077e-06)
(3.48369e-05 5.51928e-06 9.04297e-08)
(4.08718e-05 -2.11181e-06 4.48493e-07)
(4.45008e-05 -3.26046e-06 -4.04942e-07)
(4.44089e-05 2.95822e-06 -2.75932e-06)
(3.63843e-05 1.22245e-05 -4.94783e-06)
(1.13432e-05 1.81042e-05 -6.04722e-06)
(9.25186e-06 6.89537e-05 -1.43207e-05)
(-1.536e-05 3.32755e-05 -2.37893e-05)
(-2.84834e-05 7.81238e-05 -1.8484e-05)
(-4.4855e-07 -1.2082e-05 -4.4855e-07)
(5.21348e-06 4.01446e-06 1.07501e-06)
(1.40341e-05 4.28239e-06 1.43925e-06)
(1.94768e-05 5.8827e-06 1.68274e-06)
(2.38259e-05 8.18218e-06 2.43718e-06)
(2.51649e-05 9.36807e-06 3.5392e-06)
(2.25442e-05 8.78089e-06 4.75839e-06)
(1.53329e-05 6.43332e-06 5.71721e-06)
(3.7146e-06 2.65215e-06 6.24352e-06)
(-1.12665e-05 -1.6366e-06 5.82621e-06)
(-2.76774e-05 -5.12315e-06 4.41237e-06)
(-4.21195e-05 -6.93698e-06 1.35701e-06)
(-5.09885e-05 -5.41536e-06 -2.14314e-06)
(-5.18198e-05 -1.94894e-07 -5.41046e-06)
(-4.40306e-05 8.62629e-06 -7.51237e-06)
(-2.90713e-05 1.89743e-05 -7.90527e-06)
(-9.84606e-06 2.75905e-05 -6.68832e-06)
(9.67147e-06 3.11947e-05 -3.92388e-06)
(2.60986e-05 2.82466e-05 -1.58774e-07)
(3.72882e-05 1.98525e-05 3.1028e-06)
(4.21088e-05 9.50153e-06 5.18726e-06)
(4.08858e-05 1.03824e-06 5.88032e-06)
(3.49999e-05 -1.41065e-06 5.25745e-06)
(2.54412e-05 4.02581e-06 3.38036e-06)
(1.35838e-05 1.76256e-05 -2.23572e-07)
(6.95865e-07 3.9892e-05 -5.2049e-06)
(-1.71785e-05 5.74673e-05 -9.77496e-06)
(-2.3942e-05 9.46904e-05 -1.50466e-05)
(-2.41718e-05 8.48016e-05 -1.85668e-05)
(-1.48244e-05 7.30337e-05 -1.26474e-05)
(-7.83986e-06 -1.00057e-05 -7.83986e-06)
(-1.79684e-06 -7.83718e-06 -5.48718e-06)
(1.67545e-05 -5.55805e-06 -5.07015e-06)
(2.74452e-05 -2.67943e-06 -4.55069e-06)
(3.77207e-05 1.69912e-06 -3.17259e-06)
(4.40623e-05 6.18089e-06 -1.31099e-06)
(4.44296e-05 1.01773e-05 1.0475e-06)
(3.74208e-05 1.30123e-05 3.27814e-06)
(2.30343e-05 1.43093e-05 4.74524e-06)
(2.95377e-06 1.39899e-05 5.00346e-06)
(-1.96399e-05 1.21875e-05 4.10801e-06)
(-4.00049e-05 8.86953e-06 2.24127e-06)
(-5.36853e-05 5.17504e-06 1.41222e-08)
(-5.75777e-05 2.45817e-06 -2.30016e-06)
(-5.06209e-05 1.93455e-06 -3.39122e-06)
(-3.4637e-05 3.45408e-06 -2.90837e-06)
(-1.32117e-05 5.85377e-06 -7.64217e-07)
(8.92741e-06 7.17066e-06 2.44593e-06)
(2.6847e-05 6.09121e-06 5.57923e-06)
(3.69584e-05 2.24965e-06 7.9406e-06)
(3.85157e-05 -2.19905e-06 9.46678e-06)
(3.27917e-05 -4.23198e-06 9.66832e-06)
(2.14407e-05 -8.11936e-08 8.63592e-06)
(6.17366e-06 1.16361e-05 6.77295e-06)
(-1.09561e-05 3.00991e-05 3.78254e-06)
(-2.52868e-05 5.55892e-05 -5.53395e-07)
(-3.43678e-05 7.89397e-05 -3.85589e-06)
(-3.24816e-05 9.78682e-05 -5.92542e-06)
(-1.57907e-05 9.02289e-05 -5.05761e-06)
(-2.3226e-06 5.79109e-05 4.25555e-06)
(-1.42992e-05 1.28214e-05 -1.42992e-05)
(-7.89204e-06 -1.8237e-05 -1.2446e-05)
(1.80903e-05 -1.24484e-05 -1.20697e-05)
(3.19937e-05 -8.8089e-06 -1.0709e-05)
(4.64632e-05 -2.84945e-06 -8.4411e-06)
(5.61961e-05 4.80203e-06 -5.56381e-06)
(5.91553e-05 1.3694e-05 -2.61894e-06)
(5.38231e-05 2.27706e-05 -4.60915e-08)
(4.05036e-05 3.00647e-05 2.00527e-06)
(2.11874e-05 3.42191e-05 3.34913e-06)
(-9.16306e-07 3.34288e-05 3.8948e-06)
(-2.11793e-05 2.68395e-05 3.82155e-06)
(-3.57183e-05 1.54999e-05 3.89203e-06)
(-4.25533e-05 2.74913e-06 4.16988e-06)
(-4.11294e-05 -8.75953e-06 4.48336e-06)
(-3.2643e-05 -1.67449e-05 5.15052e-06)
(-1.97116e-05 -2.03639e-05 6.56247e-06)
(-5.60175e-06 -2.07682e-05 8.00198e-06)
(6.40491e-06 -1.98014e-05 8.88545e-06)
(1.40494e-05 -1.86696e-05 8.95189e-06)
(1.62597e-05 -1.63178e-05 8.47042e-06)
(1.27312e-05 -1.12235e-05 7.76495e-06)
(4.12803e-06 -1.48026e-06 6.88287e-06)
(-7.38112e-06 1.44149e-05 5.78587e-06)
(-1.93831e-05 3.50168e-05 4.53633e-06)
(-2.78716e-05 5.64489e-05 3.59491e-06)
(-2.75948e-05 7.27803e-05 3.99966e-06)
(-1.66714e-05 7.45874e-05 6.83077e-06)
(3.11811e-06 6.00068e-05 1.15174e-05)
(7.63329e-06 3.60638e-05 1.41631e-05)
(-1.63637e-05 4.9832e-05 -1.63637e-05)
(-9.36558e-06 -2.75626e-05 -1.35578e-05)
(1.87859e-05 -1.76659e-05 -1.2361e-05)
(3.2558e-05 -1.43194e-05 -1.02602e-05)
(4.67974e-05 -7.24501e-06 -7.45675e-06)
(5.57328e-05 3.32142e-06 -4.60542e-06)
(5.83734e-05 1.66033e-05 -2.01178e-06)
(5.48153e-05 3.12382e-05 2.29641e-07)
(4.61848e-05 4.33778e-05 1.72032e-06)
(3.39402e-05 5.03925e-05 3.40287e-06)
(2.00932e-05 4.90719e-05 5.15587e-06)
(6.50639e-06 3.85317e-05 7.15558e-06)
(-5.50576e-06 2.06646e-05 9.2349e-06)
(-1.55398e-05 7.21638e-08 1.12148e-05)
(-2.3582e-05 -1.90535e-05 1.25943e-05)
(-2.94084e-05 -3.32682e-05 1.30657e-05)
(-3.24607e-05 -4.08772e-05 1.19468e-05)
(-3.19155e-05 -4.26114e-05 9.51325e-06)
(-2.79401e-05 -4.02678e-05 6.56717e-06)
(-2.22732e-05 -3.53315e-05 3.86851e-06)
(-1.6828e-05 -2.80683e-05 1.74583e-06)
(-1.3173e-05 -1.79615e-05 3.9056e-07)
(-1.23789e-05 -4.41335e-06 -5.95191e-07)
(-1.37225e-05 1.32696e-05 -7.50657e-07)
(-1.48807e-05 3.2696e-05 -8.31314e-08)
(-1.24524e-05 4.65409e-05 1.53704e-06)
(-3.1704e-06 5.06378e-05 5.0195e-06)
(9.03904e-06 4.06754e-05 8.75092e-06)
(1.4862e-05 2.84138e-05 1.06023e-05)
(7.86683e-06 2.62275e-05 6.09488e-06)
(-8.05704e-06 7.82074e-05 -8.05704e-06)
(-7.61406e-07 -4.04534e-05 -4.41076e-06)
(1.74136e-05 -2.63774e-05 -2.46754e-06)
(2.4755e-05 -2.28974e-05 -4.60853e-07)
(3.09097e-05 -1.47943e-05 1.76822e-06)
(3.3278e-05 -1.8372e-06 3.00655e-06)
(3.29164e-05 1.47497e-05 3.3194e-06)
(3.15227e-05 3.21605e-05 2.93815e-06)
(3.06764e-05 4.63348e-05 2.87349e-06)
(3.07044e-05 5.40512e-05 3.59853e-06)
(3.04674e-05 5.18359e-05 5.58557e-06)
(2.80134e-05 3.95343e-05 8.43183e-06)
(2.12051e-05 1.99645e-05 1.14172e-05)
(8.44949e-06 -2.29674e-06 1.31209e-05)
(-9.59e-06 -2.17349e-05 1.35671e-05)
(-2.93776e-05 -3.5834e-05 1.1904e-05)
(-4.67282e-05 -4.38434e-05 8.24468e-06)
(-5.78234e-05 -4.68046e-05 3.45312e-06)
(-6.07782e-05 -4.58677e-05 -1.56311e-06)
(-5.61146e-05 -4.15111e-05 -5.29725e-06)
(-4.60419e-05 -3.376e-05 -7.57962e-06)
(-3.40265e-05 -2.24734e-05 -8.4856e-06)
(-2.28437e-05 -7.09583e-06 -8.3299e-06)
(-1.30155e-05 1.02526e-05 -7.47597e-06)
(-3.2847e-06 2.60051e-05 -5.43634e-06)
(7.88221e-06 3.31761e-05 -2.09502e-06)
(1.85379e-05 3.11352e-05 8.43261e-07)
(2.15208e-05 2.44721e-05 1.95885e-06)
(1.32876e-05 2.63544e-05 -8.91734e-07)
(3.51622e-06 3.43017e-05 -4.40129e-06)
(1.00348e-05 7.57231e-05 1.00348e-05)
(1.43047e-05 -5.55271e-05 1.23346e-05)
(8.02531e-06 -3.93849e-05 1.47537e-05)
(2.51927e-06 -3.41598e-05 1.44182e-05)
(-6.55058e-06 -2.46912e-05 1.34889e-05)
(-1.41045e-05 -1.0258e-05 1.05948e-05)
(-1.8037e-05 7.43355e-06 6.5966e-06)
(-1.55194e-05 2.5108e-05 2.88754e-06)
(-5.86417e-06 3.8496e-05 3.19154e-08)
(8.62883e-06 4.5279e-05 -8.06901e-07)
(2.36361e-05 4.36001e-05 3.82982e-07)
(3.31121e-05 3.51036e-05 2.8989e-06)
(3.21292e-05 2.1984e-05 4.91663e-06)
(1.99484e-05 7.73672e-06 5.68242e-06)
(-1.68127e-06 -4.78038e-06 3.98731e-06)
(-2.82342e-05 -1.43459e-05 1.35762e-07)
(-5.28352e-05 -2.16835e-05 -4.59456e-06)
(-6.93417e-05 -2.76444e-05 -8.89252e-06)
(-7.4363e-05 -3.2591e-05 -1.20141e-05)
(-6.85747e-05 -3.48542e-05 -1.36513e-05)
(-5.53147e-05 -3.20494e-05 -1.37142e-05)
(-3.86671e-05 -2.4008e-05 -1.26588e-05)
(-2.15541e-05 -1.0548e-05 -1.07451e-05)
(-5.15622e-06 4.23003e-06 -8.21065e-06)
(1.0416e-05 1.60576e-05 -5.23479e-06)
(2.32609e-05 2.16105e-05 -2.25949e-06)
(2.9046e-05 2.43583e-05 -4.83265e-07)
(2.37913e-05 3.15421e-05 -1.36626e-06)
(1.24786e-05 4.46492e-05 -3.50591e-06)
(3.69502e-06 4.44301e-05 -3.02701e-07)
(3.00987e-05 2.73424e-05 3.00987e-05)
(2.48599e-05 -6.45864e-05 2.78567e-05)
(-1.52669e-05 -4.89183e-05 2.61388e-05)
(-3.41107e-05 -4.03822e-05 2.16033e-05)
(-5.70522e-05 -2.82427e-05 1.59235e-05)
(-7.27823e-05 -1.27496e-05 8.7631e-06)
(-7.76948e-05 3.46174e-06 1.44962e-06)
(-6.9706e-05 1.78039e-05 -4.91861e-06)
(-4.96399e-05 2.76158e-05 -8.81694e-06)
(-2.18887e-05 3.21823e-05 -1.02076e-05)
(5.96361e-06 3.34481e-05 -9.84405e-06)
(2.51006e-05 3.4317e-05 -8.976e-06)
(3.02088e-05 3.48278e-05 -8.44837e-06)
(2.14182e-05 3.55403e-05 -9.22857e-06)
(2.2872e-06 3.43885e-05 -1.12596e-05)
(-2.10568e-05 3.03234e-05 -1.35066e-05)
(-4.18064e-05 2.1599e-05 -1.5293e-05)
(-5.4759e-05 8.52686e-06 -1.63823e-05)
(-5.7748e-05 -6.41273e-06 -1.62727e-05)
(-5.19849e-05 -1.92136e-05 -1.50094e-05)
(-4.09498e-05 -2.51685e-05 -1.27209e-05)
(-2.71236e-05 -2.34765e-05 -1.01448e-05)
(-1.17529e-05 -1.51997e-05 -7.43162e-06)
(4.18563e-06 -4.60911e-06 -4.64093e-06)
(1.89772e-05 4.72416e-06 -1.86198e-06)
(2.91907e-05 1.31221e-05 7.52928e-07)
(3.11963e-05 2.49888e-05 2.03641e-06)
(2.5376e-05 4.12352e-05 2.71936e-06)
(1.92599e-05 5.21051e-05 4.96548e-06)
(9.14492e-06 4.74926e-05 1.02256e-05)
(3.78575e-05 -5.06865e-05 3.78575e-05)
(2.01644e-05 -5.08282e-05 2.58847e-05)
(-4.6305e-05 -3.75386e-05 2.08295e-05)
(-7.58257e-05 -2.56468e-05 1.35607e-05)
(-0.000104549 -1.13428e-05 5.14073e-06)
(-0.000120979 2.41969e-06 -2.96894e-06)
(-0.000121803 1.25154e-05 -9.80635e-06)
(-0.000106097 1.70226e-05 -1.35505e-05)
(-7.7028e-05 1.87464e-05 -1.52627e-05)
(-4.23286e-05 2.03221e-05 -1.53785e-05)
(-9.53331e-06 2.6671e-05 -1.44212e-05)
(1.31314e-05 3.89251e-05 -1.37306e-05)
(2.2065e-05 5.49011e-05 -1.40798e-05)
(1.98265e-05 7.00684e-05 -1.49616e-05)
(1.01296e-05 7.91647e-05 -1.5643e-05)
(-2.07231e-06 7.86126e-05 -1.58679e-05)
(-1.22802e-05 6.64293e-05 -1.52135e-05)
(-1.81796e-05 4.44357e-05 -1.3269e-05)
(-2.03465e-05 1.91134e-05 -1.03889e-05)
(-1.98541e-05 -2.801e-06 -7.40725e-06)
(-1.74938e-05 -1.64411e-05 -5.01957e-06)
(-1.31929e-05 -2.10107e-05 -3.41428e-06)
(-5.90633e-06 -1.81376e-05 -2.56578e-06)
(4.57714e-06 -1.13093e-05 -2.13074e-06)
(1.57364e-05 -2.7946e-06 -1.5273e-06)
(2.34181e-05 9.98406e-06 -6.92542e-07)
(2.57035e-05 2.75318e-05 4.78445e-07)
(2.52536e-05 4.29715e-05 3.7738e-06)
(2.18296e-05 4.84042e-05 8.33334e-06)
(9.6947e-06 5.44518e-05 5.03378e-06)
(2.43554e-05 -0.000106737 2.43554e-05)
(-5.78653e-06 5.98979e-07 1.03086e-05)
(-7.35453e-05 5.78618e-06 3.80352e-06)
(-0.000103039 1.60685e-05 -3.84379e-06)
(-0.000126241 2.66958e-05 -9.83649e-06)
(-0.000134949 3.08313e-05 -1.29993e-05)
(-0.000127134 2.72312e-05 -1.39003e-05)
(-0.000104739 1.7343e-05 -1.35381e-05)
(-7.44938e-05 8.74991e-06 -1.18189e-05)
(-4.36126e-05 8.29027e-06 -1.02724e-05)
(-1.71664e-05 2.00376e-05 -8.9509e-06)
(1.10094e-06 4.18206e-05 -9.13616e-06)
(1.16636e-05 6.95905e-05 -1.00882e-05)
(1.77996e-05 9.3997e-05 -1.08713e-05)
(2.13864e-05 0.000107507 -1.03727e-05)
(2.37847e-05 0.000106497 -8.53711e-06)
(2.49496e-05 9.03996e-05 -5.21429e-06)
(2.34226e-05 6.32449e-05 -1.28615e-06)
(1.8132e-05 3.35129e-05 2.37473e-06)
(9.31345e-06 8.79434e-06 4.46302e-06)
(-1.07975e-06 -7.09094e-06 4.40415e-06)
(-8.59761e-06 -1.43067e-05 2.30055e-06)
(-9.93384e-06 -1.46046e-05 -6.03915e-07)
(-5.54323e-06 -9.83869e-06 -2.78578e-06)
(1.77404e-06 7.76655e-08 -4.01718e-06)
(8.33784e-06 1.6272e-05 -4.63325e-06)
(1.21864e-05 3.4955e-05 -4.14244e-06)
(1.40322e-05 4.87673e-05 -2.69852e-06)
(4.91761e-06 6.00645e-05 -3.9232e-06)
(-2.46461e-06 7.57549e-05 -1.15212e-05)
(-4.10861e-07 -0.000105925 -4.10861e-07)
(-3.50978e-05 7.6419e-05 -1.23516e-05)
(-8.04199e-05 6.79178e-05 -1.41986e-05)
(-9.98743e-05 6.91971e-05 -1.60341e-05)
(-0.000109372 6.69462e-05 -1.51528e-05)
(-0.00010514 5.37384e-05 -1.29883e-05)
(-8.99161e-05 3.25453e-05 -9.3756e-06)
(-6.96321e-05 9.56135e-06 -5.28962e-06)
(-4.92891e-05 -5.8628e-06 -1.76959e-06)
(-3.28241e-05 -6.13419e-06 2.61886e-07)
(-2.16129e-05 1.00629e-05 -3.15174e-07)
(-1.24241e-05 3.84384e-05 -2.28075e-06)
(-1.3782e-06 7.10198e-05 -4.61231e-06)
(1.29979e-05 9.70987e-05 -5.25802e-06)
(2.90587e-05 0.000110107 -3.99007e-06)
(4.31922e-05 0.000107657 -6.704e-07)
(5.17138e-05 9.10892e-05 3.65729e-06)
(5.11851e-05 6.60745e-05 7.42386e-06)
(4.03955e-05 4.04134e-05 9.29426e-06)
(2.29768e-05 1.97246e-05 8.76512e-06)
(4.61126e-06 5.77019e-06 6.2078e-06)
(-8.45894e-06 -2.21661e-06 3.19472e-06)
(-1.34945e-05 -5.55017e-06 8.48375e-07)
(-1.30094e-05 -2.38716e-06 -4.70766e-07)
(-1.08276e-05 8.94806e-06 -1.29395e-06)
(-9.41649e-06 2.73037e-05 -2.0464e-06)
(-8.95848e-06 4.69218e-05 -2.82561e-06)
(-1.11729e-05 6.57374e-05 -5.38315e-06)
(-1.875e-05 8.84116e-05 -1.06478e-05)
(-1.25898e-05 8.83696e-05 -9.4386e-06)
(-1.94217e-05 -5.03535e-05 -1.94217e-05)
(-4.8052e-05 0.00014691 -2.1131e-05)
(-6.24253e-05 0.000121425 -1.87174e-05)
(-6.62365e-05 0.000109416 -1.71133e-05)
(-6.059e-05 8.96532e-05 -1.27726e-05)
(-4.8154e-05 5.95304e-05 -7.32662e-06)
(-3.43768e-05 2.57138e-05 -2.01243e-06)
(-2.45606e-05 -2.8557e-06 2.3603e-06)
(-2.1379e-05 -1.77049e-05 4.24017e-06)
(-2.38779e-05 -1.38112e-05 2.99859e-06)
(-2.7027e-05 6.69077e-06 -7.48213e-07)
(-2.43653e-05 3.62848e-05 -4.73943e-06)
(-1.25193e-05 6.5619e-05 -6.83907e-06)
(7.81531e-06 8.71148e-05 -6.86959e-06)
(3.11632e-05 9.68998e-05 -4.29144e-06)
(5.02054e-05 9.48485e-05 -2.66628e-07)
(5.96616e-05 8.33005e-05 2.84089e-06)
(5.6988e-05 6.69156e-05 4.68408e-06)
(4.41558e-05 4.99276e-05 5.0595e-06)
(2.69693e-05 3.49081e-05 4.56013e-06)
(1.12846e-05 2.13247e-05 3.78269e-06)
(9.15815e-07 9.3712e-06 3.91986e-06)
(-4.10108e-06 8.4897e-07 5.48188e-06)
(-8.30709e-06 1.3589e-06 7.26339e-06)
(-1.44289e-05 1.29603e-05 7.76609e-06)
(-2.08177e-05 3.19866e-05 7.34637e-06)
(-2.60322e-05 5.30026e-05 5.49758e-06)
(-2.92482e-05 7.60679e-05 2.52586e-06)
(-2.39805e-05 9.38307e-05 1.80637e-06)
(-9.44315e-06 6.77871e-05 1.08525e-05)
(-2.42879e-05 2.71186e-05 -2.42879e-05)
(-3.90828e-05 0.000189671 -1.97695e-05)
(-2.91049e-05 0.000152339 -1.74699e-05)
(-2.1957e-05 0.000127613 -1.44384e-05)
(-9.94296e-06 9.45776e-05 -1.01866e-05)
(1.93478e-06 5.62711e-05 -5.51804e-06)
(8.31412e-06 2.07177e-05 -2.35654e-06)
(5.73194e-06 -2.85655e-06 -9.50925e-07)
(-5.37181e-06 -1.01647e-05 -2.30014e-06)
(-1.9244e-05 -8.23881e-07 -5.15768e-06)
(-2.80448e-05 1.90559e-05 -7.94358e-06)
(-2.6327e-05 4.09147e-05 -9.44063e-06)
(-1.28195e-05 5.97971e-05 -9.30856e-06)
(8.12159e-06 7.25967e-05 -6.8143e-06)
(2.94725e-05 7.89744e-05 -3.44085e-06)
(4.47324e-05 8.03417e-05 -3.93822e-07)
(5.09428e-05 7.69419e-05 1.45677e-06)
(4.82299e-05 7.03629e-05 1.94039e-06)
(4.00042e-05 6.0554e-05 1.38156e-06)
(3.09802e-05 4.70347e-05 1.8004e-06)
(2.37166e-05 2.99149e-05 3.46772e-06)
(1.76039e-05 1.22684e-05 5.89109e-06)
(9.67599e-06 6.50117e-07 8.30339e-06)
(-2.4619e-06 8.36536e-07 9.2199e-06)
(-1.63835e-05 1.34493e-05 8.47438e-06)
(-2.65684e-05 3.08335e-05 7.3617e-06)
(-3.03781e-05 4.83455e-05 6.71553e-06)
(-2.57956e-05 6.34393e-05 8.24178e-06)
(-8.50132e-06 6.05153e-05 1.34661e-05)
(1.74666e-06 3.45552e-05 1.35596e-05)
(-2.24816e-05 9.1549e-05 -2.24816e-05)
(-2.29022e-05 0.000203671 -1.70413e-05)
(-4.42152e-07 0.000163854 -1.626e-05)
(8.47249e-06 0.000132621 -1.3925e-05)
(2.17797e-05 9.45365e-05 -1.11255e-05)
(3.00854e-05 5.71977e-05 -8.71406e-06)
(3.01035e-05 2.82492e-05 -6.87229e-06)
(2.15797e-05 1.38894e-05 -5.74395e-06)
(7.65465e-06 1.28352e-05 -5.64165e-06)
(-6.66598e-06 2.14139e-05 -5.8078e-06)
(-1.47283e-05 3.2623e-05 -5.01372e-06)
(-1.31618e-05 4.05482e-05 -2.79985e-06)
(-3.59694e-06 4.71351e-05 7.62378e-07)
(9.08244e-06 5.22216e-05 4.07278e-06)
(1.97623e-05 5.76546e-05 6.18279e-06)
(2.64097e-05 6.39763e-05 6.31373e-06)
(2.9341e-05 6.77796e-05 4.96009e-06)
(3.04034e-05 6.71701e-05 3.68309e-06)
(3.11805e-05 6.03176e-05 3.37603e-06)
(3.12942e-05 4.61517e-05 4.17125e-06)
(2.86216e-05 2.75688e-05 5.70742e-06)
(2.00678e-05 1.16153e-05 6.49447e-06)
(4.07836e-06 5.69739e-06 4.71769e-06)
(-1.44776e-05 1.21523e-05 -1.08164e-07)
(-2.77197e-05 2.48222e-05 -4.7082e-06)
(-3.12132e-05 3.52817e-05 -6.04499e-06)
(-2.54776e-05 4.35782e-05 -5.35657e-06)
(-1.27312e-05 4.61849e-05 -3.45227e-06)
(-2.24938e-06 3.85207e-05 -1.79951e-06)
(5.21007e-08 3.47033e-05 -1.09226e-05)
(-1.8079e-05 0.000136206 -1.8079e-05)
(-1.1524e-05 0.000200798 -1.43892e-05)
(1.51382e-05 0.000163288 -1.39689e-05)
(2.60561e-05 0.000130726 -1.18039e-05)
(4.00197e-05 9.25179e-05 -9.13839e-06)
(4.76185e-05 5.87724e-05 -6.21197e-06)
(4.65999e-05 3.64845e-05 -3.15851e-06)
(3.81936e-05 2.72488e-05 -2.96378e-07)
(2.61703e-05 2.65134e-05 2.1838e-06)
(1.50881e-05 2.83743e-05 5.18966e-06)
(7.97825e-06 2.85843e-05 8.70835e-06)
(4.54471e-06 2.45898e-05 1.22393e-05)
(1.58678e-06 2.26457e-05 1.50565e-05)
(-2.15316e-06 2.59285e-05 1.52115e-05)
(-5.37489e-06 3.41367e-05 1.21549e-05)
(-5.72164e-06 4.49506e-05 8.22541e-06)
(-6.39508e-07 5.28954e-05 4.84636e-06)
(8.38482e-06 5.36913e-05 3.16908e-06)
(1.75219e-05 4.79074e-05 3.20743e-06)
(2.19446e-05 3.69431e-05 3.92923e-06)
(1.66507e-05 2.60396e-05 3.7988e-06)
(7.73895e-07 2.27349e-05 3.48516e-07)
(-1.94765e-05 2.84214e-05 -5.87036e-06)
(-3.44631e-05 3.75207e-05 -1.08674e-05)
(-3.70094e-05 4.17458e-05 -1.21715e-05)
(-2.8242e-05 4.11153e-05 -1.16624e-05)
(-1.58092e-05 4.33523e-05 -1.05516e-05)
(-5.29208e-06 4.7182e-05 -1.03787e-05)
(-7.43189e-06 5.76902e-05 -1.56979e-05)
(-7.18531e-06 5.73401e-05 -1.70712e-05)
(-1.2747e-05 0.000164169 -1.2747e-05)
(-2.10363e-06 0.000185852 -9.01212e-06)
(2.64346e-05 0.000152831 -7.33848e-06)
(4.0092e-05 0.000118183 -3.67069e-06)
(5.31948e-05 8.02496e-05 5.97739e-07)
(5.93782e-05 4.96166e-05 4.5165e-06)
(5.78224e-05 3.14894e-05 7.38242e-06)
(5.04845e-05 2.29923e-05 1.00708e-05)
(4.06164e-05 1.91726e-05 1.26761e-05)
(3.03082e-05 1.45729e-05 1.52934e-05)
(1.91914e-05 8.04891e-06 1.7655e-05)
(4.91553e-06 1.74402e-06 1.74377e-05)
(-1.17669e-05 2.60793e-06 1.4455e-05)
(-2.66483e-05 1.08392e-05 9.24468e-06)
(-3.52476e-05 2.37493e-05 2.65438e-06)
(-3.35099e-05 3.31898e-05 -1.72677e-06)
(-2.19513e-05 3.88685e-05 -3.0857e-06)
(-6.29562e-06 3.91012e-05 -2.94124e-06)
(4.80049e-06 3.77381e-05 -1.79236e-06)
(4.76551e-06 3.70368e-05 -2.25923e-06)
(-6.56153e-06 4.07826e-05 -5.43614e-06)
(-2.32766e-05 4.95968e-05 -1.03282e-05)
(-3.51354e-05 5.73128e-05 -1.31804e-05)
(-3.45815e-05 5.45864e-05 -1.261e-05)
(-2.38046e-05 4.35147e-05 -8.6001e-06)
(-1.23147e-05 3.67166e-05 -4.52567e-06)
(-6.0602e-06 4.15843e-05 -3.10558e-06)
(-6.18829e-06 5.63191e-05 -4.88333e-06)
(-8.01998e-06 7.89942e-05 -8.68696e-06)
(-4.26461e-06 6.28206e-05 -4.40994e-06)
(-4.61989e-06 0.000172534 -4.61989e-06)
(1.10185e-05 0.000158213 8.16846e-07)
(3.8236e-05 0.000128884 3.88027e-06)
(5.15109e-05 9.25815e-05 7.80439e-06)
(5.98549e-05 5.63272e-05 1.10405e-05)
(5.96728e-05 2.98443e-05 1.2853e-05)
(5.29549e-05 1.51378e-05 1.36967e-05)
(4.34971e-05 7.94444e-06 1.33055e-05)
(3.32589e-05 3.96751e-06 1.28949e-05)
(2.13445e-05 4.46629e-07 1.23375e-05)
(5.62803e-06 -1.17522e-06 1.0859e-05)
(-1.43044e-05 1.55106e-06 6.98716e-06)
(-3.51891e-05 1.12772e-05 9.7986e-07)
(-5.00151e-05 2.11804e-05 -4.31232e-06)
(-5.18285e-05 2.9225e-05 -6.43836e-06)
(-4.08566e-05 2.88464e-05 -6.94708e-06)
(-2.39508e-05 2.76572e-05 -4.87396e-06)
(-9.90238e-06 3.04213e-05 -3.09923e-06)
(-6.81794e-06 3.8892e-05 -3.5723e-06)
(-1.49492e-05 5.22432e-05 -7.25248e-06)
(-2.69781e-05 6.75968e-05 -1.22144e-05)
(-3.3461e-05 7.61329e-05 -1.48959e-05)
(-2.80109e-05 7.00694e-05 -1.30098e-05)
(-1.32888e-05 4.94721e-05 -6.62916e-06)
(-9.79927e-07 3.10362e-05 -1.06457e-07)
(2.52259e-07 2.88258e-05 1.16202e-06)
(-4.50095e-06 3.99284e-05 -8.15786e-07)
(-8.7704e-06 5.8227e-05 -1.25383e-06)
(-3.96319e-06 7.65844e-05 -2.68213e-07)
(1.21921e-06 5.82886e-05 -2.28695e-06)
(4.45934e-06 0.00015676 4.45933e-06)
(2.35702e-05 0.000118732 9.46798e-06)
(4.46468e-05 9.37372e-05 1.2293e-05)
(5.27267e-05 6.10471e-05 1.43125e-05)
(5.16181e-05 3.16305e-05 1.46687e-05)
(4.23491e-05 1.29432e-05 1.31023e-05)
(3.03836e-05 3.64414e-06 1.0405e-05)
(1.95721e-05 -4.74816e-08 7.78777e-06)
(9.94999e-06 -4.82025e-07 6.12748e-06)
(-1.19398e-06 2.59235e-06 4.83304e-06)
(-1.65264e-05 1.07815e-05 2.58653e-06)
(-3.41356e-05 2.21927e-05 -4.79379e-07)
(-4.75225e-05 3.18997e-05 -2.67947e-06)
(-5.06409e-05 3.24757e-05 -3.45088e-06)
(-4.20277e-05 2.56455e-05 -1.59996e-06)
(-2.7065e-05 1.54513e-05 1.61941e-06)
(-1.51666e-05 1.20075e-05 5.17733e-06)
(-1.32711e-05 2.36216e-05 5.27967e-06)
(-2.11834e-05 4.60511e-05 4.86208e-07)
(-3.13864e-05 7.0015e-05 -5.75564e-06)
(-3.46972e-05 8.42988e-05 -9.09103e-06)
(-2.57015e-05 7.92888e-05 -7.74116e-06)
(-7.66231e-06 5.63228e-05 -1.48284e-06)
(5.58508e-06 3.11409e-05 3.51045e-06)
(3.51384e-06 2.16156e-05 3.36638e-06)
(-7.63824e-06 3.06379e-05 -2.29506e-06)
(-1.54483e-05 4.36372e-05 -6.67319e-06)
(-1.54919e-05 5.56729e-05 -7.413e-06)
(-7.09815e-06 6.73378e-05 -8.13583e-06)
(-4.67128e-07 5.56356e-05 -6.58433e-06)
(1.05684e-05 0.000120673 1.05684e-05)
(2.91674e-05 7.56659e-05 1.34461e-05)
(4.09602e-05 5.73967e-05 1.50055e-05)
(4.13173e-05 3.4732e-05 1.49764e-05)
(3.19436e-05 1.72914e-05 1.31375e-05)
(1.75998e-05 7.61818e-06 1.02689e-05)
(4.51356e-06 2.64306e-06 7.62094e-06)
(-4.86922e-06 -2.60275e-07 6.16025e-06)
(-1.26204e-05 7.42013e-07 5.6594e-06)
(-2.17943e-05 8.08205e-06 5.12008e-06)
(-3.27122e-05 2.06174e-05 3.90882e-06)
(-4.16074e-05 3.16936e-05 2.66384e-06)
(-4.28669e-05 3.23614e-05 2.93325e-06)
(-3.39338e-05 1.92642e-05 5.24627e-06)
(-1.95815e-05 1.89892e-07 8.64845e-06)
(-9.60937e-06 -1.12817e-05 1.16963e-05)
(-1.0967e-05 -6.65475e-06 1.06026e-05)
(-2.05316e-05 1.96932e-05 6.05036e-06)
(-2.99166e-05 5.23109e-05 -4.58458e-08)
(-3.12456e-05 7.31191e-05 -1.72915e-06)
(-1.93592e-05 7.32504e-05 1.19856e-06)
(5.39645e-08 5.31981e-05 7.64425e-06)
(1.21377e-05 2.67163e-05 1.30373e-05)
(5.54475e-06 1.49834e-05 1.23446e-05)
(-1.21238e-05 2.20582e-05 6.70265e-06)
(-2.49287e-05 3.67018e-05 1.76589e-06)
(-2.89055e-05 4.49805e-05 -1.60225e-06)
(-2.7245e-05 4.95785e-05 -4.2349e-06)
(-7.38224e-06 5.3223e-05 -1.62406e-06)
(5.25672e-06 3.94575e-05 1.27978e-05)
(1.27704e-05 7.61236e-05 1.27704e-05)
(2.76036e-05 3.81394e-05 1.51106e-05)
(3.07274e-05 2.73269e-05 1.59773e-05)
(2.55288e-05 1.77549e-05 1.50109e-05)
(1.22769e-05 1.19565e-05 1.274e-05)
(-2.97153e-06 7.28089e-06 1.06474e-05)
(-1.53841e-05 1.37481e-06 9.27632e-06)
(-2.47286e-05 -3.95315e-06 8.75561e-06)
(-3.33287e-05 -2.69048e-06 7.91846e-06)
(-4.19283e-05 7.4081e-06 6.13081e-06)
(-4.74153e-05 2.0172e-05 3.65257e-06)
(-4.54129e-05 2.53032e-05 2.4847e-06)
(-3.39496e-05 1.40579e-05 3.65406e-06)
(-1.72799e-05 -8.2759e-06 6.09633e-06)
(-5.26543e-06 -2.78158e-05 8.19038e-06)
(-5.12791e-06 -2.84141e-05 6.81484e-06)
(-1.32038e-05 -8.25976e-06 2.11578e-06)
(-1.97754e-05 2.31095e-05 -1.82095e-06)
(-1.72062e-05 4.89001e-05 -1.2912e-06)
(-1.17253e-06 5.34293e-05 4.12409e-06)
(2.06595e-05 3.81181e-05 1.16755e-05)
(3.16597e-05 1.51544e-05 1.79189e-05)
(2.22709e-05 2.91508e-06 1.83033e-05)
(-1.57365e-06 1.18979e-05 1.26316e-05)
(-2.13201e-05 2.25926e-05 9.01858e-06)
(-2.81605e-05 2.77504e-05 1.07991e-05)