/*--------------------------------*- C++ -*----------------------------------*\
| =========                 |                                                 |
| \\      /  F ield         | OpenFOAM: The Open Source CFD Toolbox           |
|  \\    /   O peration     | Version:  2312                                  |
|   \\  /    A nd           | Website:  www.openfoam.com                      |
|    \\/     M anipulation  |                                                 |
\*---------------------------------------------------------------------------*/
FoamFile
{
    version     2.0;
    format      ascii;
    arch        "LSB;label=32;scalar=64";
    class       volScalarField;
    location    "0.357759";
    object      alpha.water;
}
// * * * * * * * * * * * * * * * * * * * * * * * * * * * * * * * * * * * * * //

dimensions      [0 0 0 0 0 0 0];

internalField   nonuniform List<scalar> 
90000
(
1
0.999992
0.999994
0.999995
0.999996
0.999998
1
1
1
1
1
1
1
1
1
1
1
1
1
1
0.999999
0.999996
0.999994
0.999994
0.999996
1
1.00001
1.00001
1.00002
1.00002
0.999992
0.999988
0.999991
0.999993
0.999996
0.999999
1
1
1
1
1
1
1
1
1
1
1.00001
1
1
0.999998
0.999994
0.999992
0.999992
0.999995
1
1.00001
1.00002
1.00003
1.00004
1.00004
0.999994
0.999991
0.999993
0.999995
0.999998
1
1
1
1
1
1
1
1
1
1.00001
1
1
1
1
0.999998
0.999996
0.999995
0.999997
1
1.00001
1.00001
1.00002
1.00002
1.00002
1.00002
0.999995
0.999995
0.999996
0.999998
0.999999
1
1
1
1
1.00001
1.00001
1.00001
1.00001
1.00001
1.00001
1
1
1
0.999998
0.999998
0.999998
1
1
1
1.00001
1.00001
1.00001
1.00001
1
1
0.999997
0.999998
0.999999
1
1
1
1
1
1
1.00001
1.00001
1.00001
1.00001
1.00001
1
1
0.999998
0.999997
0.999997
0.999998
1
1
1.00001
1.00001
1.00001
1
0.999998
0.999994
0.999989
0.999987
0.999999
1
1
1
1
1
1
1
1
1
1.00001
1.00001
1.00001
1
1
0.999999
0.999997
0.999996
0.999997
0.999999
1
1
1
1
1
0.999994
0.999988
0.999982
0.999978
0.99998
1
1
1
1
0.999999
0.999998
0.999997
0.999998
0.999999
1
1
1
1
1
1
0.999999
0.999999
0.999999
1
1
1
1
1
0.999998
0.999993
0.999987
0.999981
0.999977
0.999975
0.99998
1
1.00001
1
1
0.999999
0.999997
0.999996
0.999996
0.999997
0.999998
0.999999
1
1
1
1
1
1
1
1
1
1
0.999999
0.999996
0.999991
0.999986
0.999982
0.999979
0.999978
0.999978
0.999984
1
1.00001
1
1
1
0.999999
0.999998
0.999997
0.999997
0.999997
0.999997
0.999998
1
1
1
1.00001
1.00001
1.00001
1.00001
1
1
0.999995
0.999991
0.999986
0.999983
0.999982
0.999981
0.999982
0.999983
0.999988
1
1.00001
1.00001
1.00001
1.00001
1
1
1
0.999998
0.999997
0.999996
0.999997
0.999999
1
1.00001
1.00001
1.00001
1.00001
1.00001
1
0.999997
0.999993
0.999989
0.999986
0.999985
0.999984
0.999985
0.999986
0.999987
0.999991
1.00001
1.00002
1.00001
1.00001
1.00001
1.00001
1.00001
1
1
0.999996
0.999994
0.999994
0.999995
0.999998
1
1
1
1
1
1
0.999997
0.999995
0.999993
0.999991
0.99999
0.99999
0.99999
0.99999
0.999991
0.999994
1.00001
1.00002
1.00002
1.00002
1.00002
1.00002
1.00001
1.00001
1
0.999995
0.999992
0.999991
0.999991
0.999993
0.999995
0.999997
0.999999
1
1
1
1
1
1
1
1
0.999998
0.999997
0.999997
0.999997
0.999999
1.00001
1.00002
1.00002
1.00002
1.00002
1.00001
1.00001
1
0.999999
0.999995
0.999992
0.99999
0.99999
0.99999
0.999991
0.999992
0.999995
0.999998
1
1.00001
1.00001
1.00001
1.00001
1.00001
1.00001
1.00001
1.00001
1.00001
1.00001
1.00001
1.00001
1.00001
1.00001
1.00001
1.00001
1.00001
1
1
0.999998
0.999996
0.999995
0.999993
0.999992
0.99999
0.99999
0.999991
0.999994
1
1.00001
1.00001
1.00002
1.00002
1.00002
1.00002
1.00002
1.00002
1.00001
1.00001
1.00001
1.00001
1.00001
1
0.999999
0.999998
0.999997
0.999996
0.999996
0.999997
0.999999
1
1
0.999999
0.999996
0.999993
0.999991
0.999992
0.999995
1
1.00001
1.00001
1.00002
1.00002
1.00002
1.00002
1.00002
1.00002
1.00002
1.00001
1.00001
1
0.999998
0.999981
0.999982
0.999982
0.999983
0.999986
0.99999
0.999996
1
1
1
1
0.999999
0.999995
0.999993
0.999993
0.999996
1
1.00001
1.00001
1.00001
1.00001
1.00001
1.00001
1.00001
1.00001
1.00001
1
0.999998
0.999993
0.999987
0.999965
0.999969
0.99997
0.999974
0.99998
0.999988
0.999995
1
1.00001
1.00001
1
1
0.999996
0.999994
0.999994
0.999995
0.999997
0.999999
1
1
1
1
1
1
1
0.999997
0.999991
0.999987
0.999988
0.999978
0.999958
0.999963
0.999967
0.999972
0.99998
0.999988
0.999996
1
1
1
1
1
0.999997
0.999996
0.999995
0.999995
0.999994
0.999993
0.999993
0.999992
0.999993
0.999994
0.999995
0.999994
0.999991
0.999987
0.999984
0.999983
0.999988
0.999975
0.999961
0.999967
0.999971
0.999977
0.999984
0.999991
0.999997
1
1
1
1
1
0.999999
0.999998
0.999997
0.999995
0.999992
0.99999
0.999988
0.999988
0.999988
0.999989
0.999989
0.999987
0.999985
0.999983
0.999983
0.999985
0.99999
0.999978
0.999971
0.999975
0.99998
0.999985
0.999991
0.999995
0.999999
1
1
1
1
1
1
1
0.999998
0.999995
0.999992
0.999989
0.999987
0.999986
0.999986
0.999985
0.999984
0.999983
0.999982
0.999983
0.999985
0.999988
0.99999
0.999985
0.999982
0.999985
0.999989
0.999994
0.999998
1
1
1
1
1
1
1
1
1
0.999998
0.999995
0.999992
0.999989
0.999987
0.999986
0.999986
0.999985
0.999984
0.999984
0.999985
0.999987
0.999989
0.999989
0.999991
0.999991
0.999991
0.999995
0.999998
1
1
1.00001
1
1
1
1
1
1
1
1
0.999998
0.999996
0.999993
0.999991
0.99999
0.999989
0.999989
0.999988
0.999989
0.99999
0.999992
0.999994
0.999994
0.999992
0.999994
0.999996
1
1
1.00001
1.00001
1.00001
1.00001
1.00001
1
1
1
1
1
1
1
0.999999
0.999997
0.999995
0.999994
0.999993
0.999993
0.999993
0.999994
0.999996
0.999998
0.999999
0.999999
0.999998
0.999996
0.999997
1
1.00001
1.00001
1.00001
1.00001
1.00001
1.00001
1
1
1
0.999999
0.999999
1
1
1
1
0.999998
0.999997
0.999997
0.999997
0.999997
0.999998
0.999999
1
1
1
1
1
1
1
1
1.00001
1.00001
1.00001
1.00001
1.00001
1.00001
1
1
1
0.999999
0.999999
1
1
1
1
1
0.999999
0.999999
1
1
1
1
1.00001
1.00001
1.00001
1.00001
1.00001
1.00001
1.00001
1.00001
1.00001
1.00001
1.00001
1.00001
1
1
1
1
1
0.999999
0.999999
1
1
1
1
1
1
1
1
1
1.00001
1.00001
1.00001
1.00001
1.00001
1.00001
1.00001
1.00002
1.00002
1.00001
1.00001
1.00001
1
1
1
1
0.999999
0.999999
0.999998
0.999998
0.999999
1
1
1
1
1
1
1
1
1
1.00001
1.00001
1.00001
1.00001
1.00001
1.00001
1.00002
1.00002
1.00002
1
1
1
0.999999
0.999998
0.999997
0.999997
0.999996
0.999996
0.999996
0.999996
0.999998
0.999999
1
1
1
1
1
1
1
1
1
1
0.999999
0.999999
1
1.00001
1.00001
1.00001
1.00001
1
1
0.999998
0.999997
0.999995
0.999994
0.999993
0.999993
0.999993
0.999994
0.999995
0.999996
0.999998
0.999998
0.999999
0.999999
0.999999
0.999998
0.999996
0.999995
0.999994
0.999993
0.999991
0.99999
0.999991
0.999998
1
1.00001
1
1
1
0.999999
0.999997
0.999996
0.999994
0.999992
0.999991
0.99999
0.999991
0.999992
0.999994
0.999995
0.999996
0.999996
0.999997
0.999997
0.999996
0.999994
0.999993
0.999991
0.99999
0.999988
0.999986
0.999986
0.999992
0.999999
1
1
1
1
0.999999
1
0.999998
0.999996
0.999994
0.999991
0.999989
0.999988
0.999989
0.99999
0.999992
0.999993
0.999995
0.999996
0.999996
0.999996
0.999995
0.999994
0.999992
0.999991
0.99999
0.999987
0.999985
0.999989
0.999996
0.999999
1
1
1
1.00001
1
1
1
0.999997
0.999994
0.999991
0.999988
0.999987
0.999987
0.999989
0.999991
0.999993
0.999995
0.999997
0.999998
0.999998
0.999997
0.999996
0.999995
0.999994
0.999991
0.999988
0.999989
0.999994
0.999998
0.999998
0.999998
1
1.00001
1
1
1
1
0.999999
0.999995
0.999991
0.999987
0.999985
0.999986
0.999988
0.999991
0.999994
0.999997
0.999999
0.999999
0.999999
0.999998
0.999998
0.999998
0.999995
0.999992
0.99999
0.999992
0.999995
0.999995
0.999994
0.999996
1
1
0.999999
1
1.00001
1
1
0.999995
0.999991
0.999988
0.999987
0.999988
0.99999
0.999993
0.999995
0.999997
0.999998
0.999999
1
1
1
0.999999
0.999995
0.999991
0.999991
0.999991
0.999991
0.999989
0.999989
0.999993
0.999995
0.999995
0.999993
1
1.00001
1
1
0.999996
0.999993
0.999991
0.999991
0.999991
0.999992
0.999994
0.999996
0.999998
1
1
1
1
1
1
0.999996
0.999994
0.999994
0.999993
0.999992
0.999992
0.999994
0.999996
0.999997
0.999995
0.999996
1
1.00001
1
1
0.999998
0.999996
0.999995
0.999995
0.999994
0.999994
0.999996
0.999999
1
1
1.00001
1.00001
1.00001
1.00001
1
1
0.999999
1
1
0.999999
1
1
1
1
1
1
1
1
1
1
1
1
0.999999
0.999997
0.999995
0.999996
1
1
1.00001
1.00001
1.00001
1.00001
1.00001
1
1
1
1.00001
1.00001
1
1
1
1
1
1
1
1.00001
1
1
1
1
1
1
0.999999
0.999997
0.999997
1
1
1.00001
1.00001
1.00001
1.00001
1.00001
1.00001
1.00001
1.00001
1.00001
1.00001
1.00001
1
1
1
1
1
0.999999
1.00001
1.00001
1
1
1
1
1
1
0.999998
0.999998
1
1
1.00001
1
1
1
1
1.00001
1.00001
1.00001
1.00001
1.00001
1.00001
1
1
0.999999
1
1
0.999997
1
1
1
1
1
1
1
1
0.999999
1
1
1
1.00001
1
1
1
1.00001
1.00001
1.00001
1.00001
1.00001
1.00001
1.00001
1.00001
1.00001
1
1
1.00001
1
1
1.00001
1.00001
1
1
1.00001
1.00001
1
1
1
1
1
1.00001
1
1
1
1.00001
1.00001
1.00001
1.00001
1.00001
1.00001
1.00001
1.00001
1.00001
1.00001
1.00001
1.00001
1.00001
1
1.00001
1.00001
1.00001
1
1
1.00001
1
1
1
1
1
1.00001
1
1
1
1
1.00001
1.00001
1.00001
1
1
1
1
1.00001
1.00001
1.00001
1
1.00001
1
1
1.00001
1.00001
1.00001
1
1.00001
1.00001
1
1
1
1
1.00001
1
1
1
1
1
1.00001
1.00001
1
1
1.00001
1.00001
1.00001
1.00001
1.00001
1
1
1.00001
1
1
1.00001
1.00001
1
1
1
1
1
1
1.00001
1.00001
1
1
1
1
1
1
1
1
1
1.00001
1.00001
1.00001
1.00001
1.00001
1
0.999999
1
1.00001
0.999997
1.00001
1.00001
1.00001
0.999999
1.00001
1
1
1
1
1
1
1
1
1
1
1
1
1
1
1.00001
1.00001
1
1
1
1
0.999999
1
1.00001
1
0.999998
1.00001
1.00001
1.00001
1
1
1
1
1
1
1
1
1
1
1
1
1
1
1
1
1
1
1
0.999999
1
1
0.999999
1
1.00001
0.999999
1
1.00001
1.00001
0.999999
1
1
1
1
1
1
1
1
1
1
1
1
1
1
1
1
1
1
0.999999
0.999999
1
1
0.999999
1
1
0.999998
1
1
1
0.999997
0.999997
1
1
1
1
1
1
0.999999
0.999998
0.999997
0.999996
0.999994
0.999992
0.99999
0.999988
0.999986
0.999985
0.999985
0.999985
0.999986
0.999989
0.999992
0.999993
0.999996
0.999999
0.999996
0.999999
0.999999
1
0.999998
0.999997
1
0.999992
0.999991
0.999988
0.999984
0.999977
0.999965
0.999948
0.999922
0.999888
0.999847
0.9998
0.99975
0.999704
0.999667
0.999646
0.999647
0.999666
0.999702
0.99975
0.999799
0.999847
0.99989
0.999924
0.999945
0.999965
0.999976
0.999984
0.999986
0.999988
0.999992
0.985312
0.984295
0.982086
0.978738
0.973825
0.967448
0.959109
0.949208
0.937668
0.925199
0.912234
0.899741
0.888808
0.880646
0.876236
0.876244
0.880632
0.888836
0.899783
0.912246
0.925182
0.937632
0.949215
0.959106
0.967393
0.973862
0.978773
0.982077
0.98432
0.985264
0.224484
0.223677
0.222076
0.21964
0.216404
0.212168
0.20689
0.200214
0.192242
0.182887
0.173054
0.163607
0.155472
0.149548
0.146491
0.14649
0.149544
0.15547
0.163601
0.173044
0.182869
0.19223
0.200213
0.206894
0.212172
0.216387
0.219626
0.222073
0.223674
0.224498
3.49834e-07
4.06984e-07
1.12059e-06
5.25328e-07
0
6.9465e-25
4.33721e-25
-1.58777e-23
-3.49994e-08
1.28174e-23
7.58217e-32
-1.68616e-36
-1.14364e-40
-3.35628e-28
-4.52836e-28
-3.62459e-31
-4.06465e-22
4.0647e-22
1.01617e-22
5.08087e-23
0
-3.92182e-08
-1.27022e-23
-8.30664e-25
-2.58013e-24
1.01025e-22
5.30693e-07
1.11836e-06
4.06738e-07
3.65924e-07
3.06772e-07
3.58742e-07
1.43571e-06
1.9218e-06
2.18513e-06
2.75433e-06
7.92283e-06
1.10314e-05
6.28975e-06
1.62153e-05
1.96506e-05
3.42442e-05
4.73121e-05
4.76253e-05
3.55449e-05
3.56503e-05
4.79068e-05
4.75966e-05
3.43451e-05
1.94634e-05
1.60786e-05
6.25236e-06
1.11363e-05
7.93143e-06
2.81701e-06
2.14532e-06
1.9041e-06
1.44588e-06
3.60273e-07
3.22524e-07
2.09551e-08
2.93974e-08
4.39426e-08
1.10338e-07
1.75605e-07
3.48277e-07
9.83834e-07
2.67597e-06
2.89326e-06
1.1813e-05
3.82267e-05
5.12087e-05
5.12087e-05
5.12087e-05
4.50059e-05
4.49966e-05
5.15082e-05
5.15082e-05
5.15082e-05
3.86647e-05
1.19932e-05
2.93675e-06
2.72769e-06
1.00307e-06
3.57445e-07
1.76766e-07
1.105e-07
4.37659e-08
2.93911e-08
2.1315e-08
4.19482e-10
6.17901e-10
8.84964e-10
9.1971e-10
8.29464e-10
2.73883e-10
3.94485e-10
4.26712e-10
1.30505e-07
1.13415e-06
7.96008e-06
1.50029e-05
1.49374e-05
1.8463e-05
1.87419e-05
1.86926e-05
1.84454e-05
1.49851e-05
1.51769e-05
8.14108e-06
1.21619e-06
1.42781e-07
4.99677e-10
3.96097e-10
2.73857e-10
8.77736e-10
9.34441e-10
9.14982e-10
6.23933e-10
4.31372e-10
3.13246e-11
4.53007e-11
6.15193e-11
9.07469e-11
1.47344e-10
2.71098e-10
4.63927e-10
3.80423e-10
2.75036e-11
2.17907e-11
1.68623e-10
1.16329e-08
3.87209e-08
9.55472e-08
3.84769e-07
3.72803e-07
9.54636e-08
3.89063e-08
1.19258e-08
1.71156e-10
2.64699e-11
3.00101e-11
4.57577e-10
4.68653e-10
2.72735e-10
1.45753e-10
9.10646e-11
6.24186e-11
4.55523e-11
3.21689e-11
6.06214e-12
8.06873e-12
1.06943e-11
1.75757e-11
2.8643e-11
4.86803e-11
8.67806e-11
1.39568e-10
2.44316e-11
1.8005e-11
1.12724e-11
1.23884e-11
1.43354e-11
3.55583e-10
5.99801e-09
5.95386e-09
3.46329e-10
1.39652e-11
1.22669e-11
1.1177e-11
1.75644e-11
2.83167e-11
1.42769e-10
8.93023e-11
4.92124e-11
2.86888e-11
1.75399e-11
1.08056e-11
8.1009e-12
6.21095e-12
1.0054e-12
1.61743e-12
2.14802e-12
2.9119e-12
3.84839e-12
5.98236e-12
9.29599e-12
1.47244e-11
2.80698e-11
4.06913e-11
1.04904e-11
1.19002e-11
8.53566e-12
2.53162e-12
2.00341e-12
2.00454e-12
2.52609e-12
8.83054e-12
1.15158e-11
1.06949e-11
3.91129e-11
2.84062e-11
1.49857e-11
9.483e-12
6.13476e-12
3.88588e-12
2.9365e-12
2.17865e-12
1.62145e-12
1.04606e-12
4.50764e-13
6.74879e-13
8.30065e-13
8.72134e-13
6.15882e-13
7.11255e-13
1.18123e-12
1.82526e-12
3.22615e-12
5.55096e-12
1.05e-11
1.6218e-11
2.29586e-11
2.55271e-12
2.43364e-12
2.42562e-12
2.54436e-12
2.33111e-11
1.64158e-11
1.0706e-11
5.67228e-12
3.26245e-12
1.84534e-12
1.1957e-12
7.23657e-13
6.16054e-13
8.78919e-13
8.37632e-13
6.74876e-13
4.69341e-13
2.82999e-14
4.65302e-14
5.83112e-14
7.74017e-14
1.1795e-13
2.10526e-13
3.54981e-13
3.55888e-13
4.98317e-13
8.55791e-13
1.06696e-12
1.47403e-12
2.18936e-12
2.72896e-12
2.43768e-12
2.42978e-12
2.73056e-12
2.19166e-12
1.48547e-12
1.06801e-12
8.64112e-13
5.09372e-13
3.60932e-13
3.60358e-13
2.15167e-13
1.18749e-13
7.77973e-14
5.90675e-14
4.64819e-14
2.9657e-14
7.11448e-16
1.30697e-15
1.74647e-15
2.7746e-15
5.45093e-15
1.07554e-14
1.98244e-14
3.45509e-14
7.31542e-14
1.47152e-13
1.86573e-13
2.30418e-13
3.16924e-13
3.7146e-13
3.52945e-13
3.53276e-13
3.69892e-13
3.17653e-13
2.32047e-13
1.85727e-13
1.50125e-13
7.5155e-14
3.5328e-14
2.02633e-14
1.10327e-14
5.49095e-15
2.79122e-15
1.77651e-15
1.30534e-15
7.50408e-16
1.86924e-17
3.64569e-17
4.80912e-17
7.36017e-17
1.2885e-16
2.41485e-16
4.88905e-16
1.12652e-15
2.67482e-15
6.21553e-15
1.30229e-14
2.55983e-14
4.42023e-14
6.90015e-14
9.75357e-14
9.75272e-14
6.91763e-14
4.44021e-14
2.58763e-14
1.32388e-14
6.39296e-15
2.75961e-15
1.1533e-15
5.01826e-16
2.48431e-16
1.29646e-16
7.41624e-17
4.89112e-17
3.64083e-17
1.9754e-17
4.5538e-19
9.46833e-19
1.21991e-18
1.82541e-18
3.04874e-18
5.57173e-18
1.09414e-17
2.28402e-17
5.08296e-17
1.22525e-16
3.04588e-16
6.80582e-16
1.2541e-15
2.14447e-15
3.2838e-15
3.28076e-15
2.15105e-15
1.26067e-15
6.89218e-16
3.12276e-16
1.26223e-16
5.25497e-17
2.34154e-17
1.12196e-17
5.73394e-18
3.08134e-18
1.83509e-18
1.24368e-18
9.44427e-19
4.81476e-19
9.76266e-21
2.17014e-20
2.74494e-20
4.0039e-20
6.53374e-20
1.15571e-19
2.18216e-19
4.31708e-19
9.14866e-19
2.08417e-18
4.74552e-18
9.75049e-18
1.7275e-17
2.80822e-17
4.24324e-17
4.23754e-17
2.8219e-17
1.74057e-17
9.87107e-18
4.85264e-18
2.14638e-18
9.44067e-19
4.44104e-19
2.24218e-19
1.19015e-19
6.60101e-20
4.03502e-20
2.79812e-20
2.16732e-20
1.03351e-20
1.83265e-22
4.36219e-22
5.40094e-22
7.62026e-22
1.21822e-21
2.0631e-21
3.73939e-21
7.09749e-21
1.4194e-20
3.02936e-20
6.53071e-20
1.27384e-19
2.16785e-19
3.40625e-19
5.03862e-19
5.02385e-19
3.4149e-19
2.18332e-19
1.28894e-19
6.67899e-20
3.13623e-20
1.46465e-20
7.28656e-21
3.85139e-21
2.12854e-21
1.22482e-21
7.72866e-22
5.49994e-22
4.35062e-22
1.93646e-22
2.97025e-24
7.60188e-24
9.17009e-24
1.26865e-23
1.93523e-23
3.15994e-23
5.47899e-23
9.83716e-23
1.83443e-22
3.66624e-22
7.44118e-22
1.36948e-21
2.213e-21
3.31759e-21
4.75459e-21
4.7505e-21
3.33499e-21
2.23209e-21
1.38621e-21
7.62022e-22
3.80144e-22
1.90244e-22
1.0082e-22
5.62762e-23
3.26413e-23
1.96159e-23
1.28103e-23
9.36901e-24
7.59061e-24
3.15156e-24
4.19311e-26
1.15136e-25
1.34581e-25
1.81326e-25
2.64655e-25
4.15957e-25
6.79159e-25
1.14299e-24
1.98807e-24
3.68317e-24
6.8899e-24
1.18654e-23
1.79645e-23
2.45594e-23
3.24917e-23
3.24496e-23
2.4489e-23
1.79195e-23
1.20152e-23
7.08008e-24
3.80585e-24
2.06112e-24
1.17442e-24
6.98229e-25
4.27346e-25
2.69115e-25
1.8254e-25
1.37774e-25
1.14633e-25
4.43325e-26
5.01831e-28
1.48932e-27
1.7035e-27
2.18657e-27
3.11986e-27
4.5921e-27
7.06413e-27
1.11882e-26
1.79787e-26
3.03172e-26
5.19739e-26
8.30207e-26
1.14136e-25
1.28895e-25
1.47884e-25
1.47994e-25
1.25933e-25
1.11114e-25
8.31339e-26
5.34002e-26
3.13826e-26
1.86082e-26
1.15052e-26
7.31398e-27
4.742e-27
3.14882e-27
2.22986e-27
1.74067e-27
1.488e-27
5.35374e-28
5.22261e-30
1.65225e-29
1.83561e-29
2.28474e-29
3.10846e-29
4.27657e-29
6.24065e-29
9.16257e-29
1.33952e-28
2.05164e-28
3.20599e-28
4.64336e-28
5.66821e-28
5.34612e-28
8.56078e-28
8.5547e-28
4.95564e-28
5.08628e-28
4.56414e-28
3.28862e-28
2.135e-28
1.39267e-28
9.39924e-29
6.44028e-29
4.45717e-29
3.13071e-29
2.3203e-29
1.87441e-29
1.64915e-29
5.52542e-30
4.55008e-32
1.56532e-31
1.67122e-31
2.03378e-31
2.57918e-31
3.40931e-31
4.63887e-31
6.21307e-31
8.28311e-31
1.14965e-30
1.6075e-30
2.07999e-30
2.22688e-30
2.40442e-30
4.18549e-30
4.17112e-30
2.00271e-30
1.621e-30
1.98856e-30
1.64043e-30
1.18905e-30
8.62715e-31
6.41561e-31
4.76993e-31
3.53447e-31
2.63036e-31
2.04494e-31
1.71497e-31
1.55702e-31
4.85536e-32
3.3763e-34
1.25247e-33
1.29742e-33
1.49794e-33
1.82796e-33
2.28594e-33
2.83077e-33
3.49066e-33
4.25039e-33
5.25418e-33
6.48839e-33
7.52493e-33
7.06435e-33
8.91244e-33
1.86606e-32
1.85963e-32
6.28871e-33
2.92598e-33
6.83544e-33
6.64039e-33
5.46066e-33
4.43609e-33
3.64538e-33
2.9494e-33
2.35126e-33
1.86377e-33
1.52606e-33
1.33098e-33
1.24611e-33
3.6122e-34
2.13903e-36
8.40351e-36
8.55019e-36
9.39676e-36
1.10676e-35
1.26278e-35
1.45063e-35
1.66342e-35
1.82134e-35
1.98641e-35
2.18503e-35
2.22461e-35
1.89122e-35
2.73587e-35
6.67008e-35
6.59824e-35
2.01641e-35
4.31652e-36
1.89891e-35
2.21599e-35
2.05709e-35
1.87918e-35
1.71792e-35
1.52367e-35
1.31442e-35
1.11299e-35
9.59987e-36
8.70032e-36
8.39812e-36
2.26759e-36
1.11293e-38
4.7948e-38
4.67762e-38
5.01232e-38
5.49614e-38
5.85968e-38
6.37685e-38
6.64368e-38
6.50214e-38
6.39094e-38
6.24882e-38
5.84138e-38
4.67534e-38
7.13055e-38
1.85658e-37
1.7932e-37
5.61177e-38
7.0367e-39
4.718e-38
6.1481e-38
6.49349e-38
6.66913e-38
6.83223e-38
6.62515e-38
6.16868e-38
5.57442e-38
5.07212e-38
4.77547e-38
4.7608e-38
1.20216e-38
4.84376e-41
2.32064e-40
2.15656e-40
2.23766e-40
2.30849e-40
2.36325e-40
2.37e-40
2.2398e-40
2.08183e-40
1.9389e-40
1.77599e-40
1.58214e-40
1.38496e-40
1.71007e-40
4.09767e-40
3.88982e-40
1.2081e-40
1.48137e-41
1.26653e-40
1.628e-40
1.82439e-40
2.0663e-40
2.34138e-40
2.45509e-40
2.44092e-40
2.35429e-40
2.27216e-40
2.20904e-40
2.26746e-40
5.38789e-41
1.81619e-43
9.3279e-43
8.61226e-43
8.53255e-43
8.54032e-43
8.23103e-43
7.75107e-43
7.28093e-43
6.91353e-43
6.54615e-43
6.00283e-43
5.55059e-43
5.31914e-43
4.42917e-43
7.94211e-43
7.58429e-43
2.02694e-43
2.12098e-43
4.56709e-43
4.75607e-43
5.15004e-43
6.03546e-43
7.52689e-43
8.1099e-43
8.39418e-43
8.55012e-43
8.77188e-43
8.62357e-43
9.03037e-43
2.06585e-43
5.52253e-46
3.34526e-45
2.97846e-45
2.89951e-45
2.82918e-45
2.66916e-45
2.59445e-45
2.59342e-45
2.63974e-45
2.63291e-45
2.43902e-45
2.26048e-45
2.14437e-45
1.94785e-45
1.72569e-45
1.69992e-45
5.13289e-46
1.59263e-45
1.86616e-45
1.68356e-45
1.70071e-45
1.93075e-45
2.56166e-45
2.65795e-45
2.67251e-45
2.78674e-45
3.03022e-45
2.87099e-45
3.00989e-45
7.07571e-46
1.35514e-48
1.16271e-47
9.58292e-48
9.59663e-48
9.42095e-48
9.34335e-48
9.774e-48
1.03694e-47
1.11021e-47
1.10446e-47
9.76511e-48
8.46269e-48
7.46042e-48
6.99996e-48
4.2067e-48
3.90685e-48
3.97659e-48
6.19334e-48
6.82717e-48
6.14887e-48
6.27419e-48
6.9652e-48
9.73982e-48
9.5716e-48
8.79653e-48
8.96268e-48
1.02707e-47
8.48165e-48
8.51304e-48
2.39183e-48
2.96382e-51
4.10614e-50
3.297e-50
3.44336e-50
3.49614e-50
3.65482e-50
3.97238e-50
4.26484e-50
4.49053e-50
4.08297e-50
3.38767e-50
2.60801e-50
2.07205e-50
1.84475e-50
1.40956e-50
1.31242e-50
1.1256e-50
1.74223e-50
1.96369e-50
1.94069e-50
2.16755e-50
2.50716e-50
3.77811e-50
3.76753e-50
3.22716e-50
3.14147e-50
3.78393e-50
2.42339e-50
2.12886e-50
9.00838e-51
5.28127e-54
1.6115e-52
1.25769e-52
1.35198e-52
1.38737e-52
1.45785e-52
1.56129e-52
1.59557e-52
1.53073e-52
1.29769e-52
9.33413e-53
6.35802e-53
4.48849e-53
3.63789e-53
2.8218e-53
2.60313e-53
2.13482e-53
3.63972e-53
4.40904e-53
4.8388e-53
6.14309e-53
8.1505e-53
1.32017e-52
1.43997e-52
1.23491e-52
1.18708e-52
1.51262e-52
7.49115e-53
5.17561e-53
3.81245e-53
8.18501e-57
6.59301e-55
4.90874e-55
5.28919e-55
5.26528e-55
5.3272e-55
5.39211e-55
5.0237e-55
4.35578e-55
3.29869e-55
2.0516e-55
1.21269e-55
7.47791e-56
5.409e-56
4.02231e-56
3.64127e-56
2.89033e-56
5.48127e-56
7.58701e-56
9.53015e-56
1.38251e-55
2.19168e-55
3.90733e-55
4.8283e-55
4.3927e-55
4.36307e-55
5.92301e-55
2.55416e-55
1.38099e-55
1.60736e-55
1.49799e-59
2.4546e-57
1.76902e-57
1.86064e-57
1.755e-57
1.67624e-57
1.54433e-57
1.32314e-57
1.01449e-57
6.67217e-58
3.58218e-58
1.80836e-58
9.57245e-59
6.07418e-59
4.22317e-59
3.68177e-59
2.81726e-59
6.07641e-59
9.77528e-59
1.43044e-58
2.43742e-58
4.51638e-58
9.99418e-58
1.32952e-57
1.34958e-57
1.42146e-57
2.06719e-57
8.65781e-58
4.098e-58
6.07025e-58
2.80116e-62
7.84916e-60
5.50662e-60
5.54386e-60
4.9424e-60
4.38128e-60
3.72896e-60
2.83046e-60
1.91213e-60
1.08592e-60
4.96181e-61
2.10858e-61
9.42972e-62
5.15716e-62
3.296e-62
2.7227e-62
1.91827e-62
4.82644e-62
9.23029e-62
1.60102e-61
3.30199e-61
7.34372e-61
2.08559e-60
3.00844e-60
3.47348e-60
3.9227e-60
6.13054e-60
2.63032e-60
1.20438e-60
1.95375e-60
5.69327e-65
2.11374e-62
1.43888e-62
1.37887e-62
1.1675e-62
9.47944e-63
7.32469e-63
4.95616e-63
2.92467e-63
1.4208e-63
5.46046e-64
1.93099e-64
7.21016e-65
3.34976e-65
1.94864e-65
1.49064e-65
8.67374e-66
2.60474e-65
6.0907e-65
1.27657e-64
3.33399e-64
9.2185e-64
3.40749e-63
5.701e-63
7.29472e-63
9.11372e-63
1.51632e-62
6.79926e-63
3.15001e-63
5.25881e-63
1.10913e-67
4.7368e-65
3.12155e-65
2.84618e-65
2.28271e-65
1.69376e-65
1.18438e-65
7.10472e-66
3.63576e-66
1.49888e-66
4.80798e-67
1.4063e-67
4.37501e-68
1.72268e-68
9.17157e-69
6.24746e-69
3.85082e-69
1.26731e-68
3.75535e-68
1.01382e-67
2.9697e-67
8.61634e-67
4.45512e-66
8.83579e-66
1.25522e-65
1.75601e-65
3.1058e-65
1.46631e-65
6.977e-66
1.17623e-65
1.78878e-70
8.77979e-68
5.63445e-68
4.87136e-68
3.66633e-68
2.49701e-68
1.57546e-68
8.34192e-69
3.68425e-69
1.28379e-69
3.43366e-70
8.38244e-71
2.22822e-71
7.70331e-72
3.95882e-72
2.25469e-72
1.32521e-72
5.24616e-72
1.90786e-71
6.39776e-71
2.30326e-70
7.6044e-70
4.6783e-69
1.11544e-68
1.77787e-68
2.78915e-68
5.25779e-68
2.62263e-68
1.28731e-68
2.18319e-68
2.25997e-73
1.35046e-70
8.44893e-71
6.92058e-71
4.8813e-71
3.04434e-71
1.72902e-71
8.07346e-72
3.07406e-72
9.08392e-73
2.06382e-73
4.41639e-74
1.10491e-74
3.85574e-75
2.17099e-75
1.47463e-75
3.96594e-76
1.68304e-75
7.66135e-75
3.23001e-74
1.44502e-73
5.75019e-73
3.93906e-72
1.15146e-71
2.07641e-71
3.66066e-71
7.36098e-71
3.88703e-71
1.96964e-71
3.36549e-71
2.4798e-76
1.73491e-73
1.05483e-73
8.20928e-74
5.43514e-74
3.09489e-74
1.5826e-74
6.5458e-75
2.16903e-75
5.56868e-76
1.14815e-76
2.4677e-77
6.93123e-78
2.68333e-78
1.65566e-78
1.3779e-78
1.10216e-78
5.58093e-79
2.49028e-78
1.32345e-77
7.42728e-77
3.56034e-76
2.67374e-75
9.80272e-75
2.01215e-74
3.98476e-74
8.53991e-74
4.77858e-74
2.4974e-74
4.31834e-74
2.34625e-79
1.8673e-76
1.10096e-76
8.19466e-77
5.11518e-77
2.65717e-77
1.23227e-77
4.59302e-78
1.36629e-78
3.26475e-79
7.01052e-80
1.75906e-80
5.57717e-81
2.30369e-81
1.47621e-81
1.3179e-81
1.63968e-81
2.2129e-81
1.68206e-81
4.48847e-81
3.12338e-80
1.8164e-79
1.5193e-78
7.01899e-78
1.63562e-77
3.61982e-77
8.23928e-77
4.88185e-77
2.62512e-77
4.62972e-77
2.02682e-82
1.69437e-79
9.67776e-80
6.96911e-80
4.14154e-80
1.9698e-80
8.43995e-81
2.9483e-81
8.43154e-82
2.08369e-82
5.16811e-83
1.45512e-83
4.83957e-84
2.01798e-84
1.29467e-84
1.18006e-84
1.61982e-84
3.01487e-84
5.85064e-84
6.4096e-84
1.09014e-83
7.66275e-83
7.96174e-82
4.379e-81
1.14332e-80
2.77654e-80
6.64703e-80
4.16007e-80
2.29033e-80
4.17696e-80
1.39054e-85
1.31524e-82
7.27281e-83
5.1569e-83
2.96904e-83
1.30488e-83
5.34804e-84
1.86597e-84
5.52652e-85
1.50264e-85
4.0836e-86
1.19138e-86
3.94337e-87
1.62171e-87
1.03127e-87
9.46492e-88
1.34156e-87
2.71148e-87
6.63619e-87
1.73939e-86
3.64993e-86
3.88887e-86
4.73429e-85
2.55523e-84
7.12446e-84
1.82791e-83
4.53006e-83
2.9758e-83
1.66301e-83
3.21209e-83
8.09782e-89
8.94302e-86
4.78008e-86
3.42507e-86
1.95639e-86
8.1236e-87
3.31702e-87
1.21459e-87
3.85673e-88
1.10203e-88
3.0684e-89
8.84942e-90
2.86147e-90
1.15407e-90
7.26046e-91
6.68209e-91
9.63816e-91
2.01849e-90
5.32358e-90
1.67268e-89
5.23769e-89
1.07838e-88
3.35182e-88
1.53086e-87
4.23783e-87
1.06878e-86
2.70735e-86
1.86475e-86
1.00856e-86
2.15447e-86
4.48164e-92
5.50638e-89
2.85081e-89
2.13209e-89
1.23767e-89
4.96677e-90
2.08532e-90
8.11454e-91
2.64346e-91
7.60308e-92
2.08438e-92
5.83907e-93
1.83591e-93
7.25639e-94
4.5171e-94
4.165e-94
6.0948e-94
1.30885e-93
3.59444e-93
1.21637e-92
4.35647e-92
1.33243e-91
4.13628e-91
1.41604e-90
3.40642e-90
6.21713e-90
1.60287e-89
1.04978e-89
5.14832e-90
1.30748e-89
2.89703e-95
3.23388e-92
1.62489e-92
1.30488e-92
7.77705e-93
3.08981e-93
1.33279e-93
5.27728e-94
1.71135e-94
4.81785e-95
1.27883e-95
3.46258e-96
1.0582e-96
4.10166e-97
2.52717e-97
2.33797e-97
3.47255e-97
7.64142e-97
2.16965e-96
7.69684e-96
2.96113e-95
1.04756e-94
3.48148e-94
1.13883e-93
2.65962e-93
4.39839e-93
9.14626e-93
5.58099e-93
2.22719e-93
7.57437e-93
1.3857e-98
1.91334e-95
9.39356e-96
8.17494e-96
4.97894e-96
1.93774e-96
8.38571e-97
3.29435e-97
1.04129e-97
2.83224e-98
7.24256e-99
1.89516e-99
5.63721e-100
2.14606e-100
1.31013e-100
1.21827e-100
1.83985e-100
4.15701e-100
1.2211e-99
4.50515e-99
1.82083e-98
6.96005e-98
2.44564e-97
8.08259e-97
1.92235e-96
3.1101e-96
5.47267e-96
3.01881e-96
8.39089e-97
4.43318e-96
8.07847e-102
1.19285e-98
5.72573e-99
5.22651e-99
3.1754e-99
1.20552e-99
5.16457e-100
1.97748e-100
6.03092e-101
1.5788e-101
3.89109e-102
9.86127e-103
2.86177e-103
1.07222e-103
6.49801e-104
6.07854e-104
9.35061e-104
2.17377e-103
6.61832e-103
2.5333e-102
1.06426e-101
4.27493e-101
1.56911e-100
5.3127e-100
1.29847e-99
2.10644e-99
3.41191e-99
1.76831e-99
3.21107e-100
2.74642e-99
4.32715e-105
7.61441e-102
3.578e-102
3.35198e-102
2.00588e-102
7.40496e-103
3.11255e-103
1.15164e-103
3.37953e-104
8.52211e-105
2.02934e-105
4.99548e-106
1.41815e-106
5.24015e-107
3.1562e-107
2.97256e-107
4.66162e-107
1.11665e-106
3.52835e-106
1.39932e-105
6.07456e-105
2.52961e-104
9.60605e-104
3.33422e-103
8.38767e-103
1.37959e-102
2.15672e-102
1.07678e-102
1.25252e-103
1.74414e-102
2.91257e-108
4.92154e-105
2.26788e-105
2.14268e-105
1.25163e-105
4.48597e-106
1.84319e-106
6.57308e-107
1.85705e-107
4.52118e-108
1.04314e-108
2.5011e-109
6.96268e-110
2.54192e-110
1.52247e-110
1.44397e-110
2.31049e-110
5.70313e-110
1.87081e-109
7.67955e-109
3.43266e-108
1.47161e-107
5.74337e-107
2.03726e-106
5.26694e-106
8.82405e-106
1.37055e-105
6.76102e-106
5.28641e-107
1.12133e-105
1.7322e-111
3.19396e-108
1.44354e-108
1.36154e-108
7.72037e-109
2.68821e-109
1.07888e-109
3.70796e-110
1.01e-110
2.37905e-111
5.33139e-112
1.24745e-112
3.41201e-113
1.23202e-113
7.35165e-114
7.0229e-114
1.14399e-113
2.91342e-113
9.91793e-113
4.20949e-112
1.93369e-111
8.50413e-111
3.3971e-110
1.22731e-109
3.25273e-109
5.55618e-109
8.69869e-109
4.31094e-109
2.58555e-110
7.22902e-109
1.17487e-114
2.07315e-111
9.24096e-112
8.65422e-112
4.74745e-112
1.60602e-112
6.29332e-113
2.08393e-113
5.47661e-114
1.2497e-114
2.72516e-115
6.23434e-116
1.67821e-116
6.02671e-117
3.59405e-117
3.45881e-117
5.72564e-117
1.49556e-116
5.2817e-116
2.31573e-115
1.09216e-114
4.91937e-114
2.00748e-113
7.37121e-113
1.99991e-112
3.48677e-112
5.5288e-112
2.75787e-112
1.58159e-113
4.64942e-112
7.33e-115
1.08766e-114
4.24106e-112
3.05383e-112
1.0714e-112
4.03832e-113
1.26035e-113
3.2124e-114
7.28695e-115
1.61124e-115
3.8353e-116
1.07693e-116
3.34107e-117
1.60378e-117
9.35495e-118
9.08802e-118
1.49583e-117
3.33168e-117
1.05111e-116
3.78773e-116
1.63147e-115
7.58839e-115
3.38858e-114
1.37379e-113
4.96752e-113
1.4102e-112
1.43459e-112
1.50651e-113
1.51669e-113
1.50566e-113
0.999992
0.999988
0.99999
0.999993
0.999996
0.999999
1
1
1
1
1
1
1
1
1
1
1.00001
1
1
0.999998
0.999994
0.999991
0.999991
0.999993
1
1.00001
1.00002
1.00003
1.00004
1.00002
0.999988
0.999987
0.99999
0.999993
0.999997
1
1
1
1
1
1
1
1
1.00001
1.00001
1.00001
1.00001
1
1
0.999996
0.999992
0.99999
0.99999
0.999996
1
1.00002
1.00003
1.00004
1.00004
1.00003
0.999991
0.999991
0.999993
0.999996
0.999999
1
1
1.00001
1.00001
1.00001
1.00001
1.00001
1.00001
1.00001
1.00001
1.00001
1
1
0.999999
0.999997
0.999996
0.999996
0.999998
1
1.00001
1.00001
1.00002
1.00002
1.00002
1.00001
0.999995
0.999995
0.999997
0.999998
1
1
1
1.00001
1.00001
1.00001
1.00001
1.00001
1.00001
1.00001
1.00001
1
1
0.999998
0.999997
0.999998
1
1
1.00001
1.00001
1.00001
1.00001
1.00001
1
0.999998
0.999992
0.999998
1
1
1
1
1
1
1
1.00001
1.00001
1.00001
1.00001
1.00001
1.00001
1
0.999999
0.999996
0.999995
0.999996
0.999999
1
1.00001
1.00001
1.00001
1
0.999998
0.99999
0.999984
0.999978
0.99998
1
1
1
1
0.999998
0.999998
0.999998
0.999999
1
1
1.00001
1.00001
1.00001
1
1
0.999998
0.999996
0.999996
0.999998
1
1
1.00001
1.00001
1
0.999995
0.999987
0.999978
0.999972
0.999969
0.999976
1
1
1
0.999999
0.999996
0.999995
0.999994
0.999995
0.999997
1
1
1
1
1
1
1
1
1
1
1
1
1
0.999999
0.999993
0.999987
0.99998
0.999974
0.99997
0.99997
0.99998
1.00001
1.00001
1
0.999999
0.999996
0.999995
0.999994
0.999994
0.999995
0.999997
0.999999
1
1
1
1.00001
1.00001
1.00001
1.00001
1.00001
1
1
0.999996
0.999991
0.999985
0.999981
0.999977
0.999975
0.999975
0.999977
0.999986
1.00001
1.00001
1.00001
1
1
0.999999
0.999998
0.999997
0.999996
0.999996
0.999997
0.999999
1
1.00001
1.00001
1.00001
1.00001
1.00001
1.00001
1
0.999996
0.99999
0.999985
0.999981
0.999979
0.999978
0.999979
0.999981
0.999982
0.999989
1.00001
1.00001
1.00001
1.00001
1.00001