/*--------------------------------*- C++ -*----------------------------------*\
| =========                 |                                                 |
| \\      /  F ield         | OpenFOAM: The Open Source CFD Toolbox           |
|  \\    /   O peration     | Version:  2312                                  |
|   \\  /    A nd           | Website:  www.openfoam.com                      |
|    \\/     M anipulation  |                                                 |
\*---------------------------------------------------------------------------*/
FoamFile
{
    version     2.0;
    format      ascii;
    arch        "LSB;label=32;scalar=64";
    class       surfaceScalarField;
    location    "0.357759";
    object      alphaPhi0.water;
}
// * * * * * * * * * * * * * * * * * * * * * * * * * * * * * * * * * * * * * //

dimensions      [0 3 -1 0 0 0 0];

oriented        oriented;

internalField   nonuniform List<scalar> 
263100
(
1.68219e-10
-3.36435e-10
1.68219e-10
-1.35231e-10
2.02722e-10
4.36698e-11
-2.91795e-10
7.25757e-11
3.6432e-11
-3.81585e-10
2.48574e-11
1.30548e-11
-4.3022e-10
-1.90313e-11
9.45856e-12
-4.31341e-10
-7.48264e-11
1.15125e-11
-3.88076e-10
-1.29101e-10
1.63503e-11
-3.19417e-10
-1.61864e-10
2.05414e-11
-2.53887e-10
-1.60315e-10
2.12866e-11
-2.07823e-10
-1.27401e-10
9.64873e-12
-1.88573e-10
-7.22102e-11
-1.41822e-11
-1.72997e-10
-1.51701e-11
-6.04953e-11
-1.40326e-10
2.9396e-11
-1.13217e-10
-6.9362e-11
4.66146e-11
-1.58942e-10
5.39931e-11
3.08998e-11
-1.86324e-10
2.16681e-10
-1.69247e-12
-1.85718e-10
3.83368e-10
-4.16861e-11
-1.45626e-10
5.02541e-10
-6.38339e-11
-7.59958e-11
5.34828e-10
-5.31065e-11
-4.26494e-12
4.44319e-10
-1.39882e-11
7.1032e-11
2.33805e-10
3.97025e-11
1.26094e-10
-7.78555e-11
1.06084e-10
1.48219e-10
-4.59588e-10
1.6707e-10
1.44855e-10
-8.36153e-10
1.85331e-10
1.10545e-10
-1.10533e-09
1.1258e-10
6.75553e-11
-1.17469e-09
-6.28581e-11
3.79282e-11
-1.02502e-09
-2.64266e-10
1.83632e-11
-6.68233e-10
-5.0183e-10
5.01164e-11
-1.45166e-10
-7.18106e-10
1.04221e-10
-7.90594e-10
5.60555e-10
-4.6236e-11
-2.97654e-10
-4.6236e-11
-8.48821e-11
1.64467e-10
-2.74837e-11
-1.02319e-10
4.06996e-12
-1.59991e-11
-1.26057e-10
-6.34591e-11
2.87663e-13
-1.42261e-10
-1.39845e-10
1.53561e-11
-1.57368e-10
-2.15103e-10
2.60351e-11
-1.61836e-10
-2.87782e-10
2.95084e-11
-1.55945e-10
-3.25369e-10
2.38147e-11
-1.42532e-10
-3.14004e-10
1.08525e-11
-1.18733e-10
-2.65793e-10
-5.88877e-12
-7.71307e-11
-1.98743e-10
-2.25273e-11
-2.19713e-11
-1.2571e-10
-3.60923e-11
4.53046e-11
-7.18933e-11
-4.02837e-11
1.16481e-10
-4.81903e-11
-3.45646e-11
1.79102e-10
-5.53427e-11
-2.1962e-11
2.12535e-10
-7.59794e-11
2.24824e-12
2.07286e-10
-8.70488e-11
1.19098e-11
1.73906e-10
-7.43381e-11
-2.36469e-12
1.10195e-10
-3.04e-11
-1.94185e-11
1.69039e-11
4.81588e-11
-4.81857e-11
-7.60378e-11
1.12296e-10
-8.00263e-11
-1.68948e-10
1.60833e-10
-8.26444e-11
-2.22727e-10
1.49941e-10
-6.73478e-11
-2.17047e-10
5.77069e-11
-2.91427e-11
-1.66255e-10
-1.32896e-10
3.62172e-11
-7.3871e-11
-4.3463e-10
1.1908e-10
8.71415e-11
-7.82631e-10
2.00281e-10
2.05273e-10
-1.01267e-09
2.42924e-10
1.03887e-10
-1.05743e-09
3.00382e-10
-1.10639e-09
3.15427e-10
-2.92647e-12
-3.42838e-10
-2.92647e-12
9.66754e-11
-8.52315e-11
3.03076e-11
1.58522e-10
-2.14877e-10
4.30485e-11
1.77845e-10
-2.60777e-10
5.86936e-11
1.58704e-10
-3.13795e-10
7.00601e-11
1.15339e-10
-3.65455e-10
6.98329e-11
5.73395e-11
-4.06536e-10
5.52918e-11
7.07138e-12
-4.22044e-10
3.12729e-11
-1.41145e-11
-4.06247e-10
6.79093e-12
3.91136e-12
-3.65877e-10
-1.27217e-11
5.93993e-11
-3.14651e-10
-2.04514e-11
1.4001e-10
-2.57975e-10
-1.44738e-11
2.12734e-10
-2.05475e-10
8.72936e-12
2.40012e-10
-1.60541e-10
4.44464e-11
2.02533e-10
-1.25332e-10
7.42036e-11
9.97879e-11
-8.29075e-11
7.847e-11
-4.73351e-11
-3.33069e-11
5.85537e-11
-2.05998e-10
2.32011e-11
1.75563e-11
-3.26769e-10
7.981e-11
-4.53731e-11
-3.58853e-10
1.22958e-10
-1.12512e-10
-2.90634e-10
1.22909e-10
-1.61685e-10
-1.1871e-10
7.92867e-11
-1.83527e-10
1.33067e-10
-3.02301e-11
-1.71091e-10
4.06674e-10
-2.07866e-10
-1.09614e-10
6.45659e-10
-4.36971e-10
-3.48575e-11
7.775e-10
-7.24557e-10
6.24754e-11
7.47239e-10
-9.82928e-10
1.40744e-10
6.21698e-10
-1.10843e-09
1.37389e-10
2.33938e-10
-8.13096e-10
6.42583e-11
-7.61256e-10
-1.68057e-10
6.44064e-11
-5.39886e-10
6.44064e-11
2.44837e-10
-5.15212e-10
1.03201e-10
3.51564e-10
-5.74239e-10
1.17917e-10
4.04319e-10
-5.78136e-10
1.31196e-10
3.94667e-10
-5.68698e-10
1.35297e-10
3.38535e-10
-5.54172e-10
1.23084e-10
2.58497e-10
-5.35283e-10
9.74301e-11
1.81011e-10
-5.08085e-10
6.48489e-11
1.33335e-10
-4.7708e-10
3.39793e-11
1.29118e-10
-4.44703e-10
1.31644e-11
1.60528e-10
-4.08221e-10
6.30259e-12
2.06431e-10
-3.66463e-10
1.88664e-11
2.25973e-10
-3.06184e-10
4.64629e-11
1.89532e-10
-2.24834e-10
7.09072e-11
9.13881e-11
-1.35657e-10
7.88531e-11
-6.80635e-11
-2.72639e-11
6.98835e-11
-2.55692e-10
7.37721e-11
3.87591e-11
-4.19322e-10
1.44657e-10
-9.37547e-12
-5.03218e-10
1.6547e-10
-6.28644e-11
-4.67425e-10
1.22521e-10
-1.03722e-10
-2.98881e-10
2.19141e-11
-1.39349e-10
-7.48615e-12
-1.31343e-10
-1.51551e-10
3.45656e-10
-3.16171e-10
-1.3302e-10
6.74442e-10
-4.98419e-10
-9.65754e-11
9.03931e-10
-6.54209e-10
-6.25957e-11
9.30826e-10
-7.60044e-10
-3.52082e-11
7.31393e-10
-7.94862e-10
-2.88062e-11
4.32764e-10
-7.89967e-10
-6.01257e-11
9.60283e-11
-4.03928e-10
-1.1718e-10
-3.68128e-10
-3.37477e-10
1.40423e-10
-9.05533e-10
1.40423e-10
3.5891e-10
-1.07562e-09
1.82561e-10
4.92392e-10
-1.04517e-09
1.95947e-10
5.63211e-10
-9.79774e-10
1.97714e-10
5.74671e-10
-8.83636e-10
1.8212e-10
5.35353e-10
-7.76099e-10
1.54656e-10
4.61214e-10
-6.72108e-10
1.20967e-10
3.77105e-10
-5.82856e-10
8.59283e-11
3.05951e-10
-5.21012e-10
5.82258e-11
2.5397e-10
-4.786e-10
4.27771e-11
2.14404e-10
-4.42271e-10
4.07308e-11
1.67916e-10
-3.94054e-10
4.69401e-11
1.03145e-10
-3.18527e-10
5.08007e-11
1.35961e-11
-2.16062e-10
5.05467e-11
-1.11303e-10
-8.53265e-11
3.65926e-11
-2.53418e-10
5.2678e-11
1.42339e-11
-3.77099e-10
1.45949e-10
-6.48178e-12
-4.54124e-10
1.73915e-10
-1.80855e-11
-4.52963e-10
1.18044e-10
-2.33422e-11
-3.52269e-10
-1.81808e-11
-2.81632e-11
-1.57404e-10
-2.07242e-10
-2.73342e-11
1.009e-10
-4.17685e-10
-2.32793e-11
3.66073e-10
-6.11448e-10
-9.51733e-12
5.73863e-10
-7.22385e-10
-1.32504e-11
6.65482e-10
-7.20862e-10
-4.84225e-11
5.96221e-10
-6.16989e-10
-9.73661e-11
3.64113e-10
-4.256e-10
-1.67405e-10
3.41876e-11
-2.6501e-10
-2.37428e-10
-1.74373e-10
5.65823e-11
-3.10197e-10
-1.57777e-10
-4.49394e-10
2.03521e-10
-1.40319e-09
2.03521e-10
4.08497e-10
-1.66468e-09
2.31832e-10
5.51224e-10
-1.54631e-09
2.27622e-10
6.47307e-10
-1.39899e-09
2.05594e-10
6.9614e-10
-1.2075e-09
1.73761e-10
6.98878e-10
-9.96314e-10
1.34503e-10
6.66379e-10
-8.0221e-10
9.81343e-11
6.03565e-10
-6.42233e-10
7.45395e-11
5.12841e-10
-5.2845e-10
6.38662e-11
3.96246e-10
-4.48866e-10
6.1035e-11
2.54377e-10
-3.83289e-10
5.97815e-11
9.54365e-11
-3.17749e-10
5.63907e-11
-6.01218e-11
-2.44233e-10
4.67645e-11
-2.01622e-10
-1.46991e-10
2.61737e-11
-3.11898e-10
-4.436e-11
1.01135e-11
-3.76993e-10
4.27901e-11
4.3189e-12
-3.97344e-10
7.52246e-11
1.29382e-11
-3.62108e-10
2.44502e-11
3.43926e-11
-2.78244e-10
-1.00601e-10
5.95871e-11
-1.52521e-10
-3.05041e-10
9.60383e-11
-1.97045e-11
-5.23999e-10
1.32096e-10
9.30214e-11
-7.33879e-10
1.64763e-10
1.59552e-10
-8.5847e-10
1.51242e-10
1.55808e-10
-8.43443e-10
9.82826e-11
9.22852e-11
-6.94558e-10
4.94219e-12
-3.56086e-11
-4.42114e-10
-9.3472e-11
-1.74034e-10
-1.50432e-10
-2.04015e-10
-3.19928e-10
1.00376e-10
-3.10484e-10
-3.22449e-10
3.03058e-10
-3.57217e-10
-2.24881e-10
-3.68543e-10
2.06292e-10
-1.89977e-09
2.06292e-10
3.8534e-10
-2.18119e-09
2.05832e-10
5.41827e-10
-1.98792e-09
1.74479e-10
6.78665e-10
-1.76537e-09
1.33198e-10
7.92525e-10
-1.49111e-09
9.00804e-11
8.77253e-10
-1.20253e-09
5.93581e-11
9.15874e-10
-9.32236e-10
4.54571e-11
8.89684e-10
-6.98094e-10
4.87697e-11
7.84461e-10
-5.15206e-10
6.60668e-11
6.00714e-10
-3.76261e-10
8.62529e-11
3.5746e-10
-2.67021e-10
9.66813e-11
9.19592e-11
-1.83968e-10
9.05955e-11
-1.55722e-10
-1.24323e-10
7.24959e-11
-3.37548e-10
-9.12195e-11
5.61662e-11
-4.34202e-10
-8.32284e-11
5.3709e-11
-4.43741e-10
-1.053e-10
6.93447e-11
-3.8155e-10
-1.72047e-10
9.74835e-11
-2.75623e-10
-3.01232e-10
1.4009e-10
-1.55487e-10
-4.82594e-10
1.95672e-10
-7.78019e-11
-6.85111e-10
2.51968e-10
-5.70567e-11
-8.87154e-10
3.05872e-10
-1.04227e-10
-1.02174e-09
3.06327e-10
-2.18829e-10
-1.03723e-09
2.63285e-10
-3.70643e-10
-9.19207e-10
1.85609e-10
-5.28369e-10
-6.86912e-10
8.66468e-11
-6.32137e-10
-4.10251e-10
-1.94597e-11
-6.39626e-10
-1.49856e-10
-1.14154e-10
-5.55645e-10
2.25473e-11
-1.53223e-10
-3.52937e-10
8.83451e-11
-1.52304e-10
-5.80773e-10
-1.40087e-10
1.26244e-10
-2.22339e-09
1.26244e-10
3.24688e-10
-2.58872e-09
1.00247e-10
5.15435e-10
-2.32983e-09
5.96155e-11
7.15755e-10
-2.06924e-09
2.45046e-11
9.17285e-10
-1.75943e-09
2.16785e-12
1.09534e-09
-1.43125e-09
5.33509e-13
1.2116e-09
-1.10765e-09
2.11641e-11
1.22752e-09
-8.03968e-10
5.95999e-11
1.12075e-09
-5.39409e-10
1.02282e-10
8.89232e-10
-3.20785e-10
1.42694e-10
5.68191e-10
-1.58768e-10
1.69326e-10
2.18077e-10
-6.73317e-11
1.7663e-10
-9.12562e-11
-5.48597e-11
1.6945e-10
-3.28341e-10
-1.03741e-10
1.68874e-10
-4.5791e-10
-2.12747e-10
1.74296e-10
-4.79776e-10
-3.59675e-10
1.95363e-10
-4.21372e-10
-5.34531e-10
2.34938e-10
-3.39649e-10
-7.19335e-10
2.84557e-10
-2.88407e-10
-9.0941e-10
3.42681e-10
-2.884e-10
-1.08603e-09
3.83691e-10
-3.57276e-10
-1.21333e-09
3.85609e-10
-4.99446e-10
-1.25111e-09
3.58802e-10
-6.81575e-10
-1.19017e-09
3.07137e-10
-8.56689e-10
-1.03625e-09
2.38968e-10
-9.65622e-10
-8.24428e-10
1.62112e-10
-9.76889e-10
-6.24985e-10
1.10266e-10
-8.68585e-10
-4.86184e-10
8.65091e-11
-6.29659e-10
-4.57288e-10
8.4031e-11
-2.87792e-10
-4.97657e-10
8.4912e-11
-1.11342e-09
1.2669e-10
3.23641e-11
-2.34741e-09
3.23641e-11
2.82794e-10
-2.93525e-09
7.45936e-12
5.2706e-10
-2.63554e-09
-1.41638e-11
8.02785e-10
-2.38656e-09
-2.35452e-11
1.08862e-09
-2.08133e-09
-1.67863e-11
1.34612e-09
-1.7396e-09
1.00531e-11
1.52062e-09
-1.37164e-09
5.80537e-11
1.56557e-09
-9.95828e-10
1.20251e-10
1.45913e-09
-6.45541e-10
1.85197e-10
1.21555e-09
-3.51144e-10
2.40705e-10
8.71752e-10
-1.3201e-10
2.74638e-10
4.91384e-10
-3.73437e-11
2.98344e-10
1.32295e-10
-7.0228e-11
3.15702e-10
-1.59742e-10
-2.05787e-10
3.34545e-10
-3.81157e-10
-3.98349e-10
3.54428e-10
-5.23371e-10
-6.25425e-10
3.69923e-10
-6.11298e-10
-8.57329e-10
3.92542e-10
-6.72617e-10
-1.06508e-09
4.09931e-10
-7.32383e-10
-1.23806e-09
4.0853e-10
-8.06813e-10
-1.36512e-09
3.82416e-10
-9.04246e-10
-1.43629e-09
3.46625e-10
-1.0139e-09
-1.43624e-09
3.06539e-10
-1.11257e-09
-1.37718e-09
2.73615e-10
-1.17416e-09
-1.27576e-09
2.60626e-10
-1.16836e-09
-1.15881e-09
2.61079e-10
-1.07152e-09
-1.07196e-09
2.6245e-10
-8.69774e-10
-1.04997e-09
2.64824e-10
-5.79341e-10
-1.11879e-09
2.76156e-10
-2.17025e-10
-1.24446e-09
3.01816e-10
-1.71791e-09
3.45787e-10
9.3025e-13
-2.39877e-09
9.30251e-13
3.19885e-10
-3.3194e-09
1.34395e-13
6.19075e-10
-2.98991e-09
3.04445e-13
9.52332e-10
-2.78112e-09
1.65681e-11
1.28081e-09
-2.49776e-09
5.50641e-11
1.55863e-09
-2.14924e-09
1.1026e-10
1.73543e-09
-1.7365e-09
1.75138e-10
1.77955e-09
-1.28783e-09
2.39515e-10
1.68407e-09
-8.52591e-10
2.94339e-10
1.4792e-09
-4.89595e-10
3.32048e-10
1.18014e-09
-2.12381e-10
3.64029e-10
8.30765e-10
-9.72365e-11
3.91568e-10
4.59451e-10
-1.37122e-10
4.22744e-10
9.42171e-11
-2.96554e-10
4.48988e-10
-2.69876e-10
-4.94409e-10
4.67781e-10
-6.12024e-10
-7.29192e-10
4.72364e-10
-9.20994e-10
-9.6062e-10
4.58065e-10
-1.17229e-09
-1.15977e-09
4.07257e-10
-1.3551e-09
-1.32887e-09
3.42479e-10
-1.47296e-09
-1.45431e-09
2.73421e-10
-1.5187e-09
-1.56441e-09
2.27924e-10
-1.50815e-09
-1.62578e-09
2.13956e-10
-1.45496e-09
-1.64222e-09
2.25825e-10
-1.36398e-09
-1.62938e-09
2.5919e-10
-1.22181e-09
-1.6136e-09
2.99666e-10
-1.01938e-09
-1.62721e-09
3.40308e-10
-7.51365e-10
-1.70112e-09
3.80093e-10
-4.41904e-10
-1.83011e-09
4.13765e-10
-1.28067e-10
-1.97028e-09
4.39021e-10
-2.2667e-09
4.64336e-10
8.53155e-11
-2.60551e-09
8.53155e-11
4.68447e-10
-3.84436e-09
1.12383e-10
7.93091e-10
-3.47671e-09
1.41032e-10
1.11972e-09
-3.2959e-09
1.77687e-10
1.40419e-09
-3.01513e-09
2.34007e-10
1.61442e-09
-2.64161e-09
2.937e-10
1.73231e-09
-2.17903e-09
3.44009e-10
1.76252e-09
-1.66295e-09
3.68755e-10
1.71688e-09
-1.15238e-09
3.70896e-10
1.59756e-09
-7.09731e-10
3.65207e-10
1.41772e-09
-3.98247e-10
3.92537e-10
1.14688e-09
-2.12952e-10
4.17291e-10
7.90349e-10
-1.90935e-10
4.49074e-10
3.41877e-10
-2.69415e-10
4.72004e-10
-1.74408e-10
-3.81903e-10
4.6858e-10
-7.17336e-10
-5.47398e-10
4.39231e-10
-1.2318e-09
-7.38278e-10
3.79239e-10
-1.65298e-09
-9.50878e-10
3.01404e-10
-1.92719e-09
-1.1831e-09
2.11539e-10
-2.04525e-09
-1.42854e-09
1.62798e-10
-2.0342e-09
-1.66787e-09
1.47423e-10
-1.92683e-09
-1.85873e-09
1.67241e-10
-1.75114e-09
-1.99222e-09
2.09404e-10
-1.52629e-09
-2.07933e-09
2.6324e-10
-1.26227e-09
-2.14652e-09
3.19517e-10
-9.61311e-10
-2.23158e-09
3.72558e-10
-6.38718e-10
-2.35382e-09
4.18472e-10
-3.24856e-10
-2.49814e-09
4.56536e-10
-5.65527e-11
-2.61596e-09
4.84163e-10
-2.75104e-09
5.17907e-10
3.3136e-10
-3.28192e-09
3.3136e-10
6.8606e-10
-4.55161e-09
3.69941e-10
9.68168e-10
-4.16349e-09
4.27019e-10
1.20077e-09
-3.96093e-09
4.6366e-10
1.36024e-09
-3.64939e-09
5.14307e-10
1.45695e-09
-3.21581e-09
5.23363e-10
1.51504e-09
-2.68375e-09
4.96394e-10
1.55663e-09
-2.10134e-09
4.48384e-10
1.59156e-09
-1.53567e-09
4.00781e-10
1.60976e-09
-1.04653e-09
3.72447e-10
1.56288e-09
-6.60097e-10
3.66047e-10
1.39595e-09
-3.83136e-10
4.00533e-10
1.05938e-09
-1.99752e-10
4.17007e-10
5.49349e-10
-1.06075e-10
4.26775e-10
-7.60739e-11
-8.24501e-11
4.12064e-10
-7.55562e-10
-1.40574e-10
3.59619e-10
-1.40214e-09
-3.0004e-10
2.89337e-10
-1.9161e-09
-5.83687e-10
2.15276e-10
-2.24246e-09
-9.63944e-10
1.59335e-10
-2.39165e-09
-1.39134e-09
1.48433e-10
-2.38116e-09
-1.81582e-09
1.64234e-10
-2.2461e-09
-2.17011e-09
2.03666e-10
-2.02418e-09
-2.42932e-09
2.54849e-10
-1.73749e-09
-2.61002e-09
3.05684e-10
-1.39573e-09
-2.75322e-09
3.53002e-10
-1.01501e-09
-2.89897e-09
3.98552e-10
-6.29088e-10
-3.05697e-09
4.43977e-10
-2.87536e-10
-3.20062e-09
4.89944e-10
-2.57319e-11
-3.2878e-09
5.29403e-10
-3.27806e-09
5.852e-10
6.8014e-10
-4.62712e-09
6.8014e-10
8.68433e-10
-5.38006e-09
7.01991e-10
1.06288e-09
-5.03491e-09
7.37078e-10
1.17443e-09
-4.73542e-09
7.25762e-10
1.21787e-09
-4.32874e-09
6.99319e-10
1.2287e-09
-3.80559e-09
6.40602e-10
1.25718e-09
-3.21403e-09
5.60154e-10
1.34457e-09
-2.60747e-09
4.73627e-10
1.48738e-09
-2.03259e-09
4.06871e-10
1.63821e-09
-1.52519e-09
3.81037e-10
1.7005e-09
-1.05168e-09
3.85797e-10
1.59279e-09
-6.13029e-10
3.9927e-10
1.26174e-09
-2.22585e-10
4.2045e-10
7.22944e-10
1.01716e-10
3.99381e-10
4.58391e-11
3.01723e-10
3.57411e-10
-6.82818e-10
3.23035e-10
3.18639e-10
-1.3637e-09
1.38829e-10
2.7853e-10
-1.88629e-09
-2.93559e-10
2.48985e-10
-2.26075e-09
-8.34148e-10
2.43393e-10
-2.47398e-09
-1.45616e-09
2.6679e-10
-2.54669e-09
-2.05622e-09
3.03787e-10
-2.49782e-09
-2.55565e-09
3.4224e-10
-2.33621e-09
-2.93764e-09
3.77208e-10
-2.05947e-09
-3.23459e-09
4.07146e-10
-1.67696e-09
-3.48927e-09
4.38004e-10
-1.22969e-09
-3.72424e-09
4.77694e-10
-7.80494e-10
-3.93082e-09
5.26785e-10
-3.90463e-10
-4.07527e-09
5.7797e-10
-8.58539e-11
-4.13319e-09
6.19817e-10
-3.97976e-09
6.64965e-10
9.6845e-10
-6.52418e-09
9.6845e-10
9.97207e-10
-6.20565e-09
8.85224e-10
1.1099e-09
-5.92118e-09
8.51682e-10
1.1658e-09
-5.52671e-09
8.07369e-10
1.16786e-09
-5.00921e-09
7.41345e-10
1.17328e-09
-4.41729e-09
6.58307e-10
1.24124e-09
-3.81141e-09
5.70692e-10
1.40535e-09
-3.23171e-09
4.9275e-10
1.63225e-09
-2.68922e-09
4.57409e-10
1.83126e-09
-2.15338e-09
4.56089e-10
1.89881e-09
-1.56242e-09
4.72663e-10
1.76165e-09
-9.26456e-10
4.83754e-10
1.40844e-09
-3.08291e-10
4.73908e-10
8.63043e-10
2.32065e-10
4.47141e-10
2.02883e-10
5.59006e-10
4.25637e-10
-4.75287e-10
6.13146e-10
3.95448e-10
-1.10769e-09
3.70128e-10
3.89883e-10
-1.65073e-09
-1.95522e-10
4.16635e-10
-2.10041e-09
-8.84943e-10
4.6173e-10
-2.44462e-09
-1.66169e-09
5.11353e-10
-2.68042e-09
-2.3967e-09
5.50002e-10
-2.79125e-09
-3.03087e-09
5.80906e-10
-2.74374e-09
-3.55722e-09
5.91301e-10
-2.50992e-09
-4.01337e-09
5.84982e-10
-2.11959e-09
-4.42312e-09
5.95457e-10
-1.64104e-09
-4.77992e-09
6.30308e-10
-1.1534e-09
-5.04892e-09
6.76542e-10
-7.07759e-10
-5.20002e-09
7.15165e-10
-3.08385e-10
-5.23224e-09
7.28776e-10
-4.97778e-09
7.07243e-10
1.03539e-09
-8.54318e-09
1.03539e-09
1.03859e-09
-6.99655e-09
8.82007e-10
1.19441e-09
-6.82036e-09
8.20826e-10
1.32638e-09
-6.35033e-09
7.55906e-10
1.42993e-09
-5.75595e-09
6.91267e-10
1.55311e-09
-5.14405e-09
6.34566e-10
1.72626e-09
-4.56851e-09
5.99446e-10
1.95428e-09
-4.04327e-09
5.87401e-10
2.16405e-09
-3.5126e-09
6.10893e-10
2.27618e-09
-2.89873e-09
6.28873e-10
2.21654e-09
-2.15347e-09
6.48119e-10
1.95497e-09
-1.307e-09
6.42149e-10
1.51991e-09
-4.781e-10
6.05468e-10
9.77149e-10
2.10653e-10
5.61157e-10
3.713e-10
6.04288e-10
5.49197e-10
-2.39587e-10
6.46639e-10
5.54437e-10
-8.37558e-10
3.33155e-10
6.00502e-10
-1.42629e-09
-3.14958e-10
6.66456e-10
-1.98799e-09
-1.09846e-09
7.33727e-10
-2.50375e-09
-1.95936e-09
7.80602e-10
-2.93336e-09
-2.7818e-09
7.96844e-10
-3.20527e-09
-3.54438e-09
7.84137e-10
-3.25692e-09
-4.25421e-09
7.60284e-10
-3.07756e-09
-4.92407e-09
7.48455e-10
-2.71251e-09
-5.53135e-09
7.57867e-10
-2.23679e-09
-6.02353e-09
7.75221e-10
-1.72274e-09
-6.34989e-09
7.87065e-10
-1.20785e-09
-6.49642e-09
7.79352e-10
-6.75622e-10
-6.50178e-09
7.39111e-10
-6.31052e-09
6.61621e-10
9.27069e-10
-1.0345e-08
9.27069e-10
1.14424e-09
-7.89323e-09
7.71594e-10
1.49735e-09
-7.81729e-09
7.17031e-10
1.8459e-09
-7.31019e-09
6.68577e-10
2.16758e-09
-6.69378e-09
6.5445e-10
2.478e-09
-6.10713e-09
6.71286e-10
2.77052e-09
-5.57317e-09
7.1304e-10
3.00052e-09
-5.05242e-09
7.66358e-10
3.08451e-09
-4.44019e-09
8.22279e-10
2.97383e-09
-3.66947e-09
8.56446e-10
2.66604e-09
-2.72663e-09
8.55747e-10
2.20287e-09
-1.69062e-09
8.22698e-10
1.65498e-09
-7.1945e-10
7.6558e-10
1.08572e-09
2.16204e-11
7.33169e-10
4.95877e-10
4.25605e-10
7.4019e-10
-1.07391e-10
4.35659e-10
7.82542e-10
-7.37836e-10
8.08292e-11
8.49968e-10
-1.43393e-09
-5.68454e-10
9.20032e-10
-2.15086e-09
-1.37827e-09
9.75259e-10
-2.84783e-09
-2.26251e-09
9.89781e-10
-3.42529e-09
-3.17358e-09
9.69545e-10
-3.79306e-09
-4.10388e-09
9.33854e-10
-3.90391e-09
-5.04255e-09
9.05392e-10
-3.77106e-09
-5.94822e-09
8.9123e-10
-3.45222e-09
-6.74383e-09
8.85004e-10
-3.01095e-09
-7.35169e-09
8.7236e-10
-2.48113e-09
-7.73338e-09
8.39812e-10
-1.85794e-09
-7.90889e-09
7.83405e-10
-1.10165e-09
-7.95994e-09
7.07639e-10
-8.026e-09
6.28658e-10
7.85518e-10
-1.18646e-08
7.85518e-10
1.43704e-09
-9.13352e-09
6.8272e-10
2.11926e-09
-9.10992e-09
6.86326e-10
2.77591e-09
-8.59243e-09
6.85496e-10
3.38109e-09
-8.00377e-09
7.45046e-10
3.90525e-09
-7.43164e-09
8.19509e-10
4.27331e-09
-6.85401e-09
9.12235e-10
4.40096e-09
-6.19932e-09
1.00251e-09
4.25805e-09
-5.38646e-09
1.06108e-09
3.85491e-09
-4.38447e-09
1.08347e-09
3.26012e-09
-3.23371e-09
1.0647e-09
2.58138e-09
-2.05658e-09
1.00774e-09
1.89126e-09
-1.03247e-09
9.67832e-10
1.22978e-09
-3.11416e-10
9.6157e-10
5.5588e-10
7.49119e-11
9.94928e-10
-1.59473e-10
7.01141e-11
1.05629e-09
-9.35667e-10
-2.80368e-10
1.12052e-09
-1.80018e-09
-8.79662e-10
1.16917e-09
-2.6903e-09
-1.67384e-09
1.19038e-09
-3.51569e-09
-2.60225e-09
1.17898e-09
-4.17202e-09
-3.64867e-09
1.14913e-09
-4.58819e-09
-4.79152e-09
1.11853e-09
-4.74375e-09
-5.97642e-09
1.09556e-09
-4.66499e-09
-7.10685e-09
1.0759e-09
-4.39316e-09
-8.07243e-09
1.0466e-09
-3.94967e-09
-8.8004e-09
9.97051e-10
-3.32225e-09
-9.28371e-09
9.26113e-10
-2.48228e-09
-9.57361e-09
8.46183e-10
-1.42044e-09
-9.77727e-09
7.96354e-10
-1.02091e-08
8.16645e-10
8.01262e-10
-1.3412e-08
8.01262e-10
1.95291e-09
-1.10271e-08
8.39128e-10
3.02593e-09
-1.09939e-08
8.90275e-10
4.02696e-09
-1.04383e-08
9.07324e-10
4.91464e-09
-9.8272e-09
9.77543e-10
5.59699e-09
-9.1662e-09
1.07202e-09
5.96979e-09
-8.40722e-09
1.17986e-09
5.96619e-09
-7.47961e-09
1.26691e-09
5.59224e-09
-6.35285e-09
1.31228e-09
4.9211e-09
-5.06414e-09
1.31721e-09
4.07756e-09
-3.71344e-09
1.28906e-09
3.18599e-09
-2.456e-09
1.25988e-09
2.30891e-09
-1.43575e-09
1.2548e-09
1.43153e-09
-7.34597e-10
1.28226e-09
5.41253e-10
-3.82486e-10
1.33826e-09
-4.12472e-10
-3.72161e-10
1.39736e-09
-1.44397e-09
-6.76631e-10
1.44164e-09
-2.52174e-09
-1.24252e-09
1.46738e-09
-3.5681e-09
-2.04881e-09
1.45862e-09
-4.48692e-09
-3.07754e-09
1.43636e-09
-5.19619e-09
-4.31196e-09
1.41212e-09
-5.65053e-09
-5.69826e-09
1.39082e-09
-5.84536e-09
-7.13259e-09
1.36765e-09
-5.797e-09
-8.4805e-09
1.33156e-09
-5.50798e-09
-9.63394e-09
1.27703e-09
-4.95604e-09
-1.05438e-08
1.20654e-09
-4.11225e-09
-1.12236e-08
1.13343e-09
-2.96824e-09
-1.17616e-08
1.1101e-09
-1.57633e-09
-1.22238e-08
1.1492e-09
-1.28894e-08
1.20701e-09
1.10092e-09
-1.55559e-08
1.10092e-09
2.71465e-09
-1.37357e-08
1.1819e-09
4.15725e-09
-1.35774e-08
1.20852e-09
5.47182e-09
-1.2953e-08
1.25012e-09
6.5779e-09
-1.22296e-08
1.32706e-09
7.3617e-09
-1.13585e-08
1.42086e-09
7.72052e-09
-1.02822e-08
1.51399e-09
7.61146e-09
-8.96656e-09
1.58489e-09
7.07269e-09
-7.45067e-09
1.62298e-09
6.21133e-09
-5.84812e-09
1.63492e-09
5.16854e-09
-4.31049e-09
1.63666e-09
4.04649e-09
-2.97956e-09
1.65172e-09
2.88464e-09
-1.94672e-09
1.68857e-09
1.6839e-09
-1.24537e-09
1.73665e-09
4.30174e-10
-8.80848e-10
1.78677e-09
-8.7931e-10
-8.4288e-10
1.82519e-09
-2.2185e-09
-1.12009e-09
1.83855e-09
-3.53229e-09
-1.69704e-09
1.8339e-09
-4.74513e-09
-2.57694e-09
1.81181e-09
-5.77071e-09
-3.76585e-09
1.78237e-09
-6.54979e-09
-5.22807e-09
1.75251e-09
-7.05226e-09
-6.87351e-09
1.71748e-09
-7.26755e-09
-8.56779e-09
1.67221e-09
-7.1801e-09
-1.01702e-08
1.61298e-09
-6.7586e-09
-1.15843e-08
1.54215e-09
-5.96752e-09
-1.27859e-08
1.48237e-09
-4.81023e-09
-1.38051e-08
1.48554e-09
-3.32287e-09
-1.46747e-08
1.51965e-09
-1.63357e-09
-1.53719e-08
1.57643e-09
-1.60468e-08
1.6231e-09
1.5524e-09
-1.86114e-08
1.5524e-09
3.58914e-09
-1.73367e-08
1.62239e-09
5.38633e-09
-1.69842e-08
1.6499e-09
7.0004e-09
-1.62409e-08
1.70028e-09
8.31643e-09
-1.5306e-08
1.77526e-09
9.20543e-09
-1.41036e-08
1.86408e-09
9.57206e-09
-1.25904e-08
1.94888e-09
9.40311e-09
-1.07981e-08
2.014e-09
8.76786e-09
-8.84917e-09
2.05873e-09
7.77439e-09
-6.91369e-09
2.09818e-09
6.53205e-09
-5.15747e-09
2.14213e-09
5.11867e-09
-3.69638e-09
2.19341e-09
3.57864e-09
-2.58082e-09
2.24336e-09
1.93963e-09
-1.81872e-09
2.28403e-09
2.29897e-10
-1.40503e-09
2.30657e-09
-1.50281e-09
-1.34006e-09
2.304e-09
-3.2044e-09
-1.62462e-09
2.28216e-09
-4.80362e-09
-2.26832e-09
2.24653e-09
-6.22258e-09
-3.28959e-09
2.20187e-09
-7.39794e-09
-4.68729e-09
2.15267e-09
-8.28137e-09
-6.40734e-09
2.09616e-09
-8.83423e-09
-8.34e-09
2.02757e-09
-9.02034e-09
-1.03485e-08
1.95543e-09
-8.7974e-09
-1.23005e-08
1.89006e-09
-8.13781e-09
-1.41046e-08
1.85484e-09
-7.02592e-09
-1.57165e-08
1.83762e-09
-5.50512e-09
-1.71366e-08
1.85628e-09
-3.71016e-09
-1.83166e-08
1.90702e-09
-1.81236e-09
-1.91492e-08
1.93218e-09
-1.97671e-08
1.90876e-09
2.07857e-09
-2.27402e-08
2.07857e-09
4.53995e-09
-2.19088e-08
2.13823e-09
6.7373e-09
-2.13385e-08
2.17405e-09
8.67372e-09
-2.04061e-08
2.24197e-09
1.02086e-08
-1.91564e-08
2.3299e-09
1.1214e-08
-1.75108e-08
2.42387e-09
1.16189e-08
-1.54677e-08
2.50832e-09
1.14341e-08
-1.3136e-08
2.57623e-09
1.07336e-08
-1.07099e-08
2.63314e-09
9.60516e-09
-8.39188e-09
2.69351e-09
8.1217e-09
-6.33933e-09
2.76003e-09
6.34917e-09
-4.64878e-09
2.81873e-09
4.34927e-09
-3.35423e-09
2.85871e-09
2.19892e-09
-2.46405e-09
2.86886e-09
-1.68287e-11
-1.97916e-09
2.85105e-09
-2.22074e-09
-1.90151e-09
2.81692e-09
-4.33608e-09
-2.23705e-09
2.77089e-09
-6.28185e-09
-3.00182e-09
2.71115e-09
-7.98087e-09
-4.21788e-09
2.64097e-09
-9.36593e-09
-5.87713e-09
2.56266e-09
-1.03795e-08
-7.91658e-09
2.48179e-09
-1.09671e-08
-1.02188e-08
2.40281e-09
-1.10725e-08
-1.2643e-08
2.32941e-09
-1.06538e-08
-1.50515e-08
2.27406e-09
-9.70161e-09
-1.73385e-08
2.24822e-09
-8.2523e-09
-1.94304e-08
2.25402e-09
-6.41555e-09
-2.12615e-08
2.28142e-09
-4.35263e-09
-2.27012e-08
2.29082e-09
-2.20714e-09
-2.36221e-08
2.25221e-09
-2.42775e-08
2.18774e-09
2.66287e-09
-2.80562e-08
2.66287e-09
5.63917e-09
-2.75992e-08
2.73339e-09
8.30533e-09
-2.67903e-08
2.80402e-09
1.05956e-08
-2.55769e-08
2.90493e-09
1.23541e-08
-2.38896e-08
3.00971e-09
1.34729e-08
-2.16835e-08
3.10284e-09
1.3921e-08
-1.9031e-08
3.17993e-09
1.37354e-08
-1.61119e-08
3.2408e-09
1.29731e-08
-1.31545e-08
3.29609e-09
1.16801e-08
-1.03663e-08
3.35775e-09
9.90458e-09
-7.90441e-09
3.42199e-09
7.71801e-09
-5.86434e-09
3.46632e-09
5.21841e-09
-4.2957e-09
3.48428e-09
2.52749e-09
-3.22741e-09
3.47834e-09
-2.31711e-10
-2.66386e-09
3.45419e-09
-2.95729e-09
-2.59257e-09
3.41782e-09
-5.55692e-09
-3.01227e-09
3.36681e-09
-7.93303e-09
-3.94782e-09
3.2989e-09
-9.98967e-09
-5.42334e-09
3.21558e-09
-1.16391e-08
-7.42724e-09
3.12621e-09
-1.28045e-08
-9.88262e-09
3.03833e-09
-1.34171e-08
-1.26617e-08
2.96071e-09
-1.34283e-08
-1.56093e-08
2.90264e-09
-1.28164e-08
-1.85723e-08
2.86757e-09
-1.1601e-08
-2.14224e-08
2.85478e-09
-9.85824e-09
-2.40378e-08
2.85233e-09
-7.7248e-09
-2.62681e-08
2.82793e-09
-5.32827e-09
-2.7953e-08
2.75872e-09
-2.72939e-09
-2.90225e-08
2.66712e-09
-2.975e-08
2.63932e-09
3.35624e-09
-3.47601e-08
3.35624e-09
6.95771e-09
-3.46284e-08
3.46645e-09
1.01503e-08
-3.35169e-08
3.57602e-09
1.28168e-08
-3.1886e-08
3.69213e-09
1.48039e-08
-2.96139e-08
3.79415e-09
1.6048e-08
-2.67465e-08
3.88218e-09
1.65689e-08
-2.34111e-08
3.92628e-09
1.64009e-08
-1.98408e-08
3.96327e-09
1.55589e-08
-1.62719e-08
4.01857e-09
1.40608e-08
-1.29089e-08
4.08529e-09
1.19477e-08
-9.91393e-09
4.14742e-09
9.30997e-09
-7.41228e-09
4.19054e-09
6.28411e-09
-5.49413e-09
4.21539e-09
3.02165e-09
-4.20401e-09
4.22619e-09
-3.38602e-10
-3.53572e-09
4.22384e-09
-3.67743e-09
-3.46193e-09
4.20641e-09
-6.86649e-09
-3.98856e-09
4.1634e-09
-9.77051e-09
-5.15093e-09
4.09366e-09
-1.22599e-08
-6.97322e-09
4.00674e-09
-1.42226e-08
-9.42866e-09
3.91672e-09
-1.55686e-08
-1.2416e-08
3.83522e-09
-1.62352e-08
-1.57849e-08
3.77169e-09
-1.61897e-08
-1.93568e-08
3.7236e-09
-1.54287e-08
-2.29649e-08
3.68441e-09
-1.39931e-08
-2.64505e-08
3.64646e-09
-1.19782e-08
-2.96237e-08
3.5893e-09
-9.4935e-09
-3.22753e-08
3.48828e-09
-6.60427e-09
-3.42625e-08
3.35686e-09
-3.35119e-09
-3.55937e-08
3.27719e-09
-3.63768e-08
3.31478e-09
4.20981e-09
-4.31551e-08
4.20981e-09
8.50538e-09
-4.32084e-08
4.34976e-09
1.22617e-08
-4.16754e-08
4.46559e-09
1.53364e-08
-3.94791e-08
4.58173e-09
1.76071e-08
-3.64972e-08
4.67179e-09
1.90688e-08
-3.2853e-08
4.69702e-09
1.97324e-08
-2.87599e-08
4.72712e-09
1.95987e-08
-2.44642e-08
4.7853e-09
1.86568e-08
-2.01862e-08
4.86764e-09
1.69089e-08
-1.6126e-08
4.95914e-09
1.44102e-08
-1.2477e-08
5.04319e-09
1.12778e-08
-9.41681e-09
5.11611e-09
7.67185e-09
-7.07438e-09
5.17714e-09
3.75164e-09
-5.49587e-09
5.22662e-09
-3.31254e-10
-4.66807e-09
5.25668e-09
-4.41032e-09
-4.57715e-09
5.2543e-09
-8.31075e-09
-5.2402e-09
5.21456e-09
-1.18453e-08
-6.70537e-09
5.13975e-09
-1.48486e-08
-8.98148e-09
5.04892e-09
-1.71906e-08
-1.20057e-08
4.95711e-09
-1.87812e-08
-1.56395e-08
4.87465e-09
-1.95681e-08
-1.97017e-08
4.79982e-09
-1.95244e-08
-2.40025e-08
4.72387e-09
-1.86534e-08
-2.83627e-08
4.64198e-09
-1.70048e-08
-3.25695e-08
4.54312e-09
-1.4662e-08
-3.63594e-08
4.41222e-09
-1.16835e-08
-3.95055e-08
4.24781e-09
-8.1053e-09
-4.19247e-08
4.11175e-09
-4.05966e-09
-4.36328e-08
4.0862e-09
-4.44648e-08
4.14605e-09
5.21457e-09
-5.3543e-08
5.21457e-09
1.02365e-08
-5.35042e-08
5.34593e-09
1.46243e-08
-5.14632e-08
5.4628e-09
1.82185e-08
-4.8537e-08
5.51776e-09
2.09317e-08
-4.472e-08
5.5521e-09
2.27339e-08
-4.02278e-08
5.60178e-09
2.36135e-08
-3.53099e-08
5.68525e-09
2.35355e-08
-3.0191e-08
5.80485e-09
2.2463e-08
-2.50715e-08
5.94463e-09
2.04086e-08
-2.01746e-08
6.08255e-09
1.74564e-08
-1.57532e-08
6.21224e-09
1.37467e-08
-1.20366e-08
6.33237e-09
9.44294e-09
-9.1773e-09
6.44185e-09
4.71502e-09
-7.22557e-09
6.52908e-09
-2.50147e-10
-6.18483e-09
6.5805e-09
-5.22841e-09
-6.07246e-09
6.57992e-09
-9.9744e-09
-6.92915e-09
6.5297e-09
-1.42539e-08
-8.79485e-09
6.44495e-09
-1.7872e-08
-1.16419e-08
6.34591e-09
-2.06898e-08
-1.53523e-08
6.24323e-09
-2.26179e-08
-1.97479e-08
6.13919e-09
-2.35968e-08
-2.4632e-08
6.02551e-09
-2.35891e-08
-2.9812e-08
5.89987e-09
-2.26066e-08
-3.50557e-08
5.7562e-09
-2.06951e-08
-4.00722e-08
5.57855e-09
-1.78961e-08
-4.45597e-08
5.36924e-09
-1.42302e-08
-4.83455e-08
5.18131e-09
-9.80693e-09
-5.13697e-08
5.09102e-09
-4.89258e-09
-5.35497e-08
5.0899e-09
-5.44713e-08
5.13032e-09
6.33579e-09
-6.61713e-08
6.33579e-09
1.21552e-08
-6.56926e-08
6.41895e-09
1.73322e-08
-6.30602e-08
6.45914e-09
2.16576e-08
-5.93393e-08
6.50737e-09
2.50131e-08
-5.46423e-08
6.58919e-09
2.73159e-08
-4.92324e-08
6.71672e-09
2.84859e-08
-4.33665e-08
6.89381e-09
2.84476e-08
-3.72536e-08
7.10055e-09
2.71759e-08
-3.11141e-08
7.30888e-09
2.47241e-08
-2.52294e-08
7.50374e-09
2.12058e-08
-1.9915e-08
7.69182e-09
1.67807e-08
-1.54426e-08
7.86918e-09
1.16079e-08
-1.19633e-08
8.02757e-09
5.88005e-09
-9.55011e-09
8.1436e-09
-1.58392e-10
-8.25352e-09
8.20192e-09
-6.20689e-09
-8.13689e-09
8.19095e-09
-1.19456e-08
-9.26508e-09
8.12718e-09
-1.71011e-08
-1.16347e-08
8.03161e-09
-2.14621e-08
-1.5161e-08
7.92112e-09
-2.48789e-08
-1.9675e-08
7.7991e-09
-2.72454e-08
-2.49698e-08
7.65643e-09
-2.84778e-08
-3.08465e-08
7.49048e-09
-2.85352e-08
-3.70709e-08
7.30389e-09
-2.74125e-08
-4.33288e-08
7.07962e-09
-2.51283e-08
-4.92565e-08
6.80946e-09
-2.16761e-08
-5.46014e-08
6.5395e-09
-1.71409e-08
-5.92331e-08
6.36925e-09
-1.17763e-08
-6.30075e-08
6.30381e-09
-5.91106e-09
-6.57119e-08
6.25752e-09
-6.67269e-08
6.24438e-09
7.53977e-09
-8.12233e-08
7.53977e-09
1.44079e-08
-8.01057e-08
7.55413e-09
2.06338e-08
-7.68763e-08
7.59569e-09
2.59365e-08
-7.23441e-08
7.70824e-09
3.01242e-08
-6.67056e-08
7.88602e-09
3.3032e-08
-6.02517e-08
8.12682e-09
3.4513e-08
-5.32399e-08
8.4099e-09
3.44802e-08
-4.59058e-08
8.70224e-09
3.29457e-08
-3.85413e-08
8.97967e-09
3.00061e-08
-3.15104e-08