/*--------------------------------*- C++ -*----------------------------------*\
| =========                 |                                                 |
| \\      /  F ield         | OpenFOAM: The Open Source CFD Toolbox           |
|  \\    /   O peration     | Version:  2312                                  |
|   \\  /    A nd           | Website:  www.openfoam.com                      |
|    \\/     M anipulation  |                                                 |
\*---------------------------------------------------------------------------*/
FoamFile
{
    version     2.0;
    format      ascii;
    arch        "LSB;label=32;scalar=64";
    class       volScalarField;
    location    "0.357759";
    object      epsilon;
}
// * * * * * * * * * * * * * * * * * * * * * * * * * * * * * * * * * * * * * //

dimensions      [0 2 -3 0 0 0 0];

internalField   nonuniform List<scalar> 
90000
(
1.445e-05
1.44503e-05
1.44503e-05
1.44503e-05
1.44504e-05
1.44504e-05
1.44503e-05
1.44503e-05
1.44503e-05
1.44503e-05
1.44503e-05
1.44502e-05
1.44502e-05
1.44502e-05
1.44502e-05
1.44501e-05
1.44502e-05
1.44502e-05
1.44502e-05
1.44503e-05
1.44503e-05
1.44503e-05
1.44503e-05
1.44504e-05
1.44505e-05
1.44505e-05
1.44505e-05
1.44504e-05
1.44503e-05
1.44501e-05
1.44504e-05
1.44599e-05
1.44601e-05
1.44601e-05
1.44601e-05
1.44601e-05
1.44601e-05
1.44601e-05
1.44601e-05
1.446e-05
1.446e-05
1.446e-05
1.44599e-05
1.44599e-05
1.44598e-05
1.44598e-05
1.44598e-05
1.44599e-05
1.44599e-05
1.44599e-05
1.446e-05
1.446e-05
1.44601e-05
1.44601e-05
1.44601e-05
1.44601e-05
1.44601e-05
1.44602e-05
1.44601e-05
1.44512e-05
1.44504e-05
1.44601e-05
1.44604e-05
1.44604e-05
1.44604e-05
1.44604e-05
1.44604e-05
1.44603e-05
1.44603e-05
1.44603e-05
1.44603e-05
1.44602e-05
1.44602e-05
1.44602e-05
1.44601e-05
1.44601e-05
1.44601e-05
1.44602e-05
1.44602e-05
1.44603e-05
1.44603e-05
1.44603e-05
1.44603e-05
1.44603e-05
1.44603e-05
1.44604e-05
1.44604e-05
1.44602e-05
1.44597e-05
1.44506e-05
1.44504e-05
1.44601e-05
1.44604e-05
1.44604e-05
1.44604e-05
1.44604e-05
1.44604e-05
1.44604e-05
1.44603e-05
1.44603e-05
1.44603e-05
1.44602e-05
1.44602e-05
1.44602e-05
1.44601e-05
1.44601e-05
1.44602e-05
1.44602e-05
1.44603e-05
1.44603e-05
1.44603e-05
1.44603e-05
1.44602e-05
1.44603e-05
1.44603e-05
1.44604e-05
1.44605e-05
1.44605e-05
1.44599e-05
1.44504e-05
1.44504e-05
1.44601e-05
1.44604e-05
1.44604e-05
1.44604e-05
1.44604e-05
1.44604e-05
1.44604e-05
1.44603e-05
1.44603e-05
1.44603e-05
1.44602e-05
1.44602e-05
1.44602e-05
1.44601e-05
1.44601e-05
1.44602e-05
1.44602e-05
1.44603e-05
1.44603e-05
1.44603e-05
1.44602e-05
1.44603e-05
1.44603e-05
1.44603e-05
1.44603e-05
1.44603e-05
1.44604e-05
1.446e-05
1.44504e-05
1.44505e-05
1.44602e-05
1.44605e-05
1.44605e-05
1.44604e-05
1.44604e-05
1.44604e-05
1.44604e-05
1.44604e-05
1.44603e-05
1.44603e-05
1.44602e-05
1.44602e-05
1.44602e-05
1.44602e-05
1.44602e-05
1.44602e-05
1.44602e-05
1.44603e-05
1.44603e-05
1.44603e-05
1.44603e-05
1.44603e-05
1.44603e-05
1.44603e-05
1.44603e-05
1.44603e-05
1.44603e-05
1.44601e-05
1.44504e-05
1.44506e-05
1.44603e-05
1.44605e-05
1.44605e-05
1.44605e-05
1.44605e-05
1.44605e-05
1.44605e-05
1.44604e-05
1.44604e-05
1.44603e-05
1.44603e-05
1.44602e-05
1.44602e-05
1.44602e-05
1.44602e-05
1.44602e-05
1.44602e-05
1.44602e-05
1.44603e-05
1.44603e-05
1.44604e-05
1.44604e-05
1.44604e-05
1.44604e-05
1.44604e-05
1.44604e-05
1.44604e-05
1.44601e-05
1.44505e-05
1.44508e-05
1.44604e-05
1.44607e-05
1.44607e-05
1.44606e-05
1.44606e-05
1.44606e-05
1.44606e-05
1.44605e-05
1.44605e-05
1.44604e-05
1.44603e-05
1.44602e-05
1.44602e-05
1.44602e-05
1.44602e-05
1.44602e-05
1.44603e-05
1.44603e-05
1.44604e-05
1.44604e-05
1.44605e-05
1.44605e-05
1.44606e-05
1.44606e-05
1.44606e-05
1.44606e-05
1.44605e-05
1.44602e-05
1.44506e-05
1.44509e-05
1.44606e-05
1.44608e-05
1.44608e-05
1.44608e-05
1.44608e-05
1.44607e-05
1.44607e-05
1.44607e-05
1.44606e-05
1.44605e-05
1.44604e-05
1.44603e-05
1.44602e-05
1.44602e-05
1.44602e-05
1.44602e-05
1.44603e-05
1.44604e-05
1.44605e-05
1.44606e-05
1.44606e-05
1.44607e-05
1.44607e-05
1.44607e-05
1.44607e-05
1.44607e-05
1.44606e-05
1.44603e-05
1.44508e-05
1.44511e-05
1.44608e-05
1.44611e-05
1.4461e-05
1.4461e-05
1.4461e-05
1.44609e-05
1.44609e-05
1.44608e-05
1.44607e-05
1.44606e-05
1.44605e-05
1.44603e-05
1.44602e-05
1.44601e-05
1.44602e-05
1.44603e-05
1.44604e-05
1.44605e-05
1.44606e-05
1.44607e-05
1.44608e-05
1.44609e-05
1.44609e-05
1.44609e-05
1.44609e-05
1.44609e-05
1.44608e-05
1.44606e-05
1.4451e-05
1.44513e-05
1.44611e-05
1.44613e-05
1.44613e-05
1.44612e-05
1.44612e-05
1.44611e-05
1.4461e-05
1.44609e-05
1.44608e-05
1.44607e-05
1.44606e-05
1.44604e-05
1.44603e-05
1.44601e-05
1.44602e-05
1.44603e-05
1.44605e-05
1.44607e-05
1.44608e-05
1.44609e-05
1.4461e-05
1.44611e-05
1.44611e-05
1.44611e-05
1.44611e-05
1.44611e-05
1.44611e-05
1.44609e-05
1.44513e-05
1.44516e-05
1.44614e-05
1.44616e-05
1.44616e-05
1.44615e-05
1.44614e-05
1.44613e-05
1.44612e-05
1.44611e-05
1.44609e-05
1.44608e-05
1.44607e-05
1.44605e-05
1.44603e-05
1.44601e-05
1.44602e-05
1.44604e-05
1.44606e-05
1.44608e-05
1.4461e-05
1.44611e-05
1.44612e-05
1.44613e-05
1.44613e-05
1.44614e-05
1.44614e-05
1.44615e-05
1.44615e-05
1.44613e-05
1.44517e-05
1.4452e-05
1.44618e-05
1.4462e-05
1.44619e-05
1.44618e-05
1.44617e-05
1.44616e-05
1.44614e-05
1.44613e-05
1.44611e-05
1.4461e-05
1.44608e-05
1.44606e-05
1.44604e-05
1.44602e-05
1.44602e-05
1.44604e-05
1.44607e-05
1.44609e-05
1.44611e-05
1.44613e-05
1.44614e-05
1.44616e-05
1.44617e-05
1.44617e-05
1.44618e-05
1.44619e-05
1.4462e-05
1.44617e-05
1.44521e-05
1.44526e-05
1.44623e-05
1.44625e-05
1.44624e-05
1.44622e-05
1.44621e-05
1.44619e-05
1.44617e-05
1.44615e-05
1.44614e-05
1.44612e-05
1.4461e-05
1.44608e-05
1.44605e-05
1.44603e-05
1.44603e-05
1.44605e-05
1.44607e-05
1.4461e-05
1.44613e-05
1.44615e-05
1.44617e-05
1.44619e-05
1.4462e-05
1.44622e-05
1.44623e-05
1.44624e-05
1.44625e-05
1.44622e-05
1.44526e-05
1.44534e-05
1.44628e-05
1.4463e-05
1.44629e-05
1.44627e-05
1.44626e-05
1.44624e-05
1.44622e-05
1.4462e-05
1.44617e-05
1.44615e-05
1.44612e-05
1.44609e-05
1.44606e-05
1.44604e-05
1.44603e-05
1.44605e-05
1.44608e-05
1.44611e-05
1.44615e-05
1.44618e-05
1.4462e-05
1.44623e-05
1.44625e-05
1.44627e-05
1.44629e-05
1.4463e-05
1.44631e-05
1.44628e-05
1.44532e-05
1.44542e-05
1.44635e-05
1.44637e-05
1.44636e-05
1.44634e-05
1.44632e-05
1.4463e-05
1.44627e-05
1.44625e-05
1.44622e-05
1.44618e-05
1.44614e-05
1.44611e-05
1.44607e-05
1.44604e-05
1.44604e-05
1.44606e-05
1.44609e-05
1.44613e-05
1.44617e-05
1.44621e-05
1.44625e-05
1.44628e-05
1.44631e-05
1.44634e-05
1.44635e-05
1.44637e-05
1.44637e-05
1.44635e-05
1.44539e-05
1.44551e-05
1.44643e-05
1.44645e-05
1.44644e-05
1.44642e-05
1.4464e-05
1.44637e-05
1.44635e-05
1.44631e-05
1.44627e-05
1.44622e-05
1.44618e-05
1.44613e-05
1.44609e-05
1.44605e-05
1.44605e-05
1.44607e-05
1.44612e-05
1.44616e-05
1.44621e-05
1.44626e-05
1.44631e-05
1.44635e-05
1.44638e-05
1.44641e-05
1.44643e-05
1.44645e-05
1.44646e-05
1.44644e-05
1.44548e-05
1.44561e-05
1.44653e-05
1.44655e-05
1.44654e-05
1.44652e-05
1.44649e-05
1.44647e-05
1.44643e-05
1.44639e-05
1.44633e-05
1.44628e-05
1.44622e-05
1.44616e-05
1.44611e-05
1.44607e-05
1.44606e-05
1.4461e-05
1.44615e-05
1.44621e-05
1.44627e-05
1.44633e-05
1.44638e-05
1.44643e-05
1.44647e-05
1.44651e-05
1.44653e-05
1.44655e-05
1.44656e-05
1.44655e-05
1.4456e-05
1.44573e-05
1.44666e-05
1.44668e-05
1.44666e-05
1.44664e-05
1.44661e-05
1.44658e-05
1.44653e-05
1.44648e-05
1.44641e-05
1.44634e-05
1.44627e-05
1.44621e-05
1.44614e-05
1.44609e-05
1.44609e-05
1.44613e-05
1.4462e-05
1.44627e-05
1.44634e-05
1.44641e-05
1.44647e-05
1.44653e-05
1.44658e-05
1.44662e-05
1.44665e-05
1.44668e-05
1.44669e-05
1.44668e-05
1.44573e-05
1.44588e-05
1.44681e-05
1.44683e-05
1.44681e-05
1.44679e-05
1.44675e-05
1.44671e-05
1.44665e-05
1.44659e-05
1.44651e-05
1.44643e-05
1.44635e-05
1.44627e-05
1.44619e-05
1.44612e-05
1.44612e-05
1.44618e-05
1.44626e-05
1.44635e-05
1.44643e-05
1.44651e-05
1.44658e-05
1.44665e-05
1.44671e-05
1.44676e-05
1.4468e-05
1.44683e-05
1.44686e-05
1.44684e-05
1.44589e-05
1.44607e-05
1.44701e-05
1.44702e-05
1.447e-05
1.44697e-05
1.44692e-05
1.44687e-05
1.4468e-05
1.44672e-05
1.44663e-05
1.44654e-05
1.44644e-05
1.44634e-05
1.44624e-05
1.44616e-05
1.44616e-05
1.44624e-05
1.44633e-05
1.44643e-05
1.44653e-05
1.44662e-05
1.44671e-05
1.44679e-05
1.44686e-05
1.44692e-05
1.44698e-05
1.44702e-05
1.44705e-05
1.44704e-05
1.44609e-05
1.4463e-05
1.44724e-05
1.44725e-05
1.44723e-05
1.44719e-05
1.44713e-05
1.44707e-05
1.44698e-05
1.44688e-05
1.44678e-05
1.44666e-05
1.44654e-05
1.44642e-05
1.4463e-05
1.44621e-05
1.44622e-05
1.4463e-05
1.44642e-05
1.44654e-05
1.44665e-05
1.44677e-05
1.44687e-05
1.44697e-05
1.44706e-05
1.44713e-05
1.44719e-05
1.44724e-05
1.44728e-05
1.44727e-05
1.44632e-05
1.44659e-05
1.44754e-05
1.44754e-05
1.44751e-05
1.44746e-05
1.44739e-05
1.4473e-05
1.4472e-05
1.44708e-05
1.44695e-05
1.44681e-05
1.44666e-05
1.44651e-05
1.44638e-05
1.44628e-05
1.44628e-05
1.44639e-05
1.44652e-05
1.44667e-05
1.44681e-05
1.44694e-05
1.44707e-05
1.44719e-05
1.4473e-05
1.44739e-05
1.44746e-05
1.44752e-05
1.44756e-05
1.44756e-05
1.44662e-05
1.44694e-05
1.4479e-05
1.4479e-05
1.44785e-05
1.44779e-05
1.4477e-05
1.44759e-05
1.44746e-05
1.44732e-05
1.44716e-05
1.44699e-05
1.44682e-05
1.44664e-05
1.44648e-05
1.44637e-05
1.44637e-05
1.44649e-05
1.44665e-05
1.44683e-05
1.447e-05
1.44716e-05
1.44732e-05
1.44746e-05
1.44759e-05
1.4477e-05
1.44778e-05
1.44785e-05
1.44791e-05
1.44791e-05
1.44697e-05
1.44737e-05
1.44833e-05
1.44832e-05
1.44826e-05
1.44818e-05
1.44807e-05
1.44793e-05
1.44778e-05
1.44761e-05
1.44742e-05
1.44722e-05
1.44701e-05
1.4468e-05
1.44662e-05
1.44649e-05
1.44649e-05
1.44662e-05
1.44682e-05
1.44703e-05
1.44724e-05
1.44744e-05
1.44762e-05
1.44779e-05
1.44794e-05
1.44806e-05
1.44817e-05
1.44826e-05
1.44832e-05
1.44833e-05
1.44739e-05
1.44789e-05
1.44884e-05
1.44882e-05
1.44874e-05
1.44864e-05
1.44851e-05
1.44836e-05
1.44818e-05
1.44798e-05
1.44775e-05
1.44751e-05
1.44726e-05
1.44701e-05
1.44679e-05
1.44664e-05
1.44663e-05
1.44679e-05
1.44702e-05
1.44727e-05
1.44752e-05
1.44776e-05
1.44798e-05
1.44818e-05
1.44836e-05
1.44851e-05
1.44864e-05
1.44874e-05
1.44881e-05
1.44883e-05
1.4479e-05
1.44851e-05
1.44944e-05
1.44941e-05
1.44932e-05
1.4492e-05
1.44905e-05
1.44887e-05
1.44866e-05
1.44842e-05
1.44816e-05
1.44787e-05
1.44757e-05
1.44727e-05
1.447e-05
1.44682e-05
1.44682e-05
1.447e-05
1.44727e-05
1.44757e-05
1.44787e-05
1.44816e-05
1.44842e-05
1.44866e-05
1.44887e-05
1.44905e-05
1.4492e-05
1.44932e-05
1.44941e-05
1.44943e-05
1.44851e-05
1.44923e-05
1.45015e-05
1.45011e-05
1.45001e-05
1.44987e-05
1.44971e-05
1.4495e-05
1.44925e-05
1.44896e-05
1.44865e-05
1.4483e-05
1.44795e-05
1.44759e-05
1.44728e-05
1.44707e-05
1.44706e-05
1.44727e-05
1.44759e-05
1.44795e-05
1.44831e-05
1.44865e-05
1.44896e-05
1.44925e-05
1.4495e-05
1.44971e-05
1.44988e-05
1.45002e-05
1.45012e-05
1.45016e-05
1.44924e-05
1.4501e-05
1.451e-05
1.45095e-05
1.45084e-05
1.45069e-05
1.45049e-05
1.45024e-05
1.44995e-05
1.44961e-05
1.44924e-05
1.44884e-05
1.44841e-05
1.448e-05
1.44763e-05
1.44739e-05
1.44739e-05
1.44763e-05
1.448e-05
1.44842e-05
1.44884e-05
1.44925e-05
1.44962e-05
1.44996e-05
1.45025e-05
1.45049e-05
1.45069e-05
1.45084e-05
1.45096e-05
1.45101e-05
1.4501e-05
1.45112e-05
1.45202e-05
1.45196e-05
1.45183e-05
1.45165e-05
1.45142e-05
1.45114e-05
1.45079e-05
1.4504e-05
1.44996e-05
1.44949e-05
1.449e-05
1.44851e-05
1.44809e-05
1.44782e-05
1.44783e-05
1.44809e-05
1.44852e-05
1.44901e-05
1.4495e-05
1.44998e-05
1.45041e-05
1.45081e-05
1.45115e-05
1.45143e-05
1.45165e-05
1.45183e-05
1.45197e-05
1.45203e-05
1.45112e-05
1.45233e-05
1.45323e-05
1.45316e-05
1.45301e-05
1.4528e-05
1.45254e-05
1.4522e-05
1.45181e-05
1.45136e-05
1.45085e-05
1.4503e-05
1.44973e-05
1.44917e-05
1.44868e-05
1.44839e-05
1.44839e-05
1.44869e-05
1.44917e-05
1.44973e-05
1.45031e-05
1.45086e-05
1.45137e-05
1.45183e-05
1.45222e-05
1.45254e-05
1.4528e-05
1.45301e-05
1.45316e-05
1.45323e-05
1.45234e-05
1.45376e-05
1.45465e-05
1.45457e-05
1.4544e-05
1.45417e-05
1.45386e-05
1.45349e-05
1.45304e-05
1.45253e-05
1.45195e-05
1.45131e-05
1.45065e-05
1.45e-05
1.44945e-05
1.44912e-05
1.44912e-05
1.44945e-05
1.45e-05
1.45064e-05
1.4513e-05
1.45195e-05
1.45254e-05
1.45306e-05
1.4535e-05
1.45387e-05
1.45417e-05
1.4544e-05
1.45457e-05
1.45465e-05
1.45377e-05
1.45544e-05
1.45632e-05
1.45622e-05
1.45604e-05
1.45578e-05
1.45544e-05
1.45503e-05
1.45453e-05
1.45395e-05
1.45329e-05
1.45255e-05
1.45179e-05
1.45105e-05
1.45044e-05
1.45007e-05
1.45007e-05
1.45044e-05
1.45105e-05
1.45178e-05
1.45254e-05
1.45328e-05
1.45395e-05
1.45454e-05
1.45503e-05
1.45545e-05
1.45579e-05
1.45604e-05
1.45622e-05
1.45631e-05
1.45544e-05
1.45738e-05
1.45825e-05
1.45815e-05
1.45795e-05
1.45768e-05
1.45732e-05
1.45687e-05
1.45632e-05
1.45566e-05
1.45491e-05
1.45408e-05
1.45322e-05
1.45239e-05
1.45171e-05
1.45131e-05
1.45131e-05
1.45171e-05
1.45239e-05
1.45321e-05
1.45407e-05
1.4549e-05
1.45565e-05
1.4563e-05
1.45686e-05
1.45732e-05
1.45768e-05
1.45795e-05
1.45814e-05
1.45823e-05
1.45737e-05
1.45962e-05
1.46047e-05
1.46038e-05
1.46018e-05
1.4599e-05
1.45952e-05
1.45904e-05
1.45844e-05
1.45772e-05
1.45688e-05
1.45596e-05
1.45501e-05
1.4541e-05
1.45336e-05
1.45293e-05
1.45293e-05
1.45336e-05
1.4541e-05
1.45501e-05
1.45597e-05
1.45688e-05
1.4577e-05
1.45842e-05
1.45902e-05
1.45951e-05
1.45988e-05
1.46016e-05
1.46035e-05
1.46044e-05
1.45958e-05
1.46218e-05
1.46303e-05
1.46293e-05
1.46275e-05
1.46247e-05
1.46209e-05
1.46159e-05
1.46096e-05
1.46019e-05
1.45928e-05
1.45828e-05
1.45725e-05
1.45627e-05
1.45548e-05
1.45502e-05
1.45502e-05
1.45548e-05
1.45628e-05
1.45727e-05
1.45831e-05
1.4593e-05
1.46019e-05
1.46096e-05
1.46159e-05
1.46209e-05
1.46246e-05
1.46273e-05
1.4629e-05
1.46297e-05
1.46213e-05
1.46508e-05
1.46592e-05
1.46584e-05
1.46568e-05
1.46543e-05
1.46507e-05
1.46458e-05
1.46394e-05
1.46314e-05
1.4622e-05
1.46116e-05
1.46006e-05
1.45903e-05
1.45819e-05
1.4577e-05
1.4577e-05
1.45819e-05
1.45904e-05
1.4601e-05
1.4612e-05
1.46225e-05
1.46318e-05
1.46398e-05
1.46462e-05
1.4651e-05
1.46545e-05
1.46568e-05
1.46582e-05
1.46586e-05
1.46503e-05
1.46831e-05
1.46915e-05
1.46911e-05
1.46899e-05
1.4688e-05
1.46849e-05
1.46805e-05
1.46745e-05
1.46668e-05
1.46574e-05
1.46468e-05
1.46355e-05
1.46248e-05
1.46161e-05
1.46112e-05
1.46112e-05
1.46162e-05
1.46251e-05
1.46359e-05
1.46472e-05
1.4658e-05
1.46674e-05
1.46752e-05
1.46812e-05
1.46856e-05
1.46885e-05
1.46902e-05
1.4691e-05
1.46912e-05
1.46828e-05
1.47186e-05
1.4727e-05
1.47272e-05
1.47268e-05
1.47258e-05
1.47239e-05
1.47205e-05
1.47155e-05
1.47086e-05
1.46998e-05
1.46894e-05
1.46784e-05
1.46677e-05
1.46591e-05
1.46541e-05
1.46541e-05
1.46591e-05
1.46678e-05
1.46786e-05
1.46897e-05
1.47001e-05
1.4709e-05
1.47161e-05
1.47212e-05
1.47246e-05
1.47265e-05
1.47272e-05
1.47274e-05
1.47271e-05
1.47188e-05
1.47568e-05
1.47654e-05
1.47664e-05
1.47673e-05
1.47678e-05
1.47676e-05
1.47661e-05
1.47628e-05
1.47574e-05
1.47499e-05
1.47407e-05
1.47304e-05
1.47204e-05
1.47122e-05
1.47075e-05
1.47074e-05
1.47121e-05
1.47202e-05
1.47302e-05
1.47404e-05
1.47497e-05
1.47573e-05
1.47628e-05
1.47663e-05
1.4768e-05
1.47682e-05
1.47676e-05
1.47668e-05
1.47658e-05
1.47574e-05
1.47969e-05
1.48059e-05
1.48081e-05
1.48108e-05
1.48137e-05
1.4816e-05
1.48172e-05
1.48166e-05
1.48138e-05
1.48088e-05
1.48018e-05
1.47934e-05
1.47849e-05
1.47776e-05
1.47734e-05
1.47733e-05
1.47774e-05
1.47844e-05
1.47929e-05
1.48013e-05
1.48084e-05
1.48134e-05
1.48162e-05
1.48169e-05
1.48159e-05
1.48136e-05
1.48109e-05
1.48084e-05
1.48065e-05
1.47976e-05
1.48378e-05
1.48473e-05
1.48514e-05
1.48566e-05
1.48626e-05
1.48686e-05
1.48737e-05
1.48771e-05
1.48785e-05
1.48773e-05
1.48739e-05
1.48688e-05
1.48628e-05
1.48574e-05
1.48542e-05
1.48541e-05
1.48573e-05
1.48626e-05
1.48684e-05
1.48736e-05
1.4877e-05
1.48781e-05
1.48766e-05
1.48732e-05
1.48681e-05
1.48622e-05
1.48566e-05
1.48516e-05
1.48481e-05
1.48384e-05
1.48779e-05
1.48883e-05
1.48948e-05
1.49033e-05
1.49135e-05
1.49242e-05
1.49347e-05
1.49439e-05
1.49511e-05
1.49557e-05
1.49577e-05
1.49574e-05
1.49554e-05
1.4953e-05
1.49514e-05
1.49516e-05
1.49533e-05
1.49556e-05
1.49575e-05
1.49578e-05
1.49557e-05
1.4951e-05
1.49437e-05
1.49344e-05
1.49238e-05
1.49131e-05
1.49033e-05
1.48952e-05
1.48891e-05
1.48783e-05
1.49158e-05
1.49276e-05
1.4937e-05
1.49496e-05
1.49648e-05
1.49816e-05
1.49991e-05
1.50159e-05
1.50311e-05
1.50438e-05
1.50533e-05
1.50597e-05
1.50633e-05
1.50651e-05
1.50658e-05
1.50659e-05
1.50653e-05
1.50636e-05
1.50599e-05
1.50536e-05
1.5044e-05
1.50312e-05
1.5016e-05
1.4999e-05
1.49814e-05
1.49646e-05
1.49497e-05
1.49376e-05
1.49281e-05
1.4916e-05
1.49501e-05
1.49632e-05
1.4976e-05
1.49936e-05
1.50152e-05
1.50394e-05
1.50654e-05
1.50919e-05
1.51173e-05
1.51404e-05
1.51601e-05
1.51755e-05
1.51863e-05
1.51935e-05
1.5197e-05
1.51971e-05
1.51936e-05
1.51864e-05
1.51756e-05
1.51603e-05
1.51405e-05
1.51173e-05
1.5092e-05
1.50653e-05
1.50392e-05
1.50151e-05
1.49938e-05
1.49766e-05
1.49635e-05
1.49502e-05
1.49766e-05
1.49921e-05
1.50093e-05
1.50329e-05
1.5062e-05
1.50951e-05
1.51315e-05
1.51692e-05
1.52067e-05
1.52422e-05
1.52747e-05
1.53025e-05
1.53246e-05
1.53396e-05
1.53478e-05
1.53478e-05
1.53395e-05
1.53244e-05
1.53024e-05
1.52747e-05
1.52422e-05
1.52066e-05
1.51691e-05
1.51313e-05
1.50949e-05
1.5062e-05
1.50332e-05
1.50098e-05
1.49923e-05
1.49768e-05
1.49949e-05
1.50138e-05
1.50367e-05
1.50673e-05
1.51052e-05
1.51488e-05
1.5197e-05
1.52483e-05
1.53007e-05
1.53533e-05
1.54056e-05
1.54592e-05
1.55153e-05
1.55695e-05
1.56178e-05
1.56177e-05
1.55695e-05
1.55153e-05
1.54592e-05
1.54056e-05
1.53533e-05
1.53008e-05
1.52483e-05
1.51968e-05
1.51487e-05
1.51052e-05
1.50676e-05
1.50369e-05
1.5014e-05
1.49953e-05
1.50229e-05
1.50468e-05
1.50759e-05
1.51147e-05
1.51622e-05
1.52175e-05
1.52797e-05
1.53488e-05
1.54289e-05
1.55317e-05
1.56852e-05
1.59398e-05
1.63436e-05
1.68619e-05
1.74396e-05
1.74384e-05
1.68623e-05
1.63431e-05
1.59398e-05
1.56856e-05
1.55321e-05
1.5429e-05
1.53487e-05
1.52795e-05
1.52175e-05
1.51622e-05
1.51149e-05
1.50761e-05
1.50469e-05
1.50229e-05
1.50688e-05
1.50932e-05
1.51254e-05
1.51677e-05
1.5221e-05
1.52874e-05
1.5376e-05
1.55165e-05
1.57869e-05
1.63661e-05
1.7636e-05
2.02156e-05
2.46864e-05
3.07362e-05
3.78889e-05
3.78778e-05
3.07402e-05
2.46848e-05
2.02194e-05
1.76447e-05
1.63719e-05
1.57891e-05
1.55167e-05
1.53753e-05
1.52869e-05
1.52206e-05
1.51678e-05
1.51252e-05
1.50935e-05
1.50682e-05
1.49184e-05
1.49543e-05
1.50077e-05
1.50902e-05
1.52247e-05
1.54538e-05
1.594e-05
1.70604e-05
1.97244e-05
2.59179e-05
4.00317e-05
6.99881e-05
0.000124028
0.00019885
0.000289266
0.000289186
0.000198866
0.000124077
7.00924e-05
4.01545e-05
2.59926e-05
1.9755e-05
1.70668e-05
1.59351e-05
1.54449e-05
1.52114e-05
1.50828e-05
1.50029e-05
1.4952e-05
1.4914e-05
1.56675e-05
1.58239e-05
1.62438e-05
1.71097e-05
1.85971e-05
2.15382e-05
2.80671e-05
4.35803e-05
8.09974e-05
0.000167943
0.000360655
0.000741789
0.00136009
0.00212609
0.00298597
0.00298585
0.00212581
0.00136193
0.000744255
0.000362678
0.000169041
8.14298e-05
4.37475e-05
2.80668e-05
2.14151e-05
1.84358e-05
1.69777e-05
1.61691e-05
1.57588e-05
1.55377e-05
3.20679e-05
3.55487e-05
4.90681e-05
7.09117e-05
0.000107701
0.0001909
0.000385715
0.000793412
0.00153911
0.00273942
0.00456055
0.00707805
0.0100819
0.012863
0.0156771
0.0156775
0.0128632
0.0101075
0.0071102
0.00458336
0.00275402
0.00154902
0.00080012
0.00038907
0.00019232
0.000108348
7.09189e-05
4.89327e-05
3.49044e-05
3.18313e-05
4.69139e-05
4.97735e-05
6.06304e-05
8.37679e-05
0.000133618
0.000246325
0.000473784
0.000854198
0.00148182
0.00265903
0.00519389
0.0100014
0.0159234
0.0204823
0.026015
0.026025
0.0205233
0.0160512
0.0101549
0.0052843
0.00269487
0.00149589
0.000861602
0.000478473
0.000248764
0.000134435
8.37352e-05
6.0582e-05
4.93429e-05
4.70086e-05
5.24705e-05
5.5264e-05
6.23982e-05
7.53833e-05
0.000101419
0.000165321
0.000330335
0.000695036
0.00138371
0.00253942
0.00427078
0.00672529
0.00974701
0.0124725
0.0154211
0.0154301
0.0124908
0.00980098
0.00678613
0.00431253
0.00256622
0.00139942
0.000703721
0.000334544
0.000166963
0.000101816
7.53158e-05
6.23706e-05
5.51453e-05
5.26977e-05
5.36691e-05
5.63955e-05
6.07913e-05
6.78997e-05
7.85751e-05
9.7031e-05
0.000139958
0.00027051
0.000630654
0.00145012
0.00286807
0.00485336
0.00720217
0.00931267
0.0112936
0.0112984
0.00931894
0.00722887
0.00488723
0.0028957
0.00146897
0.000640452
0.000274433
0.000141333
9.75129e-05
7.87135e-05
6.79074e-05
6.0797e-05
5.63861e-05
5.39256e-05
5.34858e-05
5.56548e-05
5.86465e-05
6.29005e-05
6.8285e-05
7.51067e-05
8.47565e-05
0.00010346
0.000159391
0.000374855
0.000981079
0.00215486
0.00383606
0.00574403
0.00772171
0.0077231
0.00574538
0.0038481
0.00216928
0.000992623
0.000380871
0.000161467
0.000104184
8.50625e-05
7.52468e-05
6.83366e-05
6.29022e-05
5.86508e-05
5.56362e-05
5.35232e-05
5.33654e-05
5.4663e-05
5.70116e-05
6.01757e-05
6.39289e-05
6.82161e-05
7.3076e-05
7.88934e-05
8.71224e-05
0.000104866
0.00016544
0.000382277
0.000908554
0.00189779
0.00330403
0.00330191
0.00189539
0.00091036
0.000384708
0.000166744
0.000105424
8.7353e-05
7.89988e-05
7.31231e-05
6.82346e-05
6.39231e-05
6.01551e-05
5.70308e-05
5.4716e-05
5.341e-05
5.3406e-05
5.40508e-05
5.58974e-05
5.84113e-05
6.1413e-05
6.48399e-05
6.86324e-05
7.27741e-05
7.73073e-05
8.25719e-05
8.99859e-05
0.000104028
0.000133179
0.000207147
0.000470259
0.000469623
0.000207143
0.000133469
0.000104334
9.02555e-05
8.27811e-05
7.74495e-05
7.28542e-05
6.8655e-05
6.48271e-05
6.13884e-05
5.83766e-05
5.58814e-05
5.40698e-05
5.344e-05
5.30135e-05
5.32267e-05
5.46163e-05
5.6667e-05
5.91715e-05
6.20353e-05
6.51769e-05
6.8559e-05
7.21063e-05
7.57775e-05
7.94617e-05
8.31792e-05
8.71324e-05
9.20161e-05
0.000100249
0.000100249
9.20496e-05
8.7175e-05
8.32144e-05
7.94851e-05
7.57849e-05
7.20952e-05
6.8513e-05
6.51077e-05
6.19821e-05
5.91547e-05
5.66775e-05
5.464e-05
5.32397e-05
5.30391e-05
5.19511e-05
5.18588e-05
5.29126e-05
5.45482e-05
5.65669e-05
5.88964e-05
6.14511e-05
6.41522e-05
6.69335e-05
6.96754e-05
7.22322e-05
7.44652e-05
7.63125e-05
7.76636e-05
7.85144e-05
7.8542e-05
7.77083e-05
7.63537e-05
7.45142e-05
7.22781e-05
6.96995e-05
6.69407e-05
6.41378e-05
6.14241e-05
5.88792e-05
5.65608e-05
5.45589e-05
5.29353e-05
5.18867e-05
5.18944e-05
5.00225e-05
4.983e-05
5.06537e-05
5.19412e-05
5.3538e-05
5.53691e-05
5.73791e-05
5.94437e-05
6.14879e-05
6.33753e-05
6.50619e-05
6.64581e-05
6.75381e-05
6.82325e-05
6.85579e-05
6.85819e-05
6.82699e-05
6.75743e-05
6.64929e-05
6.50959e-05
6.33895e-05
6.14869e-05
5.94426e-05
5.73608e-05
5.53534e-05
5.35278e-05
5.19486e-05
5.06845e-05
4.9899e-05
5.00345e-05
4.76946e-05
4.73729e-05
4.79837e-05
4.89626e-05
5.01704e-05
5.15321e-05
5.29716e-05
5.44016e-05
5.57624e-05
5.69671e-05
5.7986e-05
5.87786e-05
5.93167e-05
5.962e-05
5.97496e-05
5.97516e-05
5.96184e-05
5.92989e-05
5.87544e-05
5.79689e-05
5.69421e-05
5.57267e-05
5.43703e-05
5.29362e-05
5.15073e-05
5.01663e-05
4.89798e-05
4.80134e-05
4.74198e-05
4.77447e-05
4.49838e-05
4.46091e-05
4.49979e-05
4.56881e-05
4.65404e-05
4.74855e-05
4.84508e-05
4.93775e-05
5.01871e-05
5.0857e-05
5.13569e-05
5.16775e-05
5.18138e-05
5.18404e-05
5.18237e-05
5.18199e-05
5.18408e-05
5.18207e-05
5.16931e-05
5.13849e-05
5.08844e-05
5.01982e-05
4.9374e-05
4.84404e-05
4.74786e-05
4.6558e-05
4.57253e-05
4.50429e-05
4.4644e-05
4.49997e-05
4.20088e-05
4.15964e-05
4.1839e-05
4.23129e-05
4.28855e-05
4.35083e-05
4.40949e-05
4.46127e-05
4.50159e-05
4.52774e-05
4.53832e-05
4.53372e-05
4.51867e-05
4.50097e-05
4.48855e-05
4.4889e-05
4.50267e-05
4.52141e-05
4.53608e-05
4.54015e-05
4.52952e-05
4.50273e-05
4.46127e-05
4.40847e-05
4.3496e-05
4.29003e-05
4.23483e-05
4.18887e-05
4.16503e-05
4.20073e-05
3.89234e-05
3.85437e-05
3.86958e-05
3.90003e-05
3.93508e-05
3.97043e-05
4.00017e-05
4.02218e-05
4.03224e-05
4.02857e-05
4.01059e-05
3.98045e-05
3.9452e-05
3.91351e-05
3.89313e-05
3.89307e-05
3.91332e-05
3.94539e-05
3.98054e-05
4.01028e-05
4.02867e-05
4.03256e-05
4.02184e-05
3.99911e-05
3.96913e-05
3.93534e-05
3.90155e-05
3.87306e-05
3.86176e-05
3.89644e-05
3.59454e-05
3.56133e-05
3.56743e-05
3.58389e-05
3.60122e-05
3.61693e-05
3.62508e-05
3.62496e-05
3.61419e-05
3.58942e-05
3.55162e-05
3.50557e-05
3.45793e-05
3.41737e-05
3.39302e-05
3.39342e-05
3.41806e-05
3.45879e-05
3.50667e-05
3.55221e-05
3.58954e-05
3.61462e-05
3.62632e-05
3.6264e-05
3.61725e-05
3.60236e-05
3.58551e-05
3.57095e-05
3.56817e-05
3.60079e-05
3.31988e-05
3.28763e-05
3.28739e-05
3.29197e-05
3.29749e-05
3.29759e-05
3.29128e-05
3.27689e-05
3.25068e-05
3.2117e-05
3.16281e-05
3.10808e-05
3.05406e-05
3.00901e-05
2.98313e-05
2.98381e-05
3.00999e-05
3.05431e-05
3.1081e-05
3.16315e-05
3.21242e-05
3.25161e-05
3.27865e-05
3.29379e-05
3.29933e-05
3.29856e-05
3.29394e-05
3.28862e-05
3.29118e-05
3.32422e-05
3.06679e-05
3.03597e-05
3.02954e-05
3.02625e-05
3.02404e-05
3.01449e-05
2.99954e-05
2.97539e-05
2.93937e-05
2.89302e-05
2.83867e-05
2.77991e-05
2.72314e-05
2.67681e-05
2.65035e-05
2.6505e-05
2.67695e-05
2.72297e-05
2.77968e-05
2.83928e-05
2.89444e-05
2.94098e-05
2.97701e-05
3.00242e-05
3.01821e-05
3.02629e-05
3.02926e-05
3.0299e-05
3.03574e-05
3.06802e-05
2.83635e-05
2.80715e-05
2.79755e-05
2.79205e-05
2.78212e-05
2.76774e-05
2.74756e-05
2.71725e-05
2.67669e-05
2.62768e-05
2.57139e-05
2.51174e-05
2.45551e-05
2.41053e-05
2.38504e-05
2.38528e-05
2.41125e-05
2.45647e-05
2.51262e-05
2.57239e-05
2.62931e-05
2.67925e-05
2.71999e-05
2.75075e-05
2.77193e-05
2.78517e-05
2.79292e-05
2.79775e-05
2.80559e-05
2.83577e-05
2.63244e-05
2.6046e-05
2.59381e-05
2.58627e-05
2.57333e-05
2.55764e-05
2.53365e-05
2.50046e-05
2.45929e-05
2.41004e-05
2.35436e-05
2.29666e-05
2.24335e-05
2.20073e-05
2.1761e-05
2.17595e-05
2.20065e-05
2.24385e-05
2.29779e-05
2.35546e-05
2.411e-05
2.46054e-05
2.50194e-05
2.53444e-05
2.5584e-05
2.57499e-05
2.58594e-05
2.59331e-05
2.60184e-05
2.62927e-05
2.44822e-05
2.42471e-05
2.41523e-05
2.40645e-05
2.39464e-05
2.37704e-05
2.35106e-05
2.31825e-05
2.27806e-05
2.2304e-05
2.1778e-05
2.1242e-05
2.07468e-05
2.03476e-05
2.01157e-05
2.01159e-05
2.03494e-05
2.0754e-05
2.12556e-05
2.17905e-05
2.23093e-05
2.27799e-05
2.31831e-05
2.35101e-05
2.37611e-05
2.39434e-05
2.40684e-05
2.41529e-05
2.42391e-05
2.4486e-05
2.2923e-05
2.26888e-05
2.26203e-05
2.25302e-05
2.24098e-05
2.22182e-05
2.19683e-05
2.16594e-05
2.12784e-05
2.08365e-05
2.03569e-05
1.98704e-05
1.94151e-05
1.9045e-05
1.88304e-05
1.88308e-05
1.90451e-05
1.94146e-05
1.9871e-05
2.03592e-05
2.08372e-05
2.12762e-05
2.16569e-05
2.19701e-05
2.22157e-05
2.23998e-05
2.25313e-05
2.26216e-05
2.27061e-05
2.29234e-05
2.15632e-05
2.13725e-05
2.13059e-05
2.12208e-05
2.10916e-05
2.09102e-05
2.06833e-05
2.03931e-05
2.00415e-05
1.96427e-05
1.92126e-05
1.8773e-05
1.83578e-05
1.80213e-05
1.78277e-05
1.78295e-05
1.80249e-05
1.83594e-05
1.87716e-05
1.92121e-05
1.96448e-05
2.00428e-05
2.03898e-05
2.06792e-05
2.09118e-05
2.10916e-05
2.12244e-05
2.13174e-05
2.13949e-05
2.15793e-05
2.04003e-05
2.02668e-05
2.01911e-05
2.01079e-05
1.99824e-05
1.98183e-05
1.96043e-05
1.93346e-05
1.90204e-05
1.86691e-05
1.82888e-05
1.78974e-05
1.75281e-05
1.72303e-05
1.70582e-05
1.70601e-05
1.72355e-05
1.75336e-05
1.79009e-05
1.82916e-05
1.86753e-05
1.90291e-05
1.93405e-05
1.96044e-05
1.98203e-05
1.99901e-05
2.01169e-05
2.02061e-05
2.02753e-05
2.04272e-05
1.94442e-05
1.93182e-05
1.92556e-05
1.91732e-05
1.9056e-05
1.89033e-05
1.87046e-05
1.84671e-05
1.81954e-05
1.789e-05
1.75561e-05
1.72118e-05
1.68865e-05
1.66212e-05
1.64647e-05
1.64639e-05
1.6619e-05
1.68835e-05
1.72081e-05
1.75526e-05
1.78899e-05
1.82015e-05
1.84775e-05
1.87133e-05
1.89073e-05
1.90608e-05
1.91764e-05
1.92586e-05
1.93209e-05
1.94461e-05
1.86161e-05
1.85096e-05
1.84586e-05
1.83779e-05
1.82729e-05
1.81352e-05
1.79636e-05
1.77606e-05
1.75248e-05
1.72566e-05
1.69644e-05
1.66644e-05
1.63797e-05
1.61431e-05
1.60011e-05
1.59998e-05
1.61397e-05
1.63762e-05
1.66624e-05
1.69637e-05
1.72566e-05
1.75267e-05
1.77662e-05
1.79716e-05
1.81418e-05
1.82779e-05
1.83821e-05
1.84572e-05
1.85135e-05
1.86166e-05
1.79081e-05
1.78394e-05
1.77826e-05
1.77106e-05
1.76205e-05
1.75016e-05
1.73549e-05
1.71779e-05
1.69701e-05
1.67363e-05
1.64853e-05
1.6228e-05
1.59815e-05
1.57743e-05
1.56483e-05
1.56483e-05
1.57743e-05
1.59827e-05
1.62312e-05
1.64898e-05
1.67401e-05
1.69711e-05
1.71771e-05
1.7355e-05
1.75041e-05
1.76245e-05
1.77176e-05
1.77852e-05
1.78349e-05
1.79182e-05
1.73332e-05
1.72697e-05
1.72163e-05
1.71595e-05
1.7081e-05
1.6978e-05
1.68495e-05
1.66947e-05
1.65157e-05
1.63172e-05
1.61046e-05
1.5885e-05
1.56725e-05
1.54916e-05
1.53802e-05
1.53798e-05
1.54903e-05
1.56705e-05
1.58829e-05
1.6103e-05
1.63165e-05
1.65149e-05
1.66928e-05
1.68473e-05
1.69771e-05
1.70822e-05
1.71634e-05
1.72225e-05
1.7265e-05
1.73309e-05
1.68423e-05
1.67804e-05
1.67453e-05
1.66983e-05
1.66279e-05
1.65368e-05
1.64257e-05
1.62953e-05
1.61461e-05
1.59797e-05
1.57989e-05
1.56104e-05
1.54265e-05
1.52685e-05
1.517e-05
1.51698e-05
1.52666e-05
1.54221e-05
1.56038e-05
1.57922e-05
1.59752e-05
1.61455e-05
1.62981e-05
1.64303e-05
1.65411e-05
1.66307e-05
1.67001e-05
1.6751e-05
1.67874e-05
1.68394e-05
1.6422e-05
1.6385e-05
1.63593e-05
1.63141e-05
1.62511e-05
1.61722e-05
1.60799e-05
1.59721e-05
1.58472e-05
1.57056e-05
1.55508e-05
1.53892e-05
1.52318e-05
1.50962e-05
1.50112e-05
1.50117e-05
1.5097e-05
1.52313e-05
1.53869e-05
1.55472e-05
1.57024e-05
1.5846e-05
1.59743e-05
1.60854e-05
1.61787e-05
1.62545e-05
1.63141e-05
1.63585e-05
1.63903e-05
1.64311e-05
1.60856e-05
1.60663e-05
1.60385e-05
1.59977e-05
1.59436e-05
1.58788e-05
1.58017e-05
1.57096e-05
1.56025e-05
1.54819e-05
1.53509e-05
1.5215e-05
1.50831e-05
1.49688e-05
1.48949e-05
1.48951e-05
1.49693e-05
1.50844e-05
1.52161e-05
1.53503e-05
1.54794e-05
1.55989e-05
1.5706e-05
1.57994e-05
1.58786e-05
1.59437e-05
1.59956e-05
1.60347e-05
1.6062e-05
1.6092e-05
1.58096e-05
1.579e-05
1.57657e-05
1.57336e-05
1.56903e-05
1.56365e-05
1.5569e-05
1.54891e-05
1.53984e-05
1.52979e-05
1.51895e-05
1.50777e-05
1.49687e-05
1.48717e-05
1.48064e-05
1.48055e-05
1.48694e-05
1.49667e-05
1.50767e-05
1.51883e-05
1.52957e-05