/*--------------------------------*- C++ -*----------------------------------*\
| =========                 |                                                 |
| \\      /  F ield         | OpenFOAM: The Open Source CFD Toolbox           |
|  \\    /   O peration     | Version:  2312                                  |
|   \\  /    A nd           | Website:  www.openfoam.com                      |
|    \\/     M anipulation  |                                                 |
\*---------------------------------------------------------------------------*/
FoamFile
{
    version     2.0;
    format      ascii;
    arch        "LSB;label=32;scalar=64";
    class       volScalarField;
    location    "0.357759";
    object      k;
}
// * * * * * * * * * * * * * * * * * * * * * * * * * * * * * * * * * * * * * //

dimensions      [0 2 -2 0 0 0 0];

internalField   nonuniform List<scalar> 
90000
(
3.16972e-05
3.16978e-05
3.16977e-05
3.16978e-05
3.16978e-05
3.16978e-05
3.16978e-05
3.16977e-05
3.16977e-05
3.16977e-05
3.16976e-05
3.16976e-05
3.16976e-05
3.16975e-05
3.16975e-05
3.16975e-05
3.16975e-05
3.16976e-05
3.16976e-05
3.16976e-05
3.16976e-05
3.16976e-05
3.16978e-05
3.16979e-05
3.1698e-05
3.1698e-05
3.1698e-05
3.16979e-05
3.16977e-05
3.16974e-05
3.16978e-05
3.17128e-05
3.17132e-05
3.17132e-05
3.17132e-05
3.17132e-05
3.17132e-05
3.17132e-05
3.17131e-05
3.17131e-05
3.1713e-05
3.1713e-05
3.17129e-05
3.17129e-05
3.17128e-05
3.17128e-05
3.17128e-05
3.17129e-05
3.17129e-05
3.1713e-05
3.1713e-05
3.17131e-05
3.17132e-05
3.17132e-05
3.17132e-05
3.17132e-05
3.17132e-05
3.17134e-05
3.17132e-05
3.1699e-05
3.16978e-05
3.17132e-05
3.17136e-05
3.17137e-05
3.17137e-05
3.17137e-05
3.17137e-05
3.17136e-05
3.17136e-05
3.17135e-05
3.17135e-05
3.17135e-05
3.17134e-05
3.17134e-05
3.17133e-05
3.17133e-05
3.17133e-05
3.17134e-05
3.17134e-05
3.17135e-05
3.17136e-05
3.17136e-05
3.17135e-05
3.17135e-05
3.17136e-05
3.17137e-05
3.17137e-05
3.17135e-05
3.17127e-05
3.16981e-05
3.16978e-05
3.17132e-05
3.17137e-05
3.17137e-05
3.17137e-05
3.17137e-05
3.17137e-05
3.17137e-05
3.17136e-05
3.17136e-05
3.17135e-05
3.17135e-05
3.17134e-05
3.17134e-05
3.17133e-05
3.17133e-05
3.17133e-05
3.17134e-05
3.17135e-05
3.17136e-05
3.17136e-05
3.17135e-05
3.17135e-05
3.17135e-05
3.17136e-05
3.17137e-05
3.17138e-05
3.17139e-05
3.1713e-05
3.16979e-05
3.16979e-05
3.17133e-05
3.17137e-05
3.17138e-05
3.17138e-05
3.17137e-05
3.17137e-05
3.17137e-05
3.17136e-05
3.17136e-05
3.17135e-05
3.17135e-05
3.17134e-05
3.17134e-05
3.17133e-05
3.17133e-05
3.17134e-05
3.17135e-05
3.17135e-05
3.17135e-05
3.17135e-05
3.17135e-05
3.17135e-05
3.17136e-05
3.17136e-05
3.17136e-05
3.17136e-05
3.17136e-05
3.17131e-05
3.16978e-05
3.16981e-05
3.17134e-05
3.17138e-05
3.17138e-05
3.17138e-05
3.17138e-05
3.17138e-05
3.17137e-05
3.17137e-05
3.17136e-05
3.17135e-05
3.17135e-05
3.17134e-05
3.17134e-05
3.17134e-05
3.17134e-05
3.17135e-05
3.17135e-05
3.17135e-05
3.17135e-05
3.17135e-05
3.17135e-05
3.17136e-05
3.17136e-05
3.17136e-05
3.17136e-05
3.17136e-05
3.17136e-05
3.17132e-05
3.16979e-05
3.16982e-05
3.17136e-05
3.1714e-05
3.1714e-05
3.17139e-05
3.17139e-05
3.17139e-05
3.17138e-05
3.17138e-05
3.17137e-05
3.17136e-05
3.17135e-05
3.17134e-05
3.17134e-05
3.17134e-05
3.17134e-05
3.17135e-05
3.17135e-05
3.17135e-05
3.17135e-05
3.17136e-05
3.17137e-05
3.17137e-05
3.17138e-05
3.17138e-05
3.17138e-05
3.17138e-05
3.17138e-05
3.17133e-05
3.16979e-05
3.16985e-05
3.17138e-05
3.17142e-05
3.17142e-05
3.17141e-05
3.17141e-05
3.17141e-05
3.1714e-05
3.17139e-05
3.17138e-05
3.17137e-05
3.17136e-05
3.17135e-05
3.17134e-05
3.17134e-05
3.17134e-05
3.17135e-05
3.17135e-05
3.17136e-05
3.17137e-05
3.17138e-05
3.17139e-05
3.17139e-05
3.1714e-05
3.1714e-05
3.1714e-05
3.1714e-05
3.17139e-05
3.17133e-05
3.16981e-05
3.16987e-05
3.17141e-05
3.17145e-05
3.17144e-05
3.17144e-05
3.17143e-05
3.17143e-05
3.17142e-05
3.17141e-05
3.1714e-05
3.17139e-05
3.17137e-05
3.17135e-05
3.17134e-05
3.17133e-05
3.17134e-05
3.17135e-05
3.17136e-05
3.17138e-05
3.17139e-05
3.1714e-05
3.17141e-05
3.17142e-05
3.17142e-05
3.17142e-05
3.17142e-05
3.17142e-05
3.17141e-05
3.17136e-05
3.16984e-05
3.16989e-05
3.17144e-05
3.17148e-05
3.17147e-05
3.17147e-05
3.17146e-05
3.17146e-05
3.17145e-05
3.17144e-05
3.17142e-05
3.1714e-05
3.17139e-05
3.17137e-05
3.17135e-05
3.17133e-05
3.17134e-05
3.17136e-05
3.17138e-05
3.1714e-05
3.17141e-05
3.17143e-05
3.17144e-05
3.17145e-05
3.17145e-05
3.17145e-05
3.17145e-05
3.17144e-05
3.17144e-05
3.1714e-05
3.16988e-05
3.16992e-05
3.17148e-05
3.17152e-05
3.17151e-05
3.17151e-05
3.1715e-05
3.17149e-05
3.17147e-05
3.17146e-05
3.17144e-05
3.17142e-05
3.1714e-05
3.17138e-05
3.17135e-05
3.17133e-05
3.17134e-05
3.17136e-05
3.17139e-05
3.17142e-05
3.17144e-05
3.17146e-05
3.17147e-05
3.17148e-05
3.17148e-05
3.17148e-05
3.17148e-05
3.17148e-05
3.17149e-05
3.17145e-05
3.16993e-05
3.16997e-05
3.17153e-05
3.17157e-05
3.17156e-05
3.17155e-05
3.17153e-05
3.17152e-05
3.1715e-05
3.17148e-05
3.17146e-05
3.17144e-05
3.17142e-05
3.17139e-05
3.17136e-05
3.17133e-05
3.17134e-05
3.17137e-05
3.1714e-05
3.17144e-05
3.17146e-05
3.17149e-05
3.1715e-05
3.17152e-05
3.17152e-05
3.17153e-05
3.17153e-05
3.17154e-05
3.17155e-05
3.17151e-05
3.16999e-05
3.17004e-05
3.17159e-05
3.17163e-05
3.17162e-05
3.1716e-05
3.17158e-05
3.17156e-05
3.17153e-05
3.17151e-05
3.17148e-05
3.17146e-05
3.17144e-05
3.17141e-05
3.17138e-05
3.17134e-05
3.17134e-05
3.17138e-05
3.17142e-05
3.17145e-05
3.17149e-05
3.17152e-05
3.17154e-05
3.17156e-05
3.17157e-05
3.17158e-05
3.1716e-05
3.17161e-05
3.17162e-05
3.17158e-05
3.17005e-05
3.17014e-05
3.17167e-05
3.1717e-05
3.17168e-05
3.17166e-05
3.17164e-05
3.17161e-05
3.17158e-05
3.17155e-05
3.17152e-05
3.1715e-05
3.17147e-05
3.17143e-05
3.17139e-05
3.17136e-05
3.17135e-05
3.17139e-05
3.17143e-05
3.17147e-05
3.17151e-05
3.17155e-05
3.17158e-05
3.17161e-05
3.17163e-05
3.17165e-05
3.17167e-05
3.17169e-05
3.1717e-05
3.17166e-05
3.17013e-05
3.17025e-05
3.17175e-05
3.17179e-05
3.17177e-05
3.17174e-05
3.17171e-05
3.17168e-05
3.17165e-05
3.17161e-05
3.17158e-05
3.17154e-05
3.1715e-05
3.17145e-05
3.17141e-05
3.17137e-05
3.17137e-05
3.17139e-05
3.17144e-05
3.17149e-05
3.17154e-05
3.17159e-05
3.17163e-05
3.17167e-05
3.17171e-05
3.17174e-05
3.17176e-05
3.17178e-05
3.17179e-05
3.17175e-05
3.17022e-05
3.17038e-05
3.17185e-05
3.17189e-05
3.17187e-05
3.17184e-05
3.17181e-05
3.17177e-05
3.17174e-05
3.1717e-05
3.17165e-05
3.1716e-05
3.17154e-05
3.17148e-05
3.17142e-05
3.17138e-05
3.17137e-05
3.1714e-05
3.17145e-05
3.17152e-05
3.17158e-05
3.17164e-05
3.1717e-05
3.17175e-05
3.1718e-05
3.17184e-05
3.17187e-05
3.17189e-05
3.1719e-05
3.17186e-05
3.17033e-05
3.17052e-05
3.17198e-05
3.17202e-05
3.17199e-05
3.17196e-05
3.17193e-05
3.17189e-05
3.17185e-05
3.1718e-05
3.17174e-05
3.17166e-05
3.17158e-05
3.17151e-05
3.17144e-05
3.17139e-05
3.17138e-05
3.17142e-05
3.17149e-05
3.17157e-05
3.17164e-05
3.17172e-05
3.17179e-05
3.17186e-05
3.17191e-05
3.17196e-05
3.17199e-05
3.17202e-05
3.17203e-05
3.17199e-05
3.17047e-05
3.17068e-05
3.17214e-05
3.17217e-05
3.17215e-05
3.17212e-05
3.17208e-05
3.17204e-05
3.17199e-05
3.17192e-05
3.17183e-05
3.17174e-05
3.17165e-05
3.17156e-05
3.17148e-05
3.17141e-05
3.1714e-05
3.17146e-05
3.17154e-05
3.17164e-05
3.17173e-05
3.17182e-05
3.17191e-05
3.17199e-05
3.17205e-05
3.17211e-05
3.17215e-05
3.17217e-05
3.17219e-05
3.17216e-05
3.17066e-05
3.17087e-05
3.17233e-05
3.17237e-05
3.17234e-05
3.17231e-05
3.17227e-05
3.17222e-05
3.17214e-05
3.17206e-05
3.17196e-05
3.17185e-05
3.17174e-05
3.17163e-05
3.17153e-05
3.17145e-05
3.17144e-05
3.17152e-05
3.17162e-05
3.17173e-05
3.17184e-05
3.17195e-05
3.17205e-05
3.17214e-05
3.17222e-05
3.17228e-05
3.17233e-05
3.17237e-05
3.1724e-05
3.17238e-05
3.17088e-05
3.1711e-05
3.17258e-05
3.17261e-05
3.17258e-05
3.17254e-05
3.17249e-05
3.17242e-05
3.17234e-05
3.17223e-05
3.17211e-05
3.17199e-05
3.17186e-05
3.17172e-05
3.1716e-05
3.1715e-05
3.17149e-05
3.17159e-05
3.17172e-05
3.17185e-05
3.17198e-05
3.17211e-05
3.17222e-05
3.17233e-05
3.17242e-05
3.1725e-05
3.17256e-05
3.17261e-05
3.17265e-05
3.17263e-05
3.17113e-05
3.17139e-05
3.17288e-05
3.17291e-05
3.17287e-05
3.17283e-05
3.17276e-05
3.17268e-05
3.17257e-05
3.17244e-05
3.1723e-05
3.17215e-05
3.17199e-05
3.17183e-05
3.17168e-05
3.17156e-05
3.17156e-05
3.17168e-05
3.17183e-05
3.17199e-05
3.17214e-05
3.17229e-05
3.17243e-05
3.17255e-05
3.17267e-05
3.17276e-05
3.17284e-05
3.17291e-05
3.17295e-05
3.17293e-05
3.17143e-05
3.17176e-05
3.17326e-05
3.17328e-05
3.17324e-05
3.17318e-05
3.17309e-05
3.17298e-05
3.17285e-05
3.1727e-05
3.17253e-05
3.17235e-05
3.17216e-05
3.17196e-05
3.17177e-05
3.17164e-05
3.17164e-05
3.17178e-05
3.17196e-05
3.17215e-05
3.17233e-05
3.17251e-05
3.17268e-05
3.17283e-05
3.17297e-05
3.17309e-05
3.17319e-05
3.17326e-05
3.17332e-05
3.1733e-05
3.17181e-05
3.17221e-05
3.17372e-05
3.17373e-05
3.17368e-05
3.1736e-05
3.1735e-05
3.17336e-05
3.17319e-05
3.17301e-05
3.1728e-05
3.17258e-05
3.17235e-05
3.17211e-05
3.17189e-05
3.17174e-05
3.17175e-05
3.17191e-05
3.17213e-05
3.17235e-05
3.17257e-05
3.17279e-05
3.17299e-05
3.17318e-05
3.17334e-05
3.17349e-05
3.17361e-05
3.1737e-05
3.17376e-05
3.17376e-05
3.17227e-05
3.17277e-05
3.17429e-05
3.17429e-05
3.17422e-05
3.17412e-05
3.17398e-05
3.17381e-05
3.1736e-05
3.17338e-05
3.17313e-05
3.17286e-05
3.17258e-05
3.17231e-05
3.17205e-05
3.17187e-05
3.17188e-05
3.17207e-05
3.17233e-05
3.1726e-05
3.17287e-05
3.17313e-05
3.17338e-05
3.1736e-05
3.1738e-05
3.17397e-05
3.17412e-05
3.17423e-05
3.17431e-05
3.17432e-05
3.17283e-05
3.17345e-05
3.17497e-05
3.17496e-05
3.17487e-05
3.17473e-05
3.17456e-05
3.17435e-05
3.17411e-05
3.17384e-05
3.17354e-05
3.17322e-05
3.17289e-05
3.17256e-05
3.17226e-05
3.17205e-05
3.17206e-05
3.17228e-05
3.17258e-05
3.17291e-05
3.17324e-05
3.17356e-05
3.17385e-05
3.17412e-05
3.17435e-05
3.17455e-05
3.17472e-05
3.17486e-05
3.17496e-05
3.17498e-05
3.17349e-05
3.17427e-05
3.17578e-05
3.17575e-05
3.17563e-05
3.17546e-05
3.17526e-05
3.17501e-05
3.17473e-05
3.17441e-05
3.17405e-05
3.17367e-05
3.17328e-05
3.17289e-05
3.17253e-05
3.17228e-05
3.17228e-05
3.17253e-05
3.17289e-05
3.17329e-05
3.17369e-05
3.17407e-05
3.17442e-05
3.17473e-05
3.17501e-05
3.17525e-05
3.17546e-05
3.17562e-05
3.17574e-05
3.17577e-05
3.17429e-05
3.17525e-05
3.17673e-05
3.17668e-05
3.17654e-05
3.17635e-05
3.17611e-05
3.17583e-05
3.17549e-05
3.17511e-05
3.17469e-05
3.17423e-05
3.17376e-05
3.17329e-05
3.17286e-05
3.17257e-05
3.17257e-05
3.17285e-05
3.17328e-05
3.17376e-05
3.17424e-05
3.17469e-05
3.17511e-05
3.17549e-05
3.17582e-05
3.17611e-05
3.17635e-05
3.17654e-05
3.17668e-05
3.17672e-05
3.17526e-05
3.17641e-05
3.17786e-05
3.17779e-05
3.17763e-05
3.17741e-05
3.17714e-05
3.17681e-05
3.17641e-05
3.17596e-05
3.17546e-05
3.17492e-05
3.17435e-05
3.17379e-05
3.17328e-05
3.17295e-05
3.17294e-05
3.17327e-05
3.17378e-05
3.17435e-05
3.17492e-05
3.17546e-05
3.17596e-05
3.17641e-05
3.17681e-05
3.17714e-05
3.17742e-05
3.17764e-05
3.1778e-05
3.17786e-05
3.17641e-05
3.17777e-05
3.1792e-05
3.17912e-05
3.17894e-05
3.17869e-05
3.17838e-05
3.17798e-05
3.17752e-05
3.17698e-05
3.17639e-05
3.17575e-05
3.17508e-05
3.17442e-05
3.17383e-05
3.17345e-05
3.17345e-05
3.17383e-05
3.17442e-05
3.17509e-05
3.17576e-05
3.1764e-05
3.17699e-05
3.17753e-05
3.17799e-05
3.17838e-05
3.1787e-05
3.17895e-05
3.17913e-05
3.17922e-05
3.17778e-05
3.17939e-05
3.18081e-05
3.18072e-05
3.18051e-05
3.18022e-05
3.17985e-05
3.17939e-05
3.17885e-05
3.17822e-05
3.17753e-05
3.17678e-05
3.17599e-05
3.17521e-05
3.17454e-05
3.17411e-05
3.17412e-05
3.17455e-05
3.17523e-05
3.176e-05
3.17679e-05
3.17754e-05
3.17824e-05
3.17887e-05
3.17941e-05
3.17986e-05
3.18022e-05
3.18051e-05
3.18073e-05
3.18082e-05
3.1794e-05
3.18132e-05
3.18273e-05
3.18261e-05
3.18237e-05
3.18204e-05
3.18161e-05
3.18108e-05
3.18045e-05
3.17973e-05
3.17893e-05
3.17805e-05
3.17713e-05
3.17623e-05
3.17546e-05
3.17498e-05
3.17499e-05
3.17547e-05
3.17624e-05
3.17714e-05
3.17805e-05
3.17894e-05
3.17975e-05
3.18048e-05
3.1811e-05
3.18162e-05
3.18204e-05
3.18237e-05
3.18262e-05
3.18273e-05
3.18132e-05
3.1836e-05
3.18499e-05
3.18486e-05
3.18458e-05
3.1842e-05
3.18372e-05
3.18311e-05
3.1824e-05
3.18158e-05
3.18065e-05
3.17963e-05
3.17857e-05
3.17753e-05
3.17665e-05
3.17612e-05
3.17612e-05
3.17665e-05
3.17753e-05
3.17855e-05
3.17962e-05
3.18065e-05
3.18159e-05
3.18242e-05
3.18313e-05
3.18372e-05
3.18421e-05
3.18459e-05
3.18486e-05
3.18499e-05
3.18361e-05
3.18626e-05
3.18764e-05
3.18749e-05
3.18718e-05
3.18677e-05
3.18622e-05
3.18555e-05
3.18475e-05
3.18382e-05
3.18275e-05
3.18158e-05
3.18036e-05
3.17917e-05
3.17818e-05
3.17759e-05
3.17759e-05
3.17818e-05
3.17916e-05
3.18034e-05
3.18156e-05
3.18274e-05
3.18382e-05
3.18476e-05
3.18557e-05
3.18624e-05
3.18678e-05
3.18719e-05
3.18749e-05
3.18764e-05
3.18628e-05
3.18937e-05
3.19072e-05
3.19056e-05
3.19024e-05
3.18979e-05
3.1892e-05
3.18847e-05
3.18758e-05
3.18652e-05
3.18531e-05
3.18397e-05
3.18258e-05
3.18125e-05
3.18015e-05
3.1795e-05
3.1795e-05
3.18015e-05
3.18125e-05
3.18258e-05
3.18397e-05
3.1853e-05
3.18651e-05
3.18756e-05
3.18846e-05
3.1892e-05
3.18979e-05
3.19023e-05
3.19054e-05
3.1907e-05
3.18935e-05
3.19295e-05
3.19429e-05
3.19412e-05
3.19379e-05
3.19332e-05
3.1927e-05
3.19191e-05
3.19094e-05
3.18977e-05
3.18841e-05
3.18692e-05
3.18537e-05
3.1839e-05
3.18269e-05
3.18199e-05
3.18199e-05
3.1827e-05
3.18391e-05
3.18539e-05
3.18693e-05
3.18841e-05
3.18975e-05
3.19091e-05
3.1919e-05
3.1927e-05
3.19331e-05
3.19376e-05
3.19409e-05
3.19424e-05
3.19291e-05
3.19706e-05
3.19838e-05
3.19822e-05
3.1979e-05
3.19744e-05
3.1968e-05
3.19597e-05
3.19493e-05
3.19366e-05
3.19219e-05
3.19056e-05
3.18888e-05
3.18728e-05
3.18597e-05
3.18522e-05
3.18522e-05
3.18598e-05
3.1873e-05
3.18891e-05
3.1906e-05
3.19221e-05
3.19367e-05
3.19493e-05
3.19598e-05
3.1968e-05
3.19742e-05
3.19788e-05
3.19818e-05
3.19831e-05
3.197e-05
3.20172e-05
3.20303e-05
3.20289e-05
3.20261e-05
3.20217e-05
3.20156e-05
3.20073e-05
3.19966e-05
3.19834e-05
3.19679e-05
3.19506e-05
3.19326e-05
3.19156e-05
3.19017e-05
3.18936e-05
3.18936e-05
3.19017e-05
3.19158e-05
3.19331e-05
3.19512e-05
3.19685e-05
3.1984e-05
3.19972e-05
3.20079e-05
3.2016e-05
3.2022e-05
3.20261e-05
3.20286e-05
3.20296e-05
3.20167e-05
3.20695e-05
3.20825e-05
3.20816e-05
3.20794e-05
3.20758e-05
3.20704e-05
3.20627e-05
3.20524e-05
3.20393e-05
3.20236e-05
3.20058e-05
3.19871e-05
3.19693e-05
3.19548e-05
3.19465e-05
3.19465e-05
3.19549e-05
3.19696e-05
3.19876e-05
3.20065e-05
3.20244e-05
3.20402e-05
3.20534e-05
3.20637e-05
3.20713e-05
3.20765e-05
3.20798e-05
3.20816e-05
3.20821e-05
3.20693e-05
3.21271e-05
3.21402e-05
3.21401e-05
3.2139e-05
3.21368e-05
3.21329e-05
3.21267e-05
3.21176e-05
3.21055e-05
3.20904e-05
3.20728e-05
3.20541e-05
3.20361e-05
3.20215e-05
3.20131e-05
3.20131e-05
3.20216e-05
3.20363e-05
3.20543e-05
3.20731e-05
3.20908e-05
3.21062e-05
3.21184e-05
3.21275e-05
3.21338e-05
3.21377e-05
3.21396e-05
3.21404e-05
3.21404e-05
3.21275e-05
3.21895e-05
3.22028e-05
3.22039e-05
3.22047e-05
3.22048e-05
3.22034e-05
3.21998e-05
3.21932e-05
3.21832e-05
3.21698e-05
3.21536e-05
3.21358e-05
3.21185e-05
3.21044e-05
3.20963e-05
3.20962e-05
3.21042e-05
3.21182e-05
3.21354e-05
3.21532e-05
3.21695e-05
3.2183e-05
3.21932e-05
3.21999e-05
3.22039e-05
3.22053e-05
3.22051e-05
3.22044e-05
3.22034e-05
3.21904e-05
3.22554e-05
3.22692e-05
3.22722e-05
3.22758e-05
3.22793e-05
3.22817e-05
3.22822e-05
3.22796e-05
3.22733e-05
3.22634e-05
3.22502e-05
3.2235e-05
3.22197e-05
3.22069e-05
3.21994e-05
3.21993e-05
3.22065e-05
3.22191e-05
3.22343e-05
3.22494e-05
3.22627e-05
3.22726e-05
3.22789e-05
3.22817e-05
3.22815e-05
3.22791e-05
3.22759e-05
3.22726e-05
3.22701e-05
3.22565e-05
3.23231e-05
3.23377e-05
3.23435e-05
3.2351e-05
3.23593e-05
3.23673e-05
3.23737e-05
3.23772e-05
3.2377e-05
3.23727e-05
3.23649e-05
3.23543e-05
3.23428e-05
3.23327e-05
3.23266e-05
3.23266e-05
3.23325e-05
3.23425e-05
3.23539e-05
3.23644e-05
3.23723e-05
3.23764e-05
3.23764e-05
3.2373e-05
3.23667e-05
3.23588e-05
3.23509e-05
3.23439e-05
3.23388e-05
3.2324e-05
3.23902e-05
3.24063e-05
3.24158e-05
3.24284e-05
3.24432e-05
3.24587e-05
3.24733e-05
3.24856e-05
3.24944e-05
3.24988e-05
3.24991e-05
3.24957e-05
3.24901e-05
3.24844e-05
3.24809e-05
3.24811e-05
3.24848e-05
3.24904e-05
3.24959e-05
3.24992e-05
3.24989e-05
3.24942e-05
3.24853e-05
3.2473e-05
3.24581e-05
3.24427e-05
3.24284e-05
3.24164e-05
3.24073e-05
3.23909e-05
3.24544e-05
3.24725e-05
3.24868e-05
3.25059e-05
3.25288e-05
3.2554e-05
3.25796e-05
3.26039e-05
3.26251e-05
3.26421e-05
3.26537e-05
3.26606e-05
3.26634e-05
3.26641e-05
3.2664e-05
3.26642e-05
3.26645e-05
3.26638e-05
3.2661e-05
3.26541e-05
3.26423e-05
3.26251e-05
3.26039e-05
3.25794e-05
3.25535e-05
3.25285e-05
3.2506e-05
3.24876e-05
3.24731e-05
3.24547e-05
3.2513e-05
3.25333e-05
3.25532e-05
3.25805e-05
3.26138e-05
3.26509e-05
3.26904e-05
3.27301e-05
3.27676e-05
3.28011e-05
3.28289e-05
3.28499e-05
3.28642e-05
3.28734e-05
3.28779e-05
3.2878e-05
3.28735e-05
3.28643e-05
3.28501e-05
3.28292e-05
3.28013e-05
3.27677e-05
3.27303e-05
3.26902e-05
3.26506e-05
3.26137e-05
3.25807e-05
3.2554e-05
3.25336e-05
3.25131e-05
3.25592e-05
3.25833e-05
3.26105e-05
3.26478e-05
3.26937e-05
3.27458e-05
3.28025e-05
3.28608e-05
3.29183e-05
3.29722e-05
3.30213e-05
3.30636e-05
3.30984e-05
3.31234e-05
3.31392e-05
3.31392e-05
3.31233e-05
3.30982e-05
3.30636e-05
3.30213e-05
3.29721e-05
3.29182e-05
3.28608e-05
3.28022e-05
3.27455e-05
3.26937e-05
3.26482e-05
3.26111e-05
3.25835e-05
3.25595e-05
3.25925e-05
3.2622e-05
3.26587e-05
3.27081e-05
3.27693e-05
3.28397e-05
3.29171e-05
3.29996e-05
3.30844e-05
3.31719e-05
3.32656e-05
3.33745e-05
3.35058e-05
3.36472e-05
3.37851e-05
3.37848e-05
3.36472e-05
3.35057e-05
3.33745e-05
3.32657e-05
3.31719e-05
3.30845e-05
3.29996e-05
3.29168e-05
3.28395e-05
3.27693e-05
3.27085e-05
3.2659e-05
3.26222e-05
3.25929e-05
3.26413e-05
3.26786e-05
3.27259e-05
3.27895e-05
3.28681e-05
3.29604e-05
3.30663e-05
3.31905e-05
3.33506e-05
3.35914e-05
3.40048e-05
3.47362e-05
3.58961e-05
3.73452e-05
3.89072e-05
3.89045e-05
3.73459e-05
3.58958e-05
3.47372e-05
3.40068e-05
3.35927e-05
3.33513e-05
3.31904e-05
3.30659e-05
3.29603e-05
3.28681e-05
3.27898e-05
3.27261e-05
3.26788e-05
3.26413e-05
3.26921e-05
3.27318e-05
3.27866e-05
3.28615e-05
3.29598e-05
3.30923e-05
3.32949e-05
3.36692e-05
3.44557e-05
3.61557e-05
3.96932e-05
4.62916e-05
5.65528e-05
6.89429e-05
8.20255e-05
8.20099e-05
6.89475e-05
5.65582e-05
4.63093e-05
3.97185e-05
3.61724e-05
3.44629e-05
3.36707e-05
3.32939e-05
3.30909e-05
3.29583e-05
3.28609e-05
3.2786e-05
3.2732e-05
3.26911e-05
3.24758e-05
3.25425e-05
3.26525e-05
3.28391e-05
3.316e-05
3.37656e-05
3.50975e-05
3.8136e-05
4.48863e-05
5.87891e-05
8.52328e-05
0.000129791
0.000192614
0.000262458
0.000332688
0.000332649
0.000262463
0.000192726
0.000129987
8.54501e-05
5.89359e-05
4.49558e-05
3.81585e-05
3.50938e-05
3.37493e-05
3.31351e-05
3.28235e-05
3.2643e-05
3.25368e-05
3.24655e-05
3.37245e-05
3.40605e-05
3.49352e-05
3.66508e-05
3.96493e-05
4.56565e-05
5.83397e-05
8.44089e-05
0.000134528
0.000222188
0.000365085
0.000573494
0.000830942
0.00108722
0.0013313
0.00133131
0.0010872
0.000831927
0.000574974
0.000366469
0.000223123
0.000135035
8.46835e-05
5.83971e-05
4.55311e-05
3.94566e-05
3.64775e-05
3.48297e-05
3.39633e-05
3.35409e-05
5.43875e-05
5.89842e-05
7.44258e-05
9.59338e-05
0.000127985
0.000189086
0.000301641
0.000482061
0.000739104
0.00107373
0.00150359
0.00202433
0.00256855
0.00301808
0.00343534
0.00343552
0.00301862
0.00257358
0.00203144
0.0015093
0.00107781
0.000742395
0.000484841
0.000303499
0.000190128
0.000128564
9.60017e-05
7.43064e-05
5.82946e-05
5.40765e-05
7.05181e-05
7.34944e-05
8.4695e-05
0.000107162
0.000150096
0.000228905
0.000350104
0.00050823
0.000722501
0.00106217
0.00165698
0.00254133
0.00342918
0.00403791
0.00468179
0.00468313
0.00404409
0.00344776
0.00256747
0.00167709
0.00107268
0.000727581
0.000511367
0.000352565
0.000230642
0.000150909
0.000107249
8.46545e-05
7.30321e-05
7.05351e-05
7.54222e-05
7.82001e-05
8.5023e-05
9.71255e-05
0.000120593
0.000172422
0.000279132
0.000457164
0.000712772
0.00104691
0.00144537
0.0019243
0.00243599
0.00285203
0.00325115
0.00325278
0.00285533
0.00244511
0.00193574
0.0014548
0.00105409
0.00071829
0.000461206
0.000281766
0.000173803
0.000121068
9.71491e-05
8.50283e-05
7.80735e-05
7.55837e-05
7.60287e-05
7.8735e-05
8.29541e-05
8.94793e-05
9.89115e-05
0.000114674
0.000149867
0.00023949
0.000428095
0.00073783
0.00113742
0.00158585
0.00203238
0.00237826
0.00267457
0.00267566
0.00237973
0.00203733
0.00159304
0.00114456
0.00074423
0.000432764
0.000242099
0.000151055
0.000115166
9.91253e-05
8.95647e-05
8.29867e-05
7.86988e-05
7.62206e-05
7.62959e-05
7.81241e-05
8.10655e-05
8.50944e-05
9.00047e-05
9.5988e-05
0.000104111
0.000119062
0.000162506
0.000297299
0.00056923
0.000953327
0.00138152
0.00177902
0.00213273
0.0021331
0.00177934
0.00138418
0.000957346
0.000573671
0.000300606
0.000164058
0.000119611
0.000104388
9.617e-05
9.01291e-05
8.51652e-05
8.10904e-05
7.80661e-05
7.62747e-05
7.67254e-05
7.76664e-05
7.99876e-05
8.30708e-05
8.66327e-05
9.06e-05
9.49779e-05
0.000100034
0.000106897
0.000121312
0.000165617
0.000299667
0.000545595
0.000888089
0.00126142
0.00126099
0.000887411
0.000546311
0.000300994
0.000166449
0.000121735
0.00010709
0.000100148
9.5071e-05
9.06887e-05
8.67002e-05
8.30992e-05
8.00022e-05
7.76561e-05
7.67001e-05
7.71763e-05
7.75005e-05
7.93377e-05
8.18292e-05
8.47573e-05
8.80438e-05
9.16086e-05
9.54045e-05
9.94192e-05
0.000103881
0.000109934
0.000121031
0.00014292
0.000194209
0.000350615
0.0003503
0.000194202
0.000143125
0.000121256
0.000110135
0.000104032
9.95232e-05
9.54756e-05
9.16591e-05
8.80888e-05
8.47958e-05
8.18323e-05
7.93094e-05
7.74549e-05
7.71523e-05
7.70931e-05
7.70234e-05
7.84163e-05
8.04763e-05
8.29584e-05
8.5761e-05
8.87912e-05
9.19919e-05
9.52681e-05
9.85565e-05
0.000101736
0.000104783
0.000107875
0.000111621
0.000118064
0.000118062
0.000111637
0.000107881
0.000104769
0.000101706
9.8518e-05
9.52357e-05
9.19655e-05
8.87789e-05
8.57802e-05
8.30002e-05
8.05066e-05
7.84108e-05
7.69659e-05
7.70638e-05
7.62562e-05
7.59066e-05
7.6976e-05
7.86438e-05
8.06801e-05
8.3005e-05
8.5524e-05
8.81529e-05
9.08112e-05
9.33743e-05
9.56939e-05
9.76405e-05
9.91745e-05
0.000100221
0.00010082
0.000100833
0.00010023
9.91628e-05
9.76291e-05
9.56901e-05
9.33784e-05
9.08377e-05
8.81967e-05
8.55779e-05
8.30621e-05
8.07193e-05
7.86589e-05
7.69626e-05
7.58673e-05
7.61581e-05
7.45012e-05
7.4058e-05
7.49141e-05
7.62477e-05
7.78839e-05
7.97466e-05
8.17751e-05
8.38392e-05
8.58455e-05
8.76686e-05
8.92645e-05
9.05511e-05
9.1513e-05
9.21011e-05
9.23529e-05
9.23712e-05
9.2128e-05
9.15391e-05
9.05828e-05
8.93109e-05
8.77163e-05
8.58964e-05
8.38996e-05
8.18229e-05
7.9772e-05
7.78813e-05
7.62289e-05
7.48955e-05
7.40645e-05
7.44747e-05
7.223e-05
7.16819e-05
7.23309e-05
7.33613e-05
7.46203e-05
7.60339e-05
7.75221e-05
7.89945e-05
8.0383e-05
8.15981e-05
8.26105e-05
8.33824e-05
8.38912e-05
8.41647e-05
8.42696e-05
8.42704e-05
8.41618e-05
8.38773e-05
8.33694e-05
8.26127e-05
8.1601e-05
8.0379e-05
7.89913e-05
7.75049e-05
7.60103e-05
7.45993e-05
7.33472e-05
7.23198e-05
7.16851e-05
7.22613e-05
6.94807e-05
6.88846e-05
6.93022e-05
7.0038e-05
7.09463e-05
7.1953e-05
7.29843e-05
7.39773e-05
7.48442e-05
7.55627e-05
7.60958e-05
7.64344e-05
7.6578e-05
7.66044e-05
7.65839e-05
7.65802e-05
7.66045e-05
7.65856e-05
7.64523e-05
7.61279e-05
7.55976e-05
7.48651e-05
7.39819e-05
7.29785e-05
7.1944e-05
7.09543e-05
7.00606e-05
6.93264e-05
6.88922e-05
6.94915e-05
6.63752e-05
6.5741e-05
6.60017e-05
6.65131e-05
6.71324e-05
6.78108e-05
6.84572e-05
6.90356e-05
6.94941e-05
6.98028e-05
6.99421e-05
6.99162e-05
6.97755e-05
6.95992e-05
6.9473e-05
6.94769e-05
6.96169e-05
6.98051e-05
6.99452e-05
6.99686e-05
6.98314e-05
6.95186e-05
6.90488e-05
6.84586e-05
6.78063e-05
6.715e-05
6.65443e-05
6.60383e-05
6.57681e-05
6.63624e-05
6.30552e-05
6.24487e-05
6.26136e-05
6.29512e-05
6.33387e-05
6.3734e-05
6.40725e-05
6.43307e-05
6.44623e-05
6.44455e-05
6.42715e-05
6.39632e-05
6.35943e-05
6.32596e-05
6.3044e-05
6.30449e-05
6.3262e-05
6.36034e-05
6.39742e-05
6.42807e-05
6.44601e-05
6.44801e-05
6.43414e-05
6.40729e-05
6.37268e-05
6.33423e-05
6.29601e-05
6.26356e-05
6.24978e-05
6.30728e-05
5.97357e-05
5.91808e-05
5.92534e-05
5.94425e-05
5.96438e-05
5.98256e-05
5.99259e-05
5.99345e-05
5.98237e-05
5.95563e-05
5.91423e-05
5.86332e-05
5.81027e-05
5.76498e-05
5.73778e-05
5.73834e-05
5.7661e-05
5.81179e-05
5.86527e-05
5.91577e-05
5.95671e-05
5.98366e-05
5.99548e-05
5.99422e-05
5.98269e-05
5.96481e-05
5.94485e-05
5.92741e-05
5.92305e-05
5.97736e-05
5.65648e-05
5.60302e-05
5.60351e-05
5.60958e-05
5.61664e-05
5.61732e-05
5.6107e-05
5.59443e-05
5.56427e-05
5.51923e-05
5.46244e-05
5.39853e-05
5.33522e-05
5.28228e-05
5.25181e-05
5.25265e-05
5.28361e-05
5.33586e-05
5.39895e-05
5.4632e-05
5.52032e-05
5.56539e-05
5.59611e-05
5.61287e-05
5.61842e-05
5.61666e-05
5.61049e-05
5.60345e-05
5.60541e-05
5.65893e-05
5.35554e-05
5.30508e-05
5.29832e-05
5.29543e-05
5.29324e-05
5.28261e-05
5.26518e-05
5.23639e-05
5.19322e-05
5.13732e-05
5.07135e-05
4.99971e-05
4.93021e-05
4.87331e-05
4.84072e-05
4.84092e-05
4.87352e-05
4.93006e-05
4.99941e-05
5.07194e-05
5.13868e-05
5.19461e-05
5.23755e-05
5.26749e-05
5.28575e-05
5.29475e-05
5.29769e-05
5.29778e-05
5.30396e-05
5.35542e-05
5.07411e-05
5.02688e-05
5.01604e-05
5.00998e-05
4.99847e-05
4.98141e-05
4.95678e-05
4.9195e-05
4.86927e-05
4.80803e-05
4.73725e-05
4.66184e-05
4.5904e-05
4.53295e-05
4.50026e-05
4.50053e-05
4.53373e-05
4.59137e-05
4.66263e-05
4.73805e-05
4.8094e-05
4.87156e-05
4.9219e-05
4.95961e-05
4.98533e-05
5.00119e-05
5.01028e-05
5.01572e-05
5.02474e-05
5.07262e-05
4.81852e-05
4.7741e-05
4.76138e-05
4.75231e-05
4.73665e-05
4.71706e-05
4.68691e-05
4.64494e-05
4.59234e-05
4.52896e-05
4.45687e-05
4.38164e-05
4.31169e-05
4.25546e-05
4.22285e-05
4.22262e-05
4.25523e-05
4.31209e-05
4.38273e-05
4.45781e-05
4.52961e-05
4.59323e-05
4.64605e-05
4.68725e-05
4.7174e-05
4.7381e-05
4.75161e-05
4.76055e-05
4.77089e-05
4.81444e-05
4.58242e-05
4.54442e-05
4.5327e-05
4.52173e-05
4.50667e-05
4.48401e-05
4.45053e-05
4.40781e-05
4.35508e-05
4.29218e-05
4.22225e-05
4.15044e-05
4.08363e-05
4.0295e-05
3.99795e-05
3.99793e-05
4.02959e-05
4.08432e-05
4.15185e-05
4.22344e-05
4.29243e-05
4.35457e-05
4.40746e-05
4.45006e-05
4.48257e-05
4.50603e-05
4.52201e-05
4.53272e-05
4.54358e-05
4.58282e-05
4.37763e-05
4.34091e-05
4.33194e-05
4.32027e-05
4.30436e-05
4.27918e-05
4.24605e-05
4.20477e-05
4.15363e-05
4.09392e-05
4.02862e-05
3.96188e-05
3.89902e-05
3.84768e-05
3.81781e-05
3.81783e-05
3.84758e-05
3.89877e-05
3.96172e-05
4.02864e-05
4.09374e-05
4.15309e-05
4.20422e-05
4.24605e-05
4.27868e-05
4.30302e-05
4.32032e-05
4.3321e-05
4.34308e-05
4.37775e-05
4.19548e-05
4.165e-05
4.15607e-05
4.14465e-05
4.12728e-05
4.10283e-05
4.07197e-05
4.0324e-05
3.98422e-05
3.92918e-05
3.86939e-05
3.80788e-05
3.74945e-05
3.70186e-05
3.67438e-05
3.67459e-05
3.70226e-05
3.74954e-05
3.80752e-05
3.86914e-05
3.92927e-05
3.98421e-05
4.03184e-05
4.07134e-05
4.10292e-05
4.12723e-05
4.14509e-05
4.15753e-05
4.16787e-05
4.19756e-05
4.03668e-05
4.01423e-05
4.004e-05
3.99258e-05
3.97537e-05
3.95273e-05
3.92311e-05
3.8857e-05
3.8418e-05
3.7924e-05
3.73858e-05
3.6829e-05
3.63003e-05
3.58721e-05
3.56237e-05
3.56261e-05
3.58785e-05
3.63067e-05
3.68324e-05
3.73884e-05
3.79311e-05
3.84285e-05
3.88638e-05
3.92307e-05
3.95293e-05
3.97631e-05
3.99371e-05
4.00591e-05
4.01537e-05
4.04014e-05
3.9035e-05
3.88283e-05
3.87407e-05
3.8626e-05
3.84624e-05
3.82483e-05
3.79694e-05
3.76341e-05
3.72479e-05
3.68115e-05
3.63321e-05
3.58352e-05
3.53632e-05
3.49766e-05
3.47481e-05
3.47468e-05
3.4973e-05
3.53584e-05
3.58294e-05
3.63266e-05
3.68107e-05
3.72555e-05
3.76473e-05
3.79804e-05
3.82533e-05
3.84683e-05
3.863e-05
3.87445e-05
3.88314e-05
3.90377e-05
3.78662e-05
3.76907e-05
3.76176e-05
3.75041e-05
3.73552e-05
3.71595e-05
3.69145e-05
3.66234e-05
3.62836e-05
3.58957e-05
3.54711e-05
3.5033e-05
3.46152e-05
3.42668e-05
3.40574e-05
3.40554e-05
3.42617e-05
3.46097e-05
3.50295e-05
3.54695e-05
3.5895e-05
3.62855e-05
3.66304e-05
3.69247e-05
3.71677e-05
3.73614e-05
3.75093e-05
3.76155e-05
3.76954e-05
3.78667e-05
3.68541e-05
3.67337e-05
3.66528e-05
3.655e-05
3.64203e-05
3.62489e-05
3.60367e-05
3.57799e-05
3.54775e-05
3.51358e-05
3.47672e-05
3.43875e-05
3.40224e-05
3.37145e-05
3.35271e-05
3.35269e-05
3.37141e-05
3.40234e-05
3.43912e-05
3.47727e-05
3.51402e-05
3.54782e-05
3.57782e-05
3.60363e-05
3.62517e-05
3.64253e-05
3.6559e-05
3.6656e-05
3.67275e-05
3.68671e-05
3.602e-05
3.59117e-05
3.5835e-05
3.57524e-05
3.5638e-05
3.54878e-05
3.53001e-05
3.50735e-05
3.48105e-05
3.45177e-05
3.42026e-05
3.38758e-05
3.35586e-05
3.32881e-05
3.31213e-05
3.31206e-05
3.32858e-05
3.35553e-05
3.38722e-05
3.41996e-05
3.4516e-05
3.48087e-05
3.50702e-05
3.52965e-05
3.54861e-05
3.56391e-05
3.57572e-05
3.5843e-05
3.5905e-05
3.60166e-05
3.53017e-05
3.51996e-05
3.51475e-05
3.50782e-05
3.49749e-05
3.48411e-05
3.46774e-05
3.44847e-05
3.42634e-05
3.40158e-05
3.3746e-05
3.34639e-05
3.31879e-05
3.29502e-05
3.28021e-05
3.28015e-05
3.29471e-05
3.3181e-05
3.34539e-05
3.37358e-05
3.40089e-05
3.42619e-05
3.44878e-05
3.46832e-05
3.48465e-05
3.49782e-05
3.50802e-05
3.51549e-05
3.52086e-05
3.52976e-05
3.46825e-05
3.46173e-05
3.45786e-05
3.45118e-05
3.44188e-05
3.43021e-05
3.4165e-05
3.40042e-05
3.38175e-05
3.36057e-05
3.33734e-05
3.31305e-05
3.28931e-05
3.26883e-05
3.25596e-05
3.25602e-05
3.26888e-05
3.28919e-05
3.31265e-05
3.33677e-05
3.36004e-05
3.38151e-05
3.40066e-05
3.4172e-05
3.43106e-05
3.44232e-05
3.45114e-05
3.45771e-05
3.46242e-05
3.46946e-05
3.41815e-05
3.41436e-05
3.41023e-05
3.40418e-05
3.39615e-05
3.38646e-05
3.37492e-05
3.36111e-05
3.34505e-05
3.32692e-05
3.30718e-05
3.28667e-05
3.26669e-05
3.24932e-05
3.23811e-05
3.2381e-05
3.24935e-05
3.26681e-05
3.28675e-05
3.30704e-05
3.3265e-05
3.34447e-05
3.36055e-05
3.37454e-05
3.38638e-05
3.39611e-05
3.40384e-05
3.40964e-05
3.41373e-05
3.41899e-05
3.37672e-05
3.37316e-05
3.36953e-05
3.36472e-05
3.35822e-05
3.35013e-05
3.34e-05
3.32799e-05
3.31433e-05
3.29914e-05
3.28274e-05
3.26578e-05
3.24918e-05
3.23441e-05
3.22448e-05
3.22432e-05
3.23403e-05