/*--------------------------------*- C++ -*----------------------------------*\
| =========                 |                                                 |
| \\      /  F ield         | OpenFOAM: The Open Source CFD Toolbox           |
|  \\    /   O peration     | Version:  2312                                  |
|   \\  /    A nd           | Website:  www.openfoam.com                      |
|    \\/     M anipulation  |                                                 |
\*---------------------------------------------------------------------------*/
FoamFile
{
    version     2.0;
    format      ascii;
    arch        "LSB;label=32;scalar=64";
    class       volScalarField;
    location    "0.357759";
    object      nut;
}
// * * * * * * * * * * * * * * * * * * * * * * * * * * * * * * * * * * * * * //

dimensions      [0 2 -1 0 0 0 0];

internalField   nonuniform List<scalar> 
90000
(
6.25773e-06
6.25779e-06
6.25779e-06
6.2578e-06
6.2578e-06
6.2578e-06
6.2578e-06
6.25779e-06
6.25779e-06
6.25778e-06
6.25778e-06
6.25778e-06
6.25777e-06
6.25777e-06
6.25776e-06
6.25776e-06
6.25777e-06
6.25778e-06
6.25778e-06
6.25778e-06
6.25778e-06
6.25778e-06
6.2578e-06
6.25781e-06
6.25783e-06
6.25783e-06
6.25783e-06
6.25782e-06
6.25779e-06
6.25776e-06
6.2578e-06
6.25962e-06
6.25967e-06
6.25967e-06
6.25967e-06
6.25967e-06
6.25967e-06
6.25967e-06
6.25967e-06
6.25966e-06
6.25966e-06
6.25965e-06
6.25965e-06
6.25964e-06
6.25964e-06
6.25964e-06
6.25964e-06
6.25964e-06
6.25964e-06
6.25965e-06
6.25966e-06
6.25967e-06
6.25967e-06
6.25967e-06
6.25967e-06
6.25967e-06
6.25968e-06
6.25969e-06
6.25967e-06
6.25793e-06
6.2578e-06
6.25967e-06
6.25973e-06
6.25974e-06
6.25974e-06
6.25974e-06
6.25974e-06
6.25973e-06
6.25973e-06
6.25972e-06
6.25972e-06
6.25972e-06
6.25971e-06
6.25971e-06
6.2597e-06
6.25969e-06
6.25969e-06
6.2597e-06
6.25972e-06
6.25972e-06
6.25973e-06
6.25973e-06
6.25972e-06
6.25972e-06
6.25973e-06
6.25974e-06
6.25975e-06
6.25974e-06
6.25963e-06
6.25784e-06
6.2578e-06
6.25967e-06
6.25974e-06
6.25974e-06
6.25975e-06
6.25975e-06
6.25974e-06
6.25974e-06
6.25973e-06
6.25973e-06
6.25972e-06
6.25972e-06
6.25971e-06
6.25971e-06
6.2597e-06
6.25969e-06
6.2597e-06
6.25972e-06
6.25973e-06
6.25973e-06
6.25973e-06
6.25972e-06
6.25971e-06
6.25973e-06
6.25974e-06
6.25975e-06
6.25976e-06
6.25977e-06
6.25965e-06
6.25781e-06
6.25781e-06
6.25969e-06
6.25975e-06
6.25975e-06
6.25975e-06
6.25975e-06
6.25975e-06
6.25974e-06
6.25974e-06
6.25973e-06
6.25972e-06
6.25972e-06
6.25971e-06
6.2597e-06
6.2597e-06
6.2597e-06
6.25971e-06
6.25972e-06
6.25973e-06
6.25973e-06
6.25972e-06
6.25971e-06
6.25972e-06
6.25973e-06
6.25974e-06
6.25974e-06
6.25973e-06
6.25974e-06
6.25966e-06
6.2578e-06
6.25783e-06
6.25971e-06
6.25977e-06
6.25977e-06
6.25976e-06
6.25976e-06
6.25976e-06
6.25975e-06
6.25974e-06
6.25974e-06
6.25973e-06
6.25972e-06
6.25971e-06
6.2597e-06
6.25971e-06
6.25971e-06
6.25972e-06
6.25972e-06
6.25972e-06
6.25972e-06
6.25972e-06
6.25972e-06
6.25973e-06
6.25974e-06
6.25973e-06
6.25973e-06
6.25972e-06
6.25973e-06
6.25968e-06
6.2578e-06
6.25786e-06
6.25973e-06
6.25979e-06
6.25978e-06
6.25978e-06
6.25977e-06
6.25977e-06
6.25976e-06
6.25976e-06
6.25975e-06
6.25973e-06
6.25972e-06
6.25971e-06
6.25971e-06
6.25971e-06
6.25971e-06
6.25972e-06
6.25972e-06
6.25972e-06
6.25972e-06
6.25973e-06
6.25974e-06
6.25975e-06
6.25975e-06
6.25975e-06
6.25975e-06
6.25975e-06
6.25975e-06
6.25969e-06
6.25781e-06
6.25789e-06
6.25976e-06
6.25981e-06
6.25981e-06
6.2598e-06
6.2598e-06
6.25979e-06
6.25979e-06
6.25978e-06
6.25976e-06
6.25975e-06
6.25973e-06
6.25971e-06
6.25971e-06
6.25971e-06
6.25971e-06
6.25972e-06
6.25972e-06
6.25973e-06
6.25974e-06
6.25976e-06
6.25977e-06
6.25978e-06
6.25978e-06
6.25978e-06
6.25978e-06
6.25978e-06
6.25977e-06
6.25969e-06
6.25783e-06
6.25791e-06
6.25979e-06
6.25984e-06
6.25984e-06
6.25983e-06
6.25982e-06
6.25982e-06
6.25981e-06
6.2598e-06
6.25979e-06
6.25977e-06
6.25975e-06
6.25972e-06
6.25971e-06
6.2597e-06
6.25971e-06
6.25973e-06
6.25974e-06
6.25976e-06
6.25977e-06
6.25979e-06
6.2598e-06
6.25981e-06
6.25981e-06
6.25981e-06
6.2598e-06
6.2598e-06
6.25978e-06
6.25971e-06
6.25787e-06
6.25794e-06
6.25983e-06
6.25988e-06
6.25987e-06
6.25987e-06
6.25986e-06
6.25985e-06
6.25984e-06
6.25983e-06
6.25981e-06
6.25979e-06
6.25977e-06
6.25974e-06
6.25972e-06
6.2597e-06
6.25971e-06
6.25974e-06
6.25976e-06
6.25979e-06
6.25981e-06
6.25982e-06
6.25983e-06
6.25984e-06
6.25984e-06
6.25984e-06
6.25983e-06
6.25983e-06
6.25982e-06
6.25976e-06
6.25792e-06
6.25797e-06
6.25988e-06
6.25992e-06
6.25992e-06
6.25991e-06
6.2599e-06
6.25988e-06
6.25987e-06
6.25985e-06
6.25983e-06
6.25981e-06
6.25979e-06
6.25976e-06
6.25973e-06
6.2597e-06
6.25971e-06
6.25975e-06
6.25978e-06
6.25981e-06
6.25984e-06
6.25986e-06
6.25987e-06
6.25988e-06
6.25988e-06
6.25988e-06
6.25988e-06
6.25988e-06
6.25988e-06
6.25982e-06
6.25798e-06
6.25802e-06
6.25994e-06
6.25998e-06
6.25997e-06
6.25996e-06
6.25994e-06
6.25992e-06
6.25989e-06
6.25987e-06
6.25985e-06
6.25983e-06
6.25981e-06
6.25978e-06
6.25974e-06
6.2597e-06
6.25971e-06
6.25975e-06
6.2598e-06
6.25984e-06
6.25987e-06
6.25989e-06
6.25991e-06
6.25992e-06
6.25993e-06
6.25993e-06
6.25994e-06
6.25994e-06
6.25995e-06
6.2599e-06
6.25804e-06
6.25811e-06
6.26001e-06
6.26005e-06
6.26004e-06
6.26002e-06
6.26e-06
6.25996e-06
6.25993e-06
6.2599e-06
6.25988e-06
6.25985e-06
6.25983e-06
6.2598e-06
6.25976e-06
6.25971e-06
6.25971e-06
6.25976e-06
6.2598e-06
6.25985e-06
6.25989e-06
6.25993e-06
6.25995e-06
6.25997e-06
6.25999e-06
6.26e-06
6.26001e-06
6.26002e-06
6.26003e-06
6.25998e-06
6.25812e-06
6.25823e-06
6.2601e-06
6.26014e-06
6.26012e-06
6.26009e-06
6.26006e-06
6.26002e-06
6.25999e-06
6.25995e-06
6.25992e-06
6.25989e-06
6.25986e-06
6.25982e-06
6.25977e-06
6.25973e-06
6.25973e-06
6.25976e-06
6.25981e-06
6.25986e-06
6.25991e-06
6.25996e-06
6.26e-06
6.26004e-06
6.26006e-06
6.26008e-06
6.2601e-06
6.26012e-06
6.26013e-06
6.26007e-06
6.25821e-06
6.25838e-06
6.2602e-06
6.26024e-06
6.26022e-06
6.26018e-06
6.26014e-06
6.26011e-06
6.26007e-06
6.26003e-06
6.25999e-06
6.25995e-06
6.2599e-06
6.25984e-06
6.25979e-06
6.25975e-06
6.25974e-06
6.25977e-06
6.25982e-06
6.25988e-06
6.25994e-06
6.26001e-06
6.26006e-06
6.26011e-06
6.26015e-06
6.26019e-06
6.26021e-06
6.26023e-06
6.26024e-06
6.26018e-06
6.25831e-06
6.25854e-06
6.26031e-06
6.26036e-06
6.26033e-06
6.2603e-06
6.26026e-06
6.26022e-06
6.26018e-06
6.26013e-06
6.26008e-06
6.26001e-06
6.25994e-06
6.25987e-06
6.25981e-06
6.25976e-06
6.25975e-06
6.25978e-06
6.25983e-06
6.25991e-06
6.25999e-06
6.26007e-06
6.26014e-06
6.26021e-06
6.26026e-06
6.26031e-06
6.26034e-06
6.26036e-06
6.26037e-06
6.26031e-06
6.25845e-06
6.25871e-06
6.26045e-06
6.2605e-06
6.26048e-06
6.26044e-06
6.2604e-06
6.26036e-06
6.26032e-06
6.26026e-06
6.26018e-06
6.26009e-06
6.26e-06
6.25991e-06
6.25983e-06
6.25977e-06
6.25975e-06
6.2598e-06
6.25987e-06
6.25997e-06
6.26006e-06
6.26016e-06
6.26025e-06
6.26033e-06
6.2604e-06
6.26045e-06
6.26049e-06
6.26051e-06
6.26053e-06
6.26047e-06
6.25863e-06
6.25888e-06
6.26063e-06
6.26069e-06
6.26066e-06
6.26063e-06
6.26059e-06
6.26054e-06
6.26048e-06
6.2604e-06
6.2603e-06
6.26019e-06
6.26007e-06
6.25997e-06
6.25987e-06
6.25979e-06
6.25977e-06
6.25984e-06
6.25994e-06
6.26005e-06
6.26017e-06
6.26028e-06
6.26038e-06
6.26048e-06
6.26056e-06
6.26062e-06
6.26067e-06
6.2607e-06
6.26072e-06
6.26068e-06
6.25885e-06
6.2591e-06
6.26086e-06
6.26092e-06
6.26089e-06
6.26086e-06
6.26081e-06
6.26075e-06
6.26067e-06
6.26057e-06
6.26045e-06
6.26031e-06
6.26018e-06
6.26005e-06
6.25993e-06
6.25983e-06
6.25982e-06
6.25991e-06
6.26003e-06
6.26017e-06
6.2603e-06
6.26043e-06
6.26055e-06
6.26066e-06
6.26076e-06
6.26083e-06
6.26089e-06
6.26094e-06
6.26097e-06
6.26093e-06
6.25911e-06
6.25937e-06
6.26116e-06
6.2612e-06
6.26117e-06
6.26113e-06
6.26108e-06
6.261e-06
6.2609e-06
6.26077e-06
6.26063e-06
6.26047e-06
6.26032e-06
6.26016e-06
6.26001e-06
6.25989e-06
6.25988e-06
6.25999e-06
6.26014e-06
6.2603e-06
6.26046e-06
6.26061e-06
6.26076e-06
6.26088e-06
6.261e-06
6.26109e-06
6.26116e-06
6.26122e-06
6.26127e-06
6.26124e-06
6.25942e-06
6.25972e-06
6.26152e-06
6.26156e-06
6.26153e-06
6.26148e-06
6.2614e-06
6.26131e-06
6.26118e-06
6.26102e-06
6.26085e-06
6.26067e-06
6.26048e-06
6.26029e-06
6.2601e-06
6.25996e-06
6.25996e-06
6.2601e-06
6.26028e-06
6.26047e-06
6.26065e-06
6.26083e-06
6.261e-06
6.26115e-06
6.26129e-06
6.2614e-06
6.2615e-06
6.26157e-06
6.26163e-06
6.2616e-06
6.25978e-06
6.26016e-06
6.26197e-06
6.26201e-06
6.26196e-06
6.2619e-06
6.2618e-06
6.26167e-06
6.26151e-06
6.26133e-06
6.26112e-06
6.2609e-06
6.26067e-06
6.26043e-06
6.26021e-06
6.26004e-06
6.26005e-06
6.26022e-06
6.26044e-06
6.26066e-06
6.26088e-06
6.2611e-06
6.2613e-06
6.26148e-06
6.26165e-06
6.26179e-06
6.26191e-06
6.262e-06
6.26207e-06
6.26204e-06
6.26023e-06
6.2607e-06
6.26253e-06
6.26256e-06
6.2625e-06
6.26241e-06
6.26228e-06
6.26212e-06
6.26191e-06
6.26169e-06
6.26144e-06
6.26117e-06
6.26089e-06
6.26061e-06
6.26034e-06
6.26015e-06
6.26017e-06
6.26037e-06
6.26063e-06
6.2609e-06
6.26117e-06
6.26142e-06
6.26167e-06
6.26189e-06
6.26209e-06
6.26227e-06
6.26241e-06
6.26252e-06
6.2626e-06
6.26259e-06
6.26079e-06
6.26137e-06
6.26322e-06
6.26323e-06
6.26315e-06
6.26303e-06
6.26286e-06
6.26265e-06
6.2624e-06
6.26213e-06
6.26183e-06
6.26151e-06
6.26117e-06
6.26084e-06
6.26052e-06
6.26031e-06
6.26032e-06
6.26055e-06
6.26087e-06
6.2612e-06
6.26152e-06
6.26183e-06
6.26213e-06
6.2624e-06
6.26264e-06
6.26285e-06
6.26302e-06
6.26315e-06
6.26325e-06
6.26326e-06
6.26146e-06
6.2622e-06
6.26405e-06
6.26404e-06
6.26393e-06
6.26376e-06
6.26355e-06
6.2633e-06
6.263e-06
6.26267e-06
6.26232e-06
6.26193e-06
6.26153e-06
6.26113e-06
6.26077e-06
6.26051e-06
6.26052e-06
6.26078e-06
6.26116e-06
6.26156e-06
6.26195e-06
6.26233e-06
6.26269e-06
6.26301e-06
6.2633e-06
6.26354e-06
6.26375e-06
6.26391e-06
6.26404e-06
6.26406e-06
6.26226e-06
6.2632e-06
6.26503e-06
6.26499e-06
6.26484e-06
6.26464e-06
6.26439e-06
6.26409e-06
6.26374e-06
6.26335e-06
6.26293e-06
6.26247e-06
6.26199e-06
6.26151e-06
6.26107e-06
6.26076e-06
6.26076e-06
6.26107e-06
6.26152e-06
6.262e-06
6.26248e-06
6.26294e-06
6.26336e-06
6.26375e-06
6.26409e-06
6.26439e-06
6.26463e-06
6.26483e-06
6.26498e-06
6.26501e-06
6.26322e-06
6.26439e-06
6.26618e-06
6.26612e-06
6.26594e-06
6.2657e-06
6.26541e-06
6.26506e-06
6.26466e-06
6.26419e-06
6.26368e-06
6.26313e-06
6.26255e-06
6.26198e-06
6.26145e-06
6.26109e-06
6.26109e-06
6.26144e-06
6.26197e-06
6.26255e-06
6.26313e-06
6.26368e-06
6.26419e-06
6.26465e-06
6.26506e-06
6.26541e-06
6.26571e-06
6.26594e-06
6.26611e-06
6.26616e-06
6.26439e-06
6.2658e-06
6.26754e-06
6.26746e-06
6.26726e-06
6.26699e-06
6.26665e-06
6.26624e-06
6.26576e-06
6.2652e-06
6.26459e-06
6.26393e-06
6.26325e-06
6.26256e-06
6.26194e-06
6.26152e-06
6.26151e-06
6.26193e-06
6.26255e-06
6.26324e-06
6.26394e-06
6.2646e-06
6.2652e-06
6.26575e-06
6.26624e-06
6.26665e-06
6.267e-06
6.26727e-06
6.26747e-06
6.26755e-06
6.2658e-06
6.26746e-06
6.26917e-06
6.26908e-06
6.26884e-06
6.26853e-06
6.26814e-06
6.26766e-06
6.26708e-06
6.26643e-06
6.2657e-06
6.26492e-06
6.26411e-06
6.26329e-06
6.26256e-06
6.26208e-06
6.26208e-06
6.26256e-06
6.26329e-06
6.26411e-06
6.26493e-06
6.26572e-06
6.26644e-06
6.26709e-06
6.26766e-06
6.26814e-06
6.26854e-06
6.26885e-06
6.26909e-06
6.26919e-06
6.26746e-06
6.26944e-06
6.27113e-06
6.27102e-06
6.27075e-06
6.27039e-06
6.26992e-06
6.26935e-06
6.26868e-06
6.26791e-06
6.26706e-06
6.26614e-06
6.26518e-06
6.26422e-06
6.26338e-06
6.26284e-06
6.26284e-06
6.26339e-06
6.26423e-06
6.26519e-06
6.26616e-06
6.26708e-06
6.26793e-06
6.2687e-06
6.26937e-06
6.26993e-06
6.27038e-06
6.27075e-06
6.27102e-06
6.27114e-06
6.26944e-06
6.27179e-06
6.27347e-06
6.27333e-06
6.27302e-06
6.2726e-06
6.27206e-06
6.2714e-06
6.27062e-06
6.26973e-06
6.26874e-06
6.26766e-06
6.26652e-06
6.26541e-06
6.26444e-06
6.26384e-06
6.26384e-06
6.26445e-06
6.26542e-06
6.26653e-06
6.26766e-06
6.26875e-06
6.26975e-06
6.27065e-06
6.27142e-06
6.27207e-06
6.2726e-06
6.27302e-06
6.27333e-06
6.27347e-06
6.27179e-06
6.27459e-06
6.27625e-06
6.27607e-06
6.27572e-06
6.27524e-06
6.27462e-06
6.27387e-06
6.27297e-06
6.27194e-06
6.27079e-06
6.26953e-06
6.26821e-06
6.26692e-06
6.26581e-06
6.26513e-06
6.26513e-06
6.26582e-06
6.26692e-06
6.26821e-06
6.26953e-06
6.2708e-06
6.27197e-06
6.273e-06
6.27389e-06
6.27464e-06
6.27525e-06
6.27573e-06
6.27607e-06
6.27624e-06
6.27459e-06
6.27788e-06
6.27951e-06
6.27931e-06
6.27892e-06
6.27838e-06
6.27768e-06
6.27683e-06
6.27582e-06
6.27464e-06
6.27331e-06
6.27185e-06
6.27032e-06
6.26884e-06
6.26758e-06
6.26682e-06
6.26682e-06
6.26758e-06
6.26884e-06
6.27031e-06
6.27184e-06
6.27331e-06
6.27466e-06
6.27584e-06
6.27686e-06
6.27771e-06
6.2784e-06
6.27893e-06
6.27931e-06
6.2795e-06
6.27788e-06
6.28172e-06
6.28332e-06
6.2831e-06
6.28268e-06
6.28209e-06
6.28133e-06
6.28038e-06
6.27924e-06
6.27791e-06
6.27638e-06
6.2747e-06
6.27295e-06
6.27126e-06
6.26985e-06
6.26901e-06
6.26901e-06
6.26986e-06
6.27127e-06
6.27296e-06
6.2747e-06
6.27638e-06
6.27791e-06
6.27925e-06
6.2804e-06
6.28135e-06
6.28211e-06
6.28268e-06
6.28309e-06
6.28331e-06
6.28171e-06
6.28619e-06
6.28776e-06
6.28753e-06
6.28708e-06
6.28646e-06
6.28564e-06
6.2846e-06
6.28334e-06
6.28183e-06
6.2801e-06
6.2782e-06
6.27623e-06
6.27434e-06
6.27278e-06
6.27186e-06
6.27187e-06
6.2728e-06
6.27437e-06
6.27626e-06
6.27823e-06
6.28012e-06
6.28183e-06
6.28333e-06
6.28461e-06
6.28565e-06
6.28646e-06
6.28707e-06
6.28751e-06
6.28772e-06
6.28616e-06
6.29135e-06
6.29289e-06
6.29265e-06
6.2922e-06
6.29156e-06
6.2907e-06
6.28959e-06
6.28821e-06
6.28655e-06
6.28464e-06
6.28253e-06
6.28035e-06
6.27827e-06
6.27656e-06
6.27556e-06
6.27556e-06
6.27657e-06
6.27829e-06
6.28039e-06
6.28258e-06
6.28467e-06
6.28658e-06
6.28823e-06
6.28961e-06
6.29072e-06
6.29157e-06
6.2922e-06
6.29263e-06
6.29284e-06
6.29131e-06
6.29723e-06
6.29876e-06
6.29854e-06
6.29811e-06
6.29748e-06
6.29661e-06
6.29546e-06
6.29401e-06
6.29223e-06
6.29017e-06
6.28788e-06
6.28551e-06
6.28325e-06
6.2814e-06
6.28032e-06
6.28032e-06
6.2814e-06
6.28327e-06
6.28555e-06
6.28794e-06
6.29023e-06
6.2923e-06
6.29407e-06
6.29553e-06
6.29667e-06
6.29753e-06
6.29814e-06
6.29853e-06
6.29873e-06
6.29723e-06
6.30389e-06
6.3054e-06
6.30522e-06
6.30485e-06
6.30428e-06
6.30346e-06
6.30233e-06
6.30086e-06
6.29904e-06
6.29688e-06
6.29446e-06
6.29193e-06
6.28952e-06
6.28755e-06
6.28642e-06
6.28642e-06
6.28756e-06
6.28954e-06
6.29197e-06
6.29452e-06
6.29695e-06
6.29912e-06
6.30096e-06
6.30243e-06
6.30354e-06
6.30436e-06
6.30491e-06
6.30524e-06
6.30541e-06
6.30392e-06
6.3113e-06
6.31282e-06
6.31271e-06
6.31245e-06
6.31201e-06
6.31132e-06
6.31031e-06
6.30892e-06
6.30714e-06
6.30497e-06
6.30249e-06
6.29987e-06
6.29736e-06
6.29534e-06
6.29417e-06
6.29417e-06
6.29534e-06
6.29738e-06
6.29988e-06
6.3025e-06
6.30499e-06
6.30718e-06
6.30898e-06
6.31038e-06
6.3114e-06
6.31209e-06
6.31251e-06
6.31276e-06
6.31286e-06
6.31139e-06
6.31942e-06
6.32096e-06
6.32098e-06
6.32091e-06
6.3207e-06
6.32026e-06
6.3195e-06
6.31833e-06
6.31671e-06
6.31465e-06
6.31223e-06
6.30963e-06
6.30714e-06
6.30512e-06
6.30395e-06
6.30395e-06
6.3051e-06
6.30711e-06
6.3096e-06
6.31218e-06
6.3146e-06
6.31668e-06
6.31831e-06
6.31949e-06
6.32029e-06
6.32074e-06
6.32095e-06
6.32104e-06
6.32104e-06
6.31954e-06
6.32813e-06
6.32972e-06
6.32994e-06
6.33018e-06
6.33034e-06
6.33031e-06
6.32996e-06
6.32919e-06
6.32793e-06
6.32618e-06
6.32402e-06
6.32163e-06
6.31929e-06
6.31737e-06
6.31625e-06
6.31624e-06
6.31733e-06
6.31923e-06
6.32156e-06
6.32395e-06
6.32611e-06
6.32785e-06
6.32911e-06
6.3299e-06
6.33028e-06
6.33032e-06
6.33019e-06
6.32998e-06
6.32981e-06
6.32824e-06
6.33723e-06
6.3389e-06
6.33944e-06
6.34012e-06
6.34084e-06
6.34143e-06
6.34174e-06
6.34163e-06
6.341e-06
6.33983e-06
6.3382e-06
6.33626e-06
6.33428e-06
6.33261e-06
6.33163e-06
6.33163e-06
6.3326e-06
6.33425e-06
6.33622e-06
6.33816e-06
6.33979e-06
6.34094e-06
6.34154e-06
6.34167e-06
6.34136e-06
6.34078e-06
6.34012e-06
6.33948e-06
6.339e-06
6.33732e-06
6.34644e-06
6.34826e-06
6.34924e-06
6.35055e-06
6.35203e-06
6.35351e-06
6.35478e-06
6.35567e-06
6.35605e-06
6.35583e-06
6.35507e-06
6.35389e-06
6.35253e-06
6.35131e-06
6.3506e-06
6.35062e-06
6.35135e-06
6.35255e-06
6.3539e-06
6.35507e-06
6.35583e-06
6.35602e-06
6.35562e-06
6.35473e-06
6.35342e-06
6.35197e-06
6.35054e-06
6.34929e-06
6.34834e-06
6.34651e-06
6.35543e-06
6.35749e-06
6.35906e-06
6.36119e-06
6.36368e-06
6.36636e-06
6.36897e-06
6.37131e-06
6.37316e-06
6.37441e-06
6.37495e-06
6.37492e-06
6.3745e-06
6.374e-06
6.37368e-06
6.3737e-06
6.37405e-06
6.37454e-06
6.37496e-06
6.37499e-06
6.37442e-06
6.37315e-06
6.3713e-06
6.36894e-06
6.36628e-06
6.36363e-06
6.36118e-06
6.35912e-06
6.35751e-06
6.35546e-06
6.36376e-06
6.36611e-06
6.36844e-06
6.37164e-06
6.37552e-06
6.37975e-06
6.38415e-06
6.38844e-06
6.39233e-06
6.3956e-06
6.39813e-06
6.39982e-06
6.40081e-06
6.40137e-06
6.40164e-06
6.40166e-06
6.40139e-06
6.40083e-06
6.39987e-06
6.39818e-06
6.39563e-06
6.39235e-06
6.38848e-06
6.38414e-06
6.37971e-06
6.3755e-06
6.37165e-06
6.36849e-06
6.36611e-06
6.36376e-06
6.37056e-06
6.37337e-06
6.37668e-06
6.38126e-06
6.38687e-06
6.39316e-06
6.39992e-06
6.40673e-06
6.4133e-06
6.41933e-06
6.42476e-06
6.42956e-06
6.4338e-06
6.43724e-06
6.43993e-06
6.43992e-06
6.43723e-06
6.43379e-06
6.42957e-06
6.42478e-06
6.41934e-06
6.41332e-06
6.40676e-06
6.3999e-06
6.39315e-06
6.38687e-06
6.3813e-06
6.37673e-06
6.37337e-06
6.37057e-06
6.37579e-06
6.3793e-06
6.38393e-06
6.39025e-06
6.39809e-06
6.40709e-06
6.41695e-06
6.42745e-06
6.43839e-06
6.45034e-06
6.4648e-06
6.48463e-06
6.5121e-06
6.54433e-06
6.57768e-06
6.57762e-06
6.54433e-06
6.51208e-06
6.48463e-06
6.46483e-06
6.45035e-06
6.43841e-06
6.42745e-06
6.41691e-06
6.40708e-06
6.39808e-06
6.39029e-06
6.38395e-06
6.3793e-06
6.3758e-06
6.38299e-06
6.38745e-06
6.39355e-06
6.40198e-06
6.41252e-06
6.42516e-06
6.44018e-06
6.45943e-06
6.48808e-06
6.53849e-06
6.63488e-06
6.81279e-06
7.0956e-06
7.44396e-06
7.81207e-06
7.81154e-06
7.44413e-06
7.09566e-06
6.81317e-06
6.63548e-06
6.53889e-06
6.48826e-06
6.45946e-06
6.44014e-06
6.42514e-06
6.4125e-06
6.40199e-06
6.39355e-06
6.38743e-06
6.38296e-06
6.38337e-06
6.38856e-06
6.39628e-06
6.4076e-06
6.42342e-06
6.44707e-06
6.48866e-06
6.57529e-06
6.76813e-06
7.18868e-06
8.04035e-06
9.54024e-06
1.16599e-05
1.39179e-05
1.59819e-05
1.59805e-05
1.39179e-05
1.16629e-05
9.54575e-06
8.04665e-06
7.19283e-06
6.76998e-06
6.57577e-06
6.48855e-06
6.44677e-06
6.42301e-06
6.40738e-06
6.39615e-06
6.38849e-06
6.3832e-06
6.36268e-06
6.37353e-06
6.39383e-06
6.43176e-06
6.50013e-06
6.63984e-06
6.95515e-06
7.67227e-06
9.19318e-06
1.20015e-05
1.63325e-05
2.16623e-05
2.69216e-05
3.11771e-05
3.44365e-05
3.44379e-05
3.11759e-05
2.69422e-05
2.16957e-05
1.63656e-05
1.20269e-05
9.20739e-06
7.67844e-06
6.95582e-06
6.63722e-06
6.49605e-06
6.42879e-06
6.39217e-06
6.37227e-06
6.36054e-06
6.53333e-06
6.59826e-06
6.76211e-06
7.06591e-06
7.60796e-06
8.71041e-06
1.09137e-05
1.4714e-05
2.01094e-05
2.64557e-05
3.32613e-05
3.99043e-05
4.56895e-05
5.00376e-05
5.34204e-05
5.34238e-05
5.00428e-05
4.5736e-05
3.99777e-05
3.3327e-05
2.65057e-05
2.01535e-05
1.47532e-05
1.09353e-05
8.71241e-06
7.60011e-06
7.05366e-06
6.75237e-06
6.58777e-06
6.51635e-06
8.30176e-06
8.80827e-06
1.01599e-05
1.16807e-05
1.36881e-05
1.68561e-05
2.12303e-05
2.63601e-05
3.19437e-05
3.7877e-05
4.46155e-05
5.21065e-05
5.88944e-05
6.37325e-05
6.77512e-05
6.77563e-05
6.37546e-05
5.89762e-05
5.22359e-05
4.47312e-05
3.7963e-05
3.20225e-05
2.64415e-05
2.13073e-05
1.69165e-05
1.37296e-05
1.1696e-05
1.01554e-05
8.76231e-06
8.26809e-06
9.53987e-06
9.76682e-06
1.0648e-05
1.23381e-05
1.51745e-05
1.91444e-05
2.3284e-05
2.72148e-05
3.17048e-05
3.81862e-05
4.75754e-05
5.81172e-05
6.64642e-05
7.16435e-05
7.58302e-05
7.58446e-05
7.17196e-05
6.66513e-05
5.84226e-05
4.79036e-05
3.84276e-05
3.18497e-05
2.7315e-05
2.3381e-05
1.92456e-05
1.52461e-05
1.23628e-05
1.06463e-05
9.72848e-06
9.52524e-06
9.75721e-06
9.95897e-06
1.04266e-05
1.12625e-05
1.29053e-05
1.61846e-05
2.1228e-05
2.70632e-05
3.30444e-05
3.88445e-05
4.40242e-05
4.95538e-05
5.47924e-05
5.86946e-05
6.16882e-05
6.17136e-05
5.87443e-05
5.48997e-05
4.96951e-05
4.41687e-05
3.89675e-05
3.31814e-05
2.7204e-05
2.13583e-05
1.6283e-05
1.29564e-05
1.1278e-05
1.04325e-05
9.94814e-06
9.75681e-06
9.69334e-06
9.89314e-06
1.01877e-05
1.06125e-05
1.1206e-05
1.21972e-05
1.4443e-05
1.90825e-05
2.61536e-05
3.37872e-05
4.05971e-05
4.66363e-05
5.16164e-05
5.46622e-05
5.70053e-05
5.70276e-05
5.46928e-05
5.16769e-05
4.67338e-05
4.07163e-05
3.39347e-05
2.63184e-05
1.92217e-05
1.45302e-05
1.22414e-05
1.12347e-05
1.06316e-05
1.01948e-05
9.88569e-06
9.696e-06
9.79503e-06
9.86983e-06
1.00849e-05
1.03607e-05
1.0677e-05
1.10407e-05
1.15097e-05
1.23314e-05
1.49115e-05
2.1221e-05
2.97245e-05
3.79584e-05
4.47786e-05
4.95892e-05
5.30151e-05
5.30244e-05
4.95957e-05
4.48105e-05
3.80247e-05
2.9839e-05
2.1353e-05
1.50022e-05
1.23589e-05
1.15295e-05
1.1062e-05
1.06984e-05
1.03777e-05
1.00904e-05
9.85847e-06
9.78275e-06
9.92797e-06
9.93151e-06
1.01001e-05
1.03209e-05
1.0566e-05
1.08296e-05
1.111e-05
1.14155e-05
1.18045e-05
1.26303e-05
1.49214e-05
2.11418e-05
2.94871e-05
3.7403e-05
4.3343e-05
4.3341e-05
3.73933e-05
2.95059e-05
2.11946e-05
1.49539e-05
1.26512e-05
1.18157e-05
1.14262e-05
1.11246e-05
1.08479e-05
1.05834e-05
1.03315e-05
1.01003e-05
9.91927e-06
9.91316e-06
1.00374e-05
1.00011e-05
1.01347e-05
1.03172e-05
1.05278e-05
1.07596e-05
1.10049e-05
1.12565e-05
1.1507e-05
1.17619e-05
1.20875e-05
1.26731e-05
1.38036e-05
1.63871e-05
2.3527e-05
2.35165e-05
1.63862e-05
1.38133e-05
1.26831e-05
1.20954e-05
1.17665e-05
1.15099e-05
1.12609e-05
1.10134e-05
1.07728e-05
1.05416e-05
1.03241e-05
1.01304e-05
9.98586e-06
1.00247e-05
1.00899e-05
1.00313e-05
1.01329e-05
1.0286e-05
1.04677e-05
1.06705e-05
1.08865e-05
1.11091e-05
1.13283e-05
1.15365e-05
1.17229e-05
1.18797e-05
1.20199e-05
1.21863e-05
1.2514e-05
1.25136e-05
1.21852e-05
1.20156e-05
1.18716e-05
1.17124e-05
1.15263e-05
1.13223e-05
1.11101e-05
1.08951e-05
1.06844e-05
1.04812e-05
1.02919e-05
1.01271e-05
1.00139e-05
1.00774e-05
1.00739e-05
9.99952e-06
1.00785e-05
1.02045e-05
1.03565e-05
1.05284e-05
1.07124e-05
1.0902e-05
1.10886e-05
1.12621e-05
1.14099e-05
1.15226e-05
1.15997e-05
1.16398e-05
1.16516e-05
1.16506e-05
1.16351e-05
1.15907e-05
1.15123e-05
1.14017e-05
1.12592e-05
1.10939e-05
1.09152e-05
1.07307e-05
1.0546e-05
1.03677e-05
1.02064e-05
1.00706e-05
9.98379e-06
1.0059e-05
9.98627e-06
9.90595e-06
9.97144e-06
1.00736e-05
1.01971e-05
1.03371e-05
1.04889e-05
1.06422e-05
1.07867e-05
1.09147e-05
1.10223e-05
1.11041e-05
1.11599e-05
1.11887e-05
1.11966e-05
1.11971e-05
1.11891e-05
1.11603e-05
1.1106e-05
1.1028e-05
1.09241e-05
1.07997e-05
1.06577e-05
1.05046e-05
1.03466e-05
1.01984e-05
1.00672e-05
9.96045e-06
9.89398e-06
9.97677e-06
9.84484e-06
9.76183e-06
9.81286e-06
9.89263e-06
9.98871e-06
1.00967e-05
1.02106e-05
1.03234e-05
1.04287e-05
1.05191e-05
1.05923e-05
1.06457e-05
1.06782e-05
1.06933e-05
1.06967e-05
1.06965e-05
1.06928e-05
1.06779e-05
1.06467e-05
1.0596e-05
1.05245e-05
1.04343e-05
1.03286e-05
1.02129e-05
1.00953e-05
9.98389e-06
9.88535e-06
9.80381e-06
9.75305e-06
9.84302e-06
9.65861e-06
9.57336e-06
9.60603e-06
9.66289e-06
9.73356e-06
9.81247e-06
9.89464e-06
9.97495e-06
1.00454e-05
1.01043e-05
1.01476e-05
1.01746e-05
1.0186e-05
1.01878e-05
1.01857e-05
1.01854e-05
1.01878e-05
1.01867e-05
1.01763e-05
1.01507e-05
1.01082e-05
1.00488e-05
9.9769e-06
9.89519e-06
9.81146e-06
9.73208e-06
9.66124e-06
9.60314e-06
9.56796e-06
9.6582e-06
9.43874e-06
9.35103e-06
9.37069e-06
9.40987e-06
9.45794e-06
9.51193e-06
9.56516e-06
9.61458e-06
9.65546e-06
9.68515e-06
9.70118e-06
9.70385e-06
9.697e-06
9.68601e-06
9.67762e-06
9.67794e-06
9.68728e-06
9.69935e-06
9.70685e-06
9.70464e-06
9.68927e-06
9.65979e-06
9.61825e-06
9.56777e-06
9.51336e-06
9.45965e-06
9.41084e-06
9.36995e-06
9.34664e-06
9.43544e-06
9.19333e-06
9.10618e-06
9.11835e-06
9.14499e-06
9.17543e-06
9.20762e-06
9.23648e-06
9.26013e-06
9.27486e-06
9.27848e-06
9.26982e-06
9.25064e-06
9.22594e-06
9.20299e-06
9.18822e-06
9.18861e-06
9.20414e-06
9.22814e-06
9.25359e-06
9.27317e-06
9.28243e-06
9.27924e-06
9.26399e-06
9.23904e-06
9.20857e-06
9.17587e-06
9.144e-06
9.11656e-06
9.10304e-06
9.1888e-06
8.93445e-06
8.85099e-06
8.85755e-06
8.87325e-06
8.89045e-06
8.90586e-06
8.91567e-06
8.91853e-06
8.91207e-06
8.89352e-06
8.86363e-06
8.82613e-06
8.78655e-06
8.75278e-06
8.73263e-06
8.7333e-06
8.75442e-06
8.78897e-06
8.82924e-06
8.86677e-06
8.89645e-06
8.91486e-06
8.9212e-06
8.91729e-06
8.90547e-06
8.88894e-06
8.87103e-06
8.85501e-06
8.84886e-06
8.93025e-06
8.67386e-06
8.59416e-06
8.59629e-06
8.60294e-06
8.61016e-06
8.612e-06
8.60818e-06
8.5959e-06
8.57205e-06
8.53621e-06
8.49067e-06
8.4392e-06
8.38821e-06
8.34566e-06
8.32123e-06
8.322e-06
8.34716e-06
8.38953e-06
8.44047e-06
8.49214e-06
8.53767e-06
8.57304e-06
8.59646e-06
8.60829e-06
8.61082e-06
8.60744e-06
8.60059e-06
8.5929e-06
8.59222e-06
8.67006e-06
8.41717e-06
8.34313e-06
8.33952e-06
8.33951e-06
8.33871e-06
8.33156e-06
8.31791e-06
8.29396e-06
8.25774e-06
8.21038e-06
8.15408e-06
8.09283e-06
8.03348e-06
7.98496e-06
7.95719e-06
7.95738e-06
7.98524e-06
8.03349e-06
8.09254e-06
8.15424e-06
8.21071e-06
8.25762e-06
8.29313e-06
8.31724e-06
8.33119e-06
8.33726e-06
8.33832e-06
8.33685e-06
8.34024e-06
8.41341e-06
8.16963e-06
8.10166e-06
8.09441e-06
8.09079e-06
8.08241e-06
8.06905e-06
8.04811e-06
8.01595e-06
7.97208e-06
7.91778e-06
7.85466e-06
7.78725e-06
7.7233e-06
7.67173e-06
7.64228e-06
7.64239e-06
7.67203e-06
7.72355e-06
7.78712e-06
7.85426e-06
7.91739e-06
7.97196e-06
8.01568e-06
8.04797e-06
8.06952e-06
8.08235e-06
8.08924e-06
8.0928e-06
8.09925e-06
8.16649e-06
7.93798e-06
7.87562e-06
7.86631e-06
7.85919e-06
7.84673e-06
7.8297e-06
7.80314e-06
7.76575e-06
7.71793e-06
7.65977e-06
7.59329e-06
7.52349e-06
7.45831e-06
7.40573e-06
7.37522e-06
7.37493e-06
7.4052e-06
7.45803e-06
7.52354e-06
7.59293e-06
7.65893e-06
7.71701e-06
7.76487e-06
7.80183e-06
7.82853e-06
7.84648e-06
7.85788e-06
7.86508e-06
7.87336e-06
7.93412e-06
7.71937e-06
7.66549e-06
7.65595e-06
7.64672e-06
7.63332e-06
7.61271e-06
7.58233e-06
7.54273e-06
7.49323e-06
7.43387e-06
7.36737e-06
7.2985e-06
7.23408e-06
7.18176e-06
7.15126e-06
7.1511e-06
7.18145e-06
7.23402e-06
7.29881e-06
7.36731e-06
7.43297e-06
7.49172e-06
7.54131e-06
7.5809e-06
7.6108e-06
7.63212e-06
7.64644e-06
7.6558e-06
7.66518e-06
7.71954e-06
7.52403e-06
7.47469e-06
7.46636e-06
7.4559e-06
7.44085e-06
7.41743e-06
7.38613e-06
7.34652e-06
7.29724e-06
7.2393e-06
7.17535e-06
7.10946e-06
7.04714e-06
6.99615e-06
6.96646e-06
6.96636e-06
6.99574e-06
7.04643e-06
7.10868e-06
7.17464e-06
7.2384e-06
7.2961e-06
7.34544e-06
7.3855e-06
7.41654e-06
7.43952e-06
7.45569e-06
7.46649e-06
7.47647e-06
7.5243e-06
7.34669e-06
7.30494e-06
7.29638e-06
7.28546e-06
7.26879e-06
7.24521e-06
7.21492e-06
7.17604e-06
7.12848e-06
7.07366e-06
7.01359e-06
6.95144e-06
6.89218e-06
6.84379e-06
6.81578e-06
6.81588e-06
6.84389e-06
6.89189e-06
6.95069e-06
7.01289e-06
7.07324e-06
7.12802e-06
7.17522e-06
7.21412e-06
7.245e-06
7.26859e-06
7.28576e-06
7.29757e-06
7.30737e-06
7.34851e-06
7.18875e-06
7.15585e-06
7.14613e-06
7.13482e-06
7.11787e-06
7.09527e-06
7.06566e-06
7.0282e-06
6.98384e-06
6.93344e-06
6.87816e-06
6.82073e-06
6.76596e-06
6.72146e-06
6.69557e-06
6.69572e-06
6.72181e-06
6.76622e-06
6.82069e-06
6.87803e-06
6.93371e-06
6.98443e-06
7.02854e-06
7.06546e-06
7.09529e-06
7.11849e-06
7.13567e-06
7.14762e-06
7.15691e-06
7.19163e-06
7.05281e-06
7.02379e-06
7.0149e-06
7.00337e-06
6.98688e-06
6.96515e-06
6.93685e-06
6.90251e-06
6.86256e-06
6.81712e-06
6.76701e-06
6.71486e-06
6.66508e-06
6.62423e-06
6.60009e-06
6.59992e-06
6.62375e-06
6.66444e-06
6.7141e-06
6.76629e-06
6.81684e-06
6.86302e-06
6.90346e-06
6.93762e-06
6.96545e-06
6.98728e-06
7.00364e-06
7.01516e-06
7.02396e-06
7.05308e-06
6.93197e-06
6.9074e-06
6.89964e-06
6.88816e-06
6.87284e-06
6.85265e-06
6.82723e-06
6.79676e-06
6.761e-06
6.72005e-06
6.67504e-06
6.62837e-06
6.58371e-06
6.5464e-06
6.52402e-06
6.5238e-06
6.54581e-06
6.58304e-06
6.62786e-06
6.67469e-06
6.71979e-06
6.76099e-06
6.79719e-06
6.82794e-06
6.85321e-06
6.87327e-06
6.88852e-06
6.89941e-06
6.90767e-06
6.93197e-06
6.82595e-06
6.80755e-06
6.79927e-06
6.78868e-06
6.77504e-06
6.75701e-06
6.73457e-06
6.70733e-06
6.67518e-06
6.63869e-06
6.5991e-06
6.55812e-06
6.51861e-06
6.48526e-06
6.465e-06
6.46492e-06
6.48509e-06
6.51851e-06
6.55824e-06
6.59937e-06
6.63887e-06
6.67504e-06
6.70701e-06
6.73439e-06
6.75712e-06
6.77535e-06
6.78934e-06
6.79945e-06
6.80698e-06
6.82695e-06
6.73674e-06
6.72094e-06
6.71302e-06
6.7042e-06
6.692e-06
6.67597e-06
6.65591e-06
6.63166e-06
6.60338e-06
6.57173e-06
6.53748e-06
6.50184e-06
6.46717e-06
6.43761e-06
6.41943e-06
6.41931e-06
6.43726e-06
6.46668e-06
6.5013e-06
6.537e-06
6.57138e-06
6.60303e-06
6.63119e-06
6.65544e-06
6.67568e-06
6.69196e-06
6.70449e-06
6.71358e-06
6.72024e-06
6.7364e-06
6.65935e-06
6.64531e-06
6.63956e-06
6.63201e-06
6.62092e-06
6.60653e-06
6.58888e-06
6.56798e-06
6.54388e-06
6.51681e-06
6.48724e-06
6.45625e-06
6.42589e-06
6.39975e-06
6.38349e-06
6.38338e-06
6.39933e-06
6.42507e-06
6.45513e-06
6.4861e-06
6.51598e-06
6.54355e-06
6.56809e-06
6.58923e-06
6.60686e-06
6.62107e-06
6.63206e-06
6.64008e-06
6.64593e-06
6.65893e-06
6.59229e-06
6.58239e-06
6.57798e-06
6.57077e-06
6.56074e-06
6.5481e-06
6.53311e-06
6.51545e-06
6.49492e-06
6.47161e-06
6.44603e-06
6.41922e-06
6.39297e-06
6.37027e-06
6.35602e-06
6.35602e-06
6.37018e-06
6.39266e-06
6.41864e-06
6.44529e-06
6.47091e-06
6.4945e-06
6.51548e-06
6.53357e-06
6.54871e-06
6.56099e-06
6.57059e-06
6.57771e-06
6.58289e-06
6.59324e-06
6.53711e-06
6.5305e-06
6.52598e-06
6.51944e-06
6.51071e-06
6.50008e-06
6.48733e-06
6.47209e-06
6.45436e-06
6.43433e-06
6.41249e-06
6.38972e-06
6.36745e-06
6.34806e-06
6.33557e-06
6.33552e-06
6.34795e-06
6.36738e-06
6.38959e-06
6.41214e-06
6.43373e-06
6.45362e-06
6.47139e-06
6.48681e-06
6.49984e-06
6.51052e-06
6.51898e-06
6.52531e-06
6.52982e-06
6.53774e-06
6.49104e-06
6.48539e-06
6.48139e-06
6.47608e-06
6.4689e-06
6.45993e-06
6.44874e-06
6.43547e-06
6.42032e-06
6.40345e-06
6.38518e-06
6.36621e-06
6.34758e-06
6.331e-06
6.31991e-06
6.31971e-06