/*--------------------------------*- C++ -*----------------------------------*\
| =========                 |                                                 |
| \\      /  F ield         | OpenFOAM: The Open Source CFD Toolbox           |
|  \\    /   O peration     | Version:  2312                                  |
|   \\  /    A nd           | Website:  www.openfoam.com                      |
|    \\/     M anipulation  |                                                 |
\*---------------------------------------------------------------------------*/
FoamFile
{
    version     2.0;
    format      ascii;
    arch        "LSB;label=32;scalar=64";
    class       volScalarField;
    location    "0.357759";
    object      p;
}
// * * * * * * * * * * * * * * * * * * * * * * * * * * * * * * * * * * * * * //

dimensions      [1 -1 -2 0 0 0 0];

internalField   nonuniform List<scalar> 
90000
(
4849.9
4849.9
4849.9
4849.9
4849.9
4849.9
4849.9
4849.9
4849.9
4849.9
4849.9
4849.9
4849.9
4849.9
4849.9
4849.9
4849.9
4849.9
4849.9
4849.9
4849.9
4849.9
4849.9
4849.9
4849.9
4849.9
4849.9
4849.9
4849.9
4849.9
4751.8
4751.8
4751.8
4751.8
4751.8
4751.8
4751.8
4751.8
4751.8
4751.8
4751.8
4751.8
4751.8
4751.8
4751.8
4751.8
4751.8
4751.8
4751.8
4751.8
4751.8
4751.8
4751.8
4751.8
4751.8
4751.8
4751.8
4751.8
4751.8
4751.8
4653.7
4653.7
4653.7
4653.7
4653.7
4653.7
4653.7
4653.7
4653.7
4653.7
4653.7
4653.7
4653.7
4653.7
4653.7
4653.7
4653.7
4653.7
4653.7
4653.7
4653.7
4653.7
4653.7
4653.7
4653.7
4653.7
4653.7
4653.7
4653.7
4653.7
4555.6
4555.6
4555.6
4555.6
4555.6
4555.6
4555.6
4555.6
4555.6
4555.6
4555.6
4555.6
4555.6
4555.6
4555.6
4555.6
4555.6
4555.6
4555.6
4555.6
4555.6
4555.6
4555.6
4555.6
4555.6
4555.6
4555.6
4555.6
4555.6
4555.6
4457.5
4457.5
4457.5
4457.5
4457.5
4457.5
4457.5
4457.5
4457.5
4457.5
4457.5
4457.5
4457.5
4457.5
4457.5
4457.5
4457.5
4457.5
4457.5
4457.5
4457.5
4457.5
4457.5
4457.5
4457.5
4457.5
4457.5
4457.5
4457.5
4457.5
4359.4
4359.4
4359.4
4359.4
4359.4
4359.4
4359.4
4359.4
4359.4
4359.4
4359.4
4359.4
4359.4
4359.4
4359.4
4359.4
4359.4
4359.4
4359.4
4359.4
4359.4
4359.4
4359.4
4359.4
4359.4
4359.4
4359.4
4359.4
4359.4
4359.4
4261.3
4261.3
4261.3
4261.3
4261.3
4261.3
4261.3
4261.3
4261.3
4261.3
4261.3
4261.3
4261.3
4261.3
4261.3
4261.3
4261.3
4261.3
4261.3
4261.3
4261.3
4261.3
4261.3
4261.3
4261.3
4261.3
4261.3
4261.3
4261.3
4261.3
4163.21
4163.21
4163.21
4163.21
4163.2
4163.2
4163.2
4163.2
4163.2
4163.2
4163.2
4163.2
4163.2
4163.2
4163.2
4163.2
4163.2
4163.2
4163.2
4163.2
4163.2
4163.2
4163.2
4163.2
4163.2
4163.2
4163.2
4163.21
4163.21
4163.21
4065.11
4065.11
4065.11
4065.11
4065.11
4065.11
4065.11
4065.11
4065.1
4065.1
4065.1
4065.1
4065.1
4065.1
4065.1
4065.1
4065.1
4065.1
4065.1
4065.11
4065.11
4065.11
4065.11
4065.11
4065.11
4065.11
4065.11
4065.11
4065.11
4065.11
3967.01
3967.01
3967.01
3967.01
3967.01
3967.01
3967.01
3967.01
3967.01
3967.01
3967
3967
3967
3967
3967
3967
3967.01
3967.01
3967.01
3967.01
3967.01
3967.01
3967.01
3967.01
3967.01
3967.01
3967.01
3967.01
3967.01
3967.01
3868.91
3868.91
3868.91
3868.91
3868.91
3868.91
3868.91
3868.91
3868.91
3868.91
3868.91
3868.91
3868.91
3868.91
3868.91
3868.91
3868.91
3868.91
3868.91
3868.91
3868.91
3868.91
3868.91
3868.91
3868.91
3868.91
3868.91
3868.91
3868.91
3868.91
3770.81
3770.81
3770.81
3770.81
3770.81
3770.81
3770.81
3770.81
3770.81
3770.81
3770.81
3770.81
3770.81
3770.81
3770.81
3770.81
3770.81
3770.81
3770.81
3770.81
3770.81
3770.81
3770.81
3770.81
3770.81
3770.81
3770.81
3770.81
3770.81
3770.81
3672.71
3672.71
3672.71
3672.71
3672.71
3672.71
3672.71
3672.71
3672.71
3672.71
3672.71
3672.71
3672.71
3672.71
3672.71
3672.71
3672.71
3672.71
3672.71
3672.71
3672.71
3672.71
3672.71
3672.71
3672.71
3672.71
3672.71
3672.71
3672.71
3672.71
3574.61
3574.61
3574.61
3574.61
3574.61
3574.61
3574.61
3574.61
3574.61
3574.61
3574.61
3574.61
3574.61
3574.61
3574.61
3574.61
3574.61
3574.61
3574.61
3574.61
3574.61
3574.61
3574.61
3574.61
3574.61
3574.61
3574.61
3574.61
3574.61
3574.61
3476.51
3476.51
3476.51
3476.51
3476.51
3476.51
3476.51
3476.51
3476.51
3476.51
3476.51
3476.51
3476.51
3476.51
3476.51
3476.51
3476.51
3476.51
3476.51
3476.51
3476.51
3476.51
3476.51
3476.51
3476.51
3476.51
3476.51
3476.51
3476.51
3476.51
3378.41
3378.41
3378.41
3378.41
3378.41
3378.41
3378.41
3378.41
3378.41
3378.41
3378.41
3378.41
3378.41
3378.41
3378.41
3378.41
3378.41
3378.41
3378.41
3378.41
3378.41
3378.41
3378.41
3378.41
3378.41
3378.41
3378.41
3378.41
3378.41
3378.41
3280.32
3280.32
3280.32
3280.32
3280.32
3280.32
3280.32
3280.32
3280.32
3280.31
3280.31
3280.31
3280.31
3280.31
3280.31
3280.31
3280.31
3280.31
3280.31
3280.31
3280.31
3280.31
3280.31
3280.31
3280.31
3280.31
3280.32
3280.32
3280.32
3280.32
3182.22
3182.22
3182.22
3182.22
3182.22
3182.22
3182.22
3182.22
3182.22
3182.22
3182.22
3182.21
3182.21
3182.21
3182.21
3182.21
3182.21
3182.21
3182.21
3182.21
3182.21
3182.21
3182.21
3182.21
3182.22
3182.22
3182.22
3182.22
3182.22
3182.22
3084.12
3084.12
3084.12
3084.12
3084.12
3084.12
3084.12
3084.12
3084.12
3084.12
3084.12
3084.11
3084.11
3084.11
3084.11
3084.11
3084.11
3084.11
3084.11
3084.11
3084.11
3084.12
3084.12
3084.12
3084.12
3084.12
3084.12
3084.12
3084.12
3084.12
2986.03
2986.03
2986.03
2986.03
2986.03
2986.02
2986.02
2986.02
2986.02
2986.02
2986.02
2986.01
2986.01
2986.01
2986.01
2986.01
2986.01
2986.01
2986.01
2986.01
2986.02
2986.02
2986.02
2986.02
2986.02
2986.02
2986.02
2986.02
2986.03
2986.03
2887.93
2887.93
2887.93
2887.93
2887.93
2887.93
2887.92
2887.92
2887.92
2887.92
2887.92
2887.91
2887.91
2887.91
2887.91
2887.91
2887.91
2887.91
2887.91
2887.92
2887.92
2887.92
2887.92
2887.92
2887.92
2887.93
2887.93
2887.93
2887.93
2887.93
2789.83
2789.83
2789.83
2789.83
2789.83
2789.83
2789.82
2789.82
2789.82
2789.82
2789.81
2789.81
2789.81
2789.81
2789.81
2789.81
2789.81
2789.81
2789.81
2789.81
2789.82
2789.82
2789.82
2789.82
2789.83
2789.83
2789.83
2789.83
2789.83
2789.83
2691.74
2691.74
2691.74
2691.73
2691.73
2691.73
2691.72
2691.72
2691.72
2691.72
2691.71
2691.71
2691.71
2691.71
2691.71
2691.71
2691.71
2691.71
2691.71
2691.71
2691.72
2691.72
2691.72
2691.73
2691.73
2691.73
2691.73
2691.73
2691.74
2691.74
2593.64
2593.64
2593.64
2593.64
2593.63
2593.63
2593.62
2593.62
2593.62
2593.61
2593.61
2593.61
2593.61
2593.6
2593.6
2593.6
2593.61
2593.61
2593.61
2593.61
2593.61
2593.62
2593.62
2593.63
2593.63
2593.63
2593.64
2593.64
2593.64
2593.64
2495.55
2495.54
2495.54
2495.54
2495.53
2495.53
2495.53
2495.52
2495.52
2495.51
2495.51
2495.5
2495.5
2495.5
2495.5
2495.5
2495.5
2495.5
2495.5
2495.51
2495.51
2495.52
2495.52
2495.53
2495.53
2495.54
2495.54
2495.54
2495.54
2495.55
2397.45
2397.45
2397.45
2397.44
2397.44
2397.43
2397.43
2397.42
2397.41
2397.41
2397.4
2397.4
2397.4
2397.39
2397.39
2397.39
2397.39
2397.4
2397.4
2397.4
2397.41
2397.41
2397.42
2397.43
2397.43
2397.44
2397.44
2397.45
2397.45
2397.45
2299.36
2299.36
2299.35
2299.35
2299.34
2299.34
2299.33
2299.32
2299.31
2299.3
2299.3
2299.29
2299.29
2299.28
2299.28
2299.28
2299.28
2299.29
2299.29
2299.3
2299.3
2299.31
2299.32
2299.33
2299.33
2299.34
2299.35
2299.35
2299.36
2299.36
2201.27
2201.27
2201.26
2201.26
2201.25
2201.24
2201.23
2201.22
2201.21
2201.2
2201.19
2201.18
2201.18
2201.17
2201.17
2201.17
2201.17
2201.18
2201.18
2201.19
2201.2
2201.21
2201.22
2201.23
2201.24
2201.25
2201.26
2201.26
2201.27
2201.27
2103.19
2103.18
2103.18
2103.17
2103.16
2103.15
2103.13
2103.12
2103.11
2103.09
2103.08
2103.07
2103.07
2103.06
2103.06
2103.06
2103.06
2103.06
2103.07
2103.08
2103.09
2103.1
2103.12
2103.13
2103.15
2103.16
2103.17
2103.18
2103.18
2103.19
2005.11
2005.11
2005.1
2005.09
2005.07
2005.06
2005.04
2005.02
2005
2004.99
2004.97
2004.96
2004.95
2004.94
2004.94
2004.94
2004.94
2004.95
2004.96
2004.97
2004.98
2005
2005.02
2005.04
2005.05
2005.07
2005.08
2005.1
2005.1
2005.11
1907.04
1907.03
1907.02
1907.01
1906.99
1906.97
1906.95
1906.92
1906.9
1906.88
1906.86
1906.84
1906.83
1906.82
1906.81
1906.81
1906.82
1906.83
1906.84
1906.86
1906.88
1906.9
1906.92
1906.94
1906.97
1906.99
1907.01
1907.02
1907.03
1907.04
1808.98
1808.97
1808.96
1808.94
1808.91
1808.89
1808.86
1808.83
1808.8
1808.77
1808.74
1808.72
1808.7
1808.69
1808.68
1808.68
1808.69
1808.7
1808.72
1808.74
1808.76
1808.79
1808.82
1808.85
1808.88
1808.91
1808.93
1808.95
1808.97
1808.97
1710.93
1710.92
1710.9
1710.88
1710.85
1710.81
1710.77
1710.73
1710.69
1710.65
1710.62
1710.59
1710.57
1710.55
1710.55
1710.55
1710.55
1710.57
1710.59
1710.62
1710.65
1710.69
1710.73
1710.77
1710.81
1710.84
1710.87
1710.9
1710.92
1710.92
1612.9
1612.89
1612.87
1612.83
1612.79
1612.74
1612.69
1612.64
1612.59
1612.54
1612.49
1612.46
1612.43
1612.41
1612.4
1612.4
1612.41
1612.43
1612.46
1612.49
1612.54
1612.58
1612.64
1612.69
1612.74
1612.79
1612.83
1612.86
1612.88
1612.89
1514.89
1514.88
1514.85
1514.8
1514.75
1514.69
1514.62
1514.55
1514.48
1514.42
1514.36
1514.31
1514.27
1514.25
1514.24
1514.24
1514.25
1514.27
1514.31
1514.36
1514.42
1514.48
1514.55
1514.62
1514.68
1514.75
1514.8
1514.84
1514.87
1514.89
1416.92
1416.9
1416.86
1416.8
1416.73
1416.65
1416.56
1416.47
1416.38
1416.29
1416.22
1416.16
1416.11
1416.07
1416.06
1416.06
1416.07
1416.11
1416.16
1416.22
1416.29
1416.38
1416.46
1416.56
1416.64
1416.72
1416.8
1416.85
1416.89
1416.91
1318.98
1318.96
1318.9
1318.83
1318.73
1318.63
1318.51
1318.39
1318.27
1318.16
1318.07
1317.98
1317.92
1317.88
1317.85
1317.85
1317.88
1317.92
1317.98
1318.07
1318.16
1318.27
1318.39
1318.51
1318.62
1318.73
1318.82
1318.9
1318.95
1318.98
1221.1
1221.07
1221
1220.9
1220.78
1220.63
1220.48
1220.33
1220.17
1220.03
1219.9
1219.79
1219.71
1219.65
1219.62
1219.62
1219.65
1219.71
1219.79
1219.9
1220.03
1220.17
1220.33
1220.48
1220.63
1220.77
1220.9
1220.99
1221.06
1221.1
1123.29
1123.24
1123.16
1123.03
1122.87
1122.68
1122.48
1122.28
1122.08
1121.89
1121.72
1121.58
1121.47
1121.4
1121.36
1121.36
1121.4
1121.47
1121.58
1121.72
1121.89
1122.08
1122.28
1122.48
1122.68
1122.87
1123.03
1123.15
1123.24
1123.29
1025.57
1025.51
1025.4
1025.23
1025.02
1024.78
1024.52
1024.25
1023.99
1023.75
1023.53
1023.34
1023.2
1023.1
1023.05
1023.05
1023.1
1023.2
1023.34
1023.53
1023.75
1023.99
1024.25
1024.52
1024.78
1025.02
1025.23
1025.4
1025.51
1025.57
927.97
927.894
927.744
927.529
927.26
926.949
926.613
926.266
925.925
925.605
925.318
925.077
924.888
924.759
924.693
924.693
924.758
924.887
925.075
925.317
925.603
925.924
926.265
926.612
926.949
927.26
927.53
927.745
927.896
927.972
830.521
830.424
830.233
829.958
829.613
829.214
828.78
828.332
827.891
827.475
827.102
826.787
826.54
826.372
826.286
826.286
826.371
826.539
826.785
827.1
827.472
827.888
828.33
828.779
829.213
829.613
829.959
830.235
830.426
830.524
733.267
733.144
732.903
732.555
732.118
731.61
731.055
730.481
729.912
729.375
728.891
728.481
728.161
727.941
727.829
727.829
727.94
728.159
728.479
728.889
729.372
729.909
730.478
731.053
731.608
732.117
732.556
732.905
733.146
733.27
636.256
636.104
635.805
635.372
634.824
634.185
633.484
632.754
632.027
631.336
630.712
630.181
629.765
629.478
629.332
629.332
629.477
629.763
630.179
630.709
631.333
632.024
632.751
633.482
634.183
634.823
635.372
635.806
636.107
636.259
539.55
539.364
539
538.471
537.798
537.007
536.134
535.216
534.295
533.413
532.612
531.927
531.387
531.014
530.823
530.823
531.012
531.384
531.924
532.609
533.41
534.291
535.212
536.13
537.005
537.796
538.471
539.001
539.367
539.553
443.215
442.996
442.565
441.935
441.127
440.17
439.1
437.964
436.812
435.699
434.677
433.795
433.096
432.613
432.365
432.365
432.612
433.095
433.793
434.674
435.696
436.809
437.96
439.097
440.167
441.125
441.935
442.566
442.997
443.217
347.307
347.057
346.566
345.842
344.902
343.773
342.494
341.114
339.693
338.301
337.005
335.876
334.972
334.343
334.021
334.021
334.342
334.971
335.874
337.003
338.298
339.69
341.11
342.491
343.77
344.9
345.841
346.566
347.058
347.309
251.878
251.609
251.076
250.282
249.234
247.953
246.469
244.836
243.113
241.388
239.752
238.304
237.13
236.305
235.88
235.879
236.305
237.13
238.303
239.75
241.385
243.11
244.832
246.466
247.95
249.232
250.28
251.075
251.609
251.878
157.055
156.794
156.27
155.481
154.418
153.092
151.513
149.715
147.76
145.74
143.766
141.975
140.49
139.426
138.872
138.872
139.426
140.491
141.975
143.765
145.738
147.757
149.713
151.51
153.09
154.417
155.48
156.269
156.794
157.055
63.7401
63.5806
63.2597
62.7777
62.1195
61.2743
60.2278
58.9803
57.5598
56.0235
54.4731
53.0348
51.8084
50.9172
50.4548
50.4549
50.9169
51.8094
53.0359
54.4729
56.0217
57.5576
58.9794
60.2263
61.2714
62.1181
62.7762
63.2581
63.5803
63.7396
6.03297
5.99383
5.91611
5.7977
5.64089
5.43566
5.17981
4.85615
4.46846
4.01266
3.53153
3.06828
2.66833
2.37628
2.22591
2.22581
2.376
2.66808
3.06779
3.53076
4.01139
4.46733
4.85533
5.17905
5.43467
5.63872
5.79564
5.91486
5.99275
6.03303
-5.06492
-5.06457
-5.06454
-5.06445
-5.06424
-5.06383
-5.06307
-5.06175
-5.05997
-5.05752
-5.05485
-5.05206
-5.05006
-5.04888
-5.04812
-5.04815
-5.04894
-5.05017
-5.05222
-5.0551
-5.0579
-5.06053
-5.06253
-5.06408
-5.06504
-5.06554
-5.06572
-5.06565
-5.06543
-5.06559
-5.15984
-5.15962
-5.15926
-5.15882
-5.15821
-5.15755
-5.15688
-5.15556
-5.1532
-5.1494
-5.14404
-5.13844
-5.1338
-5.13061
-5.12854
-5.12855
-5.13065
-5.13386
-5.13852
-5.1442
-5.14973
-5.15374
-5.15634
-5.1579
-5.15878
-5.15954
-5.16009
-5.16031
-5.1604
-5.16044
-5.25411
-5.25383
-5.25331
-5.25251
-5.25145
-5.25026
-5.2492
-5.24811
-5.24688
-5.24579
-5.24388
-5.24066
-5.23709
-5.234
-5.23176
-5.23178
-5.23404
-5.23716
-5.24076
-5.24409
-5.24618
-5.24746
-5.2489
-5.25022
-5.25149
-5.25275
-5.25373
-5.25429
-5.25454
-5.25466
-5.34916
-5.34881
-5.3482
-5.34728
-5.34607
-5.34455
-5.34275
-5.34088
-5.33944
-5.33863
-5.33843
-5.33816
-5.3376
-5.33742
-5.33675
-5.33678
-5.33748
-5.33772
-5.33834
-5.3387
-5.33903
-5.34002
-5.34167
-5.34377
-5.34576
-5.34733
-5.34842
-5.34906
-5.34939
-5.3496
-5.44489
-5.44462
-5.44402
-5.44315
-5.44204
-5.44077
-5.4394
-5.43776
-5.43583
-5.43414
-5.43297
-5.43214
-5.43186
-5.43229
-5.43277
-5.43279
-5.43236
-5.43199
-5.43233
-5.43324
-5.43454
-5.43639
-5.43855
-5.44042
-5.44195
-5.44325
-5.44419
-5.44476
-5.44507
-5.44522
-5.54152
-5.54125
-5.54071
-5.53992
-5.53893
-5.5378
-5.53654
-5.53516
-5.53368
-5.53221
-5.53086
-5.52968
-5.52864
-5.5281
-5.52802
-5.52806
-5.52821
-5.52881
-5.52991
-5.53118
-5.53265
-5.5343
-5.53599
-5.53757
-5.53894
-5.54004
-5.54083
-5.5413
-5.54156
-5.54172
-5.63875
-5.63853
-5.63804
-5.63735
-5.6365
-5.63554
-5.6345
-5.63341
-5.6323
-5.63123
-5.63022
-5.62928
-5.62839
-5.62775
-5.62732
-5.62736
-5.62787
-5.62857
-5.62952
-5.63055
-5.63168
-5.63292
-5.63422
-5.63548
-5.63659
-5.63748
-5.6381
-5.63849
-5.63871
-5.63886
-5.73649
-5.7363
-5.73587
-5.73526
-5.73453
-5.73373
-5.73291
-5.73209
-5.73131
-5.73059
-5.72993
-5.72933
-5.72879
-5.72836
-5.72805
-5.72808
-5.72846
-5.72895
-5.72957
-5.73027
-5.73108
-5.73198
-5.73294
-5.73389
-5.73472
-5.73539
-5.73587
-5.73618
-5.73638
-5.73651
-5.83458
-5.83444
-5.83406
-5.83354
-5.83292
-5.83226
-5.83163
-5.83104
-5.83052
-5.83007
-5.82969
-5.82937
-5.82909
-5.82887
-5.82874
-5.82877
-5.82898
-5.82927
-5.82964
-5.8301
-5.83063
-5.83125
-5.8319
-5.83254
-5.83312
-5.83359
-5.83396
-5.83424
-5.83443
-5.83455
-5.93291
-5.9328
-5.93248
-5.93202
-5.93149
-5.93097
-5.9305
-5.9301
-5.92978
-5.92954
-5.92937
-5.92924
-5.92914
-5.92907
-5.92905
-5.92909
-5.9292
-5.92936
-5.92957
-5.92982
-5.93013
-5.93049
-5.93087
-5.93126
-5.93163
-5.93198
-5.93229
-5.93255
-5.93274
-5.93284
-6.03136
-6.03127
-6.03099
-6.03058
-6.03013
-6.02972
-6.02937
-6.02912
-6.02897
-6.02888
-6.02885
-6.02886
-6.02887
-6.02889
-6.02892
-6.02896
-6.02902
-6.02909
-6.02917
-6.02928
-6.02941
-6.02957
-6.02975
-6.02997
-6.03022
-6.0305
-6.03077
-6.031
-6.03118
-6.03126
-6.12984
-6.12978
-6.12951
-6.12915
-6.12877
-6.12843
-6.12817
-6.12802
-6.12796
-6.12798
-6.12804
-6.12812
-6.1282
-6.12827
-6.12833
-6.12837
-6.1284
-6.12841
-6.12842
-6.12843
-6.12844
-6.12848
-6.12855
-6.12867
-6.12884
-6.12906
-6.12929
-6.12949
-6.12963
-6.12968
-6.22828
-6.22823
-6.228
-6.2277
-6.22739
-6.22711
-6.22692
-6.22682
-6.22681
-6.22686
-6.22696
-6.22708
-6.22719
-6.22728
-6.22735
-6.2274
-6.22741
-6.2274
-6.22737
-6.22733
-6.22728
-6.22726
-6.22727
-6.22733
-6.22744
-6.2276
-6.22777
-6.22792
-6.22802
-6.22805
-6.3266
-6.32656
-6.32639
-6.32617
-6.32595
-6.32576
-6.32562
-6.32555
-6.32555
-6.32561
-6.32571
-6.32582
-6.32594
-6.32603
-6.3261
-6.32614
-6.32615
-6.32613
-6.32608
-6.32602
-6.32596
-6.3259
-6.32588
-6.3259
-6.32596
-6.32605
-6.32616
-6.32625
-6.32631
-6.32632
-6.42478
-6.42474
-6.42465
-6.42453
-6.4244
-6.42429
-6.42421
-6.42417
-6.42419
-6.42424
-6.42431
-6.42441
-6.4245
-6.42458
-6.42463
-6.42467
-6.42467
-6.42465
-6.4246
-6.42454
-6.42447
-6.42441
-6.42437
-6.42435
-6.42436
-6.4244
-6.42444
-6.42449
-6.42451
-6.42451
-6.52285
-6.52283
-6.52279
-6.52275
-6.52271
-6.52267
-6.52265
-6.52265
-6.52267
-6.52271
-6.52277
-6.52284
-6.5229
-6.52296
-6.523
-6.52302
-6.52302
-6.523
-6.52295
-6.5229
-6.52284
-6.52277
-6.52272
-6.52268
-6.52266
-6.52265
-6.52265
-6.52266
-6.52266
-6.52265
-6.62087
-6.62086
-6.62086
-6.62087
-6.62089
-6.62091
-6.62093
-6.62095
-6.62099
-6.62103
-6.62107
-6.62112
-6.62117
-6.6212
-6.62123
-6.62124
-6.62124
-6.62121
-6.62118
-6.62113
-6.62108
-6.62102
-6.62096
-6.6209
-6.62086
-6.62082
-6.6208
-6.62079
-6.62077
-6.62077
-6.71888
-6.71889
-6.71891
-6.71895
-6.71899
-6.71904
-6.71909
-6.71913
-6.71918
-6.71922
-6.71926
-6.7193
-6.71933
-6.71935
-6.71936
-6.71937
-6.71936
-6.71934
-6.71931
-6.71927
-6.71922
-6.71917
-6.71911
-6.71905
-6.719
-6.71896
-6.71892
-6.7189
-6.71888
-6.71887
-6.81693
-6.81694
-6.81697
-6.81702
-6.81707
-6.81712
-6.81718
-6.81723
-6.81728
-6.81732
-6.81736
-6.81739
-6.81741
-6.81743
-6.81744
-6.81744
-6.81743
-6.81741
-6.81739
-6.81736
-6.81732
-6.81727
-6.81722
-6.81716
-6.81711
-6.81707
-6.81703
-6.817
-6.81698
-6.81698
-6.91501
-6.91502
-6.91505
-6.91509
-6.91514
-6.91519
-6.91525
-6.9153
-6.91534
-6.91538
-6.91541
-6.91544
-6.91546
-6.91547
-6.91548
-6.91548
-6.91547
-6.91546
-6.91544
-6.91541
-6.91538
-6.91534
-6.9153
-6.91525
-6.91521
-6.91517
-6.91514
-6.91511
-6.91509
-6.91509
-7.01312
-7.01312
-7.01315
-7.01318
-7.01322
-7.01327
-7.01331
-7.01336
-7.01339
-7.01343
-7.01346
-7.01348
-7.01349
-7.0135
-7.01351
-7.01351
-7.01351
-7.0135
-7.01348
-7.01346
-7.01344
-7.01341
-7.01338
-7.01334
-7.01331
-7.01327
-7.01325
-7.01323
-7.01321
-7.01321
-7.11124
-7.11124
-7.11126
-7.11129
-7.11132
-7.11135
-7.11139
-7.11142
-7.11145
-7.11148
-7.1115
-7.11152
-7.11153
-7.11154
-7.11155
-7.11155
-7.11155
-7.11154
-7.11153
-7.11152
-7.1115
-7.11148
-7.11146
-7.11143
-7.11141
-7.11138
-7.11136
-7.11134
-7.11133
-7.11133
-7.20937
-7.20937
-7.20939
-7.20941
-7.20943
-7.20945
-7.20948
-7.2095
-7.20953
-7.20955
-7.20956
-7.20958
-7.20959
-7.20959
-7.2096
-7.2096
-7.2096
-7.2096
-7.20959
-7.20959
-7.20958
-7.20956
-7.20955
-7.20953
-7.20951
-7.20949
-7.20948
-7.20946
-7.20945
-7.20945
-7.3075
-7.30751
-7.30752
-7.30753
-7.30755
-7.30756
-7.30758
-7.3076
-7.30762
-7.30763
-7.30764
-7.30765
-7.30766
-7.30766
-7.30767
-7.30767
-7.30767
-7.30767
-7.30767
-7.30767
-7.30766
-7.30765
-7.30764
-7.30763
-7.30762
-7.30761
-7.3076
-7.30759
-7.30758
-7.30758
-7.40564
-7.40564
-7.40565
-7.40566
-7.40567
-7.40568
-7.40569
-7.40571
-7.40572
-7.40573
-7.40574
-7.40574
-7.40575
-7.40575
-7.40575
-7.40576
-7.40576
-7.40576
-7.40576
-7.40576
-7.40576
-7.40575
-7.40575
-7.40574
-7.40573
-7.40573
-7.40572
-7.40571
-7.40571
-7.4057
-7.50377
-7.50378
-7.50378
-7.50379
-7.50379
-7.5038
-7.50381
-7.50382
-7.50383
-7.50384
-7.50384
-7.50385
-7.50385
-7.50385
-7.50385
-7.50386
-7.50386
-7.50386
-7.50386
-7.50386
-7.50386
-7.50386
-7.50386
-7.50386
-7.50385
-7.50385
-7.50384
-7.50384
-7.50383
-7.50383
-7.60191
-7.60191
-7.60191
-7.60192
-7.60192
-7.60193
-7.60194
-7.60194
-7.60195
-7.60195
-7.60196
-7.60196
-7.60196
-7.60196
-7.60197
-7.60197
-7.60197
-7.60197
-7.60198
-7.60198
-7.60198
-7.60198
-7.60198
-7.60197
-7.60197
-7.60197
-7.60197
-7.60196
-7.60196
-7.60196
-7.70004
-7.70004
-7.70005
-7.70005
-7.70005
-7.70006
-7.70006
-7.70007
-7.70007
-7.70008
-7.70008
-7.70008
-7.70008
-7.70009
-7.70009
-7.70009
-7.70009
-7.70009
-7.7001
-7.7001
-7.7001
-7.7001
-7.7001
-7.7001
-7.70009
-7.70009
-7.70009
-7.70009
-7.70009
-7.70009
-7.79818
-7.79818
-7.79818
-7.79818
-7.79818
-7.79819
-7.79819
-7.7982
-7.7982
-7.7982
-7.79821
-7.79821
-7.79821
-7.79821
-7.79821
-7.79822
-7.79822
-7.79822
-7.79822
-7.79822
-7.79822
-7.79822
-7.79822
-7.79822
-7.79822
-7.79822
-7.79822
-7.79821
-7.79821
-7.79821
-7.89631
-7.89631
-7.89631
-7.89631
-7.89632
-7.89632
-7.89632
-7.89633
-7.89633
-7.89633
-7.89634
-7.89634
-7.89634
-7.89634
-7.89634
-7.89635
-7.89635
-7.89635
-7.89635
-7.89635
-7.89635
-7.89635
-7.89635
-7.89635
-7.89635
-7.89634
-7.89634
-7.89634
-7.89634
-7.89634
-7.99444
-7.99444
-7.99444
-7.99444
-7.99445
-7.99445
-7.99446
-7.99446
-7.99446
-7.99447
-7.99447
-7.99447
-7.99447
-7.99448
-7.99448
-7.99448
-7.99448
-7.99448
-7.99448
-7.99448
-7.99448
-7.99448
-7.99448
-7.99447
-7.99447
-7.99447
-7.99447
-7.99447
-7.99447
-7.99446
-8.09257
-8.09257
-8.09257
-8.09258
-8.09258
-8.09258
-8.09259
-8.09259
-8.0926
-8.0926
-8.0926
-8.0926
-8.09261
-8.09261
-8.09261
-8.09261
-8.09261
-8.09261
-8.09261
-8.09261
-8.09261
-8.09261
-8.0926
-8.0926
-8.0926
-8.0926
-8.0926
-8.09259
-8.09259
-8.09259
-8.1907
-8.1907
-8.19071
-8.19071
-8.19071
-8.19072
-8.19072
-8.19072
-8.19073
-8.19073
-8.19074
-8.19074
-8.19074
-8.19074
-8.19074
-8.19074
-8.19074
-8.19074
-8.19074
-8.19074
-8.19074
-8.19074
-8.19073
-8.19073
-8.19073
-8.19073
-8.19072
-8.19072
-8.19072
-8.19072
-8.28884
-8.28884
-8.28884
-8.28884
-8.28885
-8.28885
-8.28885
-8.28886
-8.28886
-8.28887
-8.28887
-8.28887
-8.28887
-8.28888
-8.28888
-8.28888
-8.28888
-8.28888
-8.28887
-8.28887
-8.28887
-8.28887
-8.28886
-8.28886
-8.28886
-8.28886
-8.28885
-8.28885
-8.28885
-8.28885
-8.38697
-8.38697
-8.38697
-8.38697
-8.38698
-8.38698
-8.38699
-8.38699
-8.387
-8.387
-8.387
-8.38701
-8.38701
-8.38701
-8.38701
-8.38701
-8.38701
-8.38701
-8.38701
-8.387
-8.387
-8.387
-8.38699
-8.38699
-8.38699
-8.38699
-8.38698
-8.38698
-8.38698
-8.38698
-8.4851
-8.4851
-8.48511
-8.48511
-8.48511
-8.48512
-8.48512
-8.48512
-8.48513
-8.48513
-8.48514
-8.48514
-8.48514
-8.48514
-8.48515
-8.48515
-8.48514
-8.48514
-8.48514
-8.48514
-8.48513
-8.48513
-8.48513
-8.48512
-8.48512
-8.48512
-8.48511
-8.48511
-8.48511
-8.48511
-8.58324
-8.58324
-8.58324
-8.58324
-8.58325
-8.58325
-8.58326
-8.58326
-8.58326
-8.58327
-8.58327
-8.58327
-8.58328
-8.58328
-8.58328
-8.58328
-8.58328
-8.58328
-8.58327
-8.58327
-8.58327
-8.58326
-8.58326
-8.58326
-8.58325
-8.58325
-8.58325
-8.58325
-8.58324
-8.58324
-8.68138
-8.68138
-8.68138
-8.68138
-8.68138
-8.68139
-8.68139
-8.68139
-8.6814
-8.6814
-8.68141
-8.68141
-8.68141
-8.68141
-8.68141
-8.68141
-8.68141
-8.68141
-8.68141
-8.6814
-8.6814
-8.6814
-8.68139
-8.68139
-8.68139
-8.68138
-8.68138
-8.68138
-8.68138
-8.68138
-8.77951
-8.77951
-8.77952
-8.77952
-8.77952
-8.77952
-8.77953
-8.77953
-8.77953
-8.77954
-8.77954
-8.77954
-8.77955
-8.77955
-8.77955
-8.77955
-8.77955
-8.77955
-8.77954
-8.77954
-8.77954
-8.77953
-8.77953
-8.77953
-8.77952
-8.77952
-8.77952
-8.77952
-8.77951
-8.77951
-8.87765
-8.87765
-8.87765
-8.87766
-8.87766
-8.87766
-8.87766
-8.87767
-8.87767
-8.87767
-8.87768
-8.87768
-8.87768
-8.87768
-8.87768
-8.87768
-8.87768
-8.87768
-8.87768
-8.87768
-8.87767
-8.87767
-8.87767
-8.87766
-8.87766
-8.87766
-8.87765
-8.87765
-8.87765
-8.87765
-8.97579
-8.97579
-8.97579
-8.9758
-8.9758
-8.9758
-8.9758
-8.97581
-8.97581
-8.97581
-8.97582
-8.97582
-8.97582
-8.97582
-8.97582
-8.97582
-8.97582
-8.97582
-8.97582
-8.97581
-8.97581
-8.97581
-8.9758
-8.9758
-8.9758
-8.97579
-8.97579
-8.97579
-8.97579
-8.97579
-9.07393
-9.07393
-9.07393
-9.07394
-9.07394
-9.07394
-9.07394
-9.07395
-9.07395
-9.07395
-9.07395
-9.07395
-9.07396
-9.07396
-9.07396
-9.07396
-9.07396
-9.07395
-9.07395
-9.07395
-9.07395
-9.07394
-9.07394
-9.07394
-9.07394
-9.07393
-9.07393
-9.07393
-9.07393
-9.07393
-9.17207
-9.17207
-9.17207
-9.17208
-9.17208
-9.17208
-9.17208
-9.17208
-9.17209
-9.17209
-9.17209
-9.17209
-9.17209
-9.17209
-9.17209
-9.17209
-9.17209
-9.17209
-9.17209
-9.17209
-9.17209
-9.17208
-9.17208
-9.17208
-9.17208
-9.17207
-9.17207
-9.17207
-9.17207
-9.17207
-9.27022
-9.27022
-9.27022
-9.27022
-9.27022
-9.27022
-9.27022
-9.27022
-9.27023
-9.27023
-9.27023
-9.27023
-9.27023
-9.27023
-9.27023
-9.27023
-9.27023
-9.27023
-9.27023
-9.27023
-9.27023
-9.27022
-9.27022
-9.27022
-9.27022
-9.27021
-9.27021
-9.27021
-9.27021
-9.27021
-9.36836
-9.36836
-9.36836
-9.36836
-9.36836
-9.36836
-9.36836
-9.36836
-9.36837
-9.36837
-9.36837
-9.36837
-9.36837
-9.36837
-9.36837
-9.36837
-9.36837
-9.36837
-9.36837
-9.36837
-9.36836
-9.36836
-9.36836
-9.36836
-9.36836
-9.36836
-9.36835
-9.36835
-9.36835
-9.36835
-9.4665
-9.4665
-9.4665
-9.4665
-9.4665
-9.4665
-9.4665
-9.4665
-9.46651
-9.46651
-9.46651
-9.46651
-9.46651
-9.46651
-9.46651
-9.46651
-9.46651
-9.46651
-9.46651
-9.46651
-9.46651
-9.4665
-9.4665
-9.4665
-9.4665
-9.4665
-9.4665
-9.4665
-9.4665
-9.4665
-9.56464
-9.56464
-9.56464
-9.56464
-9.56464
-9.56464
-9.56464
-9.56465
-9.56465
-9.56465
-9.56465
-9.56465
-9.56465
-9.56465
-9.56465
-9.56465
-9.56465
-9.56465
-9.56465
-9.56465
-9.56465
-9.56464
-9.56464
-9.56464
-9.56464
-9.56464
-9.56464
-9.56464
-9.56464
-9.56464
-9.66278
-9.66278
-9.66278
-9.66278
-9.66279
-9.66279
-9.66279
-9.66279
-9.66279
-9.66279
-9.66279
-9.66279
-9.66279
-9.66279
-9.66279
-9.66279
-9.66279
-9.66279
-9.66279
-9.66279
-9.66279
-9.66279
-9.66279
-9.66279
-9.66278
-9.66278
-9.66278
-9.66278
-9.66278
-9.66278
-9.76093
-9.76093
-9.76093
-9.76093
-9.76093
-9.76093
-9.76093
-9.76093
-9.76093
-9.76093
-9.76093
-9.76093
-9.76093
-9.76093
-9.76093
-9.76093
-9.76093
-9.76093
-9.76093
-9.76093
-9.76093
-9.76093
-9.76093
-9.76093
-9.76093
-9.76093
-9.76093
-9.76093
-9.76093
-9.76093
4849.9
4849.9
4849.9
4849.9
4849.9
4849.9
4849.9
4849.9
4849.9
4849.9
4849.9
4849.9
4849.9
4849.9
4849.9
4849.9
4849.9
4849.9
4849.9
4849.9
4849.9
4849.9
4849.9
4849.9
4849.9
4849.9
4849.9
4849.9
4849.9
4849.9
4751.8
4751.8
4751.8
4751.8
4751.8
4751.8
4751.8
4751.8
4751.8
4751.8
4751.8
4751.8
4751.8
4751.8
4751.8
4751.8
4751.8
4751.8
4751.8
4751.8
4751.8
4751.8
4751.8
4751.8
4751.8
4751.8
4751.8
4751.8
4751.8
4751.8
4653.7
4653.7
4653.7
4653.7
4653.7
4653.7
4653.7
4653.7
4653.7
4653.7
4653.7
4653.7
4653.7
4653.7
4653.7
4653.7
4653.7
4653.7
4653.7
4653.7
4653.7
4653.7
4653.7
4653.7
4653.7
4653.7
4653.7
4653.7
4653.7
4653.7
4555.6
4555.6
4555.6
4555.6
4555.6
4555.6
4555.6
4555.6
4555.6
4555.6
4555.6
4555.6
4555.6
4555.6
4555.6
4555.6
4555.6
4555.6
4555.6
4555.6
4555.6
4555.6
4555.6
4555.6
4555.6
4555.6
4555.6
4555.6
4555.6
4555.6
4457.5
4457.5
4457.5
4457.5
4457.5
4457.5
4457.5
4457.5
4457.5
4457.5
4457.5
4457.5
4457.5
4457.5
4457.5
4457.5
4457.5
4457.5
4457.5
4457.5
4457.5
4457.5
4457.5
4457.5
4457.5
4457.5
4457.5
4457.5
4457.5
4457.5
4359.4
4359.4
4359.4
4359.4
4359.4
4359.4
4359.4
4359.4
4359.4
4359.4
4359.4
4359.4
4359.4
4359.4
4359.4
4359.4
4359.4
4359.4
4359.4
4359.4
4359.4
4359.4
4359.4
4359.4
4359.4
4359.4
4359.4
4359.4
4359.4
4359.4
4261.3
4261.3
4261.3
4261.3
4261.3
4261.3
4261.3
4261.3
4261.3
4261.3
4261.3
4261.3
4261.3
4261.3
4261.3
4261.3
4261.3
4261.3
4261.3
4261.3
4261.3
4261.3
4261.3
4261.3
4261.3
4261.3
4261.3
4261.3
4261.3
4261.3
4163.21
4163.21
4163.21
4163.21
4163.2
4163.2
4163.2
4163.2
4163.2
4163.2
4163.2
4163.2
4163.2
4163.2
4163.2
4163.2
4163.2
4163.2
4163.2
4163.2
4163.2
4163.2
4163.2
4163.2
4163.2
4163.2
4163.21
4163.21
4163.21
4163.21
4065.11
4065.11
4065.11
4065.11
4065.11
4065.11
4065.11
4065.11
4065.1
4065.1
4065.1
4065.1
4065.1
4065.1
4065.1
4065.1
4065.1
4065.1
4065.1
4065.1
4065.11
4065.11
4065.11
4065.11
4065.11
4065.11
4065.11
4065.11
4065.11
4065.11
3967.01
3967.01
3967.01
3967.01
3967.01
3967.01
3967.01
3967.01
3967.01
3967.01
3967
3967
3967
3967
3967
3967
3967
3967.01
3967.01
3967.01
3967.01
3967.01
3967.01
3967.01
3967.01
3967.01
3967.01
3967.01
3967.01
3967.01
3868.91
3868.91
3868.91
3868.91
3868.91
3868.91
3868.91
3868.91
3868.91
3868.91
3868.91
3868.91
3868.91
3868.91
3868.91
3868.91
3868.91
3868.91
3868.91
3868.91
3868.91
3868.91
3868.91
3868.91
3868.91
3868.91
3868.91
3868.91
3868.91
3868.91
3770.81
3770.81
3770.81
3770.81
3770.81
3770.81
3770.81
3770.81
3770.81
3770.81
3770.81
3770.81
3770.81
3770.81
3770.81
3770.81
3770.81
3770.81
3770.81
3770.81
3770.81
3770.81
3770.81
3770.81
3770.81
3770.81
3770.81
3770.81
3770.81
3770.81
3672.71
3672.71
3672.71
3672.71
3672.71
3672.71
3672.71
3672.71
3672.71
3672.71
3672.71
3672.71
3672.71
3672.71
3672.71
3672.71
3672.71
3672.71
3672.71
3672.71
3672.71
3672.71
3672.71
3672.71
3672.71
3672.71
3672.71
3672.71
3672.71
3672.71
3574.61
3574.61
3574.61
3574.61
3574.61
3574.61
3574.61
3574.61
3574.61
3574.61
3574.61
3574.61
3574.61
3574.61
3574.61
3574.61
3574.61
3574.61
3574.61
3574.61
3574.61
3574.61
3574.61
3574.61
3574.61
3574.61
3574.61
3574.61
3574.61
3574.61
3476.51
3476.51
3476.51
3476.51
3476.51
3476.51
3476.51
3476.51
3476.51
3476.51
3476.51
3476.51
3476.51
3476.51
3476.51
3476.51
3476.51
3476.51
3476.51
3476.51
3476.51
3476.51
3476.51
3476.51
3476.51
3476.51
3476.51
3476.51
3476.51
3476.51
3378.41
3378.41
3378.41
3378.41
3378.41
3378.41
3378.41
3378.41
3378.41
3378.41
3378.41
3378.41
3378.41
3378.41
3378.41
3378.41
3378.41
3378.41
3378.41
3378.41
3378.41
3378.41
3378.41
3378.41
3378.41
3378.41
3378.41
3378.41
3378.41
3378.41
3280.32
3280.32
3280.32
3280.32
3280.32
3280.32
3280.32
3280.32
3280.32
3280.31
3280.31
3280.31
3280.31
3280.31
3280.31
3280.31
3280.31
3280.31
3280.31
3280.31
3280.31
3280.31
3280.31
3280.31
3280.31
3280.31
3280.32
3280.32
3280.32
3280.32
3182.22
3182.22
3182.22
3182.22
3182.22
3182.22
3182.22
3182.22
3182.22
3182.22
3182.22
3182.21
3182.21
3182.21
3182.21
3182.21
3182.21
3182.21
3182.21
3182.21
3182.21
3182.21
3182.21
3182.21
3182.22
3182.22
3182.22
3182.22
3182.22
3182.22
3084.12
3084.12
3084.12
3084.12
3084.12
3084.12
3084.12
3084.12
3084.12
3084.12
3084.12