/*--------------------------------*- C++ -*----------------------------------*\
| =========                 |                                                 |
| \\      /  F ield         | OpenFOAM: The Open Source CFD Toolbox           |
|  \\    /   O peration     | Version:  2312                                  |
|   \\  /    A nd           | Website:  www.openfoam.com                      |
|    \\/     M anipulation  |                                                 |
\*---------------------------------------------------------------------------*/
FoamFile
{
    version     2.0;
    format      ascii;
    arch        "LSB;label=32;scalar=64";
    class       volScalarField;
    location    "0.357759";
    object      p_rgh;
}
// * * * * * * * * * * * * * * * * * * * * * * * * * * * * * * * * * * * * * //

dimensions      [1 -1 -2 0 0 0 0];

internalField   nonuniform List<scalar> 
90000
(
4898.95
4898.95
4898.95
4898.95
4898.95
4898.95
4898.95
4898.95
4898.95
4898.95
4898.95
4898.95
4898.95
4898.95
4898.95
4898.95
4898.95
4898.95
4898.95
4898.95
4898.95
4898.95
4898.95
4898.95
4898.95
4898.95
4898.95
4898.95
4898.95
4898.95
4898.95
4898.95
4898.95
4898.95
4898.95
4898.95
4898.95
4898.95
4898.95
4898.95
4898.95
4898.95
4898.95
4898.95
4898.95
4898.95
4898.95
4898.95
4898.95
4898.95
4898.95
4898.95
4898.95
4898.95
4898.95
4898.95
4898.95
4898.96
4898.96
4898.96
4898.95
4898.95
4898.95
4898.95
4898.95
4898.95
4898.95
4898.95
4898.95
4898.95
4898.95
4898.95
4898.95
4898.95
4898.95
4898.95
4898.95
4898.95
4898.95
4898.95
4898.95
4898.95
4898.95
4898.95
4898.95
4898.95
4898.95
4898.95
4898.95
4898.95
4898.95
4898.95
4898.95
4898.95
4898.95
4898.95
4898.95
4898.95
4898.95
4898.95
4898.95
4898.95
4898.95
4898.95
4898.95
4898.95
4898.95
4898.95
4898.95
4898.95
4898.95
4898.95
4898.95
4898.95
4898.95
4898.95
4898.95
4898.95
4898.95
4898.95
4898.95
4898.95
4898.95
4898.95
4898.95
4898.95
4898.95
4898.95
4898.95
4898.95
4898.95
4898.95
4898.95
4898.95
4898.95
4898.95
4898.95
4898.95
4898.95
4898.95
4898.95
4898.95
4898.95
4898.95
4898.95
4898.95
4898.95
4898.95
4898.94
4898.94
4898.95
4898.95
4898.95
4898.95
4898.95
4898.95
4898.95
4898.95
4898.95
4898.95
4898.95
4898.95
4898.95
4898.95
4898.95
4898.95
4898.95
4898.95
4898.95
4898.95
4898.95
4898.95
4898.95
4898.95
4898.95
4898.95
4898.94
4898.94
4898.94
4898.94
4898.96
4898.96
4898.96
4898.95
4898.95
4898.95
4898.95
4898.95
4898.95
4898.95
4898.95
4898.95
4898.95
4898.95
4898.95
4898.95
4898.95
4898.95
4898.95
4898.95
4898.95
4898.95
4898.95
4898.95
4898.95
4898.94
4898.94
4898.94
4898.94
4898.94
4898.96
4898.96
4898.96
4898.96
4898.95
4898.95
4898.95
4898.95
4898.95
4898.95
4898.95
4898.95
4898.95
4898.95
4898.95
4898.96
4898.96
4898.96
4898.96
4898.96
4898.96
4898.95
4898.95
4898.95
4898.94
4898.94
4898.94
4898.94
4898.94
4898.94
4898.96
4898.96
4898.96
4898.96
4898.96
4898.95
4898.95
4898.95
4898.95
4898.95
4898.95
4898.95
4898.95
4898.96
4898.96
4898.96
4898.96
4898.96
4898.96
4898.96
4898.95
4898.95
4898.95
4898.94
4898.94
4898.94
4898.94
4898.94
4898.94
4898.95
4898.96
4898.97
4898.96
4898.96
4898.96
4898.96
4898.96
4898.96
4898.95
4898.95
4898.95
4898.95
4898.95
4898.96
4898.96
4898.96
4898.96
4898.96
4898.96
4898.96
4898.95
4898.95
4898.95
4898.95
4898.94
4898.94
4898.95
4898.95
4898.95
4898.95
4898.96
4898.97
4898.97
4898.97
4898.97
4898.97
4898.97
4898.96
4898.96
4898.95
4898.95
4898.95
4898.95
4898.95
4898.96
4898.96
4898.96
4898.96
4898.96
4898.96
4898.96
4898.95
4898.95
4898.95
4898.95
4898.95
4898.95
4898.95
4898.95
4898.95
4898.97
4898.98
4898.98
4898.98
4898.98
4898.98
4898.97
4898.96
4898.96
4898.95
4898.95
4898.95
4898.95
4898.95
4898.95
4898.95
4898.96
4898.96
4898.96
4898.96
4898.96
4898.96
4898.96
4898.96
4898.96
4898.96
4898.96
4898.96
4898.96
4898.96
4898.97
4898.98
4898.98
4898.98
4898.98
4898.98
4898.97
4898.96
4898.96
4898.95
4898.95
4898.95
4898.95
4898.95
4898.95
4898.95
4898.95
4898.96
4898.96
4898.97
4898.97
4898.98
4898.98
4898.98
4898.98
4898.97
4898.97
4898.97
4898.97
4898.97
4898.98
4898.98
4898.98
4898.97
4898.97
4898.97
4898.96
4898.96
4898.96
4898.96
4898.95
4898.95
4898.95
4898.95
4898.95
4898.95
4898.95
4898.96
4898.97
4898.98
4898.99
4898.99
4898.99
4898.99
4898.99
4898.99
4898.98
4898.98
4898.98
4898.97
4898.97
4898.96
4898.96
4898.96
4898.95
4898.95
4898.96
4898.96
4898.96
4898.96
4898.96
4898.96
4898.96
4898.95
4898.95
4898.95
4898.95
4898.96
4898.97
4898.98
4898.99
4898.99
4898.99
4898.99
4898.99
4898.99
4898.99
4898.98
4898.98
4898.97
4898.96
4898.93
4898.93
4898.93
4898.94
4898.94
4898.95
4898.96
4898.96
4898.97
4898.97
4898.97
4898.96
4898.96
4898.95
4898.95
4898.96
4898.96
4898.97
4898.98
4898.98
4898.98
4898.98
4898.98
4898.98
4898.98
4898.98
4898.97
4898.96
4898.95
4898.94
4898.91
4898.91
4898.92
4898.92
4898.93
4898.95
4898.96
4898.97
4898.97
4898.97
4898.97
4898.96
4898.96
4898.95
4898.95
4898.96
4898.96
4898.96
4898.96
4898.96
4898.96
4898.97
4898.97
4898.97
4898.97
4898.96
4898.95
4898.95
4898.95
4898.93
4898.9
4898.91
4898.91
4898.92
4898.93
4898.95
4898.96
4898.97
4898.97
4898.97
4898.97
4898.96
4898.96
4898.96
4898.95
4898.95
4898.95
4898.95
4898.95
4898.95
4898.95
4898.95
4898.96
4898.96
4898.95
4898.95
4898.94
4898.94
4898.95
4898.93
4898.9
4898.91
4898.92
4898.93
4898.94
4898.95
4898.96
4898.97
4898.97
4898.97
4898.97
4898.96
4898.96
4898.96
4898.96
4898.95
4898.95
4898.95
4898.94
4898.94
4898.94
4898.95
4898.95
4898.94
4898.94
4898.94
4898.94
4898.95
4898.95
4898.94
4898.92
4898.93
4898.94
4898.95
4898.96
4898.96
4898.97
4898.97
4898.97
4898.97
4898.97
4898.97
4898.96
4898.96
4898.96
4898.95
4898.95
4898.94
4898.94
4898.94
4898.94
4898.94
4898.94
4898.94
4898.94
4898.94
4898.95
4898.95
4898.96
4898.95
4898.94
4898.95
4898.96
4898.97
4898.97
4898.97
4898.97
4898.97
4898.97
4898.97
4898.97
4898.97
4898.97
4898.96
4898.96
4898.95
4898.95
4898.94
4898.94
4898.94
4898.94
4898.94
4898.94
4898.94
4898.94
4898.95
4898.96
4898.96
4898.96
4898.97
4898.97
4898.97
4898.98
4898.98
4898.99
4898.98
4898.98
4898.97
4898.97
4898.96
4898.96
4898.96
4898.96
4898.96
4898.96
4898.95
4898.95
4898.94
4898.94
4898.94
4898.94
4898.95
4898.95
4898.95
4898.96
4898.97
4898.97
4898.97
4898.97
4898.98
4898.99
4898.99
4899
4899
4899
4898.99
4898.98
4898.97
4898.97
4898.96
4898.96
4898.96
4898.96
4898.96
4898.96
4898.95
4898.95
4898.95
4898.95
4898.95
4898.95
4898.96
4898.97
4898.97
4898.98
4898.98
4898.98
4898.98
4898.98
4898.99
4899
4899.01
4899.01
4899.01
4899
4898.99
4898.98
4898.97
4898.96
4898.96
4898.96
4898.96
4898.95
4898.95
4898.95
4898.95
4898.95
4898.95
4898.95
4898.96
4898.96
4898.97
4898.98
4898.99
4898.99
4898.99
4898.99
4898.99
4898.99
4899
4899.02
4899.02
4899.01
4899.01
4899
4898.99
4898.98
4898.97
4898.96
4898.96
4898.95
4898.95
4898.95
4898.95
4898.95
4898.95
4898.95
4898.95
4898.96
4898.96
4898.97
4898.98
4898.99
4899
4899.01
4899.01
4899.01
4899.01
4899.01
4899.02
4899.02
4899.02
4899.01
4899
4898.99
4898.98
4898.97
4898.97
4898.96
4898.95
4898.95
4898.95
4898.95
4898.95
4898.95
4898.95
4898.95
4898.95
4898.96
4898.97
4898.98
4898.99
4899
4899.01
4899.02
4899.02
4899.03
4899.04
4899.04
4899.02
4899.03
4899.02
4899.01
4899
4898.99
4898.98
4898.97
4898.96
4898.95
4898.94
4898.94
4898.94
4898.94
4898.94
4898.94
4898.94
4898.95
4898.95
4898.96
4898.97
4898.98
4898.99
4899
4899.01
4899.02
4899.03
4899.04
4899.06
4899.05
4899.03
4899.03
4899.02
4899.01
4898.99
4898.98
4898.97
4898.96
4898.95
4898.94
4898.93
4898.93
4898.92
4898.92
4898.92
4898.93
4898.93
4898.93
4898.94
4898.94
4898.95
4898.96
4898.97
4898.98
4898.99
4899
4899.03
4899.05
4899.06
4899.04
4899.04
4899.03
4899.02
4899.01
4899
4898.98
4898.97
4898.95
4898.94
4898.93
4898.92
4898.91
4898.91
4898.91
4898.9
4898.9
4898.91
4898.91
4898.91
4898.92
4898.93
4898.93
4898.94
4898.95
4898.97
4899
4899.03
4899.05
4899.05
4899.04
4899.06
4899.05
4899.04
4899.02
4899
4898.98
4898.96
4898.94
4898.93
4898.91
4898.9
4898.89
4898.89
4898.88
4898.88
4898.88
4898.88
4898.88
4898.89
4898.9
4898.91
4898.92
4898.93
4898.95
4898.98
4899.02
4899.04
4899.05
4899.05
4899.07
4899.09
4899.08
4899.07
4899.05
4899.02
4898.99
4898.96
4898.94
4898.92
4898.9
4898.88
4898.87
4898.86
4898.86
4898.85
4898.85
4898.85
4898.86
4898.87
4898.88
4898.89
4898.91
4898.93
4898.96
4899
4899.04
4899.06
4899.07
4899.09
4899.1
4899.13
4899.13
4899.11
4899.08
4899.05
4899.01
4898.97
4898.93
4898.9
4898.88
4898.86
4898.85
4898.84
4898.83
4898.83
4898.83
4898.83
4898.84
4898.85
4898.87
4898.89
4898.91
4898.94
4898.99
4899.03
4899.05
4899.08
4899.11
4899.13
4899.14
4899.18
4899.18
4899.16
4899.13
4899.08
4899.03
4898.98
4898.93
4898.9
4898.87
4898.84
4898.82
4898.81
4898.8
4898.79
4898.79
4898.8
4898.81
4898.83
4898.85
4898.88
4898.91
4898.95
4899
4899.04
4899.07
4899.11
4899.15
4899.17
4899.17
4899.26
4899.26
4899.23
4899.18
4899.13
4899.06
4899
4898.94
4898.9
4898.85
4898.82
4898.79
4898.77
4898.75
4898.74
4898.75
4898.76
4898.78
4898.8
4898.82
4898.86
4898.9
4898.96
4899.01
4899.05
4899.1
4899.15
4899.19
4899.22
4899.22
4899.36
4899.35
4899.31
4899.25
4899.19
4899.11
4899.04
4898.97
4898.9
4898.84
4898.79
4898.75
4898.72
4898.7
4898.69
4898.7
4898.71
4898.74
4898.76
4898.8
4898.84
4898.91
4898.98
4899.04
4899.11
4899.17
4899.24
4899.28
4899.31
4899.32
4899.48
4899.46
4899.42
4899.35
4899.27
4899.18
4899.09
4899
4898.91
4898.82
4898.75
4898.7
4898.66
4898.64
4898.63
4898.63
4898.65
4898.68
4898.71
4898.77
4898.84
4898.93
4899.02
4899.1
4899.19
4899.28
4899.36
4899.41
4899.44
4899.48
4899.64
4899.62
4899.56
4899.48
4899.38
4899.28
4899.15
4899.03
4898.91
4898.8
4898.71
4898.65
4898.59
4898.55
4898.53
4898.53
4898.55
4898.59
4898.65
4898.73
4898.83
4898.94
4899.06
4899.17
4899.29
4899.4
4899.49
4899.55
4899.62
4899.66
4899.86
4899.82
4899.75
4899.66
4899.53
4899.39
4899.23
4899.06
4898.91
4898.78
4898.66
4898.56
4898.48
4898.42
4898.39
4898.39
4898.42
4898.48
4898.57
4898.68
4898.81
4898.95
4899.09
4899.24
4899.39
4899.53
4899.65
4899.74
4899.84
4899.87
4900.14
4900.1
4900.02
4899.89
4899.72
4899.53
4899.33
4899.12
4898.93
4898.75
4898.59
4898.45
4898.33
4898.26
4898.22
4898.23
4898.27
4898.35
4898.46
4898.6
4898.76
4898.94
4899.13
4899.33
4899.54
4899.72
4899.86
4900.01
4900.11
4900.15
4900.53
4900.48
4900.36
4900.19
4899.97
4899.73
4899.47
4899.21
4898.96
4898.72
4898.49
4898.3
4898.16
4898.07
4898.03
4898.04
4898.09
4898.18
4898.32
4898.5
4898.72
4898.96
4899.22
4899.48
4899.76
4899.98
4900.18
4900.37
4900.49
4900.54
4901.03
4900.97
4900.82
4900.59
4900.31
4900
4899.67
4899.33
4899
4898.67
4898.38
4898.14
4897.96
4897.84
4897.78
4897.78
4897.84
4897.96
4898.15
4898.39
4898.68
4899
4899.34
4899.69
4900.04
4900.32
4900.61
4900.83
4900.98
4901.03
4901.69
4901.61
4901.4
4901.12
4900.77
4900.37
4899.95
4899.5
4899.06
4898.63
4898.26
4897.95
4897.71
4897.55
4897.46
4897.45
4897.54
4897.7
4897.95
4898.28
4898.66
4899.06
4899.49
4899.96
4900.38
4900.76
4901.14
4901.41
4901.61
4901.67
4902.54
4902.42
4902.17
4901.81
4901.38
4900.88
4900.33
4899.75
4899.17
4898.63
4898.15
4897.75
4897.43
4897.21
4897.09
4897.1
4897.22
4897.44
4897.76
4898.18
4898.65
4899.17
4899.74
4900.34
4900.86
4901.38
4901.84
4902.19
4902.41
4902.53
4903.62
4903.47
4903.17
4902.74
4902.2
4901.56
4900.85
4900.12
4899.39
4898.7
4898.08
4897.55
4897.13
4896.84
4896.7
4896.72
4896.87
4897.14
4897.55
4898.08
4898.69
4899.37
4900.12
4900.86
4901.52
4902.2
4902.76
4903.19
4903.45
4903.64
4905.01
4904.82
4904.46
4903.94
4903.27
4902.47
4901.59
4900.67
4899.76
4898.88
4898.08
4897.39
4896.85
4896.48
4896.3
4896.31
4896.48
4896.84
4897.38
4898.07
4898.85
4899.75
4900.7
4901.59
4902.45
4903.28
4903.95
4904.48
4904.82
4905.02
4906.77
4906.55
4906.13
4905.5
4904.69
4903.73
4902.66
4901.52
4900.37
4899.25
4898.23
4897.35
4896.66
4896.18
4895.93
4895.92
4896.16
4896.64
4897.35
4898.23
4899.24
4900.37
4901.55
4902.64
4903.72
4904.71
4905.51
4906.11
4906.56
4906.78
4908.96
4908.71
4908.23
4907.5
4906.55
4905.42
4904.14
4902.76
4901.34
4899.95
4898.66
4897.53
4896.62
4895.99
4895.67
4895.67
4895.99
4896.62
4897.52
4898.65
4899.95
4901.34
4902.76
4904.13
4905.42
4906.55
4907.51
4908.2
4908.7
4908.96
4911.63
4911.36
4910.83
4910.03
4908.98
4907.7
4906.21
4904.57
4902.84
4901.11
4899.46
4898.01
4896.82
4895.99
4895.56
4895.56
4895.98
4896.81
4898
4899.46
4901.1
4902.84
4904.58
4906.2
4907.7
4908.98
4910.03
4910.81
4911.35
4911.63
4914.87
4914.6
4914.06
4913.26
4912.16
4910.77
4909.11
4907.2
4905.08
4902.86
4900.66
4898.64
4896.93
4895.69
4895.04
4895.04
4895.69
4896.93
4898.64
4900.66
4902.86
4905.08
4907.2
4909.1
4910.77
4912.15
4913.25
4914.05
4914.59
4914.87
4848.44
4843.34
4832.31
4815.58
4791.09
4759.31
4717.81
4668.53
4611.13
4549.11
4484.66
4422.62
4368.35
4327.87
4306.01
4306.05
4327.8
4368.49
4422.82
4484.72
4549.02
4610.95
4668.57
4717.79
4759.04
4791.27
4815.75
4832.26
4843.46
4848.2
1121.98
1117.95
1109.95
1097.77
1081.6
1060.43
1034.05
1000.69
960.846
914.091
864.948
817.728
777.069
747.455
732.178
732.173
747.436
777.056
817.697
864.897
914.003
960.787
1000.68
1034.07
1060.45
1081.52
1097.7
1109.93
1117.93
1122.05
-0.011008
-0.0103637
-0.00673639
-0.00964975
-0.0120903
-0.0116787
-0.0109242
-0.00960248
-0.00799252
-0.0053656
-0.00270485
8.58569e-05
0.0020871
0.00327386
0.00403033
0.00400356
0.00320603
0.00198112
-7.47633e-05
-0.00294997
-0.005755
-0.00857927
-0.0103788
-0.0119327
-0.0128874
-0.0133943
-0.0108934
-0.00785139
-0.0112267
-0.0115907
-0.00800951
-0.00752261
-0.00162791
0.00131775
0.00327811
0.00687467
0.0341343
0.0514498
0.0294161
0.0842754
0.107313
0.187999
0.259872
0.264676
0.204592
0.20512
0.266082
0.261279
0.188443
0.10619
0.0832466
0.0286773
0.0512036
0.0331541
0.00596362
0.001743
-3.85102e-05
-0.00262421
-0.00829593
-0.00852682
-0.00565486
-0.0053265
-0.00472503
-0.00358552
-0.00217531
-8.77451e-05
0.00430627
0.0142701
0.0166364
0.064494
0.2049
0.276185
0.279751
0.282847
0.252558
0.252488
0.28437
0.281253
0.27765
0.206979
0.0650556
0.0162915
0.0137473
0.00338541
-0.00126208
-0.00347623
-0.00480233
-0.00570597
-0.00603922
-0.00620081
-0.00270643
-0.00235727
-0.0017406
-0.000826719
0.000388308
0.00190582
0.00370489
0.00556756
0.00770383
0.0138768
0.0505378
0.0884221
0.0886308
0.107647
0.109801
0.109513
0.107487
0.0887715
0.089174
0.0512309
0.0139137
0.00719572
0.00478517
0.00268514
0.000687073
-0.000877804
-0.00196315
-0.00260075
-0.00293957
-0.00315216
-0.000340416
-6.85955e-05
0.000529326
0.00140155
0.00250844
0.00377956
0.00515472
0.00678943
0.00872287
0.0104096
0.0115824
0.01247
0.0128981
0.012783
0.013876
0.0137872
0.0127113
0.0127732
0.0122832
0.0113078
0.0100119
0.00815803
0.00600159
0.00413561
0.00260064
0.00130376
0.00036127
-0.000213152
-0.000522205
-0.000668857
0.00113193
0.0013998
0.00194239
0.00272792
0.00371604
0.00485359
0.00610594
0.00748797
0.00896529
0.0104372
0.0117854
0.0129679
0.0140068
0.0145526
0.0146613
0.0146236
0.0144461
0.0138427
0.0127434
0.0114725
0.00999544
0.00835083
0.00666237
0.00507883
0.00370947
0.00260615
0.00182477
0.00135015
0.00108753
0.00092857
0.00200005
0.00222494
0.00270808
0.00339988
0.00425178
0.0052141
0.00625064
0.00734034
0.00844782
0.00952499
0.0105322
0.0114704
0.0123584
0.0130017
0.0134344
0.0133918
0.0128828
0.0121797
0.0112285
0.010203
0.00907057
0.00782666
0.00652692
0.00526832
0.00415543
0.00326874
0.00264689
0.00226309
0.00203838
0.00189261
0.00236392
0.00254719
0.00297681
0.00358542
0.00431656
0.00511555
0.00593889
0.00675591
0.00753765
0.00826227
0.00892065
0.00951868
0.0100559
0.0104891
0.0108018
0.010768
0.010391
0.00989603
0.00928295
0.00857748
0.00777183
0.00686752
0.00590704
0.00496499
0.00412819
0.00346124
0.00298422
0.00267225
0.00247171
0.00234135
0.00236523
0.00251283
0.00288705
0.0034138
0.00403356
0.00468572
0.00532069
0.00590796
0.00642908
0.00687679
0.0072573
0.00758213
0.00785889
0.00807699
0.00821269
0.00817911
0.00797422
0.00768035
0.00730634
0.00685258
0.00631514
0.00570387
0.00505166
0.0044104
0.00383376
0.00335564
0.00298586
0.0027146
0.00252222
0.00240393
0.00213823
0.00225061
0.002574
0.00303161
0.00355569
0.00407993
0.00455483
0.0049526
0.0052669
0.00550507
0.00568107
0.00581128
0.00590921
0.00597643
0.00600288
0.00596216
0.00585099
0.00569096
0.00548376
0.00522628
0.00491728
0.00456422
0.00418194
0.00379247
0.00341556
0.00306609
0.0027574
0.00250239
0.00231402
0.00221119
0.00179404
0.00187598
0.00216377
0.00256862
0.00301571
0.00343439
0.00377903
0.00402757
0.0041842
0.00426675
0.00429636
0.00429486
0.00427985
0.00425937
0.00423311
0.00419263
0.00413462
0.00406282
0.00397626
0.00387063
0.00374106
0.00358453
0.00339719
0.00317764
0.00292688
0.00265469
0.00238316
0.00214533
0.00197323
0.00189332
0.00141012
0.00147323
0.00173702
0.00209805
0.00248088
0.00282153
0.0030761
0.00322811
0.00328658
0.00327238
0.00321182
0.00313085
0.00304919
0.00297861
0.00292381
0.00288268
0.00285345
0.00283615
0.00282759
0.00282103
0.00280657
0.00277129
0.00269996
0.00257997
0.00240668
0.00219122
0.0019618
0.00175822
0.0016185
0.00156579
0.00106797
0.00112272
0.00134897
0.00165056
0.00196349
0.00223502
0.00242786
0.0025285
0.00254242
0.00248699
0.00238868
0.00227309
0.00216067
0.00206585
0.00199563
0.00195251
0.00193702
0.00194784
0.00198006
0.00202433
0.00206774
0.00209346
0.00208326
0.00202325
0.00190952
0.00175353
0.00158176
0.00142963
0.00133084
0.00130372
0.000845081
0.000893713
0.0010596
0.00127531
0.00149951
0.00169329
0.00183109
0.00189933
0.00189741
0.0018377
0.00174037
0.00162637
0.00151458
0.00141917
0.00134898
0.00130894
0.00130074
0.00132254
0.00136883
0.00143061
0.00149482
0.00154573
0.0015682
0.00155134
0.00149249
0.00140015
0.00129348
0.00119856
0.00114042
0.00113162
0.000768625
0.000805362
0.000901016
0.00102265
0.00114868
0.00126005
0.00133953
0.00137523
0.00136484
0.00131474
0.00123623
0.00114387
0.00105246
0.000973714
0.000915945
0.000884472
0.000881209
0.000904812
0.000951029
0.00101263
0.00107931
0.0011393
0.00118171
0.00119864
0.00118762
0.00115292
0.00110573
0.00106183
0.0010368
0.00103848
0.000801762
0.00082414
0.000858532
0.000900406
0.000942707
0.000979847
0.00100229
0.0010044
0.000983765
0.000941125
0.000881713
0.000814669
0.00074933
0.00069324
0.000652562
0.00063177
0.000632711
0.000654895
0.000695888
0.000750988
0.000813453
0.00087543
0.000929616
0.000970363
0.000994697
0.00100321
0.00100031
0.000993492
0.000991254
0.000997928
0.000884043
0.000892944
0.000887141
0.000875308
0.000861148
0.00084379
0.000822563
0.000796512
0.000763124
0.000721732
0.000675121
0.000627686
0.000583563
0.00054682
0.000521463
0.00051039
0.000514915
0.00053521
0.000570335
0.000617795
0.000673809
0.000733737
0.000792835
0.000846686
0.000891662
0.00092572
0.0009492
0.000964715
0.000975999
0.00098464
0.000965261
0.000963033
0.000937288
0.000899467
0.000855486
0.000808477
0.000762437
0.000717653
0.000673545
0.000630851
0.000590921
0.00055487
0.000524027
0.000500427
0.000485951
0.000481808
0.000488696
0.000507063
0.000536853
0.000577079
0.000625977
0.000680963
0.000738789
0.000795705
0.00084792
0.000892461
0.000927839
0.000953929
0.000971475
0.000980247
0.00101723
0.00101074
0.000978785
0.00093415
0.000881133
0.00082542
0.000770467
0.00071785
0.000669566
0.000627122
0.000590879
0.000560798
0.000537318
0.000521197
0.000512705
0.000511981
0.000519372
0.000535344
0.00056012
0.000593404
0.000634475
0.000681922
0.000733486
0.000786124
0.000836471
0.000881533
0.000919069
0.000947532
0.000966251
0.000974161
0.00103851
0.00103029
0.00100039
0.000958795
0.000909513
0.000856999
0.000803837
0.000753144
0.00070761
0.000668383
0.000635687
0.000609688
0.00059054
0.000578157
0.000572111
0.000572197
0.000578547
0.000591411
0.00061095
0.000637135
0.000669776
0.000708135
0.00075067
0.000795046
0.000838513
0.000878395
0.000912352
0.000938496
0.000955641
0.000962404
0.00103466
0.00102545
0.00100118
0.000967043
0.000926679
0.000882707
0.000837798
0.000794951
0.000756056
0.00072213
0.000693966
0.000672058
0.000656242
0.000646025
0.000640862
0.000640472
0.000644797
0.000653917
0.000668001
0.000687176
0.000711549
0.000740723
0.000773578
0.000808336
0.000842882
0.000875096
0.000903003
0.000924854
0.000939359
0.000944991
0.00101206
0.00100504
0.000986385
0.000960572
0.00092994
0.000896178
0.000861509
0.00082786
0.000796663
0.000769266
0.000746728
0.00072934
0.000716643
0.000708118
0.000703329
0.000702003
0.000703993
0.000709362
0.00071838
0.000731295
0.000748327
0.000769194
0.000793009
0.000818471
0.000844115
0.000868451
0.000889962
0.000907128
0.000918725
0.000923261
0.000981951
0.000976636
0.000962569
0.000943794
0.000921481
0.000896848
0.000871324
0.000846137
0.000822644
0.000802164
0.000785411
0.000772333
0.00076249
0.000755543
0.000751183
0.000749114
0.000749165
0.000751441
0.000756259
0.000763965
0.000774802
0.00078857
0.00080464
0.000822158
0.000840188
0.000857697
0.000873493
0.000886302
0.000895092
0.000898601
0.000948556
0.000943505
0.00093341
0.000920138
0.000904369
0.000887032
0.000868946
0.000850986
0.000834282
0.000819751
0.000807745
0.000798189
0.000790851
0.000785458
0.000781721
0.000779301
0.000778038
0.00077806
0.000779676
0.000783325
0.000789277
0.000797453
0.000807487
0.000818869
0.00083098
0.000843046
0.000854123
0.000863225
0.000869599
0.000872234
0.000912301
0.000908685
0.00090172
0.000892473
0.000881602
0.000869728
0.000857261
0.000844835
0.000833244
0.000823067
0.000814565
0.000807784
0.000802597
0.000798657
0.000795583
0.00079308
0.000791049
0.000789617
0.000789129
0.00079002
0.000792547
0.000796737
0.00080243
0.000809342
0.000817059
0.000824996
0.000832445
0.000838697
0.000843222
0.000845206
0.000876679
0.0008745
0.000869435
0.000862875
0.000855363
0.000847154
0.00083847
0.000829799
0.000821686
0.000814549
0.000808644
0.000804028
0.000800514
0.000797704
0.000795189
0.000792741
0.000790351
0.000788196
0.0007866
0.000785887
0.000786273
0.00078785
0.000790617
0.000794471
0.000799153
0.000804236
0.000809179
0.000813458
0.000816683
0.000818193
0.000842633
0.000840648
0.000836852
0.000832157
0.000826799
0.000820852
0.000814548
0.000808285
0.000802456
0.000797388
0.000793284
0.000790123
0.000787648
0.000785486
0.000783319
0.000781013
0.000778618
0.000776308
0.000774312
0.000772846
0.000772086
0.000772189
0.000773272
0.000775348
0.000778243
0.000781602
0.00078498
0.000787968
0.000790285
0.000791422
0.000808515
0.000806784
0.000804046
0.000800616
0.000796549
0.000791958
0.000787121
0.000782345
0.000777913
0.000774077
0.000770972
0.000768532
0.000766515
0.000764638
0.000762707
0.000760659
0.000758543
0.000756466
0.000754559
0.000752964
0.00075186
0.000751449
0.000751896
0.000753227
0.000755269
0.000757693
0.000760134
0.000762294
0.000763996
0.00076486
0.000774693
0.000773686
0.000771623
0.000768848
0.00076542
0.000761536
0.000757466
0.000753443
0.000749687
0.000746392
0.000743651
0.000741409
0.000739505
0.000737772
0.000736094
0.000734423
0.000732763
0.000731151
0.000729654
0.000728386
0.000727532
0.000727295
0.000727799
0.000729014
0.000730744
0.000732707
0.000734634
0.000736338
0.000737711
0.000738436
0.000742171
0.000741521
0.000739728
0.000737182
0.000733977
0.000730337
0.000726502
0.000722693
0.000719116
0.000715926
0.000713189
0.000710889
0.000708958
0.000707317
0.000705884
0.000704596
0.000703417
0.000702345
0.000701427
0.000700773
0.000700536
0.000700853
0.000701761
0.000703171
0.000704895
0.000706726
0.000708493
0.000710072
0.000711362
0.00071205
0.000710208
0.00070953
0.000707832
0.000705353
0.000702195
0.000698561
0.000694692
0.000690839
0.000687212
0.000683938
0.00068107
0.000678622
0.000676591
0.000674954
0.000673661
0.00067265
0.000671878
0.000671347
0.000671096
0.00067121
0.00067177
0.000672806
0.000674267
0.000676032
0.000677959
0.000679918
0.000681796
0.000683473
0.000684805
0.000685486
0.000677916
0.000677311
0.000675662
0.000673197
0.000670016
0.000666298
0.000662311
0.000658339
0.000654588
0.000651164
0.000648115
0.000645477
0.000643281
0.000641548
0.000640277
0.000639447
0.000639044
0.000639075
0.000639558
0.000640509
0.000641907
0.000643679
0.000645716
0.000647908
0.000650163
0.000652401
0.000654518
0.000656363
0.000657748
0.000658397
0.00064545
0.000645014
0.000643376
0.000640874
0.000637603
0.000633757
0.000629632
0.000625509
0.000621584
0.000617961
0.000614695
0.000611838
0.000609452
0.000607596
0.000606326
0.000605681
0.000605676
0.0006063
0.000607516
0.000609252
0.000611391
0.000613795
0.000616341
0.000618947
0.000621557
0.0006241
0.000626454
0.000628433
0.000629832
0.000630424
0.000612925
0.000612544
0.000610893
0.000608312
0.000604926
0.000600967
0.000596724
0.000592453
0.000588338
0.000584496
0.000581006
0.00057795
0.000575415
0.0005735
0.000572303
0.0005719
0.000572304
0.00057347
0.000575294
0.000577632
0.000580316
0.00058319
0.000586147
0.000589119
0.000592051
0.000594855
0.000597378
0.00059942
0.000600787
0.000601309
0.000579821
0.000579411
0.000577731
0.000575081
0.000571643
0.000567664
0.000563396
0.00055906
0.000554822
0.000550818
0.000547166
0.000543976
0.000541373
0.00053949
0.000538436
0.000538281
0.000539021
0.000540573
0.000542802
0.000545522
0.000548559
0.000551776
0.000555071
0.000558366
0.000561574
0.000564566
0.000567171
0.000569198
0.00057049
0.000570933
0.000545656
0.000545242
0.000543542
0.000540885
0.0005375
0.000533624
0.00052946
0.000525183
0.000520944
0.000516894
0.000513177
0.000509945
0.000507353
0.000505549
0.000504641
0.000504672
0.000505617
0.000507387
0.000509829
0.000512767
0.000516046
0.000519533
0.000523117
0.00052668
0.000530086
0.000533172
0.000535763
0.000537701
0.000538876
0.000539232
0.0005104
0.000510015
0.000508343
0.000505759
0.000502513
0.000498819
0.000494842
0.000490716
0.00048658
0.000482589
0.000478914
0.000475731
0.00047322
0.000471521
0.000470729
0.000470868
0.0004719
0.000473744
0.000476269
0.000479329
0.000482775
0.000486468
0.000490261
0.000493991
0.000497477
0.000500544
0.000503034
0.000504829
0.00050587
0.000506142
0.000474112
0.000473746
0.000472158
0.00046971
0.000466653
0.000463175
0.000459409
0.000455472
0.000451504
0.00044766
0.000444125
0.000441085
0.00043871
0.000437135
0.000436441
0.000436637
0.000437687
0.000439528
0.000442063
0.000445164
0.000448686
0.000452467
0.000456329
0.00046008
0.000463521
0.000466481
0.000468828
0.000470484
0.000471418
0.000471634
0.000436613
0.000436247
0.000434772
0.000432512
0.000429684
0.000426438
0.000422895
0.000419184
0.000415448
0.000411842
0.000408548
0.00040574
0.000403575
0.000402168
0.000401575
0.000401809
0.000402845
0.000404631
0.000407096
0.000410136
0.000413599
0.000417311
0.000421085
0.000424722
0.000428033
0.000430858
0.000433085
0.000434655
0.000435543
0.000435751
0.000397738
0.000397376
0.000396033
0.000394003
0.00039144
0.000388462
0.000385188
0.000381762
0.00037833
0.000375049
0.000372084
0.00036959
0.000367699
0.000366494
0.000366018
0.000366282
0.000367272
0.000368953
0.000371265
0.00037412
0.000377391
0.000380904
0.000384475
0.000387918
0.000391063
0.000393765
0.000395922
0.000397465
0.000398358
0.000398592
0.000357696
0.000357377
0.000356195
0.000354426
0.000352156
0.000349481
0.000346533
0.000343452
0.000340385
0.000337488
0.000334905
0.000332768
0.000331166
0.000330157
0.00032978
0.00033005
0.00033096
0.000332486
0.000334583
0.000337175
0.000340158
0.000343388
0.000346695
0.000349911
0.00035288
0.00035547
0.000357571
0.0003591
0.000360004
0.00036026
0.000317004
0.00031676
0.000315758
0.000314243
0.000312271
0.000309931
0.000307346
0.000304649
0.000301981
0.000299479
0.000297266
0.000295441
0.000294079
0.000293226
0.000292914
0.00029316
0.000293964
0.000295313
0.000297173
0.000299484
0.000302153
0.000305062
0.000308067
0.000311022
0.000313785
0.000316228
0.000318235
0.000319712
0.000320594
0.000320853
0.00027603
0.00027587
0.000275034
0.00027375
0.000272072
0.000270071
0.000267854
0.000265536
0.000263247
0.00026111
0.00025923
0.000257683
0.00025652
0.000255781
0.000255501
0.000255699
0.000256389
0.000257563
0.000259193
0.000261226
0.000263581
0.000266156
0.000268829
0.000271476
0.000273972
0.000276193
0.000278029
0.000279388
0.000280201
0.000280435
0.000234834
0.000234744
0.00023405
0.000232978
0.000231575
0.000229892
0.000228015
0.000226048
0.000224105
0.000222291
0.000220692
0.000219377
0.000218388
0.000217758
0.000217526
0.000217705
0.000218305
0.000219319
0.000220738
0.000222503
0.00022454
0.000226762
0.000229068
0.000231354
0.000233511
0.000235434
0.000237023
0.000238199
0.0002389
0.000239091
0.000193309
0.000193267
0.000192706
0.000191831
0.00019067
0.000189265
0.000187689
0.000186042
0.000184423
0.000182919
0.0001816
0.000180526
0.000179727
0.000179207
0.000179007
0.00017917
0.000179706
0.00018061
0.000181832
0.000183325
0.000185029
0.000186873
0.000188779
0.000190658
0.000192423
0.000193988
0.000195279
0.000196231
0.000196796
0.000196936
0.000151359
0.000151346
0.000150926
0.000150233
0.000149281
0.000148116
0.000146817
0.00014548
0.000144187
0.000143005
0.000141981
0.00014115
0.000140531
0.000140152
0.00014003
0.000140206
0.000140679
0.000141438
0.000142438
0.000143638
0.000144988
0.000146434
0.000147914
0.000149362
0.00015071
0.000151894
0.000152865
0.000153579
0.000153998
0.000154082
0.000108937
0.000108951
0.000108656
0.00010812
0.000107363
0.00010644
0.000105434
0.000104427
0.000103479
0.000102632
0.000101908
0.000101314
0.000100879
0.000100643
0.000100616
0.000100789
0.000101167
0.000101743
0.000102487
0.000103366
0.000104343
0.000105378
0.000106424
0.000107437
0.000108371
0.000109184
0.000109846
0.000110326
0.000110599
0.000110632
6.59907e-05
6.60041e-05
6.58197e-05
6.54534e-05
6.49288e-05
6.42984e-05
6.36331e-05
6.29948e-05
6.24093e-05
6.18985e-05
6.14685e-05
6.11265e-05
6.08869e-05
6.07666e-05
6.07719e-05
6.09014e-05
6.11497e-05
6.15072e-05
6.19621e-05
6.24974e-05
6.30878e-05
6.37071e-05
6.43275e-05
6.49228e-05
6.54621e-05
6.59204e-05
6.62976e-05
6.6569e-05
6.67146e-05
6.671e-05
2.24086e-05
2.23893e-05
2.23218e-05
2.21776e-05
2.19733e-05
2.17321e-05
2.14851e-05
2.12572e-05
2.10488e-05
2.0869e-05
2.07188e-05
2.06019e-05
2.05233e-05
2.04882e-05
2.04954e-05
2.05429e-05
2.063e-05
2.0754e-05
2.09124e-05
2.10979e-05
2.13011e-05
2.15124e-05
2.1723e-05
2.19245e-05
2.21037e-05
2.22499e-05
2.23708e-05
2.24562e-05
2.24953e-05
2.2478e-05
4898.95
4898.95