/*--------------------------------*- C++ -*----------------------------------*\
| =========                 |                                                 |
| \\      /  F ield         | OpenFOAM: The Open Source CFD Toolbox           |
|  \\    /   O peration     | Version:  2312                                  |
|   \\  /    A nd           | Website:  www.openfoam.com                      |
|    \\/     M anipulation  |                                                 |
\*---------------------------------------------------------------------------*/
FoamFile
{
    version     2.0;
    format      ascii;
    arch        "LSB;label=32;scalar=64";
    class       surfaceScalarField;
    location    "0.357759";
    object      phi;
}
// * * * * * * * * * * * * * * * * * * * * * * * * * * * * * * * * * * * * * //

dimensions      [0 3 -1 0 0 0 0];

oriented        oriented;

internalField   nonuniform List<scalar> 
263100
(
1.54439e-10
-3.08876e-10
1.54439e-10
-1.09254e-10
2.19017e-10
3.3801e-11
-2.37016e-10
9.39544e-11
2.48867e-11
-2.96966e-10
5.04096e-11
7.52177e-13
-3.1404e-10
1.16439e-11
-3.34596e-12
-2.84714e-10
-3.79891e-11
-1.24394e-13
-2.14418e-10
-8.64516e-11
7.37101e-12
-1.24769e-10
-1.14385e-10
1.59252e-11
-4.71138e-11
-1.09406e-10
2.29369e-11
4.44943e-13
-7.48275e-11
1.84272e-11
9.45073e-12
-2.01016e-11
2.18855e-12
2.57132e-12
3.47942e-11
-3.68703e-11
1.48094e-12
7.54815e-11
-8.33966e-11
2.93514e-11
8.77016e-11
-1.24633e-10
1.03657e-10
6.65563e-11
-1.49945e-10
2.16168e-10
2.82497e-11
-1.49796e-10
3.35223e-10
-1.42435e-11
-1.13709e-10
4.14015e-10
-3.82894e-11
-4.91795e-11
4.16107e-10
-2.66806e-11
1.6203e-11
3.07651e-10
1.55738e-11
8.48377e-11
9.15495e-11
7.45996e-11
1.3383e-10
-2.14442e-10
1.47667e-10
1.51039e-10
-5.81653e-10
2.16561e-10
1.43751e-10
-9.37948e-10
2.42719e-10
1.07051e-10
-1.18399e-09
1.76943e-10
6.2927e-11
-1.2299e-09
6.75134e-12
3.32866e-11
-1.05783e-09
-1.92467e-10
1.48037e-11
-6.81409e-10
-4.30222e-10
4.83964e-11
-1.44259e-10
-6.47738e-10
1.05319e-10
-7.186e-10
5.69133e-10
-5.24228e-11
-2.14977e-10
-5.24228e-11
-5.50275e-11
2.33993e-10
-3.00786e-11
-4.18502e-11
8.44385e-11
-1.97021e-11
-3.38591e-11
2.87272e-11
-2.268e-12
-1.89471e-11
-3.35428e-11
1.43222e-11
-5.47091e-12
-9.47809e-11
2.73361e-11
1.37736e-11
-1.55696e-10
3.40227e-11
3.61745e-11
-1.85306e-10
3.25146e-11
5.72022e-11
-1.70821e-10
2.43198e-11
7.8815e-11
-1.25052e-10
1.24806e-11
1.07559e-10
-6.57468e-11
6.7913e-13
1.39393e-10
-4.96085e-12
-8.40147e-12
1.74111e-10
3.34106e-11
-9.05381e-12
2.0589e-10
4.043e-11
-9.36125e-13
2.2455e-10
1.96744e-11
1.188e-11
2.13315e-10
-1.16183e-11
3.49885e-11
1.65436e-10
-2.67353e-11
4.46203e-11
9.56335e-11
-1.13949e-11
2.76445e-11
4.1093e-12
4.27638e-11
7.39376e-12
-1.06836e-10
1.36957e-10
-2.4485e-11
-2.07196e-10
2.21002e-10
-5.94154e-11
-2.97849e-10
2.91047e-10
-6.54201e-11
-3.41695e-10
3.00398e-10
-5.20223e-11
-3.20125e-10
2.25032e-10
-1.52914e-11
-2.49171e-10
4.58768e-11
4.92587e-11
-1.35184e-10
-2.49733e-10
1.3211e-10
4.85367e-11
-6.002e-10
2.13982e-10
1.89295e-10
-8.39175e-10
2.58401e-10
1.08029e-10
-8.92826e-10
3.16665e-10
-9.58594e-10
3.39924e-10
-1.00717e-11
-2.037e-10
-1.00717e-11
1.34816e-10
4.52699e-11
2.8227e-11
2.31677e-10
-7.0403e-11
4.38751e-11
2.84397e-10
-1.00393e-10
6.23636e-11
2.95504e-10
-1.35762e-10
7.70992e-11
2.77125e-10
-1.71217e-10
8.07975e-11
2.36977e-10
-2.00255e-10
7.06967e-11
1.95967e-10
-2.09623e-10
5.12971e-11
1.7486e-10
-1.94909e-10
3.11244e-11
1.84029e-10
-1.63394e-10
1.50475e-11
2.22179e-10
-1.285e-10
1.03801e-11
2.78197e-10
-9.39845e-11
1.86843e-11
3.20747e-10
-6.64245e-11
4.29092e-11
3.14163e-10
-4.53065e-11
7.79554e-11
2.4048e-10
-2.97609e-11
1.08848e-10
1.0207e-10
1.21919e-15
1.12713e-10
-7.77782e-11
4.80129e-11
9.13109e-11
-2.65155e-10
1.13334e-10
4.92369e-11
-4.09077e-10
1.88454e-10
-1.47283e-11
-4.57719e-10
2.56079e-10
-8.29306e-11
-3.99035e-10
2.83204e-10
-1.32794e-10
-2.29929e-10
2.65035e-10
-1.54447e-10
2.51642e-11
1.76243e-10
-1.41756e-10
3.07632e-10
1.21685e-11
-7.99294e-11
5.598e-10
-2.11582e-10
-4.60953e-12
7.09242e-10
-5.02715e-10
9.39859e-11
6.99695e-10
-7.72352e-10
1.72412e-10
5.96274e-10
-9.13808e-10
1.68971e-10
2.33381e-10
-6.35393e-10
9.65226e-11
-5.98754e-10
-1.33968e-10
5.95133e-11
-3.3123e-10
5.95133e-11
2.94708e-10
-3.1121e-10
1.06397e-10
4.40818e-10
-3.55511e-10
1.25533e-10
5.28179e-10
-3.44349e-10
1.43211e-10
5.46896e-10
-3.20092e-10
1.52276e-10
5.10862e-10
-2.93774e-10
1.45259e-10
4.41311e-10
-2.68456e-10
1.2444e-10
3.64665e-10
-2.42213e-10
9.59051e-11
3.08805e-10
-2.20673e-10
6.82341e-11
2.88553e-10
-2.06186e-10
4.95796e-11
2.9822e-10
-1.94696e-10
4.29725e-11
3.18759e-10
-1.82796e-10
5.46398e-11
3.10623e-10
-1.53465e-10
8.15195e-11
2.45758e-10
-9.99969e-11
1.05936e-10
1.21099e-10
-3.04182e-11
1.11798e-10
-6.39495e-11
7.01296e-11
1.01567e-10
-2.74868e-10
1.75804e-10
7.00074e-11
-4.58548e-10
2.6154e-10
2.26621e-11
-5.5998e-10
3.08442e-10
-3.09865e-11
-5.38792e-10
2.93406e-10
-7.05043e-11
-3.8171e-10
2.18647e-10
-1.04036e-10
-9.83621e-11
8.49744e-11
-1.14321e-10
2.50585e-10
-8.91015e-11
-9.41878e-11
5.79555e-10
-2.70431e-10
-5.65638e-11
8.13755e-10
-4.34005e-10
-2.16483e-11
8.52032e-10
-5.54805e-10
4.19976e-12
6.68866e-10
-6.07375e-10
8.77944e-12
3.92071e-10
-6.2104e-10
-2.5209e-11
8.22587e-11
-2.50321e-10
-8.4316e-11
-2.19295e-10
-3.04693e-10
1.40768e-10
-6.20887e-10
1.40768e-10
4.20349e-10
-7.97312e-10
1.92568e-10
5.96037e-10
-7.55359e-10
2.11549e-10
7.01031e-10
-6.80548e-10
2.18674e-10
7.37223e-10
-5.77436e-10
2.08695e-10
7.1193e-10
-4.67135e-10
1.86192e-10
6.40738e-10
-3.66403e-10
1.56668e-10
5.49456e-10
-2.87966e-10
1.24519e-10
4.62785e-10
-2.44784e-10
9.81723e-11
3.89603e-10
-2.28198e-10
8.2484e-11
3.25981e-10
-2.2268e-10
7.88172e-11
2.54452e-10
-2.07304e-10
8.31941e-11
1.66464e-10
-1.62616e-10
8.42919e-11
5.6057e-11
-8.35375e-11
8.11545e-11
-8.74796e-11
3.48085e-11
6.56178e-11
-2.45931e-10
1.735e-10
4.25347e-11
-3.84076e-10
2.80171e-10
2.14351e-11
-4.74054e-10
3.29682e-10
9.76368e-12
-4.86507e-10
3.01554e-10
7.61058e-12
-3.99918e-10
1.8949e-10
5.99105e-12
-2.19827e-10
1.78862e-11
9.7483e-12
2.43679e-11
-1.86095e-10
1.63503e-11
2.77298e-10
-3.83511e-10
3.13067e-11
4.76249e-10
-5.06827e-10
2.75668e-11
5.65306e-10
-5.22658e-10
-1.00375e-11
5.01438e-10
-4.37833e-10
-6.25272e-11
2.84449e-10
-2.62926e-10
-1.36694e-10
-2.10369e-11
-1.13766e-10
-2.10858e-10
-1.97709e-10
2.03443e-10
-2.8599e-10
2.45201e-13
-4.24576e-10
2.1036e-10
-1.04919e-09
2.1036e-10
4.77763e-10
-1.32592e-09
2.48458e-10
6.61938e-10
-1.20072e-09
2.4968e-10
7.89705e-10
-1.05244e-09
2.32687e-10
8.58966e-10
-8.63808e-10
2.05738e-10
8.69576e-10
-6.59708e-10
1.7056e-10
8.33316e-10
-4.78491e-10
1.36879e-10
7.57055e-10
-3.37573e-10
1.14315e-10
6.46186e-10
-2.48527e-10
1.02941e-10
5.06244e-10
-1.97883e-10
9.78383e-11
3.41167e-10
-1.6277e-10
9.33167e-11
1.61282e-10
-1.25593e-10
8.62908e-11
-1.18014e-11
-7.48375e-11
7.34288e-11
-1.67754e-10
1.00797e-11
5.05194e-11
-2.8955e-10
1.1208e-10
3.28133e-11
-3.6296e-10
2.08871e-10
2.6476e-11
-3.91566e-10
2.6215e-10
3.52658e-11
-3.6621e-10
2.32796e-10
6.04366e-11
-2.94766e-10
1.30852e-10
8.84854e-11
-1.85313e-10
-5.86682e-11
1.28279e-10
-7.1858e-11
-2.72835e-10
1.67179e-10
2.06575e-11
-4.88428e-10
2.00038e-10
6.74869e-11
-6.25704e-10
1.85851e-10
4.877e-11
-6.27264e-10
1.29875e-10
-2.06624e-11
-4.94062e-10
3.17686e-11
-1.43029e-10
-2.52261e-10
-7.20784e-11
-2.63149e-10
3.60303e-11
-1.87535e-10
-3.79062e-10
2.90954e-10
-2.97373e-10
-3.4385e-10
5.03674e-10
-3.43893e-10
-1.81175e-12
-3.48787e-10
2.18832e-10
-1.49371e-09
2.18832e-10
4.55704e-10
-1.80055e-09
2.26442e-10
6.5021e-10
-1.60551e-09
2.00089e-10
8.14532e-10
-1.39007e-09
1.63136e-10
9.43131e-10
-1.12626e-09
1.23683e-10
1.02992e-09
-8.52049e-10
9.53158e-11
1.05981e-09
-6.00485e-10
8.17451e-11
1.01708e-09
-3.88975e-10
8.36578e-11
8.91205e-10
-2.3177e-10
9.85297e-11
6.86263e-10
-1.18881e-10
1.15239e-10
4.24248e-10
-3.33646e-11
1.21873e-10
1.44051e-10
3.15388e-11
1.12318e-10
-1.14916e-10
8.15751e-11
9.18265e-11
-3.03984e-10
1.14995e-10
7.3494e-11
-4.0463e-10
1.31914e-10
7.02745e-11
-4.18889e-10
1.25003e-10
8.77603e-11
-3.63068e-10
7.69791e-11
1.19201e-10
-2.68199e-10
-3.61508e-11
1.64186e-10
-1.63051e-10
-2.07059e-10
2.23148e-10
-1.05309e-10
-4.07414e-10
2.81656e-10
-1.08532e-10
-6.14659e-10
3.35942e-10
-1.81027e-10
-7.60088e-10
3.35273e-10
-3.17657e-10
-7.8618e-10
2.88439e-10
-4.83986e-10
-6.75059e-10
2.05672e-10
-6.4486e-10
-4.42574e-10
1.01136e-10
-7.38122e-10
-1.57474e-10
-9.60539e-12
-7.2175e-10
1.18366e-10
-1.06675e-10
-6.03183e-10
3.0886e-10
-1.44386e-10
-3.60992e-10
3.92067e-10
-1.38443e-10
-2.54647e-10
-1.14682e-10
1.4329e-10
-1.78631e-09
1.4329e-10
3.89731e-10
-2.18067e-09
1.2388e-10
6.12727e-10
-1.92391e-09
8.65493e-11
8.33741e-10
-1.67416e-09
5.42142e-11
1.04425e-09
-1.37911e-09
3.33976e-11
1.22052e-09
-1.06908e-09
3.17322e-11
1.32612e-09
-7.66521e-10
5.12521e-11
1.32576e-09
-4.85562e-10
8.76748e-11
1.20165e-09
-2.43491e-10
1.2646e-10
9.54664e-10
-4.45117e-11
1.63186e-10
6.21925e-10
1.03129e-10
1.86806e-10
2.63982e-10
1.87916e-10
1.92136e-10
-4.94569e-11
2.02243e-10
1.83371e-10
-2.87844e-10
1.60406e-10
1.83656e-10
-4.19506e-10
6.29655e-11
1.91427e-10
-4.45697e-10
-7.26996e-11
2.14891e-10
-3.95068e-10
-2.40348e-10
2.579e-10
-3.26114e-10
-4.2416e-10
3.10463e-10
-2.93344e-10
-6.1812e-10
3.69886e-10
-3.16807e-10
-8.03556e-10
4.11365e-10
-4.11628e-10
-9.40069e-10
4.12149e-10
-5.7852e-10
-9.82892e-10
3.81789e-10
-7.79077e-10
-9.18787e-10
3.25459e-10
-9.62474e-10
-7.51819e-10
2.52661e-10
-1.06704e-09
-5.17844e-10
1.72518e-10
-1.06111e-09
-2.90958e-10
1.20331e-10
-9.25351e-10
-1.24531e-10
9.99649e-11
-6.53529e-10
-7.3183e-11
1.03042e-10
-2.79872e-10
-1.00059e-10
1.11346e-10
-7.03731e-10
1.63354e-10
5.46514e-11
-1.90078e-09
5.46514e-11
3.40118e-10
-2.50909e-09
3.46541e-11
6.06593e-10
-2.21197e-09
1.4009e-11
8.952e-10
-1.97575e-09
5.39453e-12
1.18433e-09
-1.68789e-09
1.19126e-11
1.43726e-09
-1.36705e-09
3.72344e-11
1.60204e-09
-1.0219e-09
8.26518e-11
1.63537e-09
-6.68576e-10
1.41692e-10
1.51798e-09
-3.37713e-10
2.03587e-10
1.26631e-09
-5.75623e-11
2.5667e-10
9.18051e-10
1.54667e-10
2.88688e-10
5.36198e-10
2.49586e-10
3.12168e-10
1.77848e-10
2.22356e-10
3.30259e-10
-1.13592e-10
9.30476e-11
3.50906e-10
-3.36752e-10
-9.56227e-11
3.7399e-10
-4.84592e-10
-3.24518e-10
3.92056e-10
-5.8272e-10
-5.66148e-10
4.16469e-10
-6.601e-10
-7.89599e-10
4.35478e-10
-7.41337e-10
-9.7937e-10
4.35238e-10
-8.39118e-10
-1.12048e-09
4.07551e-10
-9.58863e-10
-1.19615e-09
3.68797e-10
-1.08601e-09
-1.18757e-09
3.2498e-10
-1.1936e-09
-1.10659e-09
2.8873e-10
-1.25336e-09
-9.72959e-10
2.74407e-10
-1.23555e-09
-8.19057e-10
2.77005e-10
-1.11903e-09
-6.96883e-10
2.83055e-10
-8.94277e-10
-6.47162e-10
2.91545e-10
-5.82624e-10
-6.99988e-10
3.08843e-10
-2.04637e-10
-8.2285e-10
3.3862e-10
-1.29689e-09
3.83553e-10
2.79315e-11
-1.96101e-09
2.79315e-11
3.65334e-10
-2.88211e-09
2.87112e-11
6.76125e-10
-2.55792e-09
2.87748e-11
1.01455e-09
-2.36451e-09
4.3945e-11
1.34239e-09
-2.10285e-09
8.05593e-11
1.61582e-09
-1.78015e-09
1.3308e-10
1.78679e-09
-1.39448e-09
1.94959e-10
1.82563e-09
-9.70586e-10
2.56502e-10
1.72619e-09
-5.54497e-10
3.09541e-10
1.52043e-09
-2.0414e-10
3.45654e-10
1.22222e-09
6.83019e-11
3.77907e-10
8.74917e-10
1.8415e-10
4.06095e-10
5.05432e-10
1.46344e-10
4.38898e-10
1.39667e-10
-1.47279e-11
4.67028e-10
-2.28293e-10
-2.21667e-10
4.87603e-10
-5.78456e-10
-4.74088e-10
4.93433e-10
-9.0085e-10
-7.30535e-10
4.80552e-10
-1.16958e-09
-9.56292e-10
4.2924e-10
-1.37133e-09
-1.14582e-09
3.62076e-10
-1.50695e-09
-1.28086e-09
2.89978e-10
-1.56584e-09
-1.38412e-09
2.40986e-10
-1.56056e-09
-1.42351e-09
2.24947e-10
-1.50405e-09
-1.40594e-09
2.37284e-10
-1.40275e-09
-1.35391e-09
2.74169e-10
-1.24668e-09
-1.30092e-09
3.20324e-10
-1.03103e-09
-1.28509e-09
3.6712e-10
-7.54054e-10
-1.34094e-09
4.11439e-10
-4.41625e-10
-1.46351e-09
4.45818e-10
-1.2922e-10
-1.60709e-09
4.66737e-10
-1.91225e-09
4.82143e-10
1.15153e-10
-2.19496e-09
1.15153e-10
4.98442e-10
-3.41101e-09
1.39992e-10
8.2463e-10
-3.05616e-09
1.6679e-10
1.15048e-09
-2.8962e-09
2.00613e-10
1.43306e-09
-2.64473e-09
2.53923e-10
1.64179e-09
-2.30453e-09
3.10275e-10
1.7593e-09
-1.87501e-09
3.57614e-10
1.79024e-09
-1.38757e-09
3.80623e-10
1.7467e-09
-8.98388e-10
3.8198e-10
1.63055e-09
-4.69388e-10
3.75934e-10
1.45396e-09
-1.64451e-10
4.03884e-10
1.18523e-09
1.81319e-11
4.29329e-10
8.2868e-10
3.56355e-11
4.61905e-10
3.76955e-10
-5.37824e-11
4.85524e-10
-1.46439e-10
-1.85781e-10
4.82334e-10
-7.00197e-10
-3.77904e-10
4.52459e-10
-1.22858e-09
-5.97693e-10
3.90472e-10
-1.66436e-09
-8.35181e-10
3.09658e-10
-1.95092e-09
-1.08009e-09
2.15927e-10
-2.07597e-09
-1.32423e-09
1.63671e-10
-2.06435e-09
-1.54693e-09
1.46577e-10
-1.94919e-09
-1.71088e-09
1.67721e-10
-1.76157e-09
-1.81232e-09
2.14286e-10
-1.52517e-09
-1.86907e-09
2.74262e-10
-1.25455e-09
-1.91225e-09
3.36209e-10
-9.54662e-10
-1.98143e-09
3.92032e-10
-6.40651e-10
-2.09517e-09
4.35921e-10
-3.39004e-10
-2.23648e-09
4.67127e-10
-7.99005e-11
-2.35496e-09
4.84665e-10
-2.50164e-09
5.06337e-10
3.58641e-10
-2.91524e-09
3.58641e-10
6.9759e-10
-4.14736e-09
3.92991e-10
9.73831e-10
-3.78351e-09
4.46928e-10
1.20255e-09
-3.6077e-09
4.78656e-10
1.36104e-09
-3.33208e-09
5.24656e-10
1.45976e-09
-2.93752e-09
5.30048e-10
1.52215e-09
-2.44255e-09
5.00905e-10
1.56972e-09
-1.89124e-09
4.51765e-10
1.6107e-09
-1.3478e-09
4.04032e-10
1.63347e-09
-8.7233e-10
3.75764e-10
1.5895e-09
-4.93743e-10
3.68861e-10
1.42256e-09
-2.23217e-10
4.03986e-10
1.08273e-09
-4.91551e-11
4.20442e-10
5.6596e-10
2.94453e-11
4.29482e-10
-6.94628e-11
3.22088e-11
4.13455e-10
-7.60879e-10
-4.90502e-11
3.58648e-10
-1.41888e-09
-2.28192e-10
2.8467e-10
-1.94121e-09
-5.22941e-10
2.06383e-10
-2.26961e-09
-9.02551e-10
1.47314e-10
-2.41272e-09
-1.3197e-09
1.35174e-10
-2.38917e-09
-1.7267e-09
1.52868e-10
-2.23836e-09
-2.06192e-09
1.96826e-10
-2.00356e-09
-2.30464e-09
2.54022e-10
-1.71236e-09
-2.47368e-09
3.09841e-10
-1.37685e-09
-2.60981e-09
3.58516e-10
-1.01137e-09
-2.75082e-09
4.00462e-10
-6.44219e-10
-2.9037e-09
4.38025e-10
-3.1751e-10
-3.04105e-09
4.74509e-10
-5.96708e-11
-3.12355e-09
5.07352e-10
-3.12387e-09
5.59943e-10
6.98784e-10
-4.31517e-09
6.98784e-10
8.62397e-10
-5.02592e-09
7.11663e-10
1.04648e-09
-4.71048e-09
7.39768e-10
1.15315e-09
-4.44358e-09
7.26142e-10
1.19651e-09
-4.07516e-09
6.96602e-10
1.21188e-09
-3.59157e-09
6.35503e-10
1.24813e-09
-3.03559e-09
5.53538e-10
1.3445e-09
-2.45723e-09
4.66245e-10
1.49491e-09
-1.901e-09
3.99351e-10
1.65105e-09
-1.40532e-09
3.73437e-10
1.71541e-09
-9.39675e-10
3.78263e-10
1.6059e-09
-5.0861e-10
3.91767e-10
1.26916e-09
-1.284e-10
4.13034e-10
7.21115e-10
1.8295e-10
3.91744e-10
3.26699e-11
3.69512e-10
3.48443e-10
-7.06797e-10
3.8068e-10
3.07134e-10
-1.39499e-09
1.9313e-10
2.64395e-10
-1.91784e-09
-2.35053e-10
2.32642e-10
-2.28345e-09
-7.66058e-10
2.2688e-10
-2.48072e-09
-1.37718e-09
2.52517e-10
-2.53443e-09
-1.96957e-09
2.94201e-10
-2.47011e-09
-2.46687e-09
3.38053e-10
-2.30275e-09
-2.85158e-09
3.76838e-10
-2.0325e-09
-3.15369e-09
4.06957e-10
-1.66611e-09
-3.41233e-09
4.33346e-10
-1.23792e-09
-3.64718e-09
4.65406e-10
-8.02694e-10
-3.84899e-09
5.0726e-10
-4.16998e-10
-3.98303e-09
5.53427e-10
-1.06511e-10
-4.03256e-09
5.95492e-10
-3.87991e-09
6.47087e-10
9.71791e-10
-6.2605e-09
9.71791e-10
9.74372e-10
-5.91175e-09
8.81003e-10
1.07478e-09
-5.65721e-09
8.44203e-10
1.12539e-09
-5.29328e-09
7.96975e-10
1.12862e-09
-4.80907e-09
7.28533e-10
1.14052e-09
-4.2496e-09
6.43882e-10
1.21822e-09
-3.67105e-09
5.55416e-10
1.39221e-09
-3.11077e-09
4.77133e-10
1.62837e-09
-2.58121e-09
4.41666e-10
1.83409e-09
-2.05387e-09
4.40592e-10
1.90436e-09
-1.47032e-09
4.5833e-10
1.76558e-09
-8.42544e-10
4.70897e-10
1.40597e-09
-2.33074e-10
4.62677e-10
8.50548e-10
2.99951e-10
4.36967e-10
1.7941e-10
6.23761e-10
4.15544e-10
-5.07231e-10
6.81062e-10
3.85018e-10
-1.14173e-09
4.47337e-10
3.79144e-10
-1.67802e-09
-1.06638e-10
4.06769e-10
-2.11308e-09
-7.86936e-10
4.54736e-10
-2.43897e-09
-1.56155e-09
5.08795e-10
-2.65887e-09
-2.3034e-09
5.51978e-10
-2.7624e-09
-2.95128e-09
5.85907e-10
-2.71909e-09
-3.49314e-09
5.9606e-10
-2.49767e-09
-3.96162e-09
5.84248e-10
-2.12139e-09
-4.377e-09
5.86073e-10
-1.65136e-09
-4.73251e-09
6.12879e-10
-1.16411e-09
-4.99573e-09
6.56965e-10
-7.13812e-10
-5.13793e-09
7.02036e-10
-3.10091e-10
-5.16332e-09
7.24295e-10
-4.8979e-09
7.05618e-10
1.02898e-09
-8.31962e-09
1.02898e-09
1.00714e-09
-6.76221e-09
8.71039e-10
1.14884e-09
-6.6075e-09
8.07378e-10
1.27358e-09
-6.15976e-09
7.40463e-10
1.37685e-09
-5.58816e-09
6.7453e-10
1.50564e-09
-4.99655e-09
6.16786e-10
1.68873e-09
-4.43625e-09
5.80723e-10
1.92814e-09
-3.92056e-09
5.69077e-10
2.14989e-09
-3.39687e-09
5.92791e-10
2.27143e-09
-2.78889e-09
6.12616e-10
2.21793e-09
-2.05198e-09
6.34547e-10
1.95681e-09
-1.21354e-09
6.31701e-10
1.51632e-09
-3.9137e-10
5.98541e-10
9.63986e-10
2.95195e-10
5.56966e-10
3.48598e-10
6.93076e-10
5.46046e-10
-2.67971e-10
7.4494e-10
5.52724e-10
-8.64416e-10
4.43384e-10
6.00405e-10
-1.44406e-09
-1.96438e-10
6.6928e-10
-1.99206e-09
-9.80059e-10
7.40632e-10
-2.49533e-09
-1.85064e-09
7.91474e-10
-2.91956e-09
-2.68991e-09
8.09488e-10
-3.19477e-09
-3.47166e-09
7.94105e-10
-3.25499e-09
-4.19749e-09
7.62934e-10
-3.08265e-09
-4.87752e-09
7.41801e-10
-2.71803e-09
-5.48881e-09
7.45238e-10
-2.23542e-09
-5.98048e-09
7.63209e-10
-1.71072e-09
-6.30353e-09
7.80835e-10
-1.18895e-09
-6.44249e-09
7.80511e-10
-6.61494e-10
-6.43662e-09
7.43539e-10
-6.22307e-09
6.61791e-10
9.18351e-10
-1.01569e-08
9.18351e-10
1.10967e-09
-7.7137e-09
7.59845e-10
1.44633e-09
-7.64859e-09
7.04075e-10
1.78482e-09
-7.15297e-09
6.54279e-10
2.10375e-09
-6.54655e-09
6.39067e-10
2.41829e-09
-5.96622e-09
6.54718e-10
2.72036e-09
-5.4346e-09
6.96024e-10
2.96432e-09
-4.91431e-09
7.49758e-10
3.06375e-09
-4.30356e-09
8.07546e-10
2.96738e-09
-3.5363e-09
8.44327e-10
2.66883e-09
-2.60024e-09
8.47597e-10
2.20778e-09
-1.57169e-09
8.20114e-10
1.65521e-09
-6.04988e-10
7.67216e-10
1.07717e-09
1.37063e-10
7.37321e-10
4.79465e-10
5.46787e-10
7.4522e-10
-1.27633e-10
5.64139e-10
7.89121e-10
-7.55983e-10
2.14144e-10
8.58639e-10
-1.44597e-09
-4.37223e-10
9.31477e-10
-2.15774e-09
-1.25696e-09
9.88933e-10
-2.85472e-09
-2.15678e-09
1.00298e-09
-3.4377e-09
-3.08522e-09
9.77822e-10
-3.81234e-09
-4.0312e-09
9.33482e-10
-3.92468e-09
-4.98206e-09
8.95977e-10
-3.78307e-09
-5.89669e-09
8.76333e-10
-3.44621e-09
-6.69831e-09
8.71106e-10
-2.98538e-09
-7.3079e-09
8.64834e-10
-2.44524e-09
-7.68503e-09
8.39478e-10
-1.82726e-09
-7.84847e-09
7.86091e-10
-1.08912e-09
-7.88321e-09
7.06679e-10
-7.93425e-09
6.20706e-10
7.8008e-10
-1.17172e-08
7.8008e-10
1.40227e-09
-9.00895e-09
6.73822e-10
2.06545e-09
-8.98773e-09
6.76571e-10
2.7097e-09
-8.47063e-09
6.73944e-10
3.31041e-09
-7.87851e-09
7.31895e-10
3.83813e-09
-7.29866e-09
8.05467e-10
4.21739e-09
-6.71131e-09
8.98444e-10
4.36189e-09
-6.04814e-09
9.90642e-10
4.23703e-09
-5.23015e-09
1.0531e-09
3.85104e-09
-4.22793e-09
1.07946e-09
3.26608e-09
-3.08152e-09
1.06828e-09
2.58933e-09
-1.9081e-09
1.01532e-09
1.89353e-09
-8.85314e-10
9.78405e-10
1.22372e-09
-1.63447e-10
9.72775e-10
5.43352e-10
2.23525e-10
1.00618e-09
-1.7559e-10
2.17285e-10
1.06828e-09
-9.52883e-10
-1.39691e-10
1.13333e-09
-1.82e-09
-7.51207e-10
1.1829e-09
-2.71734e-09
-1.56026e-09
1.202e-09
-3.55365e-09
-2.50379e-09
1.1843e-09
-4.21938e-09
-3.56364e-09
1.14478e-09
-4.6359e-09
-4.71881e-09
1.10437e-09
-4.77741e-09
-5.91643e-09
1.07566e-09
-4.67207e-09
-7.05953e-09
1.0568e-09
-4.37084e-09
-8.03427e-09
1.03366e-09
-3.90745e-09
-8.76379e-09
9.91188e-10
-3.27782e-09
-9.23936e-09
9.23232e-10
-2.45223e-09
-9.51639e-09
8.40782e-10
-1.41291e-09
-9.7109e-09
7.86894e-10
-1.01526e-08
8.044e-10
7.98727e-10
-1.33141e-08
7.98727e-10
1.91829e-09
-1.09577e-08
8.31319e-10
2.97192e-09
-1.09191e-08
8.79629e-10
3.96135e-09
-1.03533e-08
8.95074e-10
4.84596e-09
-9.72605e-09
9.6484e-10
5.53425e-09
-9.04514e-09
1.06026e-09
5.92086e-09
-8.26649e-09
1.17088e-09
5.93577e-09
-7.32318e-09
1.26275e-09
5.58084e-09
-6.18659e-09
1.31426e-09
4.92418e-09
-4.89479e-09
1.32657e-09
4.08638e-09
-3.54445e-09
1.30399e-09
3.19114e-09
-2.28714e-09
1.27775e-09
2.30604e-09
-1.26917e-09
1.27267e-09
1.42094e-09
-5.73104e-10
1.29871e-09
5.24344e-10
-2.29655e-10
1.35381e-09
-4.34575e-10
-2.32471e-10
1.41256e-09
-1.47362e-09
-5.53622e-10
1.45652e-09
-2.56401e-09
-1.13705e-09
1.47937e-09
-3.62682e-09
-1.95887e-09
1.46412e-09
-4.56012e-09
-3.00014e-09
1.43189e-09
-5.27322e-09
-4.24643e-09
1.3976e-09
-5.71433e-09
-5.64666e-09
1.37001e-09
-5.88005e-09
-7.09681e-09
1.34647e-09
-5.79647e-09
-8.45822e-09
1.31491e-09
-5.47904e-09
-9.61815e-09
1.26583e-09
-4.91445e-09
-1.05266e-08
1.1974e-09
-4.07509e-09
-1.12014e-08
1.12173e-09
-2.94653e-09
-1.17431e-08
1.09699e-09
-1.57518e-09
-1.22194e-08
1.13591e-09
-1.29151e-08
1.18651e-09
1.09653e-09
-1.55059e-08
1.09653e-09
2.68195e-09
-1.37105e-08
1.17128e-09
4.1086e-09
-1.35382e-08
1.19586e-09
5.41578e-09
-1.28948e-08
1.23768e-09
6.52339e-09
-1.21465e-08
1.31624e-09
7.31715e-09
-1.12491e-08
1.41377e-09
7.69172e-09
-1.01501e-08
1.51269e-09
7.59983e-09
-8.81821e-09
1.59087e-09
7.07381e-09
-7.29282e-09
1.63641e-09
6.21741e-09
-5.68823e-09
1.65421e-09
5.17072e-09
-4.15125e-09
1.65821e-09
4.0401e-09
-2.8239e-09
1.67246e-09
2.86925e-09
-1.79957e-09
1.70665e-09
1.66047e-09
-1.11124e-09
1.75253e-09
4.00186e-10
-7.64844e-10
1.80106e-09
-9.17612e-10
-7.47655e-10
1.83831e-09
-2.27097e-09
-1.04495e-09
1.84962e-09
-3.6045e-09
-1.63802e-09
1.839e-09
-4.83579e-09
-2.53098e-09
1.80739e-09
-5.86988e-09
-3.73133e-09
1.76864e-09
-6.64022e-09
-5.20609e-09
1.73261e-09
-7.11663e-09
-6.86526e-09
1.6968e-09
-7.29714e-09
-8.57027e-09
1.65502e-09
-7.17859e-09
-1.01762e-08
1.5999e-09
-6.73861e-09
-1.15877e-08
1.52968e-09
-5.94289e-09
-1.27889e-08
1.46642e-09
-4.79232e-09
-1.38212e-08
1.46891e-09
-3.31629e-09
-1.47186e-08
1.49911e-09
-1.64226e-09
-1.54456e-08
1.55154e-09
-1.61465e-08
1.58901e-09
1.5455e-09
-1.85946e-08
1.5455e-09
3.56164e-09
-1.73322e-08
1.61151e-09
5.3497e-09
-1.69605e-08
1.63938e-09
6.96217e-09
-1.6194e-08
1.6918e-09
8.28375e-09
-1.52335e-08
1.77046e-09
9.18365e-09
-1.40084e-08
1.86461e-09
9.56264e-09
-1.24794e-08
1.95566e-09
9.403e-09
-1.06798e-08
2.02668e-09
8.77066e-09
-8.73008e-09
2.07532e-09
7.77058e-09
-6.7984e-09
2.11631e-09
6.51709e-09
-5.04895e-09
2.15772e-09
5.0926e-09
-3.59752e-09
2.20506e-09
3.54421e-09
-2.49519e-09
2.25123e-09
1.89993e-09
-1.74842e-09
2.28871e-09
1.84002e-10
-1.35246e-09
2.3106e-09
-1.56098e-09
-1.30356e-09
2.30759e-09
-3.28183e-09
-1.60044e-09
2.28264e-09
-4.9014e-09
-2.25302e-09
2.24041e-09
-6.33222e-09
-3.28281e-09
2.1879e-09
-7.50316e-09
-4.69052e-09
2.13462e-09
-8.36506e-09
-6.42016e-09
2.07962e-09
-8.88656e-09
-8.35683e-09
2.01595e-09
-9.04323e-09
-1.03592e-08
1.94781e-09
-8.80172e-09
-1.22989e-08
1.883e-09
-8.1371e-09
-1.40972e-08
1.84635e-09
-7.02848e-09
-1.57207e-08
1.82433e-09
-5.51328e-09
-1.71717e-08
1.83623e-09
-3.72504e-09
-1.83877e-08
1.8817e-09
-1.83099e-09
-1.92417e-08
1.90266e-09
-1.98568e-08
1.88003e-09
2.07441e-09
-2.27399e-08
2.07441e-09
4.52323e-09
-2.19061e-08
2.13336e-09
6.71627e-09
-2.13173e-08
2.17095e-09
8.65378e-09
-2.03658e-08
2.2414e-09
1.0194e-08
-1.90992e-08
2.33244e-09
1.12066e-08
-1.74436e-08
2.42976e-09
1.16161e-08
-1.53987e-08
2.51693e-09
1.14298e-08
-1.3072e-08
2.586e-09
1.07209e-08
-1.06549e-08
2.64134e-09
9.58055e-09
-8.34685e-09
2.69699e-09
8.08549e-09
-6.30303e-09
2.75777e-09
6.3061e-09
-4.62031e-09
2.81111e-09
4.30454e-09
-3.33352e-09
2.84887e-09
2.15237e-09
-2.44964e-09
2.86221e-09
-7.1099e-11
-1.96806e-09
2.84759e-09
-2.29143e-09
-1.89043e-09
2.8154e-09
-4.42772e-09
-2.22378e-09
2.76747e-09
-6.38877e-09
-2.98824e-09
2.70362e-09
-8.08813e-09
-4.20771e-09
2.63098e-09
-9.45627e-09
-5.8707e-09
2.55428e-09
-1.04419e-08
-7.90731e-09
2.47805e-09
-1.10017e-08
-1.01973e-08
2.40489e-09
-1.10909e-08
-1.26024e-08
2.3364e-09
-1.067e-08
-1.49981e-08
2.28199e-09
-9.72456e-09
-1.72923e-08
2.25275e-09
-8.2831e-09
-1.9412e-08
2.25256e-09
-6.4494e-09
-2.12769e-08
2.27391e-09
-4.381e-09
-2.2733e-08
2.27934e-09
-2.21718e-09
-2.36461e-08
2.24289e-09
-2.42673e-08
2.19505e-09
2.66721e-09
-2.80696e-08
2.66721e-09
5.63282e-09
-2.75989e-08
2.73785e-09
8.29446e-09
-2.67788e-08
2.8091e-09
1.05834e-08
-2.55556e-08
2.91011e-09
1.23427e-08
-2.38637e-08
3.01445e-09
1.34614e-08
-2.16594e-08
3.10659e-09
1.39054e-08
-1.90153e-08
3.18209e-09
1.37113e-08
-1.61071e-08
3.23904e-09
1.29387e-08
-1.316e-08
3.28787e-09
1.16377e-08
-1.03783e-08
3.34294e-09
9.85965e-09
-7.91808e-09
3.40387e-09
7.67711e-09
-5.87686e-09
3.44999e-09
5.18324e-09
-4.30325e-09
3.47437e-09
2.49196e-09
-3.22562e-09
3.4778e-09
-2.7948e-10
-2.64737e-09
3.46107e-09
-3.02688e-09
-2.56089e-09
3.42796e-09
-5.64684e-09
-2.9703e-09
3.37627e-09
-8.03078e-09
-3.90232e-09
3.30733e-09
-1.00779e-08
-5.37777e-09
3.22582e-09
-1.17043e-08
-7.37779e-09
3.14157e-09
-1.28451e-08
-9.81983e-09
3.06072e-09
-1.34436e-08
-1.25805e-08
2.98861e-09
-1.34554e-08
-1.55155e-08
2.93132e-09
-1.28542e-08
-1.84855e-08
2.89194e-09
-1.16504e-08
-2.13628e-08
2.87175e-09
-9.91109e-09
-2.4009e-08
2.86241e-09
-7.76788e-09
-2.62516e-08
2.836e-09
-5.34805e-09
-2.79224e-08
2.77386e-09
-2.72118e-09
-2.89656e-08
2.69675e-09
-2.96662e-08
2.68097e-09
3.36814e-09
-3.47998e-08
3.36814e-09
6.95468e-09
-3.46479e-08
3.476e-09
1.01388e-08
-3.35341e-08
3.58308e-09
1.27993e-08
-3.19002e-08
3.69609e-09
1.47817e-08
-2.96293e-08
3.79512e-09
1.60209e-08
-2.6766e-08
3.8796e-09
1.65358e-08
-2.34366e-08
3.91879e-09
1.63613e-08
-1.98714e-08
3.95121e-09
1.55151e-08
-1.63044e-08
4.00338e-09
1.402e-08
-1.29396e-08
4.06943e-09
1.19184e-08
-9.9392e-09
4.13579e-09
9.29476e-09
-7.42818e-09
4.18802e-09
6.2769e-09
-5.49772e-09
4.22521e-09
3.00732e-09
-4.18959e-09
4.24634e-09
-3.74109e-10
-3.50223e-09
4.249e-09
-3.73839e-09
-3.41542e-09
4.23138e-09
-6.94442e-09
-3.93782e-09
4.18581e-09
-9.84904e-09
-5.10139e-09
4.11546e-09
-1.2324e-08
-6.92319e-09
4.03163e-09
-1.42675e-08
-9.37079e-09
3.94725e-09
-1.56025e-08
-1.23444e-08
3.86996e-09
-1.62727e-08
-1.57056e-08
3.80512e-09
-1.62409e-08
-1.92889e-08
3.75053e-09
-1.54932e-08
-2.29273e-08
3.70246e-09
-1.40611e-08
-2.64442e-08
3.65712e-09
-1.20345e-08
-2.96267e-08
3.59853e-09
-9.52406e-09
-3.22608e-08
3.50576e-09
-6.60607e-09
-3.42237e-08
3.38982e-09
-3.3394e-09
-3.55452e-08
3.31922e-09
-3.63477e-08
3.34749e-09
4.22168e-09
-4.32357e-08
4.22168e-09
8.49832e-09
-4.3264e-08
4.35618e-09
1.22439e-08
-4.1733e-08
4.46812e-09
1.53108e-08
-3.9533e-08
4.581e-09
1.75761e-08
-3.65468e-08
4.66733e-09
1.90331e-08
-3.28986e-08
4.69072e-09
1.96924e-08
-2.88012e-08
4.72062e-09
1.95578e-08
-2.45004e-08
4.77889e-09
1.86225e-08
-2.02165e-08
4.8629e-09
1.68899e-08
-1.61505e-08
4.95908e-09
1.44104e-08
-1.24956e-08
5.05149e-09
1.12921e-08
-9.42871e-09
5.13427e-09
7.68536e-09
-7.07745e-09
5.20205e-09
3.74651e-09
-5.48891e-09
5.25376e-09
-3.64797e-10
-4.65525e-09
5.27994e-09
-4.46855e-09
-4.56613e-09
5.26994e-09
-8.37851e-09
-5.23663e-09
5.22389e-09
-1.19073e-08
-6.70605e-09
5.14818e-09
-1.48981e-08
-8.97849e-09
5.06051e-09
-1.72339e-08
-1.19927e-08
4.97177e-09
-1.88318e-08
-1.56208e-08
4.88795e-09
-1.9635e-08
-1.96956e-08
4.80613e-09
-1.96051e-08
-2.40271e-08
4.72055e-09
-1.87349e-08
-2.8418e-08
4.63221e-09
-1.70705e-08
-3.26329e-08
4.53558e-09
-1.47007e-08
-3.64018e-08
4.41621e-09
-1.1697e-08
-3.95202e-08
4.26593e-09
-8.1095e-09
-4.19369e-08
4.13524e-09
-4.0699e-09
-4.36752e-08
4.09993e-09
-4.45534e-08
4.14424e-09
5.21856e-09
-5.36635e-08
5.21856e-09
1.02258e-08
-5.35957e-08
5.34495e-09
1.46075e-08
-5.15543e-08
5.45789e-09
1.81978e-08
-4.86182e-08
5.51332e-09
2.09074e-08
-4.47884e-08
5.55032e-09
2.27064e-08
-4.02826e-08
5.60347e-09
2.35845e-08
-3.53509e-08
5.69003e-09
2.35103e-08
-3.02201e-08
5.8123e-09
2.24495e-08
-2.50925e-08
5.95517e-09
2.04125e-08
-2.01924e-08
6.09732e-09
1.7475e-08
-1.57714e-08
6.23163e-09
1.3768e-08
-1.20564e-08
6.35312e-09
9.44913e-09
-9.19978e-09
6.45964e-09
4.69358e-09
-7.25286e-09
6.53806e-09
-2.98545e-10
-6.22092e-09
6.57632e-09
-5.29045e-09
-6.12023e-09
6.56429e-09
-1.00333e-08
-6.98581e-09
6.51004e-09
-1.43025e-08
-8.84788e-09
6.42891e-09
-1.79165e-08
-1.16816e-08
6.33492e-09
-2.07452e-08
-1.53796e-08
6.23342e-09
-2.26944e-08
-1.97789e-08
6.1246e-09
-2.36905e-08
-2.46852e-08
6.00267e-09
-2.36835e-08
-2.9889e-08
5.8715e-09
-2.26814e-08
-3.51354e-08
5.73159e-09
-2.0739e-08
-4.01289e-08
5.56966e-09
-1.79162e-08
-4.4588e-08
5.37876e-09
-1.42488e-08
-4.83687e-08
5.19562e-09
-9.83806e-09
-5.14242e-08
5.0907e-09
-4.92143e-09
-5.36522e-08
5.07433e-09
-5.45769e-08
5.11413e-09
6.32948e-09
-6.6311e-08
6.32948e-09
1.2151e-08
-6.58038e-08
6.41101e-09
1.73316e-08
-6.31673e-08
6.45438e-09
2.16594e-08
-5.94331e-08
6.5089e-09
2.5014e-08
-5.47184e-08
6.59714e-09
2.73126e-08
-4.92895e-08
6.7298e-09
2.84791e-08
-4.34056e-08
6.90959e-09
2.84423e-08
-3.72789e-08
7.11697e-09
2.71784e-08
-3.11325e-08
7.32518e-09
2.47354e-08
-2.52481e-08
7.51967e-09
2.12184e-08
-1.99392e-08
7.70559e-09
1.67805e-08
-1.54749e-08
7.87708e-09
1.15832e-08
-1.20063e-08
8.02463e-09
5.83007e-09
-9.60565e-09
8.1265e-09
-2.19224e-10
-8.32316e-09
8.17192e-09
-6.26113e-09
-8.21549e-09
8.15737e-09
-1.19855e-08
-9.33983e-09
8.09862e-09
-1.71329e-08
-1.16919e-08
8.01207e-09
-2.15048e-08
-1.51963e-08
7.90755e-09
-2.49477e-08
-1.96997e-08
7.78411e-09
-2.73383e-08
-2.50022e-08
7.63518e-09
-2.85764e-08
-3.08925e-08
7.46674e-09
-2.86171e-08
-3.71134e-08
7.28675e-09
-2.7466e-08
-4.33412e-08
7.07638e-09
-2.51584e-08
-4.92369e-08
6.82164e-09
-2.17045e-08
-5.45784e-08
6.55698e-09
-1.71866e-08
-5.92424e-08
6.37581e-09
-1.18255e-08
-6.30574e-08
6.29211e-09
-5.93408e-09
-6.57736e-08
6.24945e-09
-6.67429e-08
6.24877e-09
7.52772e-09
-8.13526e-08
7.52772e-09
1.44203e-08
-8.02171e-08
7.54869e-09
2.06623e-08
-7.69831e-08
7.599e-09
2.59722e-08
-7.2438e-08
7.71985e-09
3.01572e-08
-6.67827e-08
7.90387e-09
3.30556e-08
-6.03103e-08
8.14678e-09
3.45267e-08
-5.3281e-08
8.42814e-09
3.44888e-08
-4.59344e-08
8.71693e-09
3.29531e-08
-3.85647e-08
8.9909e-09
3.00102e-08
-3.15359e-08
9.25294e-09
2.57901e-08
-2.52069e-08
9.50941e-09
2.04408e-08
-1.98518e-08
9.74725e-09
1.41478e-08
-1.56366e-08
9.94391e-09