/*--------------------------------*- C++ -*----------------------------------*\
| =========                 |                                                 |
| \\      /  F ield         | OpenFOAM: The Open Source CFD Toolbox           |
|  \\    /   O peration     | Version:  2312                                  |
|   \\  /    A nd           | Website:  www.openfoam.com                      |
|    \\/     M anipulation  |                                                 |
\*---------------------------------------------------------------------------*/
FoamFile
{
    version     2.0;
    format      ascii;
    arch        "LSB;label=32;scalar=64";
    class       volVectorField;
    location    "0.357759";
    object      U;
}
// * * * * * * * * * * * * * * * * * * * * * * * * * * * * * * * * * * * * * //

dimensions      [0 1 -1 0 0 0 0];

internalField   nonuniform List<vector> 
90000
(
(1.48841e-06 -2.05436e-06 1.48841e-06)
(5.32043e-07 1.31112e-06 7.67306e-07)
(-2.12835e-06 5.74289e-07 6.16648e-07)
(-2.67901e-06 3.08154e-07 3.14794e-07)
(-3.08914e-06 1.12622e-07 1.27722e-07)
(-3.02826e-06 -1.37246e-07 -1.22052e-08)
(-2.50939e-06 -3.97967e-07 -9.25479e-08)
(-1.69566e-06 -5.5959e-07 -1.17716e-07)
(-8.16261e-07 -5.378e-07 -1.03182e-07)
(-1.69591e-07 -3.50188e-07 -1.45394e-07)
(8.10448e-08 -5.33756e-08 -2.65982e-07)
(6.48469e-08 3.0715e-07 -4.40187e-07)
(-4.91407e-09 5.55329e-07 -6.73345e-07)
(9.07424e-08 6.27217e-07 -9.02153e-07)
(6.0277e-07 5.18626e-07 -1.02901e-06)
(1.57725e-06 2.61047e-07 -1.00666e-06)
(2.76425e-06 -2.53089e-08 -7.60984e-07)
(3.77684e-06 -2.41108e-07 -3.00542e-07)
(4.21825e-06 -2.88778e-07 1.66949e-07)
(3.72454e-06 -9.63238e-08 6.02199e-07)
(2.13498e-06 2.73666e-07 8.95548e-07)
(-5.2537e-07 7.67159e-07 9.51898e-07)
(-3.96908e-06 1.2007e-06 8.06893e-07)
(-7.61984e-06 1.46405e-06 5.27124e-07)
(-1.0686e-05 1.2874e-06 -2.86043e-08)
(-1.21832e-05 5.919e-07 -6.94453e-07)
(-1.15524e-05 -6.57055e-07 -1.23969e-06)
(-8.86661e-06 -1.92541e-06 -1.10805e-06)
(-3.64957e-06 -3.18717e-06 -3.43406e-07)
(-1.14581e-07 -3.58194e-06 2.9042e-06)
(-3.89821e-07 -2.98643e-06 -3.89821e-07)
(-6.30634e-07 2.57969e-06 -2.47629e-07)
(-4.53672e-07 1.07838e-06 -1.95721e-07)
(-3.78591e-07 5.55541e-07 -1.08294e-07)
(-2.67794e-07 1.55608e-08 -1.08771e-08)
(-1.25624e-07 -6.36315e-07 5.73498e-08)
(3.71062e-08 -1.22165e-06 9.34298e-08)
(2.46414e-07 -1.5385e-06 7.85797e-08)
(4.64494e-07 -1.45303e-06 1.27139e-08)
(6.76394e-07 -1.02173e-06 -8.28378e-08)
(9.28296e-07 -3.88538e-07 -1.58097e-07)
(1.23225e-06 2.72368e-07 -1.86934e-07)
(1.56557e-06 7.05872e-07 -1.40504e-07)
(1.90045e-06 7.98962e-07 -2.25841e-08)
(2.15716e-06 5.58075e-07 1.33629e-07)
(2.20085e-06 8.57577e-08 2.91248e-07)
(1.90809e-06 -3.29728e-07 3.70894e-07)
(1.321e-06 -4.41925e-07 2.70562e-07)
(5.20045e-07 -1.45914e-07 1.37436e-07)
(-5.02558e-07 5.62804e-07 -1.11146e-07)
(-1.57248e-06 1.44096e-06 -3.68559e-07)
(-2.53376e-06 2.33031e-06 -4.52964e-07)
(-3.22029e-06 2.83418e-06 -3.89696e-07)
(-3.32909e-06 2.72941e-06 -1.92524e-07)
(-2.86453e-06 1.52467e-06 2.9522e-07)
(-1.97006e-06 -7.7152e-07 7.98346e-07)
(-4.47768e-07 -3.91006e-06 1.30945e-06)
(1.46318e-06 -6.5682e-06 1.54752e-06)
(1.70492e-06 -8.36788e-06 1.88587e-06)
(5.32913e-07 -9.10618e-06 1.98449e-06)
(-4.28934e-07 -1.88431e-06 -4.28934e-07)
(3.49182e-07 1.71586e-06 -9.91389e-08)
(1.94179e-06 3.23838e-07 4.71555e-08)
(2.5953e-06 -1.54541e-07 2.11258e-07)
(2.91562e-06 -7.22692e-07 3.42246e-07)
(2.87322e-06 -1.33277e-06 3.92648e-07)
(2.56986e-06 -1.82242e-06 3.53213e-07)
(2.15856e-06 -2.03555e-06 2.56362e-07)
(1.84531e-06 -1.90232e-06 1.43183e-07)
(1.78431e-06 -1.50847e-06 2.91576e-08)
(2.02336e-06 -9.79752e-07 -6.60296e-09)
(2.50208e-06 -4.99077e-07 8.84078e-08)
(3.00713e-06 -1.75295e-07 2.74406e-07)
(3.20249e-06 -6.49088e-08 4.93724e-07)
(2.81415e-06 -1.35613e-07 7.01948e-07)
(1.75449e-06 -2.00817e-07 7.50633e-07)
(1.40193e-07 -8.7384e-08 6.30425e-07)
(-1.72591e-06 3.48596e-07 3.71649e-07)
(-3.41089e-06 1.09421e-06 -5.11001e-08)
(-4.39688e-06 1.99935e-06 -4.97224e-07)
(-4.34849e-06 2.68638e-06 -8.35285e-07)
(-3.19848e-06 2.99918e-06 -9.7186e-07)
(-1.08921e-06 2.59238e-06 -8.5467e-07)
(1.63505e-06 1.35946e-06 -3.98814e-07)
(4.39286e-06 -8.28399e-07 3.09355e-07)
(6.4445e-06 -3.94188e-06 1.15436e-06)
(7.12205e-06 -7.21681e-06 1.80391e-06)
(6.65729e-06 -9.22276e-06 1.86235e-06)
(4.13515e-06 -8.1585e-06 1.36447e-06)
(1.01702e-06 -8.35265e-06 -5.61642e-07)
(1.14771e-08 -2.47511e-06 1.14771e-08)
(1.55511e-06 -1.09487e-06 3.91859e-07)
(3.75815e-06 -1.93666e-06 5.65376e-07)
(4.86639e-06 -2.10991e-06 7.1152e-07)
(5.39435e-06 -2.21617e-06 7.79654e-07)
(5.29862e-06 -2.29979e-06 7.67391e-07)
(4.76195e-06 -2.3447e-06 6.82876e-07)
(4.02431e-06 -2.27478e-06 5.44458e-07)
(3.35634e-06 -2.10144e-06 3.9978e-07)
(2.97662e-06 -1.88306e-06 2.92319e-07)
(2.92763e-06 -1.6588e-06 2.49935e-07)
(3.08638e-06 -1.42478e-06 3.15222e-07)
(3.16509e-06 -1.18214e-06 4.65205e-07)
(2.81961e-06 -8.60157e-07 6.11141e-07)
(1.89465e-06 -3.7547e-07 6.45273e-07)
(3.26145e-07 3.0467e-07 5.80653e-07)
(-1.69591e-06 1.11015e-06 3.86442e-07)
(-3.69376e-06 1.91549e-06 9.64841e-08)
(-5.14741e-06 2.58898e-06 -2.43932e-07)
(-5.56619e-06 2.8888e-06 -5.28212e-07)
(-4.68063e-06 2.66215e-06 -7.3138e-07)
(-2.4642e-06 1.88023e-06 -7.55371e-07)
(7.4604e-07 5.05087e-07 -5.61045e-07)
(4.20549e-06 -1.2948e-06 -2.06638e-07)
(7.08379e-06 -3.31343e-06 3.69092e-07)
(8.47336e-06 -5.42627e-06 8.51788e-07)
(7.72082e-06 -7.0742e-06 1.14099e-06)
(5.37417e-06 -7.8009e-06 1.04576e-06)
(2.04336e-06 -4.29389e-06 3.88449e-07)
(5.64244e-08 -3.88788e-06 -1.52457e-06)
(5.98397e-07 -4.6005e-06 5.98397e-07)
(2.73263e-06 -5.51936e-06 9.5636e-07)
(5.12995e-06 -5.53029e-06 1.08317e-06)
(6.50611e-06 -5.10945e-06 1.1434e-06)
(7.20773e-06 -4.48075e-06 1.12954e-06)
(7.25649e-06 -3.80623e-06 1.04691e-06)
(6.76738e-06 -3.18444e-06 9.2031e-07)
(5.94795e-06 -2.67271e-06 7.6309e-07)
(5.0545e-06 -2.3497e-06 6.16338e-07)
(4.2549e-06 -2.20837e-06 5.10149e-07)
(3.57351e-06 -2.16936e-06 4.6316e-07)
(2.90171e-06 -2.08369e-06 4.55022e-07)
(2.11086e-06 -1.77401e-06 4.27939e-07)
(1.13231e-06 -1.06958e-06 3.71633e-07)
(-1.41519e-07 1.9986e-09 2.63599e-07)
(-1.66886e-06 1.25161e-06 1.05559e-07)
(-3.1626e-06 2.40401e-06 -5.41374e-08)
(-4.31773e-06 3.14446e-06 -1.56469e-07)
(-4.84234e-06 3.26095e-06 -1.89556e-07)
(-4.47969e-06 2.57125e-06 -1.78478e-07)
(-3.14026e-06 1.28971e-06 -8.0532e-08)
(-9.94394e-07 -4.69926e-07 3.921e-08)
(1.5302e-06 -2.37054e-06 2.31932e-07)
(3.82589e-06 -3.94048e-06 4.37635e-07)
(5.33425e-06 -4.87049e-06 4.49521e-07)
(5.51234e-06 -5.03652e-06 1.40396e-07)
(4.06507e-06 -4.39767e-06 -3.78083e-07)
(1.28099e-06 -3.68705e-06 -8.55161e-07)
(-1.55746e-06 -1.82173e-07 -1.4123e-06)
(-1.38213e-06 -7.65392e-07 -2.26391e-06)
(1.06113e-06 -8.32067e-06 1.06113e-06)
(3.45543e-06 -1.06435e-05 1.28216e-06)
(5.71707e-06 -9.803e-06 1.31113e-06)
(7.27105e-06 -8.68755e-06 1.24543e-06)
(8.25505e-06 -7.23042e-06 1.13406e-06)
(8.65203e-06 -5.65856e-06 9.76625e-07)
(8.52077e-06 -4.24336e-06 8.2166e-07)
(7.95616e-06 -3.15731e-06 7.14284e-07)
(7.01851e-06 -2.48494e-06 6.48281e-07)
(5.76249e-06 -2.1744e-06 5.90055e-07)
(4.23482e-06 -2.03996e-06 5.19423e-07)
(2.50769e-06 -1.84595e-06 4.26813e-07)
(7.34649e-07 -1.31305e-06 2.91694e-07)
(-9.21055e-07 -3.90941e-07 1.02151e-07)
(-2.30896e-06 8.17039e-07 -9.93277e-08)
(-3.28122e-06 2.04664e-06 -2.18556e-07)
(-3.7891e-06 2.94206e-06 -1.86159e-07)
(-3.8006e-06 3.08484e-06 2.60779e-08)
(-3.3134e-06 2.37126e-06 2.72297e-07)
(-2.40189e-06 8.16884e-07 5.97829e-07)
(-1.27774e-06 -1.20533e-06 8.46942e-07)
(-2.25706e-07 -3.37254e-06 1.08419e-06)
(5.12636e-07 -5.07526e-06 1.12239e-06)
(6.94624e-07 -5.71761e-06 9.09171e-07)
(2.21128e-07 -5.11062e-06 4.61909e-07)
(-8.07215e-07 -3.4165e-06 -2.41489e-07)
(-2.03276e-06 -8.34717e-07 -1.03071e-06)
(-3.25772e-06 1.32185e-06 -1.63559e-06)
(-3.86208e-06 3.95779e-06 -1.94355e-06)
(-1.93939e-06 5.88038e-07 -2.07959e-06)
(1.1204e-06 -1.27627e-05 1.1204e-06)
(3.39441e-06 -1.56735e-05 1.16261e-06)
(5.53153e-06 -1.40682e-05 1.03007e-06)
(7.32608e-06 -1.22448e-05 8.4483e-07)
(8.79159e-06 -9.97787e-06 6.50582e-07)
(9.87243e-06 -7.58173e-06 5.13258e-07)
(1.04617e-05 -5.40678e-06 4.51541e-07)
(1.04037e-05 -3.64789e-06 4.75319e-07)
(9.56204e-06 -2.40562e-06 5.61276e-07)
(7.9009e-06 -1.60231e-06 6.37544e-07)
(5.55476e-06 -1.04749e-06 6.39772e-07)
(2.83372e-06 -5.53195e-07 5.52799e-07)
(8.13978e-08 4.25478e-08 3.81882e-07)
(-2.1852e-06 7.04224e-07 1.67955e-07)
(-3.59644e-06 1.36729e-06 4.28508e-08)
(-4.15216e-06 1.84826e-06 1.08252e-07)
(-3.92421e-06 1.88588e-06 3.12594e-07)
(-3.15383e-06 1.183e-06 6.51036e-07)
(-2.14158e-06 -2.20919e-07 1.08697e-06)
(-1.31278e-06 -2.24061e-06 1.44147e-06)
(-1.03157e-06 -4.43056e-06 1.79286e-06)
(-1.41435e-06 -6.26062e-06 1.86754e-06)
(-2.47453e-06 -7.0834e-06 1.64286e-06)
(-4.00276e-06 -6.52216e-06 1.17932e-06)
(-5.6541e-06 -4.64068e-06 5.59033e-07)
(-6.94756e-06 -1.78097e-06 -1.4459e-07)
(-7.34177e-06 1.40256e-06 -8.07798e-07)
(-6.67735e-06 3.6399e-06 -1.0535e-06)
(-4.87361e-06 5.046e-06 -1.13821e-06)
(-1.84324e-06 -9.22287e-07 -1.08567e-06)
(6.63501e-07 -1.6472e-05 6.63501e-07)
(2.61091e-06 -1.99405e-05 5.44851e-07)
(5.00882e-06 -1.76768e-05 3.08237e-07)
(7.22757e-06 -1.53434e-05 9.5301e-08)
(9.38867e-06 -1.25386e-05 -3.2054e-08)
(1.13315e-05 -9.6044e-06 -3.11107e-09)
(1.27526e-05 -6.8207e-06 1.89345e-07)
(1.32895e-05 -4.34779e-06 4.44369e-07)
(1.26709e-05 -2.32164e-06 6.64656e-07)
(1.08086e-05 -7.58595e-07 8.64037e-07)
(7.89079e-06 3.86712e-07 9.78414e-07)
(4.41797e-06 1.14746e-06 9.83329e-07)
(9.71843e-07 1.49129e-06 9.19469e-07)
(-1.8434e-06 1.48476e-06 8.78656e-07)
(-3.62462e-06 1.08418e-06 8.7329e-07)
(-4.35929e-06 3.60176e-07 9.8206e-07)
(-4.2127e-06 -7.45296e-07 1.24676e-06)
(-3.59709e-06 -2.26958e-06 1.56658e-06)
(-3.07774e-06 -4.08838e-06 1.9011e-06)
(-3.0247e-06 -6.07873e-06 2.15501e-06)
(-3.61519e-06 -7.79589e-06 2.19941e-06)
(-4.93134e-06 -8.73259e-06 2.0508e-06)
(-6.77969e-06 -8.53361e-06 1.733e-06)
(-8.71394e-06 -7.10288e-06 1.30846e-06)
(-1.0174e-05 -4.67208e-06 8.50926e-07)
(-1.06809e-05 -1.87278e-06 4.72444e-07)
(-9.97792e-06 5.33014e-07 2.09134e-07)
(-7.94614e-06 1.80003e-06 1.46826e-07)
(-4.64909e-06 1.91206e-06 1.78275e-07)
(-1.3665e-06 -4.69191e-06 6.28871e-07)
(-8.67905e-08 -1.84842e-05 -8.67905e-08)
(1.63773e-06 -2.34644e-05 -2.3491e-07)
(4.74648e-06 -2.06901e-05 -4.34683e-07)
(7.50177e-06 -1.82507e-05 -5.31067e-07)
(1.03954e-05 -1.53241e-05 -4.48145e-07)
(1.31175e-05 -1.21574e-05 -1.76662e-07)
(1.52211e-05 -8.90693e-06 2.299e-07)
(1.62216e-05 -5.7169e-06 6.73408e-07)
(1.57992e-05 -2.79655e-06 1.04104e-06)
(1.39423e-05 -3.57751e-07 1.33719e-06)
(1.09265e-05 1.38188e-06 1.52298e-06)
(7.25862e-06 2.27265e-06 1.65126e-06)
(3.54833e-06 2.18876e-06 1.74004e-06)
(2.34554e-07 1.2834e-06 1.8429e-06)
(-2.33902e-06 -1.71034e-07 1.95911e-06)
(-4.12369e-06 -2.06086e-06 2.05442e-06)
(-5.34121e-06 -4.12632e-06 2.18172e-06)
(-6.21118e-06 -6.17835e-06 2.27199e-06)
(-6.99944e-06 -8.07909e-06 2.26533e-06)
(-7.8928e-06 -9.70213e-06 2.10452e-06)
(-8.97969e-06 -1.07121e-05 1.88233e-06)
(-1.02147e-05 -1.08661e-05 1.63944e-06)
(-1.13934e-05 -1.01183e-05 1.44033e-06)
(-1.22385e-05 -8.56906e-06 1.34357e-06)
(-1.24598e-05 -6.56635e-06 1.34362e-06)
(-1.17995e-05 -4.76029e-06 1.32506e-06)
(-1.00988e-05 -3.62368e-06 1.32915e-06)
(-7.41553e-06 -3.54858e-06 1.41989e-06)
(-3.82023e-06 -4.45101e-06 1.60553e-06)
(-8.98487e-07 -9.98894e-06 1.89926e-06)
(-4.44103e-07 -1.93003e-05 -4.44103e-07)
(1.44427e-06 -2.69456e-05 -4.2665e-07)
(5.25281e-06 -2.38369e-05 -4.58591e-07)
(8.44691e-06 -2.16848e-05 -3.4668e-07)
(1.17858e-05 -1.89342e-05 -3.71467e-08)
(1.48032e-05 -1.57132e-05 3.8986e-07)
(1.70344e-05 -1.20515e-05 8.57014e-07)
(1.80856e-05 -8.1486e-06 1.26389e-06)
(1.77765e-05 -4.3658e-06 1.56895e-06)
(1.62431e-05 -1.07788e-06 1.78245e-06)
(1.37173e-05 1.22989e-06 1.983e-06)
(1.04855e-05 2.23257e-06 2.16589e-06)
(6.9004e-06 1.83978e-06 2.37509e-06)
(3.22784e-06 3.30358e-07 2.55143e-06)
(-4.39465e-07 -1.8167e-06 2.67698e-06)
(-4.03717e-06 -4.27486e-06 2.6996e-06)
(-7.40508e-06 -6.72963e-06 2.59991e-06)
(-1.03639e-05 -8.92e-06 2.26903e-06)
(-1.27189e-05 -1.07646e-05 1.85322e-06)
(-1.44026e-05 -1.20833e-05 1.44143e-06)
(-1.53672e-05 -1.29272e-05 1.11219e-06)
(-1.5629e-05 -1.30778e-05 9.47854e-07)
(-1.53172e-05 -1.25458e-05 9.74189e-07)
(-1.45304e-05 -1.15961e-05 1.1666e-06)
(-1.32495e-05 -1.0548e-05 1.42388e-06)
(-1.13978e-05 -9.86761e-06 1.69658e-06)
(-8.93585e-06 -9.91218e-06 1.96241e-06)
(-5.98233e-06 -1.08156e-05 2.17588e-06)
(-2.68613e-06 -1.21704e-05 2.31219e-06)
(-4.76528e-07 -1.60681e-05 2.42236e-06)
(2.0923e-07 -2.06331e-05 2.0923e-07)
(2.74869e-06 -3.14542e-05 3.94629e-07)
(6.65116e-06 -2.80523e-05 5.65491e-07)
(9.87539e-06 -2.62918e-05 7.858e-07)
(1.2924e-05 -2.37304e-05 1.15141e-06)
(1.53825e-05 -2.04188e-05 1.50716e-06)
(1.70097e-05 -1.63394e-05 1.78242e-06)
(1.77457e-05 -1.17691e-05 1.90772e-06)
(1.76804e-05 -7.2103e-06 1.9156e-06)
(1.68846e-05 -3.19171e-06 1.89099e-06)
(1.54301e-05 -2.7949e-07 2.0575e-06)
(1.32157e-05 1.05672e-06 2.22986e-06)
(1.01012e-05 8.7848e-07 2.46559e-06)
(6.06432e-06 -4.43361e-07 2.65011e-06)
(1.17854e-06 -2.47028e-06 2.66465e-06)
(-4.22694e-06 -4.66916e-06 2.4971e-06)
(-9.65975e-06 -6.92144e-06 2.10236e-06)
(-1.45023e-05 -9.13278e-06 1.58804e-06)
(-1.81206e-05 -1.12236e-05 1.05063e-06)
(-2.01643e-05 -1.30537e-05 6.29067e-07)
(-2.07146e-05 -1.46688e-05 3.84932e-07)
(-2.00683e-05 -1.56888e-05 4.13061e-07)
(-1.85488e-05 -1.60815e-05 6.40036e-07)
(-1.64272e-05 -1.60909e-05 9.97683e-07)
(-1.38956e-05 -1.60409e-05 1.39568e-06)
(-1.10466e-05 -1.63207e-05 1.77094e-06)
(-7.97093e-06 -1.71837e-05 2.07162e-06)
(-4.88356e-06 -1.85177e-05 2.29175e-06)
(-1.90571e-06 -1.98371e-05 2.41753e-06)
(-2.11925e-07 -2.20966e-05 2.55913e-06)
(1.80449e-06 -2.52497e-05 1.80449e-06)
(5.3028e-06 -3.7809e-05 1.99437e-06)
(8.37055e-06 -3.42003e-05 2.29551e-06)
(1.08954e-05 -3.25361e-05 2.4585e-06)
(1.28258e-05 -2.99088e-05 2.70435e-06)
(1.40961e-05 -2.62387e-05 2.71457e-06)
(1.48899e-05 -2.16024e-05 2.53349e-06)
(1.54311e-05 -1.63914e-05 2.25779e-06)
(1.58769e-05 -1.11998e-05 1.98236e-06)
(1.62129e-05 -6.63474e-06 1.82997e-06)
(1.61327e-05 -3.11499e-06 1.81622e-06)
(1.51093e-05 -9.63287e-07 2.02779e-06)
(1.25983e-05 -8.26307e-08 2.14384e-06)
(8.31353e-06 -2.07523e-07 2.24177e-06)
(2.54101e-06 -1.03049e-06 2.194e-06)
(-4.1302e-06 -2.36436e-06 1.89085e-06)
(-1.0929e-05 -4.27025e-06 1.45555e-06)
(-1.68522e-05 -6.84727e-06 1.01924e-06)
(-2.11014e-05 -9.92135e-06 6.19801e-07)
(-2.34422e-05 -1.32211e-05 4.29933e-07)
(-2.40254e-05 -1.63745e-05 4.04027e-07)
(-2.31419e-05 -1.88681e-05 5.88998e-07)
(-2.12084e-05 -2.0586e-05 9.06609e-07)
(-1.85799e-05 -2.17039e-05 1.24387e-06)
(-1.54492e-05 -2.26027e-05 1.55604e-06)
(-1.19355e-05 -2.36554e-05 1.84361e-06)
(-8.25798e-06 -2.49973e-05 2.11668e-06)
(-4.77611e-06 -2.64011e-05 2.36527e-06)
(-1.67531e-06 -2.74117e-05 2.56942e-06)
(-9.50315e-08 -2.81423e-05 2.84418e-06)
(3.88537e-06 -3.59031e-05 3.88537e-06)
(8.17656e-06 -4.59137e-05 3.97866e-06)
(9.53902e-06 -4.25098e-05 4.13949e-06)
(1.10066e-05 -4.03036e-05 4.00864e-06)
(1.17382e-05 -3.70869e-05 3.7869e-06)
(1.20156e-05 -3.26921e-05 3.36453e-06)
(1.2263e-05 -2.74151e-05 2.82815e-06)
(1.29243e-05 -2.17432e-05 2.30343e-06)
(1.41748e-05 -1.62195e-05 1.91647e-06)
(1.57336e-05 -1.13447e-05 1.75603e-06)
(1.68685e-05 -7.12526e-06 1.80441e-06)
(1.66815e-05 -3.61106e-06 1.92911e-06)
(1.44644e-05 -8.7951e-07 2.0667e-06)
(1.00221e-05 1.05545e-06 1.97003e-06)
(3.82679e-06 2.02406e-06 1.75857e-06)
(-3.35156e-06 1.7062e-06 1.53956e-06)
(-1.05447e-05 -1.02845e-07 1.31698e-06)
(-1.6606e-05 -3.56936e-06 1.14066e-06)
(-2.1035e-05 -8.29054e-06 1.08056e-06)
(-2.38378e-05 -1.34714e-05 1.18408e-06)
(-2.50849e-05 -1.84874e-05 1.38116e-06)
(-2.50312e-05 -2.26551e-05 1.59087e-06)
(-2.38776e-05 -2.57909e-05 1.79231e-06)
(-2.16925e-05 -2.81424e-05 1.95286e-06)
(-1.8509e-05 -3.01062e-05 2.1038e-06)
(-1.45157e-05 -3.19864e-05 2.3074e-06)
(-1.01743e-05 -3.3767e-05 2.56095e-06)
(-6.06214e-06 -3.51293e-05 2.82239e-06)
(-2.47267e-06 -3.57872e-05 3.04406e-06)
(-3.93343e-07 -3.50063e-05 3.31212e-06)
(5.71826e-06 -5.28384e-05 5.71826e-06)
(1.04919e-05 -5.47607e-05 5.13234e-06)
(1.01624e-05 -5.19073e-05 4.88062e-06)
(1.09929e-05 -4.87444e-05 4.53993e-06)
(1.12465e-05 -4.44704e-05 4.03964e-06)
(1.13063e-05 -3.92383e-05 3.42914e-06)
(1.17461e-05 -3.35457e-05 2.82611e-06)
(1.30081e-05 -2.78335e-05 2.37162e-06)
(1.5096e-05 -2.23955e-05 2.14369e-06)
(1.73421e-05 -1.72865e-05 2.1257e-06)
(1.87445e-05 -1.20499e-05 2.23873e-06)
(1.84217e-05 -6.74904e-06 2.32993e-06)
(1.59242e-05 -1.71812e-06 2.30442e-06)
(1.13264e-05 2.48021e-06 2.17961e-06)
(5.16216e-06 5.13205e-06 2.07861e-06)
(-1.65219e-06 5.55707e-06 1.92435e-06)
(-8.26296e-06 3.41672e-06 1.89802e-06)
(-1.41078e-05 -1.24458e-06 2.04555e-06)
(-1.89571e-05 -7.672e-06 2.29641e-06)
(-2.27605e-05 -1.46836e-05 2.57994e-06)
(-2.5495e-05 -2.13798e-05 2.81027e-06)
(-2.71247e-05 -2.71138e-05 2.99906e-06)
(-2.74403e-05 -3.17597e-05 3.04442e-06)
(-2.61136e-05 -3.5594e-05 2.97169e-06)
(-2.31009e-05 -3.89586e-05 2.99574e-06)
(-1.88447e-05 -4.19159e-05 3.16653e-06)
(-1.40474e-05 -4.42472e-05 3.43053e-06)
(-9.3629e-06 -4.56281e-05 3.68891e-06)
(-5.13993e-06 -4.59912e-05 3.79938e-06)
(-1.57509e-06 -4.38577e-05 3.66059e-06)
(6.07038e-06 -7.29895e-05 6.07038e-06)
(1.09908e-05 -6.34395e-05 5.04815e-06)
(1.06692e-05 -6.13848e-05 4.61052e-06)
(1.20879e-05 -5.73124e-05 4.13085e-06)
(1.32178e-05 -5.20131e-05 3.63897e-06)
(1.43681e-05 -4.62365e-05 3.20575e-06)
(1.59265e-05 -4.05293e-05 2.92985e-06)
(1.80554e-05 -3.51535e-05 2.84939e-06)
(2.03942e-05 -2.99154e-05 2.96779e-06)
(2.214e-05 -2.42426e-05 3.07048e-06)
(2.2494e-05 -1.76467e-05 3.18705e-06)
(2.0915e-05 -1.03052e-05 3.17198e-06)
(1.73861e-05 -3.0016e-06 2.99592e-06)
(1.2406e-05 3.09528e-06 2.77495e-06)
(6.56286e-06 6.82609e-06 2.71972e-06)
(4.05408e-07 7.44031e-06 2.75912e-06)
(-5.65072e-06 4.68119e-06 3.01011e-06)
(-1.1522e-05 -1.0668e-06 3.39e-06)
(-1.71617e-05 -8.7784e-06 3.79989e-06)
(-2.24289e-05 -1.70684e-05 4.11141e-06)
(-2.7085e-05 -2.49902e-05 4.23744e-06)
(-3.06058e-05 -3.21412e-05 4.16921e-06)
(-3.22903e-05 -3.84927e-05 4.01463e-06)
(-3.17136e-05 -4.42252e-05 3.9276e-06)
(-2.90043e-05 -4.93672e-05 3.97545e-06)
(-2.47496e-05 -5.36122e-05 4.08424e-06)
(-1.97097e-05 -5.65444e-05 4.17711e-06)
(-1.44879e-05 -5.79395e-05 4.15353e-06)
(-9.30527e-06 -5.80168e-05 3.91802e-06)
(-3.36608e-06 -5.55707e-05 3.41608e-06)
(5.11838e-06 -9.24935e-05 5.11838e-06)
(1.06065e-05 -7.24058e-05 4.11046e-06)
(1.2712e-05 -7.13036e-05 3.72305e-06)
(1.6123e-05 -6.65709e-05 3.37559e-06)
(1.9405e-05 -6.06573e-05 3.24716e-06)
(2.2573e-05 -5.47884e-05 3.30788e-06)
(2.56792e-05 -4.93435e-05 3.50388e-06)
(2.84359e-05 -4.41967e-05 3.77974e-06)
(3.0172e-05 -3.85679e-05 4.08413e-06)
(3.01918e-05 -3.17094e-05 4.27582e-06)
(2.81999e-05 -2.33207e-05 4.27742e-06)
(2.43801e-05 -1.39679e-05 4.11706e-06)
(1.92968e-05 -4.91982e-06 3.83255e-06)
(1.36464e-05 2.29807e-06 3.67487e-06)
(7.78055e-06 6.38951e-06 3.71616e-06)
(1.77113e-06 6.73622e-06 3.94439e-06)
(-4.39199e-06 3.42932e-06 4.3109e-06)
(-1.09761e-05 -2.95341e-06 4.72036e-06)
(-1.80074e-05 -1.11754e-05 5.07377e-06)
(-2.50737e-05 -2.00459e-05 5.19713e-06)
(-3.14843e-05 -2.88871e-05 5.09869e-06)
(-3.62872e-05 -3.75271e-05 4.88763e-06)
(-3.87173e-05 -4.59175e-05 4.71628e-06)
(-3.85515e-05 -5.39068e-05 4.64222e-06)
(-3.61415e-05 -6.09845e-05 4.63565e-06)
(-3.21484e-05 -6.64936e-05 4.59958e-06)
(-2.71517e-05 -6.99839e-05 4.43752e-06)
(-2.13761e-05 -7.14751e-05 4.10449e-06)
(-1.47054e-05 -7.15952e-05 3.63904e-06)
(-5.5764e-06 -7.0748e-05 3.1394e-06)
(3.93214e-06 -0.000109462 3.93214e-06)
(1.09238e-05 -8.35567e-05 3.3605e-06)
(1.73033e-05 -8.31357e-05 3.37131e-06)
(2.38497e-05 -7.80676e-05 3.3498e-06)
(3.0078e-05 -7.20725e-05 3.64593e-06)
(3.5732e-05 -6.62912e-05 4.02585e-06)
(4.02967e-05 -6.07341e-05 4.50876e-06)
(4.29364e-05 -5.48555e-05 4.99454e-06)
(4.30354e-05 -4.77352e-05 5.32195e-06)
(4.04613e-05 -3.89072e-05 5.4546e-06)
(3.55729e-05 -2.84639e-05 5.36824e-06)
(2.92413e-05 -1.74215e-05 5.07173e-06)
(2.23792e-05 -7.40414e-06 4.87795e-06)
(1.55669e-05 8.0147e-08 4.84494e-06)
(8.8407e-06 3.98216e-06 5.02023e-06)
(1.86481e-06 4.0065e-06 5.34206e-06)
(-5.60699e-06 5.00478e-07 5.68622e-06)
(-1.38273e-05 -5.90863e-06 5.96706e-06)
(-2.26852e-05 -1.40728e-05 6.10269e-06)
(-3.13801e-05 -2.32886e-05 6.04361e-06)
(-3.88874e-05 -3.32322e-05 5.86647e-06)
(-4.43002e-05 -4.37493e-05 5.68571e-06)
(-4.70807e-05 -5.45094e-05 5.56394e-06)
(-4.725e-05 -6.48127e-05 5.48224e-06)
(-4.52141e-05 -7.36978e-05 5.35761e-06)
(-4.13991e-05 -8.03834e-05 5.10497e-06)
(-3.59488e-05 -8.46275e-05 4.70425e-06)
(-2.86845e-05 -8.68031e-05 4.24528e-06)
(-1.94449e-05 -8.7924e-05 3.96179e-06)
(-7.19145e-06 -9.0399e-05 4.01977e-06)
(3.87562e-06 -0.000125173 3.87562e-06)
(1.34672e-05 -9.97154e-05 4.07739e-06)
(2.44377e-05 -9.94485e-05 4.33214e-06)
(3.46403e-05 -9.40414e-05 4.38448e-06)
(4.40242e-05 -8.79659e-05 4.7611e-06)
(5.19191e-05 -8.16966e-05 5.28295e-06)
(5.73252e-05 -7.4902e-05 5.85494e-06)
(5.93419e-05 -6.68928e-05 6.32938e-06)
(5.76208e-05 -5.71255e-05 6.59249e-06)
(5.25238e-05 -4.56428e-05 6.64382e-06)
(4.50173e-05 -3.31391e-05 6.51392e-06)
(3.63409e-05 -2.09536e-05 6.37531e-06)
(2.74485e-05 -1.0709e-05 6.34603e-06)
(1.86181e-05 -3.49906e-06 6.47946e-06)
(9.7399e-06 8.75469e-08 6.7662e-06)
(4.80807e-07 6.58206e-09 7.07079e-06)
(-9.50805e-06 -3.35843e-06 7.30435e-06)
(-2.01596e-05 -9.40795e-06 7.44053e-06)
(-3.09488e-05 -1.75628e-05 7.37789e-06)
(-4.09451e-05 -2.74881e-05 7.22943e-06)
(-4.91754e-05 -3.90298e-05 7.07389e-06)
(-5.4945e-05 -5.18244e-05 6.95033e-06)
(-5.79747e-05 -6.50782e-05 6.83903e-06)
(-5.83862e-05 -7.76046e-05 6.67035e-06)
(-5.63899e-05 -8.8269e-05 6.39558e-06)
(-5.19921e-05 -9.644e-05 6.0167e-06)
(-4.4985e-05 -0.000102166 5.6145e-06)
(-3.51483e-05 -0.000106235 5.48789e-06)
(-2.26645e-05 -0.000109583 5.67838e-06)
(-7.93982e-06 -0.000115331 5.91914e-06)
(5.29316e-06 -0.000144035 5.29316e-06)
(1.87016e-05 -0.000123227 5.73335e-06)
(3.39469e-05 -0.000122205 5.86411e-06)
(4.76049e-05 -0.000116168 6.08963e-06)
(5.9701e-05 -0.000109312 6.52138e-06)
(6.92407e-05 -0.000101448 7.04195e-06)
(7.51049e-05 -9.20818e-05 7.55481e-06)
(7.6514e-05 -8.07121e-05 7.95185e-06)
(7.33932e-05 -6.73917e-05 8.1818e-06)
(6.64412e-05 -5.28883e-05 8.26809e-06)
(5.69e-05 -3.84297e-05 8.28557e-06)
(4.60105e-05 -2.5496e-05 8.35771e-06)
(3.45171e-05 -1.52881e-05 8.53281e-06)
(2.26385e-05 -8.37734e-06 8.7686e-06)
(1.03158e-05 -4.91766e-06 9.01827e-06)
(-2.56416e-06 -4.86369e-06 9.21186e-06)
(-1.59263e-05 -7.97276e-06 9.2751e-06)
(-2.93656e-05 -1.3851e-05 9.23005e-06)
(-4.21927e-05 -2.24217e-05 9.0789e-06)
(-5.35233e-05 -3.36367e-05 8.89166e-06)
(-6.25478e-05 -4.72563e-05 8.71556e-06)
(-6.87829e-05 -6.25662e-05 8.53259e-06)
(-7.2072e-05 -7.83447e-05 8.31277e-06)
(-7.23914e-05 -9.31713e-05 8.01993e-06)
(-6.96106e-05 -0.000106011 7.65162e-06)
(-6.34411e-05 -0.000116539 7.32913e-06)
(-5.37152e-05 -0.000125057 7.34182e-06)
(-4.05729e-05 -0.00013225 7.49186e-06)
(-2.47965e-05 -0.000138291 7.75302e-06)
(-8.22495e-06 -0.000145341 7.94462e-06)
(7.62171e-06 -0.000170418 7.62171e-06)
(2.54228e-05 -0.000155126 7.98624e-06)
(4.45538e-05 -0.000152414 8.12935e-06)
(6.15506e-05 -0.000145373 8.39768e-06)
(7.62487e-05 -0.000136848 8.81035e-06)
(8.73868e-05 -0.000126254 9.30278e-06)
(9.37923e-05 -0.000113123 9.77248e-06)
(9.48716e-05 -9.7459e-05 1.01342e-05)
(9.08793e-05 -8.00657e-05 1.03817e-05)
(8.2689e-05 -6.2367e-05 1.05901e-05)
(7.14083e-05 -4.59333e-05 1.08023e-05)
(5.8021e-05 -3.20587e-05 1.10461e-05)
(4.3166e-05 -2.14561e-05 1.12839e-05)
(2.72129e-05 -1.43084e-05 1.14756e-05)
(1.04182e-05 -1.06036e-05 1.15851e-05)
(-6.88128e-06 -1.02695e-05 1.15681e-05)
(-2.42043e-05 -1.32355e-05 1.14419e-05)
(-4.09045e-05 -1.94526e-05 1.12296e-05)
(-5.61576e-05 -2.90652e-05 1.09668e-05)
(-6.9168e-05 -4.21114e-05 1.06984e-05)
(-7.93352e-05 -5.81386e-05 1.04172e-05)
(-8.62585e-05 -7.61156e-05 1.00886e-05)
(-8.9659e-05 -9.46424e-05 9.73793e-06)
(-8.92443e-05 -0.000112357 9.40822e-06)
(-8.47235e-05 -0.000128392 9.22325e-06)
(-7.5865e-05 -0.000142504 9.10962e-06)
(-6.27388e-05 -0.000154922 9.16709e-06)
(-4.61964e-05 -0.000165512 9.40213e-06)
(-2.77531e-05 -0.000173454 9.5187e-06)
(-9.14568e-06 -0.000180067 9.41528e-06)
(1.03199e-05 -0.000206605 1.03199e-05)
(3.29215e-05 -0.000196108 1.06232e-05)
(5.61967e-05 -0.000191303 1.08128e-05)
(7.68568e-05 -0.000182727 1.11747e-05)
(9.42741e-05 -0.000171614 1.16462e-05)
(0.000107058 -0.000157228 1.21484e-05)
(0.000114164 -0.000139359 1.25962e-05)
(0.000115257 -0.000118715 1.29532e-05)
(0.000110756 -9.68667e-05 1.32397e-05)
(0.000101497 -7.56675e-05 1.3529e-05)
(8.83192e-05 -5.67194e-05 1.38443e-05)
(7.19493e-05 -4.10795e-05 1.41184e-05)
(5.30443e-05 -2.91618e-05 1.4306e-05)
(3.22732e-05 -2.10211e-05 1.43639e-05)
(1.0391e-05 -1.66297e-05 1.42786e-05)
(-1.18203e-05 -1.5987e-05 1.41084e-05)
(-3.35905e-05 -1.91289e-05 1.38632e-05)
(-5.40752e-05 -2.62093e-05 1.3539e-05)
(-7.23784e-05 -3.74534e-05 1.3169e-05)
(-8.7718e-05 -5.28016e-05 1.27767e-05)
(-9.94906e-05 -7.16237e-05 1.23877e-05)
(-0.000107224 -9.27453e-05 1.20156e-05)
(-0.000110476 -0.000114772 1.16678e-05)
(-0.000108826 -0.000136443 1.139e-05)
(-0.000102003 -0.000156903 1.124e-05)
(-9.00704e-05 -0.000175621 1.12411e-05)
(-7.36766e-05 -0.00019222 1.13586e-05)
(-5.41366e-05 -0.000205615 1.13971e-05)
(-3.29297e-05 -0.000214473 1.12305e-05)
(-1.10507e-05 -0.000220652 1.0993e-05)
(1.32913e-05 -0.000253983 1.32913e-05)
(4.1445e-05 -0.000247422 1.36548e-05)
(6.96551e-05 -0.000240389 1.4026e-05)
(9.44237e-05 -0.000229546 1.45471e-05)
(0.000114685 -0.000214785 1.50853e-05)
(0.000129074 -0.0001955 1.55658e-05)
(0.000136865 -0.000172053 1.59624e-05)
(0.000138092 -0.000145866 1.62569e-05)
(0.000133249 -0.000119038 1.65061e-05)
(0.000122885 -9.35968e-05 1.67871e-05)
(0.000107494 -7.10964e-05 1.70978e-05)
(8.76889e-05 -5.24956e-05 1.73257e-05)
(6.42977e-05 -3.82002e-05 1.74358e-05)
(3.83636e-05 -2.83881e-05 1.74396e-05)
(1.10517e-05 -2.30807e-05 1.73451e-05)
(-1.65342e-05 -2.22534e-05 1.71731e-05)
(-4.33663e-05 -2.59619e-05 1.69098e-05)
(-6.83876e-05 -3.44364e-05 1.65576e-05)
(-9.05475e-05 -4.78985e-05 1.61391e-05)
(-0.000108918 -6.61979e-05 1.57083e-05)
(-0.000122754 -8.85777e-05 1.52975e-05)
(-0.000131451 -0.000113825 1.49333e-05)
(-0.000134505 -0.000140527 1.46453e-05)
(-0.000131568 -0.00016736 1.44474e-05)
(-0.000122553 -0.000193223 1.43467e-05)
(-0.000107831 -0.000217069 1.43055e-05)
(-8.83934e-05 -0.000237639 1.41831e-05)
(-6.55593e-05 -0.000253297 1.38866e-05)
(-4.03294e-05 -0.000263064 1.35019e-05)
(-1.36158e-05 -0.000269655 1.34003e-05)
(1.68026e-05 -0.000314256 1.68026e-05)
(5.15808e-05 -0.000311133 1.73684e-05)
(8.55247e-05 -0.000301497 1.79237e-05)
(0.00011476 -0.000287251 1.85136e-05)
(0.000137973 -0.000267465 1.90406e-05)
(0.000154052 -0.000242135 1.94887e-05)
(0.000162791 -0.000212259 1.96818e-05)
(0.000164481 -0.000179878 1.98327e-05)
(0.000159386 -0.0001473 2.00871e-05)
(0.000147694 -0.00011657 2.04159e-05)
(0.000129716 -8.92721e-05 2.07459e-05)
(0.000106081 -6.65084e-05 2.10007e-05)
(7.78614e-05 -4.89771e-05 2.1179e-05)
(4.64332e-05 -3.70396e-05 2.12787e-05)
(1.31872e-05 -3.0712e-05 2.12902e-05)
(-2.05537e-05 -2.98473e-05 2.12021e-05)
(-5.34169e-05 -3.45024e-05 2.09685e-05)
(-8.39798e-05 -4.49665e-05 2.06057e-05)
(-0.000110885 -6.14336e-05 2.01741e-05)
(-0.000132976 -8.36586e-05 1.97439e-05)
(-0.000149361 -0.000110734 1.93549e-05)
(-0.000159382 -0.000141352 1.90321e-05)
(-0.000162579 -0.000173955 1.8761e-05)
(-0.000158696 -0.000207006 1.85194e-05)
(-0.000147802 -0.000238992 1.82929e-05)
(-0.000130489 -0.000268165 1.80054e-05)
(-0.000107786 -0.000292574 1.75518e-05)
(-8.0655e-05 -0.000310732 1.69686e-05)
(-4.97521e-05 -0.000322507 1.65864e-05)
(-1.67342e-05 -0.000330026 1.671e-05)
(2.11028e-05 -0.000390072 2.11028e-05)
(6.36158e-05 -0.000389509 2.18058e-05)
(0.00010381 -0.000376318 2.24078e-05)
(0.000137865 -0.000357182 2.3016e-05)
(0.000164496 -0.000330908 2.34726e-05)
(0.000183067 -0.000298341 2.35695e-05)
(0.000193627 -0.000261184 2.36908e-05)
(0.000196257 -0.000221835 2.39623e-05)
(0.000190931 -0.000182571 2.43735e-05)
(0.000177608 -0.000145413 2.48521e-05)
(0.000156544 -0.000112124 2.53127e-05)
(0.000128542 -8.4217e-05 2.5724e-05)
(9.49098e-05 -6.2795e-05 2.60624e-05)
(5.71923e-05 -4.83128e-05 2.6324e-05)
(1.69423e-05 -4.07202e-05 2.64595e-05)
(-2.41569e-05 -3.98471e-05 2.64093e-05)
(-6.42496e-05 -4.58017e-05 2.61713e-05)
(-0.000101459 -5.89483e-05 2.57803e-05)
(-0.000134062 -7.94053e-05 2.53319e-05)
(-0.000160687 -0.000106715 2.48833e-05)
(-0.000180344 -0.000139736 2.44641e-05)
(-0.00019235 -0.000176931 2.4056e-05)
(-0.000196231 -0.000216514 2.3626e-05)
(-0.000191743 -0.000256674 2.3184e-05)
(-0.000179055 -0.000295361 2.27086e-05)
(-0.000158861 -0.000330149 2.2125e-05)
(-0.00013201 -0.000358908 2.13684e-05)
(-9.90896e-05 -0.000380761 2.06825e-05)
(-6.09283e-05 -0.000396021 2.04902e-05)
(-2.03695e-05 -0.000404476 2.07195e-05)
(2.61391e-05 -0.000484429 2.61391e-05)
(7.72866e-05 -0.000484326 2.68496e-05)
(0.000124277 -0.000466479 2.74669e-05)
(0.000164126 -0.000440801 2.77447e-05)
(0.000195599 -0.000406702 2.79003e-05)
(0.000218141 -0.000365901 2.81269e-05)
(0.000231572 -0.000320732 2.8531e-05)
(0.000235644 -0.000273563 2.91295e-05)
(0.00022998 -0.0002265 2.98402e-05)
(0.000214468 -0.000181658 3.05489e-05)
(0.000189558 -0.000141256 3.12192e-05)
(0.000156302 -0.000107322 3.18265e-05)
(0.000116156 -8.12751e-05 3.23642e-05)
(7.07822e-05 -6.36091e-05 3.27635e-05)
(2.20123e-05 -5.42936e-05 3.29597e-05)
(-2.79523e-05 -5.3345e-05 3.2896e-05)
(-7.66517e-05 -6.10064e-05 3.26154e-05)
(-0.000121732 -7.76485e-05 3.22017e-05)
(-0.00016115 -0.000103181 3.17275e-05)
(-0.000193358 -0.000136757 3.12199e-05)
(-0.000217255 -0.000176913 3.06778e-05)
(-0.00023201 -0.000221829 3.0067e-05)
(-0.000236987 -0.000269515 2.94131e-05)
(-0.000231949 -0.000317725 2.87254e-05)