/*--------------------------------*- C++ -*----------------------------------*\
| =========                 |                                                 |
| \\      /  F ield         | OpenFOAM: The Open Source CFD Toolbox           |
|  \\    /   O peration     | Version:  2312                                  |
|   \\  /    A nd           | Website:  www.openfoam.com                      |
|    \\/     M anipulation  |                                                 |
\*---------------------------------------------------------------------------*/
FoamFile
{
    version     2.0;
    format      ascii;
    arch        "LSB;label=32;scalar=64";
    class       surfaceScalarField;
    location    "0.748016";
    object      alphaPhi0.water;
}
// * * * * * * * * * * * * * * * * * * * * * * * * * * * * * * * * * * * * * //

dimensions      [0 3 -1 0 0 0 0];

oriented        oriented;

internalField   nonuniform List<scalar> 
263100
(
1.22656e-10
-2.45313e-10
1.22656e-10
-1.51873e-09
1.60154e-09
-3.96624e-10
-2.46182e-09
1.07557e-09
-4.87432e-10
-2.99934e-09
8.55306e-10
-6.28808e-10
-3.19963e-09
6.58384e-10
-7.13188e-10
-3.08477e-09
4.21126e-10
-7.25335e-10
-2.70604e-09
1.98689e-10
-6.95823e-10
-2.16209e-09
4.37657e-11
-6.33822e-10
-1.61796e-09
4.54314e-11
-5.66174e-10
-1.14225e-09
1.41049e-10
-5.31302e-10
-7.78504e-10
3.35245e-10
-5.63855e-10
-4.72319e-10
5.16497e-10
-6.54337e-10
-1.51453e-10
6.31792e-10
-7.69871e-10
2.59419e-10
6.37463e-10
-8.69635e-10
8.11327e-10
5.3252e-10
-9.25665e-10
1.48635e-09
3.46947e-10
-8.94458e-10
2.17198e-09
1.4926e-10
-7.44599e-10
2.68312e-09
4.53638e-11
-5.04278e-10
2.84704e-09
1.00118e-10
-2.46574e-10
2.53995e-09
3.13959e-10
-1.80951e-11
1.71328e-09
6.72001e-10
1.22436e-10
4.10707e-10
1.11009e-09
1.47854e-10
-1.19106e-09
1.46214e-09
9.17735e-11
-2.7861e-09
1.58312e-09
-2.98974e-11
-3.92328e-09
1.31015e-09
-2.00608e-10
-4.29758e-09
6.59883e-10
-2.94549e-10
-4.10344e-09
-1.23008e-10
-6.34946e-11
-3.89941e-09
-8.70084e-10
6.80285e-10
-4.39859e-09
-2.37962e-09
2.88444e-09
-1.62454e-08
1.18347e-08
-5.93586e-10
4.77039e-10
-5.93586e-10
-9.7088e-10
1.89365e-09
-5.43764e-10
-1.20647e-09
1.32994e-09
-5.33411e-10
-1.3574e-09
1.00756e-09
-4.21376e-10
-1.41372e-09
6.93869e-10
-2.90815e-10
-1.39681e-09
3.81393e-10
-1.72493e-10
-1.31649e-09
1.34484e-10
-9.35531e-11
-1.19616e-09
2.05692e-11
-6.14797e-11
-1.01173e-09
4.88725e-11
-5.11841e-11
-7.84696e-10
1.96445e-10
-6.42601e-11
-4.8554e-10
4.03297e-10
-9.35559e-11
-1.26824e-10
5.62086e-10
-1.04759e-10
2.60168e-10
6.27162e-10
-8.62258e-11
6.35479e-10
5.72587e-10
-4.27419e-11
9.73526e-10
4.21595e-10
-5.63238e-12
1.21563e-09
2.39773e-10
3.11757e-11
1.32062e-09
1.35253e-10
1.88099e-11
1.32714e-09
1.4557e-10
-4.77454e-11
1.21138e-09
3.62428e-10
-1.28717e-10
9.77105e-10
7.8213e-10
-2.45601e-10
6.79856e-10
1.29944e-09
-3.59296e-10
3.44719e-10
1.7862e-09
-3.75474e-10
6.83775e-11
2.04122e-09
-3.31237e-10
-5.96438e-11
1.89767e-09
-1.98874e-10
5.76122e-11
1.19819e-09
8.03559e-12
4.52955e-10
1.442e-10
1.82091e-10
9.8674e-10
-7.04784e-10
2.81355e-10
4.1041e-10
4.90258e-10
2.03913e-10
-4.01188e-09
4.79062e-09
8.30808e-10
-1.31345e-08
4.224e-09
-4.42584e-10
1.03435e-09
-4.42584e-10
1.41327e-11
1.30209e-09
-2.24121e-10
2.77901e-10
8.77069e-10
-9.38397e-11
3.96997e-10
6.51798e-10
1.62339e-11
3.71081e-10
4.54502e-10
1.11015e-10
2.06054e-10
2.89419e-10
1.70408e-10
-4.53468e-11
1.91299e-10
1.74931e-10
-2.85023e-10
1.73264e-10
1.30816e-10
-4.32051e-10
2.36151e-10
5.98647e-11
-3.98377e-10
3.28312e-10
-2.0351e-11
-1.88929e-10
4.18709e-10
-4.89398e-11
1.4458e-10
4.51858e-10
-3.2049e-11
5.05736e-10
4.33498e-10
2.51444e-11
7.54634e-10
3.89778e-10
1.17748e-10
7.94269e-10
3.72e-10
1.79646e-10
6.27672e-10
3.8585e-10
1.75273e-10
3.1672e-10
5.13704e-10
7.47352e-11
-2.31165e-11
7.24813e-10
-1.06252e-10
-2.5114e-10
1.01197e-09
-2.95003e-10
-1.92434e-10
1.36799e-09
-5.24567e-10
2.03841e-10
1.68845e-09
-6.74305e-10
8.87505e-10
1.89847e-09
-6.98297e-10
1.74562e-09
1.85799e-09
-5.96169e-10
2.59858e-09
1.45713e-09
-3.61478e-10
3.24748e-09
7.12366e-10
-1.66551e-10
3.56694e-09
-4.22723e-10
7.29746e-11
4.22655e-09
-2.12816e-09
-6.01027e-11
6.00687e-09
-2.7058e-09
-1.42281e-09
9.99055e-10
5.26177e-09
-2.02343e-09
-6.79725e-09
-3.58241e-09
-1.36508e-10
1.1262e-09
-1.36508e-10
8.1403e-10
1.14375e-10
1.45483e-10
1.36714e-09
2.38243e-11
2.38504e-10
1.63871e-09
2.56379e-12
3.41342e-10
1.61638e-09
6.9855e-11
3.9151e-10
1.33218e-09
1.93434e-10
3.82419e-10
8.87754e-10
3.33581e-10
3.20474e-10
4.20039e-10
4.70454e-10
2.0433e-10
6.62724e-11
5.57848e-10
8.0712e-11
-1.00517e-10
5.82577e-10
-2.49515e-11
-7.23149e-11
5.25311e-10
-5.92279e-11
8.89222e-11
4.32578e-10
-5.31379e-11
2.7316e-10
3.71314e-10
-1.7995e-11
3.48445e-10
4.00828e-10
3.68185e-11
2.457e-10
5.73646e-10
4.82407e-11
-3.24622e-11
8.37947e-10
1.37766e-12
-3.86637e-10
1.18184e-09
-1.09077e-10
-6.82909e-10
1.5023e-09
-2.49974e-10
-7.14973e-10
1.70685e-09
-4.14183e-10
-3.61354e-10
1.78645e-09
-5.20632e-10
4.20931e-10
1.72665e-09
-5.84746e-10
1.5318e-09
1.55788e-09
-5.69927e-10
2.75411e-09
1.25076e-09
-4.66863e-10
3.78606e-09
8.58757e-10
-3.43751e-10
4.27969e-09
5.00042e-10
-2.14697e-10
3.82357e-09
2.897e-10
-2.15012e-11
2.62887e-09
-3.77364e-10
3.36235e-10
3.3052e-09
-2.02289e-09
1.68727e-10
2.1868e-09
4.5342e-09
-2.0176e-10
-1.48431e-09
-2.78225e-09
1.45224e-10
8.15941e-10
1.45224e-10
1.35356e-09
-1.40367e-09
4.48214e-10
2.03545e-09
-1.04613e-09
5.09299e-10
2.38551e-09
-7.85997e-10
5.47049e-10
2.38562e-09
-3.7912e-10
5.35701e-10
2.0963e-09
8.74628e-11
4.55254e-10
1.60548e-09
5.21973e-10
3.35183e-10
1.04441e-09
8.41855e-10
1.99101e-10
5.34597e-10
9.9158e-10
6.95371e-11
1.50855e-10
9.74047e-10
-2.0153e-11
-1.03265e-10
8.45238e-10
-7.1767e-11
-2.66083e-10
7.05825e-10
-9.6184e-11
-3.53992e-10
6.26076e-10
-1.18543e-10
-4.39512e-10
7.33833e-10
-1.5303e-10
-5.37568e-10
1.01741e-09
-1.9698e-10
-6.53201e-10
1.40734e-09
-2.4866e-10
-7.25271e-10
1.79952e-09
-2.89466e-10
-6.79454e-10
2.04552e-09
-2.95144e-10
-4.12099e-10
2.0346e-09
-2.83872e-10
1.33791e-10
1.79691e-09
-2.53213e-10
9.17742e-10
1.43297e-09
-2.22284e-10
1.89057e-09
9.92646e-10
-1.98849e-10
2.82814e-09
6.5568e-10
-2.09469e-10
3.48927e-09
5.27713e-10
-2.85997e-10
3.78167e-09
5.76802e-10
-4.62671e-10
3.45127e-09
1.01378e-09
-7.4787e-10
1.75375e-09
1.79095e-09
-9.4598e-10
4.06787e-10
8.62579e-10
-9.93478e-10
4.65642e-10
4.86861e-09
-8.96088e-10
1.69786e-09
-2.60465e-09
3.63277e-10
1.97206e-10
3.63277e-10
1.5286e-09
-2.86906e-09
5.8724e-10
2.18866e-09
-2.07546e-09
6.06964e-10
2.5722e-09
-1.53107e-09
5.61704e-10
2.67982e-09
-8.02532e-10
4.68221e-10
2.53162e-09
-1.04485e-11
3.45907e-10
2.17351e-09
7.07231e-10
2.22034e-10
1.67004e-09
1.23711e-09
1.15336e-10
1.07729e-09
1.52804e-09
3.54446e-11
4.52626e-10
1.58706e-09
-1.89247e-11
-1.52178e-10
1.48745e-09
-5.74005e-11
-6.85307e-10
1.35106e-09
-1.01664e-10
-1.07895e-09
1.26058e-09
-1.83468e-10
-1.26828e-09
1.30092e-09
-2.62973e-10
-1.25956e-09
1.47794e-09
-2.94621e-10
-1.07389e-09
1.72413e-09
-2.74389e-10
-7.43846e-10
1.93678e-09
-2.00514e-10
-3.32136e-10
1.98067e-09
-6.22896e-11
1.49924e-10
1.78802e-09
4.23453e-11
6.63283e-10
1.37753e-09
1.52195e-10
1.17218e-09
8.90354e-10
2.25973e-10
1.60469e-09
4.67365e-10
2.14078e-10
1.88825e-09
3.33225e-10
8.2527e-11
1.90145e-09
6.16539e-10
-1.14441e-10
1.59007e-09
1.25417e-09
-3.66087e-10
1.19622e-09
2.1672e-09
-7.46806e-10
3.82756e-10
3.64918e-09
-1.26468e-09
-9.32493e-10
3.85172e-09
-1.55612e-09
-6.1391e-10
6.01765e-09
-1.5141e-09
3.21481e-09
-2.00217e-09
3.7948e-10
-3.785e-10
3.7948e-10
1.31395e-09
-3.93204e-09
4.86699e-10
1.90346e-09
-2.79167e-09
4.25266e-10
2.35924e-09
-2.03697e-09
3.04324e-10
2.65647e-09
-1.08077e-09
1.80994e-10
2.77996e-09
-6.3653e-11
7.15749e-11
2.68312e-09
8.87026e-10
4.91017e-12
2.33535e-09
1.64046e-09
-1.02174e-11
1.74036e-09
2.1297e-09
1.36656e-11
9.33622e-10
2.3713e-09
3.84527e-11
1.75208e-11
2.407e-09
2.86743e-11
-8.42723e-10
2.28962e-09
-1.32624e-11
-1.4854e-09
2.07893e-09
-6.78218e-11
-1.79191e-09
1.87593e-09
-1.16833e-10
-1.72311e-09
1.72095e-09
-1.24265e-10
-1.35107e-09
1.60029e-09
-3.99228e-11
-7.77683e-10
1.48869e-09
8.44978e-11
-1.64727e-10
1.30319e-09
2.56425e-10
3.65874e-10
9.81441e-10
4.34064e-10
6.971e-10
6.0283e-10
5.58279e-10
8.0574e-10
2.41326e-10
6.10858e-10
7.0925e-10
7.61729e-11
5.21042e-10
4.48035e-10
2.69876e-10
3.29597e-10
5.35925e-11
9.30414e-10
5.77581e-11
-5.0764e-10
2.03571e-09
-2.44188e-10
-9.87241e-10
3.30127e-09
-5.7313e-10
-1.09773e-09
4.79258e-09
-9.46883e-10
-1.44584e-09
5.47034e-09
-1.11196e-09
-6.316e-10
6.35953e-09
-1.0189e-09
3.59319e-09
-8.68334e-10
1.6053e-10
-4.82249e-10
1.6053e-10
8.47393e-10
-4.40592e-09
1.56114e-10
1.38482e-09
-3.06555e-09
5.06478e-11
1.95342e-09
-2.22392e-09
-1.0881e-10
2.50316e-09
-1.20802e-09
-2.00108e-10
2.93218e-09
-1.10424e-10
-2.13088e-10
3.12498e-09
9.62019e-10
-1.46545e-10
2.98299e-09
1.92648e-09
-5.8535e-11
2.46497e-09
2.67835e-09
3.57036e-11
1.60355e-09
3.15973e-09
1.37435e-10
5.41904e-10
3.34948e-09
1.95855e-10
-4.99783e-10
3.22148e-09
2.06262e-10
-1.31808e-09
2.82112e-09
1.91346e-10
-1.77607e-09
2.24822e-09
2.10803e-10
-1.82835e-09
1.63337e-09
2.60204e-10
-1.55339e-09
1.07511e-09
3.4963e-10
-1.07748e-09
5.92061e-10
4.85988e-10
-5.88683e-10
1.99481e-10
6.39873e-10
-2.44044e-10
-1.31274e-10
7.55596e-10
-1.03681e-10
-3.86069e-10
8.10103e-10
-1.96681e-10
-4.69791e-10
7.5753e-10
-5.12711e-10
-2.90302e-10
6.50681e-10
-9.64281e-10
2.30173e-10
5.02365e-10
-1.42982e-09
1.13801e-09
3.2885e-10
-1.80105e-09
2.36432e-09
1.52083e-10
-2.06156e-09
3.68202e-09
4.61153e-11
-1.77046e-09
4.79793e-09
-7.49772e-11
-1.33677e-09
5.28866e-09
-3.89147e-11
-2.40871e-10
5.29907e-09
1.27086e-10
3.00765e-09
4.3672e-10
-2.16208e-10
1.6947e-10
-2.16208e-10
3.07523e-10
-4.32893e-09
-2.85146e-10
8.40852e-10
-2.93138e-09
-4.00374e-10
1.521e-09
-2.21283e-09
-4.64437e-10
2.23481e-09
-1.29708e-09
-4.45304e-10
2.87718e-09
-2.72128e-10
-3.4929e-10
3.29244e-09
8.3723e-10
-2.01e-10
3.34496e-09
1.94692e-09
-1.44509e-11
2.99862e-09
2.93369e-09
1.31057e-10
2.28107e-09
3.64102e-09
2.68117e-10
1.33348e-09
3.9497e-09
3.75771e-10
3.40545e-10
3.77081e-09
4.66546e-10
-5.3445e-10
3.15571e-09
5.49543e-10
-1.1758e-09
2.23785e-09
6.35114e-10
-1.58304e-09
1.25379e-09
7.33091e-10
-1.77112e-09
3.60122e-10
8.06054e-10
-1.79173e-09
-3.77321e-10
8.52197e-10
-1.71478e-09
-8.89376e-10
8.46091e-10
-1.62061e-09
-1.18191e-09
7.84413e-10
-1.57068e-09
-1.26905e-09
6.81887e-10
-1.58219e-09
-1.13676e-09
5.74515e-10
-1.69066e-09
-7.252e-10
5.05199e-10
-1.86149e-09
-2.01215e-11
4.59603e-10
-2.04264e-09
9.6233e-10
4.80844e-10
-2.10045e-09
2.0983e-09
5.1162e-10
-1.96886e-09
3.16631e-09
5.86591e-10
-1.45668e-09
3.83416e-09
6.5681e-10
-7.05167e-10
3.89545e-09
7.93054e-10
1.42648e-10
3.56448e-09
9.7107e-10
2.0925e-09
1.09162e-09
-4.21852e-10
1.1921e-09
-4.21852e-10
-2.23003e-11
-4.06931e-09
-4.7357e-10
4.30458e-10
-2.76235e-09
-4.81223e-10
1.04723e-09
-2.27607e-09
-4.55398e-10
1.72343e-09
-1.59464e-09
-3.25099e-10
2.34327e-09
-7.15991e-10
-1.63886e-10
2.7878e-09
3.68713e-10
1.67666e-12
2.98712e-09
1.55879e-09
1.40281e-10
2.91292e-09
2.69654e-09
2.42897e-10
2.57838e-09
3.54233e-09
3.47047e-10
2.02581e-09
3.93548e-09
4.5989e-10
1.32604e-09
3.74049e-09
5.95661e-10
5.29003e-10
3.03639e-09
7.46483e-10
-3.22423e-10
2.01184e-09
8.66934e-10
-1.21441e-09
9.74711e-10
9.21103e-10
-2.04442e-09
1.30274e-11
8.97599e-10
-2.72524e-09
-7.65524e-10
7.78515e-10
-3.14674e-09
-1.31452e-09
5.69726e-10
-3.26779e-09
-1.64038e-09
3.42176e-10
-3.15505e-09
-1.73385e-09
1.76788e-10
-2.87598e-09
-1.61811e-09
1.04207e-10
-2.52232e-09
-1.22474e-09
1.28456e-10
-2.19314e-09
-5.17761e-10
2.19083e-10
-1.91984e-09
4.22417e-10
3.65674e-10
-1.60421e-09
1.37589e-09
5.3185e-10
-1.17288e-09
2.13648e-09
7.01093e-10
-5.74024e-10
2.44032e-09
8.62079e-10
5.63398e-12
2.33106e-09
1.00696e-09
3.95086e-10
2.13079e-09
1.0522e-09
1.61168e-09
9.09108e-10
-1.33092e-10
1.54565e-09
-1.33092e-10
-7.17098e-11
-3.9827e-09
-1.36712e-10
1.06238e-10
-2.9433e-09
-2.19239e-11
3.77094e-10
-2.66691e-09
5.97304e-11
6.94503e-10
-2.19425e-09
1.91492e-10
1.00573e-09
-1.42827e-09
2.86732e-10
1.29987e-09
-3.7421e-10
3.17025e-10
1.58987e-09
8.35078e-10
2.87663e-10
1.88817e-09
2.00139e-09
2.35325e-10
2.1413e-09
2.88242e-09
2.24706e-10
2.22929e-09
3.33071e-09
3.07307e-10
2.01983e-09
3.28348e-09
4.2423e-10
1.41751e-09
2.80516e-09
5.58276e-10
4.05008e-10
2.09192e-09
6.31291e-10
-8.70589e-10
1.34507e-09
5.93527e-10
-2.25451e-09
6.79959e-10
4.16027e-10
-3.42919e-09
-3.08377e-12
1.45117e-10
-4.22774e-09
-5.80147e-10
-1.49572e-10
-4.46922e-09
-1.15913e-09
-3.8902e-10
-4.21758e-09
-1.56993e-09
-5.00515e-10
-3.6158e-09
-1.76426e-09
-4.87006e-10
-2.88853e-09
-1.5972e-09
-3.50033e-10
-2.17067e-09
-1.09192e-09
-1.25941e-10
-1.52969e-09
-3.24892e-10
1.10768e-10
-9.07758e-10
4.44974e-10
2.86898e-10
-3.11446e-10
1.022e-09
4.58448e-10
1.8996e-10
1.27452e-09
5.87413e-10
4.42029e-10
1.38975e-09
6.33905e-10
4.28335e-10
1.58341e-09
5.75523e-10
1.56887e-09
5.53105e-10
6.63872e-10
1.92735e-10
6.63872e-10
3.06923e-11
-4.09238e-09
6.29803e-10
-3.6389e-10
-3.42977e-09
7.55083e-10
-7.24993e-10
-3.20227e-09
7.61821e-10
-1.03621e-09
-2.78963e-09
7.72474e-10
-1.20424e-09
-2.04685e-09
6.59211e-10
-1.10105e-09
-1.054e-09
4.5676e-10
-6.59035e-10
7.53494e-11
2.00522e-10
1.09e-10
1.10023e-09
9.49942e-12
1.04177e-09
1.89832e-09
-8.85431e-11
1.84417e-09
2.43861e-09
-7.28816e-11
2.18949e-09
2.75561e-09
-2.1784e-12
1.88468e-09
2.88321e-09
2.92878e-11
9.21408e-10
2.88217e-09
-1.97783e-11
-4.85627e-10
2.74554e-09
-1.59987e-10
-2.04588e-09
2.47042e-09
-3.50633e-10
-3.44461e-09
1.93117e-09
-5.97902e-10
-4.30525e-09
1.08397e-09
-8.08213e-10
-4.55114e-09
5.93814e-11
-9.33153e-10
-4.24819e-09
-9.00502e-10
-9.1204e-10
-3.59942e-09
-1.59314e-09
-7.66353e-10
-2.78925e-09
-1.84652e-09
-5.38606e-10
-1.96721e-09
-1.64651e-09
-2.9189e-10
-1.18471e-09
-1.13065e-09
-5.38874e-11
-4.35603e-10
-5.28109e-10
1.07015e-10
2.22949e-10
-3.34815e-12
2.39308e-10
6.47932e-10
4.28699e-10
3.31854e-10
7.61288e-10
8.81619e-10
3.91479e-10
6.5117e-10
1.30712e-09
4.79934e-10
1.57778e-09
7.57618e-10
1.5363e-09
-2.96883e-09
1.5363e-09
5.21006e-11
-4.04861e-09
1.34447e-09
-1.11768e-09
-3.67272e-09
1.33381e-09
-2.20845e-09
-3.32944e-09
1.16544e-09
-3.13429e-09
-2.79619e-09
9.12282e-10
-3.69461e-09
-2.04138e-09
5.65895e-10
-3.66499e-09
-1.23458e-09
1.84661e-10
-2.95814e-09
-4.39874e-10
-1.48506e-10
-1.68194e-09
2.31634e-10
-3.69199e-10
-1.3805e-10
8.41592e-10
-4.63518e-10
1.22235e-09
1.53778e-09
-4.5279e-10
2.01488e-09
2.36596e-09
-4.05498e-10
2.02576e-09
3.27203e-09
-3.96309e-10
1.30862e-09
4.11705e-09
-4.89514e-10
1.04502e-10
4.66052e-09
-6.42051e-10
-1.23749e-09
4.70546e-09
-7.7736e-10
-2.38557e-09
4.11922e-09
-8.84256e-10
-3.09777e-09
2.89608e-09
-9.24102e-10
-3.3548e-09
1.32079e-09
-8.35955e-10
-3.23688e-09
-2.39147e-10
-6.45266e-10
-2.90508e-09
-1.41344e-09
-4.31168e-10
-2.40421e-09
-2.10105e-09
-2.2695e-10
-1.82205e-09
-2.20594e-09
-5.66013e-11
-1.13176e-09
-1.94858e-09
6.10846e-11
-3.61154e-10
-1.51456e-09
1.50008e-10
3.4666e-10
-1.01387e-09
2.78719e-10
8.41421e-10
-4.64185e-10
4.51877e-10
1.04667e-09
1.2923e-10
6.81552e-10
9.26414e-10
6.22732e-10
9.68863e-10
1.36557e-09
1.23935e-09
1.95904e-09
-6.93906e-09
1.95904e-09
-3.8081e-10
-2.96637e-09
1.31029e-09
-2.13361e-09
-2.96624e-09
1.12871e-09
-3.62316e-09
-2.506e-09
7.89734e-10
-4.76292e-09
-1.90935e-09
4.14539e-10
-5.29899e-09
-1.32668e-09
1.01648e-11
-5.13087e-09
-9.48867e-10
-2.53124e-10
-4.11866e-09
-7.91679e-10
-4.63454e-10
-2.50572e-09
-6.64154e-10
-5.35579e-10
-7.15775e-10
-3.05526e-10
-4.80648e-10
8.1169e-10
5.42569e-10
-3.84835e-10
1.76011e-09
1.90866e-09
-3.47128e-10
2.02792e-09
3.55187e-09
-3.93452e-10
1.71271e-09
5.08754e-09
-4.80908e-10
1.02857e-09
6.07401e-09
-5.33705e-10
2.37529e-10
6.25596e-09
-5.52773e-10
-4.82641e-10
5.51475e-09
-4.76885e-10
-1.06838e-09
3.94017e-09
-2.90157e-10
-1.5152e-09
1.96612e-09
-7.78583e-11
-1.85392e-09
5.58155e-11
1.11217e-10
-2.08024e-09
-1.43309e-09
2.68444e-10
-2.17849e-09
-2.34491e-09
3.39129e-10
-1.99611e-09
-2.73298e-09
3.42494e-10
-1.49003e-09
-2.73754e-09
3.10188e-10
-7.56221e-10
-2.51305e-09
3.47777e-10
5.08401e-12
-2.10578e-09
4.84868e-10
5.72515e-10
-1.52567e-09
7.07562e-10
8.22144e-10
-9.03567e-10
1.00332e-09
5.88886e-10
-1.82312e-10
1.19492e-09
1.05928e-09
9.6383e-10
1.32697e-09
-9.53654e-09
1.32697e-09
-1.17095e-09
-7.88558e-10
5.26226e-10
-2.9007e-09
-1.26556e-09
2.45627e-10
-4.13703e-09
-9.14309e-10
-1.17745e-10
-4.97003e-09
-5.28586e-10
-2.99187e-10
-5.16533e-09
-4.88709e-10
-3.96102e-10
-4.60884e-09
-8.49783e-10
-4.22846e-10
-3.3407e-09
-1.49237e-09
-3.55753e-10
-1.79757e-09
-1.86245e-09
-1.54789e-10
-3.00328e-10
-1.6566e-09
2.77246e-11
8.66032e-10
-5.7503e-10
1.1795e-10
1.60283e-09
1.21403e-09
1.2553e-10
1.93346e-09
3.33667e-09
5.60956e-11
2.00499e-09
5.2457e-09
-5.97817e-11
1.89637e-09
6.39821e-09
-6.10337e-11
1.68437e-09
6.53716e-09
5.21888e-11
1.35538e-09
5.66611e-09
2.51008e-10
8.33899e-10
3.97542e-09
5.06975e-10
9.41147e-11
1.95555e-09
7.28406e-10
-8.00052e-10
6.89504e-11
8.39257e-10
-1.6828e-09
-1.40185e-09
8.19595e-10
-2.29858e-09
-2.39506e-09
6.71762e-10
-2.44991e-09
-3.00022e-09
4.81885e-10
-2.13805e-09
-3.29546e-09
3.76349e-10
-1.5138e-09
-3.34969e-09
4.06414e-10
-8.74563e-10
-3.04154e-09
5.31579e-10
-4.69578e-10
-2.37016e-09
6.66826e-10
-4.08755e-10
-1.50383e-09
6.99012e-10
-5.85992e-10
-3.78445e-10
4.49747e-10
6.10009e-10
-8.56724e-11
1.03422e-10
-9.60284e-09
1.03422e-10
-1.63306e-09
1.74312e-09
-5.60587e-10
-2.65957e-09
6.00651e-10
-6.27878e-10
-3.21529e-09
5.74891e-10
-7.34927e-10
-3.28023e-09
3.70272e-10
-6.54732e-10
-2.79948e-09
-3.48052e-10
-4.65147e-10
-1.90179e-09
-1.42911e-09
-1.83108e-10
-8.54876e-10
-2.56751e-09
1.49718e-10
1.21071e-10
-3.14204e-09
4.21835e-10
7.66037e-10
-2.76879e-09
5.91936e-10
1.12023e-09
-1.40804e-09
6.14757e-10
1.3293e-09
6.59647e-10
4.88846e-10
1.58855e-09
2.89809e-09
3.17682e-10
1.94696e-09
4.76429e-09
2.37294e-10
2.30676e-09
5.832e-09
2.7784e-10
2.49332e-09
5.92256e-09
4.45797e-10
2.3466e-09
5.08634e-09
6.94234e-10
1.70793e-09
3.6374e-09
9.14192e-10
6.30938e-10
1.97197e-09
9.98998e-10
-6.59676e-10
4.0036e-10
9.30818e-10
-1.86073e-09
-9.36248e-10
7.63044e-10
-2.66446e-09
-2.0513e-09
5.50589e-10
-2.96626e-09
-2.96532e-09
4.12522e-10
-2.83969e-09
-3.63812e-09
3.9844e-10
-2.53696e-09
-3.91565e-09
4.55357e-10
-2.29409e-09
-3.61164e-09
4.91505e-10
-2.22059e-09
-2.73651e-09
3.88437e-10
-2.2551e-09
-1.52879e-09
7.69447e-11
-1.91852e-09
-3.54327e-10
-3.61718e-10
-8.41036e-10
-4.31974e-10
-9.08483e-10
-7.65525e-09
-9.08483e-10
-1.30355e-09
3.46526e-09
-1.18871e-09
-1.24999e-09
1.68463e-09
-1.03333e-09
-7.98947e-10
1.14059e-09
-9.35893e-10
3.28223e-11
2.07198e-10
-6.06502e-10
1.00486e-09
-1.08047e-09
-1.86745e-10
1.88672e-09
-2.53723e-09
2.82846e-10
2.36237e-09
-3.61208e-09
6.43251e-10
2.36692e-09
-3.90038e-09
8.56043e-10
1.96958e-09
-3.11682e-09
8.77364e-10
1.47367e-09
-1.46953e-09
7.10287e-10
1.20777e-09
6.36352e-10
4.44663e-10
1.3106e-09
2.63399e-09
2.96418e-10
1.73522e-09
4.15472e-09
2.79912e-10
2.21717e-09
4.98559e-09
4.10633e-10
2.45938e-09
5.06563e-09
6.1985e-10
2.23431e-09
4.49273e-09
8.0632e-10
1.4305e-09
3.51822e-09
9.25052e-10
2.08807e-10
2.30494e-09
9.33643e-10
-1.10634e-09
9.62966e-10
8.54138e-10
-2.25542e-09
-3.2274e-10
6.88071e-10
-3.04402e-09
-1.71739e-09
6.37127e-10
-3.4557e-09
-3.04054e-09
6.72913e-10
-3.65095e-09
-4.02523e-09
7.47532e-10
-3.83903e-09
-4.35853e-09
7.51982e-10
-4.04105e-09
-3.96653e-09
6.11428e-10
-4.07856e-09
-3.03412e-09
3.18839e-10
-3.649e-09
-2.006e-09
3.59867e-12
-2.29084e-09
-1.74554e-09
3.06474e-11
-3.49455e-09
3.75946e-10
-1.16512e-09
-5.26872e-09
-1.16512e-09
-6.45186e-11
3.31515e-09
-9.11431e-10
1.06154e-09
1.29418e-09
-7.08343e-10
2.39283e-09
2.94532e-10
-4.5962e-10
3.68004e-09
-9.38545e-10
-1.08048e-10
4.79061e-09
-2.42934e-09
2.90567e-10
5.36505e-09
-3.64295e-09
6.12455e-10
5.17697e-09
-4.14666e-09
8.37844e-10
4.32098e-09
-3.7692e-09
8.70468e-10
3.15108e-09
-2.54233e-09
7.58279e-10
2.12257e-09
-8.52614e-10
5.70997e-10
1.54479e-09
8.83043e-10
4.64813e-10
1.43087e-09
2.36061e-09
4.79122e-10
1.64386e-09
3.38514e-09
6.03191e-10
1.86042e-09
3.96354e-09
8.19316e-10
1.81308e-09
4.11107e-09
1.00815e-09
1.33887e-09
3.85984e-09
1.13482e-09
4.41392e-10
3.28664e-09
1.19944e-09
-7.21906e-10
2.4204e-09
1.16519e-09
-1.88425e-09
1.14789e-09
1.12756e-09
-2.88203e-09
-2.94224e-10
1.12749e-09
-3.6378e-09
-1.98276e-09
1.16514e-09
-4.2683e-09
-3.5067e-09
1.21529e-09
-4.87137e-09
-4.5032e-09
1.17161e-09
-5.3928e-09
-4.75439e-09
9.76221e-10
-5.56559e-09
-4.4551e-09
6.8571e-10
-5.09812e-09
-3.98958e-09
4.95551e-10
-3.77855e-09
-3.87022e-09
5.78527e-10
-1.75821e-09
-4.60658e-09
9.04587e-10
-6.4302e-09
1.19964e-09
-5.56534e-10
-4.14762e-09
-5.56534e-10
1.58015e-09
1.28547e-09
-8.01484e-11
3.41952e-09
-5.71938e-10
6.70046e-11
5.10877e-09
-1.58487e-09
2.47451e-10
6.65393e-09
-2.90035e-09
4.93394e-10
7.65707e-09
-4.06011e-09
7.24271e-10
7.84824e-09
-4.64845e-09
9.26877e-10
7.22488e-09
-4.41991e-09
1.01464e-09
5.98391e-09
-3.4312e-09
1.01003e-09
4.55457e-09
-2.01904e-09
9.83123e-10
3.32151e-09
-5.80055e-10
9.91948e-10
2.46815e-09
6.25077e-10
1.09123e-09
1.94941e-09
1.56383e-09
1.25161e-09
1.59417e-09
2.22948e-09
1.42393e-09
1.20673e-09
2.67946e-09
1.58915e-09
6.38427e-10
2.94502e-09
1.6813e-09
-1.32789e-10
2.94967e-09
1.66955e-09
-1.06122e-09
2.62827e-09
1.61005e-09
-2.07198e-09
1.89531e-09
1.57337e-09
-3.10878e-09
6.75444e-10
1.53727e-09
-4.04508e-09
-8.97999e-10
1.54641e-09
-4.95293e-09
-2.57821e-09
1.495e-09
-5.85679e-09
-3.9504e-09
1.34401e-09
-6.61349e-09
-4.76858e-09
1.03815e-09
-6.89715e-09
-5.16545e-09
7.30364e-10
-6.46524e-09
-5.48186e-09
6.48118e-10
-5.14881e-09
-5.99667e-09
7.75604e-10
-3.14081e-09
-6.79509e-09
1.04061e-09
-1.28749e-09
-7.63418e-09
1.28504e-09
-8.75635e-09
1.11557e-09
4.12184e-10
-4.95027e-09
4.12184e-10
3.08858e-09
-2.08748e-09
7.48169e-10
5.23213e-09
-3.44654e-09
7.91037e-10
7.23111e-09
-4.47025e-09
9.51317e-10
8.81694e-09
-5.57538e-09
1.15351e-09
9.71599e-09
-6.25664e-09
1.35259e-09
9.76411e-09
-6.16427e-09
1.50084e-09
9.02383e-09
-5.27674e-09
1.59291e-09
7.78347e-09
-3.90488e-09
1.65864e-09
6.36938e-09
-2.46406e-09
1.74648e-09
5.00193e-09
-1.25152e-09
1.87573e-09
3.7106e-09
-3.48903e-10
2.072e-09
2.49263e-09
3.4396e-10
2.24415e-09
1.29859e-09
9.68054e-10
2.2912e-09
1.42636e-10
1.50972e-09
2.20989e-09
-9.51005e-10
1.92324e-09
2.0487e-09
-1.97568e-09
2.07162e-09
1.86687e-09
-2.95814e-09
1.8484e-09
1.72892e-09
-3.94035e-09
1.19964e-09
1.62301e-09
-4.96591e-09
7.54089e-11
1.54421e-09
-6.03135e-09
-1.34651e-09
1.42411e-09
-7.09955e-09
-2.77428e-09
1.19658e-09
-7.96209e-09
-4.01687e-09
9.04126e-10
-8.31481e-09
-5.11647e-09
7.13425e-10
-7.88246e-09
-6.29936e-09
7.31038e-10
-6.59254e-09
-7.57065e-09
8.39396e-10
-4.68758e-09
-8.91593e-09
1.08209e-09
-2.76642e-09
-9.9199e-09
1.28991e-09
-1.355e-09
-1.01355e-08
1.16058e-09
-1.10272e-08
1.01455e-09
1.21893e-09
-7.35049e-09
1.21893e-09
4.28482e-09
-6.64924e-09
1.50538e-09
6.74581e-09
-7.5174e-09
1.60718e-09
8.91237e-09
-8.45489e-09
1.80079e-09
1.05169e-08
-9.21778e-09
2.00359e-09
1.13434e-08
-9.3276e-09
2.18702e-09
1.13564e-08
-8.57807e-09
2.31117e-09
1.06713e-08
-7.13386e-09
2.41275e-09
9.52631e-09
-5.42752e-09
2.499e-09
8.10214e-09
-3.8386e-09
2.60384e-09
6.45723e-09
-2.55088e-09
2.74873e-09
4.60874e-09
-1.4905e-09
2.82529e-09
2.63632e-09
-5.4356e-10
2.75209e-09
6.8283e-10
3.46461e-10
2.53417e-09
-1.05347e-09
1.03099e-09
2.22939e-09
-2.49641e-09
1.43231e-09
1.97442e-09
-3.71941e-09
1.51411e-09
1.8134e-09
-4.86247e-09
1.3146e-09
1.68003e-09
-6.0383e-09
7.65473e-10
1.58478e-09
-7.27559e-09
-1.48391e-10
1.43154e-09
-8.44933e-09
-1.38679e-09
1.21087e-09
-9.42108e-09
-2.7896e-09
1.02353e-09
-9.83734e-09
-4.44251e-09
8.97963e-10
-9.4536e-09
-6.42729e-09
9.6015e-10
-8.27689e-09
-8.662e-09
1.16965e-09
-6.54598e-09
-1.07943e-08
1.44586e-09
-4.73746e-09
-1.24078e-08
1.64223e-09
-3.13237e-09
-1.31514e-08
1.58972e-09
-1.6025e-09
-1.3037e-08
1.3473e-09
-1.3971e-08
1.34732e-09
2.0581e-09
-1.14718e-08
2.0581e-09
5.43088e-09
-1.24616e-08
2.34997e-09
8.25352e-09
-1.2958e-08
2.52185e-09
1.05466e-08
-1.36082e-08
2.76148e-09
1.20667e-08
-1.3823e-08
2.98895e-09
1.27133e-08
-1.31831e-08
3.11414e-09
1.25989e-08
-1.16979e-08
3.13691e-09
1.19354e-08
-9.70638e-09
3.13528e-09
1.08523e-08
-7.5698e-09
3.12995e-09
9.36747e-09
-5.57774e-09
3.15197e-09
7.42615e-09
-3.77491e-09
3.13842e-09
5.08641e-09
-2.13432e-09
3.01601e-09
2.58086e-09
-7.10104e-10
2.76099e-09
2.29301e-10
2.99494e-10
2.52081e-09
-1.78469e-09
8.15656e-10
2.34931e-09
-3.49016e-09
9.82951e-10
2.24009e-09
-5.04021e-09
9.25795e-10
2.17569e-09
-6.59132e-09
7.56131e-10
2.11252e-09
-8.17548e-09
3.60778e-10
1.99009e-09
-9.66624e-09
-4.03192e-10
1.77628e-09
-1.08283e-08
-1.72723e-09
1.56786e-09
-1.1419e-08
-3.61079e-09
1.47907e-09
-1.12521e-08
-6.16161e-09
1.56728e-09
-1.02837e-08
-9.26573e-09
1.80072e-09
-8.85031e-09
-1.23371e-08
2.11011e-09
-7.31746e-09
-1.47057e-08
2.24204e-09
-5.7581e-09
-1.62029e-08
2.12494e-09
-4.0719e-09
-1.67855e-08
1.84458e-09
-2.01605e-09
-1.69201e-08
1.73367e-09
-1.78173e-08
1.69418e-09
2.93271e-09
-1.74087e-08
2.93271e-09
6.74464e-09
-1.96739e-08
3.27154e-09
9.85886e-09
-1.97263e-08
3.55099e-09
1.21326e-08
-1.97864e-08
3.83025e-09
1.34167e-08
-1.91032e-08
3.95228e-09
1.37973e-08
-1.75189e-08
3.93611e-09
1.35721e-08
-1.52239e-08
3.7502e-09
1.29603e-08
-1.26588e-08
3.5805e-09
1.19249e-08
-9.99286e-09
3.49772e-09
1.03406e-08
-7.37467e-09
3.4519e-09
8.1653e-09
-4.87262e-09
3.37641e-09
5.56457e-09
-2.66247e-09
3.25088e-09
2.89921e-09
-1.02762e-09
3.09336e-09
4.28935e-10
-1.77934e-10
3.01066e-09
-1.81968e-09
4.69554e-11
3.00837e-09
-3.91869e-09
-4.52528e-11
3.04799e-09
-6.06909e-09
-1.21919e-10
3.07831e-09
-8.22915e-09
-1.81435e-10
2.98044e-09
-1.0256e-08
-4.17669e-10
2.72246e-09
-1.18521e-08
-1.35761e-09
2.50078e-09
-1.28608e-08
-3.18457e-09
2.41078e-09
-1.30908e-08
-5.9995e-09
2.50379e-09
-1.25589e-08
-9.61445e-09
2.72106e-09
-1.16074e-08
-1.34136e-08
2.95135e-09
-1.05025e-08
-1.66825e-08
3.03588e-09
-9.19227e-09
-1.90239e-08
2.88978e-09
-7.60709e-09
-2.04542e-08
2.59299e-09
-5.41808e-09
-2.13821e-08
2.32454e-09
-2.65894e-09
-2.20796e-08
2.29402e-09
-2.31849e-08
2.5418e-09
3.90786e-09
-2.53038e-08
3.90786e-09
8.11531e-09
-2.8285e-08
4.34406e-09
1.13751e-08
-2.76772e-08
4.66775e-09
1.35365e-08
-2.67148e-08
4.77317e-09
1.46309e-08
-2.48369e-08
4.66528e-09
1.49465e-08
-2.21881e-08
4.389e-09
1.48162e-08
-1.92209e-08
4.1672e-09
1.42494e-08
-1.60811e-08
4.0357e-09
1.31859e-08
-1.28584e-08
3.98745e-09
1.148e-08
-9.55925e-09
3.95857e-09
9.18045e-09
-6.39709e-09
3.88549e-09
6.54726e-09
-3.79702e-09
3.79272e-09
3.85057e-09
-2.15476e-09
3.78025e-09
1.24513e-09
-1.53036e-09
3.83081e-09
-1.34483e-09
-1.53004e-09
3.97123e-09
-4.13457e-09
-1.53969e-09
4.06207e-09
-7.0361e-09
-1.3909e-09
3.97137e-09
-9.81054e-09
-1.25331e-09
3.698e-09
-1.20599e-08
-1.77878e-09
3.50031e-09
-1.36501e-08
-3.34053e-09
3.45355e-09
-1.44571e-08
-6.13289e-09
3.57664e-09
-1.45747e-08
-9.97277e-09
3.8413e-09
-1.43032e-08
-1.42233e-08
4.06526e-09
-1.38545e-08
-1.81358e-08
4.07194e-09
-1.30588e-08
-2.14605e-08
3.91933e-09
-1.17072e-08
-2.40301e-08
3.68437e-09
-9.7227e-09
-2.58505e-08
3.41333e-09
-6.81781e-09
-2.75883e-08
3.24378e-09
-2.95529e-09
-2.94136e-08
3.3972e-09
-3.03939e-08
4.21139e-09
4.99646e-09
-3.53206e-08
4.99646e-09
9.27649e-09
-3.79099e-08
5.37227e-09
1.26191e-08
-3.64244e-08
5.43724e-09
1.48072e-08
-3.41432e-08
5.26857e-09
1.60079e-08
-3.10553e-08
5.03221e-09
1.65695e-08
-2.7537e-08
4.78774e-09
1.66381e-08
-2.3919e-08
4.62531e-09
1.61795e-08
-2.02003e-08
4.58216e-09
1.50272e-08
-1.62749e-08
4.58713e-09
1.31558e-08
-1.22166e-08
4.5507e-09
1.07662e-08
-8.47232e-09
4.46396e-09
8.11155e-09
-5.64923e-09
4.45417e-09
5.36724e-09
-4.09503e-09
4.56769e-09
2.45612e-09
-3.51545e-09
4.73383e-09
-8.32995e-10
-3.29482e-09
4.89112e-09
-4.42358e-09
-2.96261e-09
4.8981e-09
-7.98269e-09
-2.62234e-09
4.7421e-09
-1.10613e-08
-2.79291e-09
4.61225e-09
-1.34165e-08
-4.06065e-09
4.61756e-09
-1.49603e-08
-6.6794e-09
4.80043e-09
-1.58862e-08
-1.04452e-08
5.09511e-09
-1.64236e-08
-1.49216e-08
5.34967e-09
-1.67423e-08
-1.94174e-08
5.47152e-09
-1.67356e-08
-2.33581e-08
5.30585e-09
-1.59905e-08
-2.70291e-08
4.99441e-09
-1.43076e-08
-3.03294e-08
4.74436e-09
-1.16655e-08
-3.2985e-08
4.4932e-09
-7.82635e-09
-3.59084e-08
4.4254e-09
-3.04512e-09
-3.90701e-08
4.86232e-09
-3.89279e-08
5.57579e-09
5.94448e-09
-4.71877e-08
5.94448e-09
1.0145e-08
-4.80135e-08
5.95783e-09
1.36448e-08
-4.56378e-08
5.74565e-09
1.62396e-08
-4.22351e-08
5.50521e-09
1.80253e-08
-3.81319e-08
5.27743e-09
1.91391e-08
-3.38236e-08
5.15162e-09
1.95466e-08
-2.95047e-08
5.1692e-09
1.90951e-08
-2.49806e-08
5.24799e-09
1.77314e-08
-2.01602e-08
5.28541e-09
1.56508e-08
-1.53447e-08
5.24202e-09
1.31307e-08
-1.12233e-08
5.27147e-09
1.03888e-08
-8.39522e-09
5.43847e-09
7.35309e-09
-6.82237e-09
5.67734e-09
3.78255e-09
-5.97464e-09
5.94758e-09
-3.64924e-10
-5.28022e-09
6.09645e-09
-4.72595e-09
-4.64187e-09
6.06195e-09
-8.77408e-09
-4.5027e-09
5.97543e-09
-1.20959e-08
-5.46067e-09
6.00287e-09
-1.46183e-08
-7.78214e-09
6.18344e-09
-1.64682e-08
-1.14233e-08
6.47471e-09
-1.79703e-08
-1.56991e-08
6.65006e-09
-1.92309e-08
-2.02605e-08
6.60404e-09
-2.0018e-08
-2.49419e-08
6.46686e-09
-2.00883e-08
-2.92715e-08
6.19937e-09
-1.91969e-08
-3.35849e-08
5.79329e-09
-1.69618e-08
-3.80584e-08
5.48091e-09
-1.32841e-08
-4.22191e-08
5.48229e-09
-8.64912e-09
-4.62921e-08
5.72329e-09
-3.83167e-09
-4.97279e-08
5.87068e-09
-4.7863e-08
5.16493e-09
6.3414e-09
-5.98407e-08
6.3414e-09
1.09817e-08
-5.871e-08
6.1236e-09
1.51106e-08
-5.55916e-08
5.87299e-09
1.85364e-08
-5.13115e-08
5.6806e-09
2.12244e-08
-4.64421e-08
5.6393e-09
2.30347e-08
-4.1397e-08
5.78038e-09
2.37077e-08
-3.61624e-08
6.01347e-09
2.31459e-08
-3.05644e-08
6.18415e-09
2.1535e-08
-2.47754e-08
6.25595e-09
1.92326e-08
-1.93961e-08
6.34789e-09
1.65564e-08
-1.51518e-08
6.54488e-09
1.35083e-08
-1.23101e-08
6.85919e-09
9.76296e-09
-1.04218e-08
7.23217e-09
5.18709e-09
-8.98245e-09
7.50121e-09
1.35404e-11
-7.72619e-09