/*--------------------------------*- C++ -*----------------------------------*\
| =========                 |                                                 |
| \\      /  F ield         | OpenFOAM: The Open Source CFD Toolbox           |
|  \\    /   O peration     | Version:  2312                                  |
|   \\  /    A nd           | Website:  www.openfoam.com                      |
|    \\/     M anipulation  |                                                 |
\*---------------------------------------------------------------------------*/
FoamFile
{
    version     2.0;
    format      ascii;
    arch        "LSB;label=32;scalar=64";
    class       volScalarField;
    location    "0.748016";
    object      alpha.water;
}
// * * * * * * * * * * * * * * * * * * * * * * * * * * * * * * * * * * * * * //

dimensions      [0 0 0 0 0 0 0];

internalField   nonuniform List<scalar> 
90000
(
1
1
1
1
1
1.00001
1.00001
1.00001
1.00001
1.00001
1.00001
1.00001
1.00001
1.00001
1.00001
1.00002
1.00002
1.00002
1.00002
1.00001
1.00001
1.00001
1
1
1.00001
1.00001
1.00002
1.00003
1.00004
1.00005
1
1
1
1.00001
1.00001
1.00001
1.00002
1.00002
1.00002
1.00002
1.00002
1.00002
1.00002
1.00003
1.00003
1.00003
1.00003
1.00003
1.00002
1.00002
1.00001
1.00001
1.00001
1.00001
1.00002
1.00004
1.00005
1.00005
0.999995
0.999797
1
1
1
1.00001
1.00001
1.00001
1.00001
1.00002
1.00002
1.00002
1.00002
1.00002
1.00002
1.00002
1.00002
1.00002
1.00002
1.00001
1.00001
1
1
0.999999
1
1.00001
1.00002
1.00003
1.00006
1.00011
1.0002
0.999993
1
1
1
1.00001
1.00001
1.00001
1.00001
1.00002
1.00002
1.00002
1.00002
1.00002
1.00001
1.00001
1.00001
1
0.999999
0.999995
0.999993
0.999992
0.999993
0.999995
0.999999
1
1.00001
1.00001
0.999994
0.999979
1.00006
0.999994
1
1
1
1.00001
1.00001
1.00001
1.00001
1.00001
1.00001
1.00001
1.00001
1.00001
1.00001
1
0.999997
0.999991
0.999987
0.999985
0.999986
0.999988
0.999992
0.999995
0.999998
0.999999
1
1
1
0.99997
0.999989
0.99997
1
1.00001
1.00001
1.00001
1.00001
1.00001
1.00001
1.00001
1.00001
1.00001
1.00001
1
1
0.999996
0.999991
0.999987
0.999986
0.999987
0.99999
0.999994
0.999998
1
0.999999
0.999995
0.999987
0.999978
0.999974
0.999958
0.999956
0.999957
1
1.00001
1.00001
1
1
1
0.999999
0.999999
0.999999
0.999999
0.999998
0.999997
0.999995
0.999994
0.999994
0.999995
0.999997
1
1
1.00001
1.00001
1
1
0.999993
0.999984
0.999972
0.999962
0.999954
0.999953
0.999965
1
1.00001
1.00001
1
1
0.999997
0.999995
0.999994
0.999993
0.999992
0.999992
0.999994
0.999996
1
1.00001
1.00001
1.00002
1.00002
1.00002
1.00002
1.00001
1.00001
1
0.999991
0.999983
0.999975
0.999969
0.999968
0.999973
0.999987
1
1.00001
1.00001
1.00001
1.00001
1
0.999999
0.999996
0.999993
0.999991
0.999992
0.999996
1
1.00001
1.00002
1.00003
1.00003
1.00003
1.00003
1.00002
1.00001
1.00001
0.999998
0.999992
0.999987
0.999984
0.999985
0.999989
0.999995
1
1.00001
1.00002
1.00002
1.00002
1.00002
1.00002
1.00001
1
0.999998
0.999994
0.999995
0.999999
1.00001
1.00002
1.00002
1.00003
1.00003
1.00003
1.00002
1.00001
1.00001
1
0.999997
0.999994
0.999994
0.999995
0.999999
1
1.00001
1
1.00002
1.00004
1.00004
1.00004
1.00003
1.00003
1.00002
1.00001
1
0.999995
0.999993
0.999996
1
1.00001
1.00001
1.00001
1.00001
1.00001
1
0.999999
0.999998
0.999998
1
1
1
1.00001
1.00001
1.00001
1
0.999999
1.00003
1.00005
1.00005
1.00004
1.00004
1.00003
1.00002
1
0.999995
0.999988
0.999986
0.999985
0.999986
0.999986
0.999985
0.999983
0.999981
0.999981
0.999984
0.99999
0.999997
1
1.00001
1.00001
1.00001
1.00001
1.00001
1.00001
1
1
1.00003
1.00004
1.00004
1.00003
1.00002
1.00001
0.999999
0.999991
0.999984
0.999981
0.999978
0.999976
0.999972
0.999968
0.999963
0.999961
0.999964
0.999971
0.999982
0.999994
1.00001
1.00001
1.00002
1.00002
1.00002
1.00002
1.00001
1.00001
1.00001
1.00001
1.00002
1.00001
1
0.999997
0.99999
0.999983
0.99998
0.999979
0.99998
0.999981
0.999981
0.999977
0.999971
0.999964
0.99996
0.99996
0.999967
0.999979
0.999993
1.00001
1.00001
1.00002
1.00002
1.00002
1.00001
1.00001
1
1
1
0.999999
1
0.999967
0.999966
0.999962
0.999961
0.999963
0.99997
0.999979
0.999988
0.999994
0.999994
0.999989
0.999981
0.999974
0.999971
0.999974
0.999982
0.999993
1
1.00001
1.00001
1.00001
1.00001
1.00001
1
0.999998
0.999993
0.99999
0.999986
0.999979
0.999976
0.999932
0.999938
0.99994
0.999947
0.999959
0.999974
0.999989
1
1.00001
1
0.999998
0.99999
0.999984
0.999982
0.999985
0.999991
0.999997
1
1
1
1
0.999998
0.999997
0.999994
0.999991
0.999986
0.999981
0.999973
0.999974
0.999957
0.999919
0.999929
0.999938
0.99995
0.999966
0.999982
0.999996
1
1.00001
1
0.999996
0.99999
0.999987
0.999987
0.999988
0.999989
0.999988
0.999987
0.999986
0.999986
0.999988
0.99999
0.999991
0.99999
0.999987
0.999982
0.999977
0.999974
0.999984
0.999952
0.999926
0.999938
0.999948
0.999961
0.999974
0.999986
0.999994
0.999997
0.999997
0.999994
0.999992
0.999991
0.999991
0.999991
0.999989
0.999986
0.999982
0.999979
0.999979
0.999981
0.999985
0.999987
0.999986
0.999983
0.999978
0.999975
0.999974
0.999977
0.999986
0.999959
0.999944
0.999954
0.999963
0.999973
0.999982
0.999989
0.999992
0.999994
0.999994
0.999996
0.999999
1
1
1
0.999996
0.999989
0.999984
0.999983
0.999984
0.999986
0.999986
0.999984
0.999978
0.999972
0.999969
0.999968
0.99997
0.999973
0.999973
0.99997
0.999966
0.999973
0.99998
0.999988
0.999994
0.999998
1
1
1
1.00001
1.00001
1.00001
1.00001
1.00001
0.999997
0.999991
0.999988
0.999988
0.999988
0.999987
0.999983
0.999976
0.999972
0.999971
0.999973
0.999975
0.999976
0.999973
0.999973
0.999983
0.999986
0.999992
0.999999
1.00001
1.00001
1.00001
1.00001
1.00001
1.00001
1.00001
1.00001
1.00001
1
0.999995
0.99999
0.999988
0.999988
0.999988
0.999986
0.999981
0.999976
0.999974
0.999977
0.999985
0.999991
0.999993
0.99999
0.999986
0.999991
0.999995
1
1.00001
1.00001
1.00002
1.00002
1.00002
1.00002
1.00001
1.00001
1.00001
0.999999
0.999993
0.999987
0.999985
0.999987
0.99999
0.999992
0.99999
0.999985
0.99998
0.999979
0.999985
0.999995
1
1.00001
1
0.999999
0.999998
0.999999
1
1.00001
1.00002
1.00002
1.00002
1.00002
1.00002
1.00001
1.00001
1
0.999994
0.999989
0.999985
0.999986
0.999992
0.999998
1
1
0.999996
0.999991
0.99999
0.999996
1.00001
1.00001
1.00001
1.00001
1
1
1
1
1.00001
1.00002
1.00002
1.00002
1.00002
1.00001
1.00001
1.00001
1
0.999997
0.999992
0.999989
0.99999
0.999996
1
1.00001
1.00001
1
0.999997
0.999997
1
1.00001
1.00002
1.00002
1.00002
1.00001
1.00001
1.00001
1.00001
1.00002
1.00001
1.00002
1.00002
1.00001
1.00001
1.00001
1.00001
1
0.999999
0.999995
0.99999
0.999989
0.999992
0.999998
1
1
0.999997
0.999993
0.999993
1
1.00001
1.00002
1.00002
1.00002
1.00002
1.00002
1.00002
1.00003
1.00003
1.00004
1.00001
1.00001
1.00001
1.00001
1
0.999999
0.999998
0.999996
0.999992
0.999988
0.999985
0.999986
0.999991
0.999995
0.999997
0.999995
0.999992
0.999993
1
1.00001
1.00001
1.00001
1.00001
1.00001
1.00001
1.00002
1.00002
1.00003
1.00004
1.00002
1.00001
1
0.999997
0.999993
0.99999
0.999988
0.999988
0.999987
0.999985
0.999984
0.999985
0.99999
0.999997
1
1
1
1
1.00001
1.00001
1.00001
1.00001
1
1
1
1.00001
1.00001
1.00002
1.00002
1.00002
1
0.999999
0.999989
0.999986
0.999984
0.999983
0.999984
0.999984
0.999984
0.999984
0.999986
0.999991
0.999998
1
1
1
1
1.00001
1.00001
1.00001
0.999998
0.99999
0.999988
0.999993
0.999996
0.999998
1
1.00001
1
0.999998
1.00001
0.999992
0.999985
0.999985
0.999985
0.999985
0.999984
0.999983
0.999981
0.999982
0.999986
0.999993
0.999999
1
0.999999
0.999997
0.999997
0.999997
0.999994
0.999986
0.999978
0.999974
0.999977
0.999983
0.999984
0.999982
0.999992
0.999999
0.999991
1
1.00001
0.999991
0.99999
0.999991
0.999989
0.999985
0.999981
0.999978
0.999977
0.99998
0.999987
0.999993
0.999997
0.999996
0.999994
0.999994
0.999995
0.999994
0.999988
0.999982
0.99998
0.999982
0.99998
0.999979
0.999981
0.999983
0.999994
1
1
1.00001
1.00001
0.999996
0.999997
0.999994
0.999989
0.999985
0.999981
0.999979
0.99998
0.999986
0.999992
0.999997
0.999998
0.999996
0.999996
0.999997
0.999997
0.999996
0.999991
0.999989
0.999991
0.999992
0.999982
0.999976
0.999985
0.999991
0.999992
0.999999
1.00001
1
0.999999
0.999999
1
0.999997
0.999994
0.999992
0.999989
0.999987
0.999987
0.99999
0.999992
0.999993
0.999993
0.999994
0.999996
0.999997
0.999996
0.999995
0.999996
0.999994
0.999991
0.999987
0.999976
0.999974
0.999989
0.99999
0.999982
0.999994
0.999999
0.999988
0.999999
1
1.00001
1.00001
1
1
0.999995
0.999989
0.999985
0.999985
0.999987
0.999989
0.999992
0.999996
1
1
1
0.999999
1
1
0.999987
0.999982
0.999983
0.999985
0.999994
0.999988
0.999984
1
1
1
1
1
1.00001
1.00001
1.00001
1
0.999993
0.999987
0.999985
0.999987
0.99999
0.999994
0.999999
1
1
1.00001
1
1
1
0.999998
0.999984
0.999985
0.999997
0.999993
0.999987
0.999988
0.999995
1.00001
1.00001
1
1.00001
1.00001
1.00002
1.00001
1.00001
1
0.999997
0.999994
0.999993
0.999994
0.999995
0.999997
1
1
1
1
1.00001
1
0.999998
0.999999
0.999994
1
1.00001
0.999993
0.99999
1.00001
1.00001
1.00001
1.00001
1
1.00001
1.00001
1.00002
1.00001
1.00001
1.00001
1
0.999999
0.999997
0.999996
0.999996
0.999997
1
1
1
1.00001
1.00001
1.00001
1
1.00001
1.00001
1.00001
1.00001
0.999996
1.00001
1.00003
1.00001
1
1
1.00001
1.00001
1.00001
1.00002
1.00002
1.00001
1.00001
1
1
1
1
1
1
1
1.00001
1.00001
1.00001
1.00001
1.00001
1
1.00001
1.00002
1.00001
1
1
1.00002
1.00002
0.999999
1
1.00002
1.00002
1.00001
1.00001
1.00002
1.00001
1.00001
1.00001
1.00001
1.00001
1
1
0.999999
1
1
1
1.00001
1.00001
1.00001
1.00001
1.00001
1.00002
1.00002
1
1.00001
1.00001
1.00002
1
0.999997
1.00001
1.00002
1.00001
1.00002
1.00001
1.00001
1.00001
1.00001
1.00001
1.00001
1
1
1
1
1.00001
1.00001
1.00001
1.00001
1.00001
1.00001
1.00001
1.00001
1.00002
1.00001
0.999999
1.00001
1.00001
1
0.999998
1.00001
1.00002
1
1.00001
1.00002
1.00001
1.00001
1.00001
1.00001
1.00001
1
1
1.00001
1.00001
1.00001
1
1
1.00001
1.00001
1.00001
1
1.00001
1.00001
1.00001
1
1
1.00002
1.00001
1
1.00001
1.00002
1.00001
1.00001
1.00003
1.00002
1.00001
1.00002
1.00001
1.00001
1.00001
1.00001
1.00001
1
1.00001
1.00001
1.00001
1
1
1.00001
1.00001
1.00001
1.00002
1.00001
1.00001
1
1.00001
1.00002
1.00001
1.00001
1.00002
1.00001
1.00001
1.00003
1.00003
1.00001
1.00001
1.00001
1.00001
1.00001
1.00001
1
1.00001
1
1.00001
0.999999
1
1
1
1.00001
1
0.999997
1.00001
0.999999
1.00001
1
1.00001
1.00001
1
1.00001
1.00001
0.999994
1.00001
1.00001
1.00001
1
1.00001
1.00001
1.00001
1.00001
1
1
1.00001
1.00001
1.00001
1
0.999998
1.00001
1.00001
1.00001
1
1
1.00001
1.00001
1.00001
1.00001
1.00001
1.00001
1.00001
1
0.999999
1
1.00001
1.00001
1.00002
1.00001
1.00001
1.00001
1
1.00001
1.00002
1
1
1
1
1
1
1.00001
1
1.00001
0.999996
1.00001
1.00001
1.00001
1
1
1.00001
0.999997
0.999998
1
1
1.00001
1
1.00002
1.00001
1.00001
1
1.00001
1
0.999994
1.00001
1.00001
1
1
1
1
0.999999
1.00001
0.999998
1
0.999993
1.00001
1
1
0.999993
1
1
1
1
1.00001
0.999996
1
1.00001
1.00001
0.999995
0.999998
0.999992
1.00002
1.00001
0.999987
0.999992
1.00001
1
1
1
1
0.999999
1
0.999999
1
0.999998
1
1
0.999999
1
1
1
1
1
1.00001
0.999999
1
1.00001
0.999989
1.00001
0.999999
0.999986
0.999994
1.00001
1
0.999995
1
1
0.999996
1
0.999999
0.999999
0.999999
0.999997
0.999998
0.999995
0.999997
0.999997
0.999996
0.999998
1
1
1
1
0.999994
0.999997
0.999999
0.999998
0.999995
1
0.999998
0.999976
0.999972
1
0.999999
0.999986
0.99999
0.999988
0.999978
0.999977
0.999969
0.999961
0.999952
0.999942
0.999935
0.999931
0.999931
0.999935
0.99994
0.999952
0.999963
0.999971
0.999977
0.999982
0.999979
0.999987
0.999993
0.999989
0.999988
0.999989
0.999989
0.99982
0.999787
0.999827
0.999839
0.9998
0.999781
0.999731
0.999653
0.999569
0.99945
0.999303
0.999156
0.999032
0.998933
0.99887
0.998872
0.998934
0.999029
0.999156
0.999304
0.999449
0.999566
0.999653
0.999714
0.999779
0.999808
0.99982
0.999825
0.999807
0.999815
0.937143
0.937837
0.934671
0.927956
0.918722
0.907196
0.892213
0.876182
0.861767
0.844883
0.830525
0.817777
0.80684
0.798766
0.794342
0.794344
0.79877
0.806847
0.817787
0.830531
0.844902
0.861787
0.876188
0.892254
0.907211
0.918734
0.92794
0.934724
0.937829
0.93703
0.469467
0.452635
0.421726
0.387823
0.349518
0.311208
0.268659
0.230956
0.204058
0.174248
0.153577
0.136879
0.124411
0.116417
0.112375
0.11237
0.116416
0.124405
0.136867
0.153568
0.174248
0.204039
0.230934
0.268662
0.311183
0.349494
0.387821
0.421698
0.452575
0.469564
0.018356
0.0165626
0.0129028
0.00789312
0.00173284
0.000187577
6.33487e-05
1.05223e-05
1.43945e-05
1.12888e-05
1.08116e-05
1.37892e-05
1.22998e-05
1.15407e-05
1.07594e-05
1.07648e-05
1.15637e-05
1.23312e-05
1.37913e-05
1.07859e-05
1.12526e-05
1.43445e-05
1.04985e-05
6.3344e-05
0.000187728
0.00171797
0.00791608
0.0129004
0.0165677
0.0183664
0.000281772
0.000233161
0.000137308
9.86775e-05
0.000348749
0.000295483
0.000154368
0.000217612
0.000224661
0.000136538
0.000251937
0.000258165
0.000191785
0.000111238
0.000129584
0.000129618
0.000111346
0.000191677
0.000258158
0.000251956
0.000137118
0.000224533
0.000217526
0.00015463
0.000296516
0.000347577
9.7985e-05
0.000137305
0.000233491
0.000282095
0.000236972
0.00024681
0.000168015
8.81675e-05
5.05311e-05
3.07989e-05
2.92497e-05
4.10143e-05
5.5921e-05
4.76356e-05
3.51054e-05
5.17389e-05
4.93358e-05
8.00722e-05
6.25975e-05
6.26143e-05
8.01303e-05
4.93802e-05
5.17935e-05
3.50656e-05
4.75862e-05
5.62326e-05
4.11395e-05
2.93834e-05
3.0884e-05
5.04604e-05
8.838e-05
0.000167848
0.000247484
0.000237449
3.58267e-05
4.61671e-05
2.72665e-05
1.40554e-05
6.388e-06
3.14199e-06
3.20363e-06
4.34757e-06
4.17694e-06
6.60874e-06
7.99174e-06
7.76692e-06
1.50901e-05
1.36451e-05
1.45339e-05
1.45418e-05
1.36933e-05
1.51787e-05
7.85092e-06
8.0794e-06
6.69674e-06
4.27387e-06
4.42299e-06
3.24833e-06
3.16377e-06
6.37826e-06
1.40915e-05
2.73834e-05
4.64589e-05
3.58925e-05
4.67875e-06
6.98981e-06
4.6965e-06
2.29089e-06
1.10991e-06
5.7079e-07
4.72344e-07
4.07697e-07
3.5715e-07
6.58795e-07
1.4051e-06
2.78288e-06
5.04391e-06
7.47858e-06
9.57662e-06
9.56663e-06
7.47856e-06
5.0645e-06
2.80708e-06
1.41901e-06
6.69992e-07
3.65823e-07
4.15294e-07
4.80161e-07
5.72169e-07
1.11403e-06
2.29676e-06
4.72303e-06
7.03801e-06
4.64068e-06
6.92248e-07
8.69842e-07
5.85107e-07
2.81074e-07
1.36903e-07
7.63028e-08
4.65289e-08
2.72469e-08
1.72227e-08
1.59353e-08
5.70623e-08
1.0389e-07
7.21071e-08
2.62767e-07
8.47774e-07
8.4488e-07
2.57544e-07
6.98476e-08
1.03351e-07
5.81093e-08
1.6675e-08
1.7422e-08
2.75708e-08
4.66362e-08
7.57514e-08
1.36777e-07
2.8229e-07
5.8731e-07
8.80233e-07
6.91536e-07
7.55082e-08
1.06821e-07
6.02445e-08
2.90534e-08
1.36363e-08
6.1208e-09
2.92854e-09
1.55278e-09
1.36038e-09
9.90044e-10
1.05036e-09
2.38958e-09
4.88124e-10
1.12705e-09
3.84787e-09
3.85184e-09
1.12174e-09
4.8985e-10
2.36741e-09
1.0757e-09
9.87959e-10
1.37356e-09
1.55121e-09
2.89687e-09
5.96302e-09
1.36382e-08
2.89863e-08
6.04241e-08
1.07439e-07
7.5654e-08
5.87672e-09
9.64203e-09
5.09932e-09
2.28997e-09
9.75381e-10
4.42952e-10
2.11427e-10
1.5916e-10
1.12665e-10
7.73293e-11
8.00592e-11
2.33492e-10
4.27895e-10
7.37537e-11
1.03558e-10
1.03704e-10
7.61569e-11
4.29317e-10
2.3572e-10
7.98447e-11
7.71956e-11
1.12462e-10
1.53704e-10
1.93716e-10
4.13484e-10
9.72989e-10
2.30594e-09
5.18011e-09
9.77146e-09
5.86852e-09
4.43234e-10
7.84424e-10
4.26827e-10
1.95188e-10
8.84661e-11
4.36537e-11
2.70178e-11
1.54657e-11
9.79919e-12
1.32705e-11
2.08673e-11
2.95408e-11
4.34838e-11
6.62406e-11
5.26477e-11
5.26588e-11
6.64263e-11
4.36149e-11
2.97192e-11
2.10747e-11
1.32991e-11
9.66924e-12
1.50041e-11
2.47159e-11
3.73196e-11
8.27406e-11
1.96189e-10
4.29181e-10
7.91075e-10
4.46718e-10
3.84787e-11
7.04981e-11
3.84319e-11
1.83797e-11
9.98702e-12
4.00161e-12
1.77011e-12
1.29946e-12
1.11418e-12
1.7114e-12
3.32938e-12
5.64464e-12
1.12728e-11
1.81784e-11
1.87321e-11
1.87194e-11
1.82053e-11
1.12867e-11
5.67109e-12
3.37538e-12
1.73344e-12
1.11685e-12
1.24568e-12
1.53021e-12
3.57947e-12
9.1427e-12
1.75139e-11
3.87898e-11
7.14994e-11
3.87298e-11
4.08741e-12
6.87164e-12
3.96146e-12
1.51975e-12
1.01458e-12
5.21225e-13
2.50977e-13
2.03057e-13
2.76018e-13
5.63203e-13
1.20885e-12
2.49176e-12
5.0778e-12
8.25772e-12
9.41146e-12
9.40017e-12
8.26351e-12
5.09406e-12
2.50551e-12
1.23135e-12
5.75797e-13
2.8134e-13
2.02634e-13
2.37032e-13
4.71492e-13
9.13853e-13
1.4919e-12
4.01145e-12
6.95237e-12
4.10521e-12
3.05705e-13
4.80668e-13
4.20102e-13
1.71713e-13
6.14669e-14
2.19611e-14
9.53134e-15
8.72936e-15
1.56461e-14
3.93594e-14
1.04049e-13
2.86156e-13
6.22516e-13
1.05713e-12
1.50115e-12
1.50039e-12
1.05845e-12
6.27711e-13
2.89675e-13
1.06681e-13
4.05163e-14
1.61144e-14
8.85626e-15
9.09518e-15
1.99502e-14
5.74512e-14
1.7022e-13
4.25248e-13
4.86408e-13
3.09238e-13
1.34864e-14
2.98016e-14
1.71872e-14
5.80188e-15
1.64377e-15
4.8825e-16
2.11212e-16
2.30583e-16
4.63826e-16
1.27521e-15
4.16981e-15
1.39421e-14
3.52601e-14
7.16979e-14
1.12092e-13
1.11798e-13
7.17652e-14
3.5675e-14
1.41888e-14
4.2867e-15
1.31965e-15
4.7917e-16
2.33675e-16
2.00564e-16
4.37108e-16
1.52661e-15
5.73093e-15
1.75601e-14
3.04512e-14
1.36102e-14
2.96958e-16
7.82835e-16
3.79407e-16
1.13748e-16
3.22176e-17
9.2614e-18
4.56523e-18
6.38028e-18
1.39356e-17
3.88698e-17
1.25744e-16
4.18238e-16
1.16654e-15
2.67221e-15
4.30613e-15
4.30325e-15
2.67781e-15
1.17753e-15
4.27615e-16
1.30096e-16
4.04257e-17
1.45132e-17
6.50646e-18
4.383e-18
8.195e-18
2.95227e-17
1.13521e-16
3.89145e-16
8.02164e-16
3.01889e-16
5.03451e-18
1.43101e-17
6.92613e-18
1.97918e-18
5.29541e-19
1.50017e-19
9.39311e-20
1.6501e-19
3.79623e-19
1.0472e-18
3.24531e-18
1.04517e-17
2.8541e-17
6.40398e-17
1.04035e-16
1.04601e-16
6.46158e-17
2.88703e-17
1.07235e-17
3.37283e-18
1.08492e-18
3.93866e-19
1.69884e-19
9.16557e-20
1.32964e-19
4.84238e-19
1.9682e-18
7.08213e-18
1.47138e-17
5.108e-18
6.98836e-20
2.22412e-19
1.02891e-19
2.82766e-20
7.14283e-21
2.11884e-21
1.83343e-21
3.81647e-21
8.91441e-21
2.37826e-20
7.12398e-20
2.21505e-19
5.83981e-19
1.28448e-18
2.0714e-18
2.07037e-18
1.28886e-18
5.93155e-19
2.27172e-19
7.37445e-20
2.46806e-20
9.27292e-21
3.98239e-21
1.82992e-21
1.87854e-21
6.56839e-21
2.81437e-20
1.06699e-19
2.29068e-19
7.1946e-20
7.86089e-22
2.80946e-21
1.26647e-21
3.27422e-22
8.14723e-23
2.68037e-23
3.36125e-23
7.81423e-23
1.77638e-22
4.50488e-22
1.28354e-21
3.79925e-21
9.7467e-21
2.10602e-20
3.34052e-20
3.33603e-20
2.11604e-20
9.93965e-21
3.90126e-21
1.3249e-21
4.66827e-22
1.84234e-22
8.1328e-23
3.45768e-23
2.42792e-23
7.39381e-23
3.30995e-22
1.31669e-21
2.92758e-21
8.29562e-22
7.48517e-24
2.82999e-23
1.29235e-23
3.18125e-24
7.69427e-25
3.14256e-25
5.74352e-25
1.37007e-24
2.95764e-24
7.03455e-24
1.88627e-23
5.30647e-23
1.30223e-22
2.68865e-22
4.17942e-22
4.20894e-22
2.71951e-22
1.31361e-22
5.39532e-23
1.96052e-23
7.36822e-24
3.09236e-24
1.42677e-24
6.02424e-25
3.03422e-25
6.9376e-25
3.1917e-24
1.33517e-23
3.0601e-23
7.8047e-24
5.50318e-26
2.47181e-25
1.03097e-25
2.50659e-26
5.97435e-27
3.74621e-27
8.76629e-27
2.0029e-26
4.04905e-26
9.00903e-26
2.26344e-25
5.93757e-25
1.36487e-24
2.70809e-24
4.19653e-24
4.25583e-24
2.78492e-24
1.39477e-24
6.06905e-25
2.36285e-25
9.50366e-26
4.29035e-26
2.11396e-26
9.208e-27
3.75758e-27
5.59071e-27
2.54034e-26
1.11148e-25
2.61253e-25
5.98303e-26
3.34766e-28
1.67954e-27
6.86812e-28
1.61024e-28
4.29876e-29
4.35697e-29
1.12125e-28
2.4404e-28
4.65925e-28
9.57377e-28
2.17855e-27
5.13e-27
1.09968e-26
2.10897e-26
3.19575e-26
3.18787e-26
2.1308e-26
1.14056e-26
5.4001e-27
2.29661e-27
1.00761e-27
4.97123e-28
2.64428e-28
1.20921e-28
4.48492e-29
4.05368e-29
1.67499e-28
7.58069e-28
1.82785e-27
3.75726e-28
1.84605e-30
9.00957e-30
4.00427e-30
8.91457e-31
2.89977e-31
4.48457e-31
1.20531e-30
2.52134e-30
4.44774e-30
8.18385e-30
1.65831e-29
3.54474e-29
7.17144e-29
1.30172e-28
1.88059e-28
1.88179e-28
1.33599e-28
7.72169e-29
3.90989e-29
1.80136e-29
8.7292e-30
4.77899e-30
2.75822e-30
1.33314e-30
4.8728e-31
2.79095e-31
9.2095e-31
4.26364e-30
1.0553e-29
1.94542e-30
7.23759e-33
4.44222e-32
1.79514e-32
4.16229e-33
1.86544e-33
4.28522e-33
1.14241e-32
2.18321e-32
3.40257e-32
5.51431e-32
1.00959e-31
1.98937e-31
3.68696e-31
6.11547e-31
8.46082e-31
8.68785e-31
6.472e-31
3.92783e-31
2.14838e-31
1.12146e-31
6.20976e-32
3.78199e-32
2.35968e-32
1.21672e-32
4.63804e-33
1.95716e-33
4.40437e-33
2.01386e-32
5.02013e-32
8.29881e-33
2.58544e-35
1.79539e-34
6.59285e-35
1.72789e-35
1.26536e-35
3.56875e-35
8.79709e-35
1.52062e-34
2.14786e-34
3.18885e-34
5.28353e-34
9.00098e-34
1.42168e-33
2.13387e-33
2.91862e-33
3.10664e-33
2.4294e-33
1.5956e-33
9.90113e-34
5.92325e-34
3.65854e-34
2.44024e-34
1.66572e-34
9.42601e-35
3.86101e-35
1.39649e-35
1.90733e-35
7.96051e-35
1.94746e-34
2.96266e-35
9.54016e-38
5.37388e-37
2.37467e-37
7.19034e-38
8.46405e-38
2.38815e-37
5.5398e-37
9.02825e-37
1.19303e-36
1.60874e-36
2.27385e-36
3.23253e-36
4.57442e-36
6.69123e-36
8.98444e-36
9.19751e-36
7.25897e-36
5.25299e-36
3.75828e-36
2.5549e-36
1.76092e-36
1.31526e-36
1.00821e-36
6.31608e-37
2.75511e-37
9.34012e-38
7.7049e-38
2.63872e-37
6.35977e-37
9.35726e-38
2.35413e-40
1.55345e-39
7.49229e-40
3.0258e-40
4.87069e-40
1.41954e-39
3.22511e-39
4.83868e-39
5.65457e-39
6.38401e-39
7.4041e-39
9.33638e-39
1.26606e-38
1.70614e-38
1.97375e-38
1.84798e-38
1.58805e-38
1.39591e-38
1.1887e-38
9.11525e-39
7.02892e-39
5.95593e-39
5.16257e-39
3.55747e-39
1.64035e-39
5.54856e-40
3.1632e-40
7.93154e-40
1.87136e-39
2.7153e-40
5.85004e-43
4.73908e-42
2.12252e-42
1.23622e-42
2.50138e-42
7.49427e-42
1.53987e-41
2.04704e-41
2.07842e-41
2.02807e-41
2.14784e-41
2.5921e-41
3.10198e-41
3.35336e-41
3.29963e-41
3.219e-41
3.29384e-41
3.31907e-41
3.03797e-41
2.53725e-41
2.26381e-41
2.265e-41
2.27104e-41
1.72036e-41
8.36105e-42
2.91229e-42
1.36545e-42
2.34134e-42
5.04792e-42
7.25933e-43
1.9094e-45
1.1622e-44
6.35402e-45
5.02423e-45
1.19468e-44
3.16736e-44
5.78062e-44
7.09571e-44
6.48996e-44
5.84287e-44
5.81841e-44
6.07224e-44
5.54662e-44
4.80998e-44
4.6341e-44
5.09565e-44
5.54149e-44
5.61324e-44
5.52886e-44
5.61156e-44
6.33779e-44
7.56115e-44
8.5853e-44
6.91194e-44
3.52436e-44
1.30046e-44
5.74546e-45
6.99018e-45
1.25691e-44
1.8557e-45
4.30168e-48
2.61872e-47
1.82583e-47
1.92569e-47
4.40786e-47
1.06268e-46
1.92805e-46
2.19391e-46
1.84493e-46
1.45755e-46
1.22273e-46
9.8509e-47
7.22847e-47
5.78663e-47
5.86869e-47
6.42374e-47
6.53454e-47
6.78567e-47
8.18973e-47
1.08345e-46
1.49209e-46
2.02278e-46
2.4071e-46
2.14552e-46
1.21366e-46
4.98191e-47
2.23437e-47
2.1464e-47
3.03715e-47
4.75724e-48
1.04705e-50
6.30713e-50
5.11679e-50
5.8316e-50
1.19692e-49
2.94637e-49
5.1755e-49
5.02575e-49
3.86351e-49
2.56386e-49
1.82641e-49
1.30587e-49
9.2777e-50
7.37364e-50
6.67195e-50
5.9456e-50
5.5834e-50
6.81486e-50
1.06825e-49
1.73649e-49
2.70405e-49
4.12434e-49
5.28236e-49
5.67718e-49
3.71912e-49
1.67293e-49
7.55975e-50
6.30847e-50
7.18385e-50
1.19493e-50
2.59787e-53
1.33201e-52
1.29023e-52
1.3724e-52
2.91837e-52
6.86045e-52
1.03119e-51
9.10209e-52
6.06082e-52
3.61191e-52
2.43792e-52
1.74032e-52
1.19165e-52
7.89438e-53
5.411e-53
4.1853e-53
4.57136e-53
7.47421e-53
1.42661e-52
2.56059e-52
4.25155e-52
7.09657e-52
1.07711e-51
1.28389e-51
9.49692e-52
4.40814e-52
1.98944e-52
1.57118e-52
1.59317e-52
2.81442e-53
3.99782e-56
2.76849e-55
2.3526e-55
2.7379e-55
5.8906e-55
1.23513e-54
1.75269e-54
1.52697e-54
9.42268e-55
5.37903e-55
3.5693e-55
2.37768e-55
1.35495e-55
7.16451e-56
4.42752e-56
3.90382e-56
5.29363e-56
9.55442e-56
1.82034e-55
3.22335e-55
5.55666e-55
1.02617e-54
1.80665e-54
2.29812e-54
1.82378e-54
8.61066e-55
4.05142e-55
3.29015e-55
3.29774e-55
6.06031e-56
8.27514e-59
5.07307e-58
3.88355e-58
5.02955e-58
9.18659e-58
1.90167e-57
2.68092e-57
2.24922e-57
1.27458e-57
7.08295e-58
4.4424e-58
2.56432e-58
1.25012e-58
6.44275e-59
4.54995e-59
4.60758e-59
6.14359e-59
9.93396e-59
1.79996e-58
3.34765e-58
6.55184e-58
1.3973e-57
2.76609e-57
3.59614e-57
2.90921e-57
1.39081e-57
7.03157e-58
6.06502e-58
6.24359e-58
1.15085e-58
2.2081e-61
5.96605e-61
7.79606e-61
9.35058e-61
1.60843e-60
3.48263e-60
4.16252e-60
3.16818e-60
1.63427e-60
8.6302e-61
4.82454e-61
2.46206e-61
1.17731e-61
6.8741e-62
5.43719e-62
5.3629e-62
6.4567e-62
9.86665e-62
1.95261e-61
4.26755e-61
9.56379e-61
2.17112e-60
4.27757e-60
5.2691e-60
4.09739e-60
1.9849e-60
1.09061e-60
9.93831e-61
1.05365e-60
1.9247e-61
1.75812e-64
1.10434e-63
1.60179e-63
1.71206e-63
3.10608e-63
6.13229e-63
6.11585e-63
4.59281e-63
2.30738e-63
1.15045e-63
5.76432e-64
2.73982e-64
1.33961e-64
8.14362e-65
6.13195e-65
5.5174e-65
6.55639e-65
1.10752e-64
2.53805e-64
6.10476e-64
1.37348e-63
2.92641e-63
5.4656e-63
6.38944e-63
5.13633e-63
2.70753e-63
1.62999e-63
1.55102e-63
1.66474e-63
2.971e-64
2.92011e-67
3.20685e-66
2.74307e-66
2.74814e-66
4.55238e-66
7.54632e-66
7.18865e-66
5.69898e-66
2.86989e-66
1.32648e-66
6.03216e-67
2.68743e-67
1.24652e-67
6.86106e-68
4.59016e-68
4.03795e-68
5.41303e-68
1.08934e-67
2.77189e-67
6.67303e-67
1.41974e-66
2.93356e-66
5.85633e-66
7.34427e-66
7.00482e-66
4.11058e-66
2.55711e-66
2.42199e-66
2.52623e-66
4.32025e-67
9.58064e-70
4.66259e-69
3.53911e-69
3.59391e-69
5.42912e-69
8.42624e-69
8.20058e-69
6.40419e-69
2.9811e-69
1.20974e-69
4.92062e-70
2.03357e-70
8.68082e-71
4.30275e-71
2.78389e-71
2.76657e-71
4.49904e-71
1.03041e-70
2.65481e-70
6.11669e-70
1.28848e-69
2.87332e-69
6.66194e-69
9.72443e-69
1.02569e-68
6.14435e-69
3.69575e-69
3.40685e-69
3.52155e-69
5.93059e-70
1.00072e-72
3.36376e-72
3.93369e-72
4.23264e-72
6.57699e-72
9.99481e-72
9.57247e-72
6.70702e-72
2.75061e-72
9.76324e-73
3.73399e-73
1.55495e-73
6.73265e-74
3.44596e-74
2.44764e-74
2.74828e-74
4.72302e-74
1.03683e-73
2.44274e-73
5.33279e-73
1.16937e-72
2.89514e-72
7.3939e-72
1.14313e-71
1.17743e-71
6.78601e-72
4.16702e-72
4.01679e-72
4.56791e-72
8.00446e-73
5.70626e-76
5.8061e-75
5.77825e-75
5.66851e-75
7.6749e-75
1.00106e-74
9.34803e-75
6.08952e-75
2.30932e-75
7.8955e-76
3.20616e-76
1.46577e-76
6.81026e-77
3.6775e-77
2.70137e-77
2.92167e-77
4.46884e-77
8.40528e-77
1.78878e-76
3.94038e-76
9.42199e-76
2.54044e-75
6.62446e-75
9.72807e-75
9.47066e-75
5.55124e-75
3.96516e-75
4.37806e-75
5.84265e-75
1.06116e-75
1.48602e-78
1.37925e-77
8.7666e-78
7.29224e-78
7.7284e-78
9.28904e-78
9.32946e-78
6.15151e-78
2.29973e-78
8.30544e-79
3.69976e-79
1.76017e-79
8.02281e-80
4.13548e-80
2.80577e-80
2.66036e-80
3.4882e-80
5.90256e-80
1.26046e-79
3.06812e-79
8.10362e-79
2.25393e-78
5.6015e-78
7.54529e-78
7.11115e-78
4.61872e-78
3.72052e-78
4.77069e-78
6.96147e-78
1.2357e-78
4.42203e-81
1.36316e-80
9.23443e-81
6.3232e-81
6.87598e-81
1.01776e-80
1.08929e-80
7.098e-81
2.66886e-81
1.0294e-81
4.64986e-82
2.07312e-82
8.6263e-83
4.13018e-83
2.64379e-83
2.35756e-83
2.98628e-83
5.1733e-83
1.19591e-82
3.16482e-82
8.53675e-82
2.25663e-81
5.13498e-81
6.59338e-81
6.14424e-81
4.29671e-81
3.56443e-81
4.67932e-81
6.66082e-81
1.11269e-81
1.88025e-84
6.45374e-84
7.07604e-84
5.68397e-84
7.66139e-84
1.2383e-83
1.15705e-83
6.40978e-84
2.37377e-84
9.03658e-85
3.71449e-85
1.4539e-85
5.66092e-86
2.79223e-86
1.9353e-86
1.87857e-86
2.56577e-86
4.75089e-86
1.14272e-85
3.03011e-85
7.8691e-85
1.97722e-84
4.39763e-84
5.86299e-84
5.66993e-84
4.09215e-84
3.24211e-84
3.92667e-84
4.93118e-84
7.79337e-85
1.00333e-87
1.11662e-86
1.0022e-86
8.37335e-87
1.22754e-86
1.46694e-86
9.8432e-87
4.29064e-87
1.45608e-87
4.68142e-88
1.51409e-88
5.011e-89
1.98607e-89
1.16494e-89
9.70176e-90
1.06953e-89
1.56384e-89
2.96213e-89
7.07438e-89
1.8485e-88
4.87087e-88
1.31376e-87
3.31338e-87
5.28709e-87
5.70501e-87
4.16623e-87
3.05359e-87
3.16639e-87
3.30051e-87
5.00451e-88
2.39142e-90
2.28663e-89
1.57869e-89
1.35479e-89
1.63698e-89
1.34717e-89
7.87699e-90
3.22957e-90
9.76185e-91
2.47397e-91
6.37104e-92
1.98172e-92
8.3151e-93
5.23051e-93
4.47945e-93
4.86443e-93
6.8891e-93
1.27401e-92
3.03532e-92
8.31585e-92
2.52333e-91
8.44673e-91
2.70378e-90
5.42977e-90
6.51124e-90
4.69372e-90
3.07304e-90
2.73509e-90
2.41543e-90
3.60135e-91
4.9176e-93
1.81048e-92
1.35734e-92
1.07531e-92
1.218e-92
1.07515e-92
7.52672e-93
3.16304e-93
8.42999e-94
1.85087e-94
4.53345e-95
1.4201e-95
5.87479e-96
3.29121e-96
2.34926e-96
2.24914e-96
3.06257e-96
5.82328e-96
1.47192e-95
4.41971e-95
1.52961e-94
6.07527e-94
2.3202e-93
5.43541e-93
6.89071e-93
4.86717e-93
2.95712e-93
2.50692e-93
2.14434e-93
3.32769e-94
1.81743e-96
8.37849e-96
9.90356e-96
8.66649e-96
1.02179e-95
1.10798e-95
8.01919e-96
2.83877e-96
6.25335e-97
1.29191e-97
3.32209e-98
1.04318e-98
3.81939e-99
1.73983e-99
1.05018e-99
9.86346e-100
1.47818e-99
3.16965e-99
8.73254e-99
2.71991e-98
9.56529e-98
3.85969e-97
1.5483e-96
3.94228e-96
5.27058e-96
4.02342e-96
2.6642e-96
2.47635e-96
2.43151e-96
4.06502e-97
1.25939e-99
1.46164e-98
1.40595e-98
1.14052e-98
1.43788e-98
1.44893e-98
7.27191e-99
1.72195e-99
3.06967e-100
6.33609e-101
1.70069e-101
5.13496e-102
1.6809e-102
7.00524e-103
4.42444e-103
4.49332e-103
7.26105e-103
1.69617e-102
4.77258e-102
1.40736e-101
4.50987e-101
1.6973e-100
6.78708e-100
1.95231e-99
3.03585e-99
3.0366e-99
2.48883e-99
2.83907e-99
3.37439e-99
5.90825e-100
2.88419e-102
2.59069e-101
1.84125e-101
1.49498e-101
1.82084e-101
1.49949e-101
4.64955e-102
7.78352e-103
1.37802e-103
3.13772e-104
8.98779e-105
2.9513e-105
1.12632e-105
5.45026e-106
3.48373e-106
3.09752e-106
4.16025e-106
8.26076e-106
2.09523e-105
5.62666e-105
1.68567e-104
6.28279e-104
2.68202e-103
9.22839e-103
1.96792e-102
2.60814e-102
2.61423e-102
3.55602e-102
4.79946e-102
8.3063e-103
4.82561e-105
2.01346e-104
1.39791e-104
1.24035e-104
1.38051e-104
8.71536e-105
2.37795e-105
4.62134e-106
9.85049e-107
2.27478e-107
6.54929e-108
2.52718e-108
1.14772e-108
5.82836e-109
3.54377e-109
2.67718e-109
2.60216e-109
3.33088e-109
7.21151e-109
2.07328e-108
7.39011e-108
3.16438e-107
1.52555e-106
6.32299e-106
1.66132e-105
2.54242e-105
2.76726e-105
3.98784e-105
5.5721e-105
9.26213e-106
1.70169e-105
1.70174e-105
4.61716e-105
6.81999e-105
4.26299e-105
1.50078e-105
3.23948e-106
5.39727e-107
9.05647e-108
2.7242e-108
1.08093e-108
5.01211e-109
2.52209e-109
1.51984e-109
1.0383e-109
7.87266e-110
7.44767e-110
1.12559e-109
1.38771e-109
2.41751e-109
6.09698e-109
3.21842e-108
1.7999e-107
1.04194e-106
4.73829e-106
1.33154e-105
2.20436e-105
1.61934e-105
7.28785e-106
7.29879e-106
1
1
1
1.00001
1.00001
1.00001
1.00002
1.00002
1.00002
1.00002
1.00002
1.00002
1.00002
1.00002
1.00003
1.00003
1.00003
1.00003
1.00003
1.00002
1.00001
1.00001
1.00001
1.00001
1.00002
1.00004
1.00006