/*--------------------------------*- C++ -*----------------------------------*\
| =========                 |                                                 |
| \\      /  F ield         | OpenFOAM: The Open Source CFD Toolbox           |
|  \\    /   O peration     | Version:  2312                                  |
|   \\  /    A nd           | Website:  www.openfoam.com                      |
|    \\/     M anipulation  |                                                 |
\*---------------------------------------------------------------------------*/
FoamFile
{
    version     2.0;
    format      ascii;
    arch        "LSB;label=32;scalar=64";
    class       volScalarField;
    location    "0.748016";
    object      epsilon;
}
// * * * * * * * * * * * * * * * * * * * * * * * * * * * * * * * * * * * * * //

dimensions      [0 2 -3 0 0 0 0];

internalField   nonuniform List<scalar> 
90000
(
1.13167e-05
1.13175e-05
1.13179e-05
1.13181e-05
1.13182e-05
1.13183e-05
1.13182e-05
1.13181e-05
1.1318e-05
1.13179e-05
1.13179e-05
1.13179e-05
1.13179e-05
1.1318e-05
1.1318e-05
1.13181e-05
1.13183e-05
1.13186e-05
1.13187e-05
1.13186e-05
1.13183e-05
1.1318e-05
1.13178e-05
1.13183e-05
1.13189e-05
1.13192e-05
1.13192e-05
1.1319e-05
1.13191e-05
1.13198e-05
1.13173e-05
1.13466e-05
1.13481e-05
1.13481e-05
1.1348e-05
1.1348e-05
1.1348e-05
1.13481e-05
1.13482e-05
1.13482e-05
1.13483e-05
1.13483e-05
1.13484e-05
1.13484e-05
1.13485e-05
1.13485e-05
1.13485e-05
1.13485e-05
1.13484e-05
1.13483e-05
1.13483e-05
1.13484e-05
1.13484e-05
1.13484e-05
1.13482e-05
1.13479e-05
1.1348e-05
1.13487e-05
1.13471e-05
1.13238e-05
1.13179e-05
1.13486e-05
1.13502e-05
1.13501e-05
1.135e-05
1.135e-05
1.13499e-05
1.13499e-05
1.135e-05
1.13501e-05
1.13501e-05
1.135e-05
1.135e-05
1.13501e-05
1.13501e-05
1.135e-05
1.13499e-05
1.13499e-05
1.135e-05
1.13502e-05
1.13504e-05
1.13505e-05
1.13506e-05
1.13506e-05
1.13508e-05
1.13509e-05
1.13511e-05
1.13513e-05
1.13498e-05
1.13219e-05
1.13184e-05
1.1349e-05
1.13507e-05
1.13507e-05
1.13507e-05
1.13506e-05
1.13505e-05
1.13504e-05
1.13503e-05
1.13503e-05
1.13502e-05
1.13501e-05
1.135e-05
1.135e-05
1.13499e-05
1.13498e-05
1.13499e-05
1.13501e-05
1.13504e-05
1.13505e-05
1.13506e-05
1.13507e-05
1.13509e-05
1.13512e-05
1.13516e-05
1.13517e-05
1.13516e-05
1.13513e-05
1.13501e-05
1.13192e-05
1.13187e-05
1.13492e-05
1.1351e-05
1.13512e-05
1.13512e-05
1.13511e-05
1.13509e-05
1.13507e-05
1.13506e-05
1.13504e-05
1.13502e-05
1.135e-05
1.13499e-05
1.13497e-05
1.13496e-05
1.13497e-05
1.135e-05
1.13502e-05
1.13504e-05
1.13505e-05
1.13505e-05
1.13506e-05
1.1351e-05
1.13514e-05
1.13516e-05
1.13516e-05
1.13513e-05
1.13505e-05
1.13499e-05
1.13186e-05
1.13189e-05
1.13495e-05
1.13513e-05
1.13514e-05
1.13514e-05
1.13514e-05
1.13512e-05
1.13511e-05
1.13508e-05
1.13505e-05
1.13502e-05
1.135e-05
1.13499e-05
1.13498e-05
1.13498e-05
1.13499e-05
1.135e-05
1.13501e-05
1.13503e-05
1.13503e-05
1.13505e-05
1.13508e-05
1.1351e-05
1.13511e-05
1.13511e-05
1.13511e-05
1.13514e-05
1.13514e-05
1.13507e-05
1.13193e-05
1.13191e-05
1.13499e-05
1.13515e-05
1.13515e-05
1.13514e-05
1.13514e-05
1.13514e-05
1.13513e-05
1.1351e-05
1.13506e-05
1.13502e-05
1.13499e-05
1.13499e-05
1.13499e-05
1.135e-05
1.135e-05
1.13499e-05
1.135e-05
1.13501e-05
1.13504e-05
1.13507e-05
1.13508e-05
1.13508e-05
1.13508e-05
1.13509e-05
1.13515e-05
1.13522e-05
1.13525e-05
1.13513e-05
1.13199e-05
1.13193e-05
1.13502e-05
1.13515e-05
1.13515e-05
1.13514e-05
1.13515e-05
1.13515e-05
1.13515e-05
1.13513e-05
1.13509e-05
1.13505e-05
1.13502e-05
1.13501e-05
1.13501e-05
1.13501e-05
1.13501e-05
1.135e-05
1.135e-05
1.13502e-05
1.13506e-05
1.13508e-05
1.13508e-05
1.13508e-05
1.1351e-05
1.13515e-05
1.13522e-05
1.13528e-05
1.13531e-05
1.13515e-05
1.13203e-05
1.13194e-05
1.13503e-05
1.13516e-05
1.13515e-05
1.13514e-05
1.13515e-05
1.13516e-05
1.13516e-05
1.13515e-05
1.13513e-05
1.1351e-05
1.13506e-05
1.13504e-05
1.13502e-05
1.13503e-05
1.13504e-05
1.13505e-05
1.13507e-05
1.13508e-05
1.13509e-05
1.1351e-05
1.13509e-05
1.1351e-05
1.13514e-05
1.1352e-05
1.13526e-05
1.1353e-05
1.13532e-05
1.13515e-05
1.13206e-05
1.13198e-05
1.13504e-05
1.13518e-05
1.13517e-05
1.13515e-05
1.13515e-05
1.13516e-05
1.13516e-05
1.13517e-05
1.13516e-05
1.13515e-05
1.13512e-05
1.13508e-05
1.13504e-05
1.13504e-05
1.13507e-05
1.13511e-05
1.13514e-05
1.13516e-05
1.13516e-05
1.13514e-05
1.13513e-05
1.13513e-05
1.13516e-05
1.13521e-05
1.13526e-05
1.1353e-05
1.13532e-05
1.13515e-05
1.13208e-05
1.13203e-05
1.13505e-05
1.1352e-05
1.13519e-05
1.13517e-05
1.13515e-05
1.13515e-05
1.13515e-05
1.13517e-05
1.13518e-05
1.13517e-05
1.13516e-05
1.13512e-05
1.13507e-05
1.13504e-05
1.13507e-05
1.13513e-05
1.13517e-05
1.1352e-05
1.1352e-05
1.13519e-05
1.13517e-05
1.13516e-05
1.13518e-05
1.13521e-05
1.13526e-05
1.13529e-05
1.13531e-05
1.13514e-05
1.13208e-05
1.13208e-05
1.13509e-05
1.13524e-05
1.13524e-05
1.13523e-05
1.13522e-05
1.1352e-05
1.13518e-05
1.13518e-05
1.13518e-05
1.13518e-05
1.13517e-05
1.13515e-05
1.1351e-05
1.13505e-05
1.13506e-05
1.13511e-05
1.13516e-05
1.13519e-05
1.1352e-05
1.13519e-05
1.13518e-05
1.13517e-05
1.13519e-05
1.13522e-05
1.13526e-05
1.13529e-05
1.1353e-05
1.13514e-05
1.13209e-05
1.13214e-05
1.13516e-05
1.13532e-05
1.13533e-05
1.13533e-05
1.13533e-05
1.13532e-05
1.1353e-05
1.13526e-05
1.13521e-05
1.13518e-05
1.13518e-05
1.13517e-05
1.13514e-05
1.13511e-05
1.13509e-05
1.1351e-05
1.13512e-05
1.13513e-05
1.13515e-05
1.13516e-05
1.13517e-05
1.13519e-05
1.13522e-05
1.13524e-05
1.13527e-05
1.1353e-05
1.13531e-05
1.13515e-05
1.13213e-05
1.13222e-05
1.13524e-05
1.1354e-05
1.13542e-05
1.13544e-05
1.13544e-05
1.13544e-05
1.1354e-05
1.13534e-05
1.13526e-05
1.13519e-05
1.13517e-05
1.13517e-05
1.13517e-05
1.13516e-05
1.13515e-05
1.13514e-05
1.13512e-05
1.1351e-05
1.13512e-05
1.13516e-05
1.13521e-05
1.13524e-05
1.13527e-05
1.13529e-05
1.13532e-05
1.13534e-05
1.13535e-05
1.1352e-05
1.13221e-05
1.13234e-05
1.13531e-05
1.1355e-05
1.13552e-05
1.13553e-05
1.13553e-05
1.1355e-05
1.13545e-05
1.13537e-05
1.13529e-05
1.13521e-05
1.13517e-05
1.13517e-05
1.13519e-05
1.1352e-05
1.13519e-05
1.13518e-05
1.13517e-05
1.13516e-05
1.13519e-05
1.13524e-05
1.13529e-05
1.13533e-05
1.13536e-05
1.13538e-05
1.13539e-05
1.13541e-05
1.13543e-05
1.13529e-05
1.13232e-05
1.13245e-05
1.13544e-05
1.13562e-05
1.13562e-05
1.13561e-05
1.13557e-05
1.13552e-05
1.13546e-05
1.1354e-05
1.13533e-05
1.13526e-05
1.13519e-05
1.13518e-05
1.13519e-05
1.13521e-05
1.13522e-05
1.13522e-05
1.13523e-05
1.13525e-05
1.13528e-05
1.13532e-05
1.13537e-05
1.13541e-05
1.13545e-05
1.13548e-05
1.1355e-05
1.13553e-05
1.13557e-05
1.13546e-05
1.13244e-05
1.13255e-05
1.13563e-05
1.13576e-05
1.13573e-05
1.13568e-05
1.13561e-05
1.13554e-05
1.13549e-05
1.13545e-05
1.13539e-05
1.13532e-05
1.13523e-05
1.1352e-05
1.13519e-05
1.13519e-05
1.13521e-05
1.13524e-05
1.13527e-05
1.13531e-05
1.13534e-05
1.13539e-05
1.13545e-05
1.1355e-05
1.13555e-05
1.13559e-05
1.13564e-05
1.13569e-05
1.13574e-05
1.13561e-05
1.13255e-05
1.13269e-05
1.13581e-05
1.13591e-05
1.13586e-05
1.1358e-05
1.13573e-05
1.13567e-05
1.1356e-05
1.13554e-05
1.13547e-05
1.13538e-05
1.13529e-05
1.13523e-05
1.13519e-05
1.13516e-05
1.13518e-05
1.13523e-05
1.13529e-05
1.13535e-05
1.13541e-05
1.13547e-05
1.13554e-05
1.1356e-05
1.13566e-05
1.13572e-05
1.13579e-05
1.13586e-05
1.13589e-05
1.13572e-05
1.13268e-05
1.13287e-05
1.13598e-05
1.13608e-05
1.13604e-05
1.13598e-05
1.13592e-05
1.13584e-05
1.13576e-05
1.13567e-05
1.13556e-05
1.13546e-05
1.13535e-05
1.13526e-05
1.13518e-05
1.13513e-05
1.13514e-05
1.13521e-05
1.1353e-05
1.13539e-05
1.13548e-05
1.13557e-05
1.13565e-05
1.13573e-05
1.13581e-05
1.13589e-05
1.13597e-05
1.13602e-05
1.13603e-05
1.13585e-05
1.13284e-05
1.13311e-05
1.13615e-05
1.13628e-05
1.13624e-05
1.13619e-05
1.13612e-05
1.13604e-05
1.13594e-05
1.13583e-05
1.1357e-05
1.13557e-05
1.13544e-05
1.13531e-05
1.13519e-05
1.13511e-05
1.13512e-05
1.13522e-05
1.13534e-05
1.13547e-05
1.13559e-05
1.1357e-05
1.1358e-05
1.13591e-05
1.13601e-05
1.1361e-05
1.13617e-05
1.1362e-05
1.1362e-05
1.13604e-05
1.13305e-05
1.13339e-05
1.13638e-05
1.13652e-05
1.13649e-05
1.13643e-05
1.13636e-05
1.13627e-05
1.13616e-05
1.13602e-05
1.13588e-05
1.13572e-05
1.13556e-05
1.1354e-05
1.13525e-05
1.13514e-05
1.13515e-05
1.13528e-05
1.13543e-05
1.13559e-05
1.13574e-05
1.13588e-05
1.13601e-05
1.13614e-05
1.13626e-05
1.13634e-05
1.1364e-05
1.13644e-05
1.13646e-05
1.13631e-05
1.13333e-05
1.13373e-05
1.13668e-05
1.13683e-05
1.1368e-05
1.13674e-05
1.13665e-05
1.13654e-05
1.13641e-05
1.13626e-05
1.13609e-05
1.1359e-05
1.13571e-05
1.13552e-05
1.13534e-05
1.13522e-05
1.13523e-05
1.13537e-05
1.13556e-05
1.13575e-05
1.13593e-05
1.1361e-05
1.13627e-05
1.13642e-05
1.13654e-05
1.13663e-05
1.1367e-05
1.13676e-05
1.1368e-05
1.13666e-05
1.13369e-05
1.13415e-05
1.13708e-05
1.13724e-05
1.1372e-05
1.13712e-05
1.13702e-05
1.13688e-05
1.13673e-05
1.13655e-05
1.13635e-05
1.13613e-05
1.1359e-05
1.13567e-05
1.13546e-05
1.13532e-05
1.13533e-05
1.13549e-05
1.13571e-05
1.13594e-05
1.13617e-05
1.13638e-05
1.13657e-05
1.13674e-05
1.13688e-05
1.137e-05
1.1371e-05
1.13718e-05
1.13724e-05
1.13711e-05
1.13417e-05
1.13468e-05
1.13761e-05
1.13776e-05
1.1377e-05
1.1376e-05
1.13747e-05
1.13731e-05
1.13712e-05
1.1369e-05
1.13666e-05
1.13641e-05
1.13614e-05
1.13587e-05
1.13562e-05
1.13545e-05
1.13546e-05
1.13565e-05
1.13591e-05
1.13618e-05
1.13645e-05
1.1367e-05
1.13693e-05
1.13714e-05
1.13732e-05
1.13748e-05
1.13761e-05
1.13771e-05
1.13779e-05
1.13768e-05
1.13476e-05
1.13535e-05
1.13828e-05
1.1384e-05
1.13832e-05
1.13819e-05
1.13803e-05
1.13784e-05
1.13761e-05
1.13735e-05
1.13706e-05
1.13675e-05
1.13644e-05
1.13612e-05
1.13583e-05
1.13562e-05
1.13562e-05
1.13585e-05
1.13615e-05
1.13646e-05
1.13678e-05
1.13709e-05
1.13737e-05
1.13763e-05
1.13785e-05
1.13804e-05
1.13821e-05
1.13835e-05
1.13846e-05
1.13837e-05
1.13544e-05
1.13617e-05
1.13909e-05
1.13919e-05
1.13908e-05
1.13892e-05
1.13873e-05
1.13849e-05
1.13821e-05
1.1379e-05
1.13756e-05
1.13719e-05
1.13682e-05
1.13644e-05
1.1361e-05
1.13584e-05
1.13584e-05
1.13609e-05
1.13644e-05
1.13682e-05
1.1372e-05
1.13757e-05
1.13791e-05
1.13822e-05
1.13848e-05
1.13872e-05
1.13893e-05
1.1391e-05
1.13924e-05
1.13916e-05
1.13622e-05
1.13716e-05
1.14006e-05
1.14014e-05
1.14001e-05
1.13982e-05
1.13958e-05
1.13929e-05
1.13896e-05
1.13858e-05
1.13817e-05
1.13773e-05
1.13728e-05
1.13684e-05
1.13642e-05
1.13612e-05
1.1361e-05
1.13639e-05
1.13681e-05
1.13727e-05
1.13774e-05
1.13818e-05
1.13858e-05
1.13894e-05
1.13926e-05
1.13955e-05
1.13981e-05
1.14002e-05
1.14017e-05
1.14008e-05
1.13716e-05
1.13836e-05
1.14123e-05
1.14129e-05
1.14113e-05
1.1409e-05
1.14061e-05
1.14027e-05
1.13987e-05
1.13941e-05
1.13892e-05
1.1384e-05
1.13787e-05
1.13733e-05
1.13683e-05
1.13647e-05
1.13645e-05
1.1368e-05
1.13731e-05
1.13787e-05
1.13842e-05
1.13894e-05
1.13942e-05
1.13985e-05
1.14024e-05
1.14059e-05
1.1409e-05
1.14113e-05
1.14128e-05
1.1412e-05
1.13832e-05
1.13978e-05
1.14263e-05
1.14267e-05
1.14247e-05
1.1422e-05
1.14186e-05
1.14144e-05
1.14096e-05
1.14043e-05
1.13985e-05
1.13924e-05
1.1386e-05
1.13796e-05
1.13736e-05
1.13694e-05
1.13693e-05
1.13735e-05
1.13796e-05
1.13862e-05
1.13927e-05
1.13989e-05
1.14046e-05
1.14098e-05
1.14146e-05
1.14187e-05
1.14222e-05
1.14247e-05
1.14263e-05
1.14259e-05
1.13976e-05
1.14149e-05
1.1443e-05
1.14432e-05
1.14408e-05
1.14376e-05
1.14335e-05
1.14287e-05
1.14231e-05
1.14168e-05
1.141e-05
1.14028e-05
1.13952e-05
1.13876e-05
1.13806e-05
1.13757e-05
1.13757e-05
1.13806e-05
1.13877e-05
1.13955e-05
1.14032e-05
1.14105e-05
1.14173e-05
1.14236e-05
1.14293e-05
1.14341e-05
1.1438e-05
1.14409e-05
1.1443e-05
1.14429e-05
1.14149e-05
1.14354e-05
1.1463e-05
1.14629e-05
1.14602e-05
1.14564e-05
1.14517e-05
1.1446e-05
1.14395e-05
1.14322e-05
1.14242e-05
1.14157e-05
1.14067e-05
1.13976e-05
1.13895e-05
1.13839e-05
1.1384e-05
1.13896e-05
1.13978e-05
1.14068e-05
1.14158e-05
1.14246e-05
1.14327e-05
1.14402e-05
1.14469e-05
1.14524e-05
1.14568e-05
1.14604e-05
1.14632e-05
1.14633e-05
1.14355e-05
1.14599e-05
1.14871e-05
1.14867e-05
1.14836e-05
1.14792e-05
1.14737e-05
1.14672e-05
1.14596e-05
1.14511e-05
1.14418e-05
1.14316e-05
1.14209e-05
1.14103e-05
1.14008e-05
1.13945e-05
1.13946e-05
1.14009e-05
1.14103e-05
1.14208e-05
1.14314e-05
1.14418e-05
1.14514e-05
1.14602e-05
1.14679e-05
1.14743e-05
1.14796e-05
1.14841e-05
1.14874e-05
1.14878e-05
1.14604e-05
1.14893e-05
1.15161e-05
1.15154e-05
1.15117e-05
1.15067e-05
1.15004e-05
1.14929e-05
1.14841e-05
1.14741e-05
1.14631e-05
1.14511e-05
1.14386e-05
1.14262e-05
1.14154e-05
1.14082e-05
1.14082e-05
1.14154e-05
1.14261e-05
1.14383e-05
1.14506e-05
1.14627e-05
1.1474e-05
1.14841e-05
1.1493e-05
1.15006e-05
1.1507e-05
1.15123e-05
1.15161e-05
1.15168e-05
1.149e-05
1.15244e-05
1.15507e-05
1.15496e-05
1.15455e-05
1.15397e-05
1.15325e-05
1.15238e-05
1.15135e-05
1.1502e-05
1.14891e-05
1.14752e-05
1.14606e-05
1.14464e-05
1.14341e-05
1.14259e-05
1.14258e-05
1.1434e-05
1.14462e-05
1.14602e-05
1.14745e-05
1.14884e-05
1.15015e-05
1.15131e-05
1.15233e-05
1.15322e-05
1.15397e-05
1.15457e-05
1.155e-05
1.15511e-05
1.15249e-05
1.1566e-05
1.15917e-05
1.15903e-05
1.15856e-05
1.15791e-05
1.15708e-05
1.15608e-05
1.15491e-05
1.15358e-05
1.1521e-05
1.1505e-05
1.14884e-05
1.14722e-05
1.14582e-05
1.1449e-05
1.1449e-05
1.14582e-05
1.1472e-05
1.1488e-05
1.15044e-05
1.15204e-05
1.15353e-05
1.15485e-05
1.15603e-05
1.15706e-05
1.1579e-05
1.15856e-05
1.15903e-05
1.15916e-05
1.15661e-05
1.16153e-05
1.16403e-05
1.16385e-05
1.16332e-05
1.16259e-05
1.16167e-05
1.16055e-05
1.15923e-05
1.15772e-05
1.15605e-05
1.15423e-05
1.15236e-05
1.15055e-05
1.14898e-05
1.14796e-05
1.14797e-05
1.149e-05
1.15056e-05
1.15238e-05
1.15425e-05
1.15605e-05
1.15771e-05
1.1592e-05
1.16054e-05
1.16169e-05
1.16261e-05
1.16331e-05
1.16381e-05
1.16397e-05
1.16151e-05
1.16734e-05
1.16975e-05
1.16955e-05
1.16898e-05
1.16819e-05
1.16718e-05
1.16595e-05
1.1645e-05
1.16282e-05
1.16095e-05
1.15893e-05
1.15684e-05
1.15484e-05
1.15311e-05
1.15199e-05
1.152e-05
1.15316e-05
1.15489e-05
1.15693e-05
1.15901e-05
1.16101e-05
1.16286e-05
1.16452e-05
1.166e-05
1.16724e-05
1.16823e-05
1.16899e-05
1.16952e-05
1.16971e-05
1.16735e-05
1.17425e-05
1.17653e-05
1.1763e-05
1.1757e-05
1.17486e-05
1.17379e-05
1.17248e-05
1.1709e-05
1.16907e-05
1.16703e-05
1.16483e-05
1.16255e-05
1.16035e-05
1.15845e-05
1.1572e-05
1.15721e-05
1.15848e-05
1.16039e-05
1.16263e-05
1.16491e-05
1.1671e-05
1.16912e-05
1.17095e-05
1.17253e-05
1.17385e-05
1.1749e-05
1.17572e-05
1.17632e-05
1.17656e-05
1.17434e-05
1.18234e-05
1.18448e-05
1.18425e-05
1.18363e-05
1.18277e-05
1.18166e-05
1.18028e-05
1.17862e-05
1.1767e-05
1.17454e-05
1.17219e-05
1.16973e-05
1.16733e-05
1.16524e-05
1.16386e-05
1.16386e-05
1.16524e-05
1.16731e-05
1.16973e-05
1.17217e-05
1.17452e-05
1.17668e-05
1.17862e-05
1.18028e-05
1.18164e-05
1.18275e-05
1.18362e-05
1.18427e-05
1.18453e-05
1.18245e-05
1.19174e-05
1.19373e-05
1.19353e-05
1.19293e-05
1.19209e-05
1.19099e-05
1.18961e-05
1.18795e-05
1.186e-05
1.18378e-05
1.18131e-05
1.17871e-05
1.17615e-05
1.17391e-05
1.17242e-05
1.1724e-05
1.17388e-05
1.17609e-05
1.17865e-05
1.1812e-05
1.18368e-05
1.18591e-05
1.18789e-05
1.18955e-05
1.19091e-05
1.19201e-05
1.19288e-05
1.19351e-05
1.19375e-05
1.19177e-05
1.20262e-05
1.20448e-05
1.20434e-05
1.20382e-05
1.20307e-05
1.20208e-05
1.20081e-05
1.19924e-05
1.19735e-05
1.19515e-05
1.19267e-05
1.19003e-05
1.1874e-05
1.18506e-05
1.18347e-05
1.18344e-05
1.18502e-05
1.18735e-05
1.19001e-05
1.19261e-05
1.19511e-05
1.19729e-05
1.1992e-05
1.20077e-05
1.20203e-05
1.20303e-05
1.2038e-05
1.20431e-05
1.2045e-05
1.20261e-05
1.2152e-05
1.217e-05
1.21696e-05
1.21659e-05
1.21605e-05
1.21528e-05
1.21424e-05
1.21289e-05
1.21121e-05
1.2092e-05
1.20687e-05
1.20431e-05
1.20171e-05
1.19934e-05
1.19772e-05
1.19772e-05
1.19937e-05
1.20172e-05
1.20434e-05
1.20687e-05
1.20921e-05
1.21121e-05
1.21288e-05
1.21422e-05
1.21524e-05
1.21602e-05
1.21657e-05
1.21694e-05
1.21702e-05
1.21521e-05
1.22977e-05
1.2315e-05
1.23166e-05
1.23157e-05
1.23133e-05
1.23093e-05
1.2303e-05
1.22939e-05
1.22816e-05
1.22655e-05
1.22457e-05
1.22227e-05
1.21986e-05
1.2176e-05
1.21602e-05
1.21602e-05
1.21761e-05
1.21988e-05
1.22231e-05
1.22461e-05
1.22657e-05
1.22815e-05
1.22938e-05
1.23027e-05
1.23087e-05
1.23127e-05
1.23153e-05
1.23167e-05
1.23152e-05
1.22978e-05
1.24678e-05
1.24831e-05
1.2488e-05
1.24911e-05
1.24936e-05
1.24953e-05
1.24957e-05
1.24938e-05
1.24888e-05
1.24804e-05
1.24676e-05
1.24506e-05
1.24309e-05
1.24114e-05
1.23974e-05
1.23978e-05
1.24118e-05
1.24314e-05
1.2451e-05
1.24685e-05
1.24809e-05
1.2489e-05
1.24941e-05
1.24955e-05
1.2495e-05
1.24934e-05
1.24909e-05
1.24882e-05
1.2483e-05
1.24674e-05
1.26683e-05
1.26809e-05
1.26898e-05
1.26976e-05
1.27078e-05
1.27186e-05
1.27293e-05
1.27388e-05
1.27464e-05
1.27523e-05
1.27551e-05
1.27545e-05
1.27532e-05
1.27528e-05
1.27554e-05
1.2756e-05
1.27532e-05
1.27538e-05
1.2755e-05
1.27559e-05
1.27531e-05
1.27472e-05
1.27395e-05
1.27291e-05
1.27184e-05
1.2708e-05
1.26981e-05
1.26903e-05
1.26804e-05
1.26674e-05
1.29025e-05
1.29177e-05
1.29334e-05
1.29498e-05
1.29702e-05
1.29953e-05
1.30252e-05
1.30577e-05
1.3097e-05
1.31503e-05
1.32298e-05
1.33456e-05
1.35074e-05
1.37035e-05
1.3893e-05
1.38939e-05
1.37038e-05
1.35074e-05
1.33462e-05
1.32307e-05
1.31509e-05
1.30976e-05
1.30581e-05
1.30247e-05
1.29952e-05
1.29702e-05
1.29499e-05
1.29336e-05
1.29176e-05
1.29025e-05
1.31911e-05
1.32177e-05
1.3248e-05
1.32826e-05
1.33271e-05
1.33907e-05
1.34821e-05
1.36181e-05
1.38515e-05
1.42637e-05
1.50443e-05
1.63162e-05
1.80657e-05
2.01939e-05
2.22424e-05
2.22458e-05
2.01955e-05
1.80698e-05
1.63237e-05
1.50508e-05
1.42676e-05
1.38539e-05
1.36193e-05
1.34821e-05
1.33912e-05
1.33272e-05
1.32822e-05
1.32475e-05
1.32174e-05
1.31913e-05
1.35795e-05
1.36324e-05
1.37128e-05
1.3825e-05
1.39911e-05
1.42642e-05
1.47806e-05
1.5715e-05
1.76399e-05
2.12432e-05
2.84021e-05
4.04141e-05
5.69192e-05
7.65638e-05
9.52427e-05
9.52648e-05
7.65896e-05
5.69837e-05
4.0497e-05
2.84643e-05
2.12797e-05
1.76605e-05
1.57253e-05
1.47844e-05
1.42648e-05
1.39907e-05
1.38241e-05
1.37123e-05
1.36304e-05
1.35765e-05
1.42479e-05
1.44078e-05
1.47779e-05
1.53515e-05
1.63829e-05
1.83132e-05
2.23327e-05
3.07069e-05
4.78074e-05
8.06184e-05
0.000141859
0.000241204
0.000370062
0.000506461
0.000623106
0.000623285
0.000506762
0.000370708
0.000241958
0.00014243
8.09608e-05
4.79877e-05
3.07944e-05
2.23734e-05
1.83285e-05
1.63846e-05
1.53471e-05
1.47727e-05
1.43974e-05
1.42359e-05
1.62981e-05
1.77727e-05
2.04284e-05
2.50089e-05
3.52817e-05
5.61623e-05
0.000101168
0.000191885
0.000353102
0.000611468
0.000997154
0.00150924
0.00207677
0.00260438
0.00299373
0.00299472
0.00260633
0.00208035
0.00151353
0.00100094
0.000614193
0.000354814
0.000192814
0.000101622
5.63803e-05
3.53616e-05
2.50171e-05
2.04178e-05
1.7737e-05
1.62539e-05
4.74192e-05
8.8355e-05
0.000156717
0.000286704
0.000504332
0.000837306
0.00130829
0.0019248
0.00269878
0.00358875
0.00457882
0.0055677
0.00646383
0.00719968
0.00769857
0.00770112
0.007205
0.00647316
0.00557952
0.00459196
0.00360124
0.00270896
0.00193272
0.00131422
0.000841224
0.000506638
0.000287991
0.000157311
8.85265e-05
4.73842e-05
6.20304e-05
0.000102301
0.000178664
0.000307917
0.00052524
0.000881081
0.0014677
0.00226693
0.00323846
0.00428945
0.00539709
0.00652461
0.00754658
0.00835883
0.00890896
0.00891219
0.00836545
0.00755799
0.00653902
0.00541529
0.00430538
0.00325252
0.00227869
0.0014762
0.000885748
0.000527897
0.000309468
0.000179366
0.000102382
6.19197e-05
0.000106606
0.000150891
0.000265201
0.000473145
0.000792864
0.00124177
0.00174106
0.00236028
0.00308842
0.00411091
0.00508673
0.00617587
0.00748037
0.00856261
0.00923063
0.00923128
0.00856485
0.00748721
0.00618984
0.00510773
0.00412787
0.00310381
0.00237154
0.00175045
0.00124897
0.00079772
0.000475099
0.000266697
0.000151349
0.000106759
0.00016735
0.000209597
0.000333005
0.000564766
0.000923035
0.00137891
0.00184724
0.00233687
0.00288144
0.00355383
0.00449304
0.00554857
0.00648636
0.00715693
0.00770401
0.00770497
0.0071607
0.00649728
0.00556763
0.00450838
0.00356476
0.00289641
0.00234768
0.00185328
0.0013861
0.000934591
0.000571033
0.000334071
0.000210709
0.000167273
0.000199583
0.000233652
0.000311868
0.000461943
0.000719046
0.00110687
0.00157524
0.00207887
0.00256766
0.0030685
0.00365357
0.00432744
0.00500608
0.00552215
0.00589345
0.00589941
0.00552953
0.00502219
0.00434834
0.00366798
0.00308458
0.00258477
0.00209615
0.00159074
0.00111698
0.000728137
0.000468999
0.00031306
0.000233988
0.000201586
0.00018857
0.000213609
0.000244367
0.000307564
0.000415853
0.000598632
0.000896309
0.00135405
0.00189458
0.00251759
0.00319837
0.00381319
0.00432812
0.00463642
0.00480747
0.00481017
0.00463791
0.00433332
0.00382471
0.00320744
0.00252579
0.00190397
0.0013651
0.000905806
0.000605512
0.000419455
0.000309743
0.000245718
0.000212545
0.000189232
0.000160342
0.000176831
0.000185256
0.000204346
0.000238506
0.000293474
0.000391737
0.000573774
0.000877182
0.00139275
0.00215732
0.0030828
0.00385437
0.00431993
0.00456367
0.00456416
0.00431989
0.00385735
0.00309323
0.00216954
0.0014029
0.000885621
0.000580186
0.000396307
0.000297143
0.000241447
0.000205867
0.000186414
0.000176858
0.00016042
0.000133453
0.000143144
0.000144749
0.000150208
0.000160541
0.000176516
0.000202579
0.000251331
0.000339959
0.000521099
0.000920066
0.00164335
0.00258666
0.00336425
0.0038749
0.00387724
0.00336503
0.00258954
0.00164943
0.00092501
0.000523699
0.000341939
0.000252844
0.000203773
0.000177455
0.000161182
0.000150667
0.000145377
0.00014362
0.000133745
0.000113666
0.000117891
0.000117705
0.000119003
0.00012193
0.000126094
0.000133259
0.000144834
0.000164334
0.000204878
0.000305153
0.000554041
0.00102041
0.00168638
0.00232327
0.00232384
0.00168386
0.00102002
0.000555019
0.000305992
0.000205486
0.000164894
0.000145284
0.000133725
0.000126722
0.000122297
0.000119248
0.000117813
0.000118081
0.000113788
9.85452e-05
9.95308e-05
9.91429e-05
9.9633e-05
0.000100649
0.00010254
0.000105126
0.000108446
0.000113319
0.000121849
0.000140253
0.000186675
0.00029123
0.000478815
0.000722314
0.000722666
0.000478029
0.000290871
0.000186657
0.000140399
0.00012202
0.000113553
0.000108702
0.000105272
0.000102899
0.000101189
9.99485e-05
9.92301e-05
9.95967e-05
9.8505e-05
8.56925e-05
8.51747e-05
8.46549e-05
8.52119e-05
8.60737e-05
8.73275e-05
8.87425e-05
9.02743e-05
9.212e-05
9.4382e-05
9.79341e-05
0.000105142
0.000120162
0.000149544
0.000191972
0.000191969
0.000149567
0.000120418
0.00010536
9.81657e-05
9.46003e-05
9.23268e-05
9.0457e-05
8.88464e-05
8.74955e-05
8.64402e-05
8.54835e-05
8.49091e-05
8.51248e-05
8.57745e-05
7.48712e-05
7.3598e-05
7.33382e-05
7.37043e-05
7.4512e-05
7.53653e-05
7.62672e-05
7.72207e-05
7.81616e-05
7.89911e-05
7.97515e-05
8.0738e-05
8.2579e-05
8.60487e-05
9.09993e-05
9.10422e-05
8.62452e-05
8.28679e-05
8.09448e-05
7.98431e-05
7.8972e-05
7.81072e-05
7.7222e-05
7.63104e-05
7.53999e-05
7.45049e-05
7.37343e-05
7.33039e-05
7.36005e-05
7.49224e-05
6.57527e-05
6.37812e-05
6.36219e-05
6.40335e-05
6.44967e-05
6.50184e-05
6.55691e-05
6.60984e-05
6.64475e-05
6.66e-05
6.66054e-05
6.64915e-05
6.63303e-05
6.62934e-05
6.64782e-05
6.64743e-05
6.6297e-05
6.62972e-05
6.64079e-05
6.65052e-05
6.64981e-05
6.63775e-05
6.60649e-05
6.55238e-05
6.49815e-05
6.44257e-05
6.39714e-05
6.3696e-05
6.40412e-05
6.56789e-05
5.7383e-05
5.57546e-05
5.53985e-05
5.56297e-05
5.5813e-05
5.60886e-05
5.63282e-05
5.64145e-05
5.63512e-05
5.61391e-05
5.5738e-05
5.51747e-05
5.45141e-05
5.39192e-05
5.3521e-05
5.35063e-05
5.38988e-05
5.44767e-05
5.51443e-05
5.57882e-05
5.62666e-05
5.65099e-05
5.65517e-05
5.64652e-05
5.62831e-05
5.60255e-05
5.57395e-05
5.55461e-05
5.58723e-05
5.77466e-05
5.06244e-05
4.89367e-05
4.85718e-05
4.85358e-05
4.86558e-05
4.8742e-05
4.86832e-05
4.84895e-05
4.81357e-05
4.75917e-05
4.69006e-05
4.61232e-05
4.53151e-05
4.45882e-05
4.40835e-05
4.40726e-05
4.45825e-05
4.53468e-05
4.62202e-05
4.7079e-05
4.78005e-05
4.8351e-05
4.86853e-05
4.88385e-05
4.88565e-05
4.87782e-05
4.86516e-05
4.85654e-05
4.88787e-05
5.06663e-05
4.47402e-05
4.27998e-05
4.25272e-05
4.25357e-05
4.25855e-05
4.24868e-05
4.22461e-05
4.18884e-05
4.13633e-05
4.06578e-05
3.98274e-05
3.89511e-05
3.80709e-05
3.72859e-05
3.67579e-05
3.67434e-05
3.72663e-05
3.80823e-05
3.90198e-05
3.99506e-05
4.07803e-05
4.14586e-05
4.19752e-05
4.22884e-05
4.24319e-05
4.24804e-05
4.24777e-05
4.2512e-05
4.28605e-05
4.4472e-05
3.90782e-05
3.75707e-05
3.73335e-05
3.73126e-05
3.72043e-05
3.70113e-05
3.67418e-05
3.6339e-05
3.57271e-05
3.49188e-05
3.40382e-05
3.31369e-05
3.22365e-05
3.14344e-05
3.09213e-05
3.09295e-05
3.14435e-05
3.2228e-05
3.31305e-05
3.40678e-05
3.49541e-05
3.57117e-05
3.6302e-05
3.6711e-05
3.69636e-05
3.71328e-05
3.72603e-05
3.73799e-05
3.77208e-05
3.91768e-05
3.4607e-05
3.32335e-05
3.29835e-05
3.28673e-05
3.27183e-05
3.24921e-05
3.21619e-05
3.16703e-05
3.10018e-05
3.02257e-05
2.93923e-05
2.84948e-05
2.75809e-05
2.68022e-05
2.63344e-05
2.63542e-05
2.68267e-05
2.75565e-05
2.84282e-05
2.93624e-05
3.02636e-05
3.10438e-05
3.16634e-05
3.21285e-05
3.24768e-05
3.27356e-05
3.29212e-05
3.30581e-05
3.33446e-05
3.46896e-05
3.07621e-05
2.96207e-05
2.93733e-05
2.92362e-05
2.90372e-05
2.87587e-05
2.83854e-05
2.78836e-05
2.72596e-05
2.65344e-05
2.57045e-05
2.48031e-05
2.39453e-05
2.3267e-05
2.28707e-05
2.28833e-05
2.32979e-05
2.39699e-05
2.47982e-05
2.56913e-05
2.65479e-05
2.72935e-05
2.7899e-05
2.83807e-05
2.8766e-05
2.90632e-05
2.9262e-05
2.939e-05
2.96298e-05
3.08382e-05
2.75893e-05
2.65835e-05
2.63402e-05
2.61732e-05
2.59439e-05
2.56681e-05
2.52949e-05
2.48152e-05
2.42245e-05
2.35122e-05
2.27014e-05
2.1873e-05
2.11267e-05
2.05328e-05
2.01674e-05
2.01579e-05
2.05291e-05
2.11581e-05
2.19323e-05
2.27524e-05
2.35302e-05
2.42158e-05
2.47965e-05
2.52799e-05
2.56744e-05
2.59752e-05
2.61797e-05
2.6318e-05
2.65412e-05
2.75708e-05
2.48717e-05
2.39453e-05
2.37434e-05
2.35845e-05
2.33927e-05
2.31347e-05
2.27738e-05
2.23182e-05
2.17491e-05
2.107e-05
2.0337e-05
1.9614e-05
1.89553e-05
1.84118e-05
1.80685e-05
1.80581e-05
1.84032e-05
1.89831e-05
1.96833e-05
2.04102e-05
2.10992e-05
2.17259e-05
2.22787e-05
2.27487e-05
2.3128e-05
2.34147e-05
2.36164e-05
2.37606e-05
2.39628e-05
2.48182e-05
2.24239e-05
2.17534e-05
2.15791e-05
2.14667e-05
2.13163e-05
2.10583e-05
2.07151e-05
2.02827e-05
1.97537e-05
1.91525e-05
1.85235e-05
1.78936e-05
1.72968e-05
1.67949e-05
1.64824e-05
1.64792e-05
1.67911e-05
1.73029e-05
1.79132e-05
1.85467e-05
1.91577e-05
1.97281e-05
2.02401e-05
2.06773e-05
2.10265e-05
2.12911e-05
2.14831e-05
2.16247e-05
2.18075e-05
2.2517e-05
2.0538e-05
1.99633e-05
1.98406e-05
1.97382e-05
1.95605e-05
1.93025e-05
1.89896e-05
1.86006e-05
1.81433e-05
1.76369e-05
1.7093e-05
1.65258e-05
1.59786e-05
1.55259e-05
1.52533e-05
1.52597e-05
1.55366e-05
1.59792e-05
1.65067e-05
1.70611e-05
1.76068e-05
1.81217e-05
1.8585e-05
1.89791e-05
1.92947e-05
1.95374e-05
1.972e-05
1.98596e-05
2.00235e-05
2.0605e-05
1.89657e-05
1.84623e-05
1.83761e-05
1.8259e-05
1.80774e-05
1.78613e-05
1.75888e-05
1.72495e-05
1.6859e-05
1.64205e-05
1.59344e-05
1.54263e-05
1.49475e-05
1.45623e-05
1.43344e-05
1.43454e-05
1.45831e-05
1.49585e-05
1.54114e-05
1.58962e-05
1.63818e-05
1.68418e-05
1.72545e-05
1.76036e-05
1.78857e-05
1.81072e-05
1.8278e-05
1.84085e-05
1.85469e-05
1.90103e-05
1.7572e-05
1.72741e-05
1.71551e-05
1.70376e-05
1.68942e-05
1.67125e-05
1.64635e-05
1.61634e-05
1.58223e-05
1.54338e-05
1.5006e-05
1.45707e-05
1.41669e-05
1.38383e-05
1.36372e-05
1.36394e-05
1.38388e-05
1.41628e-05
1.45595e-05
1.49881e-05
1.54171e-05
1.58197e-05
1.61778e-05
1.64821e-05
1.67318e-05
1.69309e-05
1.70842e-05
1.7197e-05
1.73077e-05
1.76731e-05
1.65583e-05
1.63083e-05
1.61806e-05
1.60771e-05
1.59525e-05
1.57707e-05
1.55378e-05
1.5274e-05
1.49767e-05
1.46414e-05
1.42812e-05
1.39175e-05
1.35728e-05
1.32797e-05
1.30936e-05
1.30892e-05
1.32651e-05
1.35557e-05
1.39072e-05
1.42802e-05
1.46465e-05
1.49871e-05
1.52906e-05
1.5553e-05
1.57725e-05
1.59485e-05
1.60818e-05
1.61769e-05
1.62664e-05
1.65571e-05
1.57135e-05
1.54278e-05
1.53514e-05
1.52636e-05
1.51404e-05
1.49712e-05
1.47746e-05
1.45542e-05
1.43034e-05
1.40237e-05
1.37239e-05
1.34145e-05
1.31133e-05
1.28524e-05
1.26865e-05
1.26834e-05
1.2842e-05
1.30983e-05
1.34012e-05
1.37168e-05
1.40227e-05
1.43079e-05
1.45662e-05
1.47928e-05
1.49832e-05
1.51344e-05
1.52472e-05
1.53274e-05
1.54017e-05
1.56322e-05
1.4869e-05
1.46827e-05
1.46286e-05
1.45537e-05
1.44481e-05
1.43175e-05
1.4165e-05
1.39847e-05
1.37749e-05
1.35391e-05
1.32813e-05
1.30109e-05
1.27471e-05
1.25223e-05
1.2381e-05
1.23782e-05
1.25156e-05
1.2737e-05
1.29953e-05
1.32629e-05
1.35241e-05
1.37688e-05
1.39902e-05
1.41819e-05
1.43397e-05
1.44631e-05
1.45555e-05
1.46234e-05
1.4686e-05
1.48657e-05
1.42114e-05
1.41101e-05
1.40441e-05
1.39824e-05
1.39021e-05
1.38021e-05
1.36761e-05
1.35226e-05
1.33439e-05
1.3142e-05
1.29196e-05
1.26871e-05
1.24637e-05
1.22746e-05
1.21541e-05
1.21477e-05
1.22617e-05
1.24506e-05
1.26724e-05
1.29034e-05
1.3129e-05
1.33383e-05
1.35227e-05
1.36774e-05
1.38018e-05
1.38997e-05
1.39766e-05
1.40372e-05
1.40925e-05
1.42319e-05
1.37354e-05
1.36118e-05
1.35629e-05
1.35168e-05
1.34532e-05
1.33676e-05
1.32599e-05
1.31309e-05
1.29815e-05
1.28129e-05
1.26297e-05
1.24402e-05
1.22571e-05
1.20973e-05
1.19887e-05
1.19765e-05
1.20685e-05
1.22266e-05
1.24155e-05
1.26132e-05
1.28046e-05
1.29783e-05
1.31272e-05
1.32494e-05
1.33484e-05
1.34297e-05
1.34984e-05
1.35556e-05
1.36055e-05
1.3712e-05
1.32851e-05
1.31705e-05
1.31558e-05
1.31215e-05
1.30663e-05
1.29945e-05
1.29084e-05
1.28056e-05
1.26846e-05
1.25485e-05
1.24018e-05
1.225e-05
1.20989e-05
1.19599e-05
1.18605e-05
1.18455e-05
1.19201e-05
1.20511e-05
1.22109e-05
1.23784e-05
1.25382e-05
1.26809e-05
1.28021e-05
1.2902e-05
1.29854e-05
1.30568e-05
1.31188e-05
1.31697e-05
1.321e-05
1.32845e-05
1.28925e-05
1.28547e-05
1.2847e-05
1.28137e-05
1.27634e-05
1.27048e-05
1.26363e-05
1.25529e-05
1.24546e-05
1.23443e-05
1.22257e-05
1.21007e-05
1.19721e-05
1.18508e-05
1.1762e-05
1.17486e-05
1.18146e-05
1.19262e-05
1.20612e-05
1.22018e-05
1.23346e-05
1.24524e-05
1.25529e-05
1.26369e-05
1.27081e-05
1.27688e-05
1.2819e-05
1.2857e-05
1.28828e-05
1.29265e-05