/*--------------------------------*- C++ -*----------------------------------*\
| =========                 |                                                 |
| \\      /  F ield         | OpenFOAM: The Open Source CFD Toolbox           |
|  \\    /   O peration     | Version:  2312                                  |
|   \\  /    A nd           | Website:  www.openfoam.com                      |
|    \\/     M anipulation  |                                                 |
\*---------------------------------------------------------------------------*/
FoamFile
{
    version     2.0;
    format      ascii;
    arch        "LSB;label=32;scalar=64";
    class       volScalarField;
    location    "0.748016";
    object      k;
}
// * * * * * * * * * * * * * * * * * * * * * * * * * * * * * * * * * * * * * //

dimensions      [0 2 -2 0 0 0 0];

internalField   nonuniform List<scalar> 
90000
(
2.67849e-05
2.67863e-05
2.67871e-05
2.67874e-05
2.67876e-05
2.67877e-05
2.67876e-05
2.67874e-05
2.67871e-05
2.67869e-05
2.67869e-05
2.67869e-05
2.6787e-05
2.6787e-05
2.67871e-05
2.67873e-05
2.67877e-05
2.67881e-05
2.67883e-05
2.67882e-05
2.67877e-05
2.6787e-05
2.67869e-05
2.67878e-05
2.67887e-05
2.67893e-05
2.67893e-05
2.6789e-05
2.67892e-05
2.67904e-05
2.6786e-05
2.68356e-05
2.68382e-05
2.68382e-05
2.68381e-05
2.68381e-05
2.68381e-05
2.68382e-05
2.68383e-05
2.68384e-05
2.68384e-05
2.68385e-05
2.68386e-05
2.68387e-05
2.68388e-05
2.68389e-05
2.68389e-05
2.68388e-05
2.68386e-05
2.68385e-05
2.68386e-05
2.68387e-05
2.68388e-05
2.68387e-05
2.68383e-05
2.68378e-05
2.6838e-05
2.68391e-05
2.6836e-05
2.67961e-05
2.6787e-05
2.68391e-05
2.68418e-05
2.68417e-05
2.68416e-05
2.68414e-05
2.68413e-05
2.68414e-05
2.68415e-05
2.68416e-05
2.68416e-05
2.68415e-05
2.68415e-05
2.68416e-05
2.68417e-05
2.68416e-05
2.68413e-05
2.68412e-05
2.68415e-05
2.68419e-05
2.68423e-05
2.68425e-05
2.68426e-05
2.68427e-05
2.68429e-05
2.68432e-05
2.68436e-05
2.68442e-05
2.68418e-05
2.67939e-05
2.67877e-05
2.68396e-05
2.68426e-05
2.68427e-05
2.68427e-05
2.68425e-05
2.68423e-05
2.68421e-05
2.6842e-05
2.68419e-05
2.68418e-05
2.68416e-05
2.68415e-05
2.68414e-05
2.68413e-05
2.68412e-05
2.68413e-05
2.68417e-05
2.68422e-05
2.68425e-05
2.68426e-05
2.68427e-05
2.6843e-05
2.68437e-05
2.68443e-05
2.68445e-05
2.68441e-05
2.68437e-05
2.68418e-05
2.67891e-05
2.67882e-05
2.68399e-05
2.68432e-05
2.68435e-05
2.68435e-05
2.68433e-05
2.68431e-05
2.68427e-05
2.68424e-05
2.68421e-05
2.68418e-05
2.68415e-05
2.68413e-05
2.6841e-05
2.68409e-05
2.68411e-05
2.68415e-05
2.68419e-05
2.68422e-05
2.68423e-05
2.68424e-05
2.68426e-05
2.68432e-05
2.68439e-05
2.68443e-05
2.68444e-05
2.68439e-05
2.68422e-05
2.68414e-05
2.67881e-05
2.67885e-05
2.68405e-05
2.68437e-05
2.68439e-05
2.68439e-05
2.68438e-05
2.68436e-05
2.68433e-05
2.68428e-05
2.68423e-05
2.68418e-05
2.68414e-05
2.68413e-05
2.68412e-05
2.68412e-05
2.68414e-05
2.68416e-05
2.68418e-05
2.6842e-05
2.68421e-05
2.68423e-05
2.68427e-05
2.68431e-05
2.68433e-05
2.68433e-05
2.68433e-05
2.6844e-05
2.68439e-05
2.68427e-05
2.67893e-05
2.67887e-05
2.68413e-05
2.6844e-05
2.6844e-05
2.68439e-05
2.68439e-05
2.68439e-05
2.68437e-05
2.68432e-05
2.68426e-05
2.68419e-05
2.68415e-05
2.68414e-05
2.68415e-05
2.68416e-05
2.68415e-05
2.68415e-05
2.68415e-05
2.68417e-05
2.68421e-05
2.68426e-05
2.68429e-05
2.68428e-05
2.68427e-05
2.68431e-05
2.6844e-05
2.68453e-05
2.68459e-05
2.68437e-05
2.67903e-05
2.6789e-05
2.68417e-05
2.68441e-05
2.6844e-05
2.68439e-05
2.6844e-05
2.68441e-05
2.6844e-05
2.68437e-05
2.68432e-05
2.68425e-05
2.68419e-05
2.68417e-05
2.68418e-05
2.68419e-05
2.68418e-05
2.68416e-05
2.68415e-05
2.68419e-05
2.68424e-05
2.68428e-05
2.68428e-05
2.68427e-05
2.68431e-05
2.6844e-05
2.68452e-05
2.68463e-05
2.68467e-05
2.68439e-05
2.67909e-05
2.67893e-05
2.6842e-05
2.68443e-05
2.68441e-05
2.68439e-05
2.6844e-05
2.68442e-05
2.68443e-05
2.68442e-05
2.68438e-05
2.68433e-05
2.68427e-05
2.68422e-05
2.6842e-05
2.6842e-05
2.68422e-05
2.68424e-05
2.68427e-05
2.68429e-05
2.68431e-05
2.68431e-05
2.68431e-05
2.68432e-05
2.68438e-05
2.68448e-05
2.68458e-05
2.68466e-05
2.68469e-05
2.68439e-05
2.67913e-05
2.67899e-05
2.68421e-05
2.68445e-05
2.68443e-05
2.6844e-05
2.6844e-05
2.68441e-05
2.68443e-05
2.68444e-05
2.68444e-05
2.68441e-05
2.68436e-05
2.6843e-05
2.68423e-05
2.68421e-05
2.68427e-05
2.68434e-05
2.6844e-05
2.68442e-05
2.68442e-05
2.6844e-05
2.68437e-05
2.68438e-05
2.68442e-05
2.6845e-05
2.68458e-05
2.68464e-05
2.68466e-05
2.68436e-05
2.67915e-05
2.67908e-05
2.68423e-05
2.68448e-05
2.68446e-05
2.68443e-05
2.6844e-05
2.68439e-05
2.6844e-05
2.68443e-05
2.68445e-05
2.68445e-05
2.68443e-05
2.68436e-05
2.68427e-05
2.68421e-05
2.68427e-05
2.68437e-05
2.68445e-05
2.68451e-05
2.68451e-05
2.68448e-05
2.68444e-05
2.68442e-05
2.68444e-05
2.68449e-05
2.68456e-05
2.68462e-05
2.68464e-05
2.68435e-05
2.67915e-05
2.67916e-05
2.68428e-05
2.68455e-05
2.68455e-05
2.68453e-05
2.68451e-05
2.68447e-05
2.68444e-05
2.68444e-05
2.68445e-05
2.68446e-05
2.68445e-05
2.68441e-05
2.68433e-05
2.68424e-05
2.68425e-05
2.68434e-05
2.68443e-05
2.68449e-05
2.68451e-05
2.68449e-05
2.68446e-05
2.68445e-05
2.68446e-05
2.6845e-05
2.68455e-05
2.68461e-05
2.68463e-05
2.68434e-05
2.67917e-05
2.67925e-05
2.6844e-05
2.68468e-05
2.68469e-05
2.6847e-05
2.6847e-05
2.68468e-05
2.68464e-05
2.68457e-05
2.68449e-05
2.68445e-05
2.68445e-05
2.68444e-05
2.6844e-05
2.68435e-05
2.68432e-05
2.68434e-05
2.68437e-05
2.68439e-05
2.68441e-05
2.68443e-05
2.68445e-05
2.68448e-05
2.68451e-05
2.68454e-05
2.68458e-05
2.68462e-05
2.68464e-05
2.68436e-05
2.67924e-05
2.67941e-05
2.68452e-05
2.68481e-05
2.68484e-05
2.68487e-05
2.68489e-05
2.68488e-05
2.68482e-05
2.68471e-05
2.68457e-05
2.68446e-05
2.68444e-05
2.68445e-05
2.68446e-05
2.68445e-05
2.68443e-05
2.6844e-05
2.68436e-05
2.68433e-05
2.68435e-05
2.68443e-05
2.68451e-05
2.68456e-05
2.6846e-05
2.68463e-05
2.68466e-05
2.68469e-05
2.68471e-05
2.68443e-05
2.67935e-05
2.67963e-05
2.68462e-05
2.68495e-05
2.68499e-05
2.68503e-05
2.68503e-05
2.68498e-05
2.68489e-05
2.68476e-05
2.68462e-05
2.68448e-05
2.68443e-05
2.68445e-05
2.68449e-05
2.68451e-05
2.68451e-05
2.68448e-05
2.68444e-05
2.68441e-05
2.68445e-05
2.68454e-05
2.68463e-05
2.6847e-05
2.68474e-05
2.68477e-05
2.68479e-05
2.68482e-05
2.68484e-05
2.68458e-05
2.67952e-05
2.67982e-05
2.68481e-05
2.68514e-05
2.68516e-05
2.68514e-05
2.68508e-05
2.68499e-05
2.68489e-05
2.68479e-05
2.68469e-05
2.68457e-05
2.68445e-05
2.68445e-05
2.68449e-05
2.68452e-05
2.68454e-05
2.68455e-05
2.68454e-05
2.68455e-05
2.68458e-05
2.68467e-05
2.68476e-05
2.68484e-05
2.6849e-05
2.68494e-05
2.68498e-05
2.68502e-05
2.68507e-05
2.68485e-05
2.67973e-05
2.67998e-05
2.68514e-05
2.68536e-05
2.68531e-05
2.68522e-05
2.68511e-05
2.68503e-05
2.68496e-05
2.6849e-05
2.6848e-05
2.68467e-05
2.68452e-05
2.68448e-05
2.68449e-05
2.6845e-05
2.68452e-05
2.68457e-05
2.68461e-05
2.68465e-05
2.68469e-05
2.68478e-05
2.68489e-05
2.68498e-05
2.68506e-05
2.68513e-05
2.6852e-05
2.68528e-05
2.68536e-05
2.6851e-05
2.67992e-05
2.68016e-05
2.68543e-05
2.68559e-05
2.68552e-05
2.68544e-05
2.68534e-05
2.68526e-05
2.68516e-05
2.68506e-05
2.68493e-05
2.68477e-05
2.68462e-05
2.68453e-05
2.68448e-05
2.68445e-05
2.68447e-05
2.68455e-05
2.68463e-05
2.68471e-05
2.6848e-05
2.68491e-05
2.68503e-05
2.68514e-05
2.68525e-05
2.68535e-05
2.68546e-05
2.68556e-05
2.6856e-05
2.68528e-05
2.68014e-05
2.68044e-05
2.68566e-05
2.68587e-05
2.68582e-05
2.68575e-05
2.68567e-05
2.68556e-05
2.68543e-05
2.68527e-05
2.68509e-05
2.68491e-05
2.68473e-05
2.68459e-05
2.68446e-05
2.68438e-05
2.6844e-05
2.68451e-05
2.68465e-05
2.68479e-05
2.68493e-05
2.68507e-05
2.68522e-05
2.68536e-05
2.6855e-05
2.68564e-05
2.68575e-05
2.68582e-05
2.68583e-05
2.68551e-05
2.68042e-05
2.68081e-05
2.68593e-05
2.68621e-05
2.68617e-05
2.6861e-05
2.68602e-05
2.6859e-05
2.68573e-05
2.68554e-05
2.68533e-05
2.68511e-05
2.68489e-05
2.68468e-05
2.68448e-05
2.68434e-05
2.68436e-05
2.68452e-05
2.68472e-05
2.68492e-05
2.68511e-05
2.6853e-05
2.68548e-05
2.68566e-05
2.68583e-05
2.68598e-05
2.68608e-05
2.68612e-05
2.68613e-05
2.68584e-05
2.68078e-05
2.68127e-05
2.68633e-05
2.68661e-05
2.68658e-05
2.68651e-05
2.68642e-05
2.68627e-05
2.68609e-05
2.68587e-05
2.68562e-05
2.68536e-05
2.68509e-05
2.68482e-05
2.68456e-05
2.68439e-05
2.68442e-05
2.68462e-05
2.68488e-05
2.68513e-05
2.68537e-05
2.6856e-05
2.68583e-05
2.68604e-05
2.68623e-05
2.68637e-05
2.68646e-05
2.68653e-05
2.68656e-05
2.68629e-05
2.68124e-05
2.68184e-05
2.68685e-05
2.68714e-05
2.6871e-05
2.68703e-05
2.6869e-05
2.68673e-05
2.68651e-05
2.68626e-05
2.68597e-05
2.68566e-05
2.68534e-05
2.68501e-05
2.68471e-05
2.68452e-05
2.68456e-05
2.68479e-05
2.68509e-05
2.6854e-05
2.6857e-05
2.68599e-05
2.68625e-05
2.68649e-05
2.68669e-05
2.68684e-05
2.68697e-05
2.68707e-05
2.68713e-05
2.68687e-05
2.68185e-05
2.68254e-05
2.68754e-05
2.68783e-05
2.68778e-05
2.68767e-05
2.6875e-05
2.68728e-05
2.68702e-05
2.68672e-05
2.68638e-05
2.68602e-05
2.68564e-05
2.68525e-05
2.68491e-05
2.68468e-05
2.68472e-05
2.68499e-05
2.68535e-05
2.68573e-05
2.68609e-05
2.68644e-05
2.68675e-05
2.68702e-05
2.68726e-05
2.68747e-05
2.68764e-05
2.68777e-05
2.68786e-05
2.68762e-05
2.68264e-05
2.68343e-05
2.68844e-05
2.68871e-05
2.68863e-05
2.68847e-05
2.68825e-05
2.68797e-05
2.68766e-05
2.6873e-05
2.68689e-05
2.68646e-05
2.68601e-05
2.68557e-05
2.68517e-05
2.68489e-05
2.68491e-05
2.68524e-05
2.68567e-05
2.68612e-05
2.68655e-05
2.68696e-05
2.68733e-05
2.68768e-05
2.68798e-05
2.68825e-05
2.68847e-05
2.68864e-05
2.68877e-05
2.68858e-05
2.68361e-05
2.68456e-05
2.68957e-05
2.6898e-05
2.68967e-05
2.68945e-05
2.68917e-05
2.68884e-05
2.68846e-05
2.68802e-05
2.68754e-05
2.68702e-05
2.6865e-05
2.68598e-05
2.68551e-05
2.68517e-05
2.68518e-05
2.68555e-05
2.68605e-05
2.68657e-05
2.68709e-05
2.68759e-05
2.68806e-05
2.68849e-05
2.68886e-05
2.68919e-05
2.68947e-05
2.6897e-05
2.68988e-05
2.68972e-05
2.68475e-05
2.68596e-05
2.69094e-05
2.69112e-05
2.69093e-05
2.69066e-05
2.69033e-05
2.68992e-05
2.68946e-05
2.68893e-05
2.68835e-05
2.68774e-05
2.68711e-05
2.6865e-05
2.68594e-05
2.68553e-05
2.68551e-05
2.68593e-05
2.68651e-05
2.68714e-05
2.68777e-05
2.68839e-05
2.68896e-05
2.68947e-05
2.68991e-05
2.69031e-05
2.69066e-05
2.69096e-05
2.69119e-05
2.69105e-05
2.68605e-05
2.68765e-05
2.69257e-05
2.69271e-05
2.69247e-05
2.69215e-05
2.69174e-05
2.69126e-05
2.6907e-05
2.69006e-05
2.68936e-05
2.68863e-05
2.68789e-05
2.68716e-05
2.68648e-05
2.68596e-05
2.68594e-05
2.68641e-05
2.68711e-05
2.68787e-05
2.68865e-05
2.68939e-05
2.69006e-05
2.69067e-05
2.69121e-05
2.6917e-05
2.69213e-05
2.69248e-05
2.69273e-05
2.69257e-05
2.6876e-05
2.68964e-05
2.6945e-05
2.69461e-05
2.69433e-05
2.69394e-05
2.69345e-05
2.69287e-05
2.6922e-05
2.69144e-05
2.69061e-05
2.68975e-05
2.68887e-05
2.68799e-05
2.68716e-05
2.68654e-05
2.68651e-05
2.68708e-05
2.68792e-05
2.68885e-05
2.68978e-05
2.69065e-05
2.69145e-05
2.69218e-05
2.69284e-05
2.69343e-05
2.69394e-05
2.69433e-05
2.69457e-05
2.69441e-05
2.68953e-05
2.69202e-05
2.6968e-05
2.69688e-05
2.69654e-05
2.69608e-05
2.69551e-05
2.69481e-05
2.69401e-05
2.69312e-05
2.69215e-05
2.69114e-05
2.69009e-05
2.68903e-05
2.68803e-05
2.68732e-05
2.6873e-05
2.68799e-05
2.689e-05
2.6901e-05
2.69119e-05
2.69223e-05
2.69318e-05
2.69406e-05
2.69486e-05
2.69555e-05
2.69613e-05
2.69656e-05
2.69681e-05
2.69671e-05
2.69193e-05
2.69484e-05
2.69955e-05
2.69958e-05
2.69919e-05
2.69865e-05
2.69797e-05
2.69715e-05
2.69622e-05
2.69518e-05
2.69406e-05
2.69286e-05
2.6916e-05
2.69033e-05
2.68916e-05
2.68835e-05
2.68835e-05
2.68917e-05
2.69034e-05
2.69163e-05
2.69292e-05
2.69415e-05
2.69529e-05
2.69634e-05
2.69729e-05
2.69809e-05
2.69874e-05
2.69923e-05
2.69957e-05
2.69954e-05
2.69482e-05
2.69821e-05
2.70284e-05
2.70284e-05
2.70238e-05
2.70175e-05
2.70096e-05
2.70001e-05
2.69892e-05
2.69772e-05
2.6964e-05
2.69498e-05
2.69348e-05
2.69197e-05
2.6906e-05
2.68968e-05
2.6897e-05
2.69063e-05
2.692e-05
2.69351e-05
2.69502e-05
2.69648e-05
2.69783e-05
2.69907e-05
2.70019e-05
2.70111e-05
2.70185e-05
2.70246e-05
2.70293e-05
2.70296e-05
2.69828e-05
2.70226e-05
2.70683e-05
2.70678e-05
2.70626e-05
2.70553e-05
2.70461e-05
2.70352e-05
2.70225e-05
2.70084e-05
2.69929e-05
2.69759e-05
2.6958e-05
2.69403e-05
2.69245e-05
2.69139e-05
2.69141e-05
2.69247e-05
2.69405e-05
2.69581e-05
2.69758e-05
2.6993e-05
2.7009e-05
2.70234e-05
2.70363e-05
2.70471e-05
2.70559e-05
2.70637e-05
2.70697e-05
2.70704e-05
2.70243e-05
2.70713e-05
2.71166e-05
2.71155e-05
2.71095e-05
2.71011e-05
2.70905e-05
2.70778e-05
2.7063e-05
2.70465e-05
2.7028e-05
2.7008e-05
2.6987e-05
2.69663e-05
2.69481e-05
2.69361e-05
2.69361e-05
2.69482e-05
2.69661e-05
2.69865e-05
2.70071e-05
2.70272e-05
2.7046e-05
2.70627e-05
2.70776e-05
2.70903e-05
2.71011e-05
2.71105e-05
2.71174e-05
2.71187e-05
2.70735e-05
2.71297e-05
2.71743e-05
2.71726e-05
2.71656e-05
2.71559e-05
2.71436e-05
2.71288e-05
2.71116e-05
2.70923e-05
2.70707e-05
2.70473e-05
2.70229e-05
2.69992e-05
2.69785e-05
2.69648e-05
2.69648e-05
2.69784e-05
2.69987e-05
2.70221e-05
2.70459e-05
2.70691e-05
2.70909e-05
2.71102e-05
2.71274e-05
2.71426e-05
2.71554e-05
2.7166e-05
2.71735e-05
2.71753e-05
2.71311e-05
2.7199e-05
2.72426e-05
2.72402e-05
2.72321e-05
2.72209e-05
2.72068e-05
2.71898e-05
2.717e-05
2.71476e-05
2.71227e-05
2.70959e-05
2.70681e-05
2.70411e-05
2.70177e-05
2.70024e-05
2.70025e-05
2.70178e-05
2.70408e-05
2.70675e-05
2.70948e-05
2.71215e-05
2.71465e-05
2.71685e-05
2.71885e-05
2.72061e-05
2.72206e-05
2.72319e-05
2.72399e-05
2.72422e-05
2.71992e-05
2.72808e-05
2.7323e-05
2.73198e-05
2.73107e-05
2.72981e-05
2.72823e-05
2.72633e-05
2.7241e-05
2.72156e-05
2.71873e-05
2.71568e-05
2.71254e-05
2.70951e-05
2.70689e-05
2.7052e-05
2.70523e-05
2.70696e-05
2.70956e-05
2.7126e-05
2.71572e-05
2.71873e-05
2.72154e-05
2.72405e-05
2.72632e-05
2.72828e-05
2.72985e-05
2.73104e-05
2.73188e-05
2.73215e-05
2.72804e-05
2.73772e-05
2.74177e-05
2.7414e-05
2.74041e-05
2.73906e-05
2.73735e-05
2.73526e-05
2.73279e-05
2.72995e-05
2.7268e-05
2.72339e-05
2.71989e-05
2.71653e-05
2.71363e-05
2.71176e-05
2.71179e-05
2.71372e-05
2.71662e-05
2.72004e-05
2.72354e-05
2.7269e-05
2.73003e-05
2.73284e-05
2.73535e-05
2.73746e-05
2.73912e-05
2.74039e-05
2.74132e-05
2.74167e-05
2.73774e-05
2.74916e-05
2.753e-05
2.75258e-05
2.75154e-05
2.75011e-05
2.74828e-05
2.74603e-05
2.74334e-05
2.74024e-05
2.73679e-05
2.73307e-05
2.72924e-05
2.72554e-05
2.72236e-05
2.72027e-05
2.72028e-05
2.72238e-05
2.72558e-05
2.72936e-05
2.73321e-05
2.73691e-05
2.74034e-05
2.74343e-05
2.74612e-05
2.74834e-05
2.75013e-05
2.75154e-05
2.75258e-05
2.75302e-05
2.74931e-05
2.76255e-05
2.76616e-05
2.76573e-05
2.76466e-05
2.76316e-05
2.76124e-05
2.75887e-05
2.75602e-05
2.75274e-05
2.74908e-05
2.7451e-05
2.74094e-05
2.73691e-05
2.73343e-05
2.73114e-05
2.73112e-05
2.73342e-05
2.73689e-05
2.74098e-05
2.7451e-05
2.74908e-05
2.75277e-05
2.75606e-05
2.75887e-05
2.76121e-05
2.76311e-05
2.76462e-05
2.76575e-05
2.76622e-05
2.76269e-05
2.7781e-05
2.78146e-05
2.78104e-05
2.77998e-05
2.7785e-05
2.77657e-05
2.77419e-05
2.77134e-05
2.76799e-05
2.76418e-05
2.76e-05
2.75559e-05
2.75128e-05
2.74757e-05
2.7451e-05
2.74506e-05
2.74753e-05
2.75121e-05
2.75554e-05
2.75987e-05
2.76409e-05
2.76792e-05
2.7713e-05
2.77415e-05
2.7765e-05
2.77843e-05
2.77993e-05
2.78102e-05
2.78145e-05
2.77809e-05
2.79605e-05
2.7992e-05
2.79886e-05
2.79793e-05
2.7966e-05
2.79483e-05
2.79261e-05
2.78989e-05
2.78662e-05
2.78281e-05
2.77858e-05
2.77411e-05
2.76968e-05
2.76578e-05
2.76316e-05
2.76311e-05
2.76573e-05
2.7696e-05
2.77409e-05
2.77849e-05
2.78278e-05
2.78655e-05
2.78983e-05
2.79259e-05
2.79482e-05
2.79659e-05
2.79792e-05
2.79882e-05
2.79918e-05
2.796e-05
2.81679e-05
2.81987e-05
2.81967e-05
2.81897e-05
2.81794e-05
2.81653e-05
2.81463e-05
2.81224e-05
2.8093e-05
2.80576e-05
2.80176e-05
2.79744e-05
2.79306e-05
2.78913e-05
2.78648e-05
2.78647e-05
2.78918e-05
2.79308e-05
2.79748e-05
2.80177e-05
2.80582e-05
2.80929e-05
2.81223e-05
2.81465e-05
2.8165e-05
2.8179e-05
2.81893e-05
2.81961e-05
2.81989e-05
2.81682e-05
2.8408e-05
2.84377e-05
2.84383e-05
2.84352e-05
2.84296e-05
2.84214e-05
2.84087e-05
2.83914e-05
2.83693e-05
2.83407e-05
2.83063e-05
2.82676e-05
2.82272e-05
2.81901e-05
2.81645e-05
2.81645e-05
2.81904e-05
2.82276e-05
2.82681e-05
2.83071e-05
2.83412e-05
2.83692e-05
2.83918e-05
2.84088e-05
2.84206e-05
2.8429e-05
2.84348e-05
2.84385e-05
2.84382e-05
2.8408e-05
2.86873e-05
2.87141e-05
2.87191e-05
2.87219e-05
2.87241e-05
2.87253e-05
2.87235e-05
2.87177e-05
2.87072e-05
2.86916e-05
2.86693e-05
2.86413e-05
2.86095e-05
2.8579e-05
2.85577e-05
2.85586e-05
2.85797e-05
2.86103e-05
2.86417e-05
2.86706e-05
2.86924e-05
2.87074e-05
2.87182e-05
2.8723e-05
2.87243e-05
2.87241e-05
2.87223e-05
2.872e-05
2.87138e-05
2.8686e-05
2.90142e-05
2.90381e-05
2.90495e-05
2.90603e-05
2.90732e-05
2.90884e-05
2.91037e-05
2.91171e-05
2.9129e-05
2.91399e-05
2.91493e-05
2.91578e-05
2.91694e-05
2.91858e-05
2.92054e-05
2.92066e-05
2.91863e-05
2.91702e-05
2.91584e-05
2.91507e-05
2.91412e-05
2.91303e-05
2.91184e-05
2.91032e-05
2.9088e-05
2.90739e-05
2.9061e-05
2.90501e-05
2.90373e-05
2.90133e-05
2.93944e-05
2.94246e-05
2.94455e-05
2.94706e-05
2.94999e-05
2.95393e-05
2.95897e-05
2.96492e-05
2.97315e-05
2.98532e-05
3.0054e-05
3.03556e-05
3.07646e-05
3.12487e-05
3.17e-05
3.17022e-05
3.12493e-05
3.07652e-05
3.0357e-05
3.00559e-05
2.98544e-05
2.97322e-05
2.96499e-05
2.9589e-05
2.95398e-05
2.95003e-05
2.94701e-05
2.94455e-05
2.94245e-05
2.93953e-05
2.98655e-05
2.99169e-05
2.99601e-05
3.00198e-05
3.00996e-05
3.02199e-05
3.04137e-05
3.07233e-05
3.12968e-05
3.22969e-05
3.41554e-05
3.70486e-05
4.07499e-05
4.49347e-05
4.86879e-05
4.86959e-05
4.49392e-05
4.076e-05
3.70659e-05
3.41713e-05
3.23066e-05
3.13024e-05
3.0726e-05
3.04135e-05
3.0221e-05
3.0099e-05
3.00185e-05
2.99615e-05
2.99162e-05
2.98644e-05
3.05276e-05
3.06473e-05
3.07985e-05
3.10273e-05
3.14017e-05
3.2044e-05
3.32753e-05
3.54942e-05
3.98837e-05
4.72657e-05
6.02477e-05
7.89575e-05
0.00010088
0.000123452
0.000142326
0.000142355
0.000123487
0.000100965
7.90823e-05
6.03543e-05
4.73357e-05
3.99275e-05
3.55175e-05
3.32851e-05
3.20471e-05
3.14022e-05
3.10264e-05
3.07978e-05
3.06412e-05
3.05229e-05
3.18765e-05
3.24364e-05
3.33295e-05
3.47172e-05
3.72567e-05
4.19693e-05
5.03931e-05
6.57422e-05
9.21609e-05
0.00013154
0.000190117
0.000265034
0.000344367
0.000416548
0.000470937
0.000471035
0.000416722
0.000344756
0.000265562
0.000190599
0.000131917
9.24091e-05
6.58823e-05
5.04753e-05
4.20067e-05
3.72678e-05
3.4714e-05
3.33231e-05
3.24177e-05
3.18595e-05
3.75207e-05
4.22576e-05
4.89659e-05
5.96505e-05
7.8796e-05
0.00011154
0.000161542
0.000238162
0.000344884
0.000472796
0.000630843
0.000801981
0.000964206
0.00109933
0.00119116
0.00119142
0.00109987
0.000965239
0.000803357
0.000632284
0.000474092
0.000345889
0.000238858
0.000162034
0.000111844
7.89502e-05
5.97044e-05
4.89839e-05
4.22225e-05
3.7465e-05
7.34944e-05
0.000113099
0.000168202
0.000250712
0.00036074
0.000497199
0.000664012
0.000845947
0.00104087
0.00124226
0.00144772
0.00163648
0.00179935
0.00192748
0.00201119
0.00201161
0.00192839
0.00180099
0.00163871
0.00145037
0.00124512
0.00104341
0.000848055
0.000665929
0.000498728
0.000361818
0.000251421
0.000168619
0.000113248
7.34735e-05
8.78913e-05
0.000120633
0.000173954
0.000246239
0.000333113
0.000478491
0.000710517
0.000950072
0.0011916
0.00141739
0.00163355
0.00183523
0.0020167
0.00215669
0.00224815
0.00224862
0.0021578
0.00201833
0.00183774
0.00163725
0.00142073
0.00119481
0.000953461
0.000712817
0.000479707
0.000334391
0.000247042
0.000174303
0.000120803
8.78782e-05
0.000135822
0.000167465
0.00024598
0.000354358
0.000475618
0.000628464
0.000787951
0.000959463
0.00114639
0.00138457
0.00159108
0.00180733
0.0020471
0.00223431
0.00234607
0.00234631
0.00223508
0.00204882
0.0018098
0.00159505
0.00138834
0.00115008
0.000962713
0.000791362
0.000630626
0.000477103
0.000354904
0.000246754
0.000168289
0.000135514
0.000174782
0.000200198
0.000270362
0.000391764
0.000538619
0.000685964
0.000813467
0.00093465
0.0010672
0.00122185
0.00142945
0.00164043
0.00181265
0.00192851
0.0020238
0.00202412
0.00192952
0.00181553
0.00164478
0.00143295
0.00122536
0.00107068
0.000936431
0.00081526
0.0006895
0.000542244
0.000394483
0.000272
0.000199666
0.000173339
0.000191991
0.000210623
0.000256041
0.000338244
0.000454463
0.000593705
0.000728307
0.00085467
0.000968977
0.00108141
0.00120716
0.00134582
0.00147733
0.00157586
0.00164306
0.00164439
0.0015776
0.00148033
0.0013505
0.00120957
0.00108467
0.000972978
0.000858603
0.000732567
0.000597202
0.000458368
0.000341701
0.00025806
0.000212318
0.000194074
0.000182811
0.000193145
0.000210955
0.000245666
0.000300601
0.00038271
0.000495699
0.000641373
0.000792762
0.000946542
0.00109879
0.00122389
0.00132264
0.00137874
0.00140772
0.00140853
0.00137984
0.00132404
0.00122659
0.0011009
0.000948135
0.000795048
0.000644309
0.000499103
0.000385826
0.000303322
0.000246599
0.000210461
0.00019278
0.000182992
0.000162758
0.000170018
0.000173675
0.000183964
0.000203004
0.000232319
0.000281197
0.000361389
0.000477009
0.000642194
0.000850882
0.00107556
0.00123755
0.00132794
0.00137255
0.00137286
0.00132829
0.00123847
0.00107762
0.000853543
0.000644648
0.000479654
0.000363938
0.00028357
0.000234072
0.000204373
0.000185451
0.000174704
0.000169566
0.000162618
0.000143195
0.000147001
0.000147194
0.000150329
0.000156487
0.000166277
0.000182286
0.000209987
0.000256246
0.000339217
0.000489452
0.000710756
0.000963035
0.00114155
0.00124937
0.00125017
0.00114218
0.000964457
0.000712923
0.000491418
0.000340648
0.00025733
0.000210866
0.000182974
0.000166816
0.000156707
0.000150717
0.000147894
0.000147234
0.000143594
0.000128388
0.000128675
0.000128269
0.000128967
0.000130737
0.000133683
0.000138971
0.000147237
0.000160287
0.000185393
0.000240575
0.00035265
0.000521763
0.000732602
0.000904528
0.000904969
0.000732337
0.000522034
0.000353093
0.000240799
0.000185508
0.000160384
0.000147451
0.000139341
0.00013425
0.00013109
0.000129109
0.000128321
0.000128917
0.000128339
0.0001159
0.000114849
0.000114565
0.000114822
0.00011549
0.00011699
0.000119155
0.000121902
0.000125755
0.00013219
0.000145178
0.000174731
0.000232059
0.000317941
0.000416445
0.000416525
0.000317612
0.000231955
0.000174857
0.000145426
0.000132434
0.000125944
0.000122021
0.000119142
0.000117169
0.000115894
0.000115058
0.000114571
0.000115057
0.000116093
0.000105683
0.000103848
0.000103303
0.000103599
0.000104223
0.000105291
0.000106554
0.000107935
0.000109587
0.000111559
0.000114461
0.000119975
0.000130869
0.000150376
0.00017595
0.000176007
0.000150526
0.000131176
0.000120222
0.000114666
0.000111712
0.000109707
0.000108023
0.000106542
0.000105346
0.000104524
0.00010385
0.000103427
0.000103716
0.000105585
9.61424e-05
9.41467e-05
9.37138e-05
9.40553e-05
9.48235e-05
9.56557e-05
9.65213e-05
9.74193e-05
9.83138e-05
9.91164e-05
9.98201e-05
0.000100636
0.000102091
0.000104797
0.000108557
0.000108587
0.000104932
0.000102262
0.000100694
9.9757e-05
9.8979e-05
9.81909e-05
9.73908e-05
9.65298e-05
9.56404e-05
9.48257e-05
9.41847e-05
9.3845e-05
9.41891e-05
9.63479e-05
8.81702e-05
8.55916e-05
8.54071e-05
8.58389e-05
8.63131e-05
8.67963e-05
8.72976e-05
8.78069e-05
8.81763e-05
8.83799e-05
8.84342e-05
8.83521e-05
8.82021e-05
8.81458e-05
8.8269e-05
8.82605e-05
8.81431e-05
8.81863e-05
8.83275e-05
8.84432e-05
8.84198e-05
8.82303e-05
8.78442e-05
8.72527e-05
8.66675e-05
8.61175e-05
8.57248e-05
8.55252e-05
8.5925e-05
8.81856e-05
8.0563e-05
7.8285e-05
7.80429e-05
7.8288e-05
7.84459e-05
7.86852e-05
7.89215e-05
7.90398e-05
7.90279e-05
7.88746e-05
7.85337e-05
7.8034e-05
7.74402e-05
7.69028e-05
7.65447e-05
7.65414e-05
7.69161e-05
7.74528e-05
7.80551e-05
7.86257e-05
7.90247e-05
7.91728e-05
7.91231e-05
7.89746e-05
7.87672e-05
7.8534e-05
7.83028e-05
7.81612e-05
7.85205e-05
8.08546e-05
7.38784e-05
7.18046e-05
7.14716e-05
7.14475e-05
7.15671e-05
7.16819e-05
7.1674e-05
7.15284e-05
7.12094e-05
7.0689e-05
7.00211e-05
6.9261e-05
6.84644e-05
6.77508e-05
6.72595e-05
6.72542e-05
6.77579e-05
6.84972e-05
6.93196e-05
7.01153e-05
7.07843e-05
7.12992e-05
7.16085e-05
7.17553e-05
7.1783e-05
7.17155e-05
7.15984e-05
7.15041e-05
7.18186e-05
7.40117e-05
6.79663e-05
6.57159e-05
6.53747e-05
6.53888e-05
6.5476e-05
6.5421e-05
6.52123e-05
6.48565e-05
6.4308e-05
6.35722e-05
6.27146e-05
6.18112e-05
6.08981e-05
6.0077e-05
5.952e-05
5.95012e-05
6.00489e-05
6.0901e-05
6.18694e-05
6.28255e-05
6.36855e-05
6.44004e-05
6.49475e-05
6.52747e-05
6.54164e-05
6.54465e-05
6.54105e-05
6.54067e-05
6.5754e-05
6.77703e-05
6.21948e-05
6.02415e-05
5.99564e-05
5.9974e-05
5.9899e-05
5.97138e-05
5.94117e-05
5.89414e-05
5.82452e-05
5.7352e-05
5.63969e-05
5.54275e-05
5.44566e-05
5.35804e-05
5.30116e-05
5.30158e-05
5.35831e-05
5.44547e-05
5.54589e-05
5.64997e-05
5.74806e-05
5.83183e-05
5.89665e-05
5.94037e-05
5.96548e-05
5.98044e-05
5.99043e-05
5.99994e-05
6.03661e-05
6.22335e-05
5.73004e-05
5.54793e-05
5.52418e-05
5.51674e-05
5.50267e-05
5.47658e-05
5.43605e-05
5.37672e-05
5.29815e-05
5.20835e-05
5.11292e-05
5.01083e-05
4.90657e-05
4.81697e-05
4.76253e-05
4.76448e-05
4.81911e-05
4.90387e-05
5.00534e-05
5.11383e-05
5.21786e-05
5.30736e-05
5.37783e-05
5.4298e-05
5.46766e-05
5.49488e-05
5.51408e-05
5.52839e-05
5.56199e-05
5.73664e-05
5.28667e-05
5.13763e-05
5.11368e-05
5.10008e-05
5.07704e-05
5.04275e-05
4.99685e-05
4.93637e-05
4.86193e-05
4.77556e-05
4.67645e-05
4.56793e-05
4.46351e-05
4.38003e-05
4.33067e-05
4.33165e-05
4.38221e-05
4.4643e-05
4.56518e-05
4.67328e-05
4.77621e-05
4.86533e-05
4.93748e-05
4.99469e-05
5.04015e-05
5.07501e-05
5.09836e-05
5.1136e-05
5.14332e-05
5.30196e-05
4.91196e-05
4.78343e-05
4.7532e-05
4.73153e-05
4.70149e-05
4.666e-05
4.61989e-05
4.56174e-05
4.49019e-05
4.4032e-05
4.30253e-05
4.19759e-05
4.10125e-05
4.02337e-05
3.97495e-05
3.97313e-05
4.02109e-05
4.10224e-05
4.20129e-05
4.30531e-05
4.40321e-05
4.48909e-05
4.56166e-05
4.62193e-05
4.671e-05
4.70839e-05
4.73382e-05
4.75093e-05
4.77909e-05
4.91687e-05
4.58604e-05
4.46445e-05
4.43383e-05
4.41017e-05
4.38279e-05
4.34858e-05
4.30292e-05
4.24605e-05
4.1749e-05
4.08884e-05
3.99401e-05
3.89834e-05
3.80947e-05
3.73504e-05
3.68759e-05
3.68578e-05
3.73257e-05
3.81102e-05
3.90489e-05
4.00139e-05
4.09199e-05
4.17373e-05
4.24532e-05
4.3059e-05
4.35461e-05
4.39134e-05
4.41708e-05
4.43523e-05
4.4613e-05
4.57876e-05
4.28247e-05
4.18528e-05
4.15788e-05
4.13996e-05
4.11813e-05
4.08373e-05
4.03893e-05
3.98271e-05
3.91357e-05
3.8338e-05
3.74883e-05
3.66231e-05
3.57921e-05
3.50863e-05
3.46445e-05
3.46401e-05
3.50806e-05
3.57998e-05
3.66494e-05
3.75218e-05
3.83528e-05
3.91194e-05
3.98002e-05
4.03772e-05
4.08355e-05
4.11811e-05
4.14302e-05
4.16125e-05
4.18552e-05
4.28576e-05
4.03399e-05
3.94624e-05
3.92748e-05
3.91286e-05
3.88894e-05
3.85461e-05
3.8127e-05
3.76013e-05
3.69757e-05
3.62727e-05
3.55087e-05
3.4705e-05
3.3924e-05
3.32741e-05
3.28828e-05
3.28956e-05
3.32996e-05
3.39402e-05
3.46956e-05
3.54799e-05
3.62413e-05
3.69498e-05
3.75793e-05
3.81096e-05
3.85312e-05
3.88535e-05
3.9095e-05
3.92794e-05
3.95037e-05
4.03488e-05
3.81717e-05
3.73936e-05
3.72748e-05
3.71243e-05
3.68869e-05
3.65973e-05
3.62244e-05
3.57518e-05
3.51986e-05
3.45701e-05
3.38685e-05
3.31308e-05
3.24318e-05
3.18676e-05
3.15354e-05
3.15566e-05
3.19118e-05
3.24675e-05
3.31305e-05
3.38311e-05
3.45232e-05
3.51698e-05
3.57427e-05
3.62219e-05
3.66063e-05
3.69067e-05
3.71378e-05
3.73147e-05
3.75095e-05
3.82011e-05
3.62101e-05
3.572e-05
3.55683e-05
3.54186e-05
3.52298e-05
3.49824e-05
3.46351e-05
3.42082e-05
3.37154e-05
3.31488e-05
3.25204e-05
3.18767e-05
3.12761e-05
3.07864e-05
3.04888e-05
3.04962e-05
3.07989e-05
3.12858e-05
3.18761e-05
3.25062e-05
3.31293e-05
3.3707e-05
3.42154e-05
3.46436e-05
3.49922e-05
3.52691e-05
3.54819e-05
3.56389e-05
3.57989e-05
3.63564e-05
3.4746e-05
3.43488e-05
3.41792e-05
3.40426e-05
3.38729e-05
3.36195e-05
3.32887e-05
3.29079e-05
3.24734e-05
3.1979e-05
3.14437e-05
3.0899e-05
3.03802e-05
2.99379e-05
2.96579e-05
2.96529e-05
2.99207e-05
3.03607e-05
3.0889e-05
3.1445e-05
3.19863e-05
3.24857e-05
3.29269e-05
3.33056e-05
3.36203e-05
3.38717e-05
3.40616e-05
3.41974e-05
3.43297e-05
3.47808e-05
3.35244e-05
3.30947e-05
3.29849e-05
3.28623e-05
3.26874e-05
3.24446e-05
3.21595e-05
3.18367e-05
3.14666e-05
3.1051e-05
3.06021e-05
3.01358e-05
2.96795e-05
2.92823e-05
2.90287e-05
2.9023e-05
2.92636e-05
2.96527e-05
3.01111e-05
3.05869e-05
3.10457e-05
3.14713e-05
3.18545e-05
3.21888e-05
3.24683e-05
3.26898e-05
3.28547e-05
3.29722e-05
3.30843e-05
3.34471e-05
3.23071e-05
3.20179e-05
3.19355e-05
3.18251e-05
3.16693e-05
3.1476e-05
3.12498e-05
3.0982e-05
3.06697e-05
3.03172e-05
2.99296e-05
2.95207e-05
2.91192e-05
2.87747e-05
2.85563e-05
2.85495e-05
2.87573e-05
2.9094e-05
2.94866e-05
2.98927e-05
3.02884e-05
3.06576e-05
3.09905e-05
3.1278e-05
3.15144e-05
3.16991e-05
3.18375e-05
3.19392e-05
3.20353e-05
3.2322e-05
3.13397e-05
3.1176e-05
3.10752e-05
3.09809e-05
3.0859e-05
3.07074e-05
3.05177e-05
3.0287e-05
3.00186e-05
2.97145e-05
2.93786e-05
2.90253e-05
2.86835e-05
2.83921e-05
2.82051e-05
2.81929e-05
2.83654e-05
2.86531e-05
2.89914e-05
2.93434e-05
2.96869e-05
3.00049e-05
3.02849e-05
3.052e-05
3.07093e-05
3.08584e-05
3.09756e-05
3.10676e-05
3.11533e-05
3.13782e-05
3.06258e-05
3.04349e-05
3.03568e-05
3.0285e-05
3.01866e-05
3.00556e-05
2.98915e-05
2.96954e-05
2.94683e-05
2.9212e-05
2.89326e-05
2.86426e-05
2.83611e-05
2.8114e-05
2.79456e-05
2.79252e-05
2.80652e-05
2.83074e-05
2.85968e-05
2.88996e-05
2.91924e-05
2.94581e-05
2.96861e-05
2.98738e-05
3.00259e-05
3.01509e-05
3.02564e-05
3.03438e-05
3.04212e-05
3.05944e-05
2.99466e-05
2.97676e-05
2.97407e-05
2.96867e-05
2.96007e-05
2.94895e-05
2.93565e-05
2.91979e-05
2.90116e-05
2.88021e-05
2.8576e-05
2.83416e-05
2.81081e-05
2.78931e-05
2.77389e-05
2.77153e-05
2.78301e-05
2.80323e-05
2.82789e-05
2.8537e-05
2.87832e-05
2.90029e-05
2.91898e-05
2.93444e-05
2.94733e-05
2.95837e-05
2.96792e-05
2.97573e-05
2.98201e-05
2.99425e-05
2.93436e-05
2.92775e-05
2.92641e-05
2.92117e-05
2.91334e-05
2.90417e-05
2.89343e-05
2.88039e-05
2.86505e-05
2.84788e-05
2.82942e-05
2.80999e-05
2.79001e-05
2.77119e-05
2.75746e-05
2.75541e-05
2.76569e-05
2.78306e-05
2.80405e-05
2.82588e-05
2.84649e-05
2.86478e-05
2.88037e-05