/*--------------------------------*- C++ -*----------------------------------*\
| =========                 |                                                 |
| \\      /  F ield         | OpenFOAM: The Open Source CFD Toolbox           |
|  \\    /   O peration     | Version:  2312                                  |
|   \\  /    A nd           | Website:  www.openfoam.com                      |
|    \\/     M anipulation  |                                                 |
\*---------------------------------------------------------------------------*/
FoamFile
{
    version     2.0;
    format      ascii;
    arch        "LSB;label=32;scalar=64";
    class       volScalarField;
    location    "0.748016";
    object      nut;
}
// * * * * * * * * * * * * * * * * * * * * * * * * * * * * * * * * * * * * * //

dimensions      [0 2 -1 0 0 0 0];

internalField   nonuniform List<scalar> 
90000
(
5.7056e-06
5.70581e-06
5.70592e-06
5.70597e-06
5.706e-06
5.70601e-06
5.70599e-06
5.70595e-06
5.70591e-06
5.70588e-06
5.70587e-06
5.70587e-06
5.70588e-06
5.70589e-06
5.7059e-06
5.70593e-06
5.70599e-06
5.70604e-06
5.70607e-06
5.70606e-06
5.706e-06
5.7059e-06
5.70588e-06
5.70601e-06
5.70615e-06
5.70623e-06
5.70624e-06
5.70619e-06
5.70622e-06
5.70641e-06
5.70577e-06
5.71216e-06
5.71252e-06
5.71251e-06
5.7125e-06
5.71248e-06
5.71248e-06
5.71249e-06
5.71249e-06
5.7125e-06
5.7125e-06
5.71251e-06
5.71253e-06
5.71254e-06
5.71256e-06
5.71257e-06
5.71257e-06
5.71257e-06
5.71255e-06
5.71254e-06
5.71255e-06
5.71257e-06
5.71259e-06
5.71258e-06
5.71252e-06
5.71244e-06
5.71247e-06
5.71258e-06
5.71208e-06
5.70684e-06
5.70591e-06
5.71263e-06
5.713e-06
5.71299e-06
5.71296e-06
5.71293e-06
5.71291e-06
5.71291e-06
5.71292e-06
5.71293e-06
5.71293e-06
5.71293e-06
5.71294e-06
5.71296e-06
5.71297e-06
5.71295e-06
5.71292e-06
5.7129e-06
5.71295e-06
5.71301e-06
5.71306e-06
5.71309e-06
5.71311e-06
5.71312e-06
5.71315e-06
5.7132e-06
5.71327e-06
5.71342e-06
5.71317e-06
5.70681e-06
5.70599e-06
5.71265e-06
5.71308e-06
5.71311e-06
5.7131e-06
5.71308e-06
5.71304e-06
5.71301e-06
5.71299e-06
5.71297e-06
5.71296e-06
5.71294e-06
5.71294e-06
5.71294e-06
5.71293e-06
5.71291e-06
5.71292e-06
5.71298e-06
5.71304e-06
5.71308e-06
5.7131e-06
5.71311e-06
5.71316e-06
5.71325e-06
5.71334e-06
5.71336e-06
5.71329e-06
5.71321e-06
5.71303e-06
5.70618e-06
5.70603e-06
5.71266e-06
5.71315e-06
5.7132e-06
5.7132e-06
5.71318e-06
5.71315e-06
5.7131e-06
5.71305e-06
5.71301e-06
5.71296e-06
5.71293e-06
5.7129e-06
5.71288e-06
5.71288e-06
5.71291e-06
5.71297e-06
5.71302e-06
5.71306e-06
5.71306e-06
5.71306e-06
5.71309e-06
5.71317e-06
5.71327e-06
5.71333e-06
5.71335e-06
5.71328e-06
5.71303e-06
5.71295e-06
5.70604e-06
5.70604e-06
5.71276e-06
5.71321e-06
5.71325e-06
5.71325e-06
5.71324e-06
5.71321e-06
5.71317e-06
5.71311e-06
5.71304e-06
5.71297e-06
5.71293e-06
5.71293e-06
5.71293e-06
5.71294e-06
5.71296e-06
5.71299e-06
5.71301e-06
5.71302e-06
5.71302e-06
5.71304e-06
5.7131e-06
5.71315e-06
5.71317e-06
5.71317e-06
5.71319e-06
5.7133e-06
5.71328e-06
5.71313e-06
5.7062e-06
5.70605e-06
5.71288e-06
5.71326e-06
5.71326e-06
5.71326e-06
5.71326e-06
5.71326e-06
5.71324e-06
5.71318e-06
5.7131e-06
5.71301e-06
5.71296e-06
5.71296e-06
5.71298e-06
5.713e-06
5.71299e-06
5.71297e-06
5.71296e-06
5.71297e-06
5.71301e-06
5.71307e-06
5.7131e-06
5.71309e-06
5.71307e-06
5.71314e-06
5.71328e-06
5.71347e-06
5.71355e-06
5.71326e-06
5.70631e-06
5.7061e-06
5.71296e-06
5.71329e-06
5.71327e-06
5.71326e-06
5.71327e-06
5.71329e-06
5.71329e-06
5.71326e-06
5.71319e-06
5.7131e-06
5.71303e-06
5.71301e-06
5.71302e-06
5.71303e-06
5.71301e-06
5.71298e-06
5.71295e-06
5.71298e-06
5.71304e-06
5.71309e-06
5.71309e-06
5.71307e-06
5.71313e-06
5.71327e-06
5.71343e-06
5.71358e-06
5.71364e-06
5.71324e-06
5.70636e-06
5.70613e-06
5.713e-06
5.71332e-06
5.71329e-06
5.71326e-06
5.71327e-06
5.71331e-06
5.71333e-06
5.71333e-06
5.71329e-06
5.71322e-06
5.71314e-06
5.71307e-06
5.71303e-06
5.71303e-06
5.71306e-06
5.71309e-06
5.71311e-06
5.71314e-06
5.71316e-06
5.71316e-06
5.71314e-06
5.71315e-06
5.71323e-06
5.71335e-06
5.71349e-06
5.71359e-06
5.71362e-06
5.71319e-06
5.70638e-06
5.70618e-06
5.71302e-06
5.71334e-06
5.71331e-06
5.71326e-06
5.71325e-06
5.71328e-06
5.71332e-06
5.71335e-06
5.71335e-06
5.71333e-06
5.71326e-06
5.71316e-06
5.71306e-06
5.71302e-06
5.71311e-06
5.71321e-06
5.71329e-06
5.71333e-06
5.71333e-06
5.71329e-06
5.71325e-06
5.71324e-06
5.71327e-06
5.71336e-06
5.71346e-06
5.71353e-06
5.71354e-06
5.71312e-06
5.70638e-06
5.7063e-06
5.71303e-06
5.71336e-06
5.71333e-06
5.71328e-06
5.71323e-06
5.71321e-06
5.71324e-06
5.7133e-06
5.71335e-06
5.71336e-06
5.71333e-06
5.71324e-06
5.71312e-06
5.71302e-06
5.7131e-06
5.71325e-06
5.71337e-06
5.71345e-06
5.71346e-06
5.71342e-06
5.71335e-06
5.7133e-06
5.71329e-06
5.71332e-06
5.7134e-06
5.71346e-06
5.71348e-06
5.71307e-06
5.70638e-06
5.70638e-06
5.71308e-06
5.71344e-06
5.71344e-06
5.71341e-06
5.71336e-06
5.7133e-06
5.71326e-06
5.71327e-06
5.71331e-06
5.71334e-06
5.71334e-06
5.71329e-06
5.7132e-06
5.71308e-06
5.71309e-06
5.71322e-06
5.71336e-06
5.71344e-06
5.71346e-06
5.71344e-06
5.71338e-06
5.71333e-06
5.71331e-06
5.71332e-06
5.71335e-06
5.71343e-06
5.71346e-06
5.71306e-06
5.7064e-06
5.7065e-06
5.71321e-06
5.71359e-06
5.71361e-06
5.71362e-06
5.71363e-06
5.7136e-06
5.71354e-06
5.71345e-06
5.71334e-06
5.71331e-06
5.71333e-06
5.71334e-06
5.71331e-06
5.71325e-06
5.71322e-06
5.71324e-06
5.71328e-06
5.7133e-06
5.71333e-06
5.71335e-06
5.71336e-06
5.71337e-06
5.71337e-06
5.71338e-06
5.7134e-06
5.71344e-06
5.71347e-06
5.71308e-06
5.70647e-06
5.70678e-06
5.71333e-06
5.71374e-06
5.71378e-06
5.71383e-06
5.71387e-06
5.71386e-06
5.71378e-06
5.71362e-06
5.71343e-06
5.71328e-06
5.7133e-06
5.71336e-06
5.7134e-06
5.7134e-06
5.71338e-06
5.71333e-06
5.71325e-06
5.71317e-06
5.7132e-06
5.71331e-06
5.71341e-06
5.71347e-06
5.7135e-06
5.71351e-06
5.71352e-06
5.71353e-06
5.71354e-06
5.71315e-06
5.70658e-06
5.70711e-06
5.71339e-06
5.71387e-06
5.71394e-06
5.714e-06
5.71401e-06
5.71396e-06
5.71384e-06
5.71367e-06
5.71348e-06
5.71329e-06
5.71327e-06
5.71334e-06
5.71344e-06
5.71349e-06
5.71349e-06
5.71344e-06
5.71334e-06
5.71325e-06
5.71327e-06
5.71342e-06
5.71354e-06
5.71363e-06
5.71368e-06
5.7137e-06
5.71371e-06
5.71371e-06
5.71371e-06
5.71331e-06
5.70674e-06
5.70736e-06
5.71354e-06
5.71405e-06
5.71409e-06
5.71408e-06
5.71401e-06
5.7139e-06
5.71379e-06
5.7137e-06
5.71359e-06
5.71342e-06
5.71328e-06
5.71333e-06
5.71343e-06
5.7135e-06
5.71352e-06
5.71351e-06
5.71346e-06
5.71341e-06
5.71341e-06
5.71355e-06
5.71369e-06
5.71379e-06
5.71387e-06
5.71392e-06
5.71395e-06
5.71397e-06
5.71399e-06
5.71364e-06
5.70699e-06
5.70751e-06
5.71396e-06
5.71427e-06
5.71421e-06
5.71409e-06
5.71399e-06
5.71395e-06
5.71392e-06
5.71387e-06
5.71375e-06
5.71356e-06
5.71336e-06
5.71335e-06
5.71341e-06
5.71345e-06
5.71349e-06
5.71352e-06
5.71352e-06
5.71351e-06
5.71352e-06
5.71366e-06
5.71382e-06
5.71396e-06
5.71407e-06
5.71415e-06
5.71422e-06
5.71429e-06
5.71433e-06
5.71392e-06
5.70725e-06
5.70764e-06
5.71428e-06
5.7145e-06
5.71444e-06
5.71439e-06
5.71434e-06
5.7143e-06
5.71422e-06
5.7141e-06
5.71392e-06
5.71369e-06
5.71348e-06
5.71341e-06
5.71339e-06
5.71338e-06
5.71341e-06
5.71348e-06
5.71354e-06
5.71358e-06
5.71366e-06
5.71382e-06
5.71399e-06
5.71415e-06
5.7143e-06
5.71443e-06
5.71454e-06
5.71462e-06
5.71463e-06
5.71416e-06
5.70757e-06
5.70787e-06
5.71448e-06
5.71483e-06
5.71483e-06
5.71482e-06
5.71479e-06
5.71471e-06
5.71457e-06
5.71437e-06
5.71412e-06
5.71387e-06
5.71365e-06
5.71349e-06
5.71337e-06
5.71329e-06
5.71331e-06
5.71341e-06
5.71354e-06
5.71368e-06
5.71384e-06
5.71403e-06
5.71423e-06
5.71442e-06
5.71461e-06
5.71477e-06
5.71489e-06
5.71495e-06
5.71492e-06
5.71449e-06
5.70795e-06
5.70826e-06
5.71476e-06
5.71525e-06
5.71528e-06
5.71528e-06
5.71524e-06
5.71514e-06
5.71495e-06
5.71471e-06
5.71443e-06
5.71415e-06
5.71388e-06
5.71362e-06
5.71339e-06
5.71323e-06
5.71325e-06
5.71342e-06
5.71364e-06
5.71387e-06
5.7141e-06
5.71433e-06
5.71456e-06
5.7148e-06
5.71501e-06
5.71518e-06
5.71528e-06
5.71532e-06
5.71533e-06
5.71492e-06
5.7084e-06
5.70879e-06
5.71529e-06
5.71577e-06
5.71581e-06
5.71581e-06
5.71575e-06
5.71561e-06
5.71539e-06
5.71511e-06
5.71481e-06
5.71448e-06
5.71414e-06
5.7138e-06
5.71348e-06
5.71327e-06
5.71334e-06
5.71358e-06
5.71387e-06
5.71416e-06
5.71444e-06
5.71473e-06
5.715e-06
5.71526e-06
5.71548e-06
5.71564e-06
5.71575e-06
5.71583e-06
5.71587e-06
5.71547e-06
5.70897e-06
5.70948e-06
5.71598e-06
5.71645e-06
5.71648e-06
5.71646e-06
5.71635e-06
5.71615e-06
5.71589e-06
5.71557e-06
5.71522e-06
5.71484e-06
5.71443e-06
5.71401e-06
5.71363e-06
5.71343e-06
5.71352e-06
5.7138e-06
5.71415e-06
5.71451e-06
5.71487e-06
5.7152e-06
5.71551e-06
5.71579e-06
5.71602e-06
5.71621e-06
5.71638e-06
5.7165e-06
5.71656e-06
5.71618e-06
5.70971e-06
5.71036e-06
5.71688e-06
5.71734e-06
5.71734e-06
5.71726e-06
5.71707e-06
5.71681e-06
5.71648e-06
5.7161e-06
5.71569e-06
5.71523e-06
5.71475e-06
5.71427e-06
5.71385e-06
5.71361e-06
5.7137e-06
5.71404e-06
5.71447e-06
5.71492e-06
5.71535e-06
5.71574e-06
5.71609e-06
5.71641e-06
5.71671e-06
5.71697e-06
5.71719e-06
5.71736e-06
5.71745e-06
5.7171e-06
5.71068e-06
5.7115e-06
5.71806e-06
5.71847e-06
5.71841e-06
5.71824e-06
5.71796e-06
5.71761e-06
5.71721e-06
5.71676e-06
5.71626e-06
5.71571e-06
5.71516e-06
5.71462e-06
5.71414e-06
5.71384e-06
5.71391e-06
5.71432e-06
5.71484e-06
5.71538e-06
5.71589e-06
5.71635e-06
5.71679e-06
5.7172e-06
5.71759e-06
5.71793e-06
5.71821e-06
5.71842e-06
5.71857e-06
5.71828e-06
5.71189e-06
5.71296e-06
5.71952e-06
5.71986e-06
5.71971e-06
5.71944e-06
5.71908e-06
5.71865e-06
5.71816e-06
5.7176e-06
5.71699e-06
5.71635e-06
5.7157e-06
5.71508e-06
5.71454e-06
5.71415e-06
5.71419e-06
5.71465e-06
5.71526e-06
5.71589e-06
5.7165e-06
5.71708e-06
5.71765e-06
5.71819e-06
5.71867e-06
5.71908e-06
5.71944e-06
5.71972e-06
5.71994e-06
5.71972e-06
5.7133e-06
5.71477e-06
5.72128e-06
5.72154e-06
5.72129e-06
5.72093e-06
5.72048e-06
5.71996e-06
5.71937e-06
5.71869e-06
5.71795e-06
5.71718e-06
5.71643e-06
5.7157e-06
5.71504e-06
5.71455e-06
5.71454e-06
5.71505e-06
5.71576e-06
5.71652e-06
5.71728e-06
5.71803e-06
5.71875e-06
5.7194e-06
5.71997e-06
5.72047e-06
5.72092e-06
5.72127e-06
5.72157e-06
5.72138e-06
5.7149e-06
5.71693e-06
5.72331e-06
5.72351e-06
5.72318e-06
5.72274e-06
5.72222e-06
5.7216e-06
5.72089e-06
5.72007e-06
5.71919e-06
5.71828e-06
5.71739e-06
5.71651e-06
5.71569e-06
5.71506e-06
5.71501e-06
5.71559e-06
5.71643e-06
5.71737e-06
5.71832e-06
5.71925e-06
5.7201e-06
5.72088e-06
5.72157e-06
5.72218e-06
5.72273e-06
5.72317e-06
5.72348e-06
5.72324e-06
5.71677e-06
5.71945e-06
5.72567e-06
5.72582e-06
5.72544e-06
5.72493e-06
5.72431e-06
5.72358e-06
5.72272e-06
5.72176e-06
5.72073e-06
5.71968e-06
5.71862e-06
5.71755e-06
5.71652e-06
5.71574e-06
5.71568e-06
5.71637e-06
5.7174e-06
5.71854e-06
5.71969e-06
5.72079e-06
5.72181e-06
5.72275e-06
5.72358e-06
5.72431e-06
5.72495e-06
5.72546e-06
5.72572e-06
5.72545e-06
5.71913e-06
5.72236e-06
5.72843e-06
5.72854e-06
5.7281e-06
5.72752e-06
5.72679e-06
5.72592e-06
5.72491e-06
5.7238e-06
5.72262e-06
5.7214e-06
5.72013e-06
5.71882e-06
5.71757e-06
5.71667e-06
5.71663e-06
5.71747e-06
5.7187e-06
5.72005e-06
5.72142e-06
5.72272e-06
5.72392e-06
5.72504e-06
5.72605e-06
5.7269e-06
5.72763e-06
5.72818e-06
5.72843e-06
5.72823e-06
5.7221e-06
5.72577e-06
5.7317e-06
5.73178e-06
5.73127e-06
5.73059e-06
5.72974e-06
5.72873e-06
5.72756e-06
5.72629e-06
5.72493e-06
5.72348e-06
5.72194e-06
5.72036e-06
5.71889e-06
5.71788e-06
5.71788e-06
5.71888e-06
5.72034e-06
5.72193e-06
5.72353e-06
5.72508e-06
5.72649e-06
5.7278e-06
5.729e-06
5.72999e-06
5.73081e-06
5.73142e-06
5.73181e-06
5.73175e-06
5.72573e-06
5.72983e-06
5.73567e-06
5.7357e-06
5.73513e-06
5.73434e-06
5.73335e-06
5.73217e-06
5.73083e-06
5.72936e-06
5.72776e-06
5.72601e-06
5.72415e-06
5.72225e-06
5.72055e-06
5.71942e-06
5.71945e-06
5.72062e-06
5.72232e-06
5.72421e-06
5.7261e-06
5.72792e-06
5.72957e-06
5.73108e-06
5.73248e-06
5.73364e-06
5.73456e-06
5.73535e-06
5.73597e-06
5.73602e-06
5.73008e-06
5.73475e-06
5.74056e-06
5.74054e-06
5.73989e-06
5.73898e-06
5.73784e-06
5.73646e-06
5.73489e-06
5.73316e-06
5.73124e-06
5.72913e-06
5.72689e-06
5.72466e-06
5.72268e-06
5.72139e-06
5.72142e-06
5.72275e-06
5.72473e-06
5.72695e-06
5.72916e-06
5.73129e-06
5.73324e-06
5.73498e-06
5.73661e-06
5.73795e-06
5.73906e-06
5.74013e-06
5.74098e-06
5.74109e-06
5.73525e-06
5.74072e-06
5.74656e-06
5.74647e-06
5.74572e-06
5.74466e-06
5.74331e-06
5.74169e-06
5.73984e-06
5.73777e-06
5.73547e-06
5.73296e-06
5.73031e-06
5.72772e-06
5.72544e-06
5.72395e-06
5.72396e-06
5.72545e-06
5.72772e-06
5.73029e-06
5.73284e-06
5.73531e-06
5.73761e-06
5.73965e-06
5.74153e-06
5.74314e-06
5.74454e-06
5.74588e-06
5.74686e-06
5.74705e-06
5.7413e-06
5.74796e-06
5.75377e-06
5.75358e-06
5.75269e-06
5.75142e-06
5.74982e-06
5.74791e-06
5.74573e-06
5.74328e-06
5.74056e-06
5.73761e-06
5.73455e-06
5.73157e-06
5.72898e-06
5.72729e-06
5.72729e-06
5.72897e-06
5.73151e-06
5.73443e-06
5.73736e-06
5.74024e-06
5.74296e-06
5.74535e-06
5.74754e-06
5.7495e-06
5.75121e-06
5.7527e-06
5.75375e-06
5.75398e-06
5.74833e-06
5.75658e-06
5.76224e-06
5.76191e-06
5.76083e-06
5.75934e-06
5.75748e-06
5.75527e-06
5.75273e-06
5.74988e-06
5.74672e-06
5.74332e-06
5.73982e-06
5.73644e-06
5.73352e-06
5.73165e-06
5.73169e-06
5.73359e-06
5.73645e-06
5.73977e-06
5.74315e-06
5.74647e-06
5.74964e-06
5.75242e-06
5.75499e-06
5.75733e-06
5.75925e-06
5.76078e-06
5.76184e-06
5.7621e-06
5.75664e-06
5.76671e-06
5.77212e-06
5.77165e-06
5.77041e-06
5.76873e-06
5.76665e-06
5.76416e-06
5.76128e-06
5.75801e-06
5.7544e-06
5.75053e-06
5.74657e-06
5.74276e-06
5.73948e-06
5.73742e-06
5.73749e-06
5.73965e-06
5.74289e-06
5.7467e-06
5.7506e-06
5.75439e-06
5.75801e-06
5.7612e-06
5.76417e-06
5.76678e-06
5.76879e-06
5.77034e-06
5.77143e-06
5.7718e-06
5.76662e-06
5.77861e-06
5.78379e-06
5.78322e-06
5.78187e-06
5.78007e-06
5.77781e-06
5.77508e-06
5.77186e-06
5.76819e-06
5.76414e-06
5.7598e-06
5.75535e-06
5.75109e-06
5.74743e-06
5.7451e-06
5.74515e-06
5.74755e-06
5.7512e-06
5.75554e-06
5.75999e-06
5.76427e-06
5.76833e-06
5.77195e-06
5.77523e-06
5.778e-06
5.78009e-06
5.78175e-06
5.78299e-06
5.78354e-06
5.77862e-06
5.79271e-06
5.79765e-06
5.79703e-06
5.79562e-06
5.79369e-06
5.79125e-06
5.78827e-06
5.78473e-06
5.78068e-06
5.77623e-06
5.77144e-06
5.76651e-06
5.76181e-06
5.75779e-06
5.75518e-06
5.75515e-06
5.75775e-06
5.76178e-06
5.76664e-06
5.77161e-06
5.77635e-06
5.78085e-06
5.78487e-06
5.78837e-06
5.79127e-06
5.79357e-06
5.79546e-06
5.79691e-06
5.7976e-06
5.79288e-06
5.80926e-06
5.81395e-06
5.81325e-06
5.81177e-06
5.80971e-06
5.80708e-06
5.80388e-06
5.80008e-06
5.79574e-06
5.79094e-06
5.78577e-06
5.78038e-06
5.77524e-06
5.7709e-06
5.76808e-06
5.76801e-06
5.77085e-06
5.77522e-06
5.78051e-06
5.78587e-06
5.79105e-06
5.79592e-06
5.80024e-06
5.80393e-06
5.80703e-06
5.80959e-06
5.81167e-06
5.81322e-06
5.81392e-06
5.80932e-06
5.8285e-06
5.83287e-06
5.83208e-06
5.83055e-06
5.82847e-06
5.82578e-06
5.82252e-06
5.81865e-06
5.81414e-06
5.80906e-06
5.80358e-06
5.79782e-06
5.79229e-06
5.78766e-06
5.78467e-06
5.7846e-06
5.78767e-06
5.79231e-06
5.79793e-06
5.80358e-06
5.80915e-06
5.81427e-06
5.81877e-06
5.82261e-06
5.82587e-06
5.82855e-06
5.83063e-06
5.83209e-06
5.83272e-06
5.82829e-06
5.85063e-06
5.85479e-06
5.85405e-06
5.85266e-06
5.85073e-06
5.8482e-06
5.84507e-06
5.84133e-06
5.83682e-06
5.8316e-06
5.82598e-06
5.82011e-06
5.81436e-06
5.80948e-06
5.80629e-06
5.80619e-06
5.80945e-06
5.81431e-06
5.82013e-06
5.8259e-06
5.83166e-06
5.83679e-06
5.84129e-06
5.84516e-06
5.84837e-06
5.85088e-06
5.85276e-06
5.85399e-06
5.85464e-06
5.85048e-06
5.87627e-06
5.88043e-06
5.87979e-06
5.87865e-06
5.87702e-06
5.87482e-06
5.87193e-06
5.86848e-06
5.86434e-06
5.85932e-06
5.8539e-06
5.84823e-06
5.84256e-06
5.83766e-06
5.83442e-06
5.83438e-06
5.83771e-06
5.84256e-06
5.84825e-06
5.85393e-06
5.85946e-06
5.8643e-06
5.8685e-06
5.87209e-06
5.87489e-06
5.87699e-06
5.87857e-06
5.87965e-06
5.88043e-06
5.87638e-06
5.90609e-06
5.91014e-06
5.90959e-06
5.90875e-06
5.9076e-06
5.90607e-06
5.9038e-06
5.90102e-06
5.89775e-06
5.89357e-06
5.88881e-06
5.88377e-06
5.87855e-06
5.87399e-06
5.87092e-06
5.87095e-06
5.87405e-06
5.87861e-06
5.88378e-06
5.88894e-06
5.89368e-06
5.89774e-06
5.90123e-06
5.90402e-06
5.90603e-06
5.90758e-06
5.90876e-06
5.90966e-06
5.91024e-06
5.90603e-06
5.94062e-06
5.9444e-06
5.94416e-06
5.94388e-06
5.94356e-06
5.94328e-06
5.94235e-06
5.9408e-06
5.93888e-06
5.93641e-06
5.93324e-06
5.92977e-06
5.92599e-06
5.92267e-06
5.92047e-06
5.92066e-06
5.92277e-06
5.92609e-06
5.92973e-06
5.9334e-06
5.93647e-06
5.93887e-06
5.94091e-06
5.9422e-06
5.94299e-06
5.94366e-06
5.94412e-06
5.94446e-06
5.94438e-06
5.94029e-06
5.98059e-06
5.98453e-06
5.98503e-06
5.9858e-06
5.9863e-06
5.9875e-06
5.98874e-06
5.9898e-06
5.99108e-06
5.9928e-06
5.99536e-06
5.99911e-06
6.0045e-06
6.01147e-06
6.01829e-06
6.01856e-06
6.0115e-06
6.00456e-06
5.99912e-06
5.99555e-06
5.99296e-06
5.99124e-06
5.98998e-06
5.98864e-06
5.98741e-06
5.98647e-06
5.98583e-06
5.98504e-06
5.98443e-06
5.98066e-06
6.02698e-06
6.03223e-06
6.03347e-06
6.03611e-06
6.03862e-06
6.04306e-06
6.04977e-06
6.05899e-06
6.07438e-06
6.09943e-06
6.14461e-06
6.21414e-06
6.30626e-06
6.41319e-06
6.50978e-06
6.51026e-06
6.41329e-06
6.30651e-06
6.21445e-06
6.14499e-06
6.09961e-06
6.07444e-06
6.05911e-06
6.04973e-06
6.04328e-06
6.03876e-06
6.03586e-06
6.03339e-06
6.03223e-06
6.02734e-06
6.08554e-06
6.09421e-06
6.09789e-06
6.10626e-06
6.11825e-06
6.13796e-06
6.17477e-06
6.23822e-06
6.3642e-06
6.58159e-06
6.97896e-06
7.57123e-06
8.2726e-06
8.99884e-06
9.59188e-06
9.59352e-06
8.99991e-06
8.27481e-06
7.5748e-06
6.98243e-06
6.58377e-06
6.3654e-06
6.23881e-06
6.17474e-06
6.13819e-06
6.11798e-06
6.10589e-06
6.09866e-06
6.09412e-06
6.08506e-06
6.17651e-06
6.2009e-06
6.22554e-06
6.26707e-06
6.34304e-06
6.47874e-06
6.74209e-06
7.2151e-06
8.11593e-06
9.46486e-06
1.1502e-05
1.38834e-05
1.60914e-05
1.79148e-05
1.91418e-05
1.91451e-05
1.7919e-05
1.61003e-05
1.38988e-05
1.15175e-05
9.47666e-06
8.12425e-06
7.21985e-06
6.74434e-06
6.47968e-06
6.3434e-06
6.26711e-06
6.22544e-06
6.19932e-06
6.17599e-06
6.41848e-06
6.57216e-06
6.7653e-06
7.06609e-06
7.62533e-06
8.6565e-06
1.0234e-05
1.26676e-05
1.59897e-05
1.93163e-05
2.29313e-05
2.62096e-05
2.8841e-05
3.08337e-05
3.20336e-05
3.20378e-05
3.08413e-05
2.88558e-05
2.62321e-05
2.29553e-05
1.93449e-05
1.60156e-05
1.26855e-05
1.02487e-05
8.66466e-06
7.62911e-06
7.06685e-06
6.76509e-06
6.56937e-06
6.41705e-06
7.77405e-06
9.0427e-06
1.05632e-05
1.28049e-05
1.5838e-05
1.9937e-05
2.32153e-05
2.66039e-05
3.03172e-05
3.29016e-05
3.59189e-05
3.83541e-05
4.02895e-05
4.1763e-05
4.26552e-05
4.26593e-05
4.17733e-05
4.03066e-05
3.83768e-05
3.59466e-05
3.29354e-05
3.03469e-05
2.66306e-05
2.32522e-05
1.99684e-05
1.58642e-05
1.28238e-05
1.05765e-05
9.04586e-06
7.77207e-06
1.02517e-05
1.30295e-05
1.62476e-05
1.97315e-05
2.32228e-05
2.65717e-05
3.03312e-05
3.34614e-05
3.61298e-05
3.87014e-05
4.11964e-05
4.32899e-05
4.50798e-05
4.64416e-05
4.72869e-05
4.72906e-05
4.64515e-05
4.50973e-05
4.33163e-05
4.12289e-05
3.87446e-05
3.61703e-05
3.34905e-05
3.03691e-05
2.66108e-05
2.32554e-05
1.97546e-05
1.62667e-05
1.30386e-05
1.02535e-05
1.1208e-05
1.28025e-05
1.52431e-05
1.77224e-05
1.90137e-05
2.33869e-05
3.09567e-05
3.58359e-05
3.94604e-05
4.21519e-05
4.44988e-05
4.6459e-05
4.85036e-05
5.00811e-05
5.10581e-05
5.10611e-05
5.00927e-05
4.85089e-05
4.64833e-05
4.45505e-05
4.21942e-05
3.9502e-05
3.59056e-05
3.09781e-05
2.33821e-05
1.90635e-05
1.77488e-05
1.52445e-05
1.28284e-05
1.12247e-05
1.55741e-05
1.67274e-05
2.05336e-05
2.38854e-05
2.5678e-05
2.86262e-05
3.20942e-05
3.51023e-05
3.82978e-05
4.19695e-05
4.47905e-05
4.76011e-05
5.04195e-05
5.24717e-05
5.36655e-05
5.36724e-05
5.2494e-05
5.04579e-05
4.7624e-05
4.48294e-05
4.20248e-05
3.83532e-05
3.51727e-05
3.2199e-05
2.86572e-05
2.56812e-05
2.38605e-05
2.05471e-05
1.68412e-05
1.54813e-05
1.6429e-05
1.72098e-05
1.97553e-05
2.44581e-05
2.82871e-05
3.07121e-05
3.22402e-05
3.36438e-05
3.55735e-05
3.78078e-05
4.09296e-05
4.36491e-05
4.559e-05
4.67689e-05
4.78477e-05
4.78569e-05
4.67933e-05
4.56582e-05
4.37306e-05
4.09905e-05
3.79088e-05
3.56208e-05
3.36168e-05
3.22771e-05
3.08686e-05
2.83146e-05
2.45266e-05
1.99315e-05
1.70281e-05
1.61662e-05
1.66218e-05
1.70877e-05
1.89187e-05
2.22902e-05
2.58513e-05
2.86608e-05
3.03058e-05
3.16236e-05
3.29104e-05
3.43003e-05
3.58967e-05
3.7669e-05
3.92372e-05
4.04733e-05
4.1227e-05
4.12519e-05
4.05084e-05
3.92706e-05
3.7749e-05
3.58987e-05
3.43276e-05
3.2963e-05
3.16523e-05
3.03625e-05
2.87369e-05
2.59692e-05
2.24059e-05
1.9145e-05
1.73389e-05
1.68158e-05
1.59506e-05
1.57177e-05
1.639e-05
1.76603e-05
1.95562e-05
2.20202e-05
2.4673e-05
2.73419e-05
2.98549e-05
3.20286e-05
3.39736e-05
3.53539e-05
3.63769e-05
3.68999e-05
3.70987e-05
3.71206e-05
3.69468e-05
3.64102e-05
3.54032e-05
3.40079e-05
3.20321e-05
2.98792e-05
2.73695e-05
2.47507e-05
2.2126e-05
1.97408e-05
1.76695e-05
1.62237e-05
1.57368e-05
1.59261e-05
1.4869e-05
1.4712e-05
1.46536e-05
1.49054e-05
1.55508e-05
1.65517e-05
1.81663e-05
2.04857e-05
2.33457e-05
2.66503e-05
3.02041e-05
3.37727e-05
3.57614e-05
3.67385e-05
3.71521e-05
3.71652e-05
3.67583e-05
3.57869e-05
3.37882e-05
3.02222e-05
2.666e-05
2.33803e-05
2.05461e-05
1.82613e-05
1.6595e-05
1.55693e-05
1.50354e-05
1.47358e-05
1.46316e-05
1.48362e-05
1.38284e-05
1.35866e-05
1.34712e-05
1.35405e-05
1.37282e-05
1.40969e-05
1.47624e-05
1.579e-05
1.73832e-05
1.98736e-05
2.34339e-05
2.76664e-05
3.22692e-05
3.48617e-05
3.62546e-05
3.62792e-05
3.48919e-05
3.23285e-05
2.77328e-05
2.34963e-05
1.99421e-05
1.74292e-05
1.58271e-05
1.47869e-05
1.41134e-05
1.37121e-05
1.3569e-05
1.35408e-05
1.35846e-05
1.38752e-05
1.30516e-05
1.26402e-05
1.25804e-05
1.25789e-05
1.26163e-05
1.27555e-05
1.30436e-05
1.34712e-05
1.40705e-05
1.50985e-05
1.70697e-05
2.02018e-05
2.40111e-05
2.86433e-05
3.16948e-05
3.17179e-05
2.86655e-05
2.40454e-05
2.02168e-05
1.70545e-05
1.50726e-05
1.40398e-05
1.34686e-05
1.30674e-05
1.28003e-05
1.26463e-05
1.25808e-05
1.2579e-05
1.26673e-05
1.30275e-05
1.22681e-05
1.19271e-05
1.19148e-05
1.19094e-05
1.19267e-05
1.20129e-05
1.2155e-05
1.23324e-05
1.25601e-05
1.29068e-05
1.35248e-05
1.47196e-05
1.66419e-05
1.90006e-05
2.16088e-05
2.16067e-05
1.89926e-05
1.66475e-05
1.47424e-05
1.35569e-05
1.29364e-05
1.25718e-05
1.23275e-05
1.21356e-05
1.20078e-05
1.19463e-05
1.19206e-05
1.19056e-05
1.19626e-05
1.23139e-05
1.17302e-05
1.13954e-05
1.13454e-05
1.13359e-05
1.1358e-05
1.14255e-05
1.15146e-05
1.16146e-05
1.1733e-05
1.18676e-05
1.20399e-05
1.23211e-05
1.28277e-05
1.36091e-05
1.45139e-05
1.45235e-05
1.36342e-05
1.28605e-05
1.23463e-05
1.20546e-05
1.18728e-05
1.17323e-05
1.16101e-05
1.14986e-05
1.14154e-05
1.13751e-05
1.13547e-05
1.13385e-05
1.1373e-05
1.16975e-05
1.11111e-05
1.08389e-05
1.07775e-05
1.08023e-05
1.08605e-05
1.09268e-05
1.09939e-05
1.10611e-05
1.11296e-05
1.11932e-05
1.12445e-05
1.12895e-05
1.13592e-05
1.14868e-05
1.16551e-05
1.16562e-05
1.14901e-05
1.13576e-05
1.12735e-05
1.12174e-05
1.11649e-05
1.11095e-05
1.10544e-05
1.09896e-05
1.09183e-05
1.0862e-05
1.08276e-05
1.08128e-05
1.08483e-05
1.11511e-05
1.06408e-05
1.03374e-05
1.03187e-05
1.03563e-05
1.03958e-05
1.04282e-05
1.04604e-05
1.04981e-05
1.0531e-05
1.05554e-05
1.05675e-05
1.0566e-05
1.05557e-05
1.05481e-05
1.05482e-05
1.05468e-05
1.05469e-05
1.05572e-05
1.05734e-05
1.05856e-05
1.05811e-05
1.0555e-05
1.05123e-05
1.04569e-05
1.04032e-05
1.03602e-05
1.03388e-05
1.03352e-05
1.03758e-05
1.06564e-05
1.01796e-05
9.89279e-06
9.8949e-06
9.91575e-06
9.92311e-06
9.93468e-06
9.95192e-06
9.9665e-06
9.9747e-06
9.9736e-06
9.95872e-06
9.93277e-06
9.90072e-06
9.8715e-06
9.85253e-06
9.85442e-06
9.87867e-06
9.91073e-06
9.94361e-06
9.97308e-06
9.98889e-06
9.9832e-06
9.9633e-06
9.94115e-06
9.92099e-06
9.90767e-06
9.89998e-06
9.89856e-06
9.93142e-06
1.01889e-05
9.70326e-06
9.48228e-06
9.4651e-06
9.46574e-06
9.47404e-06
9.48763e-06
9.49699e-06
9.49625e-06
9.48092e-06
9.44964e-06
9.40854e-06
9.36054e-06
9.30956e-06
9.26514e-06
9.23577e-06
9.23662e-06
9.26825e-06
9.31196e-06
9.35669e-06
9.39814e-06
9.43376e-06
9.46251e-06
9.47924e-06
9.48829e-06
9.49214e-06
9.48949e-06
9.48312e-06
9.47496e-06
9.49723e-06
9.73025e-06
9.29249e-06
9.08116e-06
9.04473e-06
9.04683e-06
9.06036e-06
9.06615e-06
9.05974e-06
9.03766e-06
8.99825e-06
8.94608e-06
8.8879e-06
8.82788e-06
8.76711e-06
8.71193e-06
8.67395e-06
8.67191e-06
8.70837e-06
8.76532e-06
8.82896e-06
8.89183e-06
8.95104e-06
9.00337e-06
9.0443e-06
9.068e-06
9.07662e-06
9.07458e-06
9.06519e-06
9.0568e-06
9.07882e-06
9.2947e-06
8.90873e-06
8.6933e-06
8.66592e-06
8.67587e-06
8.67939e-06
8.67077e-06
8.64622e-06
8.60418e-06
8.54603e-06
8.47776e-06
8.40982e-06
8.34413e-06
8.27935e-06
8.21958e-06
8.17951e-06
8.17864e-06
8.21803e-06
8.28094e-06
8.3552e-06
8.43316e-06
8.5072e-06
8.57121e-06
8.62029e-06
8.65114e-06
8.66482e-06
8.66864e-06
8.66785e-06
8.66759e-06
8.69456e-06
8.89739e-06
8.53874e-06
8.33544e-06
8.32686e-06
8.33381e-06
8.32911e-06
8.30775e-06
8.26927e-06
8.21534e-06
8.14899e-06
8.07731e-06
8.00475e-06
7.93042e-06
7.85578e-06
7.79147e-06
7.75166e-06
7.75218e-06
7.79131e-06
7.85411e-06
7.93158e-06
8.01574e-06
8.09667e-06
8.16629e-06
8.22051e-06
8.25885e-06
8.28461e-06
8.30117e-06
8.31213e-06
8.32075e-06
8.34981e-06
8.53806e-06
8.17693e-06
8.01997e-06
8.01231e-06
8.0071e-06
7.98929e-06
7.95808e-06
7.91663e-06
7.8652e-06
7.8044e-06
7.73539e-06
7.65711e-06
7.57138e-06
7.48815e-06
7.42088e-06
7.38029e-06
7.37958e-06
7.41845e-06
7.48313e-06
7.56377e-06
7.65068e-06
7.73355e-06
7.80563e-06
7.8644e-06
7.9111e-06
7.94785e-06
7.97577e-06
7.99466e-06
8.00748e-06
8.03528e-06
8.20403e-06
7.87068e-06
7.74656e-06
7.71963e-06
7.6982e-06
7.66793e-06
7.63373e-06
7.59402e-06
7.54718e-06
7.49061e-06
7.4214e-06
7.33899e-06
7.24992e-06
7.16544e-06
7.09537e-06
7.05108e-06
7.04796e-06
7.0886e-06
7.15826e-06
7.24309e-06
7.33202e-06
7.41578e-06
7.48962e-06
7.55262e-06
7.60525e-06
7.64825e-06
7.68118e-06
7.70376e-06
7.71874e-06
7.74486e-06
7.8917e-06
7.6105e-06
7.4913e-06
7.45174e-06
7.42208e-06
7.39031e-06
7.35657e-06
7.31701e-06
7.27035e-06
7.21262e-06
7.14132e-06
7.0595e-06
6.97327e-06
6.89033e-06
6.81925e-06
6.77339e-06
6.77062e-06
6.81342e-06
6.88585e-06
6.97208e-06
7.0602e-06
7.14242e-06
7.21626e-06
7.28072e-06
7.33521e-06
7.3791e-06
7.41224e-06
7.4353e-06
7.45106e-06
7.47526e-06
7.60269e-06
7.36071e-06
7.2471e-06
7.21032e-06
7.18571e-06
7.16031e-06
7.12744e-06
7.08744e-06
7.03838e-06
6.97817e-06
6.9068e-06
6.8283e-06
6.74611e-06
6.66578e-06
6.59687e-06
6.55376e-06
6.55337e-06
6.59624e-06
6.66631e-06
6.74844e-06
6.83191e-06
6.91025e-06
6.9814e-06
7.0437e-06
7.09615e-06
7.13759e-06
7.16867e-06
7.19085e-06
7.20675e-06
7.22994e-06
7.34158e-06
7.13106e-06
7.02065e-06
6.99706e-06
6.98108e-06
6.95863e-06
6.92773e-06
6.88956e-06
6.84102e-06
6.78201e-06
6.71398e-06
6.63886e-06
6.55941e-06
6.48213e-06
6.41798e-06
6.37995e-06
6.38226e-06
6.4234e-06
6.48806e-06
6.56343e-06
6.64046e-06
6.71381e-06
6.7806e-06
6.83876e-06
6.88708e-06
6.92513e-06
6.95403e-06
6.97557e-06
6.99202e-06
7.01417e-06
7.11101e-06
6.91445e-06
6.81632e-06
6.80486e-06
6.79332e-06
6.77409e-06
6.74881e-06
6.71442e-06
6.66901e-06
6.61395e-06
6.55025e-06
6.47884e-06
6.40393e-06
6.33311e-06
6.27641e-06
6.24396e-06
6.24754e-06
6.28487e-06
6.34236e-06
6.40996e-06
6.48008e-06
6.54792e-06
6.60988e-06
6.66367e-06
6.70785e-06
6.74292e-06
6.77019e-06
6.79118e-06
6.80745e-06
6.82738e-06
6.90886e-06
6.71552e-06
6.64766e-06
6.63704e-06
6.62669e-06
6.61189e-06
6.59021e-06
6.55774e-06
6.51585e-06
6.46592e-06
6.40774e-06
6.3429e-06
6.27635e-06
6.21429e-06
6.16422e-06
6.13475e-06
6.13678e-06
6.169e-06
6.22e-06
6.28095e-06
6.34492e-06
6.40711e-06
6.46375e-06
6.51279e-06
6.55352e-06
6.58634e-06
6.61229e-06
6.63225e-06
6.64719e-06
6.6641e-06
6.73118e-06
6.56202e-06
6.51115e-06
6.49786e-06
6.48751e-06
6.47321e-06
6.45022e-06
6.41869e-06
6.38101e-06
6.33697e-06
6.28621e-06
6.23079e-06
6.17405e-06
6.12001e-06
6.07431e-06
6.04592e-06
6.04594e-06
6.07401e-06
6.11987e-06
6.17461e-06
6.23177e-06
6.2869e-06
6.33736e-06
6.38147e-06
6.41894e-06
6.44981e-06
6.47435e-06
6.49289e-06
6.50629e-06
6.52066e-06
6.57563e-06
6.43715e-06
6.38934e-06
6.37857e-06
6.36768e-06
6.35135e-06
6.32809e-06
6.30005e-06
6.26771e-06
6.23021e-06
6.18771e-06
6.1414e-06
6.09303e-06
6.04564e-06
6.00438e-06
5.97803e-06
5.97711e-06
6.00158e-06
6.04162e-06
6.08908e-06
6.13848e-06
6.18607e-06
6.23012e-06
6.26959e-06
6.30379e-06
6.33226e-06
6.35477e-06
6.37159e-06
6.38367e-06
6.39613e-06
6.4408e-06
6.31764e-06
6.28378e-06
6.2746e-06
6.26335e-06
6.24755e-06
6.22782e-06
6.2047e-06
6.17745e-06
6.14573e-06
6.10984e-06
6.0702e-06
6.02821e-06
5.98672e-06
5.95084e-06
5.92779e-06
5.92631e-06
5.94687e-06
5.98109e-06
6.02151e-06
6.06369e-06
6.105e-06
6.14358e-06
6.17839e-06
6.20849e-06
6.23331e-06
6.2528e-06
6.26747e-06
6.27832e-06
6.28921e-06
6.32489e-06
6.22009e-06
6.19943e-06
6.18836e-06
6.17803e-06
6.16488e-06
6.14872e-06
6.1289e-06
6.10515e-06
6.07772e-06
6.04673e-06
6.01249e-06
5.97631e-06
5.94099e-06
5.91061e-06
5.8908e-06
5.8888e-06
5.9057e-06
5.93469e-06
5.96932e-06
6.00567e-06
6.0414e-06
6.07471e-06
6.10425e-06
6.12926e-06
6.14961e-06
6.16575e-06
6.17845e-06
6.18841e-06
6.19816e-06
6.22636e-06
6.1458e-06
6.12451e-06
6.11508e-06
6.10695e-06
6.09601e-06
6.08189e-06
6.06452e-06
6.044e-06
6.02045e-06
5.994e-06
5.96522e-06
5.93527e-06
5.90608e-06
5.88034e-06
5.86267e-06
5.86009e-06
5.87393e-06
5.89843e-06
5.92806e-06
5.95934e-06
5.98983e-06
6.01774e-06
6.04194e-06
6.06212e-06
6.07863e-06
6.09227e-06
6.10371e-06
6.11312e-06
6.12182e-06
6.14361e-06
6.07537e-06
6.05518e-06
6.05102e-06
6.04479e-06
6.03522e-06
6.0231e-06
6.00867e-06
5.99165e-06
5.97186e-06
5.94974e-06
5.92598e-06
5.90142e-06
5.87706e-06
5.85472e-06
5.83876e-06
5.83614e-06
5.84778e-06
5.86858e-06
5.89411e-06
5.921e-06
5.94681e-06
5.97002e-06
5.98997e-06
6.00669e-06
6.0207e-06
6.03267e-06
6.04298e-06
6.05137e-06
6.0584e-06
6.07397e-06
6.01082e-06
6.00134e-06
5.99943e-06
5.99352e-06
5.9849e-06
5.97472e-06
5.96279e-06
5.94841e-06
5.9317e-06
5.91317e-06
5.89337e-06
5.87271e-06
5.85171e-06
5.83216e-06
5.8181e-06
5.81607e-06