/*--------------------------------*- C++ -*----------------------------------*\
| =========                 |                                                 |
| \\      /  F ield         | OpenFOAM: The Open Source CFD Toolbox           |
|  \\    /   O peration     | Version:  2312                                  |
|   \\  /    A nd           | Website:  www.openfoam.com                      |
|    \\/     M anipulation  |                                                 |
\*---------------------------------------------------------------------------*/
FoamFile
{
    version     2.0;
    format      ascii;
    arch        "LSB;label=32;scalar=64";
    class       volScalarField;
    location    "0.748016";
    object      p;
}
// * * * * * * * * * * * * * * * * * * * * * * * * * * * * * * * * * * * * * //

dimensions      [1 -1 -2 0 0 0 0];

internalField   nonuniform List<scalar> 
90000
(
4849.49
4849.49
4849.49
4849.49
4849.49
4849.49
4849.49
4849.49
4849.49
4849.49
4849.49
4849.49
4849.49
4849.49
4849.49
4849.49
4849.49
4849.49
4849.49
4849.49
4849.49
4849.49
4849.49
4849.49
4849.49
4849.49
4849.49
4849.49
4849.49
4849.49
4751.39
4751.39
4751.39
4751.39
4751.39
4751.39
4751.39
4751.39
4751.39
4751.39
4751.39
4751.39
4751.39
4751.39
4751.39
4751.39
4751.39
4751.39
4751.39
4751.39
4751.39
4751.39
4751.39
4751.39
4751.39
4751.39
4751.39
4751.39
4751.39
4751.39
4653.29
4653.29
4653.29
4653.29
4653.29
4653.29
4653.29
4653.29
4653.29
4653.29
4653.29
4653.29
4653.29
4653.29
4653.28
4653.28
4653.28
4653.28
4653.28
4653.28
4653.29
4653.29
4653.29
4653.29
4653.29
4653.28
4653.28
4653.28
4653.29
4653.29
4555.19
4555.19
4555.19
4555.19
4555.19
4555.19
4555.19
4555.19
4555.19
4555.19
4555.18
4555.18
4555.18
4555.18
4555.18
4555.18
4555.18
4555.18
4555.18
4555.18
4555.19
4555.19
4555.19
4555.18
4555.18
4555.18
4555.18
4555.18
4555.18
4555.18
4457.09
4457.09
4457.09
4457.09
4457.09
4457.08
4457.08
4457.08
4457.08
4457.08
4457.08
4457.08
4457.08
4457.08
4457.08
4457.08
4457.08
4457.08
4457.08
4457.09
4457.09
4457.09
4457.08
4457.08
4457.08
4457.08
4457.08
4457.08
4457.08
4457.08
4358.99
4358.99
4358.99
4358.99
4358.98
4358.98
4358.98
4358.98
4358.98
4358.98
4358.98
4358.98
4358.98
4358.98
4358.98
4358.98
4358.98
4358.98
4358.99
4358.99
4358.99
4358.98
4358.98
4358.98
4358.98
4358.98
4358.98
4358.98
4358.98
4358.98
4260.89
4260.89
4260.89
4260.88
4260.88
4260.88
4260.88
4260.88
4260.88
4260.88
4260.88
4260.88
4260.88
4260.88
4260.88
4260.88
4260.88
4260.88
4260.88
4260.88
4260.88
4260.88
4260.88
4260.88
4260.88
4260.88
4260.88
4260.89
4260.89
4260.89
4162.78
4162.78
4162.78
4162.78
4162.78
4162.78
4162.78
4162.78
4162.78
4162.78
4162.78
4162.78
4162.78
4162.78
4162.78
4162.78
4162.78
4162.78
4162.78
4162.78
4162.78
4162.78
4162.78
4162.78
4162.78
4162.79
4162.79
4162.79
4162.79
4162.79
4064.68
4064.68
4064.68
4064.68
4064.68
4064.68
4064.68
4064.68
4064.68
4064.68
4064.68
4064.68
4064.68
4064.68
4064.68
4064.68
4064.68
4064.68
4064.68
4064.68
4064.68
4064.68
4064.68
4064.68
4064.69
4064.69
4064.69
4064.69
4064.69
4064.69
3966.58
3966.58
3966.58
3966.58
3966.58
3966.58
3966.58
3966.58
3966.58
3966.58
3966.58
3966.58
3966.58
3966.58
3966.58
3966.58
3966.58
3966.58
3966.58
3966.58
3966.58
3966.58
3966.58
3966.58
3966.59
3966.59
3966.59
3966.59
3966.59
3966.59
3868.48
3868.48
3868.48
3868.48
3868.48
3868.48
3868.48
3868.48
3868.48
3868.48
3868.48
3868.48
3868.47
3868.47
3868.47
3868.47
3868.47
3868.47
3868.48
3868.48
3868.48
3868.48
3868.48
3868.48
3868.48
3868.49
3868.49
3868.49
3868.49
3868.49
3770.38
3770.38
3770.38
3770.38
3770.38
3770.38
3770.38
3770.38
3770.38
3770.38
3770.38
3770.37
3770.37
3770.37
3770.37
3770.37
3770.37
3770.37
3770.38
3770.38
3770.38
3770.38
3770.38
3770.38
3770.38
3770.38
3770.38
3770.38
3770.38
3770.38
3672.27
3672.27
3672.27
3672.27
3672.27
3672.27
3672.27
3672.27
3672.28
3672.28
3672.28
3672.27
3672.27
3672.27
3672.27
3672.27
3672.27
3672.28
3672.28
3672.28
3672.28
3672.28
3672.28
3672.28
3672.28
3672.28
3672.28
3672.28
3672.28
3672.28
3574.17
3574.17
3574.17
3574.17
3574.17
3574.17
3574.17
3574.18
3574.18
3574.18
3574.18
3574.18
3574.18
3574.17
3574.17
3574.18
3574.18
3574.18
3574.18
3574.18
3574.18
3574.18
3574.18
3574.18
3574.18
3574.18
3574.18
3574.18
3574.18
3574.18
3476.07
3476.07
3476.07
3476.07
3476.07
3476.08
3476.08
3476.08
3476.08
3476.08
3476.08
3476.08
3476.08
3476.08
3476.08
3476.07
3476.07
3476.07
3476.08
3476.08
3476.08
3476.08
3476.08
3476.08
3476.08
3476.08
3476.08
3476.08
3476.08
3476.08
3377.98
3377.98
3377.98
3377.98
3377.98
3377.98
3377.98
3377.98
3377.98
3377.98
3377.98
3377.98
3377.97
3377.97
3377.97
3377.97
3377.97
3377.97
3377.97
3377.97
3377.97
3377.98
3377.98
3377.98
3377.98
3377.98
3377.98
3377.99
3377.99
3377.99
3279.88
3279.88
3279.88
3279.88
3279.88
3279.88
3279.88
3279.88
3279.88
3279.88
3279.87
3279.87
3279.87
3279.87
3279.87
3279.87
3279.87
3279.87
3279.87
3279.87
3279.88
3279.88
3279.88
3279.88
3279.88
3279.89
3279.89
3279.89
3279.89
3279.89
3181.79
3181.79
3181.79
3181.79
3181.79
3181.79
3181.78
3181.78
3181.78
3181.78
3181.77
3181.77
3181.77
3181.77
3181.77
3181.77
3181.77
3181.77
3181.77
3181.77
3181.78
3181.78
3181.78
3181.78
3181.79
3181.79
3181.79
3181.79
3181.79
3181.8
3083.7
3083.7
3083.7
3083.7
3083.69
3083.69
3083.69
3083.68
3083.68
3083.68
3083.67
3083.67
3083.67
3083.67
3083.67
3083.67
3083.67
3083.67
3083.67
3083.67
3083.68
3083.68
3083.68
3083.69
3083.69
3083.69
3083.7
3083.7
3083.7
3083.7
2985.61
2985.61
2985.6
2985.6
2985.6
2985.59
2985.59
2985.58
2985.58
2985.58
2985.57
2985.57
2985.57
2985.57
2985.57
2985.57
2985.57
2985.57
2985.57
2985.58
2985.58
2985.58
2985.59
2985.59
2985.6
2985.6
2985.6
2985.61
2985.61
2985.61
2887.51
2887.51
2887.51
2887.51
2887.5
2887.5
2887.49
2887.49
2887.48
2887.48
2887.47
2887.47
2887.47
2887.46
2887.46
2887.46
2887.47
2887.47
2887.47
2887.48
2887.48
2887.49
2887.49
2887.5
2887.5
2887.51
2887.51
2887.51
2887.52
2887.52
2789.42
2789.42
2789.42
2789.41
2789.41
2789.4
2789.4
2789.39
2789.38
2789.38
2789.37
2789.37
2789.36
2789.36
2789.36
2789.36
2789.37
2789.37
2789.37
2789.38
2789.38
2789.39
2789.4
2789.4
2789.41
2789.42
2789.42
2789.42
2789.43
2789.43
2691.33
2691.33
2691.33
2691.32
2691.32
2691.31
2691.3
2691.29
2691.29
2691.28
2691.27
2691.27
2691.26
2691.26
2691.26
2691.26
2691.26
2691.27
2691.27
2691.28
2691.29
2691.29
2691.3
2691.31
2691.32
2691.32
2691.33
2691.33
2691.34
2691.34
2593.25
2593.24
2593.24
2593.23
2593.23
2593.22
2593.21
2593.2
2593.19
2593.18
2593.18
2593.17
2593.16
2593.16
2593.16
2593.16
2593.16
2593.17
2593.17
2593.18
2593.19
2593.2
2593.21
2593.22
2593.23
2593.23
2593.24
2593.25
2593.25
2593.25
2495.16
2495.16
2495.16
2495.15
2495.14
2495.13
2495.12
2495.11
2495.1
2495.09
2495.08
2495.07
2495.06
2495.06
2495.06
2495.06
2495.06
2495.07
2495.07
2495.08
2495.09
2495.1
2495.11
2495.12
2495.14
2495.15
2495.16
2495.16
2495.17
2495.17
2397.09
2397.08
2397.08
2397.07
2397.06
2397.05
2397.03
2397.02
2397.01
2396.99
2396.98
2396.97
2396.96
2396.96
2396.96
2396.96
2396.96
2396.96
2396.97
2396.98
2396.99
2397.01
2397.02
2397.04
2397.05
2397.06
2397.08
2397.09
2397.09
2397.09
2299.02
2299.01
2299.01
2299
2298.98
2298.97
2298.95
2298.93
2298.92
2298.9
2298.88
2298.87
2298.86
2298.86
2298.85
2298.85
2298.86
2298.86
2298.87
2298.88
2298.9
2298.92
2298.93
2298.95
2298.97
2298.99
2299
2299.01
2299.02
2299.02
2200.96
2200.95
2200.94
2200.93
2200.91
2200.89
2200.87
2200.85
2200.83
2200.81
2200.79
2200.77
2200.76
2200.75
2200.75
2200.75
2200.75
2200.76
2200.77
2200.79
2200.81
2200.83
2200.85
2200.87
2200.89
2200.91
2200.93
2200.95
2200.96
2200.96
2102.91
2102.9
2102.89
2102.87
2102.85
2102.83
2102.8
2102.77
2102.74
2102.72
2102.69
2102.67
2102.66
2102.64
2102.64
2102.64
2102.65
2102.66
2102.67
2102.69
2102.72
2102.74
2102.77
2102.8
2102.83
2102.85
2102.87
2102.89
2102.9
2102.91
2004.87
2004.86
2004.85
2004.83
2004.8
2004.77
2004.73
2004.7
2004.66
2004.63
2004.6
2004.57
2004.55
2004.54
2004.53
2004.53
2004.54
2004.55
2004.57
2004.6
2004.63
2004.66
2004.7
2004.73
2004.77
2004.8
2004.83
2004.85
2004.86
2004.87
1906.85
1906.84
1906.82
1906.79
1906.76
1906.72
1906.68
1906.63
1906.58
1906.54
1906.5
1906.47
1906.45
1906.43
1906.42
1906.42
1906.43
1906.45
1906.47
1906.5
1906.54
1906.58
1906.63
1906.67
1906.72
1906.76
1906.79
1906.82
1906.83
1906.84
1808.85
1808.83
1808.81
1808.77
1808.73
1808.68
1808.63
1808.57
1808.51
1808.46
1808.41
1808.37
1808.34
1808.31
1808.3
1808.3
1808.31
1808.34
1808.37
1808.41
1808.46
1808.51
1808.57
1808.63
1808.68
1808.73
1808.77
1808.8
1808.83
1808.84
1710.86
1710.85
1710.82
1710.77
1710.72
1710.66
1710.59
1710.52
1710.44
1710.38
1710.32
1710.26
1710.22
1710.2
1710.18
1710.18
1710.2
1710.22
1710.27
1710.32
1710.38
1710.45
1710.52
1710.59
1710.66
1710.72
1710.77
1710.81
1710.84
1710.86
1612.91
1612.89
1612.85
1612.8
1612.73
1612.65
1612.56
1612.47
1612.38
1612.3
1612.22
1612.16
1612.1
1612.07
1612.05
1612.05
1612.07
1612.1
1612.16
1612.22
1612.3
1612.39
1612.48
1612.57
1612.65
1612.73
1612.8
1612.85
1612.89
1612.91
1515
1514.98
1514.93
1514.86
1514.77
1514.67
1514.56
1514.45
1514.33
1514.22
1514.13
1514.04
1513.98
1513.93
1513.91
1513.91
1513.93
1513.98
1514.04
1514.13
1514.23
1514.34
1514.45
1514.56
1514.67
1514.77
1514.86
1514.93
1514.98
1515
1417.14
1417.11
1417.05
1416.96
1416.85
1416.72
1416.58
1416.44
1416.29
1416.15
1416.03
1415.92
1415.84
1415.78
1415.75
1415.75
1415.78
1415.84
1415.92
1416.03
1416.15
1416.29
1416.44
1416.58
1416.72
1416.85
1416.96
1417.05
1417.12
1417.15
1319.35
1319.31
1319.23
1319.12
1318.98
1318.81
1318.63
1318.44
1318.26
1318.08
1317.92
1317.79
1317.68
1317.61
1317.57
1317.57
1317.61
1317.68
1317.79
1317.92
1318.08
1318.26
1318.44
1318.63
1318.81
1318.98
1319.12
1319.24
1319.32
1319.36
1221.64
1221.59
1221.49
1221.34
1221.16
1220.95
1220.72
1220.48
1220.24
1220.02
1219.81
1219.64
1219.51
1219.42
1219.37
1219.37
1219.42
1219.51
1219.64
1219.81
1220.01
1220.24
1220.47
1220.71
1220.94
1221.16
1221.34
1221.49
1221.59
1221.65
1124.04
1123.97
1123.84
1123.65
1123.42
1123.14
1122.85
1122.54
1122.24
1121.96
1121.7
1121.48
1121.31
1121.19
1121.13
1121.13
1121.19
1121.31
1121.48
1121.7
1121.95
1122.24
1122.54
1122.84
1123.14
1123.41
1123.65
1123.84
1123.97
1124.04
1026.56
1026.48
1026.31
1026.07
1025.77
1025.42
1025.04
1024.65
1024.26
1023.9
1023.57
1023.3
1023.08
1022.93
1022.86
1022.86
1022.93
1023.08
1023.3
1023.57
1023.9
1024.26
1024.64
1025.03
1025.41
1025.76
1026.07
1026.31
1026.48
1026.56
929.262
929.152
928.935
928.625
928.236
927.789
927.304
926.804
926.313
925.85
925.436
925.085
924.812
924.624
924.529
924.529
924.624
924.812
925.085
925.436
925.849
926.311
926.802
927.301
927.785
928.233
928.623
928.933
929.149
929.259
832.18
832.038
831.76
831.361
830.862
830.288
829.667
829.029
828.402
827.813
827.285
826.84
826.493
826.255
826.134
826.134
826.255
826.493
826.84
827.286
827.812
828.401
829.027
829.665
830.285
830.859
831.358
831.757
832.034
832.176
735.38
735.198
734.84
734.327
733.686
732.95
732.155
731.339
730.539
729.789
729.119
728.553
728.112
727.811
727.657
727.658
727.811
728.112
728.553
729.118
729.788
730.538
731.337
732.153
732.947
733.683
734.323
734.836
735.194
735.377
638.944
638.709
638.247
637.586
636.762
635.817
634.8
633.758
632.738
631.783
630.931
630.214
629.655
629.273
629.079
629.079
629.273
629.655
630.214
630.931
631.783
632.737
633.757
634.799
635.816
636.76
637.583
638.243
638.704
638.94
542.98
542.674
542.076
541.223
540.163
538.952
537.65
536.319
535.019
533.806
532.724
531.815
531.108
530.625
530.38
530.38
530.625
531.108
531.815
532.724
533.805
535.02
536.319
537.65
538.951
540.162
541.221
542.072
542.67
542.974
447.627
447.229
446.452
445.349
443.984
442.431
440.766
439.068
437.414
435.873
434.503
433.352
432.46
431.85
431.54
431.54
431.849
432.459
433.352
434.502
435.873
437.414
439.068
440.765
442.43
443.982
445.346
446.449
447.225
447.623
353.069
352.544
351.527
350.088
348.322
346.33
344.2
342.037
339.936
337.984
336.251
334.798
333.671
332.9
332.507
332.507
332.9
333.67
334.798
336.25
337.983
339.936
342.037
344.199
346.329
348.321
350.085
351.523
352.541
353.067
259.566
258.866
257.514
255.624
253.334
250.782
248.067
245.315
242.656
240.184
237.995
236.158
234.727
233.746
233.245
233.245
233.745
234.726
236.157
237.994
240.184
242.655
245.314
248.065
250.781
253.333
255.622
257.512
258.863
259.561
167.563
166.594
164.759
162.237
159.234
155.976
152.515
149.007
145.692
142.581
139.853
137.572
135.789
134.56
133.93
133.93
134.56
135.789
137.571
139.852
142.58
145.691
149.007
152.515
155.975
159.233
162.235
164.757
166.59
167.557
80.5379
79.1666
76.7288
73.6313
70.1165
66.6128
62.8801
59.1921
55.9769
52.8951
50.3608
48.2925
46.6943
45.6093
45.0619
45.0617
45.6089
46.6935
48.2914
50.3596
52.8941
55.9758
59.1903
62.8786
66.6109
70.1139
73.6303
76.726
79.1627
80.5358
19.473
18.469
16.6913
14.6078
12.2811
10.2797
8.21805
6.3658
5.02948
3.5844
2.57214
1.76016
1.15281
0.761708
0.565889
0.565572
0.761419
1.15209
1.75897
2.57096
3.58347
5.02757
6.36376
8.21706
10.2774
12.2775
14.6077
16.6889
18.4662
19.4764
-4.25113
-4.34907
-4.52693
-4.75616
-4.96366
-5.03063
-5.04947
-5.05065
-5.05185
-5.04696
-5.04041
-5.03531
-5.0329
-5.03191
-5.03072
-5.0308
-5.03216
-5.0333
-5.03586
-5.04113
-5.0478
-5.05279
-5.05167
-5.05052
-5.03166
-4.96526
-4.757
-4.52806
-4.35005
-4.25224
-5.18806
-5.18807
-5.18702
-5.17852
-5.15955
-5.15291
-5.15488
-5.15119
-5.14726
-5.14305
-5.13713
-5.13194
-5.12943
-5.12739
-5.12644
-5.12653
-5.12764
-5.12985
-5.13251
-5.13784
-5.1439
-5.14821
-5.15224
-5.15599
-5.15401
-5.16063
-5.17973
-5.18825
-5.18935
-5.18916
-5.28431
-5.283
-5.28043
-5.27509
-5.26925
-5.26382
-5.2595
-5.25662
-5.2527
-5.24767
-5.24421
-5.24012
-5.23588
-5.2325
-5.23147
-5.23155
-5.23276
-5.23631
-5.24071
-5.24493
-5.24854
-5.25364
-5.2576
-5.26061
-5.26501
-5.27031
-5.27625
-5.28173
-5.28399
-5.28506
-5.38172
-5.38008
-5.37631
-5.37126
-5.36583
-5.36088
-5.35695
-5.3539
-5.35024
-5.34621
-5.34249
-5.33902
-5.33579
-5.33372
-5.33246
-5.33254
-5.33398
-5.33621
-5.3396
-5.34319
-5.34701
-5.35115
-5.35486
-5.358
-5.36204
-5.367
-5.37246
-5.3777
-5.38154
-5.3831
-5.47306
-5.4719
-5.46862
-5.46454
-5.46029
-5.4564
-5.45296
-5.44984
-5.44661
-5.44347
-5.44073
-5.43828
-5.43627
-5.43463
-5.43369
-5.43379
-5.43491
-5.43671
-5.43888
-5.44146
-5.44429
-5.44751
-5.4508
-5.454
-5.45751
-5.46149
-5.46571
-5.46976
-5.47326
-5.47439
-5.56427
-5.56346
-5.56109
-5.5581
-5.55494
-5.55189
-5.54908
-5.54637
-5.54369
-5.54113
-5.53888
-5.53707
-5.53578
-5.53484
-5.53437
-5.53447
-5.53512
-5.53623
-5.53768
-5.5396
-5.54191
-5.54453
-5.54727
-5.55005
-5.55291
-5.55604
-5.55935
-5.56238
-5.56476
-5.5656
-5.657
-5.65633
-5.65475
-5.65262
-5.65033
-5.64798
-5.64567
-5.64344
-5.64125
-5.63918
-5.63734
-5.63585
-5.63479
-5.63413
-5.63385
-5.63395
-5.63441
-5.63524
-5.63645
-5.63806
-5.63997
-5.64208
-5.64433
-5.64663
-5.64901
-5.65143
-5.65386
-5.65608
-5.65766
-5.65836
-5.75119
-5.75061
-5.74956
-5.74809
-5.74641
-5.74461
-5.7428
-5.74099
-5.73923
-5.73758
-5.73611
-5.73488
-5.73395
-5.73337
-5.73312
-5.73322
-5.73366
-5.73441
-5.73546
-5.73678
-5.7383
-5.73997
-5.74178
-5.74367
-5.74557
-5.74746
-5.74927
-5.75083
-5.75197
-5.75254
-5.84647
-5.84607
-5.84536
-5.84433
-5.84308
-5.84171
-5.84028
-5.83885
-5.83746
-5.83616
-5.835
-5.83402
-5.83327
-5.83279
-5.8326
-5.83269
-5.83305
-5.83369
-5.83457
-5.83564
-5.83685
-5.83815
-5.83956
-5.84104
-5.84256
-5.84405
-5.84543
-5.84657
-5.8474
-5.84784
-5.94265
-5.94235
-5.94181
-5.94104
-5.94012
-5.9391
-5.93801
-5.9369
-5.93581
-5.9348
-5.93388
-5.93312
-5.93253
-5.93217
-5.93202
-5.93211
-5.93241
-5.93291
-5.93359
-5.93443
-5.9354
-5.93647
-5.93761
-5.9388
-5.93999
-5.94114
-5.94218
-5.94302
-5.94362
-5.94394
-6.03931
-6.03912
-6.03873
-6.03821
-6.03758
-6.03684
-6.03602
-6.03515
-6.03429
-6.03348
-6.03275
-6.03214
-6.03169
-6.03141
-6.03131
-6.03139
-6.03163
-6.03202
-6.03257
-6.03326
-6.03407
-6.03496
-6.03589
-6.03682
-6.03772
-6.03856
-6.03932
-6.03994
-6.04039
-6.04062
-6.13651
-6.13635
-6.13611
-6.13579
-6.13533
-6.13478
-6.13414
-6.13346
-6.13278
-6.13213
-6.13156
-6.1311
-6.13077
-6.13058
-6.13053
-6.13061
-6.13081
-6.13113
-6.13157
-6.13213
-6.13278
-6.13347
-6.13418
-6.13488
-6.13555
-6.13619
-6.13675
-6.13723
-6.13757
-6.13774
-6.234
-6.23388
-6.23376
-6.23353
-6.2332
-6.23278
-6.2323
-6.23177
-6.23125
-6.23075
-6.23032
-6.22998
-6.22976
-6.22964
-6.22962
-6.2297
-6.22986
-6.2301
-6.23042
-6.23083
-6.23132
-6.23185
-6.2324
-6.23296
-6.2335
-6.23401
-6.23445
-6.23482
-6.23506
-6.23519
-6.33168
-6.33164
-6.33156
-6.33138
-6.33113
-6.33081
-6.33044
-6.33004
-6.32963
-6.32926
-6.32895
-6.32872
-6.32856
-6.32849
-6.32848
-6.32854
-6.32866
-6.32883
-6.32907
-6.32937
-6.32975
-6.33019
-6.33066
-6.33113
-6.33159
-6.33199
-6.33234
-6.3326
-6.33277
-6.33286
-6.42963
-6.42962
-6.42952
-6.42937
-6.42916
-6.42889
-6.42858
-6.42824
-6.42792
-6.42764
-6.42743
-6.42729
-6.42721
-6.42717
-6.42717
-6.4272
-6.42728
-6.42742
-6.42761
-6.42786
-6.42818
-6.42856
-6.42896
-6.42936
-6.42973
-6.43005
-6.43031
-6.4305
-6.43062
-6.43068
-6.52773
-6.52771
-6.52762
-6.52748
-6.52729
-6.52704
-6.52675
-6.52647
-6.52621
-6.526
-6.52587
-6.5258
-6.52577
-6.52576
-6.52577
-6.5258
-6.52586
-6.52595
-6.52611
-6.52632
-6.52659
-6.5269
-6.52723
-6.52755
-6.52785
-6.5281
-6.52831
-6.52846
-6.52855
-6.5286
-6.62581
-6.62578
-6.62572
-6.6256
-6.62542
-6.62521
-6.62497
-6.62474
-6.62456
-6.62442
-6.62434
-6.6243
-6.62429
-6.62429
-6.62431
-6.62434
-6.62438
-6.62445
-6.62457
-6.62474
-6.62495
-6.62519
-6.62545
-6.6257
-6.62594
-6.62615
-6.62632
-6.62644
-6.62652
-6.62655
-6.72382
-6.72382
-6.72376
-6.72365
-6.7235
-6.72333
-6.72316
-6.72302
-6.72291
-6.72283
-6.72278
-6.72275
-6.72274
-6.72273
-6.72274
-6.72277
-6.72281
-6.72288
-6.72298
-6.7231
-6.72326
-6.72344
-6.72363
-6.72383
-6.72402
-6.72418
-6.72431
-6.72441
-6.72446
-6.72448
-6.82182
-6.82182
-6.82176
-6.82165
-6.82153
-6.82141
-6.82132
-6.82125
-6.8212
-6.82117
-6.82114
-6.82111
-6.82109
-6.82107
-6.82108
-6.82111
-6.82116
-6.82122
-6.82131
-6.82142
-6.82153
-6.82166
-6.8218
-6.82193
-6.82206
-6.82218
-6.82227
-6.82233
-6.82236
-6.82237
-6.9198
-6.91979
-6.91972
-6.91964
-6.91957
-6.91951
-6.91947
-6.91945
-6.91943
-6.91942
-6.9194
-6.91937
-6.91935
-6.91934
-6.91935
-6.91938
-6.91943
-6.9195
-6.91959
-6.91967
-6.91976
-6.91984
-6.91992
-6.92
-6.92007
-6.92014
-6.92019
-6.92022
-6.92024
-6.92024
-7.01772
-7.0177
-7.01766
-7.01763
-7.01761
-7.01761
-7.01761
-7.01761
-7.01761
-7.0176
-7.01758
-7.01756
-7.01755
-7.01755
-7.01757
-7.01761
-7.01766
-7.01772
-7.01779
-7.01786
-7.01791
-7.01796
-7.018
-7.01803
-7.01805
-7.01808
-7.01809
-7.01811
-7.01811
-7.01812
-7.11559
-7.11556
-7.11557
-7.11559
-7.11563
-7.11567
-7.1157
-7.11572
-7.11572
-7.11572
-7.11571
-7.1157
-7.11569
-7.11571
-7.11573
-7.11577
-7.11582
-7.11587
-7.11592
-7.11596
-7.116
-7.11601
-7.11602
-7.11602
-7.11602
-7.11601
-7.11601
-7.11601
-7.11601
-7.11601
-7.21344
-7.21343
-7.21347
-7.21353
-7.2136
-7.21366
-7.21371
-7.21375
-7.21377
-7.21377
-7.21377
-7.21377
-7.21378
-7.2138
-7.21382
-7.21386
-7.2139
-7.21393
-7.21397
-7.21399
-7.214
-7.214
-7.214
-7.21398
-7.21396
-7.21395
-7.21394
-7.21393
-7.21393
-7.21393
-7.31135
-7.31135
-7.3114
-7.31147
-7.31154
-7.31161
-7.31167
-7.31171
-7.31175
-7.31177
-7.31179
-7.3118
-7.31182
-7.31184
-7.31186
-7.31188
-7.31191
-7.31193
-7.31194
-7.31195
-7.31195
-7.31194
-7.31193
-7.31192
-7.3119
-7.31188
-7.31187
-7.31186
-7.31186
-7.31187
-7.40932
-7.40933
-7.40937
-7.40943
-7.40948
-7.40954
-7.4096
-7.40965
-7.40969
-7.40973
-7.40977
-7.40979
-7.40982
-7.40984
-7.40985
-7.40987
-7.40987
-7.40988
-7.40988
-7.40988
-7.40987
-7.40986
-7.40985
-7.40984
-7.40983
-7.40981
-7.40981
-7.4098
-7.4098
-7.4098
-7.50734
-7.50735
-7.50738
-7.50741
-7.50745
-7.5075
-7.50754
-7.50759
-7.50764
-7.50769
-7.50773
-7.50776
-7.50779
-7.50781
-7.50782
-7.50783
-7.50783
-7.50782
-7.50781
-7.5078
-7.50779
-7.50778
-7.50777
-7.50776
-7.50775
-7.50775
-7.50774
-7.50774
-7.50774
-7.50774
-7.60537
-7.60539
-7.6054
-7.60542
-7.60544
-7.60547
-7.6055
-7.60554
-7.60559
-7.60563
-7.60568
-7.60571
-7.60574
-7.60576
-7.60577
-7.60578
-7.60577
-7.60576
-7.60574
-7.60573
-7.60572
-7.6057
-7.60569
-7.60569
-7.60568
-7.60568
-7.60568
-7.60568
-7.60568
-7.60568
-7.7034
-7.70341
-7.70341
-7.70342
-7.70343
-7.70345
-7.70347
-7.7035
-7.70354
-7.70357
-7.70361
-7.70364
-7.70367
-7.70369
-7.7037
-7.7037
-7.7037
-7.70369
-7.70368
-7.70366
-7.70365
-7.70364
-7.70363
-7.70362
-7.70362
-7.70362
-7.70362
-7.70362
-7.70362
-7.70362
-7.8014
-7.80141
-7.80141
-7.80141
-7.80141
-7.80142
-7.80143
-7.80145
-7.80148
-7.8015
-7.80153
-7.80155
-7.80158
-7.80159
-7.80161
-7.80161
-7.80161
-7.8016
-7.80159
-7.80158
-7.80157
-7.80157
-7.80156
-7.80156
-7.80155
-7.80155
-7.80155
-7.80155
-7.80155
-7.80155
-7.89938
-7.89938
-7.89938
-7.89938
-7.89938
-7.89938
-7.89938
-7.89939
-7.8994
-7.89942
-7.89943
-7.89945
-7.89946
-7.89948
-7.89949
-7.89949
-7.8995
-7.8995
-7.8995
-7.89949
-7.89949
-7.89948
-7.89948
-7.89948
-7.89948
-7.89948
-7.89948
-7.89948
-7.89948
-7.89948
-7.99733
-7.99733
-7.99733
-7.99733
-7.99732
-7.99732
-7.99732
-7.99732
-7.99732
-7.99732
-7.99733
-7.99734
-7.99734
-7.99735
-7.99736
-7.99737
-7.99738
-7.99738
-7.99738
-7.99739
-7.99739
-7.99739
-7.99739
-7.99739
-7.99739
-7.9974
-7.9974
-7.9974
-7.9974
-7.9974
-8.09528
-8.09528
-8.09527
-8.09527
-8.09526
-8.09525
-8.09525
-8.09524
-8.09523
-8.09523
-8.09523
-8.09523
-8.09523
-8.09524
-8.09524
-8.09525
-8.09526
-8.09526
-8.09527
-8.09528
-8.09528
-8.09529
-8.09529
-8.0953
-8.0953
-8.09531
-8.09531
-8.09531
-8.09531
-8.09531
-8.19322
-8.19322
-8.19321
-8.19321
-8.1932
-8.19319
-8.19318
-8.19317
-8.19316
-8.19315
-8.19314
-8.19314
-8.19314
-8.19314
-8.19314
-8.19314
-8.19315
-8.19316
-8.19316
-8.19317
-8.19318
-8.19319
-8.1932
-8.1932
-8.19321
-8.19321
-8.19322
-8.19322
-8.19322
-8.19323
-8.29117
-8.29117
-8.29116
-8.29115
-8.29115
-8.29114
-8.29112
-8.29111
-8.2911
-8.29109
-8.29108
-8.29107
-8.29107
-8.29106
-8.29106
-8.29106
-8.29107
-8.29107
-8.29108
-8.29109
-8.2911
-8.2911
-8.29111
-8.29112
-8.29112
-8.29113
-8.29114
-8.29114
-8.29114
-8.29114
-8.38913
-8.38913
-8.38912
-8.38912
-8.38911
-8.3891
-8.38908
-8.38907
-8.38906
-8.38905
-8.38904
-8.38903
-8.38902
-8.38901
-8.38901
-8.38901
-8.38901
-8.38901
-8.38902
-8.38902
-8.38903
-8.38904
-8.38904
-8.38905
-8.38905
-8.38906
-8.38907
-8.38907
-8.38907
-8.38908
-8.4871
-8.4871
-8.4871
-8.48709
-8.48708
-8.48707
-8.48706
-8.48705
-8.48704
-8.48703
-8.48701
-8.487
-8.48699
-8.48699
-8.48698
-8.48698
-8.48698
-8.48698
-8.48698
-8.48698
-8.48698
-8.48699
-8.48699
-8.487
-8.487
-8.48701
-8.48701
-8.48701
-8.48702
-8.48702
-8.58509
-8.58508
-8.58508
-8.58507
-8.58507
-8.58506
-8.58505
-8.58504
-8.58503
-8.58502
-8.58501
-8.585
-8.58499
-8.58498
-8.58497
-8.58497
-8.58496
-8.58496
-8.58496
-8.58496
-8.58496
-8.58496
-8.58496
-8.58496
-8.58497
-8.58497
-8.58497
-8.58497
-8.58498
-8.58498
-8.68308
-8.68308
-8.68307
-8.68307
-8.68306
-8.68305
-8.68305
-8.68304
-8.68303
-8.68302
-8.68301
-8.683
-8.68299
-8.68298
-8.68297
-8.68296
-8.68296
-8.68295
-8.68295
-8.68295
-8.68294
-8.68294
-8.68294
-8.68294
-8.68294
-8.68295
-8.68295
-8.68295
-8.68295
-8.68295
-8.78108
-8.78108
-8.78107
-8.78107
-8.78106
-8.78106
-8.78105
-8.78104
-8.78103
-8.78102
-8.78101
-8.78101
-8.781
-8.78099
-8.78098
-8.78097
-8.78096
-8.78096
-8.78095
-8.78095
-8.78094
-8.78094
-8.78094
-8.78094
-8.78093
-8.78093
-8.78093
-8.78094
-8.78094
-8.78094
-8.87908
-8.87908
-8.87907
-8.87907
-8.87907
-8.87906
-8.87905
-8.87905
-8.87904
-8.87903
-8.87902
-8.87901
-8.87901
-8.879
-8.87899
-8.87898
-8.87897
-8.87896
-8.87896
-8.87895
-8.87895
-8.87894
-8.87894
-8.87894
-8.87893
-8.87893
-8.87893
-8.87893
-8.87893
-8.87893
-8.97708
-8.97708
-8.97708
-8.97707
-8.97707
-8.97707
-8.97706
-8.97705
-8.97705
-8.97704
-8.97703
-8.97702
-8.97701
-8.97701
-8.977
-8.97699
-8.97698
-8.97697
-8.97697
-8.97696
-8.97695
-8.97695
-8.97694
-8.97694
-8.97694
-8.97693
-8.97693
-8.97693
-8.97693
-8.97693
-9.07508
-9.07508
-9.07508
-9.07508
-9.07507
-9.07507
-9.07506
-9.07506
-9.07505
-9.07504
-9.07504
-9.07503
-9.07502
-9.07501
-9.075
-9.075
-9.07499
-9.07498
-9.07497
-9.07497
-9.07496
-9.07496
-9.07495
-9.07495
-9.07494
-9.07494
-9.07494
-9.07494
-9.07494
-9.07494
-9.17308
-9.17308
-9.17308
-9.17307
-9.17307
-9.17307
-9.17306
-9.17306
-9.17305
-9.17305
-9.17304
-9.17303
-9.17303
-9.17302
-9.17301
-9.173
-9.17299
-9.17299
-9.17298
-9.17297
-9.17297
-9.17296
-9.17296
-9.17296
-9.17295
-9.17295
-9.17295
-9.17295
-9.17295
-9.17295
-9.27107
-9.27107
-9.27107
-9.27107
-9.27107
-9.27107
-9.27106
-9.27106
-9.27105
-9.27105
-9.27104
-9.27103
-9.27103
-9.27102
-9.27101
-9.27101
-9.271
-9.27099
-9.27099
-9.27098
-9.27098
-9.27097
-9.27097
-9.27096
-9.27096
-9.27096
-9.27096
-9.27096
-9.27096
-9.27096
-9.36907
-9.36906
-9.36906
-9.36906
-9.36906
-9.36906
-9.36906
-9.36905
-9.36905
-9.36904
-9.36904
-9.36903
-9.36903
-9.36902
-9.36902
-9.36901
-9.369
-9.369
-9.36899
-9.36899
-9.36898
-9.36898
-9.36898
-9.36897
-9.36897
-9.36897
-9.36897
-9.36897
-9.36896
-9.36896
-9.46705
-9.46705
-9.46705
-9.46705
-9.46705
-9.46705
-9.46705
-9.46705
-9.46704
-9.46704
-9.46703
-9.46703
-9.46702
-9.46702
-9.46701
-9.46701
-9.46701
-9.467
-9.467
-9.46699
-9.46699
-9.46699
-9.46698
-9.46698
-9.46698
-9.46698
-9.46697
-9.46697
-9.46697
-9.46697
-9.56504
-9.56504
-9.56504
-9.56504
-9.56504
-9.56504
-9.56504
-9.56503
-9.56503
-9.56503
-9.56503
-9.56502
-9.56502
-9.56502
-9.56501
-9.56501
-9.565
-9.565
-9.565
-9.565
-9.56499
-9.56499
-9.56499
-9.56499
-9.56499
-9.56498
-9.56498
-9.56498
-9.56498
-9.56498
-9.66303
-9.66302
-9.66302
-9.66302
-9.66302
-9.66302
-9.66302
-9.66302
-9.66302
-9.66302
-9.66302
-9.66301
-9.66301
-9.66301
-9.66301
-9.663
-9.663
-9.663
-9.663
-9.663
-9.663
-9.66299
-9.66299
-9.66299
-9.66299
-9.66299
-9.66299
-9.66299
-9.66299
-9.66299
-9.76101
-9.76101
-9.76101
-9.76101
-9.76101
-9.76101
-9.76101
-9.76101
-9.76101
-9.76101
-9.761
-9.761
-9.761
-9.761
-9.761
-9.761
-9.761
-9.761
-9.761
-9.761
-9.761
-9.761
-9.761
-9.761
-9.761
-9.761
-9.761
-9.761
-9.76099
-9.76099
4849.49
4849.49
4849.49
4849.49
4849.49
4849.49
4849.49
4849.49
4849.49
4849.49
4849.49
4849.49
4849.49
4849.49
4849.49
4849.49
4849.49
4849.49
4849.49
4849.49
4849.49
4849.49
4849.49
4849.49
4849.49
4849.49
4849.49
4849.49
4849.49
4849.5
4751.39
4751.39
4751.39
4751.39
4751.39
4751.39
4751.39
4751.39
4751.39
4751.39
4751.39
4751.39
4751.39
4751.39
4751.39
4751.39
4751.39
4751.39
4751.39
4751.39
4751.39
4751.39
4751.39
4751.39
4751.39
4751.39
4751.39
4751.39
4751.39
4751.39
4653.29
4653.29
4653.29
4653.29
4653.29
4653.29
4653.29
4653.29
4653.29
4653.29
4653.29
4653.29
4653.29
4653.29
4653.28
4653.28
4653.28
4653.28
4653.28
4653.28
4653.29
4653.29
4653.29
4653.29
4653.29
4653.28
4653.28
4653.28
4653.28
4653.28
4555.19
4555.19
4555.19
4555.19
4555.19
4555.19
4555.19
4555.19
4555.19
4555.19
4555.18
4555.18
4555.18
4555.18
4555.18
4555.18
4555.18
4555.18
4555.18
4555.18
4555.19
4555.19
4555.19
4555.18
4555.18
4555.18
4555.18
4555.18
4555.18
4555.18
4457.09
4457.09
4457.09
4457.09
4457.09
4457.08
4457.08
4457.08
4457.08
4457.08
4457.08
4457.08
4457.08
4457.08
4457.08
4457.08
4457.08
4457.08
4457.08
4457.09
4457.09
4457.09
4457.08
4457.08
4457.08
4457.08
4457.08
4457.08
4457.08
4457.08
4358.99
4358.99
4358.99
4358.99
4358.98
4358.98
4358.98
4358.98
4358.98
4358.98
4358.98
4358.98
4358.98
4358.98
4358.98
4358.98
4358.98
4358.98
4358.99
4358.99
4358.99
4358.98
4358.98
4358.98
4358.98
4358.98
4358.98
4358.98
4358.98
4358.98
4260.89
4260.89
4260.89
4260.88
4260.88
4260.88
4260.88
4260.88
4260.88
4260.88
4260.88
4260.88
4260.88
4260.88
4260.88
4260.88
4260.88
4260.88
4260.88
4260.88
4260.88
4260.88
4260.88
4260.88
4260.88
4260.88
4260.89
4260.89
4260.89
4260.89
4162.78
4162.78
4162.78
4162.78
4162.78
4162.78
4162.78
4162.78
4162.78
4162.78
4162.78
4162.78
4162.78
4162.78
4162.78
4162.78
4162.78
4162.78
4162.78
4162.78
4162.78
4162.78
4162.78
4162.78
4162.78
4162.79
4162.79
4162.79
4162.79
4162.79
4064.68
4064.68
4064.68
4064.68
4064.68
4064.68
4064.68
4064.68
4064.68
4064.68
4064.68
4064.68
4064.68
4064.68
4064.68
4064.68
4064.68
4064.68
4064.68
4064.68
4064.68
4064.68
4064.68
4064.68
4064.68
4064.69
4064.69
4064.69
4064.69
4064.69
3966.58
3966.58
3966.58
3966.58
3966.58
3966.58
3966.58
3966.58
3966.58
3966.58
3966.58
3966.58
3966.58
3966.58
3966.58
3966.58
3966.58
3966.58
3966.58
3966.58
3966.58
3966.58
3966.58
3966.58
3966.59
3966.59
3966.59
3966.59
3966.59
3966.59
3868.48
3868.48
3868.48
3868.48
3868.48
3868.48
3868.48
3868.48
3868.48
3868.48
3868.48
3868.47
3868.47
3868.47
3868.47
3868.47
3868.47
3868.47
3868.48
3868.48
3868.48
3868.48
3868.48
3868.48
3868.48
3868.49
3868.49
3868.49
3868.49
3868.49
3770.38
3770.38
3770.38
3770.37
3770.37
3770.37
3770.37
3770.38
3770.38
3770.38
3770.38
3770.37
3770.37
3770.37
3770.37
3770.37
3770.37
3770.38
3770.38
3770.38
3770.38
3770.38
3770.38
3770.38
3770.38
3770.38
3770.38
3770.38
3770.38
3770.38
3672.27
3672.27
3672.27
3672.27
3672.27
3672.27
3672.27
3672.28
3672.28
3672.28
3672.28
3672.28
3672.27
3672.27
3672.27
3672.27
3672.28
3672.28
3672.28
3672.28
3672.28
3672.28
3672.28
3672.28
3672.28
3672.28
3672.28
3672.28
3672.28
3672.28
3574.17
3574.17
3574.17
3574.17
3574.17
3574.17
3574.18
3574.18
3574.18
3574.18
3574.18
3574.18
3574.18
3574.18
3574.18
3574.18
3574.18
3574.18
3574.18
3574.18
3574.18
3574.18
3574.18
3574.18
3574.18
3574.18
3574.18
3574.18
3574.18
3574.18
3476.07
3476.07
3476.07
3476.07
3476.08
3476.08
3476.08
3476.08
3476.08
3476.08
3476.08
3476.08
3476.08
3476.08
3476.08
3476.08
3476.07
3476.07
3476.07
3476.08
3476.08
3476.08
3476.08
3476.08
3476.08
3476.08
3476.08
3476.08
3476.08
3476.08
3377.98
3377.98
3377.98
3377.98
3377.98
3377.98
3377.98
3377.98
3377.98
3377.98
3377.98
3377.97
3377.97
3377.97
3377.97
3377.97
3377.97
3377.97
3377.97
3377.97
3377.97
3377.98
3377.98
3377.98
3377.98
3377.98
3377.98
3377.99
3377.99
3377.99
3279.88
3279.89
3279.89
3279.88
3279.88
3279.88
3279.88
3279.88
3279.88
3279.88
3279.87
3279.87
3279.87
3279.87