/*--------------------------------*- C++ -*----------------------------------*\
| =========                 |                                                 |
| \\      /  F ield         | OpenFOAM: The Open Source CFD Toolbox           |
|  \\    /   O peration     | Version:  2312                                  |
|   \\  /    A nd           | Website:  www.openfoam.com                      |
|    \\/     M anipulation  |                                                 |
\*---------------------------------------------------------------------------*/
FoamFile
{
    version     2.0;
    format      ascii;
    arch        "LSB;label=32;scalar=64";
    class       volScalarField;
    location    "0.748016";
    object      p_rgh;
}
// * * * * * * * * * * * * * * * * * * * * * * * * * * * * * * * * * * * * * //

dimensions      [1 -1 -2 0 0 0 0];

internalField   nonuniform List<scalar> 
90000
(
4898.54
4898.54
4898.54
4898.54
4898.54
4898.54
4898.54
4898.54
4898.54
4898.54
4898.54
4898.54
4898.54
4898.54
4898.54
4898.54
4898.54
4898.54
4898.54
4898.54
4898.54
4898.54
4898.54
4898.54
4898.54
4898.54
4898.54
4898.54
4898.54
4898.54
4898.54
4898.54
4898.54
4898.54
4898.54
4898.54
4898.54
4898.54
4898.54
4898.54
4898.54
4898.54
4898.54
4898.54
4898.54
4898.54
4898.54
4898.54
4898.54
4898.54
4898.54
4898.54
4898.54
4898.54
4898.54
4898.54
4898.55
4898.55
4898.54
4898.51
4898.54
4898.54
4898.54
4898.54
4898.54
4898.54
4898.54
4898.54
4898.54
4898.54
4898.54
4898.54
4898.54
4898.54
4898.54
4898.54
4898.54
4898.54
4898.54
4898.54
4898.54
4898.54
4898.54
4898.54
4898.54
4898.54
4898.55
4898.56
4898.59
4898.54
4898.54
4898.54
4898.54
4898.54
4898.54
4898.54
4898.54
4898.54
4898.54
4898.54
4898.54
4898.54
4898.54
4898.54
4898.54
4898.53
4898.53
4898.53
4898.53
4898.53
4898.53
4898.53
4898.53
4898.54
4898.54
4898.54
4898.53
4898.52
4898.55
4898.53
4898.54
4898.54
4898.54
4898.54
4898.54
4898.54
4898.54
4898.54
4898.54
4898.54
4898.54
4898.54
4898.54
4898.53
4898.53
4898.53
4898.53
4898.53
4898.53
4898.53
4898.53
4898.53
4898.53
4898.53
4898.53
4898.53
4898.53
4898.52
4898.53
4898.52
4898.54
4898.54
4898.54
4898.54
4898.54
4898.54
4898.54
4898.54
4898.54
4898.54
4898.53
4898.53
4898.53
4898.53
4898.53
4898.53
4898.53
4898.53
4898.53
4898.53
4898.53
4898.53
4898.53
4898.53
4898.53
4898.52
4898.52
4898.51
4898.51
4898.51
4898.54
4898.54
4898.54
4898.54
4898.54
4898.53
4898.53
4898.53
4898.53
4898.53
4898.53
4898.53
4898.53
4898.53
4898.53
4898.53
4898.53
4898.53
4898.54
4898.54
4898.54
4898.54
4898.53
4898.53
4898.52
4898.52
4898.51
4898.51
4898.51
4898.51
4898.54
4898.54
4898.54
4898.54
4898.53
4898.53
4898.53
4898.53
4898.52
4898.52
4898.52
4898.52
4898.53
4898.53
4898.54
4898.54
4898.54
4898.55
4898.55
4898.55
4898.54
4898.54
4898.53
4898.53
4898.52
4898.52
4898.51
4898.51
4898.52
4898.53
4898.54
4898.55
4898.54
4898.54
4898.54
4898.53
4898.53
4898.53
4898.52
4898.52
4898.52
4898.52
4898.53
4898.54
4898.55
4898.55
4898.56
4898.56
4898.55
4898.55
4898.54
4898.54
4898.53
4898.53
4898.52
4898.52
4898.52
4898.53
4898.53
4898.54
4898.54
4898.56
4898.55
4898.55
4898.55
4898.54
4898.54
4898.53
4898.53
4898.52
4898.52
4898.53
4898.53
4898.54
4898.55
4898.55
4898.55
4898.55
4898.55
4898.54
4898.54
4898.53
4898.53
4898.53
4898.53
4898.53
4898.54
4898.54
4898.54
4898.54
4898.55
4898.57
4898.57
4898.57
4898.56
4898.56
4898.55
4898.54
4898.53
4898.52
4898.52
4898.52
4898.53
4898.53
4898.53
4898.53
4898.53
4898.53
4898.53
4898.53
4898.53
4898.53
4898.53
4898.54
4898.54
4898.54
4898.54
4898.54
4898.54
4898.53
4898.56
4898.58
4898.58
4898.57
4898.57
4898.56
4898.54
4898.53
4898.52
4898.51
4898.51
4898.51
4898.51
4898.51
4898.51
4898.5
4898.5
4898.5
4898.51
4898.52
4898.53
4898.53
4898.54
4898.55
4898.55
4898.55
4898.55
4898.55
4898.54
4898.54
4898.56
4898.57
4898.57
4898.56
4898.55
4898.54
4898.52
4898.51
4898.51
4898.5
4898.5
4898.5
4898.49
4898.48
4898.48
4898.48
4898.48
4898.49
4898.5
4898.52
4898.54
4898.55
4898.55
4898.56
4898.56
4898.55
4898.55
4898.54
4898.54
4898.54
4898.55
4898.53
4898.53
4898.52
4898.51
4898.5
4898.5
4898.5
4898.5
4898.5
4898.5
4898.5
4898.49
4898.48
4898.47
4898.47
4898.48
4898.5
4898.52
4898.53
4898.55
4898.55
4898.56
4898.55
4898.55
4898.54
4898.54
4898.54
4898.54
4898.53
4898.53
4898.48
4898.47
4898.47
4898.47
4898.47
4898.48
4898.5
4898.51
4898.52
4898.52
4898.51
4898.5
4898.49
4898.48
4898.49
4898.5
4898.51
4898.53
4898.54
4898.55
4898.55
4898.54
4898.54
4898.54
4898.53
4898.52
4898.52
4898.51
4898.51
4898.49
4898.43
4898.43
4898.44
4898.45
4898.47
4898.49
4898.51
4898.53
4898.54
4898.53
4898.52
4898.51
4898.5
4898.5
4898.5
4898.51
4898.52
4898.52
4898.53
4898.53
4898.53
4898.53
4898.53
4898.52
4898.52
4898.51
4898.51
4898.5
4898.5
4898.47
4898.4
4898.42
4898.43
4898.45
4898.48
4898.5
4898.52
4898.53
4898.54
4898.53
4898.52
4898.51
4898.5
4898.5
4898.5
4898.5
4898.5
4898.5
4898.5
4898.5
4898.51
4898.51
4898.52
4898.52
4898.51
4898.51
4898.5
4898.5
4898.52
4898.46
4898.41
4898.44
4898.45
4898.47
4898.49
4898.51
4898.52
4898.52
4898.52
4898.51
4898.51
4898.51
4898.51
4898.51
4898.5
4898.5
4898.49
4898.49
4898.49
4898.49
4898.5
4898.51
4898.51
4898.51
4898.5
4898.5
4898.5
4898.51
4898.52
4898.47
4898.45
4898.47
4898.48
4898.49
4898.51
4898.52
4898.52
4898.52
4898.52
4898.52
4898.52
4898.52
4898.52
4898.52
4898.51
4898.5
4898.49
4898.49
4898.5
4898.5
4898.51
4898.5
4898.5
4898.49
4898.49
4898.49
4898.49
4898.5
4898.5
4898.5
4898.49
4898.5
4898.51
4898.52
4898.53
4898.54
4898.54
4898.53
4898.54
4898.54
4898.54
4898.54
4898.54
4898.53
4898.51
4898.5
4898.5
4898.5
4898.5
4898.5
4898.5
4898.49
4898.49
4898.49
4898.5
4898.51
4898.51
4898.51
4898.51
4898.53
4898.54
4898.54
4898.56
4898.56
4898.57
4898.57
4898.56
4898.56
4898.55
4898.55
4898.54
4898.53
4898.52
4898.5
4898.49
4898.49
4898.49
4898.5
4898.5
4898.49
4898.49
4898.49
4898.5
4898.52
4898.54
4898.55
4898.55
4898.54
4898.55
4898.56
4898.58
4898.59
4898.59
4898.6
4898.6
4898.59
4898.57
4898.56
4898.55
4898.53
4898.52
4898.5
4898.49
4898.48
4898.49
4898.49
4898.5
4898.5
4898.5
4898.49
4898.5
4898.51
4898.54
4898.57
4898.58
4898.58
4898.57
4898.57
4898.58
4898.59
4898.61
4898.62
4898.62
4898.62
4898.6
4898.59
4898.57
4898.55
4898.53
4898.51
4898.49
4898.48
4898.48
4898.49
4898.51
4898.52
4898.52
4898.51
4898.51
4898.51
4898.54
4898.57
4898.59
4898.6
4898.59
4898.59
4898.59
4898.59
4898.59
4898.62
4898.63
4898.63
4898.63
4898.62
4898.6
4898.58
4898.57
4898.55
4898.53
4898.51
4898.49
4898.49
4898.5
4898.52
4898.53
4898.53
4898.52
4898.52
4898.52
4898.55
4898.58
4898.61
4898.62
4898.62
4898.61
4898.62
4898.63
4898.63
4898.65
4898.64
4898.65
4898.64
4898.63
4898.62
4898.6
4898.58
4898.57
4898.55
4898.52
4898.5
4898.49
4898.5
4898.5
4898.51
4898.51
4898.5
4898.5
4898.51
4898.53
4898.57
4898.6
4898.61
4898.62
4898.63
4898.64
4898.66
4898.68
4898.7
4898.71
4898.66
4898.66
4898.65
4898.63
4898.61
4898.59
4898.58
4898.56
4898.54
4898.51
4898.49
4898.49
4898.49
4898.5
4898.5
4898.49
4898.49
4898.5
4898.52
4898.56
4898.58
4898.59
4898.6
4898.61
4898.64
4898.67
4898.68
4898.71
4898.74
4898.7
4898.68
4898.67
4898.65
4898.63
4898.61
4898.59
4898.57
4898.55
4898.53
4898.51
4898.5
4898.5
4898.5
4898.51
4898.51
4898.5
4898.51
4898.53
4898.55
4898.57
4898.57
4898.57
4898.58
4898.61
4898.65
4898.67
4898.69
4898.72
4898.72
4898.68
4898.71
4898.67
4898.66
4898.64
4898.62
4898.6
4898.58
4898.56
4898.53
4898.52
4898.52
4898.52
4898.52
4898.51
4898.51
4898.51
4898.51
4898.53
4898.54
4898.53
4898.53
4898.54
4898.58
4898.61
4898.64
4898.67
4898.7
4898.7
4898.7
4898.73
4898.74
4898.71
4898.7
4898.68
4898.66
4898.63
4898.6
4898.57
4898.54
4898.53
4898.52
4898.52
4898.51
4898.49
4898.48
4898.48
4898.49
4898.49
4898.48
4898.48
4898.49
4898.53
4898.57
4898.6
4898.63
4898.68
4898.72
4898.72
4898.76
4898.8
4898.8
4898.79
4898.77
4898.75
4898.71
4898.66
4898.62
4898.58
4898.55
4898.54
4898.53
4898.51
4898.49
4898.47
4898.46
4898.47
4898.47
4898.47
4898.47
4898.49
4898.53
4898.55
4898.59
4898.63
4898.67
4898.73
4898.78
4898.8
4898.85
4898.84
4898.89
4898.88
4898.85
4898.81
4898.76
4898.71
4898.66
4898.62
4898.59
4898.57
4898.54
4898.51
4898.48
4898.46
4898.46
4898.46
4898.46
4898.47
4898.49
4898.53
4898.57
4898.58
4898.61
4898.68
4898.74
4898.78
4898.84
4898.89
4898.88
4898.89
4898.99
4898.98
4898.95
4898.91
4898.86
4898.8
4898.74
4898.68
4898.63
4898.58
4898.54
4898.5
4898.47
4898.45
4898.44
4898.44
4898.45
4898.47
4898.5
4898.53
4898.57
4898.59
4898.64
4898.74
4898.8
4898.82
4898.9
4898.95
4898.94
4898.98
4899.12
4899.12
4899.08
4899.04
4898.97
4898.89
4898.8
4898.72
4898.65
4898.59
4898.53
4898.49
4898.46
4898.45
4898.44
4898.43
4898.44
4898.48
4898.51
4898.53
4898.57
4898.64
4898.72
4898.82
4898.87
4898.92
4899.03
4899.07
4899.09
4899.12
4899.28
4899.29
4899.24
4899.17
4899.08
4898.98
4898.87
4898.78
4898.69
4898.62
4898.55
4898.5
4898.46
4898.43
4898.42
4898.42
4898.42
4898.46
4898.5
4898.52
4898.6
4898.73
4898.8
4898.88
4898.97
4899.07
4899.17
4899.23
4899.25
4899.28
4899.48
4899.48
4899.42
4899.33
4899.23
4899.11
4898.99
4898.87
4898.76
4898.66
4898.57
4898.49
4898.43
4898.38
4898.36
4898.38
4898.39
4898.42
4898.49
4898.56
4898.68
4898.82
4898.88
4898.98
4899.14
4899.26
4899.34
4899.4
4899.43
4899.48
4899.72
4899.72
4899.65
4899.55
4899.42
4899.28
4899.13
4898.98
4898.83
4898.69
4898.57
4898.47
4898.4
4898.35
4898.32
4898.35
4898.37
4898.4
4898.51
4898.63
4898.75
4898.89
4898.97
4899.16
4899.36
4899.44
4899.53
4899.62
4899.72
4899.74
4900.03
4900.03
4899.94
4899.81
4899.64
4899.47
4899.29
4899.1
4898.91
4898.74
4898.58
4898.44
4898.36
4898.3
4898.26
4898.28
4898.31
4898.35
4898.49
4898.63
4898.75
4898.92
4899.09
4899.34
4899.53
4899.62
4899.78
4899.95
4900.02
4900.05
4900.44
4900.41
4900.28
4900.12
4899.93
4899.73
4899.5
4899.24
4898.99
4898.76
4898.57
4898.4
4898.28
4898.21
4898.16
4898.16
4898.21
4898.29
4898.46
4898.62
4898.76
4899.02
4899.27
4899.52
4899.71
4899.9
4900.15
4900.32
4900.37
4900.46
4900.92
4900.86
4900.72
4900.54
4900.31
4900.03
4899.71
4899.39
4899.09
4898.81
4898.58
4898.36
4898.18
4898.08
4898.02
4898.01
4898.09
4898.19
4898.39
4898.58
4898.8
4899.14
4899.44
4899.7
4899.98
4900.3
4900.57
4900.7
4900.86
4900.98
4901.53
4901.48
4901.32
4901.07
4900.74
4900.38
4900
4899.62
4899.25
4898.87
4898.54
4898.26
4898.06
4897.93
4897.84
4897.82
4897.92
4898.05
4898.29
4898.53
4898.86
4899.27
4899.63
4899.99
4900.41
4900.79
4901.05
4901.3
4901.54
4901.59
4902.35
4902.27
4902.03
4901.7
4901.31
4900.87
4900.38
4899.86
4899.39
4898.92
4898.52
4898.15
4897.87
4897.71
4897.62
4897.61
4897.74
4897.89
4898.18
4898.49
4898.95
4899.43
4899.89
4900.4
4900.92
4901.32
4901.7
4902.09
4902.32
4902.36
4903.37
4903.23
4902.95
4902.55
4902.04
4901.45
4900.85
4900.19
4899.58
4898.96
4898.45
4898
4897.66
4897.44
4897.3
4897.27
4897.43
4897.64
4898.03
4898.44
4899.01
4899.6
4900.2
4900.86
4901.46
4901.98
4902.56
4902.94
4903.21
4903.34
4904.66
4904.5
4904.13
4903.61
4902.95
4902.2
4901.44
4900.62
4899.84
4899.04
4898.36
4897.83
4897.39
4897.09
4896.91
4896.92
4897.1
4897.39
4897.84
4898.39
4899.09
4899.83
4900.61
4901.42
4902.19
4902.94
4903.62
4904.14
4904.51
4904.66
4906.33
4906.09
4905.6
4904.97
4904.19
4903.17
4902.17
4901.11
4900.1
4899.14
4898.28
4897.6
4897.02
4896.66
4896.41
4896.46
4896.66
4897.05
4897.58
4898.3
4899.16
4900.08
4901.1
4902.16
4903.18
4904.16
4904.94
4905.69
4906.09
4906.34
4908.45
4908.17
4907.53
4906.65
4905.68
4904.46
4903.11
4901.78
4900.48
4899.27
4898.17
4897.29
4896.55
4896.08
4895.8
4895.87
4896.09
4896.56
4897.24
4898.17
4899.27
4900.47
4901.78
4903.12
4904.38
4905.61
4906.72
4907.55
4908.1
4908.42
4911.14
4910.86
4910.06
4908.84
4907.5
4906.01
4904.32
4902.62
4900.98
4899.42
4898.05
4896.9
4896
4895.4
4895.08
4895.09
4895.4
4896.01
4896.9
4898.07
4899.43
4900.97
4902.64
4904.34
4905.97
4907.53
4908.93
4909.95
4910.81
4911.17
4914.65
4914.17
4913.22
4911.74
4909.95
4907.98
4905.85
4903.67
4901.59
4899.63
4897.89
4896.44
4895.31
4894.54
4894.14
4894.14
4894.54
4895.3
4896.44
4897.9
4899.63
4901.59
4903.69
4905.82
4907.97
4909.97
4911.73
4913.15
4914.19
4914.71
4919.2
4918.48
4917.26
4915.37
4913.02
4910.49
4907.76
4904.96
4902.3
4899.79
4897.56
4895.68
4894.2
4893.19
4892.67
4892.67
4893.19
4894.19
4895.68
4897.57
4899.8
4902.3
4904.98
4907.72
4910.47
4913.05
4915.32
4917.21
4918.56
4919.26
4924.56
4923.43
4921.79
4919.32
4916.13
4912.78
4909.09
4905.21
4901.49
4897.82
4894.39
4891.41
4889.04
4887.34
4886.41
4886.42
4887.34
4889.02
4891.41
4894.39
4897.81
4901.48
4905.21
4909
4912.77
4916.17
4919.23
4921.78
4923.52
4924.53
4631.56
4633.56
4615.76
4580.09
4531.78
4472.36
4395.95
4314.49
4241.35
4156.36
4084.17
4020.26
3965.61
3925.36
3903.34
3903.36
3925.37
3965.64
4020.31
4084.2
4156.45
4241.44
4314.52
4396.14
4472.43
4531.83
4580.01
4616.01
4633.51
4631.01
2347.86
2263.56
2108.81
1938.93
1747.03
1555.43
1342.79
1154.35
1019.89
870.908
767.596
684.143
621.831
581.873
561.674
561.647
581.871
621.799
684.078
767.549
870.909
1019.79
1154.23
1342.8
1555.3
1746.91
1938.93
2108.67
2263.26
2348.35
93.4456
84.2961
65.6471
40.1333
8.83429
0.96824
0.322405
0.0546024
0.0729484
0.0621706
0.0663118
0.0864388
0.0813286
0.0784904
0.0757334
0.0756792
0.0783561
0.0810853
0.0858924
0.065459
0.0611396
0.071757
0.0534634
0.321328
0.967977
8.75764
40.2484
65.6338
84.3211
93.4971
1.41193
1.16182
0.669691
0.479432
1.78505
1.51763
0.789611
1.11869
1.1589
0.709703
1.30937
1.34659
1.00757
0.595193
0.690529
0.690619
0.595496
1.0066
1.34599
1.30875
0.711834
1.15728
1.1172
0.789852
1.52185
1.77794
0.474666
0.668451
1.16223
1.4125
1.20651
1.2594
0.848836
0.43553
0.244041
0.146016
0.142211
0.206771
0.288847
0.250435
0.188199
0.279499
0.271139
0.435676
0.345087
0.34509
0.435726
0.270949
0.279202
0.18727
0.249314
0.289541
0.20645
0.141796
0.145273
0.242606
0.43549
0.846658
1.26194
1.20826
0.156083
0.212953
0.115771
0.0502576
0.0147411
0.00235414
0.00661079
0.0157664
0.018519
0.0355411
0.0466457
0.0489165
0.0912621
0.0856101
0.0916209
0.0915759
0.0856085
0.0913139
0.0487799
0.0464128
0.0352082
0.018132
0.0152177
0.00580464
0.00131072
0.0135136
0.0492547
0.115012
0.213049
0.155056
-0.00306649
0.0106663
0.00147775
-0.00752477
-0.00969998
-0.00874152
-0.00583872
-0.0030755
-0.00011434
0.004659
0.0114625
0.0214082
0.0357115
0.0505944
0.0629433
0.0627941
0.0503164
0.0353821
0.0209405
0.0108092
0.00390613
-0.000968394
-0.00399005
-0.006834
-0.00985112
-0.0108788
-0.00866506
0.000476292
0.00957279
-0.00459596
-0.0177879
-0.0159962
-0.0152051
-0.0138945
-0.011533
-0.0088193
-0.00616973
-0.00357124
-0.000942206
0.00161186
0.00408388
0.00615125
0.00726486
0.00926554
0.0129707
0.0128599
0.00896013
0.00680974
0.00554618
0.00337216
0.000835428
-0.00177899
-0.00446922
-0.00714071
-0.00984293
-0.0126312
-0.0151331
-0.0164818
-0.0172322
-0.0191166
-0.0158249
-0.0149749
-0.0136577
-0.0117022
-0.00950519
-0.00719439
-0.00490632
-0.00267767
-0.00049175
0.00157704
0.00341562
0.00491421
0.00596585
0.00662905
0.00691742
0.00681989
0.00635032
0.00551435
0.0043158
0.00269729
0.00078397
-0.00132241
-0.00356641
-0.00586514
-0.00822146
-0.0106064
-0.0129434
-0.0149869
-0.0163081
-0.0171842
-0.0123041
-0.0117041
-0.0106777
-0.00923005
-0.00755164
-0.00576158
-0.00394703
-0.00214342
-0.000377704
0.00127178
0.00274249
0.00397084
0.00489834
0.00548282
0.0057322
0.00563084
0.00519502
0.00444424
0.00338719
0.00206847
0.000548664
-0.00111697
-0.00293378
-0.00481826
-0.00671895
-0.00860812
-0.0104026
-0.0119526
-0.0130667
-0.0136564
-0.00951616
-0.00911956
-0.00841106
-0.00738041
-0.00612678
-0.00475742
-0.00333411
-0.00190177
-0.000509804
0.000786039
0.00194938
0.00292541
0.00367587
0.00416327
0.00434938
0.00425779
0.00389825
0.00325544
0.00237711
0.00131019
9.89416e-05
-0.00120232
-0.0026083
-0.0040938
-0.00560965
-0.00710055
-0.00847479
-0.00961776
-0.0104474
-0.0108864
-0.00759671
-0.00730016
-0.00675958
-0.0059947
-0.0050738
-0.00405356
-0.00296497
-0.00185114
-0.000762779
0.000254242
0.00116577
0.00193213
0.00251659
0.00288492
0.00302641
0.0029398
0.00263792
0.00214052
0.00145874
0.000617413
-0.000353109
-0.00141924
-0.00256054
-0.00374499
-0.00493548
-0.00608728
-0.00712496
-0.00796864
-0.00857047
-0.00888942
-0.00616227
-0.00596999
-0.0055751
-0.00505928
-0.00442835
-0.00369065
-0.00286739
-0.00200179
-0.00114053
-0.000325747
0.000403457
0.00101097
0.00146239
0.00173915
0.00183802
0.00176222
0.00151987
0.00112615
0.0005798
-0.000113329
-0.000924051
-0.00181393
-0.00274294
-0.00366988
-0.00456585
-0.00541215
-0.00616936
-0.00678917
-0.00723598
-0.00747072
-0.0052623
-0.00509976
-0.00486331
-0.00453506
-0.00408404
-0.0035291
-0.0028917
-0.00221057
-0.00152733
-0.000882652
-0.000312841
0.000150104
0.000480274
0.000667636
0.000718545
0.000640422
0.000438479
0.000118234
-0.000322791
-0.000882366
-0.00152835
-0.0022221
-0.00293203
-0.00363315
-0.00430428
-0.00493569
-0.00550462
-0.00598119
-0.00631613
-0.00649246
-0.00464907
-0.0045297
-0.00440781
-0.00418441
-0.00385201
-0.00343145
-0.00294662
-0.00242389
-0.00189597
-0.00140035
-0.000971038
-0.000633806
-0.000405261
-0.000289268
-0.000274928
-0.000350724
-0.000510061
-0.00074905
-0.00107088
-0.00148064
-0.0019656
-0.00249812
-0.00305236
-0.00361114
-0.00415263
-0.00465772
-0.0051039
-0.00546507
-0.00571353
-0.0058382
-0.00422792
-0.00419352
-0.00410568
-0.00393064
-0.00367706
-0.00336081
-0.00299246
-0.00259033
-0.0021846
-0.00181086
-0.00149971
-0.00126629
-0.00111403
-0.00103954
-0.00103424
-0.00109041
-0.00120584
-0.00138007
-0.00161638
-0.00192358
-0.00230316
-0.00274068
-0.00320951
-0.00368337
-0.00413591
-0.00454323
-0.00488597
-0.00514982
-0.00532485
-0.00540941
-0.00407639
-0.00407143
-0.00397416
-0.00381727
-0.00360504
-0.00333821
-0.00302662
-0.00269246
-0.0023688
-0.00209033
-0.00187973
-0.00173871
-0.00165581
-0.00161821
-0.00161769
-0.00165362
-0.00173352
-0.00186617
-0.00205763
-0.00231296
-0.00263322
-0.00300735
-0.00340931
-0.00380868
-0.0041783
-0.00449749
-0.00475522
-0.00494697
-0.00507241
-0.00513449
-0.00408183
-0.00405621
-0.00396793
-0.00383018
-0.00363581
-0.00338755
-0.00310452
-0.0028158
-0.00255588
-0.00235296
-0.00221873
-0.00214591
-0.00211631
-0.00211194
-0.00212272
-0.00214985
-0.0022054
-0.00230489
-0.0024591
-0.00267129
-0.00293795
-0.00324747
-0.00357795
-0.00390292
-0.00419967
-0.00445274
-0.00465507
-0.0048056
-0.00490415
-0.004952
-0.00405687
-0.00403099
-0.00396909
-0.00385147
-0.00367474
-0.00345541
-0.00321834
-0.00299349
-0.00280656
-0.00267094
-0.00258745
-0.00254738
-0.00253701
-0.00254361
-0.00255971
-0.0025855
-0.00262939
-0.00270455
-0.0028224
-0.00298714
-0.00319516
-0.00343655
-0.00369552
-0.00395295
-0.00419134
-0.00439799
-0.0045652
-0.00468906
-0.00476734
-0.0048002
-0.00397009
-0.00396603
-0.00391291
-0.00380201
-0.00364905
-0.00347696
-0.00331
-0.00316851
-0.00306068
-0.00298449
-0.00293389
-0.00290273
-0.00288662
-0.00288386
-0.0028948
-0.00292065
-0.00296432
-0.00303106
-0.00312661
-0.0032538
-0.00341053
-0.00359061
-0.0037845
-0.00398024
-0.00416521
-0.00432819
-0.00446058
-0.00455639
-0.00461222
-0.00462887
-0.00386963
-0.00387316
-0.00380811
-0.00370121
-0.00357921
-0.00346285
-0.00336819
-0.00330016
-0.00325329
-0.00321848
-0.00318829
-0.00315997
-0.00313632
-0.00312392
-0.00312951
-0.00315676
-0.00320584
-0.003275
-0.00336243
-0.00346641
-0.0035845
-0.00371337
-0.00384861
-0.00398425
-0.00411277
-0.00422616
-0.00431733
-0.00438115
-0.00441498
-0.00442037
-0.00375075
-0.00374112
-0.00367328
-0.00359129
-0.00351536
-0.00345706
-0.00341944
-0.00339713
-0.00338167
-0.00336566
-0.00334513
-0.00332117
-0.0032998
-0.00328955
-0.00329823
-0.00332993
-0.00338367
-0.00345428
-0.00353507
-0.00362032
-0.00370627
-0.00379088
-0.00387311
-0.00395165
-0.00402406
-0.00408697
-0.00413688
-0.00417116
-0.00418859
-0.00419053
-0.00357433
-0.00354919
-0.00350815
-0.00347651
-0.00345947
-0.00345568
-0.00345863
-0.00346109
-0.00345795
-0.00344721
-0.00343043
-0.00341257
-0.00340042
-0.00340071
-0.0034185
-0.00345565
-0.00350985
-0.00357494
-0.00364303
-0.00370719
-0.00376317
-0.00380971
-0.0038477
-0.00387891
-0.00390481
-0.00392618
-0.00394315
-0.00395556
-0.00396318
-0.00396645
-0.00333878
-0.00331345
-0.00331616
-0.00333987
-0.00337644
-0.00341534
-0.00344742
-0.00346717
-0.00347299
-0.00346736
-0.00345608
-0.00344637
-0.0034447
-0.00345552
-0.00348079
-0.00351975
-0.00356881
-0.00362209
-0.00367272
-0.0037149
-0.00374523
-0.0037632
-0.00377058
-0.00377045
-0.00376629
-0.00376128
-0.00375779
-0.00375715
-0.00375949
-0.00376431
-0.00309341
-0.00308372
-0.00312078
-0.00318
-0.00324718
-0.00331035
-0.00336151
-0.00339649
-0.00341525
-0.00342174
-0.00342241
-0.00342401
-0.00343178
-0.00344861
-0.00347495
-0.00350899
-0.00354715
-0.00358474
-0.00361701
-0.0036402
-0.00365232
-0.00365337
-0.00364513
-0.00363063
-0.00361359
-0.00359767
-0.00358578
-0.00357954
-0.00357908
-0.00358359
-0.00289704
-0.00290329
-0.00295177
-0.00301759
-0.00308877
-0.00315674
-0.00321556
-0.00326193
-0.00329568
-0.00331926
-0.00333659
-0.0033517
-0.00336781
-0.00338676
-0.00340877
-0.00343263
-0.00345614
-0.00347671
-0.00349203
-0.00350046
-0.00350127
-0.00349473
-0.00348217
-0.00346577
-0.00344829
-0.00343253
-0.00342067
-0.00341391
-0.00341233
-0.00341536
-0.0027685
-0.00278253
-0.00282362
-0.00287608
-0.00293383
-0.00299256
-0.00304868
-0.00309975
-0.0031447
-0.00318336
-0.00321614
-0.00324373
-0.00326697
-0.00328657
-0.00330281
-0.00331557
-0.00332455
-0.00332955
-0.00333053
-0.00332768
-0.0033213
-0.0033119
-0.00330025
-0.00328751
-0.00327509
-0.00326435
-0.00325635
-0.00325165
-0.00325027
-0.00325206
-0.00268799
-0.00270336
-0.00272977
-0.0027629
-0.00280181
-0.00284539
-0.00289224
-0.00294077
-0.0029892
-0.00303545
-0.00307733
-0.00311297
-0.00314113
-0.00316125
-0.00317338
-0.00317812
-0.00317661
-0.00317039
-0.00316112
-0.00315031
-0.00313908
-0.00312815
-0.00311805
-0.00310914
-0.00310175
-0.00309606
-0.00309213
-0.00308996
-0.00308946
-0.00309069
-0.00262477
-0.00263742
-0.00265059
-0.00266745
-0.00268973
-0.00271836
-0.00275337
-0.0027939
-0.0028381
-0.00288328
-0.0029262
-0.00296376
-0.00299349
-0.00301387
-0.00302446
-0.00302594
-0.00301994
-0.00300872
-0.00299468
-0.00297997
-0.00296618
-0.00295435
-0.00294499
-0.00293819
-0.0029337
-0.00293104
-0.00292969
-0.00292921
-0.00292935
-0.00293021
-0.00255179
-0.00255972
-0.00256452
-0.00257103
-0.0025818
-0.00259851
-0.00262187
-0.00265159
-0.00268633
-0.00272375
-0.00276084
-0.00279452
-0.00282211
-0.0028417
-0.00285244
-0.00285459
-0.0028495
-0.00283917
-0.00282587
-0.00281172
-0.00279845
-0.00278726
-0.0027788
-0.00277317
-0.00276999
-0.00276857
-0.00276817
-0.0027682
-0.00276831
-0.00276859
-0.00245273
-0.00245708
-0.00245766
-0.00245884
-0.00246275
-0.00247084
-0.002484
-0.0025024
-0.00252537
-0.00255144
-0.00257853
-0.00260437
-0.0026268
-0.00264408
-0.00265516
-0.00265982
-0.00265868
-0.00265301
-0.00264444
-0.00263459
-0.00262498
-0.00261673
-0.00261051
-0.00260649
-0.00260433
-0.00260347
-0.00260325
-0.00260315
-0.00260286
-0.00260247
-0.00232702
-0.00232888
-0.00232747
-0.00232597
-0.00232558
-0.00232726
-0.00233187
-0.0023399
-0.00235128
-0.00236543
-0.00238138
-0.0023979
-0.00241361
-0.00242722
-0.00243772
-0.00244459
-0.00244781
-0.00244787
-0.0024456
-0.00244199
-0.00243804
-0.00243455
-0.00243201
-0.00243056
-0.00243001
-0.00243001
-0.00243019
-0.0024302
-0.0024298
-0.00242903
-0.00218272
-0.00218201
-0.00217937
-0.0021759
-0.00217211
-0.00216872
-0.00216649
-0.00216603
-0.00216772
-0.00217167
-0.00217774
-0.00218554
-0.00219438
-0.00220349
-0.0022121
-0.00221962
-0.00222571
-0.00223034
-0.00223369
-0.00223611
-0.00223796
-0.00223961
-0.00224126
-0.00224298
-0.00224469
-0.00224628
-0.00224758
-0.00224839
-0.00224852
-0.00224791
-0.00202836
-0.0020255
-0.0020217
-0.0020164
-0.00200989
-0.00200274
-0.0019956
-0.00198912
-0.00198389
-0.00198041
-0.00197901
-0.00197975
-0.00198244
-0.00198683
-0.00199241
-0.00199878
-0.0020056
-0.00201258
-0.00201945
-0.00202606
-0.00203225
-0.00203798
-0.00204317
-0.00204783
-0.00205194
-0.0020555
-0.00205843
-0.00206057
-0.00206171
-0.00206176
-0.00187191
-0.0018681
-0.00186327
-0.00185664
-0.00184841
-0.00183901
-0.00182899
-0.00181893
-0.00180951
-0.00180134
-0.00179494
-0.00179052
-0.00178805
-0.00178811
-0.00179014
-0.00179416
-0.00179992
-0.00180707
-0.00181497
-0.00182329
-0.00183155
-0.00183942
-0.00184671
-0.00185331
-0.00185923
-0.00186445
-0.00186888
-0.00187233
-0.00187458
-0.00187551
-0.00172154
-0.00171738
-0.00171202
-0.00170474
-0.00169576
-0.00168544
-0.00167418
-0.00166251
-0.00165104
-0.00164038
-0.001631
-0.00162337
-0.00161736
-0.0016134
-0.00161213
-0.00161338
-0.00161698
-0.00162249
-0.00162947
-0.00163721
-0.00164526
-0.00165322
-0.00166083
-0.00166798
-0.0016746
-0.00168061
-0.00168585
-0.00169011
-0.00169319
-0.00169497
-0.00158215
-0.0015779
-0.00157252
-0.00156528
-0.00155631
-0.00154599
-0.00153463
-0.00152266
-0.00151063
-0.00149893
-0.00148799
-0.00147799
-0.00147
-0.00146388
-0.00146009
-0.00145876
-0.00145974
-0.00146267
-0.00146715
-0.00147266
-0.00147879
-0.00148519
-0.00149166
-0.00149803
-0.00150416
-0.00150993
-0.0015151
-0.00151948
-0.00152291
-0.00152527
-0.00145461
-0.00145049
-0.00144559
-0.00143886
-0.0014305
-0.00142081
-0.0014101
-0.00139871
-0.00138716
-0.00137556
-0.00136423
-0.00135375
-0.00134463
-0.0013371
-0.00133146
-0.00132781
-0.00132606
-0.00132598
-0.00132731
-0.00132978
-0.00133312
-0.00133713
-0.0013416
-0.00134631
-0.00135102
-0.00135572
-0.00136006
-0.00136389
-0.00136713
-0.00136967
-0.00133711
-0.00133386
-0.00132976
-0.00132387
-0.00131644
-0.0013079
-0.00129839
-0.00128826
-0.00127759
-0.00126673
-0.00125593
-0.00124559
-0.0012361
-0.00122774
-0.00122069
-0.00121502
-0.00121072
-0.00120775
-0.00120603
-0.00120549
-0.00120603
-0.0012075
-0.00120971
-0.00121245
-0.00121551
-0.00121849
-0.00122139
-0.00122417
-0.00122679
-0.00122911
-0.00122795
-0.00122607
-0.00122299
-0.00121821
-0.00121194
-0.00120443
-0.00119613
-0.0011872
-0.00117771
-0.00116783
-0.00115779
-0.0011479
-0.00113845
-0.00112962
-0.00112153
-0.00111428
-0.00110796
-0.00110267
-0.00109849
-0.00109549
-0.00109364
-0.00109281
-0.00109282
-0.00109346
-0.00109454
-0.00109584
-0.00109732
-0.00109894
-0.00110069
-0.00110249
-0.00112644
-0.0011251
-0.0011223
-0.00111823
-0.00111294
-0.00110664
-0.00109953
-0.00109165
-0.00108314
-0.00107413
-0.00106485
-0.0010555
-0.00104626
-0.00103725
-0.00102856
-0.00102033
-0.00101271
-0.0010059
-0.00100005
-0.000995258
-0.000991535
-0.000988792
-0.00098687
-0.000985619
-0.000984913
-0.000984657
-0.000984823
-0.000985398
-0.000986359
-0.00098762
-0.00102763
-0.00102662
-0.00102451
-0.00102112
-0.00101664
-0.00101126
-0.001005
-0.000997856
-0.000990048
-0.000981747
-0.000973136
-0.000964359
-0.000955495
-0.000946606
-0.000937788
-0.00092919
-0.000921002
-0.000913422
-0.000906604
-0.000900648
-0.000895587
-0.000891379
-0.000887947
-0.000885248
-0.00088319
-0.000881785
-0.000881017
-0.000880875
-0.000881303
-0.000882214
-0.000929502
-0.000928476
-0.000926812
-0.000924034
-0.000920297
-0.000915577
-0.000909852
-0.000903274
-0.000896044
-0.000888361
-0.000880384
-0.000872188
-0.000863806
-0.000855278
-0.000846712
-0.000838242
-0.000830033
-0.000822243
-0.000815003
-0.000808413
-0.000802544
-0.000797412
-0.00079306
-0.000789494
-0.000786704
-0.000784699
-0.000783458
-0.000782917
-0.000782996
-0.000783637
-0.000829854
-0.000828681
-0.000827459
-0.000825362
-0.000822249
-0.000818046
-0.000812892
-0.000806906
-0.000800297
-0.00079325
-0.000785883
-0.000778246
-0.000770369
-0.00076231
-0.000754195
-0.000746122
-0.000738214
-0.000730593
-0.000723375
-0.000716676
-0.000710583
-0.000705163
-0.000700512
-0.000696679
-0.000693681
-0.000691486
-0.000690046
-0.000689258
-0.000689017
-0.000689368
-0.000727673
-0.00072667
-0.000725881
-0.000724322
-0.00072175
-0.000718203
-0.000713736
-0.000708492
-0.000702636
-0.000696293
-0.000689545
-0.000682458
-0.000675096
-0.000667536
-0.000659946
-0.000652393
-0.00064498
-0.000637809
-0.000630983
-0.000624608
-0.000618793
-0.000613629
-0.000609199
-0.000605526
-0.000602604
-0.000600399
-0.000598834
-0.000597811
-0.000597249
-0.000597269
-0.000622933
-0.000622238
-0.000621737
-0.000620545
-0.000618485
-0.000615587
-0.000611915
-0.000607548
-0.000602554
-0.000596995
-0.00059094
-0.000584485
-0.000577732
-0.000570776
-0.000563829
-0.000556945
-0.000550229
-0.000543771
-0.00053766
-0.000531979
-0.000526803
-0.000522199
-0.000518209
-0.000514842
-0.000512076
-0.000509863
-0.000508152
-0.000506886
-0.000506021
-0.000505784
-0.000515388
-0.000514974
-0.000514561
-0.000513532
-0.00051184
-0.000509566
-0.000506725
-0.000503278
-0.000499198
-0.000494495
-0.000489258
-0.000483601
-0.000477648
-0.000471554
-0.000465461
-0.000459474
-0.000453694
-0.000448201
-0.000443059
-0.000438313
-0.000433989
-0.000430105
-0.000426649
-0.000423606
-0.000420988
-0.000418765
-0.00041692
-0.00041545
-0.000414396
-0.000414
-0.000404691
-0.000404386
-0.000403883
-0.000402932
-0.000401609
-0.000399935
-0.000397878
-0.00039531
-0.000392148
-0.000388376
-0.00038408
-0.000379415
-0.000374517
-0.000369517
-0.000364542
-0.0003597
-0.000355081
-0.000350752
-0.000346742
-0.000343052
-0.00033965
-0.000336564
-0.000333733
-0.000331113
-0.000328717
-0.000326577
-0.00032472
-0.000323207
-0.000322141
-0.000321708
-0.000291034
-0.000290589
-0.000290038
-0.000289265
-0.000288367
-0.00028727
-0.00028592
-0.00028414
-0.000281849
-0.000279065
-0.000275882
-0.000272399
-0.00026874
-0.000265029
-0.000261365
-0.000257836
-0.000254513
-0.000251435
-0.000248609
-0.000246002
-0.000243579
-0.000241336
-0.000239171
-0.000237082
-0.000235098
-0.000233276
-0.000231661
-0.000230349
-0.000229463
-0.000229185
-0.000175065
-0.000174615
-0.000174171
-0.000173693
-0.000173213
-0.000172563
-0.000171794
-0.000170744
-0.000169363
-0.000167682
-0.000165794
-0.000163656
-0.000161355
-0.000159043
-0.00015678
-0.000154626
-0.000152622
-0.000150791
-0.000149123
-0.000147576
-0.000146127
-0.000144733
-0.000143353
-0.000141972
-0.000140615
-0.000139369
-0.000138269
-0.000137391
-0.000136818
-0.000136709
-5.77697e-05
-5.76238e-05
-5.7388e-05
-5.72077e-05
-5.70602e-05