/*--------------------------------*- C++ -*----------------------------------*\
| =========                 |                                                 |
| \\      /  F ield         | OpenFOAM: The Open Source CFD Toolbox           |
|  \\    /   O peration     | Version:  2312                                  |
|   \\  /    A nd           | Website:  www.openfoam.com                      |
|    \\/     M anipulation  |                                                 |
\*---------------------------------------------------------------------------*/
FoamFile
{
    version     2.0;
    format      ascii;
    arch        "LSB;label=32;scalar=64";
    class       surfaceScalarField;
    location    "0.748016";
    object      phi;
}
// * * * * * * * * * * * * * * * * * * * * * * * * * * * * * * * * * * * * * //

dimensions      [0 3 -1 0 0 0 0];

oriented        oriented;

internalField   nonuniform List<scalar> 
263100
(
-1.44558e-12
2.87942e-12
-1.44557e-12
-1.17028e-09
1.59667e-09
-3.96567e-10
-1.88794e-09
1.18287e-09
-4.39565e-10
-2.28269e-09
9.56317e-10
-5.36425e-10
-2.39403e-09
7.22717e-10
-5.86292e-10
-2.23816e-09
4.37611e-10
-5.68274e-10
-1.86652e-09
1.66147e-10
-5.12623e-10
-1.37704e-09
-3.23072e-11
-4.31855e-10
-9.28943e-10
-6.61638e-11
-3.566e-10
-5.81075e-10
5.749e-12
-3.28336e-10
-3.65111e-10
1.89304e-10
-3.79951e-10
-2.15764e-10
3.72808e-10
-4.96939e-10
-4.76217e-11
5.02508e-10
-6.45471e-10
2.27254e-10
5.31432e-10
-7.8128e-10
6.70435e-10
4.5168e-10
-8.7008e-10
1.26494e-09
2.9962e-10
-8.69588e-10
1.9023e-09
1.29939e-10
-7.42979e-10
2.38821e-09
4.03469e-11
-5.02169e-10
2.54314e-09
1.06822e-10
-2.3783e-10
2.2424e-09
3.2022e-10
4.37027e-12
1.4362e-09
6.66319e-10
1.63678e-10
1.63207e-10
1.08486e-09
2.11839e-10
-1.40575e-09
1.4168e-09
1.75702e-10
-2.98064e-09
1.52397e-09
7.42988e-11
-4.10409e-09
1.23991e-09
-9.3192e-11
-4.449e-09
5.84697e-10
-2.16554e-10
-4.12286e-09
-1.9245e-10
-1.10488e-10
-3.5305e-09
-7.7019e-10
2.01123e-10
-3.31589e-09
-9.2796e-10
7.36855e-10
-9.11598e-09
5.823e-09
-4.67204e-10
9.6857e-10
-4.67204e-10
-6.56486e-10
2.24788e-09
-4.10678e-10
-7.66616e-10
1.72496e-09
-3.85767e-10
-8.28766e-10
1.34201e-09
-2.77597e-10
-8.31071e-10
9.28069e-10
-1.57026e-10
-7.86821e-10
4.91096e-10
-5.1584e-11
-7.0803e-10
1.18642e-10
1.49574e-11
-6.20064e-10
-1.05175e-10
3.10855e-11
-4.92743e-10
-1.68442e-10
2.12706e-11
-3.43245e-10
-8.62094e-11
-1.15263e-11
-1.35331e-10
8.63308e-11
-5.89512e-11
1.26148e-10
2.41688e-10
-8.45117e-11
4.19289e-10
3.30039e-10
-7.51974e-11
7.09714e-10
3.23493e-10
-3.74324e-11
9.68549e-10
2.39602e-10
-2.09709e-12
1.14128e-09
1.2168e-10
4.94499e-11
1.18641e-09
7.18628e-11
5.67945e-11
1.13497e-09
1.33855e-10
1.48371e-12
9.70152e-10
3.8133e-10
-6.62872e-11
6.97868e-10
8.08597e-10
-1.72805e-10
3.75723e-10
1.31282e-09
-2.81235e-10
3.00544e-11
1.7715e-09
-2.98081e-10
-2.42653e-10
1.99178e-09
-2.5961e-10
-3.52691e-10
1.80883e-09
-1.32222e-10
-2.172e-10
1.07082e-09
7.66922e-11
1.84138e-10
-5.59558e-11
2.84931e-10
7.40128e-10
-1.18604e-09
4.95095e-10
8.12216e-10
-1.22125e-09
4.89198e-10
-9.74908e-10
6.75749e-10
4.71445e-10
-1.1034e-08
1.74815e-09
-2.98e-10
1.59012e-09
-2.98e-10
2.04875e-10
1.87866e-09
-8.7165e-11
5.13188e-10
1.43219e-09
2.62631e-11
6.66908e-10
1.11121e-09
1.18708e-10
6.66953e-10
7.76068e-10
1.93643e-10
5.22158e-10
4.46521e-10
2.3103e-10
2.87539e-10
1.80668e-10
2.14265e-10
5.74001e-11
1.28178e-11
1.53493e-10
-8.79026e-11
-5.17383e-11
6.98723e-11
-6.38916e-11
-5.17972e-11
-1.73541e-11
1.25319e-10
-1.22029e-11
-4.98576e-11
4.2901e-10
1.05868e-11
-3.21043e-11
7.51245e-10
1.61284e-11
3.18329e-11
9.50975e-10
2.34987e-11
1.401e-10
9.32852e-10
7.48506e-11
2.22356e-10
6.96231e-10
1.60793e-10
2.3663e-10
3.01729e-10
3.53707e-10
1.51511e-10
-1.28126e-10
6.19069e-10
-1.66556e-11
-4.48294e-10
9.40267e-10
-2.0016e-10
-4.74684e-10
1.30533e-09
-4.31851e-10
-1.45121e-10
1.6143e-09
-5.92691e-10
4.99761e-10
1.79753e-09
-6.3272e-10
1.35244e-09
1.7242e-09
-5.47104e-10
2.23524e-09
1.28998e-09
-3.26381e-10
2.94181e-09
5.365e-10
-1.36544e-10
3.26668e-09
-4.93416e-10
1.39001e-10
3.53171e-09
-1.76703e-09
3.01337e-10
4.62609e-09
-2.1463e-09
-3.16794e-10
2.56524e-09
2.88792e-09
-5.46177e-10
-5.38613e-09
-2.92444e-09
4.97128e-12
1.60565e-09
4.97128e-12
8.8643e-10
7.91425e-10
2.5233e-10
1.42285e-09
6.15674e-10
3.21946e-10
1.68972e-09
4.82794e-10
4.03082e-10
1.67962e-09
3.94207e-10
4.33407e-10
1.41862e-09
3.41776e-10
4.06898e-10
1.01186e-09
3.07107e-10
3.21179e-10
5.88995e-10
2.81955e-10
1.94226e-10
2.80374e-10
2.33071e-10
6.40333e-11
1.53323e-10
1.56471e-10
-4.1356e-11
2.11088e-10
3.70511e-11
-6.75038e-11
3.86617e-10
-7.92727e-11
-4.64004e-11
5.64886e-10
-1.31068e-10
7.9079e-12
6.11377e-10
-6.89334e-11
8.4602e-11
4.56157e-10
1.52703e-10
1.15721e-10
1.01706e-10
4.71002e-10
8.23473e-11
-3.45869e-10
8.5756e-10
-1.83293e-11
-7.49122e-10
1.21911e-09
-1.58936e-10
-8.92595e-10
1.45484e-09
-3.33346e-10
-6.39095e-10
1.54124e-09
-4.51774e-10
6.78171e-11
1.47767e-09
-5.32743e-10
1.14465e-09
1.29645e-09
-5.3827e-10
2.377e-09
9.82603e-10
-4.5318e-10
3.46213e-09
5.86108e-10
-3.4316e-10
4.07059e-09
2.15527e-10
-2.46204e-10
3.88874e-09
-6.32458e-11
-1.91151e-10
2.95198e-09
-6.39564e-10
-8.5036e-11
2.57396e-09
-1.50717e-09
-1.09792e-10
1.9375e-09
3.51474e-09
-7.90225e-11
-9.33334e-10
-2.45344e-09
2.56297e-10
1.11848e-09
2.56297e-10
1.33615e-09
-7.62188e-10
5.20228e-10
1.96847e-09
-5.34656e-10
5.59626e-10
2.2943e-09
-3.85056e-10
5.83108e-10
2.30022e-09
-1.25016e-10
5.54061e-10
2.04226e-09
1.80983e-10
4.59111e-10
1.60133e-09
4.53917e-10
3.34027e-10
1.10504e-09
6.22083e-10
1.95667e-10
6.63586e-10
6.43643e-10
7.00096e-11
3.43064e-10
5.25738e-10
-9.84686e-12
1.38394e-10
3.27123e-10
-4.67669e-11
4.3185e-12
1.46873e-10
-5.36596e-11
-8.19397e-11
5.25098e-11
-5.92369e-11
-1.91611e-10
1.55938e-10
-7.74305e-11
-3.41921e-10
4.55341e-10
-1.14816e-10
-5.31175e-10
8.65434e-10
-1.67867e-10
-6.90308e-10
1.27293e-09
-2.19093e-10
-7.42902e-10
1.54498e-09
-2.36274e-10
-5.68862e-10
1.55508e-09
-2.37419e-10
-1.00051e-10
1.33648e-09
-2.27311e-10
6.37522e-10
9.89076e-10
-2.12267e-10
1.59548e-09
5.73314e-10
-1.97991e-10
2.55981e-09
2.63688e-10
-2.08279e-10
3.25846e-09
1.85949e-10
-2.6128e-10
3.55861e-09
3.23546e-10
-3.74536e-10
3.28581e-09
8.18977e-10
-5.89319e-10
1.9829e-09
1.53528e-09
-8.58279e-10
4.43349e-10
1.09185e-09
-9.77152e-10
2.97635e-10
4.54531e-09
-8.75045e-10
1.90465e-09
-2.50116e-09
4.334e-10
2.76841e-10
4.334e-10
1.4581e-09
-2.36951e-09
6.28532e-10
2.0643e-09
-1.7313e-09
6.31374e-10
2.4233e-09
-1.28005e-09
5.76229e-10
2.53719e-09
-6.73054e-10
4.73912e-10
2.42094e-09
-1.31576e-11
3.49719e-10
2.11641e-09
5.68781e-10
2.28503e-10
1.68016e-09
9.68215e-10
1.28706e-10
1.15694e-09
1.14397e-09
6.12196e-11
5.9289e-10
1.1063e-09
2.16258e-11
3.01992e-11
9.29748e-10
-2.07734e-12
-4.8282e-10
7.30289e-10
-3.28737e-11
-8.85811e-10
6.01766e-10
-1.09163e-10
-1.1048e-09
6.01691e-10
-1.90014e-10
-1.14162e-09
7.62455e-10
-2.33837e-10
-1.01271e-09
1.00013e-09
-2.2742e-10
-7.44297e-10
1.21015e-09
-1.69702e-10
-3.87893e-10
1.27467e-09
-5.03996e-11
5.3865e-11
1.10894e-09
3.98859e-11
5.46087e-10
7.38949e-10
1.40704e-10
1.05285e-09
3.05631e-10
2.12026e-10
1.49172e-09
-4.17779e-11
2.11383e-10
1.7964e-09
-9.86992e-11
9.25405e-11
1.8564e-09
2.58277e-10
-9.6839e-11
1.57373e-09
9.84926e-10
-3.39165e-10
1.094e-09
2.02552e-09
-6.8509e-10
3.43705e-10
3.51599e-09
-1.20563e-09
-8.91672e-10
3.90057e-09
-1.52946e-09
-6.89347e-10
5.90093e-09
-1.52802e-09
3.23354e-09
-1.9857e-09
4.04457e-10
-5.07402e-10
4.04457e-10
1.22399e-09
-3.63558e-09
4.9165e-10
1.77086e-09
-2.65117e-09
4.13156e-10
2.2102e-09
-1.97377e-09
2.93788e-10
2.51653e-09
-1.1097e-09
1.69219e-10
2.67323e-09
-1.94446e-10
6.31429e-11
2.62627e-09
6.50024e-10
3.92476e-12
2.33346e-09
1.29736e-09
1.66553e-12
1.7899e-09
1.68366e-09
4.15842e-11
1.02383e-09
1.8293e-09
8.03945e-11
1.27381e-10
1.7833e-09
7.97302e-11
-7.35664e-10
1.59088e-09
3.87131e-11
-1.39715e-09
1.31806e-09
-1.91086e-11
-1.7327e-09
1.05254e-09
-8.00387e-11
-1.69908e-09
8.64635e-10
-1.0093e-10
-1.3544e-09
7.2496e-10
-3.49842e-11
-7.96347e-10
6.16139e-10
7.01672e-11
-1.77807e-10
4.57281e-10
2.32814e-10
3.72584e-10
1.82312e-10
4.1009e-10
7.32353e-10
-1.25837e-10
5.38926e-10
8.66969e-10
-4.01142e-10
6.06312e-10
7.878e-10
-4.68561e-10
5.40526e-10
5.22783e-10
-1.70311e-10
3.71339e-10
1.05483e-10
5.92254e-10
1.16851e-10
-4.59597e-10
1.77306e-09
-1.90441e-10
-9.89831e-10
3.12122e-09
-5.28263e-10
-1.16616e-09
4.64966e-09
-9.22874e-10
-1.50282e-09
5.38292e-09
-1.10959e-09
-7.23512e-10
6.19365e-09
-1.03791e-09
3.44051e-09
-8.99863e-10
1.28357e-10
-7.39879e-10
1.28357e-10
7.54041e-10
-4.33011e-09
1.1326e-10
1.26772e-09
-3.12635e-09
1.14253e-12
1.83355e-09
-2.34726e-09
-1.53392e-10
2.40028e-09
-1.39693e-09
-2.40921e-10
2.86159e-09
-3.72066e-10
-2.45401e-10
3.09358e-09
6.22931e-10
-1.6691e-10
2.98736e-09
1.50692e-09
-6.58124e-11
2.49409e-09
2.17436e-09
3.95283e-11
1.64398e-09
2.5679e-09
1.47669e-10
5.78714e-10
2.67091e-09
2.13032e-10
-4.79753e-10
2.46353e-09
2.20389e-10
-1.31863e-09
1.99099e-09
1.99869e-10
-1.79916e-09
1.36073e-09
2.05766e-10
-1.85742e-09
7.11948e-10
2.43946e-10
-1.57009e-09
1.45965e-10
3.24351e-10
-1.06369e-09
-3.11722e-10
4.5391e-10
-5.2599e-10
-6.51132e-10
6.03082e-10
-1.26984e-10
-9.16915e-10
7.32657e-10
5.73681e-11
-1.09072e-09
8.13141e-10
-7.37797e-12
-1.0883e-09
7.84676e-10
-3.14923e-10
-8.21614e-10
6.93667e-10
-7.92761e-10
-2.11683e-10
5.53127e-10
-1.31817e-09
7.73859e-10
3.78446e-10
-1.75123e-09
2.05227e-09
1.87391e-10
-2.0609e-09
3.40387e-09
6.11227e-11
-1.84248e-09
4.54871e-09
-8.16584e-11
-1.41225e-09
5.05072e-09
-6.24036e-11
-3.20457e-10
5.04286e-09
9.44067e-11
2.74125e-09
4.08829e-10
-2.99551e-10
-1.16749e-10
-2.99551e-10
2.2147e-10
-4.43864e-09
-3.68649e-10
7.52869e-10
-3.13999e-09
-4.78388e-10
1.44302e-09
-2.46353e-09
-5.35044e-10
2.17848e-09
-1.58405e-09
-5.09744e-10
2.84782e-09
-6.00023e-10
-4.03189e-10
3.28777e-09
4.62476e-10
-2.41784e-10
3.35711e-09
1.51722e-09
-4.27896e-11
3.01414e-09
2.43973e-09
1.13473e-10
2.28583e-09
3.07132e-09
2.5966e-10
1.3213e-09
3.30228e-09
3.66945e-10
3.06313e-10
3.05598e-09
4.55425e-10
-5.83414e-10
2.38142e-09
5.31596e-10
-1.22527e-09
1.42406e-09
6.10355e-10
-1.61261e-09
4.25439e-10
7.05304e-10
-1.75777e-09
-4.5845e-10
7.80802e-10
-1.72639e-09
-1.15608e-09
8.44161e-10
-1.59328e-09
-1.60728e-09
8.54311e-10
-1.448e-09
-1.84008e-09
8.09425e-10
-1.36234e-09
-1.86277e-09
7.18305e-10
-1.36727e-09
-1.66769e-09
6.16582e-10
-1.49681e-09
-1.20378e-09
5.441e-10
-1.70915e-09
-4.57219e-10
4.90612e-10
-1.94457e-09
5.52583e-10
4.90502e-10
-2.06808e-09
1.71259e-09
4.97568e-10
-1.97451e-09
2.78804e-09
5.56492e-10
-1.48908e-09
3.47641e-09
6.2242e-10
-7.33651e-10
3.56236e-09
7.68414e-10
1.10401e-10
3.27024e-09
9.63722e-10
1.7942e-09
1.08669e-09
-5.26503e-10
9.60246e-10
-5.26503e-10
-8.416e-11
-4.27659e-09
-5.61328e-10
3.89779e-10
-3.01012e-09
-5.64822e-10
1.02839e-09
-2.53788e-09
-5.2561e-10
1.7274e-09
-1.85898e-09
-3.85643e-10
2.3635e-09
-9.87989e-10
-2.10273e-10
2.81351e-09
7.7228e-11
-2.76828e-11
3.00708e-09
1.23365e-09
1.25967e-10
2.91876e-09
2.32331e-09
2.39482e-10
2.56445e-09
3.10936e-09
3.49865e-10
1.99599e-09
3.43902e-09
4.64358e-10
1.28943e-09
3.18954e-09
6.04811e-10
4.96826e-10
2.44596e-09
7.59332e-10
-3.3443e-10
1.40026e-09
8.85816e-10
-1.19377e-09
3.63057e-10
9.52068e-10
-1.98415e-09
-5.82758e-10
9.44845e-10
-2.62588e-09
-1.32388e-09
8.39711e-10
-3.01534e-09
-1.83007e-09
6.42526e-10
-3.12164e-09
-2.11919e-09
4.15807e-10
-3.01114e-09
-2.18408e-09
2.41399e-10
-2.75024e-09
-2.04553e-09
1.47868e-10
-2.42854e-09
-1.63981e-09
1.45668e-10
-2.13169e-09
-9.27276e-10
2.04913e-10
-1.88311e-09
8.5935e-12
3.27887e-10
-1.58247e-09
9.65842e-10
4.79668e-10
-1.14047e-09
1.73141e-09
6.48492e-10
-5.23274e-10
2.06778e-09
8.25763e-10
6.21502e-11
2.01969e-09
9.91257e-10
4.22852e-10
1.88963e-09
1.0534e-09
1.33457e-09
9.10467e-10
-2.17681e-10
1.41949e-09
-2.17681e-10
-8.32968e-11
-4.17174e-09
-1.97439e-10
1.26204e-10
-3.10452e-09
-7.69363e-11
4.19663e-10
-2.81944e-09
2.60964e-11
7.46543e-10
-2.33061e-09
1.8247e-10
1.05345e-09
-1.55749e-09
2.99673e-10
1.33485e-09
-5.12411e-10
3.44367e-10
1.60714e-09
6.70988e-10
3.25414e-10
1.8866e-09
1.79647e-09
2.81288e-10
2.12086e-09
2.63034e-09
2.77665e-10
2.19501e-09
3.03078e-09
3.66166e-10
1.9905e-09
2.93726e-09
4.88012e-10
1.40598e-09
2.42769e-09
6.33322e-10
4.19131e-10
1.69683e-09
7.20101e-10
-8.29325e-10
9.44802e-10
6.95962e-10
-2.19355e-09
2.82242e-10
5.28183e-10
-3.3589e-09
-3.9325e-10
2.63587e-10
-4.16069e-09
-9.6601e-10
-3.34733e-11
-4.41958e-09
-1.54004e-09
-2.91622e-10
-4.19333e-09
-1.94881e-09
-4.33074e-10
-3.61958e-09
-2.14335e-09
-4.47408e-10
-2.91018e-09
-1.97631e-09
-3.43825e-10
-2.19457e-09
-1.46602e-09
-1.47024e-10
-1.53077e-09
-6.97259e-10
7.27304e-11
-8.67709e-10
8.55922e-11
2.48825e-10
-2.28236e-10
6.91799e-10
4.32083e-10
2.97678e-10
9.94459e-10
5.79335e-10
5.38074e-10
1.16764e-09
6.43296e-10
4.77886e-10
1.39267e-09
5.88484e-10
1.27203e-09
5.6696e-10
6.3902e-10
1.64713e-10
6.3902e-10
6.88499e-11
-4.20221e-09
6.39912e-10
-3.0157e-10
-3.49162e-09
7.93695e-10
-6.5383e-10
-3.24058e-09
8.09546e-10
-9.66289e-10
-2.81454e-09
8.32272e-10
-1.14733e-09
-2.07043e-09
7.29352e-10
-1.06736e-09
-1.09213e-09
5.34348e-10
-6.52374e-10
7.75253e-12
2.82109e-10
9.23961e-11
9.9073e-10
9.4094e-11
1.00794e-09
1.75129e-09
-4.15836e-12
1.80739e-09
2.24975e-09
1.31268e-11
2.16172e-09
2.5218e-09
9.1711e-11
1.87434e-09
2.60858e-09
1.36128e-10
9.28948e-10
2.57256e-09
9.83463e-11
-4.68234e-10
2.40373e-09
-3.37752e-11
-2.03059e-09
2.09617e-09
-2.24066e-10
-3.44609e-09
1.5344e-09
-4.8506e-10
-4.3325e-09
6.6245e-10
-7.15441e-10
-4.61087e-09
-3.77183e-10
-8.58368e-10
-4.33147e-09
-1.3407e-09
-8.61677e-10
-3.68658e-09
-2.02167e-09
-7.40678e-10
-2.86047e-09
-2.24777e-09
-5.28171e-10
-1.99883e-09
-2.01649e-09
-2.83755e-10
-1.16363e-09
-1.45909e-09
-4.51611e-11
-3.60868e-10
-8.18977e-10
1.30587e-10
3.30577e-10
-2.56482e-10
2.85729e-10
7.51821e-10
2.09201e-10
3.92936e-10
8.32828e-10
6.7295e-10
4.42832e-10
6.80249e-10
1.06669e-09
5.07651e-10
1.20246e-09
7.74286e-10
1.59299e-09
-2.99931e-09
1.59299e-09
1.26099e-10
-4.11634e-09
1.41548e-09
-1.03944e-09
-3.70393e-09
1.40998e-09
-2.13744e-09
-3.3558e-09
1.24542e-09
-3.08131e-09
-2.83235e-09
9.93778e-10
-3.66757e-09
-2.09813e-09
6.45898e-10
-3.66741e-09
-1.32126e-09
2.6071e-10
-2.98884e-09
-5.62367e-10
-7.68706e-11
-1.73407e-09
7.58983e-11
-3.08553e-10
-1.99382e-10
6.48835e-10
-4.01344e-10
1.16087e-09
1.30694e-09
-3.87244e-10
1.95945e-09
2.0931e-09
-3.40594e-10
1.97942e-09
2.95207e-09
-3.35121e-10
1.26751e-09
3.74273e-09
-4.30791e-10
5.92117e-11
4.22719e-09
-5.88345e-10
-1.29696e-09
4.21051e-09
-7.31999e-10
-2.46955e-09
3.57556e-09
-8.43254e-10
-3.20404e-09
2.31785e-09
-8.9654e-10
-3.46712e-09
7.34324e-10
-8.24858e-10
-3.33959e-09
-8.02959e-10
-6.42029e-10
-2.98054e-09
-1.93092e-09
-4.26385e-10
-2.43475e-09
-2.55671e-09
-2.12988e-10
-1.79712e-09
-2.60461e-09
-2.50869e-11
-1.06269e-09
-2.29351e-09
1.24689e-10
-2.68732e-10
-1.82488e-09
2.36718e-10
4.30066e-10
-1.29951e-09
3.69059e-10
8.83895e-10
-7.47194e-10
5.27739e-10
1.04299e-09
-1.88386e-10
7.27951e-10
9.08568e-10
2.39069e-10
9.87576e-10
8.77576e-10
1.25419e-09
2.04245e-09
-7.06509e-09
2.04245e-09
-3.25822e-10
-3.10543e-09
1.38319e-09
-2.09255e-09
-3.1076e-09
1.19502e-09
-3.60148e-09
-2.66964e-09
8.47636e-10
-4.76635e-09
-2.10373e-09
4.6146e-10
-5.3298e-09
-1.55339e-09
4.43887e-11
-5.18608e-09
-1.2072e-09
-2.31494e-10
-4.19701e-09
-1.07565e-09
-4.48883e-10
-2.59535e-09
-9.75261e-10
-5.23195e-10
-8.1059e-10
-6.34008e-10
-4.74519e-10
7.14528e-10
1.89749e-10
-3.80749e-10
1.66376e-09
1.51628e-09
-3.45541e-10
1.93018e-09
3.10723e-09
-3.95039e-10
1.60846e-09
4.579e-09
-4.88356e-10
9.12956e-10
5.49664e-09
-5.48234e-10
1.12499e-10
5.61679e-09
-5.80963e-10
-6.06628e-10
4.8359e-09
-5.17585e-10
-1.17958e-09
3.24924e-09
-3.36135e-10
-1.59994e-09
1.29696e-09
-1.20939e-10
-1.89975e-09
-5.61454e-10
7.91973e-11
-2.07606e-09
-1.98912e-09
2.55219e-10
-2.12899e-09
-2.83764e-09
3.5426e-10
-1.91124e-09
-3.1863e-09
3.8387e-10
-1.39702e-09
-3.15346e-09
3.65091e-10
-6.9164e-10
-2.91447e-09
4.03189e-10
1.5454e-11
-2.51101e-09
5.23436e-10
5.29078e-10
-1.95929e-09
7.17788e-10
7.60133e-10
-1.38882e-09
9.88837e-10
5.57628e-10
-7.15903e-10
1.17648e-09
5.05377e-10
9.44359e-10
1.38462e-09
-9.82032e-09
1.38462e-09
-1.16042e-09
-1.10954e-09
5.61422e-10
-2.9137e-09
-1.60939e-09
2.67714e-10
-4.17377e-09
-1.28812e-09
-1.08224e-10
-5.03045e-09
-9.32938e-10
-2.99996e-10
-5.24784e-09
-9.14419e-10
-4.06265e-10
-4.71141e-09
-1.28624e-09
-4.40707e-10
-3.45676e-09
-1.93133e-09
-3.80888e-10
-1.92695e-09
-2.30008e-09
-1.85752e-10
-4.38587e-10
-2.09581e-09
-6.22265e-12
7.18206e-10
-1.02536e-09
7.9618e-11
1.44804e-09
7.28983e-10
7.98282e-11
1.77587e-09
2.8015e-09
1.1884e-12
1.84896e-09
4.65186e-09
-1.22116e-10
1.74707e-09
5.75311e-09
-1.30863e-10
1.55134e-09
5.85755e-09
-2.22314e-11
1.25181e-09
4.97743e-09
1.79401e-10
7.7394e-10
3.30087e-09
4.46305e-10
8.47159e-11
1.32075e-09
6.84395e-10
-7.59455e-10
-5.16246e-10
8.16903e-10
-1.60133e-09
-1.94957e-09
8.18928e-10
-2.19644e-09
-2.91468e-09
6.8699e-10
-2.35871e-09
-3.51152e-09
5.00499e-10
-2.08517e-09
-3.80458e-09
3.89122e-10
-1.52212e-09
-3.86419e-09
3.97424e-10
-9.41611e-10
-3.57283e-09
4.91786e-10
-5.60729e-10
-2.93226e-09
6.02275e-10
-4.74591e-10
-2.09716e-09
6.3192e-10
-6.01141e-10
-9.76089e-10
3.959e-10
2.01984e-11
-1.10093e-10
1.24272e-10
-1.00628e-08
1.24272e-10
-1.65756e-09
1.22155e-09
-5.55523e-10
-2.70839e-09
6.22937e-11
-6.249e-10
-3.28779e-09
2.68059e-11
-7.38721e-10
-3.37454e-09
-1.82009e-10
-6.66195e-10
-2.91557e-09
-8.92404e-10
-4.81353e-10
-2.03899e-09
-1.95761e-09
-2.03808e-10
-1.01178e-09
-3.07877e-09
1.23699e-10
-5.38085e-11
-3.64326e-09
3.90885e-10
5.78211e-10
-3.27322e-09
5.53628e-10
9.23163e-10
-1.92551e-09
5.66322e-10
1.13214e-09
1.07845e-10
4.26293e-10
1.4022e-09
2.30216e-09
2.4603e-10
1.77998e-09
4.12978e-09
1.62752e-10
2.17026e-09
5.1777e-09
2.04173e-10
2.40024e-09
5.26592e-09
3.80329e-10
2.30818e-09
4.44427e-09
6.42982e-10
1.72449e-09
3.02044e-09
8.80779e-10
6.97249e-10
1.37778e-09
9.85405e-10
-5.57682e-10
-1.83629e-10
9.35286e-10
-1.74638e-09
-1.52836e-09
7.7739e-10
-2.56109e-09
-2.66293e-09
5.69431e-10
-2.9023e-09
-3.59282e-09
4.25942e-10
-2.83614e-09
-4.26524e-09
3.95716e-10
-2.59178e-09
-4.53826e-09
4.29536e-10
-2.37624e-09
-4.2366e-09
4.47008e-10
-2.28236e-09
-3.37417e-09
3.45939e-10
-2.27005e-09
-2.17454e-09
6.24706e-11
-1.89784e-09
-1.00121e-09
-3.50115e-10
-1.48537e-09
-3.97031e-10
-8.91667e-10
-8.28458e-09
-8.91667e-10
-1.33097e-09
2.809e-09
-1.17655e-09
-1.30616e-09
1.037e-09
-1.0241e-09
-8.8505e-10
5.06048e-10
-9.24274e-10
-8.64945e-11
-4.0655e-10
-5.97027e-10
8.52486e-10
-1.67011e-09
-1.82808e-10
1.70402e-09
-3.10675e-09
2.77911e-10
2.15451e-09
-4.17329e-09
6.26793e-10
2.13607e-09
-4.46474e-09
8.26094e-10
1.73266e-09
-3.70493e-09
8.25443e-10
1.24286e-09
-2.08198e-09
6.41507e-10
9.9893e-10
-1.1732e-11
3.63634e-10
1.13618e-09
1.95306e-09
2.16209e-10
1.60002e-09
3.47067e-09
2.02724e-10
2.13138e-09
4.31383e-09
3.41878e-10
2.42684e-09
4.4168e-09
5.64065e-10
2.25475e-09
3.86219e-09
7.64878e-10
1.49973e-09
2.88888e-09
8.96609e-10
3.15751e-10
1.65157e-09
9.1819e-10
-9.80319e-10
2.65066e-10
8.51826e-10
-2.13347e-09
-1.06931e-09
6.94052e-10
-2.94807e-09
-2.49816e-09
6.45275e-10
-3.40411e-09
-3.82499e-09
6.79852e-10
-3.64907e-09
-4.78237e-09
7.50744e-10
-3.86595e-09
-5.0889e-09
7.53756e-10
-4.05703e-09
-4.68775e-09
6.26591e-10
-4.05409e-09
-3.76275e-09
3.6901e-10
-3.59623e-09
-2.73029e-09
8.11864e-11
-2.24262e-09
-2.49185e-09
1.20477e-10
-4.20841e-09
4.63822e-10
-1.13652e-09
-6.03001e-09
-1.13652e-09
-8.96157e-11
2.59719e-09
-8.86028e-10
9.93684e-10
5.8875e-10
-6.81239e-10
2.28022e-09
-3.88864e-10
-4.37945e-10
3.52007e-09
-1.59734e-09
-9.53204e-11
4.58465e-09
-3.06959e-09
2.8924e-10
5.1202e-09
-4.2787e-09
5.921e-10
4.90689e-09
-4.79739e-09
7.95432e-10
4.04116e-09
-4.44271e-09
8.056e-10
2.88328e-09
-3.25754e-09
6.77212e-10
1.89415e-09
-1.60884e-09
4.88549e-10
1.36135e-09
1.12411e-10
3.86908e-10
1.29197e-09
1.60242e-09
4.03528e-10
1.55482e-09
2.66106e-09
5.34784e-10
1.81941e-09
3.2823e-09
7.58865e-10
1.81632e-09
3.46068e-09
9.54381e-10
1.38388e-09
3.20638e-09
1.08549e-09
5.23002e-10
2.59417e-09
1.15302e-09
-6.15161e-10
1.66119e-09
1.12398e-09
-1.76161e-09
3.13629e-10
1.0896e-09
-2.7634e-09
-1.1724e-09
1.09209e-09
-3.54132e-09
-2.86901e-09
1.13151e-09
-4.20656e-09
-4.37114e-09
1.18995e-09
-4.82899e-09
-5.33797e-09
1.15259e-09
-5.34088e-09
-5.57965e-09
9.73697e-10
-5.48263e-09
-5.29053e-09
7.13214e-10
-4.99394e-09
-4.842e-09
5.58159e-10
-3.70342e-09
-4.72158e-09
6.68333e-10
-1.73165e-09
-5.47343e-09
9.78408e-10
-7.19462e-09
1.22549e-09
-5.33166e-10
-4.99565e-09
-5.33166e-10
1.5363e-09
5.25712e-10
-6.6624e-11
3.32423e-09
-1.33382e-09
7.09644e-11
4.96048e-09
-2.33008e-09
2.40063e-10
6.45401e-09
-3.6311e-09
4.74126e-10
7.41279e-09
-4.78675e-09
6.9136e-10
7.57234e-09
-5.3865e-09
8.8114e-10
6.93943e-09
-5.18864e-09
9.58024e-10
5.71746e-09
-4.23707e-09
9.52527e-10
4.3255e-09
-2.85504e-09
9.29046e-10
3.133e-09
-1.41507e-09
9.42672e-10
2.32804e-09
-1.80576e-10
1.0465e-09
1.84898e-09
8.23735e-10
1.21143e-09
1.53004e-09
1.54134e-09
1.39792e-09
1.16967e-09
2.04479e-09
1.56306e-09
6.315e-10
2.32303e-09
1.64658e-09
-1.08097e-10
2.29664e-09
1.62428e-09
-1.00693e-09
1.91157e-09
1.55835e-09
-1.9953e-09
1.10704e-09
1.51931e-09
-3.0232e-09
-1.64262e-10
1.48096e-09
-3.96343e-09
-1.75061e-09
1.49111e-09
-4.89087e-09
-3.41881e-09
1.4466e-09
-5.80539e-09
-4.77537e-09
1.28393e-09
-6.55022e-09
-5.60587e-09
9.73362e-10
-6.79515e-09
-6.05828e-09
6.80199e-10
-6.33217e-09
-6.42409e-09
6.24477e-10
-5.03421e-09
-6.9505e-09
7.62747e-10
-3.09774e-09
-7.71347e-09
1.0066e-09
-1.32754e-09
-8.49443e-09
1.20263e-09
-9.55624e-09
9.91724e-10
3.96464e-10
-5.83047e-09
3.96464e-10
3.01327e-09
-2.88163e-09
7.15456e-10
5.11457e-09
-4.2568e-09
7.51237e-10
7.07272e-09
-5.26896e-09
9.08243e-10
8.62209e-09
-6.36534e-09
1.10977e-09
9.49595e-09
-7.0487e-09
1.31021e-09
9.53893e-09
-6.97267e-09
1.46263e-09
8.81059e-09
-6.1089e-09
1.566e-09
7.5941e-09
-4.75059e-09
1.64587e-09
6.20689e-09
-3.29927e-09
1.74651e-09
4.8704e-09
-2.05899e-09
1.89554e-09
3.60405e-09
-1.10744e-09
2.10949e-09
2.39215e-09
-3.36394e-10
2.29132e-09
1.20485e-09
3.36044e-10
2.31675e-09
6.06122e-11
9.04676e-10
2.21479e-09
-1.00972e-09
1.29746e-09
2.03304e-09
-2.00146e-09
1.39573e-09
1.83579e-09
-2.95172e-09
1.11789e-09
1.69199e-09
-3.9129e-09
4.35563e-10
1.58469e-09
-4.93893e-09
-6.93014e-10
1.50982e-09
-6.02154e-09
-2.10009e-09
1.38864e-09
-7.10397e-09
-3.52034e-09
1.1399e-09
-7.95467e-09
-4.80837e-09
8.37073e-10
-8.2675e-09
-5.99047e-09
6.47296e-10
-7.78397e-09
-7.26853e-09
6.73101e-10
-6.48802e-09
-8.56181e-09
7.84858e-10
-4.64625e-09
-9.85261e-09
1.00027e-09
-2.80335e-09
-1.07784e-08
1.15874e-09
-1.43552e-09
-1.09297e-08
1.00152e-09
-1.19048e-08
8.56234e-10
1.16023e-09
-8.19489e-09
1.16023e-09
4.203e-09
-7.43465e-09
1.44465e-09
6.64473e-09
-8.31367e-09
1.55364e-09
8.7932e-09
-9.2403e-09
1.75936e-09
1.03841e-08
-9.99923e-09
1.97607e-09
1.12073e-08
-1.01162e-08
2.17321e-09
1.12251e-08
-9.37983e-09
2.31292e-09
1.05513e-08
-7.957e-09
2.43952e-09
9.41819e-09
-6.25628e-09
2.54965e-09
7.99887e-09
-4.6534e-09
2.67735e-09
6.34532e-09
-3.33659e-09
2.82846e-09
4.47548e-09
-2.23324e-09
2.88794e-09
2.47855e-09
-1.23607e-09
2.78647e-09
5.22514e-10
-3.53517e-10
2.53579e-09
-1.19944e-09
3.21337e-10
2.19835e-09
-2.59904e-09
6.58919e-10
1.93606e-09
-3.77791e-09
7.04222e-10
1.77489e-09
-4.89214e-09
4.99565e-10
1.64533e-09
-6.06451e-09
-2.45219e-11
1.55474e-09
-7.32027e-09
-9.06198e-10
1.40066e-09
-8.50977e-09
-2.13591e-09
1.16474e-09
-9.47626e-09
-3.58379e-09
9.74319e-10
-9.84649e-09
-5.33687e-09
8.45405e-10
-9.40523e-09
-7.4093e-09
9.24327e-10
-8.20508e-09
-9.67505e-09
1.15106e-09
-6.5114e-09
-1.17386e-08
1.42339e-09
-4.77036e-09
-1.32481e-08
1.58881e-09
-3.19296e-09
-1.39296e-08
1.50104e-09
-1.64476e-09
-1.38188e-08
1.26033e-09
-1.49245e-08
1.30391e-09
1.99704e-09
-1.22244e-08
1.99704e-09
5.37657e-09
-1.31605e-08
2.30457e-09
8.19402e-09
-1.36598e-08
2.49083e-09
1.04809e-08
-1.43099e-08
2.74445e-09
1.19981e-08
-1.45411e-08
2.98418e-09
1.26437e-08
-1.39318e-08
3.1256e-09
1.253e-08
-1.24811e-08
3.16451e-09
1.18639e-08
-1.05196e-08
3.1697e-09
1.07679e-08
-8.39757e-09
3.16721e-09
9.24623e-09
-6.39817e-09
3.18329e-09
7.25134e-09
-4.5854e-09
3.1466e-09
4.86579e-09
-2.94972e-09
2.9916e-09
2.34301e-09
-1.53925e-09
2.70404e-09
8.14001e-12
-5.98705e-10
2.44933e-09
-1.94974e-09
-1.44473e-10
2.28769e-09
-3.59228e-09
-1.31441e-11
2.17784e-09
-5.10132e-09
-5.46319e-11
2.13578e-09
-6.64758e-09
-1.58893e-10
2.08276e-09
-8.25074e-09
-4.85768e-10
1.95687e-09
-9.75772e-09
-1.21973e-09
1.72932e-09
-1.09145e-08
-2.56413e-09
1.50983e-09
-1.14566e-08
-4.52213e-09
1.41917e-09
-1.12206e-08
-7.15626e-09
1.53273e-09
-1.0208e-08
-1.0269e-08
1.80199e-09
-8.80263e-09
-1.32488e-08
2.12275e-09
-7.33314e-09
-1.55014e-08
2.2414e-09
-5.80061e-09
-1.69507e-08
2.10742e-09
-4.08884e-09
-1.75644e-08
1.84773e-09
-1.99873e-09
-1.77702e-08
1.77289e-09
-1.87559e-08
1.75122e-09
2.902e-09
-1.80465e-08
2.902e-09
6.71343e-09
-2.02399e-08
3.25347e-09
9.81522e-09
-2.03076e-08
3.53642e-09
1.2078e-08
-2.03956e-08
3.81596e-09
1.33586e-08
-1.97589e-08
3.93166e-09
1.3739e-08
-1.82292e-08
3.91107e-09
1.35078e-08
-1.59825e-08
3.72329e-09
1.28724e-08
-1.3452e-08
3.55154e-09
1.17903e-08
-1.08051e-08
3.46201e-09
1.01461e-08
-8.1998e-09
3.40261e-09
7.91715e-09
-5.72387e-09
3.3052e-09
5.29205e-09
-3.57125e-09
3.16354e-09
2.6499e-09
-2.01679e-09
3.01513e-09
2.41945e-10
-1.25585e-09
2.94047e-09
-1.9303e-09
-1.07598e-09
2.96297e-09
-3.98177e-09
-1.14607e-09
3.0341e-09
-6.12177e-09
-1.16153e-09
3.09575e-09
-8.30844e-09
-1.11962e-09
3.00442e-09
-1.03608e-08
-1.28123e-09
2.72076e-09
-1.19548e-08
-2.20939e-09
2.47785e-09
-1.29141e-08
-4.06825e-09
2.38191e-09
-1.30604e-08
-6.92464e-09
2.49107e-09
-1.24727e-08
-1.05163e-08
2.73403e-09
-1.15451e-08
-1.42022e-08
2.97854e-09
-1.05172e-08
-1.7345e-08
3.04218e-09
-9.24474e-09
-1.96543e-08
2.84576e-09
-7.62289e-09
-2.11785e-08
2.55527e-09
-5.38047e-09
-2.22226e-08
2.34648e-09
-2.61632e-09
-2.29585e-08
2.33736e-09
-2.40235e-08
2.56909e-09
3.90304e-09
-2.58529e-08
3.90304e-09
8.07286e-09
-2.8745e-08
4.3322e-09
1.13021e-08
-2.81714e-08
4.63847e-09
1.34443e-08
-2.72565e-08
4.72877e-09
1.45311e-08
-2.54374e-08
4.60858e-09
1.4843e-08
-2.28446e-08
4.32678e-09
1.46998e-08
-1.99167e-08
4.1049e-09
1.40993e-08
-1.67976e-08
3.97383e-09
1.29841e-08
-1.35901e-08
3.92262e-09
1.12292e-08
-1.03207e-08
3.88689e-09
8.91154e-09
-7.22118e-09
3.8086e-09
6.29783e-09
-4.71648e-09
3.72981e-09
3.66899e-09
-3.1863e-09
3.74255e-09
1.14531e-09
-2.64714e-09
3.83155e-09
-1.38279e-09
-2.67566e-09
4.01948e-09
-4.16267e-09
-2.64395e-09
4.15106e-09
-7.10033e-09
-2.41871e-09
4.05905e-09
-9.90285e-09
-2.20431e-09
3.75278e-09
-1.21517e-08
-2.68817e-09
3.53311e-09
-1.36888e-08
-4.25391e-09
3.4799e-09
-1.4413e-08
-7.03546e-09
3.61701e-09
-1.44834e-08
-1.07982e-08
3.89825e-09
-1.42424e-08
-1.49154e-08
4.13644e-09
-1.38885e-08
-1.86884e-08
4.12509e-09
-1.31617e-08
-2.19624e-08
3.88572e-09
-1.17976e-08
-2.46352e-08
3.60309e-09
-9.73021e-09
-2.66304e-08
3.35313e-09
-6.77217e-09
-2.84562e-08
3.22304e-09
-2.93416e-09
-3.02485e-08
3.38125e-09
-3.11891e-08
4.1682e-09
4.99887e-09
-3.58464e-08
4.99887e-09
9.20998e-09
-3.83348e-08
5.35345e-09
1.25078e-08
-3.68891e-08
5.40353e-09
1.46707e-08
-3.46521e-08
5.22486e-09
1.58609e-08
-3.16076e-08
4.9844e-09
1.64135e-08
-2.81208e-08
4.7424e-09
1.646e-08
-2.45155e-08
4.58518e-09
1.59618e-08
-2.07991e-08
4.54408e-09
1.47662e-08
-1.68884e-08
4.54514e-09
1.28745e-08
-1.28807e-08
4.50316e-09
1.05072e-08
-9.22944e-09
4.41994e-09
7.91547e-09
-6.53437e-09
4.4394e-09
5.26488e-09
-5.10123e-09
4.57416e-09
2.42034e-09
-4.59494e-09
4.77631e-09
-8.56529e-10
-4.39326e-09
4.95358e-09
-4.48477e-09
-4.02923e-09
4.95095e-09
-8.07512e-09
-3.6644e-09
4.75773e-09
-1.11433e-08
-3.82433e-09
4.60216e-09
-1.34294e-08
-5.09444e-09
4.60839e-09
-1.48797e-08
-7.68942e-09
4.81368e-09
-1.57512e-08
-1.13605e-08
5.14365e-09
-1.63338e-08
-1.56592e-08
5.41255e-09
-1.67785e-08
-1.99602e-08
5.47792e-09
-1.68741e-08
-2.38229e-08
5.23153e-09
-1.61358e-08
-2.75886e-08
4.89349e-09
-1.43945e-08
-3.10556e-08
4.68e-09
-1.16894e-08
-3.37917e-08
4.44682e-09
-7.85182e-09
-3.66963e-08
4.38037e-09
-3.0722e-09
-3.98483e-08
4.79037e-09
-3.97648e-08
5.491e-09
5.95673e-09
-4.77758e-08
5.95673e-09
1.00721e-08
-4.84862e-08
5.95473e-09
1.35214e-08
-4.61466e-08
5.73639e-09
1.60852e-08
-4.27715e-08
5.49208e-09
1.78512e-08
-3.86882e-08
5.26572e-09
1.8942e-08
-3.43844e-08
5.14305e-09
1.93133e-08
-3.00557e-08
5.16096e-09
1.8818e-08
-2.55236e-08
5.23321e-09
1.74251e-08
-2.07213e-08
5.25847e-09
1.53504e-08
-1.59645e-08
5.20616e-09
1.2878e-08
-1.19543e-08
5.25404e-09
1.02157e-08
-9.23882e-09
5.42605e-09
7.24253e-09
-7.75269e-09
5.68027e-09
3.69393e-09
-6.9565e-09
5.95754e-09
-4.75894e-10
-6.27077e-09
6.08304e-09
-4.85006e-09
-5.64556e-09
6.0124e-09
-8.86811e-09
-5.54075e-09
5.90177e-09
-1.21026e-08
-6.5255e-09
5.92954e-09
-1.45104e-08
-8.8382e-09
6.13484e-09
-1.62929e-08
-1.23923e-08
6.46231e-09
-1.78392e-08
-1.64932e-08
6.65335e-09
-1.92255e-08
-2.08673e-08
6.56941e-09
-2.01506e-08
-2.54128e-08
6.35556e-09
-2.02586e-08
-2.97771e-08
6.04485e-09
-1.9289e-08
-3.42529e-08
5.68333e-09
-1.6997e-08
-3.88071e-08
5.45568e-09
-1.33716e-08
-4.28729e-08
5.46267e-09
-8.79251e-09
-4.69004e-08
5.64724e-09
-3.92865e-09
-5.04217e-08
5.75423e-09
-4.86436e-08
5.02569e-09
6.36394e-09
-6.05624e-08
6.36394e-09
1.09155e-08
-5.93082e-08
6.12998e-09
1.49957e-08
-5.62304e-08
5.87183e-09
1.83893e-08
-5.19683e-08
5.67691e-09
2.10484e-08
-4.71006e-08
5.63913e-09
2.28217e-08
-4.20401e-08
5.78462e-09
2.34482e-08
-3.67773e-08
6.0178e-09
2.28443e-08
-3.1158e-08
6.18323e-09
2.1214e-08
-2.53782e-08
6.25526e-09
1.89355e-08
-2.00443e-08
6.34951e-09
1.63089e-08
-1.58611e-08
6.54634e-09
1.3309e-08
-1.30763e-08
6.87068e-09
9.58326e-09
-1.12154e-08
7.23996e-09
4.99123e-09
-9.78823e-09
7.49072e-09
-1.9001e-10
-8.53943e-09