/*--------------------------------*- C++ -*----------------------------------*\
| =========                 |                                                 |
| \\      /  F ield         | OpenFOAM: The Open Source CFD Toolbox           |
|  \\    /   O peration     | Version:  2312                                  |
|   \\  /    A nd           | Website:  www.openfoam.com                      |
|    \\/     M anipulation  |                                                 |
\*---------------------------------------------------------------------------*/
FoamFile
{
    version     2.0;
    format      ascii;
    arch        "LSB;label=32;scalar=64";
    class       volVectorField;
    location    "0.748016";
    object      U;
}
// * * * * * * * * * * * * * * * * * * * * * * * * * * * * * * * * * * * * * //

dimensions      [0 1 -1 0 0 0 0];

internalField   nonuniform List<vector> 
90000
(
(3.31534e-06 -2.68189e-06 3.31534e-06)
(-3.75284e-06 8.74623e-06 -4.1895e-07)
(-1.64652e-05 6.39628e-06 -1.25687e-06)
(-2.09712e-05 5.1988e-06 -2.3962e-06)
(-2.35522e-05 4.03299e-06 -3.08118e-06)
(-2.33082e-05 2.5323e-06 -3.56344e-06)
(-2.06118e-05 1.0721e-06 -3.88467e-06)
(-1.62417e-05 1.15679e-07 -3.93265e-06)
(-1.14821e-05 -1.79561e-07 -3.74294e-06)
(-7.44518e-06 3.45359e-07 -3.60615e-06)
(-4.64624e-06 1.30121e-06 -3.75385e-06)
(-2.88522e-06 2.43929e-06 -4.19491e-06)
(-1.39073e-06 3.29794e-06 -4.77557e-06)
(6.71487e-07 3.56499e-06 -5.37862e-06)
(4.23796e-06 3.15677e-06 -5.75605e-06)
(9.58425e-06 2.22625e-06 -5.63166e-06)
(1.58757e-05 1.02755e-06 -4.74366e-06)
(2.16018e-05 1.68405e-07 -3.09587e-06)
(2.49502e-05 2.03148e-07 -1.27488e-06)
(2.4331e-05 1.25525e-06 3.15974e-07)
(1.88544e-05 3.19779e-06 1.48768e-06)
(8.51655e-06 5.60501e-06 1.60271e-06)
(-5.9374e-06 7.66638e-06 7.6147e-07)
(-2.20762e-05 8.7677e-06 -1.05762e-06)
(-3.58812e-05 7.83045e-06 -3.68542e-06)
(-4.33582e-05 4.92514e-06 -6.11553e-06)
(-4.32461e-05 7.89584e-07 -6.91944e-06)
(-3.75826e-05 -6.16717e-06 -1.91726e-06)
(-3.92153e-05 -1.33955e-05 1.5135e-05)
(-2.27005e-05 -5.49068e-05 5.68821e-05)
(-2.60025e-06 3.04399e-06 -2.60025e-06)
(-5.84795e-06 2.03506e-05 -2.37129e-06)
(-7.14702e-06 1.5379e-05 -2.2999e-06)
(-7.99689e-06 1.21662e-05 -1.7191e-06)
(-8.32569e-06 8.77172e-06 -1.08646e-06)
(-8.1169e-06 4.94185e-06 -5.98728e-07)
(-7.50053e-06 1.49796e-06 -3.23078e-07)
(-6.66375e-06 -7.43788e-07 -2.79389e-07)
(-5.59293e-06 -1.32629e-06 -3.959e-07)
(-4.21915e-06 -2.78091e-07 -6.35788e-07)
(-2.43986e-06 1.68559e-06 -8.03391e-07)
(-9.46571e-08 3.67722e-06 -8.39028e-07)
(2.69323e-06 4.96867e-06 -6.48941e-07)
(5.64366e-06 5.11285e-06 -2.82865e-07)
(8.43805e-06 4.14016e-06 2.60552e-07)
(1.06332e-05 2.34813e-06 8.09253e-07)
(1.17223e-05 6.77226e-07 9.82315e-07)
(1.16845e-05 3.49447e-07 5.71992e-07)
(1.06158e-05 1.92458e-06 -1.40698e-07)
(8.39607e-06 5.31047e-06 -9.0561e-07)
(5.37945e-06 9.95668e-06 -1.70076e-06)
(1.99525e-06 1.48145e-05 -1.96386e-06)
(-1.24089e-06 1.80669e-05 -1.82137e-06)
(-3.30245e-06 1.81642e-05 -1.11838e-06)
(-3.41726e-06 1.3199e-05 1.15334e-07)
(-7.313e-07 3.89337e-06 8.69264e-07)
(3.35153e-06 -5.54452e-06 -1.9978e-07)
(1.6439e-05 -8.31802e-06 -4.25834e-06)
(-2.45327e-06 -9.41235e-06 -3.78169e-06)
(-1.65282e-05 -0.000117202 4.38354e-06)
(-2.98598e-06 1.38209e-05 -2.98598e-06)
(-1.21379e-06 2.16128e-05 -1.79636e-06)
(4.3214e-06 1.65831e-05 -9.83749e-07)
(6.06574e-06 1.28519e-05 6.61926e-08)
(6.87607e-06 8.83455e-06 8.46562e-07)
(6.04673e-06 4.75917e-06 1.24706e-06)
(4.06841e-06 1.36528e-06 1.21549e-06)
(1.60864e-06 -8.50335e-07 8.92924e-07)
(-3.74392e-07 -1.5327e-06 3.60627e-07)
(-1.00342e-06 -9.76994e-07 -1.52772e-07)
(2.65515e-08 2.23968e-07 -4.60512e-07)
(2.60206e-06 1.22033e-06 -2.87079e-07)
(5.95706e-06 1.69002e-06 3.06227e-07)
(8.69424e-06 1.61273e-06 1.04475e-06)
(9.66061e-06 1.19943e-06 1.72306e-06)
(8.37799e-06 8.73556e-07 1.99453e-06)
(5.11843e-06 1.3477e-06 1.6056e-06)
(8.19039e-07 3.27324e-06 5.85079e-07)
(-3.20872e-06 6.47484e-06 -9.57044e-07)
(-5.17358e-06 1.07646e-05 -2.42974e-06)
(-3.748e-06 1.51558e-05 -3.5337e-06)
(1.26563e-06 1.86325e-05 -3.80167e-06)
(9.05458e-06 1.94774e-05 -3.13595e-06)
(1.79643e-05 1.61917e-05 -1.33541e-06)
(2.61191e-05 8.13551e-06 1.6672e-06)
(3.1342e-05 -4.4103e-06 5.23868e-06)
(3.24622e-05 -1.66413e-05 6.8712e-06)
(4.31348e-05 -1.3747e-05 2.95396e-08)
(3.99974e-05 2.2364e-05 -4.77376e-06)
(1.32568e-05 -8.88718e-05 -2.4391e-05)
(-2.26397e-06 1.65264e-05 -2.26397e-06)
(2.9982e-06 1.40402e-05 7.85414e-08)
(1.23889e-05 1.07735e-05 9.18857e-07)
(1.58104e-05 8.36245e-06 1.82466e-06)
(1.71249e-05 6.10988e-06 2.30077e-06)
(1.56535e-05 4.12839e-06 2.37181e-06)
(1.2224e-05 2.5151e-06 2.01379e-06)
(7.85196e-06 1.39297e-06 1.37026e-06)
(4.00532e-06 7.13123e-07 7.09547e-07)
(1.798e-06 2.06161e-07 9.09264e-08)
(1.47334e-06 -2.85556e-07 -2.7111e-07)
(2.80442e-06 -7.35793e-07 -1.96268e-07)
(4.86834e-06 -1.01698e-06 2.23525e-07)
(6.12539e-06 -6.86431e-07 6.8625e-07)
(5.60952e-06 5.89377e-07 9.18618e-07)
(3.03585e-06 2.90805e-06 8.1509e-07)
(-1.12722e-06 5.95461e-06 2.74666e-07)
(-5.64588e-06 9.31604e-06 -7.28049e-07)
(-8.68942e-06 1.22593e-05 -1.82627e-06)
(-8.34856e-06 1.46487e-05 -2.62136e-06)
(-3.62769e-06 1.5944e-05 -3.11977e-06)
(5.5837e-06 1.59665e-05 -3.01996e-06)
(1.75593e-05 1.38474e-05 -2.29022e-06)
(2.93907e-05 9.38337e-06 -9.02662e-07)
(3.82332e-05 3.25078e-06 1.13969e-06)
(4.07865e-05 -4.28677e-06 4.09708e-06)
(3.42118e-05 -1.55625e-05 7.51718e-06)
(2.58748e-05 -2.33506e-05 8.34058e-06)
(2.61786e-05 3.54871e-05 4.50181e-06)
(1.47532e-05 -2.64776e-05 -1.43864e-05)
(-3.53536e-07 1.4088e-05 -3.53536e-07)
(6.9975e-06 4.20701e-07 1.95735e-06)
(1.72633e-05 6.16434e-07 2.54774e-06)
(2.1508e-05 6.59595e-07 3.01313e-06)
(2.31933e-05 1.50436e-06 3.1009e-06)
(2.18577e-05 2.74764e-06 2.84763e-06)
(1.82525e-05 3.88179e-06 2.32576e-06)
(1.34543e-05 4.49998e-06 1.70812e-06)
(8.65829e-06 4.29527e-06 1.13864e-06)
(4.81561e-06 3.11102e-06 6.68819e-07)
(2.19666e-06 1.31195e-06 2.39791e-07)
(5.75294e-07 -3.15833e-07 -6.15592e-08)
(-3.99147e-07 -9.94589e-07 -2.46929e-07)
(-1.2477e-06 -7.74401e-08 -4.83933e-07)
(-2.48839e-06 2.68074e-06 -8.22922e-07)
(-4.26435e-06 6.66855e-06 -1.21235e-06)
(-6.13215e-06 1.09084e-05 -1.55582e-06)
(-7.37895e-06 1.42855e-05 -1.65279e-06)
(-6.99565e-06 1.56041e-05 -1.63476e-06)
(-3.96942e-06 1.49007e-05 -1.44923e-06)
(2.2352e-06 1.2691e-05 -1.16282e-06)
(1.10673e-05 9.49677e-06 -7.63492e-07)
(2.08675e-05 5.8928e-06 -2.95208e-07)
(2.93378e-05 2.92769e-06 -4.73852e-08)
(3.44709e-05 1.68145e-06 -4.44236e-07)
(3.50298e-05 3.15498e-06 -1.5494e-06)
(2.89011e-05 3.02563e-06 -2.73566e-06)
(5.62056e-06 -6.03299e-06 -1.64258e-06)
(6.85981e-07 3.917e-05 -2.36033e-06)
(7.01996e-06 9.01847e-06 -1.38236e-05)
(1.21192e-06 7.11328e-06 1.21192e-06)
(8.93233e-06 -1.5877e-05 2.94335e-06)
(1.81199e-05 -1.15334e-05 3.20043e-06)
(2.25606e-05 -8.44937e-06 3.10853e-06)
(2.49283e-05 -4.01803e-06 2.77173e-06)
(2.48855e-05 8.27398e-07 2.30672e-06)
(2.27439e-05 5.10341e-06 1.8755e-06)
(1.90114e-05 7.92693e-06 1.59308e-06)
(1.41935e-05 8.83881e-06 1.39888e-06)
(8.73755e-06 7.91506e-06 1.15403e-06)
(3.06512e-06 5.81145e-06 8.23071e-07)
(-2.34007e-06 3.64199e-06 2.53586e-07)
(-6.9375e-06 2.64983e-06 -5.34878e-07)
(-1.00682e-05 3.42827e-06 -1.33917e-06)
(-1.1353e-05 6.08729e-06 -1.95886e-06)
(-1.08883e-05 9.69014e-06 -2.22581e-06)
(-8.90959e-06 1.30487e-05 -2.05625e-06)
(-5.80234e-06 1.48362e-05 -1.41106e-06)
(-1.76932e-06 1.39707e-05 -4.2465e-07)
(2.97405e-06 1.08451e-05 6.49145e-07)
(8.02743e-06 6.64577e-06 1.48402e-06)
(1.28249e-05 2.42648e-06 1.98984e-06)
(1.66426e-05 1.33476e-07 1.80046e-06)
(1.85578e-05 1.19824e-06 1.03163e-06)
(1.73943e-05 5.77175e-06 -4.14468e-07)
(1.33828e-05 1.40225e-05 -2.81261e-06)
(9.79509e-06 2.61656e-05 -6.1876e-06)
(-4.34181e-06 2.6185e-05 -7.9127e-06)
(-1.09274e-05 5.24287e-05 -8.22573e-06)
(-2.35287e-06 2.72875e-05 -1.1712e-05)
(1.42633e-06 -1.58553e-06 1.42633e-06)
(7.78058e-06 -3.07181e-05 2.27671e-06)
(1.52456e-05 -2.25478e-05 1.98142e-06)
(1.99e-05 -1.66753e-05 1.40114e-06)
(2.3637e-05 -9.13556e-06 8.59972e-07)
(2.60043e-05 -1.07245e-06 5.28067e-07)
(2.66029e-05 6.10639e-06 5.63528e-07)
(2.49767e-05 1.13306e-05 8.87162e-07)
(2.0829e-05 1.40709e-05 1.36586e-06)
(1.42334e-05 1.44981e-05 1.63325e-06)
(5.81532e-06 1.32791e-05 1.49752e-06)
(-3.10636e-06 1.12176e-05 9.58884e-07)
(-1.08809e-05 9.28045e-06 1.89868e-07)
(-1.597e-05 8.18611e-06 -7.67173e-07)
(-1.74708e-05 8.34511e-06 -1.4839e-06)
(-1.55158e-05 9.13313e-06 -1.58206e-06)
(-1.09402e-05 9.79606e-06 -8.91585e-07)
(-4.93602e-06 9.32326e-06 3.27957e-07)
(1.08818e-06 7.03863e-06 1.72014e-06)
(5.74887e-06 3.3561e-06 2.83661e-06)
(8.28823e-06 -5.89239e-07 3.68052e-06)
(8.55355e-06 -3.0002e-06 3.76166e-06)
(6.76035e-06 -1.80324e-06 3.05776e-06)
(3.32918e-06 4.00814e-06 1.53512e-06)
(-1.55898e-06 1.3844e-05 -6.09473e-07)
(-7.86986e-06 2.61511e-05 -2.97007e-06)
(-1.08215e-05 4.1841e-05 -5.90558e-06)
(-1.4057e-05 4.82814e-05 -6.81948e-06)
(-1.2382e-05 6.16781e-05 -7.05905e-06)
(-3.6092e-06 3.4369e-05 -6.63565e-06)
(-1.81477e-07 -7.40923e-06 -1.81477e-07)
(3.80059e-06 -4.07791e-05 -1.47735e-07)
(1.02219e-05 -2.97236e-05 -9.45038e-07)
(1.53466e-05 -2.21828e-05 -1.60359e-06)
(2.11e-05 -1.27854e-05 -1.87216e-06)
(2.63486e-05 -2.84863e-06 -1.68127e-06)
(2.99282e-05 6.43914e-06 -1.02561e-06)
(3.06645e-05 1.41018e-05 4.83622e-08)
(2.7723e-05 1.93696e-05 1.17652e-06)
(2.09868e-05 2.20436e-05 2.00059e-06)
(1.12706e-05 2.2296e-05 2.40278e-06)
(4.19352e-07 2.03236e-05 2.23231e-06)
(-9.29005e-06 1.66695e-05 1.70906e-06)
(-1.60029e-05 1.23065e-05 1.24964e-06)
(-1.86736e-05 8.24067e-06 1.00026e-06)
(-1.74392e-05 4.68078e-06 1.07414e-06)
(-1.33542e-05 1.78398e-06 1.69626e-06)
(-7.91815e-06 -8.1977e-07 2.67761e-06)
(-2.9133e-06 -3.54014e-06 3.7283e-06)
(9.45119e-08 -6.12898e-06 4.42245e-06)
(6.84344e-07 -7.69539e-06 4.54083e-06)
(-1.11488e-06 -6.72773e-06 4.19249e-06)
(-5.24386e-06 -1.913e-06 3.35383e-06)
(-1.05421e-05 7.05541e-06 2.13379e-06)
(-1.54893e-05 1.98177e-05 5.24437e-07)
(-1.95366e-05 3.35787e-05 -1.03906e-06)
(-1.99597e-05 4.71061e-05 -2.47197e-06)
(-1.71394e-05 5.37129e-05 -2.69552e-06)
(-8.25753e-06 5.71914e-05 -2.1729e-06)
(-4.56699e-07 3.14288e-05 6.61882e-07)
(-2.76211e-06 -5.64318e-06 -2.76211e-06)
(-1.2302e-06 -4.46589e-05 -3.15143e-06)
(4.9813e-06 -3.19827e-05 -3.84191e-06)
(1.06126e-05 -2.43891e-05 -4.16621e-06)
(1.79767e-05 -1.49647e-05 -3.92463e-06)
(2.51714e-05 -4.76963e-06 -3.11727e-06)
(3.08626e-05 5.57853e-06 -1.88538e-06)
(3.35308e-05 1.52816e-05 -3.72817e-07)
(3.21982e-05 2.32923e-05 1.14704e-06)
(2.67897e-05 2.84862e-05 2.35767e-06)
(1.81844e-05 3.01363e-05 3.16798e-06)
(8.07609e-06 2.78801e-05 3.69702e-06)
(-1.64042e-06 2.21423e-05 3.96747e-06)
(-9.37449e-06 1.41774e-05 4.10255e-06)
(-1.44878e-05 5.73079e-06 4.32653e-06)
(-1.70828e-05 -1.90092e-06 4.48375e-06)
(-1.75476e-05 -7.81e-06 4.671e-06)
(-1.65946e-05 -1.18385e-05 4.6432e-06)
(-1.50129e-05 -1.4283e-05 4.38779e-06)
(-1.37351e-05 -1.51898e-05 3.85664e-06)
(-1.33386e-05 -1.40159e-05 3.21882e-06)
(-1.39804e-05 -1.01371e-05 2.67861e-06)
(-1.58105e-05 -3.06555e-06 2.07121e-06)
(-1.82731e-05 7.13247e-06 1.71292e-06)
(-2.02042e-05 1.95683e-05 1.5085e-06)
(-2.05399e-05 3.17983e-05 1.6072e-06)
(-1.76129e-05 4.07548e-05 1.64415e-06)
(-1.17246e-05 4.36689e-05 2.57127e-06)
(-1.62634e-06 4.18255e-05 3.94946e-06)
(2.61117e-06 2.2715e-05 5.16345e-06)
(-4.09169e-06 3.83013e-06 -4.09169e-06)
(-4.05149e-06 -4.3856e-05 -4.3582e-06)
(1.54552e-06 -3.08945e-05 -4.52926e-06)
(6.66545e-06 -2.49773e-05 -4.4022e-06)
(1.36821e-05 -1.71272e-05 -3.52694e-06)
(2.05146e-05 -7.79731e-06 -2.34129e-06)
(2.60584e-05 2.88998e-06 -1.01742e-06)
(2.93409e-05 1.40531e-05 2.53378e-07)
(2.98677e-05 2.41135e-05 1.35742e-06)
(2.76184e-05 3.13903e-05 2.42581e-06)
(2.29335e-05 3.41542e-05 3.35717e-06)
(1.64639e-05 3.15738e-05 4.37731e-06)
(8.91071e-06 2.43294e-05 5.42197e-06)
(7.58134e-07 1.41125e-05 6.17643e-06)
(-7.71483e-06 3.12646e-06 6.46182e-06)
(-1.59821e-05 -6.53372e-06 6.2707e-06)
(-2.3169e-05 -1.38158e-05 5.42744e-06)
(-2.83379e-05 -1.84087e-05 3.97582e-06)
(-3.07803e-05 -2.07903e-05 2.2879e-06)
(-3.07123e-05 -2.08824e-05 7.38367e-07)
(-2.87937e-05 -1.88913e-05 -3.74705e-07)
(-2.58206e-05 -1.42533e-05 -8.87476e-07)
(-2.27066e-05 -6.71686e-06 -8.29072e-07)
(-2.00159e-05 3.17627e-06 -2.35303e-07)
(-1.73591e-05 1.37189e-05 5.55982e-07)
(-1.37403e-05 2.29374e-05 1.61836e-06)
(-8.39846e-06 2.78115e-05 2.85617e-06)
(-2.32433e-06 2.77282e-05 4.17852e-06)
(3.42205e-06 2.53521e-05 4.84414e-06)
(3.22108e-06 1.53084e-05 4.30249e-06)
(-1.9588e-06 1.29852e-05 -1.9588e-06)
(-2.12803e-06 -4.21568e-05 -1.86217e-06)
(1.00145e-07 -3.03758e-05 -1.27988e-06)
(2.4409e-06 -2.66965e-05 -7.32283e-07)
(5.78926e-06 -2.08973e-05 2.48147e-07)
(8.99136e-06 -1.26814e-05 1.00004e-06)
(1.19843e-05 -2.08936e-06 1.37048e-06)
(1.4734e-05 9.76272e-06 1.38236e-06)
(1.74755e-05 2.08603e-05 1.25661e-06)
(2.0105e-05 2.91663e-05 1.40867e-06)
(2.17266e-05 3.28404e-05 2.18459e-06)
(2.11506e-05 3.09306e-05 3.16856e-06)
(1.73336e-05 2.43952e-05 4.41356e-06)
(9.59123e-06 1.51196e-05 5.2716e-06)
(-1.78508e-06 5.15238e-06 5.34057e-06)
(-1.51273e-05 -3.60067e-06 4.35401e-06)
(-2.78996e-05 -1.04768e-05 2.54843e-06)
(-3.78734e-05 -1.57375e-05 2.05175e-07)
(-4.32236e-05 -1.94117e-05 -1.92285e-06)
(-4.33107e-05 -2.13328e-05 -3.51895e-06)
(-3.91921e-05 -2.13317e-05 -4.37271e-06)
(-3.26732e-05 -1.83147e-05 -4.42932e-06)
(-2.54186e-05 -1.19162e-05 -3.87314e-06)
(-1.84747e-05 -3.37139e-06 -2.93689e-06)
(-1.18986e-05 5.32635e-06 -1.62107e-06)
(-5.3615e-06 1.2048e-05 -1.34372e-07)
(5.8805e-07 1.51084e-05 1.18862e-06)
(4.40745e-06 1.55284e-05 1.99997e-06)
(5.71246e-06 1.58957e-05 1.93719e-06)
(3.05784e-06 1.25617e-05 2.00026e-06)
(4.73774e-06 1.15015e-05 4.73774e-06)
(4.28984e-06 -4.18424e-05 4.81869e-06)
(-1.95605e-06 -3.28855e-05 5.73798e-06)
(-4.78284e-06 -3.03678e-05 5.57797e-06)
(-8.13478e-06 -2.59331e-05 5.54283e-06)
(-1.06831e-05 -1.84294e-05 4.65368e-06)
(-1.13134e-05 -8.20665e-06 3.16223e-06)
(-8.90852e-06 3.38477e-06 1.41026e-06)
(-3.11481e-06 1.40901e-05 -2.54478e-07)
(5.36502e-06 2.22033e-05 -1.07236e-06)
(1.43179e-05 2.67393e-05 -7.80896e-07)
(2.04285e-05 2.7494e-05 2.68129e-07)
(2.09899e-05 2.51309e-05 9.32515e-07)
(1.47686e-05 2.0917e-05 1.15913e-06)
(2.74796e-06 1.5736e-05 8.25329e-07)
(-1.23954e-05 1.03322e-05 -4.92197e-07)
(-2.75866e-05 4.38404e-06 -2.26466e-06)
(-3.92919e-05 -2.64553e-06 -3.88487e-06)
(-4.51407e-05 -1.0144e-05 -5.28121e-06)
(-4.50309e-05 -1.67712e-05 -5.95433e-06)
(-4.02706e-05 -2.09441e-05 -6.02176e-06)
(-3.27589e-05 -2.12887e-05 -5.45248e-06)
(-2.42218e-05 -1.74431e-05 -4.50163e-06)
(-1.56818e-05 -1.083e-05 -3.39267e-06)
(-7.45301e-06 -3.66149e-06 -2.26725e-06)
(4.66515e-08 2.10152e-06 -9.16749e-07)
(5.74671e-06 5.91599e-06 1.92038e-07)
(8.20351e-06 9.10573e-06 8.50999e-07)
(8.2923e-06 1.22688e-05 1.4983e-06)
(4.20264e-06 1.21052e-05 3.43893e-06)
(1.286e-05 -1.0559e-05 1.286e-05)
(1.08359e-05 -4.2121e-05 1.1635e-05)
(-6.97312e-06 -3.64834e-05 1.15598e-05)
(-1.58126e-05 -3.35466e-05 1.02173e-05)
(-2.62304e-05 -2.89291e-05 8.24546e-06)
(-3.40419e-05 -2.16042e-05 5.48386e-06)
(-3.71181e-05 -1.24613e-05 2.34471e-06)
(-3.38638e-05 -2.92786e-06 -6.05004e-07)
(-2.4047e-05 5.45198e-06 -2.62915e-06)
(-9.75124e-06 1.22059e-05 -3.63791e-06)
(5.16754e-06 1.79582e-05 -3.65232e-06)
(1.64532e-05 2.31896e-05 -3.06792e-06)
(2.08073e-05 2.78139e-05 -2.41047e-06)
(1.71272e-05 3.1496e-05 -2.42756e-06)
(7.13558e-06 3.30487e-05 -3.06023e-06)
(-6.04039e-06 3.14041e-05 -3.79123e-06)
(-1.90805e-05 2.55175e-05 -4.45983e-06)
(-2.87501e-05 1.5156e-05 -5.01292e-06)
(-3.37325e-05 2.17308e-06 -4.93424e-06)
(-3.43251e-05 -1.02115e-05 -4.2982e-06)
(-3.17417e-05 -1.9562e-05 -3.46921e-06)
(-2.71135e-05 -2.38637e-05 -2.57441e-06)
(-2.11702e-05 -2.31772e-05 -1.75068e-06)
(-1.43152e-05 -1.88021e-05 -9.66454e-07)
(-6.62516e-06 -1.31752e-05 -1.47895e-07)
(9.53035e-07 -7.70175e-06 8.86736e-07)
(6.85966e-06 -2.39243e-06 2.07379e-06)
(9.90961e-06 2.82535e-06 3.53933e-06)
(1.07692e-05 6.7058e-06 5.23558e-06)
(5.64393e-06 1.04376e-05 7.32349e-06)
(1.78449e-05 -4.98223e-05 1.78449e-05)
(1.24718e-05 -3.76366e-05 1.33944e-05)
(-1.54939e-05 -3.53523e-05 1.20376e-05)
(-2.84803e-05 -3.15287e-05 9.48563e-06)
(-4.20601e-05 -2.56039e-05 6.36484e-06)
(-5.09613e-05 -1.89179e-05 2.79572e-06)
(-5.33334e-05 -1.28855e-05 -4.22689e-07)
(-4.75959e-05 -8.21578e-06 -2.58537e-06)
(-3.42887e-05 -4.33757e-06 -3.87171e-06)
(-1.70573e-05 2.06153e-07 -4.13805e-06)
(-3.67488e-08 7.63159e-06 -3.72134e-06)
(1.27978e-05 1.81353e-05 -3.27844e-06)
(1.90034e-05 3.04793e-05 -3.0941e-06)
(1.84366e-05 4.19215e-05 -3.16603e-06)
(1.28825e-05 4.91655e-05 -3.17001e-06)
(5.14269e-06 4.99158e-05 -3.18863e-06)
(-2.59409e-06 4.29777e-05 -2.78127e-06)
(-9.09562e-06 2.87684e-05 -1.77888e-06)
(-1.40083e-05 1.10334e-05 -3.38606e-07)
(-1.75517e-05 -6.1204e-06 1.04248e-06)
(-1.99157e-05 -1.95451e-05 2.16521e-06)
(-2.11032e-05 -2.70714e-05 2.84043e-06)
(-2.03775e-05 -2.92197e-05 2.98659e-06)
(-1.67633e-05 -2.73848e-05 2.78698e-06)
(-1.05513e-05 -2.37374e-05 3.0158e-06)
(-3.25231e-06 -1.90184e-05 3.86767e-06)
(3.01801e-06 -1.3365e-05 5.15301e-06)
(6.85215e-06 -7.81973e-06 6.97142e-06)
(7.27012e-06 -2.96348e-06 8.37553e-06)
(3.37394e-06 6.99028e-06 6.98595e-06)
(1.45568e-05 -8.72242e-05 1.45568e-05)
(5.49045e-06 -2.24559e-05 9.06854e-06)
(-2.34167e-05 -2.47255e-05 6.89125e-06)
(-3.5592e-05 -2.08682e-05 3.94144e-06)
(-4.634e-05 -1.54737e-05 1.11785e-06)
(-5.18751e-05 -1.22636e-05 -9.02435e-07)
(-5.03713e-05 -1.22639e-05 -2.07601e-06)
(-4.12848e-05 -1.46195e-05 -2.20908e-06)
(-2.70777e-05 -1.63355e-05 -1.6002e-06)
(-1.17159e-05 -1.37436e-05 -1.08983e-06)
(1.81462e-06 -4.31705e-06 -4.29233e-07)
(1.13843e-05 1.11311e-05 -2.93897e-07)
(1.65904e-05 2.97188e-05 -6.3931e-07)
(1.84039e-05 4.65838e-05 -1.05379e-06)
(1.80751e-05 5.69723e-05 -8.59619e-07)
(1.65201e-05 5.82876e-05 -4.79971e-09)
(1.40704e-05 4.99263e-05 1.65521e-06)
(1.02544e-05 3.34857e-05 3.62508e-06)
(4.48582e-06 1.35108e-05 5.44689e-06)
(-3.21746e-06 -5.51477e-06 6.70435e-06)
(-1.18182e-05 -2.01687e-05 7.06576e-06)
(-1.92669e-05 -2.94068e-05 6.4586e-06)
(-2.3209e-05 -3.39739e-05 5.34091e-06)
(-2.25748e-05 -3.52467e-05 4.69119e-06)
(-1.8181e-05 -3.41872e-05 4.77453e-06)
(-1.2158e-05 -3.07928e-05 5.38409e-06)
(-7.0924e-06 -2.52595e-05 6.05779e-06)
(-4.2363e-06 -1.82927e-05 6.23695e-06)
(-5.79511e-06 -9.43399e-06 4.85884e-06)
(-4.10569e-06 3.51305e-06 6.42441e-07)
(5.58921e-06 -0.000104225 5.58921e-06)
(-4.62742e-06 3.0174e-07 -3.02005e-07)
(-2.37733e-05 -7.29211e-06 -1.42993e-06)
(-3.0273e-05 -5.53815e-06 -2.90667e-06)
(-3.37631e-05 -4.42911e-06 -3.06308e-06)
(-3.1941e-05 -7.96125e-06 -2.36771e-06)
(-2.50678e-05 -1.58343e-05 -1.04561e-06)
(-1.53611e-05 -2.47897e-05 7.08534e-07)
(-5.17863e-06 -3.01204e-05 2.29163e-06)
(2.91352e-06 -2.7782e-05 3.3294e-06)
(7.68235e-06 -1.58578e-05 3.39163e-06)
(1.03086e-05 3.48428e-06 2.57663e-06)
(1.26025e-05 2.54741e-05 1.48518e-06)
(1.57959e-05 4.4187e-05 7.98423e-07)
(1.97232e-05 5.51292e-05 1.10402e-06)
(2.2969e-05 5.61335e-05 2.43598e-06)
(2.38149e-05 4.74829e-05 4.26223e-06)
(2.06488e-05 3.17963e-05 6.16575e-06)
(1.25279e-05 1.33326e-05 7.38689e-06)
(8.4992e-07 -4.02117e-06 7.6637e-06)
(-1.16582e-05 -1.79357e-05 7.03318e-06)
(-2.20202e-05 -2.83246e-05 6.04891e-06)
(-2.78223e-05 -3.58389e-05 5.19187e-06)
(-2.8929e-05 -4.09117e-05 5.05454e-06)
(-2.71324e-05 -4.25034e-05 5.26059e-06)
(-2.46461e-05 -3.97382e-05 5.33804e-06)
(-2.30689e-05 -3.2761e-05 4.54713e-06)
(-2.25711e-05 -2.19517e-05 2.32378e-06)
(-2.27827e-05 -9.39165e-06 -1.30681e-06)
(-1.17543e-05 -5.57656e-06 -2.2684e-06)
(-4.375e-06 -9.46866e-05 -4.375e-06)
(-1.13215e-05 2.0911e-05 -6.28114e-06)
(-1.36885e-05 6.92471e-06 -5.58014e-06)
(-1.12516e-05 4.33791e-06 -5.42624e-06)
(-5.16928e-06 -9.71829e-07 -3.71397e-06)
(3.67006e-06 -1.17375e-05 -1.39258e-06)
(1.28884e-05 -2.51972e-05 1.38639e-06)
(1.96124e-05 -3.67191e-05 3.7687e-06)
(2.19702e-05 -4.15757e-05 5.18155e-06)
(1.96785e-05 -3.67373e-05 5.28365e-06)
(1.47838e-05 -2.16627e-05 4.134e-06)
(1.08268e-05 -5.91391e-07 2.2317e-06)
(1.00776e-05 2.11903e-05 8.43237e-07)
(1.32592e-05 3.82288e-05 4.49334e-07)
(1.86093e-05 4.76862e-05 1.19363e-06)
(2.30155e-05 4.86055e-05 2.78347e-06)
(2.3873e-05 4.1679e-05 4.17778e-06)
(1.93304e-05 2.95609e-05 5.34873e-06)
(9.43792e-06 1.50415e-05 5.97479e-06)
(-3.24268e-06 6.61796e-07 6.0544e-06)
(-1.58513e-05 -1.28569e-05 5.45047e-06)
(-2.58853e-05 -2.56107e-05 5.3517e-06)
(-3.20285e-05 -3.70624e-05 5.68971e-06)
(-3.52917e-05 -4.55179e-05 6.22449e-06)
(-3.74709e-05 -4.85314e-05 6.29082e-06)
(-3.94947e-05 -4.50553e-05 5.30741e-06)
(-4.06432e-05 -3.6031e-05 3.15487e-06)
(-3.87717e-05 -2.35286e-05 5.84128e-07)
(-3.08453e-05 -1.4756e-05 7.03559e-09)
(-1.2763e-05 -2.74629e-05 1.56573e-06)
(-8.34585e-06 -7.09963e-05 -8.34585e-06)
(-8.30923e-06 2.83798e-05 -6.74503e-06)
(4.55821e-06 9.42555e-06 -5.72374e-06)
(1.59779e-05 2.65924e-06 -4.54771e-06)
(2.88733e-05 -8.76531e-06 -2.451e-06)
(4.06722e-05 -2.33844e-05 1.97784e-07)
(4.89344e-05 -3.70502e-05 2.71728e-06)
(5.06069e-05 -4.54812e-05 4.30933e-06)
(4.50382e-05 -4.54548e-05 4.58558e-06)
(3.46316e-05 -3.59878e-05 3.75406e-06)
(2.3283e-05 -1.91761e-05 2.39831e-06)
(1.5359e-05 3.09114e-07 1.25981e-06)
(1.25872e-05 1.79163e-05 7.90878e-07)
(1.38602e-05 3.09123e-05 1.45259e-06)
(1.68759e-05 3.81602e-05 2.73569e-06)
(1.84725e-05 3.95131e-05 4.15793e-06)
(1.65762e-05 3.54709e-05 5.34616e-06)
(1.00738e-05 2.75681e-05 5.98715e-06)
(-2.48383e-07 1.68192e-05 6.00264e-06)
(-1.18594e-05 4.13693e-06 6.05219e-06)
(-2.27168e-05 -1.0641e-05 6.36099e-06)
(-3.16451e-05 -2.64774e-05 6.80749e-06)
(-3.86978e-05 -4.09424e-05 7.39275e-06)
(-4.50391e-05 -5.07772e-05 7.40773e-06)
(-5.08333e-05 -5.35585e-05 6.27251e-06)
(-5.43319e-05 -4.98524e-05 4.3062e-06)
(-5.31077e-05 -4.22343e-05 2.62146e-06)
(-4.44828e-05 -3.57151e-05 2.80141e-06)
(-2.75483e-05 -3.78142e-05 4.31016e-06)
(-8.76404e-06 -5.73478e-05 6.06477e-06)
(-7.21791e-06 -5.32517e-05 -7.21791e-06)
(2.01153e-06 1.68479e-05 -4.47039e-06)
(2.55526e-05 -2.36658e-06 -3.63241e-06)
(4.1272e-05 -1.19202e-05 -2.39832e-06)
(5.71474e-05 -2.55574e-05 -3.09413e-07)
(6.96359e-05 -3.90989e-05 1.69352e-06)
(7.53889e-05 -4.83659e-05 3.34732e-06)
(7.29628e-05 -5.0115e-05 4.27437e-06)
(6.34594e-05 -4.34339e-05 4.32906e-06)
(5.00427e-05 -3.03227e-05 4.11425e-06)
(3.67583e-05 -1.4592e-05 3.88794e-06)
(2.67038e-05 5.29502e-07 4.25985e-06)
(2.04147e-05 1.24925e-05 5.06545e-06)
(1.66672e-05 2.11555e-05 6.24873e-06)
(1.35599e-05 2.66776e-05 7.2702e-06)
(9.28485e-06 2.89144e-05 7.86431e-06)
(2.97534e-06 2.75202e-05 7.95226e-06)
(-5.32496e-06 2.26545e-05 7.87702e-06)
(-1.48806e-05 1.40931e-05 7.79081e-06)
(-2.50541e-05 1.5555e-06 7.71961e-06)
(-3.49141e-05 -1.4401e-05 7.99882e-06)
(-4.41196e-05 -3.15486e-05 8.00807e-06)
(-5.329e-05 -4.62269e-05 7.26948e-06)
(-6.1774e-05 -5.51334e-05 5.41641e-06)
(-6.7151e-05 -5.81457e-05 3.37944e-06)
(-6.63322e-05 -5.79486e-05 2.49926e-06)
(-5.76461e-05 -5.77771e-05 2.93229e-06)
(-4.11551e-05 -6.16106e-05 4.54583e-06)
(-2.13469e-05 -7.03211e-05 6.0459e-06)
(-5.91174e-06 -8.46741e-05 5.1859e-06)
(-2.87409e-06 -5.23866e-05 -2.87409e-06)
(1.34929e-05 -1.08635e-05 -1.43179e-07)
(4.17792e-05 -2.68447e-05 3.74515e-07)
(6.09037e-05 -3.72612e-05 1.56635e-06)
(7.87219e-05 -4.94629e-05 3.05505e-06)
(9.12507e-05 -5.88618e-05 4.68612e-06)
(9.58465e-05 -6.15657e-05 5.90749e-06)
(9.20647e-05 -5.61609e-05 6.95699e-06)
(8.20992e-05 -4.43504e-05 7.60665e-06)
(6.88628e-05 -2.99688e-05 8.2297e-06)
(5.49343e-05 -1.64934e-05 9.0357e-06)
(4.17549e-05 -5.65937e-06 1.01691e-05)
(2.95369e-05 2.56789e-06 1.12176e-05)
(1.78206e-05 9.06921e-06 1.16522e-05)
(6.33086e-06 1.427e-05 1.12265e-05)
(-4.68317e-06 1.7697e-05 1.03145e-05)
(-1.49616e-05 1.82415e-05 9.26622e-06)
(-2.46789e-05 1.50708e-05 8.48094e-06)
(-3.42446e-05 7.59805e-06 7.89013e-06)
(-4.4111e-05 -4.42053e-06 7.56104e-06)
(-5.45572e-05 -1.95666e-05 7.04576e-06)
(-6.54396e-05 -3.5096e-05 5.7602e-06)
(-7.52939e-05 -4.83327e-05 3.92177e-06)
(-8.13259e-05 -5.79443e-05 2.12387e-06)
(-8.08919e-05 -6.6042e-05 1.46981e-06)
(-7.21409e-05 -7.41439e-05 1.98879e-06)
(-5.59744e-05 -8.34685e-05 3.67473e-06)
(-3.67725e-05 -9.30954e-05 5.35083e-06)
(-2.04879e-05 -9.83544e-05 4.96242e-06)
(-6.96997e-06 -0.00010786 4.03673e-06)
(2.33414e-06 -6.86689e-05 2.33414e-06)
(2.41416e-05 -5.07737e-05 4.57803e-06)
(5.49862e-05 -6.20941e-05 5.19498e-06)
(7.72689e-05 -7.18743e-05 6.50158e-06)
(9.62779e-05 -8.14064e-05 8.16316e-06)
(0.000108636 -8.55262e-05 9.73867e-06)
(0.000112681 -8.14785e-05 1.08609e-05)
(0.000109068 -6.98873e-05 1.17897e-05)
(9.98716e-05 -5.44345e-05 1.24803e-05)
(8.70083e-05 -3.91694e-05 1.33755e-05)
(7.16125e-05 -2.65853e-05 1.44142e-05)
(5.39858e-05 -1.66912e-05 1.48854e-05)
(3.46484e-05 -8.3214e-06 1.44272e-05)
(1.48243e-05 -9.90622e-07 1.30867e-05)
(-3.59701e-06 5.32946e-06 1.12328e-05)
(-1.90993e-05 9.43621e-06 9.75371e-06)
(-3.18908e-05 1.0483e-05 8.77336e-06)
(-4.32985e-05 8.0381e-06 7.99361e-06)
(-5.46666e-05 1.8645e-06 7.26601e-06)
(-6.67518e-05 -8.18195e-06 6.38783e-06)
(-7.89985e-05 -2.11105e-05 5.11044e-06)
(-8.99165e-05 -3.51475e-05 3.45932e-06)
(-9.68039e-05 -4.99253e-05 1.97742e-06)
(-9.65939e-05 -6.60237e-05 1.79253e-06)
(-8.83495e-05 -8.38845e-05 2.97631e-06)
(-7.36839e-05 -0.000101122 5.10352e-06)
(-5.60192e-05 -0.000115667 6.71018e-06)
(-3.91449e-05 -0.000124268 6.9199e-06)
(-2.40796e-05 -0.000124127 5.59749e-06)
(-8.46581e-06 -0.00013405 5.53086e-06)
(7.48577e-06 -0.00010116 7.48577e-06)
(3.48741e-05 -0.000102127 9.43554e-06)
(6.8447e-05 -0.000109127 1.08696e-05)
(9.36373e-05 -0.0001173 1.26543e-05)
(0.000112809 -0.000122474 1.42287e-05)
(0.000123572 -0.000120135 1.53043e-05)
(0.000126076 -0.000109186 1.59224e-05)
(0.000122036 -9.21748e-05 1.61417e-05)
(0.000113156 -7.30658e-05 1.62803e-05)
(0.00010007 -5.51121e-05 1.65272e-05)
(8.25132e-05 -3.9652e-05 1.64688e-05)
(6.05869e-05 -2.62325e-05 1.56929e-05)
(3.58613e-05 -1.44234e-05 1.41276e-05)
(1.1208e-05 -5.05795e-06 1.2448e-05)
(-1.01874e-05 1.15509e-06 1.14853e-05)
(-2.78221e-05 3.57238e-06 1.07531e-05)
(-4.34559e-05 3.6458e-06 1.04148e-05)
(-5.86695e-05 1.84555e-06 1.00169e-05)
(-7.43872e-05 -2.45449e-06 9.01594e-06)
(-8.99504e-05 -1.04343e-05 7.5573e-06)
(-0.00010336 -2.22102e-05 5.98535e-06)
(-0.000111996 -3.88108e-05 4.57688e-06)
(-0.000113623 -6.10396e-05 4.63724e-06)
(-0.000107335 -8.74207e-05 6.17364e-06)
(-9.50712e-05 -0.000114155 8.37327e-06)
(-8.03127e-05 -0.000136164 9.78979e-06)
(-6.51836e-05 -0.000151163 9.35583e-06)
(-4.94511e-05 -0.000157435 7.93048e-06)
(-3.04698e-05 -0.00015726 6.88106e-06)
(-9.94525e-06 -0.000168005 6.80609e-06)
(1.29558e-05 -0.000150238 1.29558e-05)
(4.69195e-05 -0.000166344 1.52513e-05)
(8.33219e-05 -0.000169315 1.7134e-05)
(0.000109909 -0.000173363 1.88908e-05)
(0.000127609 -0.00017154 2.00182e-05)
(0.00013573 -0.000160967 2.02449e-05)
(0.00013628 -0.000142585 1.94919e-05)
(0.000131862 -0.000119828 1.86305e-05)
(0.000123307 -9.60021e-05 1.81663e-05)
(0.000109752 -7.29878e-05 1.78688e-05)
(9.03967e-05 -5.15869e-05 1.73145e-05)
(6.60275e-05 -3.26059e-05 1.62801e-05)
(3.9539e-05 -1.76508e-05 1.53011e-05)
(1.40191e-05 -8.59666e-06 1.48055e-05)
(-8.78373e-06 -5.18557e-06 1.48303e-05)
(-2.95662e-05 -5.31534e-06 1.51484e-05)
(-5.04514e-05 -5.75647e-06 1.54448e-05)
(-7.20832e-05 -5.92153e-06 1.49322e-05)
(-9.33233e-05 -8.45131e-06 1.32938e-05)
(-0.000111619 -1.60846e-05 1.14935e-05)
(-0.000124464 -3.11837e-05 1.023e-05)
(-0.000130032 -5.55024e-05 1.03824e-05)
(-0.000127761 -8.74518e-05 1.17978e-05)
(-0.000119959 -0.000122004 1.3447e-05)
(-0.000109887 -0.000153059 1.42377e-05)
(-9.85154e-05 -0.000175853 1.3417e-05)
(-8.44383e-05 -0.000190574 1.13248e-05)
(-6.54212e-05 -0.000198542 9.50104e-06)
(-3.95986e-05 -0.000202816 9.06257e-06)
(-1.25183e-05 -0.000213412 1.0545e-05)
(1.8994e-05 -0.000218389 1.8994e-05)
(5.96814e-05 -0.000244638 2.16316e-05)
(9.76521e-05 -0.000242304 2.36773e-05)
(0.000124263 -0.000238448 2.46645e-05)
(0.000140218 -0.000226359 2.45131e-05)
(0.000146959 -0.000205916 2.3045e-05)
(0.000147543 -0.000179795 2.15881e-05)
(0.000143815 -0.00015123 2.06108e-05)
(0.000135428 -0.000121932 2.02158e-05)
(0.000121142 -9.25562e-05 1.99387e-05)
(0.000100751 -6.4608e-05 1.94019e-05)
(7.59796e-05 -4.11228e-05 1.88595e-05)
(4.96495e-05 -2.5392e-05 1.88468e-05)
(2.39376e-05 -1.87898e-05 1.92546e-05)
(-1.17733e-06 -1.80171e-05 2.02099e-05)
(-2.7466e-05 -1.86885e-05 2.09101e-05)
(-5.60816e-05 -1.78137e-05 2.04049e-05)
(-8.50574e-05 -1.60299e-05 1.87375e-05)
(-0.000110386 -1.86966e-05 1.73705e-05)
(-0.000129348 -3.06225e-05 1.67217e-05)
(-0.000140626 -5.39512e-05 1.71393e-05)
(-0.000144453 -8.78136e-05 1.86326e-05)
(-0.000143413 -0.000126861 2.02544e-05)
(-0.000140418 -0.000164546 2.04414e-05)
(-0.000135169 -0.000196758 1.93e-05)
(-0.000124894 -0.000221404 1.7603e-05)
(-0.000107971 -0.000238749 1.55601e-05)
(-8.31501e-05 -0.000252817 1.41e-05)
(-4.77206e-05 -0.000265318 1.4872e-05)
(-1.35569e-05 -0.000275695 2.03306e-05)
(2.53091e-05 -0.000307897 2.53091e-05)
(7.1446e-05 -0.00033576 2.77316e-05)
(0.000109199 -0.000325839 2.87976e-05)
(0.000136373 -0.000310207 2.80392e-05)
(0.000152876 -0.000285889 2.64638e-05)
(0.000161367 -0.000255332 2.48635e-05)
(0.000164322 -0.000222149 2.37409e-05)
(0.00016215 -0.000187945 2.33259e-05)
(0.000153758 -0.000152372 2.32034e-05)
(0.000138308 -0.000115945 2.28558e-05)
(0.000116927 -8.20277e-05 2.23065e-05)
(9.20392e-05 -5.57591e-05 2.23306e-05)
(6.58394e-05 -4.08144e-05 2.29819e-05)
(3.85813e-05 -3.576e-05 2.4016e-05)
(8.09138e-06 -3.48883e-05 2.49552e-05)
(-2.65763e-05 -3.32124e-05 2.49601e-05)
(-6.28536e-05 -3.00713e-05 2.38981e-05)
(-9.6283e-05 -2.94839e-05 2.29903e-05)
(-0.000123221 -3.74168e-05 2.28631e-05)
(-0.000141807 -5.83214e-05 2.38318e-05)
(-0.000153128 -9.1202e-05 2.55542e-05)
(-0.000160266 -0.000132051 2.72979e-05)
(-0.000165357 -0.000174466 2.79526e-05)
(-0.000168203 -0.000212839 2.68292e-05)
(-0.000165418 -0.000247871 2.49239e-05)