/*--------------------------------*- C++ -*----------------------------------*\
| =========                 |                                                 |
| \\      /  F ield         | OpenFOAM: The Open Source CFD Toolbox           |
|  \\    /   O peration     | Version:  2312                                  |
|   \\  /    A nd           | Website:  www.openfoam.com                      |
|    \\/     M anipulation  |                                                 |
\*---------------------------------------------------------------------------*/
FoamFile
{
    version     2.0;
    format      ascii;
    arch        "LSB;label=32;scalar=64";
    class       surfaceScalarField;
    location    "0.248571";
    object      alphaPhi0.water;
}
// * * * * * * * * * * * * * * * * * * * * * * * * * * * * * * * * * * * * * //

dimensions      [0 3 -1 0 0 0 0];

oriented        oriented;

internalField   nonuniform List<scalar> 
263100
(
1.01753e-10
-2.03504e-10
1.01753e-10
2.19905e-10
-4.84988e-11
9.06868e-11
3.27489e-10
-9.5761e-11
1.09008e-10
4.09676e-10
-1.10583e-10
1.16895e-10
4.40873e-10
-1.19401e-10
1.29501e-10
4.22442e-10
-1.28082e-10
1.32829e-10
3.60274e-10
-1.30128e-10
1.28276e-10
2.67433e-10
-1.18141e-10
1.13992e-10
1.62594e-10
-8.97104e-11
9.12969e-11
6.47639e-11
-4.40365e-11
6.24686e-11
-1.57326e-11
1.8586e-11
3.30489e-11
-6.55098e-11
8.13839e-11
7.33095e-12
-8.33921e-11
1.39919e-10
-1.12225e-11
-7.21321e-11
1.79009e-10
-1.73491e-11
-4.20172e-11
1.9464e-10
-1.09734e-11
-1.26473e-11
1.88968e-10
8.53197e-12
-3.06788e-12
1.60627e-10
4.16953e-11
-2.34605e-11
1.24289e-10
7.09661e-11
-8.4707e-11
9.15656e-11
9.61732e-11
-1.84119e-10
7.27559e-11
1.06612e-10
-3.0439e-10
7.0651e-11
9.74107e-11
-4.1902e-10
8.00046e-11
7.36852e-11
-5.05126e-10
9.92638e-11
4.378e-11
-5.32673e-10
1.12474e-10
1.23538e-11
-4.77084e-10
9.8563e-11
-5.46542e-12
-3.51134e-10
7.20982e-11
-3.4672e-12
-1.84253e-10
3.11379e-11
1.95273e-11
-2.36577e-11
-2.26079e-11
6.75269e-11
9.12916e-11
-9.85614e-11
1.41524e-10
-9.54415e-11
2.75311e-10
1.26954e-11
-9.8507e-11
1.26954e-11
2.40306e-10
-6.07098e-11
5.41105e-11
3.99575e-10
-1.30655e-10
7.47234e-11
5.03953e-10
-1.83886e-10
9.4297e-11
5.50382e-10
-2.39113e-10
1.092e-10
5.35797e-10
-2.80068e-10
1.15962e-10
4.72992e-10
-2.98682e-10
1.17951e-10
3.81401e-10
-2.76836e-10
1.13739e-10
2.79831e-10
-2.05595e-10
1.04097e-10
1.86778e-10
-9.49411e-11
9.58267e-11
1.15675e-10
4.27893e-11
9.20101e-11
6.47788e-11
1.85287e-10
9.31406e-11
3.31433e-11
3.02663e-10
1.0241e-10
8.59075e-12
3.77077e-10
1.16031e-10
-1.95788e-11
3.96487e-10
1.30677e-10
-5.83663e-11
3.64196e-10
1.41589e-10
-1.14862e-10
2.95442e-10
1.41916e-10
-1.87263e-10
2.13213e-10
1.31384e-10
-2.68985e-10
1.43241e-10
1.1108e-10
-3.46633e-10
1.03205e-10
8.51448e-11
-4.04242e-10
9.80299e-11
6.11651e-11
-4.23262e-10
1.14923e-10
4.70111e-11
-3.93149e-10
1.50408e-10
4.45526e-11
-3.10313e-10
1.7601e-10
5.49893e-11
-1.89289e-10
1.60243e-10
8.19532e-11
-3.97973e-11
9.49372e-11
1.18418e-10
1.00506e-10
-3.47128e-14
1.54424e-10
1.69736e-10
-8.02012e-11
1.73053e-10
1.07799e-10
-1.53349e-10
1.95605e-10
-2.0429e-10
1.71383e-10
1.48867e-11
2.46665e-11
1.48867e-11
2.80283e-10
-2.84294e-11
5.81325e-11
4.52943e-10
-8.77628e-11
7.61673e-11
5.67803e-10
-1.6135e-10
9.10915e-11
6.22496e-10
-2.45138e-10
9.94513e-11
6.24804e-10
-3.21336e-10
1.0407e-10
5.83866e-10
-3.67476e-10
1.04495e-10
5.17535e-10
-3.66759e-10
1.04001e-10
4.42422e-10
-3.0952e-10
1.06736e-10
3.66265e-10
-1.99098e-10
1.11227e-10
2.95599e-10
-6.05028e-11
1.22132e-10
2.24787e-10
8.54898e-11
1.38447e-10
1.46139e-10
2.04866e-10
1.5578e-10
5.29789e-11
2.77742e-10
1.68669e-10
-5.78197e-11
2.92508e-10
1.72202e-10
-1.80589e-10
2.50861e-10
1.63857e-10
-3.01212e-10
1.68385e-10
1.43247e-10
-4.03101e-10
7.20429e-11
1.13444e-10
-4.6907e-10
-1.1528e-11
8.0642e-11
-4.82112e-10
-6.82672e-11
5.23632e-11
-4.40303e-10
-8.78612e-11
3.70081e-11
-3.51558e-10
-7.81471e-11
3.32818e-11
-2.26488e-10
-5.4926e-11
4.61808e-11
-8.62555e-11
-4.5473e-11
7.29702e-11
4.01659e-11
-7.42071e-11
1.02778e-10
1.18983e-10
-1.4969e-10
1.33102e-10
1.38662e-10
-2.60457e-10
1.50291e-10
1.30115e-10
-3.76016e-10
1.3705e-10
2.26636e-11
-3.93019e-10
1.04835e-10
-4.60403e-10
2.74467e-12
4.97006e-11
1.57383e-10
4.97006e-11
2.96814e-10
6.28442e-11
8.54731e-11
4.4587e-10
2.77159e-11
9.58946e-11
5.5024e-10
-6.51936e-11
1.01289e-10
6.10324e-10
-1.78494e-10
1.01187e-10
6.31738e-10
-2.91766e-10
9.68649e-11
6.23942e-10
-3.8159e-10
9.19061e-11
5.95091e-10
-4.28428e-10
8.93544e-11
5.51645e-10
-4.23041e-10
9.17018e-11
4.94634e-10
-3.69662e-10
1.02815e-10
4.15453e-10
-2.81633e-10
1.1764e-10
3.14599e-10
-1.88014e-10
1.3408e-10
1.8424e-10
-1.0528e-10
1.4493e-10
2.72775e-11
-5.48383e-11
1.46439e-10
-1.44529e-10
-4.48522e-11
1.33807e-10
-3.12447e-10
-7.82539e-11
1.11699e-10
-4.52846e-10
-1.42445e-10
8.17624e-11
-5.43424e-10
-2.21778e-10
5.45542e-11
-5.67505e-10
-2.95944e-10
3.38232e-11
-5.20628e-10
-3.51805e-10
1.98959e-11
-4.15825e-10
-3.79897e-10
1.69103e-11
-2.75348e-10
-3.92299e-10
2.64981e-11
-1.27689e-10
-4.01266e-10
4.50415e-11
-4.62814e-12
-4.22714e-10
6.51699e-11
6.82963e-11
-4.66309e-10
7.32031e-11
7.71639e-11
-5.38311e-10
6.74771e-11
2.90249e-11
-6.29585e-10
4.43535e-11
-4.01052e-11
-7.27584e-10
8.1089e-12
-1.12358e-10
-7.0783e-10
-3.21366e-11
-7.70319e-10
-1.29125e-10
1.1589e-10
1.99517e-10
1.1589e-10
2.76877e-10
1.10867e-10
1.39964e-10
3.77272e-10
8.54231e-11
1.38977e-10
4.52162e-10
-1.14104e-11
1.23638e-10
5.08883e-10
-1.37833e-10
1.03941e-10
5.5062e-10
-2.72189e-10
8.42475e-11
5.77553e-10
-3.92992e-10
6.86163e-11
5.86332e-10
-4.82362e-10
5.92037e-11
5.72501e-10
-5.37216e-10
6.01933e-11
5.25812e-10
-5.54064e-10
6.90607e-11
4.41275e-10
-5.42339e-10
8.0731e-11
3.13858e-10
-5.13117e-10
8.67167e-11
1.51085e-10
-4.81853e-10
8.71875e-11
-3.83132e-11
-4.55065e-10
8.10566e-11
-2.30601e-10
-4.399e-10
6.44188e-11
-3.99444e-10
-4.43794e-10
4.40555e-11
-5.17052e-10
-4.67466e-10
2.67063e-11
-5.71385e-10
-4.9645e-10
1.39239e-11
-5.55265e-10
-5.30609e-10
8.05913e-12
-4.80877e-10
-5.66189e-10
1.33587e-11
-3.66365e-10
-6.02423e-10
2.49207e-11
-2.43116e-10
-6.43655e-10
3.94117e-11
-1.43527e-10
-6.89106e-10
4.95907e-11
-8.65766e-11
-7.42072e-10
4.66697e-11
-7.58966e-11
-7.98608e-10
2.63775e-11
-1.08927e-10
-8.41362e-10
-1.61686e-11
-1.6611e-10
-8.70799e-10
-7.02238e-11
-2.16454e-10
-9.00228e-10
-1.14782e-10
-1.96923e-10
-8.44344e-10
-1.49656e-10
-9.05879e-10
-1.70775e-10
1.91106e-10
2.70387e-11
1.91106e-10
2.21129e-10
-4.04623e-12
1.77364e-10
2.57483e-10
-2.86899e-11
1.51329e-10
2.99567e-10
-1.10944e-10
1.18479e-10
3.51748e-10
-2.16746e-10
8.40667e-11
4.11359e-10
-3.30305e-10
5.34632e-11
4.7074e-10
-4.40542e-10
3.10776e-11
5.13635e-10
-5.36706e-10
2.21646e-11
5.23444e-10
-6.17752e-10
2.30808e-11
4.85338e-10
-6.77288e-10
3.06129e-11
3.97263e-10
-7.18026e-10
3.53616e-11
2.61668e-10
-7.39319e-10
3.8433e-11
9.04866e-11
-7.43391e-10
3.78457e-11
-9.14069e-11
-7.27589e-10
3.00506e-11
-2.58763e-10
-6.95562e-10
2.1924e-11
-3.89936e-10
-6.55442e-10
1.65621e-11
-4.71253e-10
-6.12099e-10
1.20095e-11
-4.96532e-10
-5.7834e-10
1.87272e-11
-4.7215e-10
-5.6864e-10
3.551e-11
-4.14067e-10
-5.8768e-10
5.58036e-11
-3.47876e-10
-6.34093e-10
7.5326e-11
-2.9693e-10
-7.05117e-10
8.70872e-11
-2.76547e-10
-7.80879e-10
8.18046e-11
-2.85246e-10
-8.4519e-10
5.12514e-11
-3.16741e-10
-8.81506e-10
7.34005e-12
-3.4334e-10
-8.81653e-10
-4.12654e-11
-3.36208e-10
-8.52408e-10
-8.40132e-11
-2.92852e-10
-8.03459e-10
-1.10345e-10
-1.82375e-10
-7.19875e-10
-1.04358e-10
-7.87881e-10
-7.41998e-11
2.12205e-10
-3.68717e-10
2.12205e-10
1.32143e-10
-3.61029e-10
1.63195e-10
1.21567e-10
-3.76376e-10
1.2065e-10
1.44814e-10
-4.11684e-10
7.80983e-11
2.01848e-10
-4.51164e-10
3.95727e-11
2.84373e-10
-4.93764e-10
1.20029e-11
3.71278e-10
-5.39083e-10
-5.05122e-13
4.38447e-10
-5.86312e-10
-6.12081e-13
4.6326e-10
-6.38937e-10
7.46247e-12
4.33228e-10
-6.92591e-10
1.90952e-11
3.47338e-10
-7.41134e-10
2.75379e-11
2.19433e-10
-7.76383e-10
3.0499e-11
6.97043e-11
-7.89192e-10
3.10045e-11
-7.81052e-11
-7.68929e-10
3.2644e-11
-2.02354e-10
-7.17306e-10
4.01762e-11
-2.95604e-10
-6.36255e-10
5.37748e-11
-3.53895e-10
-5.46504e-10
7.45091e-11
-3.82163e-10
-4.74023e-10
1.01048e-10
-3.92983e-10
-4.42152e-10
1.28605e-10
-3.97162e-10
-4.64235e-10
1.51753e-10
-4.08681e-10
-5.28651e-10
1.64323e-10
-4.34426e-10
-6.16196e-10
1.56977e-10
-4.7226e-10
-6.94785e-10
1.31448e-10
-5.11303e-10
-7.41159e-10
9.57782e-11
-5.32193e-10
-7.38953e-10
5.7644e-11
-5.09602e-10
-6.92144e-10
2.49299e-11
-4.28578e-10
-6.22735e-10
8.94647e-12
-2.90823e-10
-5.57663e-10
1.75279e-11
-1.02952e-10
-5.00571e-10
4.53117e-11
-5.90729e-10
9.9724e-11
1.66729e-10
-9.10231e-10
1.66729e-10
4.78052e-11
-9.4392e-10
1.0007e-10
2.92767e-11
-9.19313e-10
5.89508e-11
6.0615e-11
-8.7809e-10
2.56795e-11
1.35665e-10
-8.18053e-10
4.5151e-12
2.38662e-10
-7.51379e-10
-3.22126e-12
3.42664e-10
-6.90566e-10
3.52917e-12
4.21605e-10
-6.45552e-10
1.84679e-11
4.5373e-10
-6.25748e-10
3.75025e-11
4.30764e-10
-6.30868e-10
5.66315e-11
3.60223e-10
-6.55034e-10
7.39885e-11
2.57625e-10
-6.78817e-10
8.73121e-11
1.42096e-10
-6.84797e-10
9.8946e-11
3.12319e-11
-6.5805e-10
1.12985e-10
-7.04837e-11
-5.95736e-10
1.35432e-10
-1.60037e-10
-5.05058e-10
1.62684e-10
-2.44676e-10
-4.09763e-10
1.9433e-10
-3.24719e-10
-3.48235e-10
2.24544e-10
-4.04445e-10
-3.31992e-10
2.41333e-10
-4.80898e-10
-3.72184e-10
2.40455e-10
-5.52592e-10
-4.47219e-10
2.26374e-10
-6.1608e-10
-5.29239e-10
2.04455e-10
-6.61334e-10
-5.86967e-10
1.81483e-10
-6.76363e-10
-6.02293e-10
1.64269e-10
-6.4815e-10
-5.72147e-10
1.57081e-10
-5.67682e-10
-5.16868e-10
1.62215e-10
-4.33724e-10
-4.70147e-10
1.76519e-10
-2.61419e-10
-4.59427e-10
1.97582e-10
-6.23201e-11
-4.96606e-10
2.22339e-10
-6.45773e-10
2.5587e-10
9.77561e-11
-1.50476e-09
9.77561e-11
1.65267e-11
-1.65858e-09
4.24725e-11
3.24346e-11
-1.56338e-09
1.93941e-11
9.58132e-11
-1.43176e-09
8.94288e-12
1.93841e-10
-1.26088e-09
1.22439e-11
3.05932e-10
-1.07548e-09
2.85345e-11
4.07745e-10
-9.00398e-10
5.43136e-11
4.79147e-10
-7.55531e-10
8.42172e-11
5.0871e-10
-6.53564e-10
1.11236e-10
4.96725e-10
-5.98597e-10
1.34386e-10
4.49774e-10
-5.82442e-10
1.5492e-10
3.80487e-10
-5.85944e-10
1.75815e-10
2.95165e-10
-5.85245e-10
2.00655e-10
1.95459e-10
-5.62743e-10
2.29231e-10
7.73056e-11
-5.15222e-10
2.60816e-10
-6.25837e-11
-4.48541e-10
2.87766e-10
-2.17651e-10
-3.88845e-10
3.02221e-10
-3.76548e-10
-3.65797e-10
2.97988e-10
-5.25951e-10
-3.8366e-10
2.80016e-10
-6.55548e-10
-4.37753e-10
2.52002e-10
-7.46045e-10
-5.13656e-10
2.24373e-10
-7.92894e-10
-5.74739e-10
2.05111e-10
-7.94216e-10
-6.06192e-10
2.02543e-10
-7.54231e-10
-6.05939e-10
2.17633e-10
-6.76793e-10
-5.92319e-10
2.46615e-10
-5.66492e-10
-5.95133e-10
2.79951e-10
-4.27397e-10
-6.44022e-10
3.05874e-10
-2.65131e-10
-7.49995e-10
3.18357e-10
-8.78014e-11
-8.98808e-10
3.16836e-10
-1.07991e-09
3.07616e-10
6.42825e-11
-2.09689e-09
6.42825e-11
7.20966e-11
-2.3844e-09
3.31134e-11
1.45403e-10
-2.20749e-09
3.50446e-11
2.4634e-10
-2.00127e-09
5.31163e-11
3.53285e-10
-1.74164e-09
8.35781e-11
4.49251e-10
-1.46317e-09
1.18287e-10
5.22856e-10
-1.19678e-09
1.48469e-10
5.69993e-10
-9.71225e-10
1.73545e-10
5.92246e-10
-8.01501e-10
1.93103e-10
5.94542e-10
-6.89149e-10
2.05776e-10
5.79106e-10
-6.30958e-10
2.21128e-10
5.40772e-10
-6.06595e-10
2.4251e-10
4.68374e-10
-5.92412e-10
2.68949e-10
3.52801e-10
-5.76893e-10
2.96667e-10
1.81677e-10
-5.46479e-10
3.15458e-10
-3.52199e-11
-5.16927e-10
3.19148e-10
-2.74666e-10
-5.06806e-10
3.03317e-10
-5.11696e-10
-5.2531e-10
2.69332e-10
-7.12784e-10
-5.73955e-10
2.28817e-10
-8.5048e-10
-6.40268e-10
1.9299e-10
-9.18291e-10
-7.03282e-10
1.72382e-10
-9.23585e-10
-7.42632e-10
1.75654e-10
-8.77921e-10
-7.69394e-10
2.0029e-10
-8.0123e-10
-7.9753e-10
2.38969e-10
-7.06053e-10
-8.59426e-10
2.79994e-10
-5.96972e-10
-9.75294e-10
3.08814e-10
-4.70488e-10
-1.15273e-09
3.19348e-10
-3.24067e-10
-1.36644e-09
3.12319e-10
-1.58965e-10
-1.56934e-09
2.92415e-10
-1.7051e-09
2.67726e-10
9.25155e-11
-2.67267e-09
9.25155e-11
2.13849e-10
-3.07158e-09
9.87993e-11
3.40559e-10
-2.82207e-09
1.27524e-10
4.56587e-10
-2.56956e-09
1.62808e-10
5.43606e-10
-2.25652e-09
2.00165e-10
5.97024e-10
-1.92334e-09
2.31841e-10
6.25449e-10
-1.60088e-09
2.48697e-10
6.45215e-10
-1.31753e-09
2.49099e-10
6.67748e-10
-1.08834e-09
2.42146e-10
6.9256e-10
-9.16778e-10
2.39715e-10
7.09126e-10
-8.00332e-10
2.42977e-10
6.9171e-10
-7.24027e-10
2.57494e-10
6.14261e-10
-6.7189e-10
2.76556e-10
4.57085e-10
-6.35415e-10
2.89442e-10
2.2448e-10
-6.11646e-10
2.88484e-10
-6.07636e-11
-6.07892e-10
2.66673e-10
-3.64991e-10
-6.31098e-10
2.30857e-10
-6.4461e-10
-6.80693e-10
1.89888e-10
-8.53696e-10
-7.5285e-10
1.52306e-10
-9.79578e-10
-8.21507e-10
1.3328e-10
-1.02939e-09
-8.78615e-10
1.40075e-10
-1.02035e-09
-9.28861e-10
1.70292e-10
-9.75707e-10
-9.966e-10
2.08889e-10
-9.08646e-10
-1.1103e-09
2.44346e-10
-8.2635e-10
-1.28698e-09
2.6582e-10
-7.17474e-10
-1.52596e-09
2.67583e-10
-5.75138e-10
-1.79519e-09
2.57018e-10
-4.00043e-10
-2.03949e-09
2.43808e-10
-2.023e-10
-2.20374e-09
2.34709e-10
-2.22256e-09
2.3831e-10
2.01859e-10
-3.31765e-09
2.01859e-10
3.9455e-10
-3.71964e-09
2.27532e-10
5.49257e-10
-3.43798e-09
2.68816e-10
6.53086e-10
-3.16392e-09
3.01474e-10
7.03018e-10
-2.82928e-09
3.27058e-10
7.12609e-10
-2.4618e-09
3.30481e-10
7.07197e-10
-2.09316e-09
3.15259e-10
7.14843e-10
-1.75117e-09
2.87402e-10
7.4898e-10
-1.45348e-09
2.63188e-10
7.99413e-10
-1.19963e-09
2.49371e-10
8.36387e-10
-9.91902e-10
2.48528e-10
8.20454e-10
-8.23153e-10
2.54669e-10
7.17602e-10
-6.92437e-10
2.61625e-10
5.162e-10
-6.01697e-10
2.56769e-10
2.35414e-10
-5.59928e-10
2.38031e-10
-9.02736e-11
-5.64624e-10
2.0941e-10
-4.13063e-10
-6.14552e-10
1.79901e-10
-6.85491e-10
-6.95551e-10
1.54884e-10
-8.86058e-10
-7.91979e-10
1.46235e-10
-1.01824e-09
-8.84523e-10
1.62117e-10
-1.09737e-09
-9.80154e-10
1.94628e-10
-1.13873e-09
-1.10074e-09
2.31429e-10
-1.15217e-09
-1.27133e-09
2.5905e-10
-1.12966e-09
-1.50725e-09
2.65095e-10
-1.05342e-09
-1.79987e-09
2.53154e-10
-9.09196e-10
-2.11425e-09
2.33545e-10
-6.99401e-10
-2.39454e-09
2.20813e-10
-4.52086e-10
-2.5866e-09
2.30068e-10
-2.00825e-10
-2.66226e-09
2.51485e-10
-2.58527e-09
2.85668e-10
3.47078e-10
-4.11184e-09
3.47078e-10
5.51209e-10
-4.35581e-09
3.74262e-10
7.19565e-10
-4.09558e-09
4.00327e-10
8.15051e-10
-3.80011e-09
4.05381e-10
8.46792e-10
-3.43906e-09
3.99752e-10
8.42313e-10
-3.03079e-09
3.77518e-10
8.37267e-10
-2.60421e-09
3.44102e-10
8.59073e-10
-2.18715e-09
3.11669e-10
9.12031e-10
-1.79582e-09
2.90531e-10
9.72026e-10
-1.42986e-09
2.84887e-10
9.96087e-10
-1.09732e-09
2.90173e-10
9.43295e-10
-8.0656e-10
2.96093e-10
7.89369e-10
-5.76281e-10
2.96821e-10
5.44371e-10
-4.22096e-10
2.81363e-10
2.40142e-10
-3.57425e-10
2.56492e-10
-8.13232e-11
-3.7649e-10
2.36234e-10
-3.79045e-10
-4.61784e-10
2.22877e-10
-6.30209e-10
-5.95844e-10
2.29673e-10
-8.41391e-10
-7.55637e-10
2.58412e-10
-1.02504e-09
-9.34073e-10
2.9919e-10
-1.19257e-09
-1.14389e-09
3.37926e-10
-1.33913e-09
-1.39859e-09
3.54502e-10
-1.43709e-09
-1.71082e-09
3.44439e-10
-1.44733e-09
-2.06867e-09
3.13932e-10
-1.34067e-09
-2.43491e-09
2.80892e-10
-1.12139e-09
-2.75525e-09
2.65418e-10
-8.25087e-10
-2.98544e-09
2.7684e-10
-5.06087e-10
-3.11165e-09
3.13172e-10
-2.13928e-10
-3.14535e-09
3.5118e-10
-3.07758e-09
3.69683e-10
4.60004e-10
-5.0459e-09
4.60004e-10
6.8314e-10
-4.9787e-09
4.48592e-10
8.73813e-10
-4.74736e-09
4.44766e-10
9.98547e-10
-4.43041e-09
4.34055e-10
1.06386e-09
-4.02611e-09
4.15121e-10
1.09865e-09
-3.56021e-09
3.92174e-10
1.13517e-09
-3.06334e-09
3.72532e-10
1.18713e-09
-2.55917e-09
3.6392e-10
1.23928e-09
-2.06074e-09
3.71213e-10
1.26312e-09
-1.57763e-09
3.89011e-10
1.21323e-09
-1.11883e-09
4.09477e-10
1.06935e-09
-7.17382e-10
4.19049e-10
8.37909e-10
-4.05246e-10
4.08618e-10
5.49704e-10
-2.10067e-10
3.84122e-10
2.41282e-10
-1.48017e-10
3.64393e-10
-5.2121e-11
-2.02292e-10
3.5214e-10
-3.21017e-10
-3.5093e-10
3.63504e-10
-5.76735e-10
-5.75458e-10
3.97225e-10
-8.39648e-10
-8.5648e-10
4.41969e-10
-1.1204e-09
-1.18652e-09
4.78351e-10
-1.40701e-09
-1.56493e-09
4.88822e-10
-1.65737e-09
-1.98722e-09
4.70576e-10
-1.8076e-09
-2.43191e-09
4.21974e-10
-1.804e-09
-2.87008e-09
3.71731e-10
-1.63738e-09
-3.2516e-09
3.44681e-10
-1.34417e-09
-3.5439e-09
3.54817e-10
-9.89345e-10
-3.73629e-09
3.86025e-10
-6.36748e-10
-3.85479e-09
4.1421e-10
-3.17695e-10
-3.93183e-09
4.19024e-10
-3.95869e-09
3.87638e-10
4.78995e-10
-5.96763e-09
4.78995e-10
7.77324e-10
-5.55165e-09
4.43228e-10
1.05641e-09
-5.34984e-09
4.28908e-10
1.28083e-09
-4.99887e-09
4.18636e-10
1.45111e-09
-4.545e-09
4.15719e-10
1.58329e-09
-4.02584e-09
4.24822e-10
1.68861e-09
-3.47174e-09
4.48392e-10
1.75713e-09
-2.90054e-09
4.87472e-10
1.76065e-09
-2.31624e-09
5.30094e-10
1.67214e-09
-1.74284e-09
5.6993e-10
1.47863e-09
-1.1991e-09
5.93616e-10
1.19634e-09
-7.29618e-10
5.89184e-10
8.64326e-10
-3.77877e-10
5.62382e-10
5.27462e-10
-1.75107e-10
5.29129e-10
2.13442e-10
-1.33379e-10
5.09154e-10
-7.22623e-11
-2.36278e-10
5.12745e-10
-3.49802e-10
-4.63438e-10
5.39584e-10
-6.55438e-10
-7.95609e-10
5.77094e-10
-1.00997e-09
-1.21726e-09
6.05625e-10
-1.40097e-09
-1.71037e-09
6.06419e-10
-1.78006e-09
-2.24924e-09
5.73375e-10
-2.07084e-09
-2.80493e-09
5.16944e-10
-2.20174e-09
-3.33595e-09
4.60482e-10
-2.14707e-09
-3.80229e-09
4.27521e-10
-1.93097e-09
-4.1754e-09
4.27031e-10
-1.61187e-09
-4.4558e-09
4.4074e-10
-1.2571e-09
-4.66935e-09
4.52039e-10
-9.03806e-10
-4.85162e-09
4.41319e-10
-5.31902e-10
-5.01281e-09
3.99323e-10
-5.13089e-09
3.41006e-10
4.49466e-10
-6.75837e-09
4.49466e-10
9.21765e-10
-6.09002e-09
4.24722e-10
1.35084e-09
-5.89518e-09
4.2757e-10
1.7317e-09
-5.51421e-09
4.38464e-10
2.05194e-09
-5.034e-09
4.71458e-10
2.30494e-09
-4.49699e-09
5.22147e-10
2.46589e-09
-3.92316e-09
5.90362e-10
2.50644e-09
-3.32281e-09
6.60726e-10
2.40073e-09
-2.70102e-09
7.23822e-10
2.1392e-09
-2.07925e-09
7.62802e-10
1.76285e-09
-1.49756e-09
7.63027e-10
1.32522e-09
-1.00164e-09
7.35936e-10
8.88017e-10
-6.37247e-10
6.95714e-10
4.94068e-10
-4.36504e-10
6.66535e-10
1.44413e-10
-4.0066e-10
6.60742e-10
-1.83812e-10
-5.22814e-10
6.74876e-10
-5.32227e-10
-7.92333e-10
6.99696e-10
-9.36993e-10
-1.19542e-09
7.18831e-10
-1.39707e-09
-1.7137e-09
7.12594e-10
-1.86673e-09
-2.3126e-09
6.73592e-10
-2.26671e-09
-2.9481e-09
6.13604e-10
-2.52169e-09
-3.57094e-09
5.55624e-10
-2.59294e-09
-4.13536e-09
5.20938e-10
-2.49428e-09
-4.61347e-09
5.13517e-10
-2.27655e-09
-5.00425e-09
5.18825e-10
-1.99022e-09
-5.33458e-09
5.13226e-10
-1.65382e-09
-5.63166e-09
4.81304e-10
-1.24865e-09
-5.89605e-09
4.27567e-10
-7.32248e-10
-6.09547e-09
3.75183e-10
-6.22353e-09
3.64673e-10
4.63232e-10
-7.45239e-09
4.63232e-10
1.1663e-09
-6.68682e-09
4.72558e-10
1.78341e-09
-6.4849e-09
5.04719e-10
2.34022e-09
-6.09721e-09
5.42963e-10
2.8144e-09
-5.6341e-09
6.04927e-10
3.16444e-09
-5.1184e-09
6.82277e-10
3.33883e-09
-4.55541e-09
7.66328e-10
3.30206e-09
-3.95185e-09
8.39789e-10
3.04917e-09
-3.3144e-09
8.8729e-10
2.61389e-09
-2.66778e-09
8.99348e-10
2.06949e-09
-2.06014e-09
8.77012e-10
1.50065e-09
-1.54003e-09
8.38665e-10
9.72181e-10
-1.15013e-09
8.08265e-10
5.01428e-10
-9.09684e-10
7.99833e-10
6.76425e-11
-8.2666e-10
8.14737e-10
-3.71381e-10
-9.09818e-10
8.42091e-10
-8.54597e-10
-1.16061e-09
8.62874e-10
-1.39021e-09
-1.57044e-09
8.6075e-10
-1.94081e-09
-2.11476e-09
8.28462e-10
-2.43648e-09
-2.74596e-09
7.76444e-10
-2.80044e-09
-3.41386e-09
7.25193e-10
-2.99189e-09
-4.06649e-09
6.94532e-10
-3.01949e-09
-4.66753e-09
6.86427e-10
-2.92453e-09
-5.20668e-09
6.85201e-10
-2.74357e-09
-5.69363e-09
6.68554e-10
-2.47969e-09
-6.13945e-09
6.23991e-10
-2.09629e-09
-6.53383e-09
5.60387e-10
-1.54658e-09
-6.83926e-09
5.0726e-10
-8.2184e-10
-7.01996e-09
4.99829e-10
-7.13419e-09
5.58841e-10
5.95168e-10
-8.27352e-09
5.95168e-10
1.51146e-09
-7.55627e-09
6.5219e-10
2.30932e-09
-7.3469e-09
6.9401e-10
3.02168e-09
-6.97211e-09
7.39076e-10
3.6077e-09
-6.53837e-09
8.01305e-10
4.00854e-09
-6.04397e-09
8.7027e-10
4.16422e-09
-5.4804e-09
9.39132e-10
4.04504e-09
-4.84769e-09
9.88929e-10
3.67174e-09
-4.16124e-09
1.00899e-09
3.11414e-09
-3.45778e-09
1.00065e-09
2.46569e-09
-2.79056e-09
9.78538e-10
1.81018e-09
-2.20721e-09
9.63932e-10
1.19067e-09
-1.73905e-09
9.68532e-10
6.06276e-10
-1.40913e-09
9.95636e-10
2.41461e-11
-1.23889e-09
1.03774e-09
-5.9316e-10
-1.24774e-09
1.07422e-09
-1.25508e-09
-1.44861e-09
1.08881e-09
-1.92933e-09
-1.83092e-09
1.07325e-09
-2.55153e-09
-2.36277e-09
1.03567e-09
-3.04956e-09
-2.99793e-09
9.95352e-10
-3.38123e-09
-3.69304e-09
9.69674e-10
-3.5497e-09
-4.40906e-09
9.59447e-10
-3.58779e-09
-5.12289e-09
9.49739e-10
-3.52386e-09
-5.81897e-09
9.19638e-10
-3.34945e-09
-6.48092e-09
8.62871e-10
-3.0213e-09
-7.07153e-09
7.93747e-10
-2.48965e-09
-7.54222e-09
7.39617e-10
-1.74061e-09
-7.86701e-09
7.29777e-10
-8.34121e-10
-8.05714e-09
7.6584e-10
-8.24942e-09
8.32712e-10
8.54736e-10
-9.55618e-09
8.54736e-10
1.92777e-09
-8.93939e-09
9.10512e-10
2.86266e-09
-8.7124e-09
9.39329e-10
3.68754e-09
-8.3449e-09
9.72535e-10
4.34809e-09
-7.90608e-09
1.01582e-09
4.77641e-09
-7.37491e-09
1.06469e-09
4.91838e-09
-6.73483e-09
1.1092e-09
4.75831e-09
-5.99008e-09
1.13956e-09
4.33605e-09
-5.17484e-09
1.15268e-09
3.73261e-09
-4.34411e-09
1.15814e-09
3.03483e-09
-3.55458e-09
1.1694e-09
2.30626e-09
-2.8536e-09
1.19739e-09
1.56906e-09
-2.27438e-09
1.24572e-09
8.10465e-10
-1.84539e-09
1.30387e-09
8.42388e-12
-1.60001e-09
1.3562e-09
-8.38485e-10
-1.56516e-09
1.38683e-09
-1.69707e-09
-1.74443e-09
1.38441e-09
-2.50604e-09
-2.12058e-09
1.35931e-09
-3.19972e-09
-2.65825e-09
1.32734e-09
-3.73027e-09
-3.32774e-09
1.30131e-09
-4.09192e-09
-4.10326e-09
1.28176e-09
-4.30554e-09
-4.96078e-09
1.25376e-09
-4.38679e-09
-5.87485e-09
1.20321e-09
-4.31881e-09
-6.79774e-09
1.1277e-09
-4.0577e-09
-7.65928e-09
1.04455e-09
-3.56081e-09
-8.39245e-09
9.90331e-10
-2.8246e-09
-8.94921e-09
9.78538e-10
-1.90146e-09
-9.35071e-09
9.97598e-10
-8.98084e-10
-9.64892e-09
1.01963e-09
-9.99405e-09
1.01886e-09
1.15008e-09
-1.152e-08
1.15008e-09
2.34093e-09
-1.10178e-08
1.17693e-09
3.40397e-09
-1.07536e-08
1.18867e-09
4.33783e-09
-1.03444e-08
1.2085e-09
5.0778e-09
-9.81582e-09
1.24032e-09
5.55349e-09
-9.13887e-09
1.28104e-09
5.71718e-09
-8.30484e-09
1.32357e-09
5.56906e-09
-7.34218e-09
1.36194e-09
5.15637e-09
-6.3116e-09
1.39787e-09
4.5482e-09
-5.28445e-09
1.44008e-09
3.80711e-09
-4.32567e-09
1.49677e-09
2.97099e-09
-3.48567e-09
1.5655e-09
2.0508e-09
-2.80439e-09
1.63755e-09
1.04714e-09
-2.31768e-09
1.69891e-09
-2.47919e-11
-2.0562e-09
1.73153e-09
-1.11992e-09
-2.037e-09
1.72896e-09
-2.1768e-09
-2.24555e-09
1.70403e-09
-3.12861e-09
-2.65489e-09
1.66902e-09
-3.92611e-09
-3.24117e-09
1.63625e-09
-4.55357e-09
-3.99411e-09
1.60338e-09
-5.01662e-09
-4.90778e-09
1.55694e-09
-5.31296e-09
-5.96182e-09
1.48514e-09
-5.41185e-09
-7.10684e-09
1.39178e-09
-5.26189e-09
-8.25278e-09
1.29859e-09
-4.82944e-09
-9.29379e-09
1.23408e-09
-4.12287e-09
-1.0169e-08
1.2073e-09
-3.20361e-09
-1.08718e-08
1.20754e-09
-2.16368e-09
-1.14493e-08
1.20643e-09
-1.07843e-09
-1.19145e-08
1.17569e-09
-1.23217e-08
1.12838e-09
1.4267e-09
-1.42529e-08
1.4267e-09
2.7599e-09
-1.3853e-08
1.42274e-09
3.99278e-09
-1.35143e-08
1.42879e-09
5.07281e-09
-1.2983e-08
1.45693e-09
5.92341e-09
-1.22587e-08
1.50395e-09
6.47566e-09
-1.13234e-08
1.56334e-09
6.69354e-09
-1.01969e-08
1.62811e-09
6.58663e-09
-8.94228e-09
1.69411e-09
6.19546e-09
-7.64555e-09
1.7639e-09
5.56656e-09
-6.3927e-09
1.84457e-09
4.73567e-09
-5.25229e-09
1.93193e-09
3.72316e-09
-4.2774e-09
2.01486e-09
2.5477e-09
-3.51311e-09
2.07762e-09
1.24965e-09
-2.9998e-09
2.10592e-09
-1.08735e-10
-2.75682e-09
2.09967e-09
-1.45265e-09
-2.77726e-09
2.06889e-09
-2.70748e-09
-3.03318e-09
2.02946e-09
-3.82303e-09
-3.49648e-09
1.99214e-09
-4.7771e-09
-4.16185e-09
1.95444e-09
-5.56157e-09
-5.03947e-09
1.9018e-09
-6.15775e-09
-6.12768e-09
1.82336e-09
-6.51791e-09
-7.38597e-09
1.72289e-09
-6.57505e-09
-8.73194e-09
1.62017e-09
-6.28979e-09
-1.00509e-08
1.54282e-09
-5.67877e-09
-1.12531e-08
1.50298e-09
-4.8056e-09
-1.2319e-08
1.4814e-09
-3.74941e-09
-1.32579e-08
1.45044e-09
-2.57746e-09
-1.40504e-08
1.39658e-09
-1.32084e-09
-1.46021e-08
1.33368e-09
-1.49173e-08
1.31547e-09
1.67275e-09
-1.77055e-08
1.67275e-09
3.25769e-09
-1.74079e-08
1.66735e-09
4.7352e-09
-1.6942e-08
1.70141e-09
6.01245e-09
-1.6212e-08
1.76612e-09
7.00238e-09
-1.52096e-08
1.84806e-09
7.6432e-09
-1.39499e-08
1.93873e-09
7.91787e-09
-1.24947e-08
2.02975e-09
7.84356e-09
-1.09335e-08
2.11722e-09
7.44641e-09
-9.3656e-09
2.20888e-09
6.74612e-09
-7.87773e-09
2.30565e-09
5.75744e-09
-6.53998e-09
2.39865e-09
4.50286e-09
-5.4087e-09
2.47066e-09
3.03267e-09
-4.53957e-09
2.50998e-09
1.42811e-09
-3.97247e-09
2.51465e-09
-2.13539e-10
-3.71208e-09
2.49415e-09
-1.80118e-09
-3.73676e-09
2.46332e-09
-3.27591e-09
-4.01526e-09
2.43539e-09
-4.6058e-09
-4.5379e-09
2.40591e-09
-5.77211e-09
-5.31834e-09
2.3596e-09
-6.74237e-09
-6.37162e-09
2.28678e-09
-7.45707e-09
-7.66708e-09
2.18931e-09
-7.83622e-09
-9.1297e-09
2.08631e-09
-7.82658e-09
-1.06577e-08
2.00489e-09
-7.43237e-09
-1.2158e-08
1.95358e-09
-6.70632e-09
-1.35839e-08
1.90875e-09
-5.71401e-09
-1.4929e-08
1.84318e-09
-4.50194e-09
-1.61381e-08
1.753e-09
-3.10273e-09
-1.70765e-08
1.667e-09
-1.55305e-09
-1.76112e-08
1.62015e-09
-1.78496e-08
1.64614e-09
1.94944e-09
-2.18237e-08
1.94944e-09
3.9069e-09
-2.16233e-08
1.98227e-09
5.69258e-09
-2.09792e-08
2.06301e-09
7.19893e-09
-2.00024e-08
2.16711e-09
8.33525e-09
-1.86921e-08
2.28167e-09
9.06399e-09
-1.71088e-08
2.39169e-09
9.39115e-09
-1.53383e-08
2.48411e-09
9.3311e-09
-1.34859e-08
2.57805e-09
8.89055e-09
-1.16445e-08
2.68039e-09
8.07028e-09
-9.89396e-09
2.78622e-09
6.87958e-09
-8.3066e-09
2.88178e-09
5.35865e-09
-6.95362e-09
2.95481e-09
3.58912e-09
-5.90575e-09
3.00088e-09
1.68197e-09
-5.20267e-09
3.02146e-09
-2.50529e-10
-4.84695e-09
3.02847e-09
-2.12606e-09
-4.81718e-09
3.02993e-09
-3.89021e-09
-5.10563e-09
3.02073e-09
-5.50807e-09
-5.72585e-09
2.98893e-09
-6.93309e-09
-6.69714e-09
2.9228e-09
-8.09184e-09
-8.00364e-09
2.82432e-09
-8.89646e-09
-9.56656e-09
2.71541e-09
-9.28066e-09
-1.12824e-08
2.62297e-09
-9.23713e-09
-1.30528e-08
2.55002e-09
-8.80119e-09
-1.48282e-08
2.47375e-09
-8.00799e-09
-1.65874e-08
2.36983e-09
-6.87571e-09
-1.82625e-08
2.23741e-09
-5.42374e-09
-1.96902e-08
2.11272e-09
-3.70603e-09
-2.06939e-08
2.03038e-09
-1.82838e-09
-2.12578e-08
2.00035e-09
-2.16341e-08
2.0063e-09
2.32492e-09
-2.66406e-08
2.32492e-09
4.71925e-09
-2.64866e-08
2.40715e-09
6.83594e-09
-2.56301e-08
2.52188e-09
8.57692e-09
-2.43993e-08
2.65164e-09
9.87468e-09
-2.27963e-08
2.76938e-09
1.07173e-08
-2.09115e-08
2.86611e-09
1.11125e-08
-1.88487e-08
2.96568e-09
1.10676e-08
-1.67041e-08
3.07755e-09
1.05733e-08
-1.45536e-08
3.2045e-09
9.61722e-09
-1.24764e-08
3.34041e-09
8.21425e-09
-1.05613e-08
3.46868e-09
6.42421e-09
-8.90625e-09
3.58066e-09
4.35088e-09
-7.59915e-09
3.67034e-09
2.11465e-09
-6.68674e-09
3.7402e-09
-1.76885e-10
-6.18064e-09
3.79158e-09
-2.43811e-09
-6.09038e-09
3.82144e-09
-4.60134e-09
-6.43397e-09
3.81282e-09
-6.59176e-09
-7.23578e-09
3.75197e-09
-8.31129e-09
-8.49044e-09
3.64109e-09
-9.65727e-09
-1.01281e-08
3.50722e-09
-1.0551e-08
-1.20282e-08
3.38036e-09
-1.0975e-08
-1.40743e-08
3.26948e-09
-1.0955e-08
-1.61932e-08
3.15135e-09
-1.05067e-08
-1.83573e-08
2.99831e-09
-9.609e-09
-2.05062e-08
2.81541e-09
-8.2502e-09
-2.24684e-08
2.64257e-09
-6.47996e-09
-2.40376e-08
2.51353e-09
-4.41943e-09
-2.51498e-08
2.43356e-09
-2.2272e-09
-2.59281e-08
2.37615e-09
-2.65454e-08
2.32176e-09
2.81664e-09
-3.22845e-08
2.81664e-09
5.63235e-09
-3.20596e-08
2.92375e-09
8.08635e-09
-3.10038e-08
3.05106e-09
1.0092e-08
-2.95147e-08
3.1607e-09
1.1602e-08
-2.76315e-08
3.26633e-09
1.26091e-08
-2.54589e-08
3.38145e-09
1.312e-08
-2.30965e-08
3.51895e-09
1.31223e-08
-2.06193e-08
3.68589e-09
1.25846e-08
-1.80931e-08
3.87714e-09
1.14906e-08
-1.5617e-08
4.07653e-09
9.8677e-09
-1.33153e-08
4.26737e-09
7.79141e-09
-1.13148e-08
4.43923e-09
5.3697e-09
-9.71903e-09
4.58835e-09
2.7206e-09
-8.58604e-09
4.70909e-09
-4.50402e-11
-7.94917e-09
4.79116e-09
-2.82332e-09
-7.84603e-09
4.81751e-09
-5.49684e-09
-8.31286e-09
4.77038e-09
-7.92763e-09
-9.36082e-09
4.65251e-09
-9.96992e-09
-1.09447e-08
4.49062e-09
-1.15181e-08
-1.29445e-08
4.32167e-09
-1.25371e-08
-1.5218e-08
4.16251e-09
-1.30498e-08
-1.76582e-08
3.99675e-09
-1.30641e-08
-2.02132e-08
3.79583e-09
-1.25511e-08
-2.28063e-08
3.55912e-09
-1.14596e-08
-2.52915e-08
3.32251e-09
-9.80359e-09
-2.74534e-08
3.12966e-09
-7.69392e-09
-2.91891e-08
2.99194e-09
-5.30126e-09
-3.05653e-08
2.88046e-09
-2.74782e-09
-3.1653e-08
2.76496e-09
-3.23535e-08
2.69077e-09
3.38686e-09
-3.89243e-08
3.38686e-09
6.59437e-09
-3.84833e-08
3.47752e-09
9.41388e-09
-3.72411e-08
3.57263e-09
1.17645e-08
-3.55174e-08
3.68316e-09
1.35909e-08
-3.3359e-08
3.82012e-09
1.4866e-08
-3.08721e-08
3.99668e-09
1.55615e-08
-2.815e-08
4.22118e-09
1.56312e-08
-2.52608e-08
4.48627e-09
1.50346e-08
-2.22886e-08
4.77001e-09
1.37683e-08
-1.93734e-08
5.04879e-09
1.18741e-08
-1.66809e-08
5.31483e-09
9.44651e-09
-1.43589e-08
5.55046e-09
6.58758e-09
-1.25038e-08
5.75151e-09
3.41162e-09
-1.11828e-08
5.90163e-09
4.52879e-11
-1.04556e-08
5.98392e-09
-3.36174e-09
-1.03775e-08
5.97735e-09
-6.61538e-09
-1.0999e-08
5.88114e-09
-9.51763e-09
-1.22942e-08
5.71744e-09
-1.19086e-08
-1.41796e-08
5.52575e-09
-1.37086e-08
-1.65152e-08
5.32836e-09
-1.49198e-08
-1.91641e-08
5.11711e-09
-1.55544e-08
-2.20385e-08
4.86823e-09
-1.55811e-08
-2.50531e-08
4.5794e-09
-1.49219e-08
-2.80568e-08
4.28161e-09
-1.35581e-08
-3.08226e-08
4.00907e-09
-1.15678e-08
-3.32049e-08
3.77567e-09
-9.12091e-09
-3.52367e-08
3.58802e-09
-6.35569e-09
-3.69704e-08
3.41674e-09
-3.31696e-09
-3.82518e-08
3.26333e-09
-3.89038e-08
3.21442e-09
3.96797e-09
-4.66817e-08
3.96797e-09
7.63485e-09
-4.5972e-08
4.01399e-09
1.09276e-08
-4.45678e-08
4.11079e-09
1.37333e-08
-4.26054e-08
4.26997e-09
1.59767e-08
-4.01454e-08
4.49389e-09
1.75916e-08
-3.72922e-08
4.7845e-09
1.85006e-08
-3.41362e-08
5.13137e-09
1.86301e-08
-3.07679e-08
5.51113e-09
1.79468e-08
-2.73224e-08
5.89603e-09
1.64659e-08
-2.39809e-08
6.26516e-09
1.42481e-08
-2.09266e-08
6.6048e-09
1.13784e-08