/*--------------------------------*- C++ -*----------------------------------*\
| =========                 |                                                 |
| \\      /  F ield         | OpenFOAM: The Open Source CFD Toolbox           |
|  \\    /   O peration     | Version:  2312                                  |
|   \\  /    A nd           | Website:  www.openfoam.com                      |
|    \\/     M anipulation  |                                                 |
\*---------------------------------------------------------------------------*/
FoamFile
{
    version     2.0;
    format      ascii;
    arch        "LSB;label=32;scalar=64";
    class       volScalarField;
    location    "0.248571";
    object      alpha.water;
}
// * * * * * * * * * * * * * * * * * * * * * * * * * * * * * * * * * * * * * //

dimensions      [0 0 0 0 0 0 0];

internalField   nonuniform List<scalar> 
90000
(
1
0.999991
0.999993
0.999994
0.999995
0.999996
0.999998
0.999999
1
1
1
1
1
1
1
1
1
1
1
1
0.999999
0.999997
0.999995
0.999994
0.999996
0.999999
1
1.00001
1.00001
1.00002
0.999991
0.999987
0.999989
0.999991
0.999994
0.999996
0.999998
1
1
1
1
1
1
1.00001
1.00001
1.00001
1.00001
1.00001
1
0.999999
0.999995
0.999992
0.999991
0.999994
0.999999
1.00001
1.00001
1.00002
1.00003
1.00003
0.999993
0.999992
0.999993
0.999995
0.999997
0.999999
1
1
1
1
1
1
1
1
1
1
1
1
1
0.999998
0.999996
0.999995
0.999995
0.999998
1
1.00001
1.00001
1.00001
1.00001
1.00001
0.999996
0.999996
0.999997
0.999998
1
1
1
1
1
1
1
1
1
1
1
1
1
0.999998
0.999997
0.999997
0.999997
0.999998
1
1
1
1
1.00001
1
1
0.999998
0.999998
1
1
1
1
1
1
1
1
1
1
1
1
1
1
0.999998
0.999996
0.999996
0.999996
0.999998
1
1
1
1
1
1
0.999997
0.999994
0.999989
0.999988
1
1
1
1
1
1
1
1
1
1
1
1
1
1
0.999999
0.999997
0.999996
0.999996
0.999998
1
1
1
1
1
1
0.999996
0.999991
0.999986
0.999982
0.999984
1
1
1
1
1
0.999999
0.999999
0.999999
1
1
1
1
1
1
1
0.999999
0.999999
1
1
1
1
1
1
1
0.999997
0.999992
0.999987
0.999984
0.999982
0.999985
1
1
1
0.999999
0.999998
0.999997
0.999997
0.999997
0.999998
0.999999
1
1
1
1
1
1
1
1
1
1
1
1
1
0.999996
0.999993
0.999989
0.999987
0.999986
0.999986
0.99999
1
1
1
0.999999
0.999998
0.999998
0.999998
0.999997
0.999998
0.999998
0.999999
1
1
1
1.00001
1.00001
1.00001
1.00001
1.00001
1
1
0.999999
0.999996
0.999993
0.999991
0.999989
0.999989
0.99999
0.999992
0.999996
1
1
1
1
1
1
1
0.999999
0.999998
0.999997
0.999997
0.999998
1
1
1.00001
1.00001
1.00001
1.00001
1.00001
1
1
0.999997
0.999994
0.999992
0.999991
0.999991
0.999993
0.999995
0.999997
1
1
1.00001
1.00001
1.00001
1.00001
1.00001
1
1
0.999999
0.999996
0.999995
0.999996
0.999998
1
1
1
1.00001
1
1
1
1
0.999998
0.999996
0.999995
0.999994
0.999995
0.999997
0.999999
1
1
1.00001
1.00002
1.00002
1.00002
1.00001
1.00001
1.00001
1
0.999999
0.999996
0.999994
0.999993
0.999994
0.999995
0.999997
0.999998
0.999999
1
1
1
1
1
1
1
1
1
1
1
1
1
1.00001
1.00002
1.00002
1.00002
1.00002
1.00001
1.00001
1
0.999999
0.999996
0.999994
0.999993
0.999992
0.999992
0.999992
0.999992
0.999994
0.999997
1
1
1.00001
1.00001
1.00001
1.00001
1.00001
1.00001
1.00001
1
1
1
1.00001
1.00002
1.00001
1.00001
1.00001
1.00001
1
1
1
0.999999
0.999997
0.999995
0.999993
0.999991
0.99999
0.99999
0.999993
0.999997
1
1.00001
1.00001
1.00001
1.00001
1.00001
1.00001
1.00001
1.00001
1.00001
1
1
1.00001
1
1
1
1
0.999999
0.999999
1
1
1
1
1
0.999996
0.999993
0.999991
0.999992
0.999994
0.999999
1
1.00001
1.00001
1.00001
1.00002
1.00002
1.00001
1.00001
1.00001
1.00001
1
1
1
0.999989
0.999989
0.999989
0.999989
0.999992
0.999995
1
1
1.00001
1.00001
1
0.999999
0.999996
0.999994
0.999995
0.999997
1
1
1.00001
1.00001
1.00001
1.00001
1.00001
1.00001
1.00001
1.00001
1
0.999999
0.999997
0.999992
0.999976
0.999978
0.999979
0.999983
0.999988
0.999994
1
1
1.00001
1.00001
1
1
0.999998
0.999997
0.999997
0.999998
1
1
1
1
1
1
1
1
1
0.999999
0.999995
0.999993
0.999992
0.999984
0.99997
0.999974
0.999977
0.999982
0.999988
0.999994
0.999999
1
1
1
1
1
1
0.999999
0.999999
0.999999
0.999998
0.999998
0.999997
0.999996
0.999996
0.999996
0.999996
0.999996
0.999994
0.999992
0.999989
0.999988
0.999991
0.999982
0.999973
0.999977
0.999981
0.999986
0.999991
0.999996
0.999999
1
1
1
1
1
1
1
1
0.999999
0.999997
0.999995
0.999994
0.999993
0.999992
0.999992
0.999992
0.999991
0.999989
0.999988
0.999988
0.999989
0.999994
0.999985
0.99998
0.999984
0.999987
0.999991
0.999995
0.999998
1
1
1
1
1
1
1
1
1
1
0.999997
0.999995
0.999993
0.999991
0.999991
0.99999
0.99999
0.999989
0.999988
0.999988
0.99999
0.999993
0.999996
0.99999
0.999988
0.999991
0.999994
0.999997
1
1
1
1
1
1
1
1
1
1
1
1
0.999997
0.999995
0.999993
0.999992
0.999991
0.99999
0.999989
0.999989
0.99999
0.999991
0.999994
0.999995
0.999995
0.999994
0.999994
0.999996
1
1
1
1
1
1
1
1
1
1
1
1
1
1
0.999997
0.999995
0.999993
0.999992
0.999992
0.999991
0.999992
0.999992
0.999994
0.999996
0.999997
0.999996
0.999995
0.999997
0.999999
1
1
1.00001
1.00001
1.00001
1
1
1
1
1
1
1
1
1
0.999999
0.999997
0.999996
0.999994
0.999994
0.999994
0.999995
0.999997
0.999999
1
1
1
0.999998
0.999999
0.999999
1
1.00001
1.00001
1.00001
1.00001
1.00001
1
1
1
1
1
0.999999
1
1
1
0.999999
0.999998
0.999997
0.999996
0.999997
0.999998
1
1
1
1.00001
1
1
1
1
1
1.00001
1.00001
1.00001
1.00001
1.00001
1
1
1
1
0.999999
0.999998
0.999998
0.999999
1
1
1
0.999999
0.999998
0.999999
1
1
1
1.00001
1.00001
1.00001
1.00001
1.00001
1.00001
1.00001
1.00001
1.00001
1.00001
1.00001
1.00001
1
1
1
1
0.999999
0.999998
0.999998
0.999999
1
1
1
1
0.999999
0.999999
1
1
1
1
1.00001
1.00001
1.00001
1.00001
1.00001
1.00001
1.00001
1.00001
1.00001
1.00001
1
1
0.999999
0.999999
0.999999
0.999999
0.999998
0.999998
0.999998
0.999999
1
1
1
0.999999
0.999998
0.999998
0.999999
1
1
1
1
1
1
1.00001
1.00001
1.00001
1
1.00001
1.00001
1
1
0.999997
0.999997
0.999997
0.999997
0.999997
0.999997
0.999998
0.999999
0.999999
0.999999
0.999999
0.999997
0.999997
0.999997
0.999997
0.999998
0.999999
0.999999
0.999999
0.999999
1
1
1.00001
1
1
1
1
1
0.999999
0.999996
0.999995
0.999995
0.999995
0.999995
0.999996
0.999996
0.999997
0.999998
0.999999
0.999998
0.999997
0.999996
0.999996
0.999997
0.999998
0.999999
0.999998
0.999997
0.999996
0.999996
0.999998
1
1
1
1
1
1
0.999998
0.999996
0.999995
0.999994
0.999994
0.999994
0.999994
0.999994
0.999995
0.999997
0.999998
0.999998
0.999997
0.999996
0.999996
0.999997
0.999998
0.999999
0.999999
0.999997
0.999995
0.999994
0.999995
0.999997
0.999998
0.999997
0.999998
1
1
0.999999
0.999996
0.999995
0.999994
0.999994
0.999993
0.999992
0.999992
0.999993
0.999994
0.999996
0.999998
0.999998
0.999997
0.999997
0.999997
0.999999
1
0.999999
0.999997
0.999995
0.999993
0.999993
0.999994
0.999995
0.999994
0.999995
0.999998
0.999999
0.999999
0.999998
0.999995
0.999995
0.999995
0.999994
0.999993
0.999991
0.99999
0.999991
0.999994
0.999996
0.999999
0.999999
0.999999
0.999999
1
1
1
0.999999
0.999997
0.999995
0.999994
0.999994
0.999995
0.999994
0.999993
0.999997
0.999999
0.999999
1
0.999997
0.999996
0.999996
0.999996
0.999995
0.999993
0.99999
0.999989
0.999991
0.999994
0.999998
1
1
1
1
1
1
1
0.999999
0.999997
0.999996
0.999996
0.999996
0.999995
0.999994
0.999995
0.999998
0.999998
0.999999
1
0.999998
0.999998
0.999998
0.999998
0.999996
0.999993
0.999991
0.999991
0.999993
0.999997
1
1
1
1
1
1
1
1
1
0.999999
0.999999
0.999998
0.999996
0.999993
0.999994
0.999996
0.999996
0.999997
0.999999
1
0.999999
1
1
0.999999
0.999997
0.999995
0.999993
0.999994
0.999996
0.999999
1
1
1
1
1
1
1
1
1
1
1
0.999998
0.999995
0.999994
0.999996
0.999997
0.999997
1
1
1
1
1
1
1
0.999998
0.999997
0.999997
0.999998
0.999999
0.999999
0.999999
1
1
1
1.00001
1.00001
1.00001
1
1
1
1
0.999998
0.999996
0.999997
0.999999
0.999999
1
1
1
1.00001
1
1
1
1
1
1
1
1
0.999999
0.999998
0.999999
1
1
1.00001
1.00001
1.00001
1
1
1
1
1
1
1
1
1
1
1
1
1.00001
1.00001
1
1
1
1
1
1
1
0.999999
0.999998
0.999998
1
1
1
1
1
1
1
1
1.00001
1.00001
1
1
1
1
1
1
1
1
1.00001
1
1
1
1
1
1
1
1
0.999999
1
1
1
1
1
1
1
1
1.00001
1.00001
1.00001
1
1
1
1
0.999998
0.999999
1
1
1
1
1
1
1
1
1
1
1
1
1
1
1
1
0.999999
1
1
1
1.00001
1.00001
1.00001
1
1
0.999999
1
1
0.999998
1
1
1
1.00001
1.00001
1.00001
1
1.00001
1.00001
1
1
1
1
1
1
1
0.999998
0.999999
1
1.00001
1.00001
1.00001
1
1
1
0.999999
1
1
1
1
1.00001
1
1.00001
1.00001
1.00001
1.00001
1
1.00001
1
1
1
1
1
1
1
0.999998
0.999998
1
1
1
1
1
1
1
1
1
1
1
1
1
1
1
1.00001
1
1.00001
1
1.00001
1.00001
1
1
1
1
1
1
0.999999
0.999998
1
1
1
1
0.999999
1
1
1
1
1
1
0.999999
0.999999
1
1
1
1.00001
1
1.00001
1
1
1
1
1
1
1
1
1
1
1
1
1
1
1
1
1
1.00001
1
1
1
1
0.999998
1
1
0.999997
1
1
1.00001
0.999999
1.00001
1
1
1
1
1
1
1
1
1
1
1
1
0.999999
1
1
1.00001
1
1
1
1
0.999999
0.999999
1
1
0.999995
1.00001
0.999997
1.00001
0.999996
1
1
1
1
1
1
1
1
1
1
1
1
0.999999
1
1
1
1
1
0.999998
1
1
0.999997
0.999999
1
0.999998
0.999999
1.00001
1
0.999999
1
1
1
1
1
1
1
1
1
1
1
0.999999
1
1
1
1
1
1
0.999999
1
1
1
0.999998
1
1
0.999998
1
0.999999
1.00001
0.999996
0.999998
1
1
1
1
0.999999
0.999999
1
1
1
0.999999
1
1
1
1
0.999999
1
1
0.999999
1
1
0.999999
0.999999
1
0.999998
0.999994
1
1
1
1
0.999998
1
1
1
1
1
1
1
1
1
1
1
1
1
0.999999
1
1
1
1
1
1
0.999998
1
1
0.999998
1
1
1.00001
0.999999
1
0.999999
1
1
1.00001
1
1.00003
1.00004
1
1
1.00001
1
1.00001
1.00002
1.00002
1.00002
1.00001
1.00001
1
1.00001
1
1
1.00002
1.00003
1.00003
1
1.00001
1.00001
1
1
1
1
1
0.203597
0.20505
0.207958
0.212304
0.2181
0.225306
0.233672
0.242941
0.252811
0.262952
0.273285
0.283031
0.291454
0.297722
0.300972
0.300972
0.297704
0.29145
0.283036
0.273277
0.262926
0.252784
0.242947
0.233667
0.225291
0.218122
0.212313
0.207956
0.20505
0.203595
8.59664e-05
9.54616e-05
0.00011938
0.000157549
0.000207465
0.000280972
0.000383776
0.000498576
0.000603225
0.00068321
0.000692931
0.000721404
0.000788152
0.000851034
0.000815192
0.000815361
0.000852045
0.000787314
0.000719455
0.000690693
0.000684166
0.000605623
0.000499299
0.000384749
0.00028347
0.000206758
0.000156591
0.000119774
9.47169e-05
8.72068e-05
4.99252e-06
6.05014e-06
8.25167e-06
1.26598e-05
2.00085e-05
3.21943e-05
5.40608e-05
9.25554e-05
0.000153335
0.000201125
0.0001828
0.000212872
0.000275966
0.000326162
0.000305023
0.000305263
0.000326779
0.000276028
0.000212506
0.000181565
0.000202037
0.000154791
9.33432e-05
5.44309e-05
3.26004e-05
2.00048e-05
1.25975e-05
8.30938e-06
6.01112e-06
5.12437e-06
2.49148e-07
3.18748e-07
4.76902e-07
8.11199e-07
1.38304e-06
2.42348e-06
4.39561e-06
8.49754e-06
1.65613e-05
3.00203e-05
5.27083e-05
7.01523e-05
6.67471e-05
6.21489e-05
5.97616e-05
5.98544e-05
6.23305e-05
6.6886e-05
7.03164e-05
5.31445e-05
3.04692e-05
1.69197e-05
8.66839e-06
4.44992e-06
2.46417e-06
1.38558e-06
8.09243e-07
4.81235e-07
3.17202e-07
2.55093e-07
1.18383e-08
1.64467e-08
2.57481e-08
4.56581e-08
8.17563e-08
1.51024e-07
2.90517e-07
5.66393e-07
1.07192e-06
2.01225e-06
4.67394e-06
8.49371e-06
1.16387e-05
1.70776e-05
2.31774e-05
2.31591e-05
1.71272e-05
1.17328e-05
8.63882e-06
4.85514e-06
2.0941e-06
1.09682e-06
5.76945e-07
2.95123e-07
1.5402e-07
8.21749e-08
4.56827e-08
2.60573e-08
1.64217e-08
1.2189e-08
5.58913e-10
8.03033e-10
1.20718e-09
2.15369e-09
3.89235e-09
7.26663e-09
1.43017e-08
2.89844e-08
5.85648e-08
1.14847e-07
2.50412e-07
4.98317e-07
8.42397e-07
1.69346e-06
3.11539e-06
3.10746e-06
1.70066e-06
8.46107e-07
5.02547e-07
2.549e-07
1.17834e-07
6.30292e-08
3.03878e-08
1.46061e-08
7.43678e-09
3.92562e-09
2.16062e-09
1.2254e-09
8.01999e-10
5.77508e-10
3.56829e-11
5.28249e-11
7.42864e-11
1.18104e-10
2.01193e-10
3.59948e-10
6.88342e-10
1.42115e-09
3.04847e-09
6.24844e-09
1.00924e-08
2.20472e-08
4.22183e-08
8.2585e-08
1.54607e-07
1.54446e-07
8.27908e-08
4.24734e-08
2.23115e-08
1.03151e-08
6.55449e-09
3.14691e-09
1.45202e-09
7.01281e-10
3.67806e-10
2.02874e-10
1.18602e-10
7.52931e-11
5.28528e-11
3.68931e-11
1.89481e-12
3.06174e-12
4.42346e-12
7.26809e-12
1.23689e-11
2.2045e-11
3.96266e-11
7.27241e-11
1.43777e-10
2.88282e-10
5.71776e-10
1.05698e-09
1.73216e-09
2.70403e-09
5.56004e-09
5.55413e-09
2.71155e-09
1.76111e-09
1.08152e-09
5.8651e-10
2.95177e-10
1.47613e-10
7.42353e-11
4.03603e-11
2.25663e-11
1.25046e-11
7.31553e-12
4.49639e-12
3.0648e-12
1.97353e-12
5.04572e-13
7.42645e-13
9.29768e-13
1.01415e-12
7.49425e-13
1.02739e-12
1.99124e-12
3.74454e-12
7.66574e-12
1.53881e-11
2.92824e-11
5.16714e-11
8.29086e-11
1.3141e-10
2.03597e-10
2.03465e-10
1.32016e-10
8.3563e-11
5.21981e-11
2.97919e-11
1.57588e-11
7.88406e-12
3.83475e-12
2.03309e-12
1.05457e-12
7.50469e-13
1.02146e-12
9.38082e-13
7.41335e-13
5.25045e-13
3.1742e-14
5.03756e-14
6.55527e-14
9.36403e-14
1.52189e-13
2.79502e-13
4.81514e-13
4.94124e-13
7.11397e-13
1.23357e-12
1.58866e-12
2.35159e-12
3.92531e-12
6.31583e-12
9.78498e-12
9.77794e-12
6.33553e-12
3.94854e-12
2.37531e-12
1.59289e-12
1.24418e-12
7.26577e-13
5.00593e-13
4.88206e-13
2.85684e-13
1.53229e-13
9.4038e-14
6.64112e-14
5.02132e-14
3.32378e-14
8.94987e-16
1.57941e-15
2.16408e-15
3.57585e-15
7.25816e-15
1.47149e-14
2.81863e-14
5.11047e-14
1.10438e-13
2.25633e-13
2.84961e-13
3.45106e-13
4.71328e-13
5.08785e-13
4.84821e-13
4.85301e-13
5.0991e-13
4.72388e-13
3.47523e-13
2.83239e-13
2.29872e-13
1.13299e-13
5.21687e-14
2.87634e-14
1.50843e-14
7.30662e-15
3.59504e-15
2.20013e-15
1.57462e-15
9.42687e-16
2.44965e-17
4.59907e-17
6.17571e-17
9.70283e-17
1.74341e-16
3.36712e-16
7.02891e-16
1.66414e-15
4.06004e-15
9.65691e-15
2.03508e-14
4.00747e-14
6.96208e-14
1.07768e-13
1.49457e-13
1.49471e-13
1.08068e-13
6.99286e-14
4.05112e-14
2.06719e-14
9.92996e-15
4.18673e-15
1.70307e-15
7.20983e-16
3.46266e-16
1.75417e-16
9.77114e-17
6.27739e-17
4.58786e-17
2.58613e-17
6.04193e-19
1.21216e-18
1.58364e-18
2.41506e-18
4.11402e-18
7.66965e-18
1.53537e-17
3.26752e-17
7.41036e-17
1.81803e-16
4.60868e-16
1.05282e-15
1.96653e-15
3.37514e-15
5.20333e-15
5.1985e-15
3.38586e-15
1.9765e-15
1.06613e-15
4.72694e-16
1.8729e-16
7.65839e-17
3.34808e-17
1.57387e-17
7.89061e-18
4.15689e-18
2.42596e-18
1.61381e-18
1.20802e-18
6.38876e-19
1.29348e-20
2.78312e-20
3.5542e-20
5.24383e-20
8.66532e-20
1.54877e-19
2.9579e-19
5.91673e-19
1.26683e-18
2.92425e-18
6.79032e-18
1.42276e-17
2.56005e-17
4.19282e-17
6.41736e-17
6.40929e-17
4.21509e-17
2.57967e-17
1.44012e-17
6.94616e-18
3.01322e-18
1.30752e-18
6.08504e-19
3.03919e-19
1.59475e-19
8.74589e-20
5.28331e-20
3.62192e-20
2.77679e-20
1.37018e-20
2.39992e-22
5.54927e-22
6.91492e-22
9.81718e-22
1.57811e-21
2.68023e-21
4.88023e-21
9.29953e-21
1.866e-20
4.02143e-20
8.81692e-20
1.75285e-19
3.02767e-19
4.81042e-19
7.21317e-19
7.19145e-19
4.8235e-19
3.049e-19
1.77183e-19
9.0148e-20
4.16065e-20
1.92572e-20
9.54451e-21
5.0252e-21
2.76453e-21
1.58464e-21
9.95107e-22
7.04064e-22
5.53163e-22
2.5388e-22
3.82016e-24
9.53424e-24
1.15421e-23
1.60001e-23
2.43979e-23
3.9739e-23
6.87841e-23
1.23298e-22
2.29445e-22
4.62015e-22
9.51695e-22
1.78068e-21
2.93233e-21
4.48848e-21
6.58323e-21
6.57624e-21
4.51274e-21
2.95903e-21
1.80387e-21
9.7262e-22
4.78516e-22
2.37945e-22
1.26333e-22
7.06595e-23
4.10431e-23
2.47047e-23
1.61456e-23
1.17938e-23
9.51695e-24
4.05864e-24
5.26423e-26
1.41891e-25
1.65909e-25
2.23208e-25
3.2437e-25
5.0676e-25
8.22489e-25
1.37577e-24
2.37964e-24
4.42496e-24
8.38786e-24
1.46716e-23
2.28846e-23
3.34347e-23
4.77581e-23
4.76851e-23
3.34785e-23
2.29726e-23
1.4913e-23
8.62032e-24
4.56653e-24
2.46162e-24
1.41333e-24
8.46133e-25
5.20723e-25
3.29526e-25
2.24565e-25
1.69869e-25
1.41162e-25
5.58256e-26
6.14588e-28
1.79725e-27
2.05382e-27
2.62567e-27
3.72116e-27
5.43132e-27
8.27629e-27
1.29878e-26
2.07107e-26
3.49371e-26
6.06494e-26
9.83803e-26
1.42512e-25
1.9615e-25
2.72249e-25
2.72845e-25
1.97774e-25
1.43319e-25
9.9731e-26
6.24231e-26
3.61565e-26
2.13873e-26
1.33595e-26
8.57841e-27
5.60903e-27
3.74919e-27
2.67574e-27
2.09907e-27
1.79555e-27
6.57461e-28
6.23334e-30
1.95141e-29
2.16281e-29
2.6762e-29
3.61389e-29
4.92244e-29
7.1054e-29
1.03156e-28
1.49316e-28
2.28318e-28
3.6178e-28
5.32959e-28
7.06026e-28
9.137e-28
1.2318e-27
1.23244e-27
9.20865e-28
7.11231e-28
5.39842e-28
3.72076e-28
2.3785e-28
1.55028e-28
1.05792e-28
7.33538e-29
5.13085e-29
3.63538e-29
2.71765e-29
2.20965e-29
1.94794e-29
6.61191e-30
5.28327e-32
1.8108e-31
1.92565e-31
2.32952e-31
2.93091e-31
3.83353e-31
5.15525e-31
6.81659e-31
8.99303e-31
1.24559e-30
1.76525e-30
2.32348e-30
2.80108e-30
3.37721e-30
4.35536e-30
4.34185e-30
3.38976e-30
2.83333e-30
2.36629e-30
1.8092e-30
1.28881e-30
9.35589e-31
7.03806e-31
5.29881e-31
3.97233e-31
2.98459e-31
2.34055e-31
1.97728e-31
1.80063e-31
5.66587e-32
3.83354e-34
1.41951e-33
1.46444e-33
1.67982e-33
2.03358e-33
2.51694e-33
3.07818e-33
3.74903e-33
4.52104e-33
5.57543e-33
6.9663e-33
8.20903e-33
8.92035e-33
9.90592e-33
1.20652e-32
1.20098e-32
9.8669e-33
8.96822e-33
8.34393e-33
7.1891e-33
5.79532e-33
4.71275e-33
3.91668e-33
3.20855e-33
2.58783e-33
2.07171e-33
1.71093e-33
1.50318e-33
1.41251e-33
4.11603e-34
2.37281e-36
9.34147e-36
9.47167e-36
1.03393e-35
1.2096e-35
1.36556e-35
1.54993e-35
1.75852e-35
1.90656e-35
2.07208e-35
2.30867e-35
2.37814e-35
2.34048e-35
2.34169e-35
2.68252e-35
2.6884e-35
2.32678e-35
2.35197e-35
2.40541e-35
2.36718e-35
2.14792e-35
1.96489e-35
1.81589e-35
1.62956e-35
1.42146e-35
1.21517e-35
1.05678e-35
9.64127e-36
9.34448e-36
2.52744e-36
1.20981e-38
5.24982e-38
5.09636e-38
5.43063e-38
5.91435e-38
6.23888e-38
6.72278e-38
6.93711e-38
6.72197e-38
6.60178e-38
6.52376e-38
6.15351e-38
5.43846e-38
5.20726e-38
5.59065e-38
5.57072e-38
4.91239e-38
5.48947e-38
6.1384e-38
6.4895e-38
6.71371e-38
6.89378e-38
7.13488e-38
6.98854e-38
6.57217e-38
5.99189e-38
5.49437e-38
5.20382e-38
5.20817e-38
1.31356e-38
5.19117e-41
2.50435e-40
2.31491e-40
2.39162e-40
2.45016e-40
2.48783e-40
2.47342e-40
2.31707e-40
2.13952e-40
1.99751e-40
1.84546e-40
1.64969e-40
1.48159e-40
1.47296e-40
1.46506e-40
1.42999e-40
1.21757e-40
1.48169e-40
1.59465e-40
1.70432e-40
1.87479e-40
2.12141e-40
2.42411e-40
2.5618e-40
2.57009e-40
2.49796e-40
2.42795e-40
2.37198e-40
2.44266e-40
5.79249e-41
1.91783e-43
9.92539e-43
9.13675e-43
9.01404e-43
8.97369e-43
8.58928e-43
8.03252e-43
7.50556e-43
7.10916e-43
6.7592e-43
6.22258e-43
5.74945e-43
5.46403e-43
5.6828e-43
5.41477e-43
5.24842e-43
4.27313e-43
5.34076e-43
5.22616e-43
4.9397e-43
5.28766e-43
6.18574e-43
7.77295e-43
8.40511e-43
8.75746e-43
8.98077e-43
9.26807e-43
9.14236e-43
9.60256e-43
2.19278e-43
5.73669e-46
3.52698e-45
3.1294e-45
3.0356e-45
2.9511e-45
2.76777e-45
2.67929e-45
2.67426e-45
2.72267e-45
2.71938e-45
2.51902e-45
2.32938e-45
2.18906e-45
2.22896e-45
2.06002e-45
1.98247e-45
1.59739e-45
2.05442e-45
1.99006e-45
1.73664e-45
1.74782e-45
1.98489e-45
2.64847e-45
2.74655e-45
2.77086e-45
2.90518e-45
3.17397e-45
3.0112e-45
3.16607e-45
7.44495e-46
1.38033e-48
1.21855e-47
9.98788e-48
9.98545e-48
9.7773e-48
9.65393e-48
1.00843e-47
1.06877e-47
1.14459e-47
1.13758e-47
1.00411e-47
8.67766e-48
7.60435e-48
7.29007e-48
6.50484e-48
6.19811e-48
5.05128e-48
6.78253e-48
7.06588e-48
6.30448e-48
6.44182e-48
7.16528e-48
1.00717e-47
9.88016e-48
9.08772e-48
9.29753e-48
1.0701e-47
8.81657e-48
8.87369e-48
2.50566e-48
2.93791e-51
4.28302e-50
3.41858e-50
3.56855e-50
3.61562e-50
3.76554e-50
4.089e-50
4.38518e-50
4.6139e-50
4.18834e-50
3.46848e-50
2.6613e-50
2.10511e-50
1.87398e-50
1.59402e-50
1.49894e-50
1.21992e-50
1.81258e-50
2.00699e-50
1.98061e-50
2.21983e-50
2.5734e-50
3.8971e-50
3.88342e-50
3.32502e-50
3.24924e-50
3.92896e-50
2.49916e-50
2.20253e-50
9.42574e-51
4.85529e-54
1.67403e-52
1.2991e-52
1.39566e-52
1.42937e-52
1.49683e-52
1.60172e-52
1.6354e-52
1.56632e-52
1.326e-52
9.51744e-53
6.4617e-53
4.54627e-53
3.67513e-53
2.95321e-53
2.73487e-53
2.20773e-53
3.71925e-53
4.48127e-53
4.92226e-53
6.27191e-53
8.34576e-53
1.35686e-52
1.47917e-52
1.2687e-52
1.22459e-52
1.56437e-52
7.67656e-53
5.32474e-53
3.97473e-53
6.0823e-57
6.81538e-55
5.04882e-55
5.43733e-55
5.40349e-55
5.45148e-55
5.51193e-55
5.13079e-55
4.44202e-55
3.35947e-55
2.08525e-55
1.22939e-55
7.55824e-56
5.45721e-56
4.10731e-56
3.72188e-56
2.93886e-56
5.56158e-56
7.68531e-56
9.67068e-56
1.40745e-55
2.2379e-55
4.00048e-55
4.94014e-55
4.49825e-55
4.48131e-55
6.09852e-55
2.60624e-55
1.41568e-55
1.66672e-55
8.33985e-60
2.52407e-57
1.81156e-57
1.90465e-57
1.79403e-57
1.70963e-57
1.5734e-57
1.34716e-57
1.03167e-57
6.77652e-58
3.6321e-58
1.82955e-58
9.65808e-59
6.11786e-59
4.26697e-59
3.72066e-59
2.84339e-59
6.14147e-59
9.88045e-59
1.44839e-58
2.47514e-58
4.59814e-58
1.01992e-57
1.35531e-57
1.37759e-57
1.45443e-57
2.11932e-57
8.80828e-58
4.18719e-58
6.26024e-58
1.00586e-62
8.03418e-60
5.61762e-60
5.65345e-60
5.03484e-60
4.45486e-60
3.78864e-60
2.87438e-60
1.93984e-60
1.10038e-60
5.02011e-61
2.129e-61
9.49704e-62
5.18472e-62
3.31443e-62
2.73821e-62
1.92956e-62
4.86701e-62
9.31609e-62
1.61856e-61
3.34653e-61
7.45895e-61
2.12262e-60
3.05856e-60
3.53535e-60
3.99982e-60
6.26048e-60
2.66927e-60
1.22656e-60
2.00465e-60
1.44337e-65
2.15577e-62
1.46336e-62
1.4018e-62
1.18598e-62
9.61505e-63
7.42489e-63
5.02225e-63
2.96112e-63
1.43692e-63
5.51428e-64
1.94634e-64
7.25206e-65
3.36343e-65
1.95584e-65
1.49628e-65
8.70968e-66
2.62302e-65
6.14073e-65
1.28863e-64
3.37341e-64
9.3436e-64
3.45985e-63
5.78248e-63
7.40478e-63
9.26528e-63
1.54285e-62
6.88388e-63
3.19802e-63
5.3721e-63
2.69148e-68
4.81547e-65
3.16608e-65
2.88562e-65
2.31311e-65
1.71431e-65
1.19815e-65
7.18548e-66
3.67417e-66
1.51323e-66
4.84764e-67
1.4156e-67
4.39633e-68
1.72839e-68
9.19678e-69
6.26412e-69
3.86231e-69
1.27471e-68
3.78134e-68
1.02193e-67
2.99823e-67
8.71186e-67
4.51395e-66
8.94328e-66
1.27111e-65
1.78055e-65
3.15053e-65
1.48161e-65
7.06446e-66
1.19721e-65
5.86068e-71
8.89805e-68
5.70073e-68
4.92688e-68
3.70687e-68
2.52237e-68
1.59079e-68
8.42125e-69
3.71678e-69
1.29407e-69
3.45735e-70
8.429e-71
2.23732e-71
7.72365e-72
3.96662e-72
2.2582e-72
1.32758e-72
5.27065e-72
1.91857e-71
6.4403e-71
2.32169e-70
7.67529e-70
4.73046e-69
1.12711e-68
1.79691e-68
2.82204e-68
5.32054e-68
2.64581e-68
1.30067e-68
2.21543e-68
7.2031e-74
1.36543e-70
8.53088e-71
6.98587e-71
4.92639e-71
3.07029e-71
1.74315e-71
8.13776e-72
3.09694e-72
9.14554e-73
2.07591e-73
4.4371e-74
1.10864e-74
3.86364e-75
2.17396e-75
1.47631e-75
3.96607e-76
1.68912e-75
7.69728e-75
3.24837e-74
1.45497e-73
5.79629e-73
3.97647e-72
1.16195e-71
2.09541e-71
3.69714e-71
7.4339e-71
3.91617e-71
1.98657e-71
3.40651e-71
8.83223e-77
1.75095e-73
1.06335e-73
8.27465e-74
5.47784e-74
3.11734e-74
1.59364e-74
6.59042e-75
2.18293e-75
5.60127e-76
1.15389e-76
2.47735e-77
6.95083e-78
2.68803e-78
1.65754e-78
1.37929e-78
1.10342e-78
5.58532e-79
2.50046e-78
1.33005e-77
7.47194e-77
3.58498e-76
2.69529e-75
9.87972e-75
2.02771e-74
4.01795e-74
8.60962e-74
4.80881e-74
2.51511e-74
4.3618e-74
9.36381e-80
1.88174e-76
1.10845e-76
8.25016e-77
5.14956e-77
2.67371e-77
1.23968e-77
4.62015e-78
1.37388e-78
3.28111e-79
7.03995e-80
1.76485e-80
5.59064e-81
2.30727e-81
1.4778e-81
1.31916e-81
1.64134e-81
2.21664e-81
1.68512e-81
4.50598e-81
3.13958e-80
1.82709e-79
1.52954e-78
7.06574e-78
1.64623e-77
3.64497e-77
8.29502e-77
4.90832e-77
2.6407e-77
4.66869e-77
9.7765e-83
1.70536e-79
9.73448e-80
7.00964e-80
4.16557e-80
1.98047e-80
8.48445e-81
2.96359e-81
8.47244e-82
2.09265e-82
5.18682e-83
1.45934e-83
4.85022e-84
2.02103e-84
1.29637e-84
1.18142e-84
1.62158e-84
3.01885e-84
5.86317e-84
6.42411e-84
1.09384e-83
7.70185e-83
8.00721e-82
4.40396e-81
1.1497e-80
2.79306e-80
6.68558e-80
4.1801e-80
2.30201e-80
4.20691e-80
7.98589e-86
1.32275e-82
7.3107e-83
5.18355e-83
2.98451e-83
1.31131e-83
5.37382e-84
1.87479e-84
5.55086e-85
1.50858e-85
4.09745e-86
1.19471e-86
3.9521e-87
1.62433e-87
1.03261e-87
9.47638e-88
1.34328e-87
2.71588e-87
6.64855e-87
1.74411e-86
3.65987e-86
3.89867e-86
4.7583e-85
2.56805e-84
7.16015e-84
1.83759e-83
4.55346e-83
2.98883e-83
1.67051e-83
3.23205e-83
4.05156e-89
8.99099e-86
4.80335e-86
3.44156e-86
1.96601e-86
8.16165e-87
3.33226e-87
1.22005e-87
3.87301e-88
1.10629e-88
3.07886e-89
8.87516e-90
2.86835e-90
1.15624e-90
7.27147e-91
6.69156e-91
9.65301e-91
2.02223e-90
5.3354e-90
1.67684e-89
5.25307e-89
1.08189e-88
3.3652e-88
1.53783e-87
4.25719e-87
1.07391e-86
2.71987e-86
1.87221e-86
1.01258e-86
2.16622e-86
2.52407e-92
5.53433e-89
2.864e-89
2.1419e-89
1.24353e-89
4.98925e-90
2.09454e-90
8.14988e-91
2.6544e-91
7.63234e-92
2.09159e-92
5.85681e-93
1.84069e-93
7.27193e-94
4.52526e-94
4.1721e-94
6.10582e-94
1.31154e-93
3.60294e-93
1.21966e-92
4.36964e-92
1.33685e-91
4.15161e-91
1.42176e-90
3.4203e-90
6.24322e-90
1.60958e-89
1.05355e-89
5.16725e-90
1.31384e-89
1.92489e-95
3.24967e-92
1.63207e-92
1.31066e-92
7.81244e-93
3.10321e-93
1.33842e-93
5.29922e-94
1.7182e-94
4.83598e-95
1.28325e-95
3.47331e-96
1.06108e-96
4.11125e-97
2.53235e-97
2.34254e-97
3.47961e-97
7.6584e-97
2.175e-96
7.71798e-96
2.97006e-95
1.05097e-94
3.49365e-94
1.14307e-93
2.66957e-93
4.41507e-93
9.18092e-93
5.59934e-93
2.23484e-93
7.60831e-93
9.19915e-99
1.92229e-95
9.43381e-96
8.20972e-96
5.00053e-96
1.94576e-96
8.41942e-97
3.30734e-97
1.04527e-97
2.84249e-98
7.26706e-99
1.90104e-99
5.65298e-100
2.1514e-100
1.31307e-100
1.22091e-100
1.84396e-100
4.16692e-100
1.22425e-99
4.51775e-99
1.8263e-98
6.98222e-98
2.45384e-97
8.11107e-97
1.92919e-96
3.12123e-96
5.49224e-96
3.02822e-96
8.41702e-97
4.45202e-96
5.95718e-102
1.19819e-98
5.74923e-99
5.24784e-99
3.18852e-99
1.21028e-99
5.18449e-100
1.98497e-100
6.05321e-101
1.58437e-101
3.90405e-102
9.89172e-103
2.86989e-103
1.07498e-103
6.5135e-104
6.09269e-104
9.37302e-104
2.17928e-103
6.63616e-103
2.54056e-102
1.06747e-101
4.28841e-101
1.57428e-100
5.33088e-100
1.30298e-99
2.1138e-99
3.4238e-99
1.77377e-99
3.21967e-100
2.75767e-99
3.15876e-105
7.64681e-102
3.59209e-102
3.36512e-102
2.01385e-102
7.43339e-103
3.12431e-103
1.15593e-103
3.3918e-104
8.55172e-105
2.03601e-105
5.01075e-106
1.42216e-106
5.25377e-107
3.16386e-107
2.97965e-107
4.67308e-107
1.11955e-106
3.53803e-106
1.40336e-105
6.09287e-105
2.53751e-104
9.63716e-104
3.34541e-103
8.41636e-103
1.38435e-102
2.16417e-102
1.08014e-102
1.25514e-103
1.75103e-102
2.51589e-108
4.94138e-105
2.27647e-105
2.15082e-105
1.2565e-105
4.50302e-106
1.85014e-106
6.59747e-107
1.86373e-107
4.53666e-108
1.0465e-108
2.50854e-109
6.9817e-110
2.54832e-110
1.52609e-110
1.44735e-110
2.31609e-110
5.71769e-110
1.87585e-109
7.70131e-109
3.44282e-108
1.47613e-107
5.76165e-107
2.04396e-106
5.28464e-106
8.85409e-106
1.37526e-105
6.78259e-106
5.2947e-107
1.12559e-105
1.55516e-111
3.20672e-108
1.44895e-108
1.36673e-108
7.7505e-109
2.6985e-109
1.08296e-109
3.72159e-110
1.01356e-110
2.38695e-111
5.34791e-112
1.251e-112
3.42092e-113
1.23501e-113
7.36859e-114
7.0389e-114
1.14671e-113
2.92069e-113
9.94411e-113
4.22122e-112
1.93933e-111
8.53001e-111
3.40782e-110
1.23131e-109
3.26363e-109
5.57506e-109
8.7286e-109
4.32513e-109
2.58947e-110
7.25562e-109
1.03988e-114
2.08171e-111
9.25272e-112
8.66994e-112
4.75941e-112
1.60976e-112
6.30929e-113
2.08949e-113
5.491e-114
1.25279e-114
2.73124e-115
6.24624e-116
1.68097e-116
6.03454e-117
3.59855e-117
3.46307e-117
5.73313e-117
1.49785e-116
5.29082e-116
2.32033e-115
1.09452e-114
4.93037e-114
2.01199e-113
7.38768e-113
2.00393e-112
3.49167e-112
5.53989e-112
2.76626e-112
1.57936e-113
4.6651e-112
7.35148e-115
1.07352e-114
4.25679e-112
3.06626e-112
1.07626e-112
4.05529e-113
1.26567e-113
3.22596e-114
7.3169e-115
1.61755e-115
3.84935e-116
1.08056e-116
3.35157e-117
1.60834e-117
9.38155e-118
9.11407e-118
1.50026e-117
3.34236e-117
1.05471e-116
3.80186e-116
1.63792e-115
7.6193e-115
3.40252e-114
1.37944e-113
4.98672e-113
1.41484e-112
1.44019e-112
1.51395e-113
1.51956e-113
1.51333e-113
0.999991
0.999986
0.999989
0.999991
0.999993
0.999996
0.999998
1
1
1
1
1
1
1.00001
1.00001
1.00001
1.00001
1.00001
1
1
0.999995
0.999992
0.999991
0.999992
0.999997
1.00001
1.00001
1.00002
1.00002
1.00001
0.999987
0.999986
0.999988
0.999991
0.999994
0.999997
0.999999
1
1
1
1
1
1.00001
1.00001
1.00001
1.00001
1.00001
1.00001
1
0.999997
0.999992
0.99999
0.99999
0.999993
1
1.00001
1.00002
1.00003
1.00003
1.00002
0.999992
0.999992
0.999994
0.999996
0.999998
1
1
1
1
1
1
1.00001
1.00001
1.00001
1.00001
1
1
1
0.999999
0.999996
0.999995
0.999995
0.999996
0.999999
1
1.00001
1.00001
1.00001
1.00001
1
0.999996
0.999998
0.999999
1
1
1
1
1
1
1.00001
1.00001
1.00001
1
1
1
0.999999
0.999998
0.999997
0.999996
0.999997
0.999999
1
1
1
1
1
1
0.999999
0.999994
0.999991
1
1
1
1
1
1
1
1
1
1.00001
1.00001
1
1
1
0.999998
0.999996
0.999995
0.999995
0.999996
0.999999
1
1.00001
1.00001
1.00001
1
0.999997
0.99999
0.999986
0.999981
0.999983
1
1
1
1
1
1
1
1
1
1
1
1
1
1
0.999998
0.999996
0.999996
0.999997
0.999999
1
1.00001
1.00001
1.00001
1
0.999999
0.999992
0.999985
0.999979
0.999976
0.999982
1
1
1
0.999999
0.999998
0.999997
0.999997
0.999998
0.999999
1
1
1
1
1
1
1
1
1
1
1
1.00001
1
1
0.999999
0.999994
0.999988
0.999983
0.99998
0.999979
0.999987
1
1
0.999999
0.999998
0.999996
0.999995
0.999996
0.999996
0.999997
0.999999
1
1
1
1.00001
1.00001
1.00001
1.00001
1.00001
1.00001
1.00001
1
1
0.999997
0.999993
0.99999
0.999987
0.999985
0.999985
0.999986
0.999993
1
1
1
0.999999
0.999998
0.999998
0.999997
0.999997
0.999997
0.999997
0.999999
1
1
1.00001
1.00001
1.00001
1.00001
1.00001
1.00001
1
1
0.999996
0.999993
0.99999
0.999988
0.999988
0.999989
0.999991
0.999994
0.999999
1
1.00001
1.00001
1.00001
1.00001
1
1
0.999999
0.999997
0.999996
0.999996
0.999998
1
1.00001
1.00001
1.00001
1.00001
1.00001
1.00001
1
0.999999
0.999995
0.999992
0.99999
0.999989
0.99999
0.999993
0.999996
0.999999
1
1.00001
1.00002
1.00002
1.00002
1.00001
1.00001
1.00001
1
0.999997
0.999994
0.999993
0.999993
0.999996
0.999999
1
1
1
1
1
1
1
0.999998
0.999996
0.999995
0.999994
0.999995
0.999997
0.999999
1
1
1.00002
1.00002
1.00002
1.00002
1.00002
1.00002
1.00001
1
0.999997
0.999993
0.999991
0.99999
0.99999
0.999991
0.999993
0.999994
0.999996
0.999999
1
1
1
1
1
1
1
1
1
1
1
1
1.00002
1.00003
1.00002
1.00002
1.00002
1.00001
1.00001
1
0.999998
0.999995
0.999992
0.99999
0.999988
0.999987
0.999987
0.999988
0.999992
0.999997
1
1.00001
1.00001
1.00001
1.00001
1.00001
1.00001
1.00001
1.00001
1
1
1
1.00002
1.00002
1.00001
1.00001
1.00001
1.00001
1
1
1
1
0.999997
0.999994
0.99999
0.999987
0.999986
0.999988
0.999992
0.999999
1.00001
1.00001
1.00002
1.00002
1.00002
1.00002
1.00002
1.00001
1.00001
1.00001
1
1
1
0.999999
0.999997
0.999996
0.999995
0.999996
0.999999
1
1
1.00001
1
0.999999
0.999995
0.999991
0.999989
0.999991