/*--------------------------------*- C++ -*----------------------------------*\
| =========                 |                                                 |
| \\      /  F ield         | OpenFOAM: The Open Source CFD Toolbox           |
|  \\    /   O peration     | Version:  2312                                  |
|   \\  /    A nd           | Website:  www.openfoam.com                      |
|    \\/     M anipulation  |                                                 |
\*---------------------------------------------------------------------------*/
FoamFile
{
    version     2.0;
    format      ascii;
    arch        "LSB;label=32;scalar=64";
    class       volScalarField;
    location    "0.248571";
    object      epsilon;
}
// * * * * * * * * * * * * * * * * * * * * * * * * * * * * * * * * * * * * * //

dimensions      [0 2 -3 0 0 0 0];

internalField   nonuniform List<scalar> 
90000
(
1.5559e-05
1.55593e-05
1.55593e-05
1.55593e-05
1.55594e-05
1.55594e-05
1.55593e-05
1.55593e-05
1.55593e-05
1.55593e-05
1.55593e-05
1.55593e-05
1.55592e-05
1.55592e-05
1.55592e-05
1.55591e-05
1.55591e-05
1.55592e-05
1.55592e-05
1.55592e-05
1.55593e-05
1.55593e-05
1.55593e-05
1.55593e-05
1.55593e-05
1.55593e-05
1.55593e-05
1.55593e-05
1.55593e-05
1.55592e-05
1.55594e-05
1.55645e-05
1.55645e-05
1.55645e-05
1.55645e-05
1.55645e-05
1.55645e-05
1.55645e-05
1.55645e-05
1.55644e-05
1.55644e-05
1.55643e-05
1.55643e-05
1.55643e-05
1.55642e-05
1.55642e-05
1.55642e-05
1.55643e-05
1.55643e-05
1.55643e-05
1.55644e-05
1.55644e-05
1.55644e-05
1.55644e-05
1.55645e-05
1.55645e-05
1.55645e-05
1.55645e-05
1.55646e-05
1.55602e-05
1.55593e-05
1.55645e-05
1.55646e-05
1.55646e-05
1.55646e-05
1.55646e-05
1.55646e-05
1.55645e-05
1.55645e-05
1.55645e-05
1.55645e-05
1.55644e-05
1.55644e-05
1.55644e-05
1.55643e-05
1.55643e-05
1.55643e-05
1.55644e-05
1.55644e-05
1.55644e-05
1.55645e-05
1.55645e-05
1.55645e-05
1.55645e-05
1.55645e-05
1.55645e-05
1.55645e-05
1.55643e-05
1.55639e-05
1.55595e-05
1.55594e-05
1.55645e-05
1.55646e-05
1.55645e-05
1.55645e-05
1.55645e-05
1.55645e-05
1.55645e-05
1.55645e-05
1.55645e-05
1.55644e-05
1.55644e-05
1.55644e-05
1.55644e-05
1.55643e-05
1.55643e-05
1.55644e-05
1.55644e-05
1.55644e-05
1.55644e-05
1.55644e-05
1.55645e-05
1.55645e-05
1.55645e-05
1.55645e-05
1.55645e-05
1.55646e-05
1.55646e-05
1.55643e-05
1.55594e-05
1.55594e-05
1.55644e-05
1.55645e-05
1.55645e-05
1.55645e-05
1.55645e-05
1.55645e-05
1.55645e-05
1.55645e-05
1.55645e-05
1.55644e-05
1.55644e-05
1.55644e-05
1.55644e-05
1.55644e-05
1.55644e-05
1.55644e-05
1.55644e-05
1.55644e-05
1.55644e-05
1.55644e-05
1.55645e-05
1.55645e-05
1.55645e-05
1.55645e-05
1.55645e-05
1.55645e-05
1.55645e-05
1.55644e-05
1.55594e-05
1.55594e-05
1.55644e-05
1.55645e-05
1.55645e-05
1.55645e-05
1.55645e-05
1.55645e-05
1.55645e-05
1.55645e-05
1.55645e-05
1.55644e-05
1.55644e-05
1.55644e-05
1.55644e-05
1.55644e-05
1.55644e-05
1.55644e-05
1.55644e-05
1.55644e-05
1.55644e-05
1.55645e-05
1.55645e-05
1.55645e-05
1.55645e-05
1.55645e-05
1.55645e-05
1.55645e-05
1.55645e-05
1.55644e-05
1.55594e-05
1.55594e-05
1.55644e-05
1.55645e-05
1.55645e-05
1.55645e-05
1.55645e-05
1.55645e-05
1.55645e-05
1.55645e-05
1.55645e-05
1.55645e-05
1.55644e-05
1.55644e-05
1.55644e-05
1.55644e-05
1.55644e-05
1.55644e-05
1.55644e-05
1.55644e-05
1.55645e-05
1.55645e-05
1.55645e-05
1.55645e-05
1.55645e-05
1.55645e-05
1.55645e-05
1.55646e-05
1.55646e-05
1.55645e-05
1.55594e-05
1.55595e-05
1.55645e-05
1.55646e-05
1.55646e-05
1.55646e-05
1.55646e-05
1.55646e-05
1.55646e-05
1.55645e-05
1.55645e-05
1.55645e-05
1.55645e-05
1.55644e-05
1.55644e-05
1.55644e-05
1.55644e-05
1.55644e-05
1.55644e-05
1.55645e-05
1.55645e-05
1.55645e-05
1.55645e-05
1.55646e-05
1.55646e-05
1.55646e-05
1.55646e-05
1.55646e-05
1.55646e-05
1.55645e-05
1.55595e-05
1.55596e-05
1.55646e-05
1.55647e-05
1.55647e-05
1.55647e-05
1.55647e-05
1.55647e-05
1.55646e-05
1.55646e-05
1.55646e-05
1.55645e-05
1.55645e-05
1.55644e-05
1.55644e-05
1.55644e-05
1.55643e-05
1.55644e-05
1.55644e-05
1.55645e-05
1.55645e-05
1.55646e-05
1.55646e-05
1.55646e-05
1.55647e-05
1.55647e-05
1.55647e-05
1.55647e-05
1.55647e-05
1.55646e-05
1.55595e-05
1.55597e-05
1.55648e-05
1.55649e-05
1.55648e-05
1.55648e-05
1.55648e-05
1.55648e-05
1.55647e-05
1.55647e-05
1.55646e-05
1.55646e-05
1.55645e-05
1.55644e-05
1.55644e-05
1.55643e-05
1.55643e-05
1.55644e-05
1.55644e-05
1.55645e-05
1.55645e-05
1.55646e-05
1.55647e-05
1.55647e-05
1.55648e-05
1.55648e-05
1.55648e-05
1.55648e-05
1.55648e-05
1.55647e-05
1.55597e-05
1.55599e-05
1.55649e-05
1.5565e-05
1.5565e-05
1.5565e-05
1.55649e-05
1.55649e-05
1.55649e-05
1.55648e-05
1.55647e-05
1.55646e-05
1.55646e-05
1.55645e-05
1.55644e-05
1.55643e-05
1.55643e-05
1.55644e-05
1.55644e-05
1.55645e-05
1.55646e-05
1.55647e-05
1.55648e-05
1.55648e-05
1.55649e-05
1.55649e-05
1.5565e-05
1.5565e-05
1.5565e-05
1.55649e-05
1.55599e-05
1.55601e-05
1.55651e-05
1.55652e-05
1.55651e-05
1.55651e-05
1.55651e-05
1.5565e-05
1.5565e-05
1.55649e-05
1.55648e-05
1.55647e-05
1.55646e-05
1.55645e-05
1.55644e-05
1.55643e-05
1.55643e-05
1.55644e-05
1.55645e-05
1.55646e-05
1.55647e-05
1.55648e-05
1.55649e-05
1.5565e-05
1.5565e-05
1.55651e-05
1.55651e-05
1.55652e-05
1.55652e-05
1.55651e-05
1.55601e-05
1.55603e-05
1.55653e-05
1.55654e-05
1.55653e-05
1.55653e-05
1.55653e-05
1.55652e-05
1.55651e-05
1.5565e-05
1.55649e-05
1.55648e-05
1.55647e-05
1.55646e-05
1.55645e-05
1.55644e-05
1.55644e-05
1.55645e-05
1.55646e-05
1.55647e-05
1.55649e-05
1.5565e-05
1.55651e-05
1.55651e-05
1.55652e-05
1.55653e-05
1.55653e-05
1.55654e-05
1.55655e-05
1.55654e-05
1.55604e-05
1.55605e-05
1.55656e-05
1.55656e-05
1.55656e-05
1.55656e-05
1.55655e-05
1.55654e-05
1.55653e-05
1.55652e-05
1.55651e-05
1.5565e-05
1.55648e-05
1.55647e-05
1.55645e-05
1.55644e-05
1.55644e-05
1.55646e-05
1.55647e-05
1.55649e-05
1.5565e-05
1.55651e-05
1.55652e-05
1.55653e-05
1.55654e-05
1.55655e-05
1.55656e-05
1.55657e-05
1.55658e-05
1.55657e-05
1.55607e-05
1.55609e-05
1.55659e-05
1.5566e-05
1.55659e-05
1.55659e-05
1.55658e-05
1.55657e-05
1.55656e-05
1.55654e-05
1.55653e-05
1.55651e-05
1.5565e-05
1.55648e-05
1.55646e-05
1.55645e-05
1.55645e-05
1.55646e-05
1.55648e-05
1.5565e-05
1.55651e-05
1.55653e-05
1.55654e-05
1.55655e-05
1.55657e-05
1.55658e-05
1.55659e-05
1.5566e-05
1.55661e-05
1.5566e-05
1.5561e-05
1.55613e-05
1.55664e-05
1.55664e-05
1.55664e-05
1.55663e-05
1.55662e-05
1.5566e-05
1.55659e-05
1.55657e-05
1.55655e-05
1.55653e-05
1.55651e-05
1.55649e-05
1.55647e-05
1.55645e-05
1.55645e-05
1.55647e-05
1.55649e-05
1.55651e-05
1.55653e-05
1.55655e-05
1.55657e-05
1.55658e-05
1.5566e-05
1.55662e-05
1.55663e-05
1.55664e-05
1.55665e-05
1.55664e-05
1.55614e-05
1.55619e-05
1.55669e-05
1.5567e-05
1.55669e-05
1.55668e-05
1.55666e-05
1.55664e-05
1.55662e-05
1.5566e-05
1.55658e-05
1.55655e-05
1.55653e-05
1.5565e-05
1.55648e-05
1.55645e-05
1.55646e-05
1.55648e-05
1.5565e-05
1.55653e-05
1.55655e-05
1.55658e-05
1.5566e-05
1.55662e-05
1.55664e-05
1.55666e-05
1.55667e-05
1.55668e-05
1.55669e-05
1.55669e-05
1.55619e-05
1.55625e-05
1.55676e-05
1.55676e-05
1.55675e-05
1.55673e-05
1.55672e-05
1.55669e-05
1.55667e-05
1.55664e-05
1.55661e-05
1.55658e-05
1.55655e-05
1.55652e-05
1.55649e-05
1.55646e-05
1.55646e-05
1.55649e-05
1.55652e-05
1.55655e-05
1.55659e-05
1.55662e-05
1.55665e-05
1.55667e-05
1.5567e-05
1.55672e-05
1.55673e-05
1.55674e-05
1.55676e-05
1.55675e-05
1.55625e-05
1.55633e-05
1.55683e-05
1.55683e-05
1.55682e-05
1.5568e-05
1.55678e-05
1.55675e-05
1.55673e-05
1.55669e-05
1.55666e-05
1.55662e-05
1.55659e-05
1.55655e-05
1.55651e-05
1.55648e-05
1.55648e-05
1.55651e-05
1.55655e-05
1.55659e-05
1.55663e-05
1.55667e-05
1.5567e-05
1.55673e-05
1.55676e-05
1.55678e-05
1.5568e-05
1.55682e-05
1.55683e-05
1.55683e-05
1.55633e-05
1.55642e-05
1.55692e-05
1.55692e-05
1.5569e-05
1.55688e-05
1.55686e-05
1.55683e-05
1.5568e-05
1.55676e-05
1.55672e-05
1.55668e-05
1.55663e-05
1.55658e-05
1.55654e-05
1.5565e-05
1.5565e-05
1.55653e-05
1.55658e-05
1.55663e-05
1.55668e-05
1.55672e-05
1.55677e-05
1.5568e-05
1.55683e-05
1.55686e-05
1.55689e-05
1.55691e-05
1.55693e-05
1.55692e-05
1.55642e-05
1.55653e-05
1.55703e-05
1.55703e-05
1.55701e-05
1.55698e-05
1.55695e-05
1.55692e-05
1.55688e-05
1.55684e-05
1.55679e-05
1.55674e-05
1.55668e-05
1.55662e-05
1.55657e-05
1.55652e-05
1.55652e-05
1.55656e-05
1.55662e-05
1.55668e-05
1.55673e-05
1.55679e-05
1.55684e-05
1.55688e-05
1.55692e-05
1.55696e-05
1.55699e-05
1.55702e-05
1.55703e-05
1.55703e-05
1.55652e-05
1.55666e-05
1.55716e-05
1.55716e-05
1.55713e-05
1.55711e-05
1.55707e-05
1.55703e-05
1.55699e-05
1.55693e-05
1.55688e-05
1.55681e-05
1.55674e-05
1.55667e-05
1.5566e-05
1.55655e-05
1.55655e-05
1.5566e-05
1.55667e-05
1.55674e-05
1.5568e-05
1.55687e-05
1.55693e-05
1.55698e-05
1.55703e-05
1.55708e-05
1.55712e-05
1.55714e-05
1.55716e-05
1.55716e-05
1.55666e-05
1.55682e-05
1.55733e-05
1.55732e-05
1.55729e-05
1.55726e-05
1.55722e-05
1.55717e-05
1.55711e-05
1.55705e-05
1.55697e-05
1.55689e-05
1.55681e-05
1.55672e-05
1.55664e-05
1.55659e-05
1.55659e-05
1.55665e-05
1.55673e-05
1.55681e-05
1.55689e-05
1.55697e-05
1.55704e-05
1.55711e-05
1.55717e-05
1.55723e-05
1.55727e-05
1.5573e-05
1.55732e-05
1.55733e-05
1.55683e-05
1.55702e-05
1.55753e-05
1.55752e-05
1.55749e-05
1.55745e-05
1.5574e-05
1.55734e-05
1.55726e-05
1.55718e-05
1.55709e-05
1.557e-05
1.55689e-05
1.55679e-05
1.5567e-05
1.55664e-05
1.55664e-05
1.55671e-05
1.55681e-05
1.55691e-05
1.557e-05
1.5571e-05
1.55719e-05
1.55727e-05
1.55734e-05
1.5574e-05
1.55745e-05
1.55749e-05
1.55752e-05
1.55754e-05
1.55703e-05
1.55726e-05
1.55777e-05
1.55776e-05
1.55772e-05
1.55767e-05
1.55761e-05
1.55754e-05
1.55745e-05
1.55735e-05
1.55724e-05
1.55713e-05
1.55701e-05
1.55689e-05
1.55678e-05
1.55671e-05
1.55671e-05
1.55679e-05
1.5569e-05
1.55702e-05
1.55714e-05
1.55726e-05
1.55736e-05
1.55746e-05
1.55754e-05
1.55761e-05
1.55767e-05
1.55772e-05
1.55776e-05
1.55777e-05
1.55727e-05
1.55755e-05
1.55806e-05
1.55804e-05
1.558e-05
1.55794e-05
1.55787e-05
1.55778e-05
1.55768e-05
1.55756e-05
1.55743e-05
1.5573e-05
1.55716e-05
1.55701e-05
1.55688e-05
1.55679e-05
1.55679e-05
1.55688e-05
1.55702e-05
1.55716e-05
1.55731e-05
1.55745e-05
1.55757e-05
1.55768e-05
1.55778e-05
1.55786e-05
1.55794e-05
1.558e-05
1.55804e-05
1.55805e-05
1.55755e-05
1.5579e-05
1.5584e-05
1.55838e-05
1.55833e-05
1.55826e-05
1.55818e-05
1.55808e-05
1.55796e-05
1.55783e-05
1.55767e-05
1.55751e-05
1.55734e-05
1.55716e-05
1.55701e-05
1.5569e-05
1.5569e-05
1.557e-05
1.55716e-05
1.55734e-05
1.55751e-05
1.55768e-05
1.55783e-05
1.55796e-05
1.55807e-05
1.55818e-05
1.55826e-05
1.55833e-05
1.55838e-05
1.55839e-05
1.55789e-05
1.55831e-05
1.5588e-05
1.55878e-05
1.55873e-05
1.55865e-05
1.55856e-05
1.55844e-05
1.5583e-05
1.55814e-05
1.55796e-05
1.55776e-05
1.55755e-05
1.55735e-05
1.55716e-05
1.55704e-05
1.55703e-05
1.55716e-05
1.55735e-05
1.55756e-05
1.55777e-05
1.55796e-05
1.55814e-05
1.5583e-05
1.55844e-05
1.55856e-05
1.55866e-05
1.55873e-05
1.55878e-05
1.55881e-05
1.55831e-05
1.55879e-05
1.55929e-05
1.55926e-05
1.5592e-05
1.55912e-05
1.55901e-05
1.55888e-05
1.55871e-05
1.55852e-05
1.5583e-05
1.55807e-05
1.55782e-05
1.55758e-05
1.55736e-05
1.55722e-05
1.55722e-05
1.55737e-05
1.55759e-05
1.55783e-05
1.55808e-05
1.55831e-05
1.55852e-05
1.55871e-05
1.55888e-05
1.55902e-05
1.55912e-05
1.55921e-05
1.55927e-05
1.55931e-05
1.55881e-05
1.55938e-05
1.55988e-05
1.55985e-05
1.55978e-05
1.55968e-05
1.55955e-05
1.55939e-05
1.55919e-05
1.55897e-05
1.55872e-05
1.55844e-05
1.55816e-05
1.55787e-05
1.55763e-05
1.55747e-05
1.55747e-05
1.55764e-05
1.55789e-05
1.55817e-05
1.55846e-05
1.55873e-05
1.55898e-05
1.55921e-05
1.5594e-05
1.55955e-05
1.55968e-05
1.55977e-05
1.55985e-05
1.55989e-05
1.55938e-05
1.56007e-05
1.56058e-05
1.56054e-05
1.56046e-05
1.56034e-05
1.56019e-05
1.56e-05
1.55978e-05
1.55952e-05
1.55923e-05
1.55891e-05
1.55858e-05
1.55825e-05
1.55797e-05
1.55779e-05
1.5578e-05
1.55797e-05
1.55826e-05
1.55858e-05
1.55892e-05
1.55924e-05
1.55953e-05
1.5598e-05
1.56002e-05
1.56019e-05
1.56034e-05
1.56046e-05
1.56054e-05
1.56058e-05
1.56008e-05
1.5609e-05
1.56142e-05
1.56136e-05
1.56127e-05
1.56113e-05
1.56096e-05
1.56074e-05
1.56049e-05
1.56019e-05
1.55986e-05
1.55949e-05
1.5591e-05
1.55872e-05
1.5584e-05
1.5582e-05
1.5582e-05
1.5584e-05
1.55872e-05
1.5591e-05
1.55948e-05
1.55986e-05
1.5602e-05
1.5605e-05
1.56075e-05
1.56096e-05
1.56113e-05
1.56127e-05
1.56136e-05
1.56141e-05
1.56091e-05
1.56187e-05
1.56239e-05
1.56232e-05
1.56221e-05
1.56206e-05
1.56187e-05
1.56163e-05
1.56135e-05
1.56101e-05
1.56063e-05
1.5602e-05
1.55975e-05
1.55931e-05
1.55895e-05
1.55872e-05
1.55872e-05
1.55894e-05
1.55931e-05
1.55974e-05
1.56018e-05
1.56062e-05
1.56101e-05
1.56135e-05
1.56164e-05
1.56188e-05
1.56208e-05
1.56223e-05
1.56233e-05
1.56239e-05
1.56189e-05
1.563e-05
1.56351e-05
1.56344e-05
1.56332e-05
1.56316e-05
1.56295e-05
1.56269e-05
1.56237e-05
1.56199e-05
1.56155e-05
1.56106e-05
1.56054e-05
1.56005e-05
1.55964e-05
1.5594e-05
1.5594e-05
1.55964e-05
1.56005e-05
1.56054e-05
1.56105e-05
1.56154e-05
1.56198e-05
1.56236e-05
1.56268e-05
1.56296e-05
1.56317e-05
1.56333e-05
1.56345e-05
1.56352e-05
1.56301e-05
1.56431e-05
1.56482e-05
1.56475e-05
1.56462e-05
1.56445e-05
1.56423e-05
1.56394e-05
1.56358e-05
1.56315e-05
1.56265e-05
1.5621e-05
1.56153e-05
1.56098e-05
1.56053e-05
1.56027e-05
1.56027e-05
1.56053e-05
1.56098e-05
1.56153e-05
1.5621e-05
1.56264e-05
1.56313e-05
1.56355e-05
1.56392e-05
1.56421e-05
1.56444e-05
1.56462e-05
1.56475e-05
1.56482e-05
1.5643e-05
1.56581e-05
1.56633e-05
1.56626e-05
1.56613e-05
1.56595e-05
1.56571e-05
1.5654e-05
1.565e-05
1.56453e-05
1.56398e-05
1.56338e-05
1.56275e-05
1.56215e-05
1.56166e-05
1.56138e-05
1.56137e-05
1.56165e-05
1.56215e-05
1.56275e-05
1.56338e-05
1.56397e-05
1.56451e-05
1.56498e-05
1.56538e-05
1.56569e-05
1.56593e-05
1.56612e-05
1.56625e-05
1.56631e-05
1.56579e-05
1.56753e-05
1.56805e-05
1.56799e-05
1.56786e-05
1.56768e-05
1.56742e-05
1.56709e-05
1.56668e-05
1.56618e-05
1.56559e-05
1.56494e-05
1.56427e-05
1.56362e-05
1.56309e-05
1.56278e-05
1.56278e-05
1.56308e-05
1.56362e-05
1.56427e-05
1.56495e-05
1.5656e-05
1.56618e-05
1.56668e-05
1.5671e-05
1.56742e-05
1.56767e-05
1.56785e-05
1.56797e-05
1.56802e-05
1.5675e-05
1.56948e-05
1.57001e-05
1.56995e-05
1.56983e-05
1.56965e-05
1.5694e-05
1.56907e-05
1.56865e-05
1.56813e-05
1.56752e-05
1.56684e-05
1.56612e-05
1.56544e-05
1.56488e-05
1.56456e-05
1.56456e-05
1.56489e-05
1.56545e-05
1.56614e-05
1.56686e-05
1.56755e-05
1.56816e-05
1.56869e-05
1.5691e-05
1.56943e-05
1.56967e-05
1.56983e-05
1.56993e-05
1.56997e-05
1.56945e-05
1.57167e-05
1.5722e-05
1.57216e-05
1.57206e-05
1.5719e-05
1.57167e-05
1.57136e-05
1.57095e-05
1.57044e-05
1.56982e-05
1.56912e-05
1.56838e-05
1.56767e-05
1.5671e-05
1.56677e-05
1.56677e-05
1.56711e-05
1.56769e-05
1.5684e-05
1.56914e-05
1.56984e-05
1.57047e-05
1.57099e-05
1.5714e-05
1.57171e-05
1.57193e-05
1.57207e-05
1.57215e-05
1.57218e-05
1.57165e-05
1.57409e-05
1.57463e-05
1.57461e-05
1.57454e-05
1.57443e-05
1.57425e-05
1.57398e-05
1.5736e-05
1.57311e-05
1.57251e-05
1.57181e-05
1.57108e-05
1.57037e-05
1.5698e-05
1.56947e-05
1.56946e-05
1.56979e-05
1.57036e-05
1.57107e-05
1.5718e-05
1.5725e-05
1.57312e-05
1.57361e-05
1.57399e-05
1.57427e-05
1.57446e-05
1.57456e-05
1.57462e-05
1.57463e-05
1.57411e-05
1.57673e-05
1.57728e-05
1.5773e-05
1.57728e-05
1.57724e-05
1.57713e-05
1.57693e-05
1.57661e-05
1.57618e-05
1.57562e-05
1.57497e-05
1.57427e-05
1.57359e-05
1.57302e-05
1.57269e-05
1.57269e-05
1.573e-05
1.57355e-05
1.57422e-05
1.57493e-05
1.57559e-05
1.57615e-05
1.57659e-05
1.57691e-05
1.57712e-05
1.57724e-05
1.57729e-05
1.5773e-05
1.5773e-05
1.57676e-05
1.57957e-05
1.58014e-05
1.58022e-05
1.58028e-05
1.58033e-05
1.58032e-05
1.58021e-05
1.58e-05
1.57966e-05
1.57919e-05
1.57862e-05
1.57799e-05
1.57736e-05
1.57684e-05
1.57654e-05
1.57653e-05
1.57682e-05
1.57733e-05
1.57795e-05
1.57858e-05
1.57916e-05
1.57962e-05
1.57996e-05
1.58017e-05
1.58027e-05
1.58029e-05
1.58026e-05
1.58021e-05
1.58016e-05
1.5796e-05
1.58258e-05
1.58319e-05
1.58335e-05
1.58352e-05
1.58368e-05
1.58379e-05
1.58382e-05
1.58374e-05
1.58355e-05
1.58322e-05
1.58277e-05
1.58225e-05
1.58172e-05
1.58128e-05
1.58103e-05
1.58104e-05
1.5813e-05
1.58173e-05
1.58225e-05
1.58277e-05
1.58321e-05
1.58353e-05
1.58373e-05
1.58379e-05
1.58375e-05
1.58364e-05
1.58349e-05
1.58335e-05
1.58322e-05
1.58259e-05
1.58582e-05
1.58648e-05
1.58671e-05
1.58698e-05
1.58726e-05
1.58752e-05
1.58772e-05
1.58783e-05
1.58781e-05
1.58766e-05
1.58739e-05
1.58703e-05
1.58664e-05
1.58632e-05
1.58614e-05
1.58615e-05
1.58635e-05
1.58668e-05
1.58707e-05
1.58743e-05
1.58769e-05
1.58783e-05
1.58784e-05
1.58772e-05
1.58751e-05
1.58723e-05
1.58696e-05
1.58672e-05
1.5865e-05
1.58581e-05
1.58944e-05
1.59008e-05
1.59034e-05
1.59069e-05
1.59108e-05
1.5915e-05
1.59189e-05
1.59222e-05
1.59243e-05
1.59251e-05
1.59246e-05
1.59229e-05
1.59206e-05
1.59185e-05
1.59172e-05
1.59173e-05
1.59187e-05
1.59209e-05
1.59233e-05
1.5925e-05
1.59256e-05
1.59247e-05
1.59225e-05
1.59191e-05
1.5915e-05
1.59107e-05
1.59068e-05
1.59036e-05
1.59008e-05
1.58942e-05
1.59318e-05
1.59382e-05
1.59415e-05
1.59459e-05
1.59512e-05
1.59571e-05
1.5963e-05
1.59686e-05
1.59733e-05
1.59768e-05
1.59788e-05
1.59794e-05
1.59788e-05
1.59775e-05
1.59764e-05
1.59764e-05
1.59775e-05
1.59789e-05
1.59796e-05
1.59792e-05
1.59772e-05
1.59737e-05
1.59689e-05
1.59633e-05
1.59572e-05
1.59513e-05
1.59461e-05
1.59417e-05
1.59383e-05
1.59316e-05
1.59695e-05
1.59761e-05
1.59802e-05
1.59859e-05
1.5993e-05
1.60009e-05
1.60092e-05
1.60173e-05
1.60247e-05
1.6031e-05
1.60356e-05
1.60385e-05
1.60396e-05
1.60391e-05
1.60381e-05
1.60381e-05
1.6039e-05
1.60395e-05
1.60385e-05
1.60356e-05
1.60311e-05
1.60249e-05
1.60175e-05
1.60094e-05
1.60011e-05
1.59932e-05
1.59862e-05
1.59805e-05
1.59761e-05
1.59694e-05
1.60019e-05
1.60088e-05
1.6014e-05
1.60213e-05
1.60306e-05
1.60412e-05
1.60526e-05
1.6064e-05
1.60748e-05
1.60843e-05
1.60922e-05
1.60979e-05
1.61014e-05
1.61029e-05
1.6103e-05
1.6103e-05
1.61027e-05
1.61012e-05
1.60977e-05
1.60919e-05
1.60842e-05
1.60747e-05
1.6064e-05
1.60526e-05
1.60413e-05
1.60308e-05
1.60217e-05
1.60143e-05
1.6009e-05
1.60017e-05
1.60869e-05
1.60936e-05
1.61007e-05
1.61099e-05
1.61224e-05
1.61371e-05
1.61527e-05
1.61687e-05
1.61841e-05
1.61978e-05
1.62088e-05
1.62169e-05
1.62218e-05
1.62239e-05
1.62244e-05
1.62245e-05
1.62237e-05
1.62219e-05
1.62168e-05
1.62086e-05
1.61974e-05
1.61838e-05
1.61688e-05
1.61526e-05
1.61369e-05
1.61228e-05
1.61105e-05
1.61007e-05
1.60939e-05
1.60864e-05
1.59262e-05
1.59312e-05
1.59394e-05
1.59493e-05
1.59688e-05
1.59825e-05
1.60023e-05
1.602e-05
1.60421e-05
1.60727e-05
1.61271e-05
1.62233e-05
1.63773e-05
1.65491e-05
1.68662e-05
1.68659e-05
1.65487e-05
1.63774e-05
1.62238e-05
1.61282e-05
1.60732e-05
1.60416e-05
1.60182e-05
1.59977e-05
1.59796e-05
1.59622e-05
1.59472e-05
1.59366e-05
1.59307e-05
1.59248e-05
1.64975e-05
1.64168e-05
1.64977e-05
1.67757e-05
1.71251e-05
1.74832e-05
1.79447e-05
1.90201e-05
2.16723e-05
2.80167e-05
4.30218e-05
7.25233e-05
0.00012042
0.000175017
0.000271948
0.000271801
0.000174999
0.000120443
7.27068e-05
4.32902e-05
2.81731e-05
2.1699e-05
1.89802e-05
1.78505e-05
1.729e-05
1.69119e-05
1.66236e-05
1.64201e-05
1.63525e-05
1.6329e-05
2.744e-05
2.87325e-05
3.11801e-05
3.66104e-05
4.62206e-05
6.42423e-05
0.000107972
0.000237918
0.000610403
0.00153172
0.00342039
0.00660275
0.0106785
0.01455
0.0190294
0.0190271
0.0145407
0.0107009
0.00663188
0.00344274
0.00154499
0.000616624
0.000240382
0.000108772
6.46784e-05
4.62009e-05
3.62602e-05
3.1022e-05
2.78222e-05
2.72672e-05
3.39144e-05
3.52947e-05
3.85875e-05
4.46004e-05
5.36729e-05
6.98322e-05
0.000105771
0.000198841
0.000436964
0.000977995
0.00211508
0.00436044
0.00802746
0.0119093
0.0181696
0.0181638
0.0119069
0.00806497
0.00439332
0.00213018
0.000985127
0.00044068
0.000200501
0.000106432
7.02769e-05
5.36726e-05
4.43629e-05
3.85716e-05
3.49975e-05
3.4039e-05
3.94219e-05
4.07642e-05
4.3827e-05
4.88549e-05
5.60817e-05
6.70739e-05
8.70745e-05
0.000134453
0.000262849
0.000587432
0.00130101
0.00264124
0.0046612
0.00692607
0.0101452
0.0101426
0.00692289
0.00467335
0.00265331
0.00130864
0.000592028
0.000265235
0.000135408
8.74686e-05
6.73517e-05
5.61449e-05
4.87773e-05
4.37601e-05
4.06535e-05
3.95734e-05
4.41654e-05
4.54642e-05
4.7902e-05
5.1731e-05
5.70144e-05
6.41651e-05
7.44027e-05
9.23681e-05
0.000134746
0.000250579
0.000548297
0.00118699
0.00224618
0.00363137
0.00561713
0.0056145
0.00362884
0.00224961
0.00119115
0.000551503
0.000252533
0.000135664
9.27539e-05
7.46117e-05
6.43157e-05
5.70847e-05
5.17371e-05
4.78424e-05
4.53394e-05
4.43205e-05
4.75152e-05
4.86288e-05
5.04984e-05
5.34061e-05
5.72619e-05
6.2142e-05
6.8247e-05
7.63527e-05
8.92661e-05
0.000117273
0.000188157
0.000359317
0.000693827
0.00124747
0.00218199
0.00217993
0.00124643
0.000694516
0.000360275
0.000189076
0.000117849
8.95983e-05
7.6551e-05
6.83734e-05
6.22467e-05
5.73308e-05
5.34406e-05
5.05201e-05
4.85438e-05
4.75526e-05
4.93342e-05
5.02646e-05
5.17466e-05
5.39475e-05
5.68161e-05
6.03647e-05
6.45788e-05
6.95385e-05
7.5617e-05
8.42147e-05
9.93904e-05
0.000130178
0.000190017
0.000303487
0.000530201
0.000529731
0.000303397
0.000190201
0.000130369
9.96083e-05
8.44258e-05
7.57378e-05
6.96165e-05
6.46567e-05
6.04515e-05
5.68861e-05
5.39731e-05
5.17737e-05
5.02808e-05
4.93103e-05
4.97606e-05
5.07703e-05
5.18686e-05
5.35295e-05
5.56955e-05
5.83241e-05
6.1359e-05
6.47931e-05
6.867e-05
7.31363e-05
7.86023e-05
8.596e-05
9.66217e-05
0.000113428
0.000143421
0.000143397
0.000113509
9.67647e-05
8.61078e-05
7.87444e-05
7.32686e-05
6.87806e-05
6.48933e-05
6.14396e-05
5.8376e-05
5.57285e-05
5.35328e-05
5.18696e-05
5.07738e-05
4.98086e-05
4.92031e-05
5.02338e-05
5.10076e-05
5.22855e-05
5.39669e-05
5.5968e-05
5.8228e-05
6.07169e-05
6.34072e-05
6.62966e-05
6.93245e-05
7.25014e-05
7.58231e-05
7.93671e-05
8.33654e-05
8.33482e-05
7.93418e-05
7.57799e-05
7.24478e-05
6.92898e-05
6.62924e-05
6.34418e-05
6.07527e-05
5.82571e-05
5.59994e-05
5.4014e-05
5.23451e-05
5.10674e-05
5.02499e-05
4.92698e-05
4.79934e-05
4.8864e-05
4.94721e-05
5.04396e-05
5.16932e-05
5.31695e-05
5.48296e-05
5.66143e-05
5.85027e-05
6.04504e-05
6.23763e-05
6.42357e-05
6.59246e-05
6.73419e-05
6.83208e-05
6.83541e-05
6.74022e-05
6.60024e-05
6.43398e-05
6.25013e-05
6.05792e-05
5.86298e-05
5.67206e-05
5.49054e-05
5.32257e-05
5.17211e-05
5.0452e-05
4.94814e-05
4.88828e-05
4.79239e-05
4.59385e-05
4.68579e-05
4.73062e-05
4.80389e-05
4.89713e-05
5.00635e-05
5.12754e-05
5.25463e-05
5.38555e-05
5.51324e-05
5.63425e-05
5.74466e-05
5.83982e-05
5.91216e-05
5.95516e-05
5.95742e-05
5.91503e-05
5.84244e-05
5.74709e-05
5.63654e-05
5.51499e-05
5.38723e-05
5.2577e-05
5.13009e-05
5.00832e-05
4.89783e-05
4.80455e-05
4.73243e-05
4.69091e-05
4.59907e-05
4.359e-05
4.45224e-05
4.47778e-05
4.52866e-05
4.59685e-05
4.67583e-05
4.76106e-05
4.84665e-05
4.93051e-05
5.00669e-05
5.07333e-05
5.12969e-05
5.17343e-05
5.20291e-05
5.2209e-05
5.22107e-05
5.2024e-05
5.17068e-05
5.12692e-05
5.07242e-05
5.00633e-05
4.93108e-05
4.84896e-05
4.76325e-05
4.67858e-05
4.60066e-05
4.53339e-05
4.48077e-05
4.45389e-05
4.36576e-05
4.10878e-05
4.18991e-05
4.20267e-05
4.23914e-05
4.28612e-05
4.33974e-05
4.39383e-05
4.44444e-05
4.48864e-05
4.52316e-05
4.54893e-05
4.56663e-05
4.57448e-05
4.57704e-05
4.57795e-05
4.57765e-05
4.57795e-05
4.57714e-05
4.572e-05
4.55741e-05
4.53205e-05
4.49605e-05
4.45031e-05
4.39783e-05
4.34331e-05
4.29121e-05
4.24481e-05
4.20809e-05
4.19196e-05
4.10933e-05
3.84633e-05
3.91457e-05
3.92183e-05
3.94748e-05
3.97871e-05
4.01274e-05
4.04259e-05
4.06609e-05
4.08118e-05
4.08605e-05
4.0817e-05
4.06856e-05
4.04958e-05
4.03311e-05
4.02375e-05
4.0243e-05
4.03602e-05
4.05417e-05
4.07246e-05
4.08516e-05
4.08956e-05
4.084e-05
4.06787e-05
4.04298e-05
4.01282e-05
3.98153e-05
3.95184e-05
3.92746e-05
3.9203e-05
3.84585e-05
3.58203e-05
3.64617e-05
3.6492e-05
3.6635e-05
3.68154e-05
3.6982e-05
3.70928e-05
3.71339e-05
3.7077e-05
3.69166e-05
3.66607e-05
3.63231e-05
3.59731e-05
3.56774e-05
3.54951e-05
3.54917e-05
3.56694e-05
3.59699e-05
3.63196e-05
3.66552e-05
3.69238e-05
3.709e-05
3.71432e-05
3.70997e-05
3.699e-05
3.68363e-05
3.66666e-05
3.65256e-05
3.65262e-05
3.58705e-05
3.3338e-05
3.39218e-05
3.38851e-05
3.3949e-05
3.40058e-05
3.40496e-05
3.40135e-05
3.39052e-05
3.3713e-05
3.34127e-05
3.30124e-05
3.2555e-05
3.21025e-05
3.17198e-05
3.14924e-05
3.14974e-05
3.1729e-05
3.21168e-05
3.25764e-05
3.3032e-05
3.34304e-05
3.37383e-05
3.39451e-05
3.4055e-05
3.40803e-05
3.40446e-05
3.39785e-05
3.39204e-05
3.39683e-05
3.33978e-05
3.10587e-05
3.15502e-05
3.14876e-05
3.14761e-05
3.1465e-05
3.14038e-05
3.12698e-05
3.10722e-05
3.07811e-05
3.0383e-05
2.99075e-05
2.93897e-05
2.88842e-05
2.84642e-05
2.82241e-05
2.8233e-05
2.84791e-05
2.88941e-05
2.94009e-05
2.9924e-05
3.04033e-05
3.08027e-05
3.1103e-05
3.13058e-05
3.14259e-05
3.14827e-05
3.14965e-05
3.14968e-05
3.157e-05
3.10838e-05
2.89518e-05
2.93616e-05
2.92728e-05
2.9207e-05
2.91659e-05
2.90335e-05
2.88549e-05
2.86039e-05
2.82472e-05
2.78043e-05
2.72979e-05
2.67553e-05
2.62307e-05
2.58004e-05
2.55547e-05
2.55578e-05
2.58055e-05
2.62338e-05
2.67602e-05
2.73083e-05
2.78195e-05
2.82583e-05
2.86106e-05
2.88763e-05
2.9062e-05
2.91775e-05
2.92395e-05
2.9277e-05
2.93648e-05
2.8964e-05
2.70476e-05
2.73784e-05
2.72762e-05
2.72136e-05
2.71053e-05
2.69479e-05
2.67499e-05
2.64587e-05
2.60769e-05
2.56287e-05
2.51175e-05
2.45753e-05
2.40607e-05
2.36482e-05
2.34148e-05
2.34185e-05
2.36587e-05
2.40735e-05
2.45856e-05
2.51254e-05
2.56406e-05
2.60968e-05
2.64758e-05
2.67711e-05
2.69852e-05
2.71297e-05
2.72225e-05
2.72874e-05
2.7383e-05
2.70591e-05
2.5387e-05
2.56455e-05
2.55324e-05
2.54603e-05
2.53236e-05
2.51757e-05
2.49508e-05
2.46418e-05
2.42701e-05
2.38292e-05
2.33296e-05
2.28117e-05
2.23293e-05
2.19421e-05
2.17159e-05
2.17138e-05
2.19398e-05
2.23326e-05
2.28197e-05
2.33365e-05
2.38334e-05
2.42779e-05
2.46525e-05
2.49513e-05
2.51778e-05
2.53421e-05
2.54565e-05
2.55369e-05
2.563e-05
2.53711e-05
2.38775e-05
2.40997e-05
2.40018e-05
2.39134e-05
2.38014e-05
2.36404e-05
2.33987e-05
2.31034e-05
2.27468e-05
2.23228e-05
2.18549e-05
2.13787e-05
2.09353e-05
2.05745e-05
2.03622e-05
2.03618e-05
2.0575e-05
2.09413e-05
2.13914e-05
2.18673e-05
2.2327e-05
2.27445e-05
2.31044e-05
2.33997e-05
2.36304e-05
2.38023e-05
2.3924e-05
2.4009e-05
2.40962e-05
2.38944e-05
2.26181e-05
2.27501e-05
2.26872e-05
2.25958e-05
2.24876e-05
2.23091e-05
2.20832e-05
2.18112e-05
2.14742e-05
2.10837e-05
2.06608e-05
2.02311e-05
1.98254e-05
1.94917e-05
1.92959e-05
1.92962e-05
1.94911e-05
1.98238e-05
2.02312e-05
2.06633e-05
2.10853e-05
2.14733e-05
2.18111e-05
2.20905e-05
2.23115e-05
2.24792e-05
2.26013e-05
2.26887e-05
2.27711e-05
2.2616e-05
2.15025e-05
2.16136e-05
2.15496e-05
2.14696e-05
2.13506e-05
2.11862e-05
2.09877e-05
2.0732e-05
2.04215e-05
2.00709e-05
1.96933e-05
1.93051e-05
1.89353e-05
1.86331e-05
1.84578e-05
1.84598e-05
1.86371e-05
1.8937e-05
1.93036e-05
1.96931e-05
2.00743e-05
2.04245e-05
2.07299e-05
2.09852e-05
2.11914e-05
2.13525e-05
2.1473e-05
2.15599e-05
2.16348e-05
2.15131e-05
2.05383e-05
2.06576e-05
2.05801e-05
2.05059e-05
2.03927e-05
2.02489e-05
2.00604e-05
1.98214e-05
1.95453e-05
1.92383e-05
1.89056e-05
1.85602e-05
1.82329e-05
1.79672e-05
1.78129e-05
1.78152e-05
1.79735e-05
1.82401e-05
1.85649e-05
1.89095e-05
1.92462e-05
1.95559e-05
1.98285e-05
2.00602e-05
2.02507e-05
2.04012e-05
2.05143e-05
2.0595e-05
2.06597e-05
2.05635e-05
1.97572e-05
1.98264e-05
1.97699e-05
1.96965e-05
1.95929e-05
1.94587e-05
1.92823e-05
1.90738e-05
1.88374e-05
1.85717e-05
1.82795e-05
1.79762e-05
1.76892e-05
1.74533e-05
1.73129e-05
1.7312e-05
1.7451e-05
1.76861e-05
1.79724e-05
1.82755e-05
1.85711e-05
1.88436e-05
1.90849e-05
1.92912e-05
1.94612e-05
1.95957e-05
1.96972e-05
1.97699e-05
1.98263e-05
1.97522e-05
1.90701e-05
1.91182e-05
1.90768e-05
1.90037e-05
1.89118e-05
1.87908e-05
1.86406e-05
1.84645e-05
1.82596e-05
1.80252e-05
1.77688e-05
1.7505e-05
1.72537e-05
1.7044e-05
1.69174e-05
1.69159e-05
1.70404e-05
1.72499e-05
1.75029e-05
1.77681e-05
1.80248e-05
1.82607e-05
1.84695e-05
1.86483e-05
1.87963e-05
1.89148e-05
1.90057e-05
1.90718e-05
1.91218e-05
1.90655e-05
1.84764e-05
1.85382e-05
1.84856e-05
1.84212e-05
1.83436e-05
1.824e-05
1.81129e-05
1.79586e-05
1.77764e-05
1.75711e-05
1.73509e-05
1.7125e-05
1.69079e-05
1.6725e-05
1.66137e-05
1.66138e-05
1.67257e-05
1.69104e-05
1.71298e-05
1.7357e-05
1.75759e-05
1.77774e-05
1.79567e-05
1.81114e-05
1.82412e-05
1.83462e-05
1.84275e-05
1.84869e-05
1.85305e-05
1.84864e-05
1.80037e-05
1.80402e-05
1.79905e-05
1.79421e-05
1.78741e-05
1.77846e-05
1.76722e-05
1.7536e-05
1.73784e-05
1.72045e-05
1.70183e-05
1.68256e-05
1.66388e-05
1.64792e-05
1.63806e-05
1.63806e-05
1.64787e-05
1.66378e-05
1.68245e-05
1.70175e-05
1.72045e-05
1.7378e-05
1.75335e-05
1.76687e-05
1.77823e-05
1.78742e-05
1.79452e-05
1.79968e-05
1.80336e-05
1.79979e-05
1.75944e-05
1.76076e-05
1.75792e-05
1.75395e-05
1.74777e-05
1.73974e-05
1.72994e-05
1.71849e-05
1.70542e-05
1.69085e-05
1.67499e-05
1.65841e-05
1.6422e-05
1.62825e-05
1.61956e-05
1.61958e-05
1.62814e-05
1.64182e-05
1.65779e-05
1.67435e-05
1.69045e-05
1.70544e-05
1.71886e-05
1.73047e-05
1.74018e-05
1.74801e-05
1.75406e-05
1.7585e-05
1.76162e-05
1.75877e-05
1.72372e-05
1.72628e-05
1.72431e-05
1.72028e-05
1.71466e-05
1.70762e-05
1.69953e-05
1.69012e-05
1.67918e-05
1.66672e-05
1.65304e-05
1.63875e-05
1.62484e-05
1.61294e-05
1.60555e-05
1.60566e-05
1.61315e-05
1.62495e-05
1.63865e-05
1.6528e-05
1.6665e-05
1.67916e-05
1.69046e-05
1.70022e-05
1.7084e-05
1.71503e-05
1.72023e-05
1.72412e-05
1.72687e-05
1.72461e-05
1.69557e-05
1.69867e-05
1.69621e-05
1.69252e-05
1.68766e-05
1.68193e-05
1.67518e-05
1.66706e-05
1.65759e-05
1.64689e-05
1.63526e-05
1.62322e-05
1.61162e-05
1.60167e-05
1.59533e-05
1.59539e-05
1.60185e-05
1.61194e-05
1.62353e-05
1.63539e-05
1.64679e-05
1.65733e-05
1.66677e-05
1.675e-05
1.68196e-05
1.68769e-05
1.69227e-05
1.69573e-05
1.69811e-05
1.69615e-05
1.67251e-05
1.67417e-05
1.67203e-05
1.66921e-05
1.66535e-05
1.66061e-05
1.65459e-05
1.64745e-05
1.63937e-05
1.63043e-05
1.62081e-05
1.61095e-05
1.60139e-05
1.59295e-05
1.58736e-05
1.5873e-05
1.59283e-05
1.60136e-05