/*--------------------------------*- C++ -*----------------------------------*\
| =========                 |                                                 |
| \\      /  F ield         | OpenFOAM: The Open Source CFD Toolbox           |
|  \\    /   O peration     | Version:  2312                                  |
|   \\  /    A nd           | Website:  www.openfoam.com                      |
|    \\/     M anipulation  |                                                 |
\*---------------------------------------------------------------------------*/
FoamFile
{
    version     2.0;
    format      ascii;
    arch        "LSB;label=32;scalar=64";
    class       volScalarField;
    location    "0.248571";
    object      k;
}
// * * * * * * * * * * * * * * * * * * * * * * * * * * * * * * * * * * * * * //

dimensions      [0 2 -2 0 0 0 0];

internalField   nonuniform List<scalar> 
90000
(
3.33159e-05
3.33164e-05
3.33164e-05
3.33164e-05
3.33164e-05
3.33164e-05
3.33164e-05
3.33164e-05
3.33164e-05
3.33163e-05
3.33163e-05
3.33163e-05
3.33162e-05
3.33162e-05
3.33161e-05
3.33161e-05
3.33161e-05
3.33162e-05
3.33162e-05
3.33162e-05
3.33163e-05
3.33163e-05
3.33163e-05
3.33163e-05
3.33163e-05
3.33164e-05
3.33163e-05
3.33163e-05
3.33163e-05
3.33162e-05
3.33164e-05
3.33245e-05
3.33246e-05
3.33246e-05
3.33246e-05
3.33246e-05
3.33246e-05
3.33246e-05
3.33245e-05
3.33245e-05
3.33244e-05
3.33244e-05
3.33243e-05
3.33242e-05
3.33242e-05
3.33242e-05
3.33242e-05
3.33242e-05
3.33243e-05
3.33244e-05
3.33244e-05
3.33244e-05
3.33245e-05
3.33245e-05
3.33245e-05
3.33245e-05
3.33246e-05
3.33247e-05
3.33247e-05
3.33176e-05
3.33164e-05
3.33246e-05
3.33247e-05
3.33247e-05
3.33247e-05
3.33247e-05
3.33247e-05
3.33247e-05
3.33246e-05
3.33246e-05
3.33246e-05
3.33245e-05
3.33245e-05
3.33244e-05
3.33244e-05
3.33243e-05
3.33244e-05
3.33244e-05
3.33245e-05
3.33245e-05
3.33245e-05
3.33246e-05
3.33246e-05
3.33246e-05
3.33246e-05
3.33246e-05
3.33246e-05
3.33244e-05
3.33238e-05
3.33166e-05
3.33164e-05
3.33246e-05
3.33247e-05
3.33247e-05
3.33247e-05
3.33247e-05
3.33247e-05
3.33246e-05
3.33246e-05
3.33246e-05
3.33245e-05
3.33245e-05
3.33245e-05
3.33244e-05
3.33244e-05
3.33244e-05
3.33244e-05
3.33244e-05
3.33245e-05
3.33245e-05
3.33245e-05
3.33246e-05
3.33246e-05
3.33246e-05
3.33246e-05
3.33247e-05
3.33247e-05
3.33248e-05
3.33243e-05
3.33165e-05
3.33164e-05
3.33245e-05
3.33247e-05
3.33247e-05
3.33246e-05
3.33246e-05
3.33246e-05
3.33246e-05
3.33246e-05
3.33246e-05
3.33245e-05
3.33245e-05
3.33245e-05
3.33244e-05
3.33244e-05
3.33244e-05
3.33244e-05
3.33245e-05
3.33245e-05
3.33245e-05
3.33245e-05
3.33246e-05
3.33246e-05
3.33246e-05
3.33246e-05
3.33246e-05
3.33246e-05
3.33247e-05
3.33244e-05
3.33164e-05
3.33165e-05
3.33245e-05
3.33246e-05
3.33246e-05
3.33246e-05
3.33246e-05
3.33246e-05
3.33246e-05
3.33246e-05
3.33246e-05
3.33245e-05
3.33245e-05
3.33245e-05
3.33245e-05
3.33244e-05
3.33244e-05
3.33244e-05
3.33245e-05
3.33245e-05
3.33245e-05
3.33246e-05
3.33246e-05
3.33246e-05
3.33246e-05
3.33246e-05
3.33246e-05
3.33246e-05
3.33246e-05
3.33245e-05
3.33165e-05
3.33165e-05
3.33245e-05
3.33247e-05
3.33247e-05
3.33247e-05
3.33247e-05
3.33247e-05
3.33246e-05
3.33246e-05
3.33246e-05
3.33246e-05
3.33245e-05
3.33245e-05
3.33245e-05
3.33244e-05
3.33244e-05
3.33245e-05
3.33245e-05
3.33245e-05
3.33246e-05
3.33246e-05
3.33246e-05
3.33246e-05
3.33247e-05
3.33247e-05
3.33247e-05
3.33247e-05
3.33247e-05
3.33245e-05
3.33165e-05
3.33166e-05
3.33246e-05
3.33248e-05
3.33248e-05
3.33248e-05
3.33248e-05
3.33247e-05
3.33247e-05
3.33247e-05
3.33246e-05
3.33246e-05
3.33246e-05
3.33245e-05
3.33245e-05
3.33244e-05
3.33244e-05
3.33245e-05
3.33245e-05
3.33246e-05
3.33246e-05
3.33246e-05
3.33247e-05
3.33247e-05
3.33248e-05
3.33248e-05
3.33248e-05
3.33248e-05
3.33248e-05
3.33246e-05
3.33166e-05
3.33168e-05
3.33248e-05
3.3325e-05
3.3325e-05
3.33249e-05
3.33249e-05
3.33249e-05
3.33248e-05
3.33248e-05
3.33247e-05
3.33247e-05
3.33246e-05
3.33245e-05
3.33244e-05
3.33244e-05
3.33244e-05
3.33244e-05
3.33245e-05
3.33246e-05
3.33246e-05
3.33247e-05
3.33248e-05
3.33248e-05
3.33249e-05
3.33249e-05
3.33249e-05
3.33249e-05
3.33249e-05
3.33247e-05
3.33167e-05
3.3317e-05
3.3325e-05
3.33252e-05
3.33252e-05
3.33251e-05
3.33251e-05
3.33251e-05
3.3325e-05
3.33249e-05
3.33248e-05
3.33247e-05
3.33246e-05
3.33245e-05
3.33244e-05
3.33244e-05
3.33243e-05
3.33244e-05
3.33245e-05
3.33246e-05
3.33247e-05
3.33248e-05
3.33249e-05
3.3325e-05
3.3325e-05
3.33251e-05
3.33251e-05
3.33251e-05
3.33251e-05
3.33249e-05
3.33169e-05
3.33172e-05
3.33253e-05
3.33254e-05
3.33254e-05
3.33253e-05
3.33253e-05
3.33252e-05
3.33252e-05
3.33251e-05
3.3325e-05
3.33248e-05
3.33247e-05
3.33246e-05
3.33245e-05
3.33243e-05
3.33243e-05
3.33244e-05
3.33245e-05
3.33247e-05
3.33248e-05
3.33249e-05
3.33251e-05
3.33252e-05
3.33252e-05
3.33253e-05
3.33253e-05
3.33253e-05
3.33253e-05
3.33252e-05
3.33172e-05
3.33175e-05
3.33255e-05
3.33257e-05
3.33256e-05
3.33256e-05
3.33255e-05
3.33255e-05
3.33254e-05
3.33253e-05
3.33251e-05
3.3325e-05
3.33248e-05
3.33247e-05
3.33245e-05
3.33243e-05
3.33243e-05
3.33245e-05
3.33246e-05
3.33248e-05
3.3325e-05
3.33251e-05
3.33253e-05
3.33254e-05
3.33255e-05
3.33255e-05
3.33256e-05
3.33256e-05
3.33257e-05
3.33256e-05
3.33176e-05
3.33179e-05
3.33259e-05
3.3326e-05
3.33259e-05
3.33259e-05
3.33258e-05
3.33257e-05
3.33256e-05
3.33255e-05
3.33253e-05
3.33251e-05
3.3325e-05
3.33248e-05
3.33246e-05
3.33244e-05
3.33244e-05
3.33246e-05
3.33248e-05
3.3325e-05
3.33252e-05
3.33253e-05
3.33255e-05
3.33256e-05
3.33257e-05
3.33258e-05
3.33259e-05
3.3326e-05
3.33261e-05
3.3326e-05
3.3318e-05
3.33183e-05
3.33263e-05
3.33264e-05
3.33263e-05
3.33263e-05
3.33262e-05
3.3326e-05
3.33259e-05
3.33257e-05
3.33255e-05
3.33253e-05
3.33251e-05
3.33249e-05
3.33247e-05
3.33245e-05
3.33245e-05
3.33247e-05
3.33249e-05
3.33252e-05
3.33254e-05
3.33256e-05
3.33257e-05
3.33259e-05
3.3326e-05
3.33262e-05
3.33263e-05
3.33265e-05
3.33266e-05
3.33265e-05
3.33185e-05
3.33188e-05
3.33268e-05
3.33269e-05
3.33269e-05
3.33268e-05
3.33266e-05
3.33265e-05
3.33263e-05
3.33261e-05
3.33258e-05
3.33256e-05
3.33253e-05
3.33251e-05
3.33248e-05
3.33246e-05
3.33246e-05
3.33248e-05
3.33251e-05
3.33253e-05
3.33256e-05
3.33258e-05
3.3326e-05
3.33262e-05
3.33265e-05
3.33267e-05
3.33268e-05
3.3327e-05
3.33271e-05
3.3327e-05
3.33189e-05
3.33195e-05
3.33275e-05
3.33276e-05
3.33275e-05
3.33274e-05
3.33272e-05
3.3327e-05
3.33267e-05
3.33265e-05
3.33262e-05
3.33259e-05
3.33256e-05
3.33252e-05
3.33249e-05
3.33246e-05
3.33246e-05
3.33249e-05
3.33252e-05
3.33255e-05
3.33259e-05
3.33261e-05
3.33264e-05
3.33267e-05
3.3327e-05
3.33272e-05
3.33274e-05
3.33275e-05
3.33277e-05
3.33276e-05
3.33196e-05
3.33203e-05
3.33284e-05
3.33285e-05
3.33283e-05
3.33281e-05
3.33279e-05
3.33276e-05
3.33273e-05
3.3327e-05
3.33266e-05
3.33263e-05
3.33258e-05
3.33254e-05
3.3325e-05
3.33247e-05
3.33247e-05
3.3325e-05
3.33254e-05
3.33258e-05
3.33262e-05
3.33266e-05
3.3327e-05
3.33273e-05
3.33276e-05
3.33279e-05
3.33281e-05
3.33283e-05
3.33284e-05
3.33283e-05
3.33203e-05
3.33213e-05
3.33294e-05
3.33294e-05
3.33292e-05
3.3329e-05
3.33287e-05
3.33284e-05
3.3328e-05
3.33276e-05
3.33272e-05
3.33267e-05
3.33262e-05
3.33257e-05
3.33253e-05
3.33249e-05
3.33249e-05
3.33253e-05
3.33257e-05
3.33263e-05
3.33268e-05
3.33273e-05
3.33277e-05
3.33281e-05
3.33285e-05
3.33287e-05
3.3329e-05
3.33292e-05
3.33293e-05
3.33293e-05
3.33214e-05
3.33225e-05
3.33305e-05
3.33305e-05
3.33303e-05
3.33301e-05
3.33297e-05
3.33294e-05
3.33289e-05
3.33284e-05
3.33279e-05
3.33273e-05
3.33268e-05
3.33262e-05
3.33256e-05
3.33251e-05
3.33251e-05
3.33256e-05
3.33262e-05
3.33268e-05
3.33274e-05
3.3328e-05
3.33286e-05
3.3329e-05
3.33294e-05
3.33298e-05
3.33301e-05
3.33303e-05
3.33305e-05
3.33305e-05
3.33225e-05
3.33239e-05
3.33319e-05
3.33319e-05
3.33316e-05
3.33313e-05
3.33309e-05
3.33305e-05
3.333e-05
3.33294e-05
3.33288e-05
3.33282e-05
3.33275e-05
3.33267e-05
3.3326e-05
3.33255e-05
3.33254e-05
3.3326e-05
3.33267e-05
3.33275e-05
3.33282e-05
3.33289e-05
3.33295e-05
3.33301e-05
3.33306e-05
3.3331e-05
3.33314e-05
3.33317e-05
3.3332e-05
3.33319e-05
3.33239e-05
3.33256e-05
3.33336e-05
3.33335e-05
3.33332e-05
3.33329e-05
3.33324e-05
3.33319e-05
3.33314e-05
3.33307e-05
3.333e-05
3.33292e-05
3.33283e-05
3.33274e-05
3.33265e-05
3.33258e-05
3.33258e-05
3.33265e-05
3.33273e-05
3.33282e-05
3.33291e-05
3.33299e-05
3.33307e-05
3.33314e-05
3.3332e-05
3.33325e-05
3.3333e-05
3.33334e-05
3.33336e-05
3.33336e-05
3.33256e-05
3.33276e-05
3.33356e-05
3.33356e-05
3.33352e-05
3.33348e-05
3.33343e-05
3.33337e-05
3.3333e-05
3.33322e-05
3.33313e-05
3.33303e-05
3.33292e-05
3.33281e-05
3.33271e-05
3.33263e-05
3.33263e-05
3.33271e-05
3.33281e-05
3.33292e-05
3.33302e-05
3.33312e-05
3.33321e-05
3.33329e-05
3.33337e-05
3.33344e-05
3.3335e-05
3.33354e-05
3.33357e-05
3.33356e-05
3.33277e-05
3.33302e-05
3.33382e-05
3.33381e-05
3.33377e-05
3.33372e-05
3.33366e-05
3.33359e-05
3.3335e-05
3.3334e-05
3.33328e-05
3.33316e-05
3.33303e-05
3.3329e-05
3.33278e-05
3.33269e-05
3.3327e-05
3.33279e-05
3.33291e-05
3.33303e-05
3.33316e-05
3.33328e-05
3.33339e-05
3.3335e-05
3.33359e-05
3.33367e-05
3.33374e-05
3.33378e-05
3.33382e-05
3.33383e-05
3.33304e-05
3.33333e-05
3.33414e-05
3.33412e-05
3.33408e-05
3.33402e-05
3.33394e-05
3.33384e-05
3.33373e-05
3.33361e-05
3.33347e-05
3.33332e-05
3.33317e-05
3.33301e-05
3.33287e-05
3.33278e-05
3.33278e-05
3.33289e-05
3.33303e-05
3.33318e-05
3.33333e-05
3.33348e-05
3.33362e-05
3.33374e-05
3.33385e-05
3.33395e-05
3.33402e-05
3.33408e-05
3.33413e-05
3.33415e-05
3.33335e-05
3.3337e-05
3.33451e-05
3.33449e-05
3.33444e-05
3.33436e-05
3.33427e-05
3.33415e-05
3.33402e-05
3.33387e-05
3.3337e-05
3.33353e-05
3.33335e-05
3.33317e-05
3.333e-05
3.33289e-05
3.33289e-05
3.33301e-05
3.33318e-05
3.33337e-05
3.33355e-05
3.33373e-05
3.33389e-05
3.33404e-05
3.33416e-05
3.33427e-05
3.33436e-05
3.33444e-05
3.3345e-05
3.33452e-05
3.33371e-05
3.33415e-05
3.33496e-05
3.33493e-05
3.33487e-05
3.33478e-05
3.33467e-05
3.33453e-05
3.33438e-05
3.3342e-05
3.334e-05
3.33379e-05
3.33358e-05
3.33336e-05
3.33316e-05
3.33303e-05
3.33303e-05
3.33316e-05
3.33336e-05
3.33359e-05
3.33381e-05
3.33402e-05
3.33421e-05
3.33438e-05
3.33453e-05
3.33466e-05
3.33477e-05
3.33486e-05
3.33493e-05
3.33495e-05
3.33415e-05
3.33468e-05
3.33548e-05
3.33545e-05
3.33537e-05
3.33527e-05
3.33515e-05
3.33499e-05
3.33481e-05
3.3346e-05
3.33437e-05
3.33412e-05
3.33386e-05
3.33359e-05
3.33336e-05
3.33319e-05
3.33319e-05
3.33335e-05
3.33359e-05
3.33386e-05
3.33412e-05
3.33438e-05
3.3346e-05
3.33481e-05
3.33499e-05
3.33514e-05
3.33528e-05
3.33538e-05
3.33545e-05
3.33547e-05
3.33468e-05
3.33531e-05
3.33611e-05
3.33607e-05
3.33598e-05
3.33587e-05
3.33573e-05
3.33555e-05
3.33534e-05
3.33509e-05
3.33481e-05
3.33451e-05
3.33419e-05
3.33388e-05
3.3336e-05
3.33341e-05
3.33341e-05
3.33359e-05
3.33388e-05
3.33419e-05
3.33451e-05
3.33481e-05
3.33509e-05
3.33533e-05
3.33555e-05
3.33573e-05
3.33588e-05
3.33599e-05
3.33607e-05
3.33611e-05
3.33533e-05
3.33606e-05
3.33685e-05
3.33681e-05
3.33672e-05
3.33659e-05
3.33642e-05
3.33621e-05
3.33596e-05
3.33566e-05
3.33533e-05
3.33498e-05
3.33461e-05
3.33424e-05
3.33391e-05
3.3337e-05
3.3337e-05
3.33391e-05
3.33425e-05
3.33462e-05
3.33499e-05
3.33535e-05
3.33567e-05
3.33596e-05
3.33622e-05
3.33643e-05
3.33659e-05
3.33672e-05
3.33682e-05
3.33687e-05
3.33608e-05
3.33695e-05
3.33775e-05
3.3377e-05
3.33759e-05
3.33744e-05
3.33724e-05
3.337e-05
3.3367e-05
3.33636e-05
3.33597e-05
3.33556e-05
3.33512e-05
3.33469e-05
3.33432e-05
3.33409e-05
3.33409e-05
3.33433e-05
3.33471e-05
3.33514e-05
3.33557e-05
3.33599e-05
3.33637e-05
3.33672e-05
3.33701e-05
3.33725e-05
3.33744e-05
3.33759e-05
3.33771e-05
3.33777e-05
3.33697e-05
3.33801e-05
3.33882e-05
3.33876e-05
3.33863e-05
3.33845e-05
3.33822e-05
3.33793e-05
3.33759e-05
3.3372e-05
3.33676e-05
3.33628e-05
3.33577e-05
3.33528e-05
3.33485e-05
3.33459e-05
3.33459e-05
3.33486e-05
3.33529e-05
3.33578e-05
3.33628e-05
3.33677e-05
3.33722e-05
3.33762e-05
3.33795e-05
3.33822e-05
3.33844e-05
3.33863e-05
3.33876e-05
3.33882e-05
3.33803e-05
3.33927e-05
3.34008e-05
3.34e-05
3.33985e-05
3.33965e-05
3.33939e-05
3.33906e-05
3.33868e-05
3.33823e-05
3.33773e-05
3.33717e-05
3.33658e-05
3.33601e-05
3.33552e-05
3.33523e-05
3.33523e-05
3.33552e-05
3.336e-05
3.33657e-05
3.33715e-05
3.33772e-05
3.33824e-05
3.3387e-05
3.33908e-05
3.33939e-05
3.33966e-05
3.33986e-05
3.34001e-05
3.34008e-05
3.33929e-05
3.34074e-05
3.34155e-05
3.34146e-05
3.34129e-05
3.34107e-05
3.34078e-05
3.34042e-05
3.33999e-05
3.33948e-05
3.3389e-05
3.33826e-05
3.33758e-05
3.33693e-05
3.33638e-05
3.33605e-05
3.33605e-05
3.33637e-05
3.33691e-05
3.33756e-05
3.33823e-05
3.33889e-05
3.33948e-05
3.33999e-05
3.34042e-05
3.34079e-05
3.34109e-05
3.34131e-05
3.34146e-05
3.34155e-05
3.34076e-05
3.34245e-05
3.34325e-05
3.34315e-05
3.34297e-05
3.34273e-05
3.34242e-05
3.34203e-05
3.34155e-05
3.34098e-05
3.34031e-05
3.33958e-05
3.33881e-05
3.33808e-05
3.33747e-05
3.33711e-05
3.33711e-05
3.33747e-05
3.33807e-05
3.3388e-05
3.33956e-05
3.3403e-05
3.34095e-05
3.34152e-05
3.34201e-05
3.34242e-05
3.34274e-05
3.34298e-05
3.34314e-05
3.34324e-05
3.34244e-05
3.34441e-05
3.34521e-05
3.34511e-05
3.34493e-05
3.34468e-05
3.34434e-05
3.34392e-05
3.34339e-05
3.34275e-05
3.34201e-05
3.34119e-05
3.34035e-05
3.33954e-05
3.33887e-05
3.33848e-05
3.33848e-05
3.33887e-05
3.33953e-05
3.34035e-05
3.34119e-05
3.342e-05
3.34272e-05
3.34335e-05
3.34389e-05
3.34433e-05
3.34466e-05
3.34491e-05
3.34508e-05
3.34517e-05
3.34436e-05
3.34667e-05
3.34746e-05
3.34736e-05
3.34718e-05
3.34693e-05
3.34658e-05
3.34613e-05
3.34556e-05
3.34487e-05
3.34407e-05
3.34318e-05
3.34226e-05
3.34138e-05
3.34066e-05
3.34024e-05
3.34024e-05
3.34066e-05
3.34138e-05
3.34227e-05
3.34319e-05
3.34407e-05
3.34486e-05
3.34555e-05
3.34612e-05
3.34657e-05
3.34691e-05
3.34716e-05
3.34733e-05
3.34739e-05
3.34659e-05
3.34922e-05
3.35002e-05
3.34993e-05
3.34977e-05
3.34951e-05
3.34917e-05
3.34871e-05
3.34812e-05
3.3474e-05
3.34656e-05
3.34562e-05
3.34464e-05
3.3437e-05
3.34293e-05
3.34248e-05
3.34248e-05
3.34293e-05
3.34371e-05
3.34466e-05
3.34565e-05
3.34659e-05
3.34743e-05
3.34816e-05
3.34875e-05
3.3492e-05
3.34953e-05
3.34977e-05
3.3499e-05
3.34995e-05
3.34915e-05
3.3521e-05
3.3529e-05
3.35284e-05
3.35269e-05
3.35246e-05
3.35214e-05
3.3517e-05
3.35113e-05
3.35041e-05
3.34955e-05
3.34858e-05
3.34756e-05
3.34657e-05
3.34577e-05
3.34531e-05
3.3453e-05
3.34577e-05
3.34659e-05
3.34759e-05
3.34862e-05
3.3496e-05
3.35047e-05
3.35121e-05
3.35179e-05
3.35222e-05
3.35253e-05
3.35272e-05
3.35283e-05
3.35286e-05
3.35206e-05
3.35531e-05
3.35611e-05
3.35608e-05
3.35597e-05
3.3558e-05
3.35554e-05
3.35516e-05
3.35463e-05
3.35394e-05
3.3531e-05
3.35212e-05
3.35108e-05
3.35008e-05
3.34927e-05
3.34879e-05
3.34879e-05
3.34926e-05
3.35008e-05
3.35108e-05
3.35212e-05
3.35311e-05
3.35397e-05
3.35468e-05
3.35522e-05
3.35561e-05
3.35587e-05
3.35602e-05
3.3561e-05
3.35612e-05
3.35533e-05
3.35882e-05
3.35963e-05
3.35964e-05
3.35961e-05
3.35953e-05
3.35937e-05
3.35908e-05
3.35864e-05
3.35802e-05
3.35723e-05
3.3563e-05
3.35528e-05
3.3543e-05
3.35349e-05
3.35302e-05
3.35301e-05
3.35346e-05
3.35425e-05
3.35522e-05
3.35622e-05
3.35717e-05
3.35797e-05
3.35861e-05
3.35907e-05
3.35938e-05
3.35956e-05
3.35964e-05
3.35968e-05
3.3597e-05
3.35891e-05
3.3626e-05
3.36343e-05
3.36353e-05
3.3636e-05
3.36365e-05
3.36363e-05
3.36348e-05
3.36317e-05
3.36267e-05
3.362e-05
3.36116e-05
3.36023e-05
3.35931e-05
3.35854e-05
3.35808e-05
3.35807e-05
3.35849e-05
3.35923e-05
3.36013e-05
3.36105e-05
3.36189e-05
3.36257e-05
3.36307e-05
3.36339e-05
3.36355e-05
3.3636e-05
3.36358e-05
3.36355e-05
3.36353e-05
3.36271e-05
3.36661e-05
3.36749e-05
3.36769e-05
3.36791e-05
3.36813e-05
3.36829e-05
3.36833e-05
3.36822e-05
3.36792e-05
3.36742e-05
3.36676e-05
3.36599e-05
3.36519e-05
3.36452e-05
3.36412e-05
3.36412e-05
3.3645e-05
3.36515e-05
3.36593e-05
3.36669e-05
3.36735e-05
3.36782e-05
3.36811e-05
3.36822e-05
3.36817e-05
3.36802e-05
3.36784e-05
3.36769e-05
3.36758e-05
3.36669e-05
3.37079e-05
3.37175e-05
3.37209e-05
3.3725e-05
3.37292e-05
3.37331e-05
3.3736e-05
3.37375e-05
3.37372e-05
3.37349e-05
3.37309e-05
3.37255e-05
3.37196e-05
3.37145e-05
3.37116e-05
3.37118e-05
3.37149e-05
3.372e-05
3.37257e-05
3.3731e-05
3.37349e-05
3.37369e-05
3.37369e-05
3.37352e-05
3.3732e-05
3.37281e-05
3.37242e-05
3.3721e-05
3.37183e-05
3.37082e-05
3.37521e-05
3.37625e-05
3.37674e-05
3.37733e-05
3.37798e-05
3.37863e-05
3.37923e-05
3.37971e-05
3.38002e-05
3.38015e-05
3.38008e-05
3.37985e-05
3.37954e-05
3.37925e-05
3.37908e-05
3.3791e-05
3.3793e-05
3.37961e-05
3.37993e-05
3.38016e-05
3.38021e-05
3.38006e-05
3.37972e-05
3.3792e-05
3.37857e-05
3.37789e-05
3.37728e-05
3.37676e-05
3.37629e-05
3.37519e-05
3.38001e-05
3.38107e-05
3.38166e-05
3.38242e-05
3.3833e-05
3.38424e-05
3.38517e-05
3.38604e-05
3.38676e-05
3.38731e-05
3.38765e-05
3.38779e-05
3.38778e-05
3.3877e-05
3.38764e-05
3.38765e-05
3.38774e-05
3.38783e-05
3.38787e-05
3.38775e-05
3.38741e-05
3.38684e-05
3.38608e-05
3.38518e-05
3.38422e-05
3.38326e-05
3.38241e-05
3.3817e-05
3.38108e-05
3.37998e-05
3.38485e-05
3.38602e-05
3.38679e-05
3.38775e-05
3.38888e-05
3.39011e-05
3.39139e-05
3.39265e-05
3.3938e-05
3.3948e-05
3.39559e-05
3.39613e-05
3.39643e-05
3.39652e-05
3.39651e-05
3.39651e-05
3.39653e-05
3.39645e-05
3.39617e-05
3.39565e-05
3.39488e-05
3.39387e-05
3.39269e-05
3.39141e-05
3.39011e-05
3.38888e-05
3.38777e-05
3.38682e-05
3.38602e-05
3.38484e-05
3.39016e-05
3.39136e-05
3.39225e-05
3.39338e-05
3.39475e-05
3.39626e-05
3.39786e-05
3.39948e-05
3.40103e-05
3.40245e-05
3.40365e-05
3.40457e-05
3.40516e-05
3.40542e-05
3.40544e-05
3.40543e-05
3.40541e-05
3.40516e-05
3.40458e-05
3.40366e-05
3.40248e-05
3.40106e-05
3.39951e-05
3.39789e-05
3.39628e-05
3.39476e-05
3.39342e-05
3.39227e-05
3.39136e-05
3.39013e-05
3.39531e-05
3.39648e-05
3.39745e-05
3.39874e-05
3.40038e-05
3.40223e-05
3.40425e-05
3.40634e-05
3.40842e-05
3.41036e-05
3.41204e-05
3.41337e-05
3.41427e-05
3.41481e-05
3.41501e-05
3.41501e-05
3.41478e-05
3.41424e-05
3.41334e-05
3.41201e-05
3.41035e-05
3.40841e-05
3.40634e-05
3.40425e-05
3.40225e-05
3.40041e-05
3.3988e-05
3.39747e-05
3.39649e-05
3.39528e-05
3.40942e-05
3.41043e-05
3.41149e-05
3.41286e-05
3.41471e-05
3.41687e-05
3.41914e-05
3.42143e-05
3.42362e-05
3.42552e-05
3.42711e-05
3.42841e-05
3.42948e-05
3.43027e-05
3.43104e-05
3.43106e-05
3.43024e-05
3.42949e-05
3.4284e-05
3.42707e-05
3.42547e-05
3.42358e-05
3.42145e-05
3.41912e-05
3.41685e-05
3.41478e-05
3.41296e-05
3.41149e-05
3.41047e-05
3.40934e-05
3.38685e-05
3.38772e-05
3.38905e-05
3.39071e-05
3.39375e-05
3.39604e-05
3.39922e-05
3.40224e-05
3.40628e-05
3.41245e-05
3.42404e-05
3.44448e-05
3.47641e-05
3.51319e-05
3.57868e-05
3.57861e-05
3.51317e-05
3.47643e-05
3.44458e-05
3.42425e-05
3.41255e-05
3.40623e-05
3.402e-05
3.39856e-05
3.39561e-05
3.39281e-05
3.39039e-05
3.38865e-05
3.38765e-05
3.38663e-05
3.47063e-05
3.4617e-05
3.476e-05
3.51919e-05
3.5751e-05
3.64023e-05
3.74097e-05
3.9688e-05
4.48305e-05
5.56301e-05
7.70601e-05
0.000111629
0.000158219
0.000205672
0.000276252
0.000276151
0.000205664
0.000158233
0.000111811
7.73971e-05
5.58641e-05
4.48948e-05
3.9652e-05
3.72915e-05
3.61478e-05
3.5463e-05
3.49824e-05
3.46516e-05
3.45258e-05
3.44762e-05
4.99741e-05
5.15625e-05
5.54562e-05
6.36415e-05
7.67712e-05
9.90975e-05
0.000147236
0.000254258
0.000463233
0.000813467
0.00132414
0.00197176
0.00264575
0.0032027
0.0037704
0.00377025
0.00320111
0.0026493
0.00197715
0.00132932
0.000817706
0.000466141
0.000256059
0.000148083
9.95686e-05
7.68516e-05
6.33216e-05
5.52758e-05
5.05467e-05
4.97472e-05
5.85601e-05
6.02663e-05
6.46528e-05
7.23221e-05
8.39483e-05
0.00010425
0.000145492
0.000230442
0.000383944
0.000635275
0.00103678
0.0016641
0.00247381
0.00315841
0.00409939
0.00409802
0.00315844
0.00248333
0.00167446
0.00104268
0.000638399
0.000386023
0.000231848
0.000146259
0.000104753
8.40059e-05
7.21008e-05
6.46338e-05
5.99041e-05
5.86985e-05
6.48407e-05
6.6451e-05
7.01285e-05
7.60654e-05
8.44658e-05
9.73095e-05
0.00012119
0.00017338
0.000283051
0.000482094
0.000798412
0.00124031
0.00175906
0.00224006
0.00282522
0.00282488
0.00223936
0.00176281
0.00124486
0.000801805
0.000484651
0.000284878
0.000174396
0.000121674
9.76315e-05
8.45502e-05
7.5994e-05
7.00706e-05
6.63173e-05
6.50045e-05
6.97449e-05
7.11929e-05
7.39111e-05
7.81041e-05
8.37588e-05
9.13381e-05
0.000102455
0.000123229
0.000170199
0.000275091
0.000474163
0.000780935
0.00115971
0.00154958
0.00201119
0.00201096
0.00154891
0.00116131
0.000783181
0.000476114
0.000276667
0.000171158
0.000123676
0.000102691
9.15176e-05
8.3859e-05
7.81223e-05
7.38673e-05
7.10876e-05
6.99004e-05
7.2888e-05
7.41408e-05
7.60821e-05
7.90553e-05
8.29307e-05
8.77531e-05
9.37477e-05
0.000101969
0.000116138
0.000148042
0.000220733
0.000359789
0.000565229
0.00082508
0.00116698
0.00116643
0.000824571
0.000565699
0.00036054
0.000221574
0.000148683
0.000116512
0.000102177
9.38802e-05
8.7871e-05
8.30193e-05
7.91005e-05
7.60955e-05
7.40439e-05
7.29306e-05
7.43027e-05
7.53648e-05
7.68154e-05
7.89807e-05
8.17531e-05
8.51077e-05
8.9025e-05
9.36126e-05
9.93885e-05
0.000108227
0.000125311
0.000159935
0.000220893
0.000319525
0.000478402
0.000478054
0.000319357
0.000221015
0.000160126
0.000125551
0.000108437
9.95004e-05
9.36822e-05
8.91004e-05
8.52045e-05
8.1842e-05
7.90322e-05
7.68662e-05
7.53848e-05
7.43143e-05
7.44007e-05
7.54476e-05
7.65168e-05
7.80997e-05
8.01239e-05
8.25427e-05
8.52949e-05
8.83595e-05
9.18084e-05
9.58744e-05
0.000101147
0.000108859
0.000120775
0.000140296
0.000174675
0.000174625
0.000140344
0.000120914
0.000109021
0.000101296
9.59976e-05
9.19068e-05
8.84508e-05
8.5379e-05
8.26153e-05
8.01763e-05
7.8109e-05
7.65149e-05
7.54638e-05
7.44117e-05
7.34176e-05
7.45536e-05
7.52748e-05
7.64577e-05
7.79998e-05
7.98186e-05
8.18435e-05
8.40303e-05
8.63669e-05
8.88847e-05
9.15742e-05
9.45075e-05
9.77568e-05
0.000101538
0.00010632
0.000106299
0.000101504
9.77087e-05
9.44489e-05
9.15308e-05
8.88717e-05
8.63943e-05
8.40633e-05
8.18783e-05
7.98675e-05
7.80653e-05
7.65235e-05
7.53302e-05
7.45759e-05
7.35135e-05
7.189e-05
7.28947e-05
7.3423e-05
7.43114e-05
7.546e-05
7.6799e-05
7.828e-05
7.98392e-05
8.14696e-05
8.3145e-05
8.48096e-05
8.64444e-05
8.79678e-05
8.92991e-05
9.02972e-05
9.03176e-05
8.93302e-05
8.80089e-05
8.65087e-05
8.48999e-05
8.32476e-05
8.15788e-05
7.99334e-05
7.83473e-05
7.68558e-05
7.5498e-05
7.43363e-05
7.34428e-05
7.29062e-05
7.18582e-05
6.96108e-05
7.06052e-05
7.09978e-05
7.16722e-05
7.25279e-05
7.35121e-05
7.45876e-05
7.56943e-05
7.68189e-05
7.79069e-05
7.89375e-05
7.9887e-05
8.07249e-05
8.13859e-05
8.17995e-05
8.18282e-05
8.1437e-05
8.07892e-05
7.99592e-05
7.9012e-05
7.79748e-05
7.68776e-05
7.57516e-05
7.46265e-05
7.35382e-05
7.25387e-05
7.16873e-05
7.10294e-05
7.06695e-05
6.96534e-05
6.69796e-05
6.80104e-05
6.82348e-05
6.87051e-05
6.93352e-05
7.00517e-05
7.08139e-05
7.15654e-05
7.22854e-05
7.29272e-05
7.34781e-05
7.39389e-05
7.42981e-05
7.45455e-05
7.47053e-05
7.47097e-05
7.45479e-05
7.42816e-05
7.39207e-05
7.34715e-05
7.29182e-05
7.2278e-05
7.15675e-05
7.08145e-05
7.00608e-05
6.93602e-05
6.87516e-05
6.82771e-05
6.80566e-05
6.7067e-05
6.4208e-05
6.51563e-05
6.5244e-05
6.55789e-05
6.601e-05
6.64986e-05
6.69826e-05
6.74218e-05
6.77893e-05
6.80562e-05
6.82342e-05
6.83358e-05
6.83479e-05
6.83213e-05
6.83e-05
6.82951e-05
6.8324e-05
6.83625e-05
6.83719e-05
6.82963e-05
6.81195e-05
6.78397e-05
6.74617e-05
6.70116e-05
6.65323e-05
6.60669e-05
6.56471e-05
6.53152e-05
6.51918e-05
6.42445e-05
6.13334e-05
6.21397e-05
6.21719e-05
6.24085e-05
6.26954e-05
6.30005e-05
6.32543e-05
6.34362e-05
6.35287e-05
6.35133e-05
6.34044e-05
6.32084e-05
6.29567e-05
6.27371e-05
6.26042e-05
6.26121e-05
6.27729e-05
6.30131e-05
6.3261e-05
6.34548e-05
6.35653e-05
6.35734e-05
6.34708e-05
6.32738e-05
6.3016e-05
6.27382e-05
6.24673e-05
6.22448e-05
6.22039e-05
6.13312e-05
5.83972e-05
5.91438e-05
5.91548e-05
5.92907e-05
5.94599e-05
5.95993e-05
5.96709e-05
5.96636e-05
5.955e-05
5.93263e-05
5.90036e-05
5.85968e-05
5.81797e-05
5.78235e-05
5.7598e-05
5.75978e-05
5.78245e-05
5.81914e-05
5.8612e-05
5.90179e-05
5.93518e-05
5.95757e-05
5.96783e-05
5.96762e-05
5.95999e-05
5.94717e-05
5.93203e-05
5.91957e-05
5.9226e-05
5.84424e-05
5.55712e-05
5.62681e-05
5.62241e-05
5.62866e-05
5.63323e-05
5.63529e-05
5.62794e-05
5.61222e-05
5.58713e-05
5.55025e-05
5.50247e-05
5.44846e-05
5.39502e-05
5.34974e-05
5.32265e-05
5.32337e-05
5.35113e-05
5.39699e-05
5.45109e-05
5.50463e-05
5.55181e-05
5.58897e-05
5.61502e-05
5.63037e-05
5.63633e-05
5.63534e-05
5.63061e-05
5.62649e-05
5.63436e-05
5.56485e-05
5.29448e-05
5.3562e-05
5.34829e-05
5.34586e-05
5.34278e-05
5.33383e-05
5.31619e-05
5.29122e-05
5.25565e-05
5.20794e-05
5.15131e-05
5.08971e-05
5.02945e-05
4.97921e-05
4.95032e-05
4.95133e-05
4.98079e-05
5.03025e-05
5.09045e-05
5.15248e-05
5.20945e-05
5.25729e-05
5.29388e-05
5.31941e-05
5.33549e-05
5.34421e-05
5.34776e-05
5.34959e-05
5.35994e-05
5.29928e-05
5.04951e-05
5.10307e-05
5.09091e-05
5.0814e-05
5.07465e-05
5.0574e-05
5.03477e-05
5.00385e-05
4.96062e-05
4.90719e-05
4.8461e-05
4.78048e-05
4.71678e-05
4.66424e-05
4.63409e-05
4.63438e-05
4.66467e-05
4.71688e-05
4.78083e-05
4.84728e-05
4.90923e-05
4.96256e-05
5.00566e-05
5.03853e-05
5.06191e-05
5.07695e-05
5.08555e-05
5.09114e-05
5.10279e-05
5.05139e-05
4.82457e-05
4.86854e-05
4.85416e-05
4.84473e-05
4.83021e-05
4.80988e-05
4.78492e-05
4.74891e-05
4.70201e-05
4.64697e-05
4.58406e-05
4.51706e-05
4.45309e-05
4.40151e-05
4.37214e-05
4.37259e-05
4.4028e-05
4.45476e-05
4.5186e-05
4.58561e-05
4.64935e-05
4.70568e-05
4.75252e-05
4.78912e-05
4.81584e-05
4.8341e-05
4.846e-05
4.85447e-05
4.8668e-05
4.82423e-05
4.62339e-05
4.65797e-05
4.64253e-05
4.63252e-05
4.61482e-05
4.59577e-05
4.56741e-05
4.52871e-05
4.4822e-05
4.42695e-05
4.36411e-05
4.29863e-05
4.23726e-05
4.18769e-05
4.15861e-05
4.15838e-05
4.18754e-05
4.23795e-05
4.30005e-05
4.36554e-05
4.42817e-05
4.48398e-05
4.53088e-05
4.56827e-05
4.59664e-05
4.61726e-05
4.63167e-05
4.64192e-05
4.65394e-05
4.61923e-05
4.43638e-05
4.46595e-05
4.45297e-05
4.44147e-05
4.42707e-05
4.40655e-05
4.37587e-05
4.33832e-05
4.29289e-05
4.2387e-05
4.17863e-05
4.11713e-05
4.05954e-05
4.01239e-05
3.98455e-05
3.98456e-05
4.01261e-05
4.06052e-05
4.11902e-05
4.18045e-05
4.23943e-05
4.2927e-05
4.33844e-05
4.37584e-05
4.40503e-05
4.42677e-05
4.4422e-05
4.45308e-05
4.46446e-05
4.43693e-05
4.27726e-05
4.29559e-05
4.28739e-05
4.27576e-05
4.26194e-05
4.23909e-05
4.21003e-05
4.1749e-05
4.13125e-05
4.08045e-05
4.02517e-05
3.96869e-05
3.91506e-05
3.87073e-05
3.84463e-05
3.8447e-05
3.87076e-05
3.91499e-05
3.96882e-05
4.02553e-05
4.08057e-05
4.13089e-05
4.1745e-05
4.21045e-05
4.23884e-05
4.26037e-05
4.27608e-05
4.2874e-05
4.29826e-05
4.27671e-05
4.13461e-05
4.15039e-05
4.14216e-05
4.13189e-05
4.11653e-05
4.09517e-05
4.06922e-05
4.0357e-05
3.99485e-05
3.94855e-05
3.89844e-05
3.84667e-05
3.79709e-05
3.75636e-05
3.73266e-05
3.73295e-05
3.75697e-05
3.7974e-05
3.84652e-05
3.89842e-05
3.94891e-05
3.99507e-05
4.03515e-05
4.06857e-05
4.09552e-05
4.11655e-05
4.13229e-05
4.1437e-05
4.15366e-05
4.13647e-05
4.00993e-05
4.02687e-05
4.01678e-05
4.00704e-05
3.99212e-05
3.9731e-05
3.94809e-05
3.91631e-05
3.87948e-05
3.8384e-05
3.79367e-05
3.74703e-05
3.70261e-05
3.66636e-05
3.64521e-05
3.64554e-05
3.66726e-05
3.70363e-05
3.74772e-05
3.79425e-05
3.83947e-05
3.8809e-05
3.91724e-05
3.94806e-05
3.97335e-05
3.99332e-05
4.00832e-05
4.01906e-05
4.02776e-05
4.01391e-05
3.90767e-05
3.91814e-05
3.91056e-05
3.90072e-05
3.88681e-05
3.86877e-05
3.84505e-05
3.81696e-05
3.78505e-05
3.74907e-05
3.70936e-05
3.66799e-05
3.62863e-05
3.5961e-05
3.57665e-05
3.57655e-05
3.59585e-05
3.62827e-05
3.66756e-05
3.70895e-05
3.74912e-05
3.78604e-05
3.81864e-05
3.84646e-05
3.86935e-05
3.88745e-05
3.90111e-05
3.91091e-05
3.91854e-05
3.90761e-05
3.81657e-05
3.82419e-05
3.81847e-05
3.80851e-05
3.79599e-05
3.77952e-05
3.75907e-05
3.7351e-05
3.70715e-05
3.67512e-05
3.63998e-05
3.60367e-05
3.56892e-05
3.53976e-05
3.52201e-05
3.52184e-05
3.53932e-05
3.56847e-05
3.60347e-05
3.64001e-05
3.67523e-05
3.70752e-05
3.73603e-05
3.76041e-05
3.78057e-05
3.79671e-05
3.80907e-05
3.81806e-05
3.82488e-05
3.81636e-05
3.73688e-05
3.74617e-05
3.7389e-05
3.73005e-05
3.71934e-05
3.70511e-05
3.68766e-05
3.66648e-05
3.64144e-05
3.61318e-05
3.58278e-05
3.55147e-05
3.52125e-05
3.49565e-05
3.47993e-05
3.47998e-05
3.49579e-05
3.52165e-05
3.5522e-05
3.58372e-05
3.61398e-05
3.64177e-05
3.66645e-05
3.68773e-05
3.70555e-05
3.71997e-05
3.73112e-05
3.73927e-05
3.74524e-05
3.73842e-05
3.67264e-05
3.67838e-05
3.67151e-05
3.66479e-05
3.65537e-05
3.64301e-05
3.62748e-05
3.60868e-05
3.5869e-05
3.56281e-05
3.53695e-05
3.5101e-05
3.48397e-05
3.46155e-05
3.44761e-05
3.44763e-05
3.4615e-05
3.48387e-05
3.51001e-05
3.53692e-05
3.56291e-05
3.58697e-05
3.60851e-05
3.62719e-05
3.64289e-05
3.65558e-05
3.66537e-05
3.6725e-05
3.67756e-05
3.67197e-05
3.61648e-05
3.61898e-05
3.61501e-05
3.60946e-05
3.60089e-05
3.58977e-05
3.57618e-05
3.5603e-05
3.54216e-05
3.52188e-05
3.49974e-05
3.47655e-05
3.45379e-05
3.43413e-05
3.42185e-05
3.42189e-05
3.43401e-05
3.45329e-05
3.47572e-05
3.4989e-05
3.52139e-05
3.54225e-05
3.5609e-05
3.57702e-05
3.5905e-05
3.60135e-05
3.60974e-05
3.61589e-05
3.6202e-05
3.61568e-05
3.56714e-05
3.57125e-05
3.56847e-05
3.56286e-05
3.55506e-05
3.5453e-05
3.53405e-05
3.52095e-05
3.50569e-05
3.48828e-05
3.46913e-05
3.44907e-05
3.4295e-05
3.41269e-05
3.40221e-05
3.40237e-05
3.413e-05
3.42967e-05
3.44897e-05
3.46884e-05
3.48801e-05
3.5057e-05
3.52146e-05
3.53505e-05
3.54643e-05
3.55565e-05
3.56289e-05
3.5683e-05
3.5721e-05
3.56846e-05
3.52801e-05
3.53278e-05
3.52934e-05
3.52423e-05
3.51746e-05
3.50949e-05
3.50008e-05
3.48876e-05
3.47551e-05
3.46054e-05
3.4442e-05
3.42726e-05
3.4109e-05
3.39681e-05
3.38779e-05
3.38789e-05
3.39709e-05
3.41137e-05
3.42772e-05
3.4444e-05
3.4604e-05
3.47517e-05
3.48838e-05
3.49986e-05
3.50957e-05
3.51757e-05
3.52394e-05
3.52876e-05
3.53206e-05
3.52888e-05
3.49579e-05
3.49852e-05
3.49555e-05
3.49162e-05
3.48624e-05
3.47964e-05
3.47124e-05
3.46125e-05
3.44993e-05
3.43739e-05
3.42386e-05
3.40996e-05
3.39646e-05
3.3845e-05
3.37654e-05
3.37647e-05