/*--------------------------------*- C++ -*----------------------------------*\
| =========                 |                                                 |
| \\      /  F ield         | OpenFOAM: The Open Source CFD Toolbox           |
|  \\    /   O peration     | Version:  2312                                  |
|   \\  /    A nd           | Website:  www.openfoam.com                      |
|    \\/     M anipulation  |                                                 |
\*---------------------------------------------------------------------------*/
FoamFile
{
    version     2.0;
    format      ascii;
    arch        "LSB;label=32;scalar=64";
    class       volScalarField;
    location    "0.248571";
    object      nut;
}
// * * * * * * * * * * * * * * * * * * * * * * * * * * * * * * * * * * * * * //

dimensions      [0 2 -1 0 0 0 0];

internalField   nonuniform List<scalar> 
90000
(
6.42043e-06
6.42048e-06
6.42048e-06
6.42048e-06
6.42048e-06
6.42048e-06
6.42048e-06
6.42048e-06
6.42048e-06
6.42047e-06
6.42047e-06
6.42046e-06
6.42046e-06
6.42045e-06
6.42045e-06
6.42045e-06
6.42045e-06
6.42045e-06
6.42046e-06
6.42046e-06
6.42046e-06
6.42047e-06
6.42047e-06
6.42048e-06
6.42048e-06
6.42048e-06
6.42048e-06
6.42048e-06
6.42047e-06
6.42046e-06
6.42049e-06
6.42149e-06
6.42151e-06
6.42151e-06
6.42151e-06
6.42151e-06
6.42151e-06
6.4215e-06
6.4215e-06
6.42149e-06
6.42149e-06
6.42148e-06
6.42148e-06
6.42147e-06
6.42146e-06
6.42146e-06
6.42146e-06
6.42147e-06
6.42147e-06
6.42148e-06
6.42149e-06
6.42149e-06
6.4215e-06
6.4215e-06
6.4215e-06
6.42151e-06
6.42151e-06
6.42152e-06
6.42152e-06
6.4206e-06
6.42048e-06
6.42151e-06
6.42153e-06
6.42153e-06
6.42153e-06
6.42153e-06
6.42153e-06
6.42152e-06
6.42152e-06
6.42151e-06
6.42151e-06
6.4215e-06
6.4215e-06
6.42149e-06
6.42149e-06
6.42149e-06
6.42149e-06
6.42149e-06
6.4215e-06
6.4215e-06
6.42151e-06
6.42151e-06
6.42151e-06
6.42152e-06
6.42152e-06
6.42152e-06
6.42152e-06
6.4215e-06
6.42144e-06
6.42051e-06
6.42049e-06
6.42151e-06
6.42153e-06
6.42153e-06
6.42153e-06
6.42153e-06
6.42152e-06
6.42152e-06
6.42152e-06
6.42151e-06
6.42151e-06
6.4215e-06
6.4215e-06
6.42149e-06
6.42149e-06
6.42149e-06
6.42149e-06
6.4215e-06
6.4215e-06
6.4215e-06
6.42151e-06
6.42151e-06
6.42151e-06
6.42151e-06
6.42152e-06
6.42152e-06
6.42153e-06
6.42154e-06
6.42148e-06
6.42049e-06
6.42049e-06
6.42151e-06
6.42153e-06
6.42153e-06
6.42152e-06
6.42152e-06
6.42152e-06
6.42152e-06
6.42151e-06
6.42151e-06
6.42151e-06
6.4215e-06
6.4215e-06
6.42149e-06
6.42149e-06
6.42149e-06
6.42149e-06
6.4215e-06
6.4215e-06
6.4215e-06
6.42151e-06
6.42151e-06
6.42151e-06
6.42151e-06
6.42152e-06
6.42151e-06
6.42152e-06
6.42153e-06
6.42149e-06
6.42049e-06
6.42049e-06
6.4215e-06
6.42153e-06
6.42152e-06
6.42152e-06
6.42152e-06
6.42152e-06
6.42152e-06
6.42151e-06
6.42151e-06
6.42151e-06
6.4215e-06
6.4215e-06
6.42149e-06
6.42149e-06
6.42149e-06
6.4215e-06
6.4215e-06
6.4215e-06
6.42151e-06
6.42151e-06
6.42151e-06
6.42151e-06
6.42152e-06
6.42152e-06
6.42152e-06
6.42152e-06
6.42152e-06
6.4215e-06
6.42049e-06
6.4205e-06
6.42151e-06
6.42153e-06
6.42153e-06
6.42153e-06
6.42153e-06
6.42152e-06
6.42152e-06
6.42152e-06
6.42151e-06
6.42151e-06
6.4215e-06
6.4215e-06
6.4215e-06
6.42149e-06
6.42149e-06
6.4215e-06
6.4215e-06
6.42151e-06
6.42151e-06
6.42151e-06
6.42152e-06
6.42152e-06
6.42152e-06
6.42152e-06
6.42153e-06
6.42153e-06
6.42153e-06
6.4215e-06
6.4205e-06
6.42051e-06
6.42152e-06
6.42154e-06
6.42154e-06
6.42154e-06
6.42154e-06
6.42153e-06
6.42153e-06
6.42153e-06
6.42152e-06
6.42151e-06
6.42151e-06
6.4215e-06
6.4215e-06
6.42149e-06
6.42149e-06
6.4215e-06
6.4215e-06
6.42151e-06
6.42152e-06
6.42152e-06
6.42153e-06
6.42153e-06
6.42154e-06
6.42154e-06
6.42154e-06
6.42154e-06
6.42154e-06
6.42151e-06
6.42051e-06
6.42053e-06
6.42154e-06
6.42156e-06
6.42156e-06
6.42156e-06
6.42155e-06
6.42155e-06
6.42155e-06
6.42154e-06
6.42153e-06
6.42152e-06
6.42151e-06
6.4215e-06
6.4215e-06
6.42149e-06
6.42149e-06
6.4215e-06
6.42151e-06
6.42152e-06
6.42152e-06
6.42153e-06
6.42154e-06
6.42155e-06
6.42155e-06
6.42155e-06
6.42156e-06
6.42156e-06
6.42155e-06
6.42153e-06
6.42052e-06
6.42055e-06
6.42157e-06
6.42159e-06
6.42158e-06
6.42158e-06
6.42158e-06
6.42157e-06
6.42156e-06
6.42155e-06
6.42154e-06
6.42153e-06
6.42152e-06
6.42151e-06
6.4215e-06
6.42149e-06
6.42149e-06
6.4215e-06
6.42151e-06
6.42152e-06
6.42153e-06
6.42155e-06
6.42155e-06
6.42156e-06
6.42157e-06
6.42157e-06
6.42158e-06
6.42158e-06
6.42158e-06
6.42155e-06
6.42055e-06
6.42058e-06
6.4216e-06
6.42162e-06
6.42161e-06
6.42161e-06
6.4216e-06
6.42159e-06
6.42158e-06
6.42157e-06
6.42156e-06
6.42155e-06
6.42153e-06
6.42152e-06
6.4215e-06
6.42149e-06
6.42149e-06
6.4215e-06
6.42152e-06
6.42153e-06
6.42155e-06
6.42156e-06
6.42157e-06
6.42158e-06
6.42159e-06
6.4216e-06
6.4216e-06
6.4216e-06
6.4216e-06
6.42158e-06
6.42058e-06
6.42061e-06
6.42163e-06
6.42165e-06
6.42164e-06
6.42164e-06
6.42163e-06
6.42162e-06
6.42161e-06
6.42159e-06
6.42158e-06
6.42156e-06
6.42154e-06
6.42153e-06
6.42151e-06
6.42149e-06
6.42149e-06
6.42151e-06
6.42153e-06
6.42155e-06
6.42157e-06
6.42158e-06
6.4216e-06
6.42161e-06
6.42162e-06
6.42163e-06
6.42163e-06
6.42164e-06
6.42164e-06
6.42163e-06
6.42062e-06
6.42066e-06
6.42167e-06
6.42169e-06
6.42168e-06
6.42167e-06
6.42166e-06
6.42165e-06
6.42163e-06
6.42162e-06
6.4216e-06
6.42158e-06
6.42156e-06
6.42154e-06
6.42152e-06
6.4215e-06
6.42149e-06
6.42152e-06
6.42154e-06
6.42156e-06
6.42159e-06
6.42161e-06
6.42162e-06
6.42164e-06
6.42165e-06
6.42166e-06
6.42167e-06
6.42168e-06
6.42169e-06
6.42168e-06
6.42067e-06
6.42071e-06
6.42172e-06
6.42173e-06
6.42173e-06
6.42172e-06
6.4217e-06
6.42169e-06
6.42167e-06
6.42165e-06
6.42163e-06
6.42161e-06
6.42158e-06
6.42156e-06
6.42153e-06
6.4215e-06
6.4215e-06
6.42153e-06
6.42156e-06
6.42158e-06
6.42161e-06
6.42163e-06
6.42165e-06
6.42167e-06
6.42169e-06
6.42171e-06
6.42172e-06
6.42174e-06
6.42175e-06
6.42173e-06
6.42072e-06
6.42078e-06
6.42178e-06
6.4218e-06
6.42179e-06
6.42177e-06
6.42176e-06
6.42174e-06
6.42171e-06
6.42169e-06
6.42167e-06
6.42164e-06
6.42161e-06
6.42157e-06
6.42154e-06
6.42151e-06
6.42151e-06
6.42154e-06
6.42157e-06
6.42161e-06
6.42164e-06
6.42166e-06
6.42169e-06
6.42172e-06
6.42174e-06
6.42176e-06
6.42178e-06
6.4218e-06
6.42181e-06
6.42179e-06
6.42078e-06
6.42086e-06
6.42186e-06
6.42188e-06
6.42186e-06
6.42185e-06
6.42182e-06
6.4218e-06
6.42177e-06
6.42174e-06
6.42171e-06
6.42167e-06
6.42163e-06
6.42159e-06
6.42156e-06
6.42152e-06
6.42152e-06
6.42155e-06
6.42159e-06
6.42163e-06
6.42167e-06
6.4217e-06
6.42174e-06
6.42177e-06
6.4218e-06
6.42183e-06
6.42185e-06
6.42187e-06
6.42188e-06
6.42186e-06
6.42085e-06
6.42095e-06
6.42196e-06
6.42197e-06
6.42195e-06
6.42193e-06
6.42191e-06
6.42188e-06
6.42185e-06
6.42181e-06
6.42176e-06
6.42172e-06
6.42167e-06
6.42162e-06
6.42157e-06
6.42154e-06
6.42154e-06
6.42157e-06
6.42162e-06
6.42167e-06
6.42171e-06
6.42176e-06
6.42181e-06
6.42185e-06
6.42188e-06
6.42191e-06
6.42193e-06
6.42195e-06
6.42196e-06
6.42195e-06
6.42095e-06
6.42107e-06
6.42207e-06
6.42208e-06
6.42206e-06
6.42204e-06
6.42201e-06
6.42197e-06
6.42193e-06
6.42189e-06
6.42183e-06
6.42178e-06
6.42172e-06
6.42166e-06
6.4216e-06
6.42156e-06
6.42156e-06
6.4216e-06
6.42166e-06
6.42172e-06
6.42178e-06
6.42184e-06
6.42189e-06
6.42194e-06
6.42198e-06
6.42201e-06
6.42204e-06
6.42206e-06
6.42208e-06
6.42207e-06
6.42107e-06
6.4212e-06
6.42221e-06
6.42222e-06
6.42219e-06
6.42217e-06
6.42213e-06
6.42209e-06
6.42204e-06
6.42198e-06
6.42192e-06
6.42185e-06
6.42178e-06
6.42171e-06
6.42165e-06
6.4216e-06
6.42159e-06
6.42165e-06
6.42171e-06
6.42179e-06
6.42186e-06
6.42193e-06
6.42199e-06
6.42205e-06
6.42209e-06
6.42213e-06
6.42217e-06
6.4222e-06
6.42222e-06
6.42221e-06
6.42121e-06
6.42137e-06
6.42237e-06
6.42238e-06
6.42235e-06
6.42232e-06
6.42228e-06
6.42223e-06
6.42217e-06
6.4221e-06
6.42203e-06
6.42195e-06
6.42187e-06
6.42179e-06
6.4217e-06
6.42164e-06
6.42164e-06
6.4217e-06
6.42178e-06
6.42187e-06
6.42196e-06
6.42204e-06
6.42211e-06
6.42218e-06
6.42223e-06
6.42229e-06
6.42233e-06
6.42236e-06
6.42239e-06
6.42238e-06
6.42138e-06
6.42157e-06
6.42258e-06
6.42258e-06
6.42255e-06
6.42251e-06
6.42246e-06
6.4224e-06
6.42233e-06
6.42226e-06
6.42217e-06
6.42207e-06
6.42197e-06
6.42187e-06
6.42177e-06
6.42169e-06
6.42169e-06
6.42177e-06
6.42186e-06
6.42197e-06
6.42207e-06
6.42216e-06
6.42225e-06
6.42233e-06
6.42241e-06
6.42247e-06
6.42252e-06
6.42256e-06
6.42259e-06
6.42258e-06
6.42158e-06
6.42181e-06
6.42283e-06
6.42282e-06
6.42279e-06
6.42274e-06
6.42269e-06
6.42262e-06
6.42253e-06
6.42244e-06
6.42233e-06
6.42222e-06
6.42209e-06
6.42196e-06
6.42184e-06
6.42176e-06
6.42176e-06
6.42185e-06
6.42196e-06
6.42209e-06
6.4222e-06
6.42232e-06
6.42243e-06
6.42253e-06
6.42262e-06
6.42269e-06
6.42276e-06
6.42281e-06
6.42284e-06
6.42283e-06
6.42184e-06
6.42212e-06
6.42314e-06
6.42313e-06
6.42309e-06
6.42304e-06
6.42296e-06
6.42288e-06
6.42277e-06
6.42265e-06
6.42252e-06
6.42238e-06
6.42223e-06
6.42208e-06
6.42194e-06
6.42184e-06
6.42185e-06
6.42195e-06
6.42209e-06
6.42223e-06
6.42238e-06
6.42252e-06
6.42265e-06
6.42277e-06
6.42288e-06
6.42297e-06
6.42305e-06
6.4231e-06
6.42314e-06
6.42315e-06
6.42215e-06
6.42248e-06
6.42352e-06
6.4235e-06
6.42346e-06
6.42339e-06
6.4233e-06
6.42319e-06
6.42306e-06
6.42291e-06
6.42275e-06
6.42258e-06
6.4224e-06
6.42223e-06
6.42207e-06
6.42196e-06
6.42196e-06
6.42208e-06
6.42224e-06
6.42242e-06
6.42259e-06
6.42276e-06
6.42292e-06
6.42307e-06
6.42319e-06
6.4233e-06
6.42339e-06
6.42346e-06
6.42351e-06
6.42353e-06
6.42253e-06
6.42293e-06
6.42397e-06
6.42395e-06
6.42389e-06
6.4238e-06
6.42369e-06
6.42356e-06
6.4234e-06
6.42323e-06
6.42304e-06
6.42283e-06
6.42262e-06
6.42242e-06
6.42223e-06
6.4221e-06
6.42211e-06
6.42224e-06
6.42243e-06
6.42264e-06
6.42285e-06
6.42306e-06
6.42325e-06
6.42342e-06
6.42357e-06
6.42369e-06
6.4238e-06
6.42389e-06
6.42395e-06
6.42397e-06
6.42297e-06
6.42346e-06
6.42451e-06
6.42447e-06
6.4244e-06
6.42429e-06
6.42416e-06
6.42401e-06
6.42383e-06
6.42362e-06
6.42339e-06
6.42315e-06
6.4229e-06
6.42265e-06
6.42243e-06
6.42228e-06
6.42228e-06
6.42243e-06
6.42265e-06
6.42291e-06
6.42317e-06
6.42341e-06
6.42363e-06
6.42383e-06
6.42401e-06
6.42416e-06
6.42429e-06
6.42439e-06
6.42447e-06
6.42449e-06
6.42349e-06
6.4241e-06
6.42513e-06
6.42508e-06
6.42499e-06
6.42488e-06
6.42473e-06
6.42455e-06
6.42434e-06
6.4241e-06
6.42383e-06
6.42353e-06
6.42323e-06
6.42293e-06
6.42267e-06
6.42249e-06
6.42248e-06
6.42266e-06
6.42293e-06
6.42323e-06
6.42354e-06
6.42383e-06
6.4241e-06
6.42433e-06
6.42454e-06
6.42473e-06
6.42488e-06
6.425e-06
6.42508e-06
6.42511e-06
6.42412e-06
6.42484e-06
6.42585e-06
6.4258e-06
6.4257e-06
6.42557e-06
6.4254e-06
6.4252e-06
6.42495e-06
6.42466e-06
6.42434e-06
6.42399e-06
6.42363e-06
6.42328e-06
6.42296e-06
6.42275e-06
6.42275e-06
6.42295e-06
6.42327e-06
6.42363e-06
6.424e-06
6.42434e-06
6.42466e-06
6.42494e-06
6.42519e-06
6.42541e-06
6.42558e-06
6.42571e-06
6.42581e-06
6.42585e-06
6.42487e-06
6.42571e-06
6.42672e-06
6.42666e-06
6.42655e-06
6.4264e-06
6.42621e-06
6.42596e-06
6.42567e-06
6.42533e-06
6.42495e-06
6.42454e-06
6.42412e-06
6.4237e-06
6.42333e-06
6.4231e-06
6.4231e-06
6.42334e-06
6.42371e-06
6.42413e-06
6.42456e-06
6.42496e-06
6.42534e-06
6.42568e-06
6.42597e-06
6.42622e-06
6.42641e-06
6.42656e-06
6.42667e-06
6.42673e-06
6.42575e-06
6.42673e-06
6.42775e-06
6.42768e-06
6.42756e-06
6.42738e-06
6.42716e-06
6.42687e-06
6.42653e-06
6.42613e-06
6.42569e-06
6.42522e-06
6.42473e-06
6.42424e-06
6.42382e-06
6.42357e-06
6.42357e-06
6.42384e-06
6.42426e-06
6.42474e-06
6.42524e-06
6.42571e-06
6.42615e-06
6.42655e-06
6.42689e-06
6.42716e-06
6.42738e-06
6.42756e-06
6.4277e-06
6.42777e-06
6.42678e-06
6.42795e-06
6.42897e-06
6.42889e-06
6.42875e-06
6.42855e-06
6.42828e-06
6.42795e-06
6.42756e-06
6.42711e-06
6.42661e-06
6.42606e-06
6.42549e-06
6.42494e-06
6.42446e-06
6.42417e-06
6.42418e-06
6.42447e-06
6.42494e-06
6.42549e-06
6.42606e-06
6.42662e-06
6.42713e-06
6.42759e-06
6.42797e-06
6.42828e-06
6.42854e-06
6.42875e-06
6.42891e-06
6.42898e-06
6.428e-06
6.42939e-06
6.4304e-06
6.43031e-06
6.43015e-06
6.42992e-06
6.42962e-06
6.42925e-06
6.42882e-06
6.42831e-06
6.42774e-06
6.42711e-06
6.42645e-06
6.42581e-06
6.42528e-06
6.42495e-06
6.42495e-06
6.42527e-06
6.4258e-06
6.42643e-06
6.42708e-06
6.42772e-06
6.42831e-06
6.42883e-06
6.42926e-06
6.42962e-06
6.42992e-06
6.43016e-06
6.43033e-06
6.43041e-06
6.42944e-06
6.43106e-06
6.43206e-06
6.43196e-06
6.43178e-06
6.43153e-06
6.43121e-06
6.43081e-06
6.43032e-06
6.42976e-06
6.42911e-06
6.42839e-06
6.42764e-06
6.42692e-06
6.42632e-06
6.42596e-06
6.42596e-06
6.42631e-06
6.4269e-06
6.42761e-06
6.42835e-06
6.42908e-06
6.42974e-06
6.43031e-06
6.4308e-06
6.43121e-06
6.43154e-06
6.4318e-06
6.43197e-06
6.43205e-06
6.43108e-06
6.43298e-06
6.43396e-06
6.43386e-06
6.43367e-06
6.43342e-06
6.43307e-06
6.43264e-06
6.43212e-06
6.43148e-06
6.43076e-06
6.42995e-06
6.42911e-06
6.42831e-06
6.42765e-06
6.42727e-06
6.42727e-06
6.42765e-06
6.4283e-06
6.42909e-06
6.42992e-06
6.43073e-06
6.43145e-06
6.43208e-06
6.43261e-06
6.43306e-06
6.43341e-06
6.43366e-06
6.43383e-06
6.4339e-06
6.43292e-06
6.43517e-06
6.43613e-06
6.43604e-06
6.43585e-06
6.43559e-06
6.43524e-06
6.43479e-06
6.43423e-06
6.43354e-06
6.43275e-06
6.43187e-06
6.43095e-06
6.43009e-06
6.42938e-06
6.42897e-06
6.42897e-06
6.42939e-06
6.4301e-06
6.43097e-06
6.43188e-06
6.43274e-06
6.43352e-06
6.4342e-06
6.43477e-06
6.43523e-06
6.43557e-06
6.4358e-06
6.43595e-06
6.436e-06
6.43501e-06
6.43765e-06
6.43858e-06
6.43851e-06
6.43834e-06
6.43809e-06
6.43775e-06
6.4373e-06
6.43672e-06
6.43601e-06
6.43517e-06
6.43425e-06
6.43328e-06
6.43237e-06
6.43162e-06
6.43119e-06
6.43119e-06
6.43163e-06
6.43239e-06
6.43333e-06
6.4343e-06
6.43523e-06
6.43605e-06
6.43677e-06
6.43735e-06
6.43779e-06
6.4381e-06
6.4383e-06
6.43841e-06
6.4384e-06
6.43743e-06
6.44041e-06
6.44133e-06
6.44129e-06
6.44115e-06
6.44095e-06
6.44064e-06
6.44023e-06
6.43967e-06
6.43898e-06
6.43814e-06
6.4372e-06
6.4362e-06
6.43525e-06
6.43447e-06
6.43402e-06
6.43403e-06
6.43449e-06
6.43529e-06
6.43627e-06
6.43729e-06
6.43824e-06
6.4391e-06
6.43982e-06
6.44038e-06
6.44078e-06
6.44105e-06
6.44119e-06
6.44123e-06
6.4412e-06
6.44026e-06
6.44348e-06
6.44438e-06
6.44438e-06
6.44431e-06
6.44417e-06
6.44395e-06
6.44362e-06
6.44314e-06
6.44251e-06
6.44172e-06
6.44079e-06
6.43979e-06
6.43883e-06
6.43803e-06
6.43757e-06
6.43757e-06
6.43803e-06
6.43884e-06
6.43983e-06
6.44085e-06
6.4418e-06
6.44264e-06
6.44331e-06
6.44382e-06
6.44415e-06
6.44435e-06
6.44442e-06
6.44442e-06
6.44438e-06
6.44348e-06
6.44681e-06
6.44771e-06
6.44778e-06
6.4478e-06
6.44778e-06
6.4477e-06
6.44751e-06
6.44716e-06
6.44663e-06
6.44592e-06
6.44506e-06
6.44409e-06
6.44314e-06
6.44235e-06
6.44188e-06
6.44187e-06
6.44231e-06
6.44308e-06
6.44402e-06
6.44498e-06
6.44587e-06
6.44662e-06
6.4472e-06
6.44759e-06
6.44782e-06
6.44791e-06
6.44791e-06
6.44789e-06
6.44788e-06
6.447e-06
6.45037e-06
6.45129e-06
6.45144e-06
6.4516e-06
6.45176e-06
6.45187e-06
6.45187e-06
6.45171e-06
6.45135e-06
6.45078e-06
6.45003e-06
6.44915e-06
6.44827e-06
6.44752e-06
6.44706e-06
6.44703e-06
6.44742e-06
6.44811e-06
6.44895e-06
6.44979e-06
6.45055e-06
6.45113e-06
6.45153e-06
6.45174e-06
6.45179e-06
6.45172e-06
6.45162e-06
6.45155e-06
6.45155e-06
6.45067e-06
6.45409e-06
6.45505e-06
6.45533e-06
6.45568e-06
6.45606e-06
6.45642e-06
6.45668e-06
6.45677e-06
6.45665e-06
6.45631e-06
6.45577e-06
6.45508e-06
6.45434e-06
6.45369e-06
6.45329e-06
6.45326e-06
6.45359e-06
6.45418e-06
6.45486e-06
6.45551e-06
6.45603e-06
6.45635e-06
6.45647e-06
6.45639e-06
6.45616e-06
6.45585e-06
6.45557e-06
6.45539e-06
6.45533e-06
6.45437e-06
6.45788e-06
6.45891e-06
6.45937e-06
6.45995e-06
6.46061e-06
6.46127e-06
6.46186e-06
6.46229e-06
6.46252e-06
6.46253e-06
6.46232e-06
6.46194e-06
6.46146e-06
6.46101e-06
6.46074e-06
6.46074e-06
6.46101e-06
6.46143e-06
6.46187e-06
6.46222e-06
6.46238e-06
6.46233e-06
6.46204e-06
6.46157e-06
6.46097e-06
6.46034e-06
6.45979e-06
6.45941e-06
6.45917e-06
6.45807e-06
6.46162e-06
6.46279e-06
6.46346e-06
6.46431e-06
6.46529e-06
6.46633e-06
6.46732e-06
6.46819e-06
6.46889e-06
6.46936e-06
6.46963e-06
6.46968e-06
6.46959e-06
6.46944e-06
6.46935e-06
6.46938e-06
6.46952e-06
6.46969e-06
6.46978e-06
6.4697e-06
6.46939e-06
6.46885e-06
6.46806e-06
6.46711e-06
6.46606e-06
6.46504e-06
6.46416e-06
6.4635e-06
6.46298e-06
6.46168e-06
6.46529e-06
6.46662e-06
6.46753e-06
6.4687e-06
6.47004e-06
6.47149e-06
6.47296e-06
6.47437e-06
6.47564e-06
6.47673e-06
6.47758e-06
6.47818e-06
6.47855e-06
6.47876e-06
6.47886e-06
6.47889e-06
6.47885e-06
6.47868e-06
6.47834e-06
6.47774e-06
6.47687e-06
6.47571e-06
6.47435e-06
6.47284e-06
6.4713e-06
6.46985e-06
6.46861e-06
6.46759e-06
6.46671e-06
6.46526e-06
6.46896e-06
6.47042e-06
6.4716e-06
6.4731e-06
6.47486e-06
6.47675e-06
6.47873e-06
6.48073e-06
6.48264e-06
6.48441e-06
6.48595e-06
6.48716e-06
6.48803e-06
6.48861e-06
6.48889e-06
6.48891e-06
6.48866e-06
6.48812e-06
6.4873e-06
6.48611e-06
6.48458e-06
6.48277e-06
6.48078e-06
6.4787e-06
6.47665e-06
6.47475e-06
6.47307e-06
6.47167e-06
6.47044e-06
6.46894e-06
6.47229e-06
6.47415e-06
6.47576e-06
6.47765e-06
6.4798e-06
6.48211e-06
6.48459e-06
6.48714e-06
6.48965e-06
6.49205e-06
6.49424e-06
6.49606e-06
6.49746e-06
6.49834e-06
6.49873e-06
6.49874e-06
6.49836e-06
6.4975e-06
6.49613e-06
6.49433e-06
6.49216e-06
6.48974e-06
6.48718e-06
6.48459e-06
6.48205e-06
6.47974e-06
6.47764e-06
6.47577e-06
6.4741e-06
6.47228e-06
6.47724e-06
6.4792e-06
6.4809e-06
6.48291e-06
6.48526e-06
6.48784e-06
6.4906e-06
6.49348e-06
6.49641e-06
6.49929e-06
6.50199e-06
6.50434e-06
6.50618e-06
6.50733e-06
6.50783e-06
6.50782e-06
6.50733e-06
6.50619e-06
6.50437e-06
6.50202e-06
6.49935e-06
6.49646e-06
6.49351e-06
6.49062e-06
6.48784e-06
6.48526e-06
6.48294e-06
6.48089e-06
6.47915e-06
6.47722e-06
6.48379e-06
6.48547e-06
6.48705e-06
6.48906e-06
6.49154e-06
6.49432e-06
6.49741e-06
6.50077e-06
6.50433e-06
6.50788e-06
6.51112e-06
6.51386e-06
6.51589e-06
6.51734e-06
6.51808e-06
6.51808e-06
6.51732e-06
6.51587e-06
6.51384e-06
6.51109e-06
6.50789e-06
6.50434e-06
6.50077e-06
6.49741e-06
6.49435e-06
6.49157e-06
6.4891e-06
6.48703e-06
6.48545e-06
6.48377e-06
6.50328e-06
6.50441e-06
6.5056e-06
6.5071e-06
6.5091e-06
6.51139e-06
6.51374e-06
6.51603e-06
6.51815e-06
6.51989e-06
6.52147e-06
6.52318e-06
6.52529e-06
6.52746e-06
6.53019e-06
6.5302e-06
6.52743e-06
6.52529e-06
6.52316e-06
6.52144e-06
6.51985e-06
6.51809e-06
6.51604e-06
6.51372e-06
6.51139e-06
6.50919e-06
6.5072e-06
6.50558e-06
6.50444e-06
6.50317e-06
6.48221e-06
6.48348e-06
6.48525e-06
6.48755e-06
6.49126e-06
6.49448e-06
6.49857e-06
6.50295e-06
6.50944e-06
6.52058e-06
6.54278e-06
6.58188e-06
6.64144e-06
6.71231e-06
6.83394e-06
6.8338e-06
6.71237e-06
6.64145e-06
6.58207e-06
6.54315e-06
6.52078e-06
6.50942e-06
6.50275e-06
6.49794e-06
6.49399e-06
6.49036e-06
6.4872e-06
6.48483e-06
6.48341e-06
6.48191e-06
6.57115e-06
6.56951e-06
6.59141e-06
6.6443e-06
6.71715e-06
6.82146e-06
7.01899e-06
7.4533e-06
8.34614e-06
9.94136e-06
1.24226e-05
1.54639e-05
1.87094e-05
2.17527e-05
2.52563e-05
2.52514e-05
2.17533e-05
1.87093e-05
1.54751e-05
1.24538e-05
9.96948e-06
8.35979e-06
7.4554e-06
7.01148e-06
6.8016e-06
6.69268e-06
6.62548e-06
6.58135e-06
6.56067e-06
6.55123e-06
8.19119e-06
8.32792e-06
8.87698e-06
9.95677e-06
1.14763e-05
1.37577e-05
1.80702e-05
2.44548e-05
3.16391e-05
3.88816e-05
4.61351e-05
5.29936e-05
5.89966e-05
6.34469e-05
6.72345e-05
6.72371e-05
6.34246e-05
5.90319e-05
5.30498e-05
4.61953e-05
3.89502e-05
3.17145e-05
2.45484e-05
1.81441e-05
1.37952e-05
1.15053e-05
9.95214e-06
8.86427e-06
8.2649e-06
8.16843e-06
9.10044e-06
9.2615e-06
9.74924e-06
1.05547e-05
1.18171e-05
1.40068e-05
1.80117e-05
2.40358e-05
3.03621e-05
3.71389e-05
4.57393e-05
5.71569e-05
6.86117e-05
7.53864e-05
8.32406e-05
8.32117e-05
7.54033e-05
6.88189e-05
5.74377e-05
4.59333e-05
3.72335e-05
3.04331e-05
2.41286e-05
1.80892e-05
1.40529e-05
1.18334e-05
1.05464e-05
9.74753e-06
9.22822e-06
9.11002e-06
9.59843e-06
9.74914e-06
1.00993e-05
1.06588e-05
1.14494e-05
1.27057e-05
1.51805e-05
2.01218e-05
2.74325e-05
3.5608e-05
4.40976e-05
5.242e-05
5.97457e-05
6.52044e-05
7.08086e-05
7.08098e-05
6.51933e-05
5.98444e-05
5.25645e-05
4.42138e-05
3.57075e-05
2.75378e-05
2.02148e-05
1.52331e-05
1.27372e-05
1.14594e-05
1.06557e-05
1.0098e-05
9.7364e-06
9.61008e-06
9.91255e-06
1.00334e-05
1.02638e-05
1.0613e-05
1.10744e-05
1.17017e-05
1.26975e-05
1.4796e-05
1.93483e-05
2.71802e-05
3.69048e-05
4.62406e-05
5.38889e-05
5.95111e-05
6.48091e-05
6.48245e-05
5.9501e-05
5.39548e-05
4.63448e-05
3.69927e-05
2.72796e-05
1.94345e-05
1.48416e-05
1.27203e-05
1.17202e-05
1.10872e-05
1.06167e-05
1.02644e-05
1.00312e-05
9.92195e-06
1.00629e-05
1.01734e-05
1.03164e-05
1.05321e-05
1.08095e-05
1.11528e-05
1.15899e-05
1.22561e-05
1.35989e-05
1.68196e-05
2.33054e-05
3.24235e-05
4.1442e-05
4.91139e-05
5.61718e-05
5.61719e-05
4.90942e-05
4.14697e-05
3.24724e-05
2.33692e-05
1.68825e-05
1.3636e-05
1.22742e-05
1.16012e-05
1.11639e-05
1.08196e-05
1.05373e-05
1.03157e-05
1.01645e-05
1.00667e-05
1.00717e-05
1.01699e-05
1.02626e-05
1.04067e-05
1.05872e-05
1.07993e-05
1.10453e-05
1.13419e-05
1.1757e-05
1.25178e-05
1.42191e-05
1.76844e-05
2.31107e-05
3.0277e-05
3.88497e-05
3.88277e-05
3.02542e-05
2.31139e-05
1.77007e-05
1.42426e-05
1.25348e-05
1.17647e-05
1.13461e-05
1.10506e-05
1.08084e-05
1.05971e-05
1.04153e-05
1.02708e-05
1.0172e-05
1.00797e-05
1.00118e-05
1.00908e-05
1.0159e-05
1.02553e-05
1.0374e-05
1.05136e-05
1.06711e-05
1.08448e-05
1.10469e-05
1.13114e-05
1.17143e-05
1.24073e-05
1.3587e-05
1.56176e-05
1.91466e-05
1.91389e-05
1.56171e-05
1.35982e-05
1.24228e-05
1.17275e-05
1.132e-05
1.10528e-05
1.08504e-05
1.06782e-05
1.05228e-05
1.03814e-05
1.02571e-05
1.01583e-05
1.00944e-05
1.00051e-05
9.85941e-06
9.95826e-06
9.99786e-06
1.00625e-05
1.01462e-05
1.0245e-05
1.03533e-05
1.04666e-05
1.05876e-05
1.07252e-05
1.08868e-05
1.10874e-05
1.13432e-05
1.16912e-05
1.22035e-05
1.22013e-05
1.16871e-05
1.13385e-05
1.10818e-05
1.0882e-05
1.07227e-05
1.05886e-05
1.04686e-05
1.03569e-05
1.02518e-05
1.01544e-05
1.00683e-05
1.00008e-05
9.96105e-06
9.87178e-06
9.69166e-06
9.78689e-06
9.80725e-06
9.85332e-06
9.91386e-06
9.98368e-06
1.00584e-05
1.01332e-05
1.02107e-05
1.02924e-05
1.0378e-05
1.04698e-05
1.05643e-05
1.06574e-05
1.07408e-05
1.07405e-05
1.06553e-05
1.05618e-05
1.04685e-05
1.03793e-05
1.02958e-05
1.0216e-05
1.01381e-05
1.00618e-05
9.98792e-06
9.91849e-06
9.85749e-06
9.81068e-06
9.78623e-06
9.69712e-06
9.49332e-06
9.57489e-06
9.58989e-06
9.62391e-06
9.66744e-06
9.71491e-06
9.76487e-06
9.81357e-06
9.86163e-06
9.90804e-06
9.95342e-06
9.99841e-06
1.00429e-05
1.00831e-05
1.01123e-05
1.01156e-05
1.00909e-05
1.00544e-05
1.00123e-05
9.9682e-06
9.92217e-06
9.87363e-06
9.8227e-06
9.77021e-06
9.71799e-06
9.66894e-06
9.62663e-06
9.59476e-06
9.58184e-06
9.49418e-06
9.26278e-06
9.35006e-06
9.35819e-06
9.38105e-06
9.41218e-06
9.4454e-06
9.4793e-06
9.51057e-06
9.53789e-06
9.5603e-06
9.57779e-06
9.59173e-06
9.60327e-06
9.61257e-06
9.62056e-06
9.62138e-06
9.61412e-06
9.60412e-06
9.5922e-06
9.57777e-06
9.5586e-06
9.53482e-06
9.50662e-06
9.4751e-06
9.4423e-06
9.41117e-06
9.38392e-06
9.36355e-06
9.3593e-06
9.27257e-06
9.03043e-06
9.11906e-06
9.11588e-06
9.13048e-06
9.14952e-06
9.17072e-06
9.19015e-06
9.20505e-06
9.21402e-06
9.21586e-06
9.21164e-06
9.20328e-06
9.19076e-06
9.17846e-06
9.17092e-06
9.17022e-06
9.17736e-06
9.18935e-06
9.20219e-06
9.21125e-06
9.21491e-06
9.21252e-06
9.2038e-06
9.18974e-06
9.17248e-06
9.15443e-06
9.13725e-06
9.12402e-06
9.12454e-06
9.03947e-06
8.80218e-06
8.87762e-06
8.87037e-06
8.87994e-06
8.89143e-06
8.90204e-06
8.90765e-06
8.90717e-06
8.90014e-06
8.88523e-06
8.86421e-06
8.83796e-06
8.80878e-06
8.78316e-06
8.76632e-06
8.76738e-06
8.78686e-06
8.81459e-06
8.84417e-06
8.8708e-06
8.89215e-06
8.90652e-06
8.91297e-06
8.91227e-06
8.90626e-06
8.89726e-06
8.88685e-06
8.87845e-06
8.88298e-06
8.80265e-06
8.56835e-06
8.63424e-06
8.63027e-06
8.63614e-06
8.64293e-06
8.6444e-06
8.6393e-06
8.62761e-06
8.60798e-06
8.58055e-06
8.54673e-06
8.50761e-06
8.46852e-06
8.43449e-06
8.41182e-06
8.41256e-06
8.43666e-06
8.47268e-06
8.51284e-06
8.55214e-06
8.58628e-06
8.61241e-06
8.62972e-06
8.63922e-06
8.6427e-06
8.64144e-06
8.63732e-06
8.63429e-06
8.64299e-06
8.56962e-06
8.33685e-06
8.40016e-06
8.3961e-06
8.39895e-06
8.39855e-06
8.39387e-06
8.38088e-06
8.36077e-06
8.33341e-06
8.29765e-06
8.2543e-06
8.20675e-06
8.16e-06
8.12039e-06
8.0964e-06
8.09729e-06
8.12226e-06
8.16231e-06
8.2093e-06
8.2559e-06
8.29793e-06
8.33267e-06
8.35926e-06
8.37792e-06
8.38943e-06
8.39528e-06
8.3975e-06
8.39958e-06
8.4112e-06
8.34511e-06
8.12281e-06
8.18377e-06
8.17583e-06
8.17141e-06
8.16485e-06
8.15338e-06
8.13428e-06
8.10926e-06
8.07628e-06
8.03423e-06
7.98543e-06
7.93294e-06
7.88178e-06
7.83905e-06
7.81429e-06
7.81501e-06
7.83994e-06
7.88157e-06
7.93221e-06
7.98466e-06
8.03353e-06
8.07565e-06
8.10939e-06
8.13477e-06
8.15276e-06
8.16465e-06
8.17191e-06
8.17745e-06
8.19008e-06
8.13097e-06
7.92621e-06
7.98228e-06
7.96837e-06
7.95651e-06
7.94658e-06
7.92864e-06
7.90646e-06
7.87818e-06
7.84041e-06
7.79464e-06
7.74279e-06
7.68733e-06
7.63348e-06
7.58889e-06
7.5631e-06
7.56317e-06
7.58876e-06
7.63294e-06
7.68706e-06
7.74361e-06
7.79686e-06
7.84348e-06
7.88203e-06
7.91239e-06
7.93499e-06
7.95061e-06
7.96064e-06
7.96795e-06
7.98051e-06
7.92876e-06
7.74516e-06
7.7917e-06
7.77476e-06
7.76239e-06
7.74676e-06
7.72656e-06
7.70318e-06
7.67118e-06
7.63051e-06
7.58324e-06
7.5295e-06
7.47232e-06
7.41752e-06
7.37304e-06
7.34753e-06
7.34786e-06
7.3741e-06
7.41913e-06
7.47429e-06
7.53223e-06
7.58749e-06
7.63662e-06
7.67787e-06
7.71058e-06
7.73503e-06
7.75226e-06
7.76391e-06
7.77256e-06
7.78484e-06
7.74077e-06
7.57796e-06
7.61421e-06
7.59732e-06
7.58601e-06
7.56878e-06
7.55054e-06
7.52486e-06
7.49066e-06
7.44995e-06
7.40187e-06
7.34729e-06
7.2903e-06
7.23666e-06
7.19305e-06
7.16738e-06
7.16731e-06
7.19332e-06
7.23795e-06
7.29256e-06
7.34993e-06
7.40468e-06
7.45347e-06
7.49459e-06
7.52754e-06
7.55276e-06
7.57128e-06
7.58436e-06
7.59396e-06
7.60561e-06
7.56905e-06
7.4184e-06
7.44832e-06
7.43529e-06
7.42431e-06
7.41095e-06
7.39242e-06
7.36512e-06
7.3318e-06
7.29157e-06
7.24368e-06
7.19054e-06
7.13596e-06
7.08462e-06
7.0424e-06
7.0174e-06
7.01755e-06
7.04298e-06
7.08603e-06
7.13822e-06
7.19273e-06
7.24482e-06
7.29169e-06
7.33185e-06
7.36471e-06
7.39041e-06
7.40966e-06
7.42344e-06
7.43345e-06
7.44444e-06
7.41499e-06
7.27978e-06
7.29967e-06
7.292e-06
7.28183e-06
7.26967e-06
7.24947e-06
7.22358e-06
7.19211e-06
7.15298e-06
7.10741e-06
7.05771e-06
7.00675e-06
6.95822e-06
6.91796e-06
6.89422e-06
6.89439e-06
6.91827e-06
6.95852e-06
7.00718e-06
7.05813e-06
7.1073e-06
7.15205e-06
7.19073e-06
7.22261e-06
7.24783e-06
7.26704e-06
7.28116e-06
7.29158e-06
7.30203e-06
7.2786e-06
7.1552e-06
7.17288e-06
7.16566e-06
7.15678e-06
7.14324e-06
7.12414e-06
7.10069e-06
7.07031e-06
7.03326e-06
6.99118e-06
6.94554e-06
6.89826e-06
6.85287e-06
6.81543e-06
6.79357e-06
6.79391e-06
6.81615e-06
6.85336e-06
6.8983e-06
6.94554e-06
6.99128e-06
7.03297e-06
7.06912e-06
7.09926e-06
7.12361e-06
7.14266e-06
7.157e-06
7.16756e-06
7.17714e-06
7.15811e-06
7.04615e-06
7.06479e-06
7.05587e-06
7.0471e-06
7.03358e-06
7.01617e-06
6.99321e-06
6.96406e-06
6.93026e-06
6.89247e-06
6.85126e-06
6.80823e-06
6.7671e-06
6.73335e-06
6.71357e-06
6.71392e-06
6.73428e-06
6.76816e-06
6.809e-06
6.85193e-06
6.89351e-06
6.93154e-06
6.96488e-06
6.99318e-06
7.01644e-06
7.03485e-06
7.04874e-06
7.05878e-06
7.06716e-06
7.05147e-06
6.95588e-06
6.96879e-06
6.96173e-06
6.9525e-06
6.93954e-06
6.92269e-06
6.90061e-06
6.87452e-06
6.84486e-06
6.81142e-06
6.77451e-06
6.73597e-06
6.69916e-06
6.66853e-06
6.65006e-06
6.65003e-06
6.66844e-06
6.69902e-06
6.73583e-06
6.77444e-06
6.81184e-06
6.84619e-06
6.87654e-06
6.90247e-06
6.92386e-06
6.94083e-06
6.95367e-06
6.96294e-06
6.97027e-06
6.95746e-06
6.87444e-06
6.88456e-06
6.87883e-06
6.86933e-06
6.85741e-06
6.8418e-06
6.82253e-06
6.79999e-06
6.77378e-06
6.7438e-06
6.71091e-06
6.67684e-06
6.64407e-06
6.61636e-06
6.59918e-06
6.59912e-06
6.6161e-06
6.64386e-06
6.67692e-06
6.71129e-06
6.74438e-06
6.77472e-06
6.80155e-06
6.82454e-06
6.84361e-06
6.85891e-06
6.87065e-06
6.87921e-06
6.88573e-06
6.87534e-06
6.8021e-06
6.81319e-06
6.80605e-06
6.79754e-06
6.78722e-06
6.77362e-06
6.75704e-06
6.73702e-06
6.71344e-06
6.68686e-06
6.65825e-06
6.62869e-06
6.60004e-06
6.57555e-06
6.56019e-06
6.56033e-06
6.57581e-06
6.60056e-06
6.62957e-06
6.6594e-06
6.68801e-06
6.71428e-06
6.73764e-06
6.75783e-06
6.77477e-06
6.78851e-06
6.79915e-06
6.80692e-06
6.81262e-06
6.80406e-06
6.74276e-06
6.75018e-06
6.74354e-06
6.73699e-06
6.72793e-06
6.71611e-06
6.70136e-06
6.68357e-06
6.66302e-06
6.64028e-06
6.61583e-06
6.59039e-06
6.56552e-06
6.54405e-06
6.53053e-06
6.53061e-06
6.54411e-06
6.56555e-06
6.59045e-06
6.61601e-06
6.64066e-06
6.66346e-06
6.68388e-06
6.70162e-06
6.71655e-06
6.72865e-06
6.738e-06
6.74481e-06
6.74964e-06
6.74248e-06
6.69023e-06
6.69444e-06
6.69053e-06
6.68513e-06
6.67695e-06
6.66638e-06
6.65352e-06
6.63849e-06
6.62133e-06
6.60214e-06
6.58116e-06
6.55913e-06
6.53745e-06
6.51862e-06
6.50677e-06
6.50685e-06
6.51858e-06
6.53708e-06
6.55848e-06
6.58052e-06
6.60186e-06
6.62163e-06
6.6393e-06
6.65459e-06
6.6674e-06
6.67773e-06
6.68573e-06
6.6916e-06
6.69571e-06
6.68979e-06
6.6438e-06
6.64924e-06
6.64646e-06
6.64113e-06
6.63375e-06
6.62454e-06
6.6139e-06
6.6015e-06
6.58706e-06
6.57057e-06
6.55241e-06
6.53334e-06
6.51467e-06
6.49857e-06
6.48845e-06
6.48864e-06
6.49891e-06
6.5149e-06
6.53332e-06
6.55222e-06
6.57042e-06
6.58718e-06
6.6021e-06
6.61497e-06
6.62576e-06
6.63452e-06
6.6414e-06
6.64654e-06
6.65014e-06
6.64525e-06
6.60676e-06
6.61249e-06
6.60922e-06
6.60442e-06
6.59808e-06
6.59057e-06
6.58169e-06
6.571e-06
6.55848e-06
6.54431e-06
6.52881e-06
6.51269e-06
6.49708e-06
6.48354e-06
6.47479e-06
6.47492e-06
6.48386e-06
6.49757e-06
6.51317e-06
6.52904e-06
6.54424e-06
6.55822e-06
6.57072e-06
6.58158e-06
6.59076e-06
6.59832e-06
6.60435e-06
6.60891e-06
6.61202e-06
6.60774e-06
6.57607e-06
6.57976e-06
6.57702e-06
6.57334e-06
6.56831e-06
6.56211e-06
6.55421e-06
6.54481e-06
6.53414e-06
6.52227e-06
6.50944e-06
6.49622e-06
6.48332e-06
6.47183e-06
6.46413e-06