/*--------------------------------*- C++ -*----------------------------------*\
| =========                 |                                                 |
| \\      /  F ield         | OpenFOAM: The Open Source CFD Toolbox           |
|  \\    /   O peration     | Version:  2312                                  |
|   \\  /    A nd           | Website:  www.openfoam.com                      |
|    \\/     M anipulation  |                                                 |
\*---------------------------------------------------------------------------*/
FoamFile
{
    version     2.0;
    format      ascii;
    arch        "LSB;label=32;scalar=64";
    class       volScalarField;
    location    "0.248571";
    object      p;
}
// * * * * * * * * * * * * * * * * * * * * * * * * * * * * * * * * * * * * * //

dimensions      [1 -1 -2 0 0 0 0];

internalField   nonuniform List<scalar> 
90000
(
4846.72
4846.72
4846.72
4846.72
4846.72
4846.72
4846.72
4846.72
4846.72
4846.72
4846.72
4846.72
4846.72
4846.72
4846.72
4846.72
4846.72
4846.72
4846.72
4846.72
4846.72
4846.72
4846.72
4846.72
4846.72
4846.72
4846.72
4846.72
4846.72
4846.72
4748.62
4748.62
4748.62
4748.62
4748.62
4748.62
4748.62
4748.62
4748.62
4748.62
4748.62
4748.62
4748.62
4748.62
4748.62
4748.62
4748.62
4748.62
4748.62
4748.62
4748.62
4748.62
4748.62
4748.62
4748.62
4748.62
4748.62
4748.62
4748.62
4748.62
4650.52
4650.52
4650.52
4650.52
4650.52
4650.52
4650.52
4650.52
4650.52
4650.52
4650.52
4650.52
4650.52
4650.52
4650.52
4650.52
4650.52
4650.52
4650.52
4650.52
4650.52
4650.52
4650.52
4650.52
4650.52
4650.52
4650.52
4650.52
4650.52
4650.52
4552.43
4552.43
4552.43
4552.43
4552.42
4552.42
4552.42
4552.42
4552.42
4552.42
4552.42
4552.42
4552.42
4552.42
4552.42
4552.42
4552.42
4552.42
4552.42
4552.42
4552.42
4552.42
4552.42
4552.42
4552.42
4552.42
4552.42
4552.42
4552.42
4552.42
4454.33
4454.33
4454.33
4454.33
4454.32
4454.32
4454.32
4454.32
4454.32
4454.32
4454.32
4454.32
4454.32
4454.32
4454.32
4454.32
4454.32
4454.32
4454.32
4454.32
4454.32
4454.32
4454.32
4454.32
4454.32
4454.32
4454.32
4454.32
4454.32
4454.32
4356.23
4356.23
4356.23
4356.23
4356.23
4356.22
4356.22
4356.22
4356.22
4356.22
4356.22
4356.22
4356.22
4356.22
4356.22
4356.22
4356.22
4356.22
4356.22
4356.22
4356.22
4356.22
4356.22
4356.22
4356.22
4356.22
4356.22
4356.23
4356.23
4356.23
4258.13
4258.13
4258.13
4258.13
4258.13
4258.13
4258.12
4258.12
4258.12
4258.12
4258.12
4258.12
4258.12
4258.12
4258.12
4258.12
4258.12
4258.12
4258.12
4258.12
4258.12
4258.12
4258.12
4258.12
4258.12
4258.13
4258.13
4258.13
4258.13
4258.13
4160.03
4160.03
4160.03
4160.03
4160.03
4160.03
4160.03
4160.02
4160.02
4160.02
4160.02
4160.02
4160.02
4160.02
4160.02
4160.02
4160.02
4160.02
4160.02
4160.02
4160.02
4160.02
4160.02
4160.03
4160.03
4160.03
4160.03
4160.03
4160.03
4160.03
4061.94
4061.94
4061.93
4061.93
4061.93
4061.93
4061.93
4061.93
4061.92
4061.92
4061.92
4061.92
4061.92
4061.92
4061.92
4061.92
4061.92
4061.92
4061.92
4061.92
4061.92
4061.92
4061.93
4061.93
4061.93
4061.93
4061.93
4061.93
4061.94
4061.94
3963.84
3963.84
3963.84
3963.84
3963.83
3963.83
3963.83
3963.83
3963.82
3963.82
3963.82
3963.82
3963.82
3963.82
3963.81
3963.81
3963.82
3963.82
3963.82
3963.82
3963.82
3963.82
3963.83
3963.83
3963.83
3963.83
3963.84
3963.84
3963.84
3963.84
3865.74
3865.74
3865.74
3865.74
3865.74
3865.74
3865.73
3865.73
3865.73
3865.72
3865.72
3865.72
3865.72
3865.71
3865.71
3865.71
3865.71
3865.72
3865.72
3865.72
3865.72
3865.73
3865.73
3865.73
3865.74
3865.74
3865.74
3865.74
3865.74
3865.74
3767.65
3767.65
3767.65
3767.64
3767.64
3767.64
3767.63
3767.63
3767.63
3767.62
3767.62
3767.62
3767.62
3767.61
3767.61
3767.61
3767.62
3767.62
3767.62
3767.62
3767.63
3767.63
3767.63
3767.64
3767.64
3767.64
3767.65
3767.65
3767.65
3767.65
3669.55
3669.55
3669.55
3669.55
3669.55
3669.54
3669.54
3669.53
3669.53
3669.53
3669.52
3669.52
3669.52
3669.52
3669.51
3669.51
3669.52
3669.52
3669.52
3669.52
3669.53
3669.53
3669.54
3669.54
3669.54
3669.55
3669.55
3669.55
3669.55
3669.56
3571.46
3571.46
3571.46
3571.45
3571.45
3571.45
3571.44
3571.44
3571.43
3571.43
3571.43
3571.42
3571.42
3571.42
3571.42
3571.42
3571.42
3571.42
3571.42
3571.43
3571.43
3571.43
3571.44
3571.44
3571.45
3571.45
3571.46
3571.46
3571.46
3571.46
3473.37
3473.37
3473.37
3473.36
3473.36
3473.35
3473.35
3473.34
3473.34
3473.33
3473.33
3473.32
3473.32
3473.32
3473.32
3473.32
3473.32
3473.32
3473.32
3473.33
3473.33
3473.34
3473.34
3473.35
3473.36
3473.36
3473.37
3473.37
3473.37
3473.37
3375.28
3375.28
3375.28
3375.28
3375.27
3375.26
3375.26
3375.25
3375.24
3375.24
3375.23
3375.23
3375.22
3375.22
3375.22
3375.22
3375.22
3375.22
3375.22
3375.23
3375.24
3375.24
3375.25
3375.26
3375.26
3375.27
3375.28
3375.28
3375.28
3375.29
3277.2
3277.2
3277.2
3277.19
3277.18
3277.18
3277.17
3277.16
3277.15
3277.14
3277.14
3277.13
3277.12
3277.12
3277.12
3277.12
3277.12
3277.12
3277.13
3277.13
3277.14
3277.15
3277.16
3277.17
3277.18
3277.18
3277.19
3277.2
3277.2
3277.2
3179.12
3179.12
3179.12
3179.11
3179.1
3179.09
3179.08
3179.07
3179.06
3179.05
3179.04
3179.03
3179.03
3179.02
3179.02
3179.02
3179.02
3179.03
3179.03
3179.04
3179.05
3179.06
3179.07
3179.08
3179.09
3179.1
3179.11
3179.12
3179.12
3179.12
3081.05
3081.05
3081.04
3081.03
3081.02
3081.01
3081
3080.99
3080.97
3080.96
3080.95
3080.94
3080.93
3080.93
3080.92
3080.92
3080.93
3080.93
3080.94
3080.95
3080.96
3080.97
3080.98
3081
3081.01
3081.02
3081.03
3081.04
3081.05
3081.05
2982.98
2982.98
2982.97
2982.96
2982.95
2982.94
2982.92
2982.9
2982.89
2982.87
2982.86
2982.85
2982.84
2982.83
2982.83
2982.83
2982.83
2982.84
2982.85
2982.86
2982.87
2982.89
2982.9
2982.92
2982.93
2982.95
2982.96
2982.97
2982.98
2982.98
2884.92
2884.92
2884.91
2884.9
2884.88
2884.86
2884.84
2884.82
2884.8
2884.79
2884.77
2884.75
2884.74
2884.74
2884.73
2884.73
2884.74
2884.74
2884.75
2884.77
2884.79
2884.8
2884.82
2884.84
2884.86
2884.88
2884.89
2884.91
2884.91
2884.92
2786.86
2786.86
2786.85
2786.84
2786.82
2786.8
2786.77
2786.75
2786.73
2786.7
2786.68
2786.67
2786.65
2786.64
2786.64
2786.64
2786.64
2786.65
2786.67
2786.68
2786.71
2786.73
2786.75
2786.78
2786.8
2786.82
2786.84
2786.85
2786.86
2786.86
2688.82
2688.81
2688.8
2688.79
2688.76
2688.74
2688.71
2688.68
2688.65
2688.63
2688.6
2688.58
2688.56
2688.55
2688.55
2688.55
2688.55
2688.57
2688.58
2688.6
2688.63
2688.66
2688.68
2688.71
2688.74
2688.76
2688.79
2688.8
2688.81
2688.82
2590.79
2590.78
2590.77
2590.75
2590.72
2590.69
2590.66
2590.62
2590.59
2590.56
2590.53
2590.5
2590.48
2590.47
2590.46
2590.46
2590.47
2590.48
2590.5
2590.53
2590.56
2590.59
2590.63
2590.66
2590.69
2590.72
2590.75
2590.77
2590.78
2590.79
2492.77
2492.76
2492.74
2492.72
2492.69
2492.65
2492.61
2492.57
2492.53
2492.49
2492.46
2492.42
2492.4
2492.38
2492.38
2492.38
2492.38
2492.4
2492.43
2492.46
2492.49
2492.53
2492.57
2492.62
2492.66
2492.69
2492.72
2492.75
2492.76
2492.77
2394.77
2394.76
2394.74
2394.71
2394.67
2394.63
2394.58
2394.53
2394.48
2394.44
2394.39
2394.36
2394.33
2394.31
2394.3
2394.3
2394.31
2394.33
2394.36
2394.39
2394.44
2394.49
2394.54
2394.58
2394.63
2394.68
2394.71
2394.74
2394.76
2394.77
2296.79
2296.78
2296.75
2296.72
2296.68
2296.62
2296.57
2296.51
2296.45
2296.39
2296.34
2296.29
2296.26
2296.23
2296.22
2296.22
2296.24
2296.26
2296.3
2296.34
2296.39
2296.45
2296.51
2296.57
2296.63
2296.68
2296.72
2296.76
2296.78
2296.79
2198.84
2198.82
2198.79
2198.75
2198.7
2198.64
2198.57
2198.5
2198.43
2198.36
2198.3
2198.24
2198.2
2198.17
2198.16
2198.16
2198.17
2198.2
2198.24
2198.3
2198.36
2198.43
2198.5
2198.57
2198.64
2198.7
2198.75
2198.8
2198.83
2198.84
2100.91
2100.9
2100.86
2100.81
2100.75
2100.68
2100.6
2100.51
2100.43
2100.34
2100.27
2100.2
2100.15
2100.12
2100.1
2100.1
2100.12
2100.15
2100.21
2100.27
2100.35
2100.43
2100.51
2100.6
2100.68
2100.75
2100.82
2100.87
2100.9
2100.92
2003.03
2003.01
2002.97
2002.91
2002.83
2002.75
2002.65
2002.55
2002.45
2002.35
2002.26
2002.18
2002.12
2002.08
2002.05
2002.05
2002.08
2002.12
2002.18
2002.26
2002.35
2002.45
2002.55
2002.65
2002.75
2002.83
2002.91
2002.97
2003.01
2003.03
1905.18
1905.16
1905.11
1905.04
1904.95
1904.85
1904.73
1904.61
1904.49
1904.37
1904.27
1904.18
1904.1
1904.05
1904.03
1904.03
1904.05
1904.1
1904.18
1904.27
1904.38
1904.49
1904.61
1904.73
1904.85
1904.95
1905.04
1905.11
1905.16
1905.19
1807.38
1807.36
1807.3
1807.22
1807.11
1806.99
1806.86
1806.71
1806.57
1806.43
1806.31
1806.2
1806.11
1806.05
1806.02
1806.02
1806.05
1806.11
1806.2
1806.31
1806.43
1806.57
1806.72
1806.86
1806.99
1807.12
1807.22
1807.3
1807.36
1807.39
1709.65
1709.61
1709.55
1709.45
1709.33
1709.19
1709.03
1708.86
1708.69
1708.53
1708.38
1708.25
1708.15
1708.08
1708.04
1708.04
1708.08
1708.15
1708.25
1708.38
1708.53
1708.69
1708.86
1709.03
1709.19
1709.33
1709.45
1709.55
1709.62
1709.65
1611.97
1611.93
1611.86
1611.75
1611.61
1611.44
1611.25
1611.06
1610.86
1610.67
1610.5
1610.35
1610.23
1610.14
1610.1
1610.1
1610.14
1610.22
1610.35
1610.5
1610.67
1610.86
1611.06
1611.25
1611.44
1611.61
1611.75
1611.86
1611.94
1611.98
1514.38
1514.33
1514.25
1514.12
1513.96
1513.76
1513.55
1513.32
1513.1
1512.87
1512.67
1512.49
1512.35
1512.26
1512.21
1512.21
1512.26
1512.35
1512.49
1512.67
1512.87
1513.09
1513.32
1513.55
1513.76
1513.95
1514.12
1514.25
1514.34
1514.38
1416.87
1416.82
1416.72
1416.58
1416.39
1416.17
1415.93
1415.67
1415.4
1415.15
1414.92
1414.71
1414.55
1414.44
1414.38
1414.38
1414.44
1414.55
1414.71
1414.91
1415.15
1415.4
1415.66
1415.92
1416.17
1416.39
1416.57
1416.72
1416.82
1416.87
1319.46
1319.41
1319.3
1319.13
1318.92
1318.67
1318.4
1318.1
1317.81
1317.52
1317.25
1317.02
1316.83
1316.7
1316.63
1316.63
1316.7
1316.83
1317.02
1317.25
1317.52
1317.81
1318.1
1318.4
1318.67
1318.92
1319.13
1319.29
1319.4
1319.46
1222.17
1222.11
1221.98
1221.8
1221.57
1221.29
1220.99
1220.66
1220.32
1220
1219.69
1219.43
1219.22
1219.07
1219
1219
1219.08
1219.22
1219.44
1219.7
1220
1220.33
1220.66
1220.99
1221.3
1221.57
1221.8
1221.98
1222.1
1222.16
1125
1124.93
1124.8
1124.6
1124.34
1124.04
1123.71
1123.35
1122.98
1122.62
1122.28
1121.99
1121.75
1121.59
1121.5
1121.5
1121.59
1121.75
1121.99
1122.29
1122.62
1122.99
1123.36
1123.72
1124.05
1124.35
1124.6
1124.79
1124.92
1124.98
1027.96
1027.89
1027.75
1027.54
1027.27
1026.95
1026.58
1026.19
1025.79
1025.4
1025.03
1024.71
1024.45
1024.27
1024.17
1024.17
1024.27
1024.45
1024.71
1025.04
1025.41
1025.8
1026.2
1026.59
1026.96
1027.28
1027.54
1027.74
1027.88
1027.95
931.066
930.992
930.845
930.629
930.349
930.015
929.636
929.226
928.802
928.382
927.987
927.638
927.355
927.155
927.052
927.052
927.154
927.353
927.637
927.987
928.384
928.806
929.233
929.645
930.024
930.357
930.633
930.845
930.988
931.062
834.319
834.245
834.1
833.885
833.606
833.27
832.886
832.467
832.029
831.593
831.18
830.812
830.512
830.3
830.19
830.189
830.298
830.508
830.808
831.176
831.59
832.029
832.468
832.89
833.275
833.611
833.888
834.101
834.246
834.32
737.72
737.65
737.513
737.311
737.046
736.723
736.35
735.938
735.505
735.069
734.652
734.278
733.972
733.754
733.641
733.64
733.752
733.968
734.274
734.647
735.064
735.502
735.937
736.35
736.724
737.047
737.312
737.515
737.653
737.724
641.267
641.205
641.083
640.904
640.669
640.381
640.042
639.663
639.257
638.841
638.444
638.085
637.788
637.576
637.465
637.465
637.575
637.786
638.082
638.441
638.838
639.253
639.66
640.04
640.379
640.668
640.903
641.084
641.209
641.272
544.933
544.889
544.8
544.662
544.47
544.241
543.965
543.651
543.307
542.951
542.603
542.284
542.016
541.823
541.723
541.723
541.822
542.016
542.283
542.602
542.95
543.306
543.649
543.963
544.239
544.468
544.662
544.803
544.893
544.937
448.686
448.664
448.619
448.548
448.445
448.296
448.108
447.9
447.659
447.405
447.155
446.924
446.731
446.589
446.515
446.515
446.589
446.731
446.924
447.155
447.405
447.659
447.899
448.106
448.293
448.443
448.548
448.622
448.669
448.69
352.483
352.49
352.503
352.515
352.52
352.508
352.472
352.391
352.287
352.179
352.077
351.987
351.916
351.862
351.832
351.832
351.861
351.915
351.987
352.077
352.178
352.286
352.389
352.469
352.505
352.518
352.515
352.506
352.494
352.486
256.26
256.302
256.385
256.502
256.642
256.791
256.932
257.042
257.109
257.19
257.293
257.406
257.53
257.611
257.651
257.65
257.611
257.528
257.404
257.292
257.189
257.108
257.04
256.929
256.788
256.639
256.501
256.387
256.305
256.263
160.071
160.159
160.332
160.587
160.916
161.311
161.759
162.251
162.773
163.238
163.606
163.864
164.003
164.155
164.243
164.243
164.154
164.002
163.865
163.605
163.236
162.772
162.249
161.757
161.308
160.914
160.586
160.333
160.16
160.073
63.605
63.7328
63.9896
64.371
64.8743
65.4931
66.2101
67.0035
67.8498
68.717
69.5852
70.4115
71.1318
71.6306
71.8941
71.8937
71.6294
71.1308
70.4101
69.5842
68.7157
67.8486
67.003
66.2092
65.4916
64.8737
64.3707
63.9896
63.733
63.6054
4.96884
5.0398
5.18268
5.39466
5.67652
6.02922
6.44319
6.90077
7.38501
7.88276
8.39226
8.88869
9.32341
9.64849
9.82267
9.82264
9.64783
9.32315
8.88894
8.39199
7.88168
7.38396
6.90057
6.44311
6.02883
5.67692
5.39503
5.18273
5.03987
4.969
-5.10554
-5.10555
-5.10453
-5.10417
-5.10369
-5.10097
-5.09863
-5.09997
-5.10219
-5.1021
-5.09846
-5.08796
-5.07603
-5.06774
-5.06235
-5.06232
-5.06761
-5.07588
-5.08775
-5.09829
-5.10199
-5.10214
-5.10003
-5.09862
-5.10093
-5.10374
-5.10414
-5.10443
-5.10544
-5.10537
-5.20955
-5.21036
-5.21162
-5.21397
-5.21724
-5.22118
-5.22572
-5.23003
-5.23384
-5.23529
-5.2323
-5.22551
-5.218
-5.2127
-5.20684
-5.2068
-5.21262
-5.21784
-5.22526
-5.23207
-5.23515
-5.23384
-5.23008
-5.22581
-5.22127
-5.21728
-5.21398
-5.21157
-5.21025
-5.20945
-5.30754
-5.30837
-5.30984
-5.31206
-5.31488
-5.31802
-5.32134
-5.32499
-5.32939
-5.33387
-5.33764
-5.34009
-5.34051
-5.34008
-5.33631
-5.33629
-5.34
-5.34041
-5.34002
-5.33757
-5.33388
-5.32946
-5.32506
-5.32143
-5.31812
-5.31495
-5.31209
-5.3098
-5.30829
-5.30747
-5.40371
-5.4043
-5.40539
-5.40692
-5.40869
-5.41053
-5.41224
-5.41381
-5.41556
-5.41763
-5.42034
-5.4239
-5.42749
-5.43074
-5.43245
-5.43246
-5.43072
-5.42749
-5.42391
-5.4203
-5.41762
-5.4156
-5.41385
-5.41231
-5.41063
-5.40877
-5.40692
-5.40535
-5.40425
-5.40363
-5.49866
-5.49905
-5.49975
-5.50066
-5.50169
-5.50275
-5.50371
-5.50446
-5.50495
-5.50517
-5.50525
-5.50562
-5.5065
-5.50777
-5.50896
-5.50895
-5.50775
-5.50647
-5.50556
-5.50518
-5.50514
-5.50495
-5.50448
-5.50377
-5.50284
-5.50177
-5.50067
-5.4997
-5.499
-5.4986
-5.59279
-5.59305
-5.59342
-5.59389
-5.59443
-5.59494
-5.59538
-5.5957
-5.59586
-5.59581
-5.59548
-5.59491
-5.59422
-5.59346
-5.59271
-5.59269
-5.59342
-5.59416
-5.59485
-5.59542
-5.59577
-5.59585
-5.59573
-5.59545
-5.59503
-5.5945
-5.59393
-5.59341
-5.59301
-5.59279
-5.68661
-5.68666
-5.68682
-5.68698
-5.68711
-5.68721
-5.68723
-5.68715
-5.68695
-5.68664
-5.68623
-5.6857
-5.68507
-5.68436
-5.68363
-5.68362
-5.68433
-5.68503
-5.68565
-5.68617
-5.68658
-5.68691
-5.68715
-5.68728
-5.68729
-5.68719
-5.68701
-5.68681
-5.68665
-5.68656
-5.7802
-5.78017
-5.78016
-5.78006
-5.77988
-5.77964
-5.77932
-5.7789
-5.77838
-5.77778
-5.77714
-5.77649
-5.77589
-5.77538
-5.77496
-5.77495
-5.77535
-5.77584
-5.77643
-5.77707
-5.77772
-5.77835
-5.77892
-5.77938
-5.77973
-5.77996
-5.78009
-5.78014
-5.78016
-5.78017
-5.87375
-5.87374
-5.87356
-5.87327
-5.8729
-5.87244
-5.87189
-5.87121
-5.87045
-5.86964
-5.86882
-5.86804
-5.86735
-5.8668
-5.86644
-5.86641
-5.86669
-5.8672
-5.86787
-5.86866
-5.86951
-5.87036
-5.87118
-5.8719
-5.87251
-5.873
-5.87335
-5.87359
-5.87374
-5.87382
-5.96764
-5.9675
-5.9672
-5.96679
-5.96628
-5.96565
-5.9649
-5.96404
-5.9631
-5.96213
-5.96119
-5.96033
-5.95959
-5.95903
-5.95871
-5.9587
-5.95899
-5.95954
-5.96029
-5.96118
-5.96215
-5.96314
-5.96409
-5.96497
-5.96574
-5.96638
-5.96688
-5.96726
-5.9675
-5.96763
-6.06166
-6.06145
-6.06112
-6.06066
-6.06007
-6.05934
-6.05848
-6.05751
-6.05649
-6.05545
-6.05445
-6.05354
-6.05278
-6.05222
-6.05192
-6.05192
-6.05221
-6.05276
-6.05352
-6.05443
-6.05544
-6.05648
-6.05751
-6.05848
-6.05935
-6.06011
-6.06073
-6.0612
-6.06152
-6.06168
-6.1559
-6.15573
-6.15539
-6.15488
-6.15423
-6.15345
-6.15255
-6.15157
-6.15053
-6.14948
-6.14846
-6.14754
-6.14678
-6.14622
-6.14592
-6.1459
-6.14617
-6.14669
-6.14743
-6.14834
-6.14935
-6.15041
-6.15148
-6.15251
-6.15346
-6.15429
-6.15497
-6.1555
-6.15585
-6.15603
-6.25056
-6.25041
-6.25003
-6.24949
-6.2488
-6.24799
-6.24709
-6.2461
-6.24508
-6.24404
-6.24305
-6.24216
-6.24142
-6.24088
-6.2406
-6.24059
-6.24085
-6.24137
-6.24209
-6.24298
-6.24398
-6.24503
-6.2461
-6.24713
-6.24809
-6.24893
-6.24962
-6.25015
-6.25051
-6.25068
-6.34559
-6.3454
-6.34503
-6.34451
-6.34385
-6.34306
-6.34217
-6.34121
-6.34021
-6.33921
-6.33826
-6.33741
-6.33672
-6.33624
-6.33598
-6.33599
-6.33624
-6.33673
-6.33742
-6.33827
-6.33921
-6.34022
-6.34123
-6.34221
-6.34313
-6.34393
-6.34461
-6.34512
-6.34547
-6.34565
-6.44083
-6.44063
-6.44033
-6.43989
-6.4393
-6.43857
-6.43773
-6.43682
-6.43587
-6.43493
-6.43404
-6.43326
-6.43263
-6.43219
-6.43196
-6.43196
-6.43219
-6.43263
-6.43326
-6.43402
-6.43489
-6.43581
-6.43675
-6.43766
-6.43852
-6.43928
-6.43992
-6.44042
-6.44076
-6.44094
-6.53636
-6.53621
-6.53596
-6.53557
-6.53504
-6.53437
-6.5336
-6.53276
-6.53189
-6.53103
-6.53023
-6.52954
-6.52897
-6.52858
-6.52837
-6.52837
-6.52856
-6.52894
-6.52949
-6.53018
-6.53096
-6.5318
-6.53265
-6.5335
-6.53429
-6.535
-6.5356
-6.53607
-6.5364
-6.53656
-6.63229
-6.63218
-6.63195
-6.63157
-6.63106
-6.63044
-6.62973
-6.62897
-6.62819
-6.62744
-6.62674
-6.62613
-6.62564
-6.6253
-6.62512
-6.62511
-6.62528
-6.62562
-6.6261
-6.62671
-6.62741
-6.62816
-6.62894
-6.62971
-6.63043
-6.63108
-6.63163
-6.63206
-6.63235
-6.6325
-6.72861
-6.72851
-6.72826
-6.72787
-6.72738
-6.7268
-6.72617
-6.72549
-6.72481
-6.72415
-6.72355
-6.72303
-6.72261
-6.72232
-6.72218
-6.72218
-6.72233
-6.72262
-6.72305
-6.72358
-6.7242
-6.72486
-6.72556
-6.72624
-6.72688
-6.72745
-6.72794
-6.72832
-6.72858
-6.7287
-6.82519
-6.82508
-6.82482
-6.82446
-6.824
-6.82348
-6.82292
-6.82233
-6.82174
-6.82118
-6.82066
-6.82022
-6.81987
-6.81963
-6.81951
-6.81951
-6.81964
-6.81989
-6.82026
-6.82071
-6.82124
-6.82182
-6.82241
-6.823
-6.82356
-6.82406
-6.82448
-6.82481
-6.82503
-6.82514
-6.92193
-6.92181
-6.92158
-6.92126
-6.92087
-6.92042
-6.91994
-6.91943
-6.91894
-6.91846
-6.91802
-6.91764
-6.91735
-6.91714
-6.91704
-6.91704
-6.91715
-6.91736
-6.91766
-6.91804
-6.91849
-6.91897
-6.91947
-6.91997
-6.92044
-6.92086
-6.92122
-6.92151
-6.9217
-6.9218
-7.01882
-7.01871
-7.01852
-7.01826
-7.01794
-7.01757
-7.01716
-7.01674
-7.01632
-7.01591
-7.01554
-7.01522
-7.01497
-7.01479
-7.0147
-7.0147
-7.01479
-7.01496
-7.01521
-7.01553
-7.01589
-7.01629
-7.01671
-7.01712
-7.01752
-7.01788
-7.01818
-7.01843
-7.0186
-7.01869
-7.1159
-7.1158
-7.11566
-7.11545
-7.11519
-7.11488
-7.11455
-7.1142
-7.11384
-7.11349
-7.11318
-7.1129
-7.11268
-7.11253
-7.11245
-7.11244
-7.11252
-7.11266
-7.11287
-7.11313
-7.11344
-7.11377
-7.11412
-7.11447
-7.1148
-7.1151
-7.11536
-7.11557
-7.11572
-7.11581
-7.21318
-7.21311
-7.21299
-7.21282
-7.21261
-7.21235
-7.21207
-7.21177
-7.21147
-7.21117
-7.2109
-7.21066
-7.21047
-7.21034
-7.21027
-7.21026
-7.21032
-7.21045
-7.21062
-7.21085
-7.21111
-7.21139
-7.21169
-7.21199
-7.21227
-7.21253
-7.21275
-7.21293
-7.21306
-7.21313
-7.31065
-7.3106
-7.3105
-7.31036
-7.31018
-7.30996
-7.30971
-7.30945
-7.30919
-7.30893
-7.3087
-7.30849
-7.30833
-7.30821
-7.30815
-7.30815
-7.3082
-7.30831
-7.30846
-7.30866
-7.30889
-7.30913
-7.30939
-7.30965
-7.30989
-7.31011
-7.31031
-7.31046
-7.31057
-7.31063
-7.40828
-7.40824
-7.40815
-7.40803
-7.40787
-7.40767
-7.40746
-7.40723
-7.407
-7.40678
-7.40657
-7.40639
-7.40625
-7.40615
-7.4061
-7.4061
-7.40615
-7.40624
-7.40638
-7.40655
-7.40675
-7.40697
-7.40719
-7.40742
-7.40763
-7.40783
-7.40799
-7.40812
-7.40822
-7.40827
-7.50601
-7.50598
-7.50591
-7.50579
-7.50565
-7.50548
-7.50529
-7.50509
-7.50489
-7.50469
-7.50451
-7.50436
-7.50424
-7.50415
-7.50411
-7.50411
-7.50415
-7.50424
-7.50436
-7.50451
-7.50468
-7.50488
-7.50507
-7.50527
-7.50546
-7.50563
-7.50577
-7.50588
-7.50596
-7.506
-7.60382
-7.60379
-7.60373
-7.60363
-7.6035
-7.60335
-7.60318
-7.60301
-7.60283
-7.60267
-7.60251
-7.60238
-7.60228
-7.6022
-7.60217
-7.60217
-7.6022
-7.60228
-7.60238
-7.60251
-7.60267
-7.60283
-7.60301
-7.60318
-7.60334
-7.60349
-7.60361
-7.60371
-7.60377
-7.6038
-7.70168
-7.70165
-7.70159
-7.70151
-7.7014
-7.70127
-7.70112
-7.70097
-7.70082
-7.70068
-7.70055
-7.70044
-7.70035
-7.70029
-7.70026
-7.70026
-7.70029
-7.70035
-7.70044
-7.70056
-7.70069
-7.70083
-7.70098
-7.70112
-7.70126
-7.70139
-7.7015
-7.70158
-7.70163
-7.70166
-7.79957
-7.79955
-7.7995
-7.79942
-7.79933
-7.79922
-7.7991
-7.79897
-7.79884
-7.79872
-7.79861
-7.79852
-7.79844
-7.79839
-7.79837
-7.79837
-7.7984
-7.79845
-7.79852
-7.79862
-7.79873
-7.79885
-7.79898
-7.7991
-7.79922
-7.79932
-7.79941
-7.79948
-7.79953
-7.79955
-7.89749
-7.89747
-7.89743
-7.89737
-7.89729
-7.8972
-7.89709
-7.89699
-7.89688
-7.89678
-7.89669
-7.89661
-7.89655
-7.89651
-7.89649
-7.89649
-7.89651
-7.89655
-7.89662
-7.8967
-7.89679
-7.89689
-7.89699
-7.8971
-7.8972
-7.89728
-7.89736
-7.89742
-7.89746
-7.89748
-7.99544
-7.99542
-7.99538
-7.99533
-7.99527
-7.99519
-7.99511
-7.99502
-7.99494
-7.99485
-7.99478
-7.99471
-7.99466
-7.99463
-7.99461
-7.99461
-7.99463
-7.99467
-7.99472
-7.99478
-7.99486
-7.99494
-7.99503
-7.99511
-7.99519
-7.99527
-7.99533
-7.99538
-7.99541
-7.99543
-8.09341
-8.09339
-8.09336
-8.09332
-8.09327
-8.09321
-8.09314
-8.09307
-8.093
-8.09293
-8.09287
-8.09282
-8.09278
-8.09275
-8.09273
-8.09273
-8.09275
-8.09278
-8.09282
-8.09287
-8.09293
-8.093
-8.09307
-8.09314
-8.09321
-8.09327
-8.09332
-8.09336
-8.09339
-8.0934
-8.1914
-8.19139
-8.19136
-8.19133
-8.19129
-8.19124
-8.19118
-8.19113
-8.19107
-8.19101
-8.19096
-8.19092
-8.19089
-8.19086
-8.19085
-8.19085
-8.19086
-8.19089
-8.19092
-8.19097
-8.19102
-8.19107
-8.19113
-8.19119
-8.19124
-8.19129
-8.19133
-8.19137
-8.19139
-8.1914
-8.28941
-8.2894
-8.28938
-8.28936
-8.28932
-8.28928
-8.28924
-8.28919
-8.28915
-8.2891
-8.28906
-8.28903
-8.289
-8.28898
-8.28897
-8.28897
-8.28898
-8.289
-8.28903
-8.28906
-8.2891
-8.28915
-8.2892
-8.28924
-8.28929
-8.28933
-8.28936
-8.28939
-8.28941
-8.28942
-8.38745
-8.38744
-8.38742
-8.3874
-8.38737
-8.38734
-8.3873
-8.38727
-8.38723
-8.38719
-8.38716
-8.38713
-8.38711
-8.38709
-8.38709
-8.38709
-8.3871
-8.38711
-8.38713
-8.38716
-8.3872
-8.38723
-8.38727
-8.38731
-8.38735
-8.38738
-8.38741
-8.38743
-8.38744
-8.38745
-8.4855
-8.48549
-8.48548
-8.48546
-8.48544
-8.48541
-8.48538
-8.48535
-8.48532
-8.48529
-8.48526
-8.48524
-8.48522
-8.48521
-8.4852
-8.4852
-8.48521
-8.48522
-8.48524
-8.48527
-8.48529
-8.48532
-8.48535
-8.48539
-8.48541
-8.48544
-8.48547
-8.48548
-8.4855
-8.4855
-8.58356
-8.58355
-8.58354
-8.58353
-8.58351
-8.58349
-8.58346
-8.58344
-8.58342
-8.58339
-8.58337
-8.58335
-8.58334
-8.58333
-8.58332
-8.58332
-8.58333
-8.58334
-8.58335
-8.58337
-8.5834
-8.58342
-8.58345
-8.58347
-8.5835
-8.58352
-8.58354
-8.58355
-8.58356
-8.58357
-8.68164
-8.68163
-8.68162
-8.68161
-8.68159
-8.68158
-8.68156
-8.68154
-8.68152
-8.6815
-8.68148
-8.68147
-8.68146
-8.68145
-8.68144
-8.68144
-8.68145
-8.68146
-8.68147
-8.68149
-8.6815
-8.68152
-8.68154
-8.68156
-8.68158
-8.6816
-8.68162
-8.68163
-8.68164
-8.68164
-8.77972
-8.77972
-8.77971
-8.7797
-8.77969
-8.77967
-8.77966
-8.77964
-8.77963
-8.77961
-8.7796
-8.77959
-8.77958
-8.77957
-8.77957
-8.77957
-8.77957
-8.77958
-8.77959
-8.7796
-8.77962
-8.77963
-8.77965
-8.77967
-8.77968
-8.7797
-8.77971
-8.77972
-8.77973
-8.77973
-8.87782
-8.87781
-8.87781
-8.8778
-8.87779
-8.87778
-8.87777
-8.87775
-8.87774
-8.87773
-8.87772
-8.87771
-8.8777
-8.87769
-8.87769
-8.87769
-8.8777
-8.8777
-8.87771
-8.87772
-8.87773
-8.87774
-8.87776
-8.87777
-8.87779
-8.8778
-8.87781
-8.87782
-8.87782
-8.87783
-8.97592
-8.97592
-8.97591
-8.97591
-8.9759
-8.97589
-8.97588
-8.97587
-8.97586
-8.97585
-8.97584
-8.97583
-8.97583
-8.97582
-8.97582
-8.97582
-8.97582
-8.97583
-8.97583
-8.97584
-8.97585
-8.97586
-8.97587
-8.97589
-8.9759
-8.97591
-8.97591
-8.97592
-8.97593
-8.97593
-9.07403
-9.07403
-9.07403
-9.07402
-9.07401
-9.07401
-9.074
-9.07399
-9.07398
-9.07397
-9.07397
-9.07396
-9.07396
-9.07395
-9.07395
-9.07395
-9.07395
-9.07396
-9.07396
-9.07397
-9.07398
-9.07399
-9.07399
-9.074
-9.07401
-9.07402
-9.07403
-9.07403
-9.07404
-9.07404
-9.17215
-9.17215
-9.17214
-9.17214
-9.17213
-9.17213
-9.17212
-9.17212
-9.17211
-9.1721
-9.1721
-9.17209
-9.17209
-9.17209
-9.17208
-9.17208
-9.17209
-9.17209
-9.17209
-9.1721
-9.17211
-9.17211
-9.17212
-9.17213
-9.17213
-9.17214
-9.17215
-9.17215
-9.17215
-9.17216
-9.27027
-9.27027
-9.27027
-9.27026
-9.27026
-9.27025
-9.27025
-9.27024
-9.27024
-9.27023
-9.27023
-9.27023
-9.27022
-9.27022
-9.27022
-9.27022
-9.27022
-9.27022
-9.27023
-9.27023
-9.27024
-9.27024
-9.27025
-9.27025
-9.27026
-9.27026
-9.27027
-9.27027
-9.27028
-9.27028
-9.3684
-9.3684
-9.36839
-9.36839
-9.36839
-9.36838
-9.36838
-9.36838
-9.36837
-9.36837
-9.36837
-9.36836
-9.36836
-9.36836
-9.36836
-9.36836
-9.36836
-9.36836
-9.36836
-9.36837
-9.36837
-9.36838
-9.36838
-9.36838
-9.36839
-9.36839
-9.3684
-9.3684
-9.3684
-9.3684
-9.46653
-9.46653
-9.46652
-9.46652
-9.46652
-9.46652
-9.46651
-9.46651
-9.46651
-9.46651
-9.4665
-9.4665
-9.4665
-9.4665
-9.4665
-9.4665
-9.4665
-9.4665
-9.4665
-9.46651
-9.46651
-9.46651
-9.46651
-9.46652
-9.46652
-9.46652
-9.46653
-9.46653
-9.46653
-9.46653
-9.56466
-9.56466
-9.56466
-9.56466
-9.56465
-9.56465
-9.56465
-9.56465
-9.56465
-9.56465
-9.56464
-9.56464
-9.56464
-9.56464
-9.56464
-9.56464
-9.56464
-9.56464
-9.56464
-9.56464
-9.56465
-9.56465
-9.56465
-9.56465
-9.56466
-9.56466
-9.56466
-9.56466
-9.56466
-9.56466
-9.66279
-9.66279
-9.66279
-9.66279
-9.66279
-9.66279
-9.66279
-9.66279
-9.66279
-9.66279
-9.66278
-9.66278
-9.66278
-9.66278
-9.66278
-9.66278
-9.66278
-9.66278
-9.66278
-9.66279
-9.66279
-9.66279
-9.66279
-9.66279
-9.66279
-9.66279
-9.66279
-9.6628
-9.6628
-9.6628
-9.76093
-9.76093
-9.76093
-9.76093
-9.76093
-9.76093
-9.76093
-9.76093
-9.76093
-9.76093
-9.76093
-9.76093
-9.76093
-9.76093
-9.76093
-9.76093
-9.76093
-9.76093
-9.76093
-9.76093
-9.76093
-9.76093
-9.76093
-9.76093
-9.76093
-9.76093
-9.76093
-9.76093
-9.76093
-9.76093
4846.72
4846.72
4846.72
4846.72
4846.72
4846.72
4846.72
4846.72
4846.72
4846.72
4846.72
4846.72
4846.72
4846.72
4846.72
4846.72
4846.72
4846.72
4846.72
4846.72
4846.72
4846.72
4846.72
4846.72
4846.72
4846.72
4846.72
4846.72
4846.72
4846.72
4748.62
4748.62
4748.62
4748.62
4748.62
4748.62
4748.62
4748.62
4748.62
4748.62
4748.62
4748.62
4748.62
4748.62
4748.62
4748.62
4748.62
4748.62
4748.62
4748.62
4748.62
4748.62
4748.62
4748.62
4748.62
4748.62
4748.62
4748.62
4748.62
4748.62
4650.52
4650.52
4650.52
4650.52
4650.52
4650.52
4650.52
4650.52
4650.52
4650.52
4650.52
4650.52
4650.52
4650.52
4650.52
4650.52
4650.52
4650.52
4650.52
4650.52
4650.52
4650.52
4650.52
4650.52
4650.52
4650.52
4650.52
4650.52
4650.52
4650.52
4552.43
4552.43
4552.43
4552.42
4552.42
4552.42
4552.42
4552.42
4552.42
4552.42
4552.42
4552.42
4552.42
4552.42
4552.42
4552.42
4552.42
4552.42
4552.42
4552.42
4552.42
4552.42
4552.42
4552.42
4552.42
4552.42
4552.42
4552.42
4552.42
4552.42
4454.33
4454.33
4454.33
4454.33
4454.32
4454.32
4454.32
4454.32
4454.32
4454.32
4454.32
4454.32
4454.32
4454.32
4454.32
4454.32
4454.32
4454.32
4454.32
4454.32
4454.32
4454.32
4454.32
4454.32
4454.32
4454.32
4454.32
4454.32
4454.32
4454.32
4356.23
4356.23
4356.23
4356.23
4356.23
4356.22
4356.22
4356.22
4356.22
4356.22
4356.22
4356.22
4356.22
4356.22
4356.22
4356.22
4356.22
4356.22
4356.22
4356.22
4356.22
4356.22
4356.22
4356.22
4356.22
4356.22
4356.22
4356.23
4356.23
4356.23
4258.13
4258.13
4258.13
4258.13
4258.13
4258.13
4258.12
4258.12
4258.12
4258.12
4258.12
4258.12
4258.12
4258.12
4258.12
4258.12
4258.12
4258.12
4258.12
4258.12
4258.12
4258.12
4258.12
4258.12
4258.12
4258.13
4258.13
4258.13
4258.13
4258.13
4160.03
4160.03
4160.03
4160.03
4160.03
4160.03
4160.03
4160.02
4160.02
4160.02
4160.02
4160.02
4160.02
4160.02
4160.02
4160.02
4160.02
4160.02
4160.02
4160.02
4160.02
4160.02
4160.02
4160.02
4160.03
4160.03
4160.03
4160.03
4160.03
4160.03
4061.94
4061.93
4061.93
4061.93
4061.93
4061.93
4061.93
4061.93
4061.92
4061.92
4061.92
4061.92
4061.92
4061.92
4061.91
4061.92
4061.92
4061.92
4061.92
4061.92
4061.92
4061.92
4061.92
4061.93
4061.93
4061.93
4061.93
4061.93
4061.93
4061.94
3963.84
3963.84
3963.84
3963.84
3963.83
3963.83
3963.83
3963.83
3963.82
3963.82
3963.82
3963.82
3963.82
3963.81
3963.81
3963.81
3963.81
3963.82
3963.82
3963.82
3963.82
3963.82
3963.83
3963.83
3963.83
3963.83
3963.84
3963.84
3963.84
3963.84
3865.74
3865.74
3865.74
3865.74
3865.74
3865.73
3865.73
3865.73
3865.73
3865.72
3865.72
3865.72
3865.72
3865.71
3865.71
3865.71
3865.71
3865.72
3865.72
3865.72
3865.72
3865.73
3865.73
3865.73
3865.74
3865.74
3865.74
3865.74
3865.74
3865.74
3767.65
3767.65
3767.64
3767.64
3767.64
3767.64
3767.63
3767.63
3767.63
3767.62
3767.62
3767.62
3767.62
3767.61
3767.61
3767.61
3767.61
3767.62
3767.62
3767.62
3767.63
3767.63
3767.63
3767.64
3767.64
3767.64
3767.64
3767.65
3767.65
3767.65
3669.55
3669.55
3669.55
3669.55
3669.54
3669.54
3669.54
3669.53
3669.53
3669.53
3669.52
3669.52
3669.52
3669.51
3669.51
3669.51
3669.51
3669.52
3669.52
3669.52
3669.53
3669.53
3669.54
3669.54
3669.54
3669.55
3669.55
3669.55
3669.55
3669.55
3571.46
3571.46
3571.46
3571.45
3571.45
3571.45
3571.44
3571.44
3571.43
3571.43
3571.42
3571.42
3571.42
3571.42
3571.41
3571.41
3571.42
3571.42
3571.42
3571.42
3571.43
3571.43
3571.44
3571.44
3571.45
3571.45
3571.46
3571.46
3571.46
3571.46
3473.37
3473.37
3473.36
3473.36
3473.36
3473.35
3473.35
3473.34
3473.34
3473.33
3473.33
3473.32
3473.32
3473.32
3473.32
3473.32
3473.32
3473.32
3473.32
3473.33
3473.33
3473.34
3473.34
3473.35
3473.35
3473.36
3473.36
3473.37
3473.37
3473.37
3375.28
3375.28
3375.28
3375.27
3375.27
3375.26
3375.26
3375.25
3375.24
3375.24
3375.23
3375.22
3375.22
3375.22
3375.22
3375.22
3375.22
3375.22
3375.22
3375.23
3375.23
3375.24
3375.25
3375.26
3375.26
3375.27
3375.28
3375.28
3375.28
3375.28
3277.2
3277.2
3277.19
3277.19
3277.18
3277.18
3277.17
3277.16
3277.15
3277.14
3277.13