/*--------------------------------*- C++ -*----------------------------------*\
| =========                 |                                                 |
| \\      /  F ield         | OpenFOAM: The Open Source CFD Toolbox           |
|  \\    /   O peration     | Version:  2312                                  |
|   \\  /    A nd           | Website:  www.openfoam.com                      |
|    \\/     M anipulation  |                                                 |
\*---------------------------------------------------------------------------*/
FoamFile
{
    version     2.0;
    format      ascii;
    arch        "LSB;label=32;scalar=64";
    class       volScalarField;
    location    "0.248571";
    object      p_rgh;
}
// * * * * * * * * * * * * * * * * * * * * * * * * * * * * * * * * * * * * * //

dimensions      [1 -1 -2 0 0 0 0];

internalField   nonuniform List<scalar> 
90000
(
4895.77
4895.77
4895.77
4895.77
4895.77
4895.77
4895.77
4895.77
4895.77
4895.77
4895.77
4895.77
4895.77
4895.77
4895.77
4895.77
4895.77
4895.77
4895.77
4895.77
4895.77
4895.77
4895.77
4895.77
4895.77
4895.77
4895.77
4895.77
4895.77
4895.77
4895.77
4895.77
4895.77
4895.77
4895.77
4895.77
4895.77
4895.77
4895.77
4895.77
4895.77
4895.77
4895.77
4895.77
4895.77
4895.77
4895.77
4895.77
4895.77
4895.77
4895.77
4895.77
4895.77
4895.77
4895.77
4895.77
4895.77
4895.78
4895.78
4895.78
4895.77
4895.77
4895.77
4895.77
4895.77
4895.77
4895.77
4895.77
4895.77
4895.77
4895.77
4895.77
4895.77
4895.77
4895.77
4895.77
4895.77
4895.77
4895.77
4895.77
4895.77
4895.77
4895.77
4895.77
4895.77
4895.77
4895.77
4895.77
4895.77
4895.77
4895.77
4895.77
4895.77
4895.77
4895.77
4895.77
4895.77
4895.77
4895.77
4895.77
4895.77
4895.77
4895.77
4895.77
4895.77
4895.77
4895.77
4895.77
4895.77
4895.77
4895.77
4895.77
4895.77
4895.77
4895.77
4895.77
4895.77
4895.77
4895.77
4895.77
4895.78
4895.78
4895.78
4895.78
4895.78
4895.77
4895.77
4895.77
4895.77
4895.77
4895.77
4895.77
4895.77
4895.77
4895.77
4895.77
4895.77
4895.77
4895.77
4895.77
4895.77
4895.77
4895.77
4895.77
4895.77
4895.77
4895.77
4895.77
4895.77
4895.77
4895.78
4895.78
4895.78
4895.78
4895.78
4895.78
4895.77
4895.77
4895.77
4895.77
4895.77
4895.77
4895.77
4895.77
4895.77
4895.77
4895.77
4895.77
4895.77
4895.77
4895.77
4895.77
4895.77
4895.77
4895.77
4895.77
4895.77
4895.77
4895.77
4895.77
4895.78
4895.78
4895.78
4895.78
4895.78
4895.78
4895.77
4895.77
4895.77
4895.77
4895.77
4895.77
4895.77
4895.77
4895.77
4895.77
4895.77
4895.77
4895.77
4895.77
4895.77
4895.77
4895.77
4895.77
4895.77
4895.77
4895.77
4895.77
4895.77
4895.77
4895.78
4895.78
4895.78
4895.78
4895.78
4895.78
4895.77
4895.77
4895.77
4895.77
4895.77
4895.77
4895.77
4895.77
4895.77
4895.77
4895.77
4895.77
4895.77
4895.77
4895.77
4895.77
4895.77
4895.77
4895.77
4895.77
4895.77
4895.77
4895.77
4895.78
4895.79
4895.79
4895.78
4895.78
4895.78
4895.78
4895.78
4895.77
4895.77
4895.77
4895.77
4895.77
4895.77
4895.77
4895.77
4895.77
4895.77
4895.77
4895.77
4895.77
4895.77
4895.77
4895.77
4895.77
4895.77
4895.77
4895.77
4895.78
4895.78
4895.78
4895.79
4895.79
4895.79
4895.79
4895.79
4895.78
4895.78
4895.78
4895.77
4895.77
4895.77
4895.77
4895.77
4895.77
4895.77
4895.77
4895.77
4895.77
4895.77
4895.77
4895.77
4895.77
4895.77
4895.77
4895.77
4895.78
4895.78
4895.78
4895.79
4895.79
4895.8
4895.8
4895.8
4895.8
4895.8
4895.79
4895.79
4895.78
4895.77
4895.77
4895.77
4895.76
4895.76
4895.76
4895.77
4895.77
4895.77
4895.77
4895.77
4895.77
4895.77
4895.78
4895.78
4895.78
4895.78
4895.78
4895.79
4895.79
4895.79
4895.79
4895.8
4895.82
4895.81
4895.81
4895.81
4895.8
4895.79
4895.79
4895.78
4895.77
4895.76
4895.76
4895.76
4895.76
4895.76
4895.76
4895.76
4895.77
4895.77
4895.77
4895.78
4895.78
4895.79
4895.79
4895.79
4895.79
4895.8
4895.8
4895.8
4895.8
4895.82
4895.83
4895.82
4895.82
4895.81
4895.81
4895.8
4895.79
4895.78
4895.77
4895.77
4895.76
4895.76
4895.76
4895.75
4895.76
4895.76
4895.76
4895.77
4895.78
4895.79
4895.79
4895.8
4895.8
4895.8
4895.81
4895.81
4895.81
4895.81
4895.81
4895.83
4895.83
4895.83
4895.82
4895.81
4895.81
4895.8
4895.79
4895.78
4895.78
4895.77
4895.77
4895.76
4895.76
4895.75
4895.75
4895.76
4895.76
4895.77
4895.78
4895.79
4895.8
4895.81
4895.81
4895.82
4895.82
4895.82
4895.82
4895.82
4895.82
4895.83
4895.82
4895.82
4895.81
4895.81
4895.8
4895.8
4895.79
4895.79
4895.79
4895.78
4895.77
4895.77
4895.76
4895.75
4895.75
4895.76
4895.77
4895.78
4895.79
4895.8
4895.81
4895.82
4895.82
4895.83
4895.83
4895.83
4895.83
4895.83
4895.82
4895.84
4895.81
4895.81
4895.81
4895.8
4895.8
4895.8
4895.8
4895.8
4895.8
4895.79
4895.78
4895.77
4895.76
4895.76
4895.76
4895.76
4895.77
4895.78
4895.79
4895.8
4895.81
4895.82
4895.82
4895.83
4895.83
4895.84
4895.83
4895.83
4895.83
4895.84
4895.81
4895.81
4895.81
4895.81
4895.81
4895.81
4895.81
4895.81
4895.8
4895.8
4895.79
4895.78
4895.77
4895.76
4895.76
4895.77
4895.77
4895.78
4895.79
4895.8
4895.8
4895.81
4895.82
4895.83
4895.84
4895.84
4895.84
4895.84
4895.84
4895.85
4895.82
4895.82
4895.82
4895.82
4895.82
4895.82
4895.82
4895.82
4895.81
4895.8
4895.79
4895.78
4895.77
4895.77
4895.77
4895.77
4895.77
4895.78
4895.78
4895.79
4895.8
4895.81
4895.82
4895.83
4895.84
4895.84
4895.85
4895.85
4895.86
4895.87
4895.85
4895.85
4895.85
4895.85
4895.85
4895.84
4895.83
4895.82
4895.81
4895.8
4895.79
4895.78
4895.78
4895.78
4895.77
4895.77
4895.78
4895.78
4895.79
4895.79
4895.81
4895.82
4895.83
4895.84
4895.85
4895.86
4895.87
4895.88
4895.89
4895.9
4895.89
4895.89
4895.89
4895.88
4895.88
4895.87
4895.85
4895.84
4895.82
4895.81
4895.8
4895.79
4895.79
4895.78
4895.78
4895.78
4895.78
4895.78
4895.79
4895.8
4895.82
4895.83
4895.85
4895.86
4895.87
4895.89
4895.9
4895.91
4895.92
4895.95
4895.94
4895.94
4895.93
4895.93
4895.91
4895.9
4895.88
4895.86
4895.84
4895.82
4895.81
4895.8
4895.79
4895.79
4895.79
4895.79
4895.79
4895.79
4895.81
4895.82
4895.84
4895.85
4895.87
4895.89
4895.91
4895.93
4895.94
4895.95
4895.96
4896
4896
4895.99
4895.98
4895.97
4895.96
4895.93
4895.91
4895.88
4895.86
4895.84
4895.82
4895.81
4895.8
4895.79
4895.79
4895.79
4895.8
4895.81
4895.82
4895.84
4895.86
4895.88
4895.91
4895.93
4895.96
4895.98
4895.99
4896
4896
4896.06
4896.06
4896.06
4896.05
4896.03
4896.01
4895.98
4895.94
4895.91
4895.88
4895.86
4895.83
4895.82
4895.81
4895.8
4895.8
4895.8
4895.81
4895.82
4895.84
4895.87
4895.89
4895.92
4895.96
4895.99
4896.02
4896.04
4896.05
4896.06
4896.07
4896.14
4896.14
4896.13
4896.12
4896.09
4896.06
4896.02
4895.98
4895.94
4895.91
4895.88
4895.85
4895.83
4895.82
4895.81
4895.81
4895.81
4895.83
4895.84
4895.87
4895.9
4895.94
4895.98
4896.02
4896.05
4896.08
4896.11
4896.12
4896.14
4896.15
4896.23
4896.23
4896.22
4896.19
4896.16
4896.12
4896.07
4896.03
4895.98
4895.94
4895.9
4895.87
4895.85
4895.83
4895.83
4895.83
4895.83
4895.85
4895.87
4895.9
4895.94
4895.99
4896.03
4896.08
4896.12
4896.16
4896.19
4896.21
4896.23
4896.24
4896.33
4896.34
4896.32
4896.28
4896.24
4896.19
4896.14
4896.08
4896.03
4895.98
4895.94
4895.9
4895.87
4895.86
4895.85
4895.85
4895.86
4895.88
4895.9
4895.94
4895.99
4896.04
4896.1
4896.15
4896.2
4896.24
4896.28
4896.31
4896.33
4896.33
4896.46
4896.46
4896.42
4896.38
4896.33
4896.27
4896.21
4896.16
4896.1
4896.04
4895.98
4895.94
4895.91
4895.89
4895.87
4895.87
4895.88
4895.9
4895.94
4895.99
4896.04
4896.1
4896.17
4896.23
4896.28
4896.34
4896.39
4896.43
4896.45
4896.45
4896.6
4896.59
4896.55
4896.5
4896.44
4896.38
4896.31
4896.24
4896.17
4896.1
4896.04
4895.99
4895.95
4895.92
4895.9
4895.9
4895.91
4895.94
4895.99
4896.04
4896.11
4896.18
4896.25
4896.32
4896.39
4896.46
4896.52
4896.56
4896.59
4896.6
4896.77
4896.75
4896.71
4896.65
4896.59
4896.51
4896.43
4896.35
4896.26
4896.18
4896.11
4896.05
4896
4895.96
4895.94
4895.94
4895.96
4895.99
4896.05
4896.12
4896.19
4896.27
4896.35
4896.44
4896.53
4896.61
4896.67
4896.72
4896.76
4896.78
4896.98
4896.95
4896.9
4896.84
4896.77
4896.68
4896.58
4896.48
4896.38
4896.28
4896.2
4896.12
4896.06
4896.02
4895.99
4895.99
4896.02
4896.06
4896.13
4896.2
4896.29
4896.38
4896.48
4896.59
4896.69
4896.78
4896.85
4896.91
4896.96
4896.98
4897.23
4897.19
4897.14
4897.07
4896.98
4896.88
4896.76
4896.64
4896.52
4896.41
4896.31
4896.22
4896.15
4896.09
4896.07
4896.07
4896.1
4896.15
4896.22
4896.31
4896.41
4896.52
4896.64
4896.77
4896.88
4896.98
4897.08
4897.16
4897.21
4897.23
4897.53
4897.49
4897.43
4897.35
4897.25
4897.12
4896.98
4896.83
4896.69
4896.56
4896.45
4896.34
4896.26
4896.2
4896.17
4896.17
4896.2
4896.26
4896.34
4896.45
4896.57
4896.7
4896.85
4896.99
4897.12
4897.25
4897.36
4897.45
4897.51
4897.54
4897.89
4897.85
4897.78
4897.69
4897.56
4897.41
4897.25
4897.08
4896.91
4896.76
4896.62
4896.5
4896.4
4896.33
4896.29
4896.3
4896.33
4896.4
4896.5
4896.62
4896.77
4896.93
4897.1
4897.26
4897.42
4897.57
4897.7
4897.79
4897.86
4897.9
4898.32
4898.28
4898.2
4898.09
4897.94
4897.77
4897.57
4897.38
4897.19
4897.01
4896.85
4896.7
4896.58
4896.5
4896.46
4896.46
4896.5
4896.58
4896.7
4896.84
4897.02
4897.21
4897.4
4897.58
4897.77
4897.94
4898.09
4898.2
4898.29
4898.33
4898.82
4898.78
4898.7
4898.56
4898.39
4898.19
4897.98
4897.76
4897.53
4897.32
4897.12
4896.95
4896.81
4896.71
4896.67
4896.67
4896.72
4896.82
4896.95
4897.12
4897.32
4897.54
4897.75
4897.98
4898.2
4898.39
4898.56
4898.7
4898.79
4898.84
4899.42
4899.38
4899.27
4899.12
4898.93
4898.71
4898.47
4898.21
4897.95
4897.7
4897.46
4897.26
4897.1
4897
4896.95
4896.95
4897.01
4897.11
4897.27
4897.47
4897.7
4897.95
4898.2
4898.46
4898.71
4898.93
4899.13
4899.28
4899.38
4899.44
4900.12
4900.06
4899.95
4899.78
4899.57
4899.33
4899.05
4898.75
4898.45
4898.16
4897.89
4897.67
4897.49
4897.37
4897.31
4897.31
4897.37
4897.49
4897.68
4897.91
4898.17
4898.46
4898.75
4899.05
4899.33
4899.57
4899.79
4899.95
4900.07
4900.13
4900.92
4900.86
4900.74
4900.56
4900.33
4900.05
4899.74
4899.4
4899.07
4898.74
4898.44
4898.19
4897.98
4897.84
4897.77
4897.77
4897.84
4897.99
4898.21
4898.47
4898.76
4899.09
4899.42
4899.75
4900.05
4900.33
4900.56
4900.74
4900.86
4900.92
4901.85
4901.79
4901.66
4901.46
4901.21
4900.9
4900.56
4900.19
4899.83
4899.47
4899.13
4898.84
4898.61
4898.45
4898.36
4898.37
4898.46
4898.63
4898.87
4899.15
4899.48
4899.84
4900.21
4900.56
4900.9
4901.2
4901.45
4901.66
4901.78
4901.85
4902.92
4902.86
4902.71
4902.5
4902.22
4901.9
4901.54
4901.15
4900.75
4900.35
4899.98
4899.66
4899.4
4899.23
4899.14
4899.14
4899.24
4899.43
4899.68
4899.99
4900.35
4900.76
4901.15
4901.54
4901.92
4902.24
4902.51
4902.73
4902.85
4902.93
4904.13
4904.07
4903.92
4903.69
4903.4
4903.07
4902.69
4902.29
4901.86
4901.43
4901.03
4900.68
4900.41
4900.23
4900.12
4900.12
4900.22
4900.42
4900.69
4901.03
4901.44
4901.87
4902.29
4902.7
4903.1
4903.42
4903.72
4903.92
4904.07
4904.13
4905.49
4905.43
4905.27
4905.04
4904.76
4904.43
4904.05
4903.63
4903.18
4902.73
4902.32
4901.96
4901.68
4901.47
4901.35
4901.34
4901.46
4901.67
4901.96
4902.33
4902.76
4903.19
4903.62
4904.05
4904.44
4904.76
4905.08
4905.26
4905.44
4905.47
4906.99
4906.93
4906.78
4906.57
4906.3
4905.99
4905.61
4905.19
4904.75
4904.31
4903.9
4903.54
4903.23
4903.01
4902.89
4902.89
4903.02
4903.23
4903.53
4903.91
4904.33
4904.75
4905.18
4905.62
4905.98
4906.3
4906.6
4906.77
4906.94
4906.98
4908.63
4908.57
4908.44
4908.26
4908.03
4907.74
4907.4
4907.01
4906.61
4906.19
4905.8
4905.44
4905.14
4904.92
4904.82
4904.84
4904.95
4905.15
4905.44
4905.8
4906.19
4906.6
4907.01
4907.41
4907.72
4908.03
4908.26
4908.46
4908.55
4908.65
4910.4
4910.35
4910.26
4910.13
4909.93
4909.7
4909.42
4909.1
4908.76
4908.41
4908.06
4907.73
4907.46
4907.28
4907.19
4907.2
4907.29
4907.47
4907.73
4908.06
4908.39
4908.75
4909.11
4909.42
4909.67
4909.95
4910.1
4910.29
4910.32
4910.41
4912.24
4912.23
4912.18
4912.11
4912
4911.84
4911.66
4911.45
4911.22
4910.95
4910.7
4910.47
4910.28
4910.15
4910.08
4910.08
4910.14
4910.27
4910.47
4910.71
4910.94
4911.2
4911.47
4911.65
4911.84
4912.02
4912.1
4912.17
4912.22
4912.25
4914.14
4914.15
4914.16
4914.17
4914.17
4914.16
4914.13
4914.04
4913.94
4913.83
4913.73
4913.64
4913.57
4913.52
4913.5
4913.49
4913.51
4913.56
4913.65
4913.73
4913.82
4913.94
4914.06
4914.11
4914.17
4914.16
4914.19
4914.14
4914.13
4914.14
4916.01
4916.06
4916.14
4916.25
4916.39
4916.54
4916.69
4916.8
4916.85
4916.94
4917.04
4917.16
4917.28
4917.36
4917.41
4917.4
4917.36
4917.28
4917.17
4917.04
4916.93
4916.88
4916.78
4916.65
4916.55
4916.4
4916.25
4916.14
4916.05
4916.01
4917.92
4918.02
4918.18
4918.45
4918.77
4919.18
4919.61
4920.1
4920.62
4921.09
4921.46
4921.72
4921.85
4922.01
4922.1
4922.09
4922
4921.86
4921.72
4921.45
4921.09
4920.63
4920.09
4919.61
4919.18
4918.79
4918.43
4918.2
4918
4917.93
4919.56
4919.72
4919.96
4920.48
4921.02
4921.45
4922.17
4922.99
4923.81
4924.71
4925.63
4926.48
4927.19
4927.6
4927.87
4927.84
4927.65
4927.09
4926.37
4925.63
4924.81
4923.93
4922.96
4922.2
4921.5
4920.82
4920.32
4919.95
4919.68
4919.58
1017.55
1024.81
1039.34
1061.06
1090.03
1126.04
1167.86
1214.19
1263.52
1314.21
1365.86
1414.59
1456.71
1488.06
1504.32
1504.32
1487.97
1456.69
1414.61
1365.82
1314.08
1263.39
1214.22
1167.84
1125.97
1090.14
1061.11
1039.33
1024.81
1017.53
0.380487
0.428401
0.550139
0.74314
0.995554
1.36927
1.89048
2.46854
2.9945
3.39827
3.45098
3.60519
3.954
4.27966
4.10415
4.10504
4.28489
3.94992
3.59556
3.43985
3.40321
3.00665
2.47213
1.89539
1.38192
0.991941
0.738342
0.552236
0.424758
0.386919
-0.0336155
-0.0289819
-0.0189131
0.00141165
0.0359593
0.0947163
0.202677
0.396429
0.705329
0.949768
0.858473
1.01999
1.35213
1.61568
1.51279
1.51406
1.61894
1.3526
1.01835
0.85235
0.954598
0.712825
0.40043
0.204489
0.0967169
0.0358936
0.00109023
-0.0185647
-0.0290694
-0.0328337
-0.0578864
-0.0583457
-0.0589903
-0.0594592
-0.0592736
-0.05696
-0.0499437
-0.0320817
0.00579106
0.0718749
0.187068
0.276078
0.257805
0.234125
0.225375
0.225879
0.235156
0.258634
0.277005
0.189424
0.0742278
0.0076018
-0.031265
-0.049748
-0.0568475
-0.0593339
-0.0594935
-0.0589297
-0.058281
-0.0577823
-0.0571946
-0.0577623
-0.058806
-0.060222
-0.061802
-0.0632725
-0.0642348
-0.0643304
-0.0633846
-0.060435
-0.0489255
-0.0320887
-0.0188792
0.00692332
0.0377907
0.0376832
0.00720481
-0.0183693
-0.0313144
-0.0479186
-0.0599889
-0.0632874
-0.0643231
-0.0642811
-0.0633566
-0.0618795
-0.0602288
-0.0587643
-0.0577117
-0.0571106
-0.0541065
-0.0544924
-0.0551935
-0.0560956
-0.0571182
-0.0581587
-0.0590776
-0.0597491
-0.0600845
-0.0599999
-0.0593415
-0.0583575
-0.0573699
-0.0540088
-0.0474611
-0.0475028
-0.0539494
-0.0573158
-0.0582748
-0.059239
-0.0599518
-0.0600552
-0.0597618
-0.0591443
-0.0582544
-0.0571954
-0.0561095
-0.0551473
-0.0544431
-0.0540477
-0.0501434
-0.0504033
-0.050766
-0.0512385
-0.0517764
-0.0522925
-0.0527258
-0.0530377
-0.0531939
-0.053128
-0.0527769
-0.052138
-0.0513358
-0.0503488
-0.0492011
-0.0491873
-0.0503072
-0.0512753
-0.052073
-0.0527134
-0.0530802
-0.0531821
-0.0530698
-0.0527951
-0.0523749
-0.0518439
-0.0512756
-0.0507552
-0.0503611
-0.0501428
-0.04586
-0.0459137
-0.0460658
-0.0462293
-0.0463641
-0.0464551
-0.0464799
-0.0463959
-0.0461951
-0.0458919
-0.0454722
-0.0449408
-0.0443144
-0.0435971
-0.0428477
-0.0428381
-0.0435668
-0.0442717
-0.044895
-0.0454151
-0.0458318
-0.0461587
-0.0463991
-0.0465308
-0.0465409
-0.0464403
-0.0462639
-0.0460637
-0.0458955
-0.0458081
-0.04135
-0.0413162
-0.0413053
-0.0412113
-0.0410297
-0.0407878
-0.0404743
-0.0400535
-0.0395302
-0.0389296
-0.0382852
-0.0376397
-0.0370367
-0.0365286
-0.0361127
-0.0361034
-0.0365003
-0.0369927
-0.0375837
-0.0382214
-0.038872
-0.0395003
-0.040067
-0.0405348
-0.0408845
-0.0411145
-0.0412398
-0.0412924
-0.041309
-0.0413232
-0.0367951
-0.0367903
-0.0366105
-0.036324
-0.0359499
-0.0354922
-0.0349352
-0.034262
-0.0334999
-0.0326869
-0.0318663
-0.0310869
-0.0303952
-0.0298465
-0.0294937
-0.0294571
-0.0297425
-0.0302469
-0.0309206
-0.0317083
-0.0325574
-0.0334148
-0.034228
-0.0349535
-0.0355641
-0.036046
-0.0363998
-0.0366419
-0.0367927
-0.0368725
-0.032585
-0.0324511
-0.0321496
-0.0317424
-0.0312324
-0.0306049
-0.0298549
-0.0289883
-0.0280478
-0.0270843
-0.0261446
-0.0252795
-0.0245404
-0.0239833
-0.0236644
-0.0236479
-0.0239407
-0.0244907
-0.0252408
-0.0261301
-0.0270983
-0.0280869
-0.0290418
-0.0299195
-0.0306892
-0.0313304
-0.0318344
-0.0322053
-0.0324504
-0.0325769
-0.028511
-0.0282996
-0.02797
-0.027511
-0.0269162
-0.0261852
-0.0253275
-0.0243646
-0.0233387
-0.0223004
-0.0212996
-0.020391
-0.0196304
-0.0190746
-0.0187743
-0.0187686
-0.0190595
-0.0196116
-0.0203721
-0.0212829
-0.0222867
-0.0233286
-0.0243568
-0.0253268
-0.0262035
-0.0269601
-0.0275781
-0.0280484
-0.0283663
-0.0285283
-0.0246491
-0.0244804
-0.0241351
-0.0236308
-0.0229802
-0.0221956
-0.0212992
-0.020316
-0.0192776
-0.0182261
-0.0172123
-0.016293
-0.0155268
-0.0149695
-0.0146675
-0.0146498
-0.0149175
-0.0154438
-0.0161839
-0.0170853
-0.0180953
-0.0191618
-0.0202333
-0.0212621
-0.0222078
-0.0230374
-0.0237241
-0.0242498
-0.0246036
-0.0247789
-0.0212135
-0.0210584
-0.0206788
-0.0201383
-0.0194543
-0.0186437
-0.0177355
-0.0167542
-0.0157273
-0.0146931
-0.0137004
-0.0128055
-0.012066
-0.011534
-0.0112505
-0.0112396
-0.0115019
-0.0120158
-0.0127412
-0.0136286
-0.0146264
-0.0156842
-0.0167526
-0.0177843
-0.0187374
-0.0195765
-0.0202726
-0.0208048
-0.021161
-0.0213341
-0.0181386
-0.017945
-0.0175785
-0.0170649
-0.0164041
-0.0156138
-0.0147216
-0.0137579
-0.0127568
-0.0117582
-0.0108096
-0.00996401
-0.00927425
-0.00878613
-0.00853374
-0.00853576
-0.00879189
-0.00928277
-0.00997254
-0.0108151
-0.0117618
-0.0127653
-0.0137805
-0.0147644
-0.0156771
-0.0164842
-0.0171572
-0.0176749
-0.0180243
-0.0181966
-0.0152839
-0.0150849
-0.0147847
-0.0143433
-0.0137513
-0.0130214
-0.0121804
-0.0112653
-0.0103163
-0.00937663
-0.00849308
-0.00771371
-0.00708367
-0.00664106
-0.00641326
-0.00641425
-0.00664313
-0.00708396
-0.00770711
-0.00847325
-0.009339
-0.0102615
-0.0111997
-0.0121146
-0.0129694
-0.0137314
-0.0143727
-0.0148718
-0.0152134
-0.0153867
-0.0127117
-0.0125574
-0.0123115
-0.0119229
-0.0113889
-0.0107218
-0.00994937
-0.00910786
-0.0082376
-0.00738179
-0.00658387
-0.00588511
-0.00532276
-0.00492776
-0.00472199
-0.00471648
-0.00491117
-0.00529448
-0.00584372
-0.00652712
-0.00730748
-0.00814595
-0.00900451
-0.0098468
-0.0106386
-0.011349
-0.011951
-0.0124225
-0.0127472
-0.0129133
-0.0105449
-0.0104344
-0.0101954
-0.00981616
-0.00930678
-0.00868627
-0.00798074
-0.00722134
-0.006444
-0.00568674
-0.00498631
-0.00437682
-0.00388867
-0.00354673
-0.0033686
-0.00336361
-0.00353269
-0.00386784
-0.00435186
-0.0049593
-0.00565859
-0.0064149
-0.00719292
-0.00795858
-0.00868002
-0.00932825
-0.00987789
-0.0103078
-0.0106021
-0.0107503
-0.00876442
-0.0086644
-0.00840912
-0.0080247
-0.00753236
-0.00695475
-0.00631519
-0.00564005
-0.00495884
-0.00430191
-0.00369884
-0.00317753
-0.00276265
-0.00247414
-0.00232621
-0.00232677
-0.00247704
-0.00277099
-0.00319507
-0.00372867
-0.00434535
-0.00501483
-0.0057054
-0.00638593
-0.00702724
-0.00760286
-0.00808973
-0.00846883
-0.00872605
-0.00885291
-0.00724337
-0.00713086
-0.00687344
-0.00650592
-0.0060515
-0.00553111
-0.00496565
-0.00437744
-0.00378991
-0.00322703
-0.00271297
-0.00227069
-0.00192029
-0.00167803
-0.00155557
-0.00155937
-0.00169019
-0.00194283
-0.00230615
-0.00276335
-0.0032927
-0.00386886
-0.00446468
-0.00505296
-0.00560796
-0.00610632
-0.00652781
-0.0068559
-0.0070784
-0.00718836
-0.00588398
-0.0057626
-0.00553012
-0.00520894
-0.0048164
-0.00436955
-0.00388623
-0.00338497
-0.002885
-0.00240651
-0.00196988
-0.00159432
-0.00129675
-0.0010909
-0.000986562
-0.000988858
-0.00109791
-0.00130895
-0.00161249
-0.00199464
-0.0024377
-0.00292099
-0.00342219
-0.00391867
-0.0043887
-0.00481247
-0.00517269
-0.00545517
-0.00564928
-0.0057486
-0.00467436
-0.00456047
-0.00436949
-0.00410782
-0.00378576
-0.003416
-0.00301284
-0.0025918
-0.00216967
-0.00176415
-0.00139283
-0.00107235
-0.000817467
-0.000640184
-0.000548835
-0.000547526
-0.000635994
-0.000809798
-0.00106062
-0.00137673
-0.0017435
-0.00214415
-0.00256068
-0.00297475
-0.00336866
-0.00372604
-0.00403243
-0.00427572
-0.00444646
-0.00453825
-0.00364884
-0.00355428
-0.0034052
-0.00319772
-0.00293778
-0.00263456
-0.00229948
-0.00194597
-0.00158896
-0.00124402
-0.000926661
-0.000651634
-0.000432045
-0.000278409
-0.000197919
-0.00019401
-0.000266319
-0.000410762
-0.000619961
-0.000883746
-0.00118975
-0.00152408
-0.00187204
-0.00221874
-0.0025498
-0.00285177
-0.00311263
-0.00332209
-0.00347178
-0.00355543
-0.00282907
-0.00275688
-0.00263983
-0.00247208
-0.00225793
-0.00200457
-0.00172171
-0.00142113
-0.00111592
-0.000819851
-0.000546684
-0.000309476
-0.000119719
1.34198e-05
8.36648e-05
8.80623e-05
2.6882e-05
-9.62029e-05
-0.000274665
-0.000499579
-0.000760228
-0.00104475
-0.00134071
-0.00163565
-0.00191753
-0.0021751
-0.00239826
-0.00257825
-0.0027078
-0.0027812
-0.00220181
-0.00214841
-0.0020518
-0.0019098
-0.00172646
-0.00150826
-0.00126389
-0.00100374
-0.000739323
-0.000482765
-0.00024614
-4.07781e-05
0.000123394
0.000238447
0.000298925
0.000302192
0.0002485
0.000140987
-1.46363e-05
-0.000210541
-0.000437319
-0.00068456
-0.000941384
-0.00119691
-0.00144068
-0.00166296
-0.00185504
-0.00200944
-0.00211995
-0.00218174
-0.00172826
-0.00168743
-0.00160346
-0.00147838
-0.00131654
-0.00112427
-0.000909533
-0.000681594
-0.000450588
-0.00022707
-2.14384e-05
0.000156604
0.000298558
0.000397627
0.000449128
0.000450768
0.000402733
0.00030766
0.000170445
-2.10759e-06
-0.000201729
-0.000419184
-0.000644763
-0.000868733
-0.00108174
-0.00127515
-0.00144129
-0.00157364
-0.00166694
-0.00171733
-0.00136364
-0.00133028
-0.0012554
-0.00114346
-0.000999181
-0.000828709
-0.00063934
-0.000439295
-0.000237436
-4.28484e-05
0.00013558
0.000289571
0.000411904
0.000496836
0.00054042
0.000540701
0.000497797
0.000413882
0.000293099
0.000141305
-3.42879e-05
-0.000225529
-0.000423773
-0.000620301
-0.000806714
-0.000975258
-0.00111908
-0.00123244
-0.00131084
-0.00135125
-0.00107126
-0.00104258
-0.000975729
-0.000876231
-0.000748771
-0.000598989
-0.000433394
-0.000259222
-8.41442e-05
8.4056e-05
0.000237794
0.000370051
0.000474776
0.000547188
0.000583983
0.000583474
0.000545719
0.000472534
0.0003674
0.000235311
8.24693e-05
-8.40549e-05
-0.000256694
-0.000427757
-0.000589784
-0.00073586
-0.000859872
-0.000956731
-0.00102257
-0.00105499
-0.000826973
-0.000801782
-0.00074308
-0.000656426
-0.000545952
-0.000416555
-0.000273952
-0.000124422
2.54665e-05
0.000169092
0.000300043
0.000412456
0.000501316
0.000562647
0.000593649
0.000592886
0.000560376
0.00049764
0.000407604
0.000294468
0.000163472
2.06248e-05
-0.000127593
-0.000274535
-0.000413701
-0.000539018
-0.000645101
-0.000727481
-0.000782807
-0.000809112
-0.00061801
-0.000595825
-0.000545533
-0.000471727
-0.000377837
-0.000268088
-0.0001474
-2.10968e-05
0.000105297
0.000226221
0.000336337
0.000430804
0.000505469
0.000557006
0.000582924
0.000582252
0.000554939
0.000502113
0.000426254
0.000330892
0.000220381
9.97328e-05
-2.56053e-05
-0.000150004
-0.00026791
-0.000374102
-0.000463927
-0.000533516
-0.00057998
-0.000601653
-0.000438548
-0.00041917
-0.000376908
-0.000315114
-0.000236675
-0.000145185
-4.47098e-05
6.03702e-05
0.000165472
0.000265984
0.000357515
0.000436079
0.000498207
0.000540424
0.000561861
0.000561349
0.000538953
0.000495769
0.000432711
0.000353419
0.000261463
0.000160959
5.64135e-05
-4.74822e-05
-0.000146076
-0.00023497
-0.000310228
-0.000368561
-0.0004075
-0.000425599
-0.000285253
-0.000268558
-0.000233452
-0.00018244
-0.000117922
-4.27615e-05
3.98046e-05
0.0001262
0.000212639
0.000295328
0.000370671
0.000435392
0.000485823
0.000521051
0.000538892
0.000538516
0.000519967
0.000484066
0.0004331
0.000367895
0.000292214
0.000209401
0.00012315
3.73207e-05
-4.42482e-05
-0.000117915
-0.000180406
-0.000228969
-0.000261516
-0.000276775
-0.000155946
-0.000141756
-0.000112928
-7.1364e-05
-1.88865e-05
4.2319e-05
0.000109644
0.000180138
0.000250687
0.000318191
0.000379683
0.00043187
0.000473597
0.000502451
0.00051705
0.000516784
0.000501686
0.000472359
0.000430231
0.000377667
0.000315856
0.000248106
0.000177458
0.000107068
4.00734e-05
-2.05454e-05
-7.20986e-05
-0.000112311
-0.000139434
-0.000152352
-4.93225e-05
-3.7455e-05
-1.40363e-05
1.96367e-05
6.22197e-05
0.000111948
0.00016666
0.000223931
0.000281239
0.00033609
0.0003856
0.00042844
0.000462328
0.00048574
0.000497589
0.000497386
0.0004851
0.000461255
0.000426945
0.000383723
0.00033381
0.000278548
0.000220892
0.000163408
0.00010863
5.89775e-05
1.66417e-05
-1.65134e-05
-3.90385e-05
-4.99605e-05
3.60651e-05
4.60186e-05
6.50307e-05
9.24323e-05
0.000127088
0.000167484
0.00021185
0.000258235
0.000304619
0.000348765
0.000389235
0.000423949
0.000451393
0.000470318
0.00047988
0.000479664
0.000469623
0.000450207
0.000422255
0.000387015
0.000346005
0.000301434
0.000254476
0.000207652
0.000162985
0.000122428
8.77621e-05
6.05076e-05
4.18589e-05
3.26542e-05
0.000102974
0.000111193
0.000126794
0.000149212
0.000177427
0.000210193
0.000246113
0.000283596
0.000321006
0.00035692
0.000389667
0.000417753
0.000439927
0.00045521
0.000462871
0.000462602
0.000454367
0.000438499
0.000415731
0.000387039
0.00035366
0.000317049
0.000279095
0.000241044
0.000204669
0.000171563
0.000143198
0.000120818
0.000105403
9.76747e-05
0.000153927
0.00016068
0.000173498
0.000191767
0.000214662
0.000241225
0.000270262
0.000300647
0.000331072
0.000360182
0.000386675
0.00040938
0.000427264
0.000439528
0.000445639
0.000445303
0.000438495
0.000425539
0.000406973
0.000383594
0.000356432
0.000326651
0.000295592
0.000264598
0.00023502
0.000207938
0.00018471
0.000166331
0.000153603
0.000147183
0.000190373
0.0001963
0.000206698
0.000221485
0.000240048
0.000261627
0.00028535
0.000310114
0.000334835
0.000358421
0.000379852
0.000398163
0.000412546
0.000422369
0.0004272
0.000426827
0.000421198
0.00041058
0.000395411
0.000376335
0.000354174
0.000329901
0.000304544
0.00027919
0.00025488
0.000232843
0.000213863
0.000198795
0.000188287
0.000182537
0.000214616
0.000219263
0.000227848
0.000239933
0.000255138
0.000272808
0.000292155
0.000312279
0.000332314
0.000351375
0.00036865
0.000383382
0.000394933
0.000402809
0.00040664
0.000406249
0.000401603
0.000392901
0.000380509
0.000364945
0.00034687
0.000327064
0.000306369
0.000285667
0.000265823
0.000247724
0.00023209
0.000219578
0.000210733
0.000206202
0.000228086
0.000232015
0.000239029
0.00024898
0.000261447
0.000275823
0.000291461
0.000307703
0.000323835
0.000339148
0.000353029
0.000364867
0.000374155
0.000380482
0.000383542
0.000383152
0.000379337
0.000372227
0.000362122
0.000349449
0.000334733
0.000318601
0.000301738
0.000284853
0.000268672
0.000253871
0.000241063
0.000230801
0.000223538
0.000219686
0.000232467
0.000235842
0.0002417
0.000249874
0.000259966
0.000271528
0.000284049
0.000297031
0.000309942
0.000322241
0.000333386
0.00034291
0.000350392
0.000355479
0.000357915
0.000357555
0.000354423
0.000348625
0.000340399
0.00033009
0.000318138
0.000305032
0.000291325
0.000277589
0.000264401
0.00025231
0.000241834
0.000233409
0.000227407
0.000224154
0.000228925
0.000231837
0.000236665
0.000243255
0.000251307
0.000260508
0.000270512
0.000280921
0.000291283
0.000301182
0.000310161
0.000317832
0.000323838
0.000327892
0.000329799
0.000329443
0.000326856
0.000322118
0.000315426
0.000307056
0.000297356
0.000286732
0.000275616
0.000264465
0.00025374
0.000243889
0.000235328
0.000228415
0.00022345
0.000220706
0.000218216
0.00022064
0.000224482
0.000229662
0.000236049
0.000243422
0.000251496
0.000259922
0.000268319
0.000276313
0.000283539
0.000289672
0.00029444
0.000297615
0.000299054
0.000298693
0.000296525
0.000292642
0.0002872
0.000280419
0.000272576
0.000263991
0.000255008
0.000245995
0.000237318
0.000229338
0.000222385
0.000216754
0.000212683
0.000210394
0.000201066
0.000203157
0.000206088
0.000210164
0.00021528
0.000221252
0.000227816
0.000234655
0.000241446
0.000247873
0.000253651
0.000258501
0.000262212
0.000264633
0.000265668
0.000265292
0.000263469
0.000260288
0.00025588
0.000250417
0.000244116
0.000237226
0.000230025
0.000222801
0.000215851
0.000209459
0.000203887
0.000199362
0.000196068
0.000194183
0.000178711
0.000180571
0.000182837
0.000186079
0.000190195
0.000195001
0.000200265
0.000205712
0.000211087
0.000216135
0.000220637
0.000224396
0.000227254
0.000229092
0.000229836
0.000229474
0.000227969
0.000225402
0.000221873
0.00021752
0.000212511
0.000207043
0.000201334
0.00019562
0.000190132
0.000185093
0.0001807
0.000177122
0.000174492
0.000172957
0.000152428
0.000154011
0.000155801
0.000158369
0.000161588
0.000165302
0.000169324
0.000173475
0.000177571
0.000181424
0.000184866
0.000187749
0.000189944
0.000191347
0.00019191
0.00019159
0.000190397
0.000188383
0.000185623
0.000182216
0.000178298
0.000174027
0.000169577
0.000165136
0.000160883
0.000156987
0.000153592
0.000150816
0.000148755
0.000147526
0.000123011
0.000124134
0.000125552
0.000127458
0.000129797
0.000132446
0.000135309
0.000138294
0.000141275
0.000144114
0.000146682
0.000148859
0.000150539
0.000151632
0.00015209
0.000151875
0.000150999
0.00014949
0.000147405
0.000144821
0.000141847
0.000138614
0.000135258
0.000131907
0.00012871
0.000125789
0.000123254
0.00012117
0.00011961
0.000118656
9.07232e-05
9.15981e-05
9.25122e-05
9.37341e-05
9.52215e-05
9.69074e-05
9.87518e-05
0.000100725
0.000102745
0.000104719
0.000106537
0.000108112
0.000109345
0.000110189
0.00011058
0.000110488
0.00010991
0.000108868
0.000107398
0.000105567
0.000103462
0.000101178
9.88139e-05
9.64671e-05
9.42325e-05
9.21917e-05
9.04159e-05
8.89628e-05
8.78753e-05
8.71499e-05
5.64135e-05
5.68625e-05
5.73265e-05
5.79311e-05
5.8672e-05
5.95362e-05
6.05247e-05
6.16199e-05
6.27852e-05
6.39578e-05
6.50658e-05
6.6049e-05
6.68473e-05
6.74147e-05
6.77127e-05
6.77124e-05
6.7405e-05
6.68002e-05
6.59305e-05
6.48389e-05
6.35805e-05
6.2214e-05
6.08031e-05
5.94077e-05
5.80826e-05
5.68758e-05
5.58258e-05
5.49686e-05
5.43327e-05
5.38413e-05
1.9707e-05
1.97889e-05
1.99239e-05
2.00827e-05
2.02781e-05
2.05049e-05
2.0777e-05
2.1096e-05
2.14516e-05
2.18226e-05
2.21853e-05
2.252e-05
2.28052e-05
2.30213e-05
2.31526e-05
2.31844e-05
2.31091e-05
2.29326e-05
2.2661e-05
2.2311e-05
2.19014e-05
2.14533e-05
2.09902e-05
2.05283e-05
2.0091e-05
1.96915e-05
1.93434e-05
1.90594e-05
1.88434e-05
1.86581e-05
4895.77