/*--------------------------------*- C++ -*----------------------------------*\
| =========                 |                                                 |
| \\      /  F ield         | OpenFOAM: The Open Source CFD Toolbox           |
|  \\    /   O peration     | Version:  2312                                  |
|   \\  /    A nd           | Website:  www.openfoam.com                      |
|    \\/     M anipulation  |                                                 |
\*---------------------------------------------------------------------------*/
FoamFile
{
    version     2.0;
    format      ascii;
    arch        "LSB;label=32;scalar=64";
    class       surfaceScalarField;
    location    "0.248571";
    object      phi;
}
// * * * * * * * * * * * * * * * * * * * * * * * * * * * * * * * * * * * * * //

dimensions      [0 3 -1 0 0 0 0];

oriented        oriented;

internalField   nonuniform List<scalar> 
263100
(
7.64918e-11
-1.52984e-10
7.64918e-11
4.88556e-12
1.45923e-11
3.31711e-11
-1.83179e-11
-2.89159e-11
3.2307e-11
-2.21173e-11
-3.93074e-11
2.34398e-11
-1.9279e-11
-4.55447e-11
2.35589e-11
-4.62273e-12
-5.52234e-11
2.21671e-11
1.78791e-11
-6.31274e-11
2.3711e-11
4.05904e-11
-6.41188e-11
2.63624e-11
5.65935e-11
-5.77918e-11
2.86758e-11
6.16934e-11
-4.44075e-11
2.8161e-11
5.09746e-11
-2.3062e-11
2.4461e-11
3.28411e-11
-6.34793e-12
1.66515e-11
1.4602e-11
6.42692e-12
5.28265e-12
6.88996e-12
7.41869e-12
-5.19056e-12
1.68125e-11
-1.76761e-12
-1.28821e-11
3.98576e-11
-1.51218e-11
-1.20555e-11
6.58456e-11
-3.3991e-11
4.38255e-12
8.47447e-11
-4.59087e-11
2.37398e-11
8.13679e-11
-4.72424e-11
4.73886e-11
4.44755e-11
-3.4912e-11
6.81643e-11
-2.5453e-11
-1.3404e-11
7.87255e-11
-1.18706e-10
7.74488e-12
7.93075e-11
-2.26276e-10
2.63573e-11
7.27922e-11
-3.24837e-10
2.88739e-11
5.85225e-11
-3.78314e-10
-3.38769e-12
4.26311e-11
-3.7341e-10
-5.29482e-11
3.07077e-11
-3.02816e-10
-1.16516e-10
2.57857e-11
-1.7997e-10
-1.8413e-10
3.89286e-11
-2.84548e-11
-2.62751e-10
8.73615e-11
-2.53694e-10
2.00532e-10
-9.78519e-12
-1.5754e-10
-9.78519e-12
2.23078e-11
-5.89782e-11
2.58853e-12
4.95997e-11
-9.87129e-11
7.10748e-12
6.98768e-11
-1.08792e-10
1.44964e-11
8.98783e-11
-1.20605e-10
2.20457e-11
1.05754e-10
-1.29179e-10
2.75955e-11
1.18618e-10
-1.37737e-10
3.4432e-11
1.2849e-10
-1.37281e-10
3.95315e-11
1.32507e-10
-1.23411e-10
4.13069e-11
1.29894e-10
-1.01949e-10
4.29951e-11
1.24107e-10
-7.69432e-11
4.53574e-11
1.11533e-10
-5.28054e-11
4.71746e-11
9.56594e-11
-3.94188e-11
5.18784e-11
7.53629e-11
-3.90746e-11
5.85331e-11
5.09821e-11
-5.01715e-11
6.5778e-11
2.41701e-11
-6.51937e-11
7.08453e-11
-6.7464e-12
-7.61648e-11
6.76443e-11
-4.00223e-11
-7.66338e-11
5.85631e-11
-7.54443e-11
-6.34217e-11
4.53598e-11
-1.09411e-10
-3.9744e-11
3.07714e-11
-1.37371e-10
-1.48504e-11
1.85312e-11
-1.53895e-10
-6.73017e-12
1.6257e-11
-1.57151e-10
-1.28851e-11
2.30491e-11
-1.41813e-10
-4.42088e-11
3.3056e-11
-1.15427e-10
-1.14303e-10
5.45099e-11
-6.46684e-11
-2.16361e-10
7.77126e-11
3.69557e-12
-3.20269e-10
9.63803e-11
4.92556e-11
-3.70262e-10
9.8617e-11
1.48204e-11
-3.85314e-10
1.13259e-10
-3.68541e-10
9.33015e-11
1.17702e-11
-2.00663e-10
1.17702e-11
8.80041e-11
-1.95452e-10
2.67507e-11
1.41839e-10
-2.15222e-10
3.23457e-11
1.79257e-10
-2.15172e-10
3.97432e-11
2.01352e-10
-2.14522e-10
4.45394e-11
2.12728e-10
-2.13852e-10
4.87085e-11
2.13135e-10
-2.09649e-10
4.98463e-11
2.07853e-10
-1.99707e-10
4.89764e-11
2.01615e-10
-1.81914e-10
4.88337e-11
1.93729e-10
-1.55029e-10
4.77609e-11
1.86516e-10
-1.30402e-10
5.0003e-11
1.73803e-10
-1.0512e-10
5.65632e-11
1.49744e-10
-8.80584e-11
6.61242e-11
1.09199e-10
-7.71009e-11
7.35756e-11
4.93444e-11
-7.01513e-11
7.605e-11
-2.57701e-11
-6.52018e-11
7.21134e-11
-1.05193e-10
-6.03864e-11
6.08882e-11
-1.75799e-10
-5.30527e-11
4.3882e-11
-2.24821e-10
-4.18564e-11
2.31803e-11
-2.36002e-10
-3.70658e-11
2.30423e-12
-2.08412e-10
-4.2708e-11
-8.59753e-12
-1.50167e-10
-6.43868e-11
-1.27697e-11
-6.98166e-11
-1.03327e-10
-5.93456e-12
1.69659e-11
-1.63862e-10
1.2633e-11
8.67657e-11
-2.42144e-10
3.34746e-11
1.17814e-10
-3.33365e-10
5.73179e-11
1.06123e-10
-4.13157e-10
7.25186e-11
9.35769e-11
-4.56371e-10
6.41384e-11
8.48771e-12
-3.80325e-10
4.42591e-11
-3.57284e-10
-3.19526e-11
4.59628e-11
-3.10925e-10
4.59628e-11
1.46382e-10
-3.85326e-10
6.00393e-11
2.10868e-10
-3.71935e-10
6.6049e-11
2.5662e-10
-3.57451e-10
7.21974e-11
2.81188e-10
-3.35826e-10
7.46623e-11
2.86534e-10
-3.11318e-10
7.27907e-11
2.78002e-10
-2.85696e-10
6.7729e-11
2.60607e-10
-2.57559e-10
6.07553e-11
2.41662e-10
-2.27978e-10
5.28197e-11
2.25063e-10
-1.97403e-10
4.89785e-11
2.03937e-10
-1.65066e-10
4.79252e-11
1.79739e-10
-1.37641e-10
5.08698e-11
1.41647e-10
-1.07847e-10
5.3878e-11
8.47917e-11
-7.85663e-11
5.58714e-11
9.58998e-12
-4.85439e-11
5.22133e-11
-7.76188e-11
-2.38025e-11
4.48668e-11
-1.6479e-10
-6.54657e-12
3.21636e-11
-2.37106e-10
-3.16022e-12
2.03808e-11
-2.77708e-10
-1.68034e-11
1.20291e-11
-2.73504e-10
-4.97583e-11
2.99588e-12
-2.2591e-10
-9.33546e-11
-4.77899e-12
-1.42986e-10
-1.51094e-10
-6.67854e-12
-4.26626e-11
-2.15406e-10
-1.62689e-12
4.82808e-11
-2.78655e-10
7.25412e-12
1.07173e-10
-3.33861e-10
1.28598e-11
1.15218e-10
-3.77794e-10
1.32053e-11
7.48236e-11
-4.03782e-10
5.15099e-12
1.86112e-11
-4.18585e-10
-9.2791e-12
-4.47763e-11
-3.2191e-10
-2.34987e-11
-3.35934e-10
-8.81756e-11
8.57686e-11
-4.98527e-10
8.57686e-11
1.88321e-10
-6.12391e-10
1.0207e-10
2.58475e-10
-5.68299e-10
1.06794e-10
3.0755e-10
-5.29083e-10
1.05482e-10
3.3439e-10
-4.77469e-10
9.98202e-11
3.40189e-10
-4.21006e-10
9.11918e-11
3.27589e-10
-3.64088e-10
7.99959e-11
3.01495e-10
-3.07737e-10
6.66537e-11
2.69158e-10
-2.60099e-10
5.62028e-11
2.32343e-10
-2.16983e-10
4.94657e-11
1.93446e-10
-1.77417e-10
4.57932e-11
1.48333e-10
-1.3683e-10
4.04307e-11
9.68206e-11
-9.57587e-11
3.70645e-11
3.35596e-11
-5.17589e-11
3.5338e-11
-3.75825e-11
-9.08639e-12
3.13068e-11
-1.11844e-10
2.18852e-11
2.82815e-11
-1.77428e-10
2.811e-11
3.01154e-11
-2.28984e-10
1.40146e-11
3.25905e-11
-2.52859e-10
-2.89921e-11
3.3e-11
-2.48466e-10
-9.38215e-11
3.51912e-11
-2.12442e-10
-1.71512e-10
3.61909e-11
-1.54702e-10
-2.52613e-10
3.62901e-11
-9.26724e-11
-3.21572e-10
3.48933e-11
-4.25985e-11
-3.70822e-10
3.08318e-11
-1.31548e-11
-3.94749e-10
1.80487e-11
-1.80269e-11
-3.83753e-10
-4.52484e-12
-5.21436e-11
-3.53843e-10
-3.26729e-11
-9.6825e-11
-3.39132e-10
-5.24913e-11
-9.5422e-11
-2.72027e-10
-6.92442e-11
-3.61961e-10
-8.25708e-11
1.22256e-10
-7.54926e-10
1.22256e-10
2.10327e-10
-8.4079e-10
1.27149e-10
2.84131e-10
-7.77193e-10
1.24342e-10
3.40597e-10
-7.09971e-10
1.15896e-10
3.77167e-10
-6.25754e-10
1.04651e-10
3.90796e-10
-5.31929e-10
9.1429e-11
3.83785e-10
-4.39857e-10
7.74122e-11
3.56971e-10
-3.53911e-10
6.77776e-11
3.13245e-10
-2.81853e-10
6.05466e-11
2.54841e-10
-2.19308e-10
5.6203e-11
1.89059e-10
-1.64658e-10
4.92671e-11
1.20235e-10
-1.15324e-10
4.45956e-11
5.09389e-11
-7.01415e-11
4.1963e-11
-1.22276e-11
-2.85296e-11
3.90143e-11
-6.7228e-11
4.67673e-12
4.07018e-11
-1.13688e-10
2.03476e-11
4.73412e-11
-1.5247e-10
1.30661e-11
5.26605e-11
-1.81796e-10
-2.18544e-11
6.33407e-11
-2.01399e-10
-8.97089e-11
7.77651e-11
-2.10083e-10
-1.78537e-10
9.02133e-11
-2.11864e-10
-2.73106e-10
9.96182e-11
-2.10039e-10
-3.62919e-10
1.04123e-10
-2.09643e-10
-4.25959e-10
9.89362e-11
-2.09132e-10
-4.53732e-10
7.65966e-11
-2.14745e-10
-4.4608e-10
5.04939e-11
-2.1694e-10
-4.11769e-10
2.3311e-11
-2.04433e-10
-3.72195e-10
-1.35006e-12
-1.84424e-10
-3.46188e-10
-2.04002e-11
-1.21874e-10
-3.21034e-10
-2.13245e-11
-4.72683e-10
-1.68438e-11
1.2708e-10
-1.01547e-09
1.2708e-10
2.13612e-10
-1.05346e-09
1.2237e-10
2.99124e-10
-9.76265e-10
1.11296e-10
3.72536e-10
-8.83242e-10
9.8984e-11
4.2958e-10
-7.69049e-10
8.58503e-11
4.66415e-10
-6.45198e-10
7.59619e-11
4.75516e-10
-5.21959e-10
7.19621e-11
4.54037e-10
-4.06128e-10
7.19796e-11
4.01706e-10
-3.05617e-10
7.39494e-11
3.23394e-10
-2.1966e-10
7.63554e-11
2.29063e-10
-1.47871e-10
7.54732e-11
1.32525e-10
-9.16688e-11
7.1276e-11
4.51694e-11
-5.18672e-11
6.78565e-11
-2.47139e-11
-2.70724e-11
6.74305e-11
-7.27363e-11
-2.18994e-11
7.36219e-11
-1.06068e-10
-3.21862e-11
8.46641e-11
-1.31205e-10
-6.35871e-11
1.00246e-10
-1.55207e-10
-1.19833e-10
1.2013e-10
-1.86463e-10
-2.00944e-10
1.40414e-10
-2.24065e-10
-2.99155e-10
1.55962e-10
-2.68428e-10
-3.97924e-10
1.66744e-10
-3.15542e-10
-4.81657e-10
1.63289e-10
-3.60037e-10
-5.31956e-10
1.47998e-10
-3.94433e-10
-5.48337e-10
1.26935e-10
-4.10624e-10
-5.33459e-10
1.02257e-10
-3.96365e-10
-5.02964e-10
7.63714e-11
-3.44793e-10
-4.79956e-10
5.59471e-11
-2.5638e-10
-4.83504e-10
4.83621e-11
-1.27257e-10
-4.99488e-10
4.79523e-11
-6.5763e-10
5.62853e-11
9.93296e-11
-1.21503e-09
9.93296e-11
2.13786e-10
-1.2551e-09
9.01358e-11
3.23327e-10
-1.16251e-09
8.00861e-11
4.26259e-10
-1.05479e-09
7.22018e-11
5.14931e-10
-9.23868e-10
6.93709e-11
5.80121e-10
-7.80046e-10
7.2034e-11
6.10265e-10
-6.32155e-10
8.15286e-11
5.99546e-10
-4.86724e-10
9.2097e-11
5.44053e-10
-3.53093e-10
1.03304e-10
4.50755e-10
-2.39302e-10
1.13089e-10
3.35404e-10
-1.53205e-10
1.2079e-10
2.14738e-10
-9.52531e-11
1.24275e-10
1.04138e-10
-6.74603e-11
1.25868e-10
1.4877e-11
-6.60343e-11
1.2741e-10
-5.46836e-11
-8.8562e-11
1.34922e-10
-1.08312e-10
-1.2701e-10
1.46701e-10
-1.58713e-10
-1.78045e-10
1.62751e-10
-2.09683e-10
-2.51353e-10
1.80131e-10
-2.68365e-10
-3.36867e-10
1.92028e-10
-3.31687e-10
-4.33679e-10
1.95035e-10
-3.97268e-10
-5.25886e-10
1.90607e-10
-4.62247e-10
-6.01457e-10
1.82095e-10
-5.16602e-10
-6.5106e-10
1.71663e-10
-5.50808e-10
-6.74753e-10
1.60322e-10
-5.53628e-10
-6.77424e-10
1.48126e-10
-5.14707e-10
-6.76174e-10
1.36742e-10
-4.295e-10
-6.88183e-10
1.25691e-10
-3.04384e-10
-7.23985e-10
1.17513e-10
-1.39256e-10
-7.7837e-10
1.15145e-10
-9.22399e-10
1.26561e-10
7.15694e-11
-1.35547e-09
7.15694e-11
2.29996e-10
-1.47821e-09
6.95541e-11
3.74419e-10
-1.37073e-09
6.83133e-11
5.11858e-10
-1.25784e-09
6.95315e-11
6.32639e-10
-1.11767e-09
7.64016e-11
7.23361e-10
-9.5788e-10
8.98048e-11
7.70966e-10
-7.85758e-10
1.08385e-10
7.67755e-10
-6.10438e-10
1.29349e-10
7.13342e-10
-4.43462e-10
1.47279e-10
6.17262e-10
-3.01292e-10
1.60626e-10
4.91993e-10
-1.96843e-10
1.71127e-10
3.55492e-10
-1.36921e-10
1.79627e-10
2.18919e-10
-1.19211e-10
1.88571e-10
8.91314e-11
-1.3474e-10
1.97462e-10
-3.25716e-11
-1.74783e-10
2.0586e-10
-1.49211e-10
-2.26033e-10
2.12858e-10
-2.5922e-10
-2.86218e-10
2.14861e-10
-3.59501e-10
-3.62997e-10
2.08204e-10
-4.47977e-10
-4.50004e-10
1.9754e-10
-5.26884e-10
-5.43399e-10
1.84367e-10
-5.88888e-10
-6.42244e-10
1.74375e-10
-6.34794e-10
-7.26683e-10
1.68178e-10
-6.61347e-10
-7.93283e-10
1.67599e-10
-6.6511e-10
-8.40493e-10
1.70366e-10
-6.39126e-10
-8.76203e-10
1.75209e-10
-5.75298e-10
-9.13651e-10
1.76695e-10
-4.67959e-10
-9.66965e-10
1.74421e-10
-3.18918e-10
-1.04216e-09
1.7192e-10
-1.37866e-10
-1.1293e-09
1.72879e-10
-1.24044e-09
1.83206e-10
8.0465e-11
-1.51313e-09
8.0465e-11
2.80082e-10
-1.76214e-09
8.62266e-11
4.55095e-10
-1.63538e-09
9.12314e-11
6.19754e-10
-1.52361e-09
1.02146e-10
7.5832e-10
-1.37549e-09
1.20323e-10
8.57368e-10
-1.19673e-09
1.41079e-10
9.08641e-10
-9.94005e-10
1.59008e-10
9.09432e-10
-7.83514e-10
1.75221e-10
8.63958e-10
-5.82605e-10
1.88115e-10
7.77664e-10
-4.0817e-10
1.96756e-10
6.60337e-10
-2.81816e-10
2.05063e-10
5.17402e-10
-2.08938e-10
2.16243e-10
3.52776e-10
-1.82855e-10
2.27694e-10
1.73575e-10
-1.95203e-10
2.3736e-10
-2.1067e-11
-2.23525e-10
2.39832e-10
-2.18426e-10
-2.66934e-10
2.33908e-10
-4.00972e-10
-3.26963e-10
2.18412e-10
-5.5843e-10
-4.05471e-10
1.94706e-10
-6.78983e-10
-5.06973e-10
1.72224e-10
-7.56595e-10
-6.27435e-10
1.56805e-10
-7.96732e-10
-7.56237e-10
1.50502e-10
-8.09854e-10
-8.69774e-10
1.5447e-10
-7.98518e-10
-9.6788e-10
1.63559e-10
-7.64839e-10
-1.04678e-09
1.74384e-10
-7.02468e-10
-1.12048e-09
1.84224e-10
-6.05589e-10
-1.19985e-09
1.91598e-10
-4.69328e-10
-1.29929e-09
1.98411e-10
-3.02654e-10
-1.41261e-09
2.06648e-10
-1.24532e-10
-1.51997e-09
2.16261e-10
-1.58943e-09
2.27494e-10
1.30503e-10
-1.77312e-09
1.30503e-10
3.64713e-10
-2.14652e-09
1.46403e-10
5.56137e-10
-1.99128e-09
1.61298e-10
7.24585e-10
-1.8715e-09
1.76305e-10
8.55904e-10
-1.70224e-09
1.93217e-10
9.42549e-10
-1.49371e-09
2.09201e-10
9.86132e-10
-1.25518e-09
2.18007e-10
9.93544e-10
-1.00663e-09
2.17369e-10
9.69288e-10
-7.69535e-10
2.13452e-10
9.11176e-10
-5.63899e-10
2.15898e-10
8.16067e-10
-4.06918e-10
2.21048e-10
6.75935e-10
-3.0201e-10
2.32351e-10
4.86946e-10
-2.41241e-10
2.44749e-10
2.50676e-10
-2.13367e-10
2.50396e-10
-1.45107e-11
-2.08883e-10
2.45601e-10
-2.83774e-10
-2.30354e-10
2.2719e-10
-5.33831e-10
-2.86274e-10
2.03546e-10
-7.4088e-10
-3.85465e-10
1.81207e-10
-8.82349e-10
-5.31863e-10
1.61078e-10
-9.62751e-10
-7.02793e-10
1.51771e-10
-9.95372e-10
-8.79552e-10
1.53782e-10
-9.91181e-10
-1.03962e-09
1.65276e-10
-9.56533e-10
-1.17849e-09
1.76611e-10
-8.88196e-10
-1.30125e-09
1.8683e-10
-7.84978e-10
-1.41951e-09
1.96047e-10
-6.40181e-10
-1.54983e-09
2.05297e-10
-4.64031e-10
-1.69442e-09
2.19619e-10
-2.78147e-10
-1.83532e-09
2.38071e-10
-1.06749e-10
-1.94327e-09
2.53238e-10
-1.95949e-09
2.62832e-10
2.33513e-10
-2.24272e-09
2.33513e-10
4.6261e-10
-2.6321e-09
2.47022e-10
6.49323e-10
-2.45041e-09
2.64669e-10
7.98533e-10
-2.30263e-09
2.7483e-10
9.06609e-10
-2.10013e-09
2.84208e-10
9.77425e-10
-1.84892e-09
2.80173e-10
1.02042e-09
-1.56793e-09
2.67142e-10
1.04453e-09
-1.28182e-09
2.49441e-10
1.05066e-09
-1.01567e-09
2.3872e-10
1.02887e-09
-7.79857e-10
2.36104e-10
9.58144e-10
-5.83926e-10
2.45145e-10
8.19967e-10
-4.22989e-10
2.55597e-10
6.05428e-10
-2.93657e-10
2.62583e-10
3.2304e-10
-1.96379e-10
2.60459e-10
2.82167e-12
-1.4287e-10
2.48836e-10
-3.22588e-10
-1.43212e-10
2.32487e-10
-6.18255e-10
-2.12952e-10
2.16272e-10
-8.54084e-10
-3.55632e-10
2.00077e-10
-1.02173e-09
-5.59756e-10
1.90448e-10
-1.12904e-09
-7.91195e-10
1.91932e-10
-1.18377e-09
-1.02444e-09
1.97024e-10
-1.18993e-09
-1.23938e-09
2.03721e-10
-1.14884e-09
-1.43212e-09
2.0982e-10
-1.05457e-09
-1.61195e-09
2.1285e-10
-9.04594e-10
-1.7926e-09
2.19218e-10
-7.08854e-10
-1.98093e-09
2.3195e-10
-4.92381e-10
-2.16397e-09
2.50231e-10
-2.90862e-10
-2.31247e-09
2.72622e-10
-1.23032e-10
-2.39905e-09
2.83897e-10
-2.37025e-09
2.82536e-10
3.59543e-10
-2.96756e-09
3.59543e-10
5.4524e-10
-3.19477e-09
3.63038e-10
7.21114e-10
-3.00836e-09
3.70561e-10
8.54846e-10
-2.8081e-09
3.61084e-10
9.51009e-10
-2.55416e-09
3.48682e-10
1.02098e-09
-2.25579e-09
3.2885e-10
1.07884e-09
-1.93827e-09
3.05694e-10
1.13085e-09
-1.62748e-09
2.87505e-10
1.16953e-09
-1.34019e-09
2.80108e-10
1.17139e-09
-1.07221e-09
2.84856e-10
1.1054e-09
-8.19038e-10
2.95551e-10
9.5119e-10
-5.7869e-10
3.04626e-10
7.03007e-10
-3.61586e-10
3.11012e-10
3.84228e-10
-1.8567e-10
3.02838e-10
3.03283e-11
-8.18653e-11
2.87102e-10
-3.22337e-10
-7.32354e-11
2.76095e-10
-6.41274e-10
-1.67685e-10
2.66462e-10
-9.05969e-10
-3.61398e-10
2.6316e-10
-1.11552e-09
-6.22987e-10
2.65853e-10
-1.27177e-09
-9.1212e-10
2.7057e-10
-1.37457e-09
-1.20224e-09
2.73731e-10
-1.41555e-09
-1.47549e-09
2.69317e-10
-1.38224e-09
-1.73666e-09
2.62503e-10
-1.26695e-09
-1.99517e-09
2.59023e-10
-1.07728e-09
-2.25463e-09
2.64152e-10
-8.44114e-10
-2.49996e-09
2.78424e-10
-6.04528e-10
-2.70717e-09
2.96198e-10
-3.8552e-10
-2.84834e-09
3.0876e-10
-1.91684e-10
-2.90886e-09
3.07142e-10
-2.86607e-09
2.96355e-10
4.66358e-10
-3.90831e-09
4.66358e-10
6.27577e-10
-3.8067e-09
4.32917e-10
8.04071e-10
-3.61873e-09
4.18748e-10
9.51587e-10
-3.37248e-09
4.0251e-10
1.06816e-09
-3.06752e-09
3.83678e-10
1.16549e-09
-2.73034e-09
3.65016e-10
1.25555e-09
-2.39014e-09
3.5072e-10
1.33635e-09
-2.06469e-09
3.46004e-10
1.38572e-09
-1.75155e-09
3.52433e-10
1.37676e-09
-1.43889e-09
3.66942e-10
1.27527e-09
-1.10837e-09
3.83191e-10
1.07186e-09
-7.73701e-10
3.91671e-10
7.80589e-10
-4.62917e-10
3.86083e-10
4.32777e-10
-2.17253e-10
3.72262e-10
6.03579e-11
-8.20193e-11
3.64245e-10
-3.02942e-10
-7.59428e-11
3.56464e-10
-6.40274e-10
-1.98143e-10
3.57453e-10
-9.45083e-10
-4.32189e-10
3.64881e-10
-1.21408e-09
-7.37926e-10
3.72858e-10
-1.43695e-09
-1.07589e-09
3.74815e-10
-1.59848e-09
-1.42131e-09
3.67733e-10
-1.67777e-09
-1.76773e-09
3.57873e-10
-1.65547e-09
-2.11561e-09
3.43068e-10
-1.52867e-09
-2.47089e-09
3.36291e-10
-1.32337e-09
-2.8112e-09
3.3965e-10
-1.07718e-09
-3.10771e-09
3.50168e-10
-8.20907e-10
-3.32828e-09
3.53153e-10
-5.65394e-10
-3.46001e-09
3.44526e-10
-3.02024e-10
-3.5158e-09
3.32576e-10
-3.50345e-09
3.26276e-10
5.06055e-10
-4.93053e-09
5.06055e-10
6.98682e-10
-4.47335e-09
4.51944e-10
9.32192e-10
-4.30343e-09
4.32062e-10
1.14417e-09
-4.02056e-09
4.17878e-10
1.32771e-09
-3.6781e-09
4.10086e-10
1.48731e-09
-3.31678e-09
4.10842e-10
1.62148e-09
-2.96128e-09
4.2212e-10
1.71487e-09
-2.61367e-09
4.41557e-10
1.73588e-09
-2.25153e-09
4.65963e-10
1.66128e-09
-1.86339e-09
4.87126e-10
1.47854e-09
-1.43651e-09
4.99889e-10
1.19992e-09
-1.0023e-09
4.96617e-10
8.54737e-10
-6.10992e-10
4.82116e-10
4.76411e-10
-3.18165e-10
4.66904e-10
8.74519e-11
-1.68904e-10
4.62261e-10
-2.96899e-10
-1.74272e-10
4.68302e-10
-6.70445e-10
-3.21116e-10
4.81768e-10
-1.03318e-09
-5.79911e-10
4.9529e-10
-1.37292e-09
-9.15345e-10
5.01186e-10
-1.66412e-09
-1.2974e-09
4.95735e-10
-1.8777e-09
-1.70686e-09
4.81555e-10
-1.98453e-09
-2.14341e-09
4.65155e-10
-1.97027e-09
-2.59977e-09
4.53446e-10
-1.84985e-09
-3.05491e-09
4.47951e-10
-1.65246e-09
-3.46969e-09
4.45572e-10
-1.40449e-09
-3.80539e-09
4.34053e-10
-1.12144e-09
-4.04354e-09
4.17023e-10
-8.03491e-10
-4.19382e-09
4.0169e-10
-4.38581e-10
-4.28426e-09
3.90366e-10
-4.34241e-09
3.88553e-10
5.09351e-10
-5.96183e-09
5.09351e-10
8.23424e-10
-5.27702e-09
4.62922e-10
1.1636e-09
-5.12278e-09
4.56219e-10
1.48277e-09
-4.81571e-09
4.54318e-10
1.76558e-09
-4.44905e-09
4.6782e-10
2.00349e-09
-4.06625e-09
4.92068e-10
2.17291e-09
-3.67725e-09
5.27754e-10
2.24779e-09
-3.27078e-09
5.63738e-10
2.20188e-09
-2.82021e-09
5.96466e-10
2.022e-09
-2.31744e-09
6.16078e-10
1.73356e-09
-1.78158e-09
6.15698e-10
1.36729e-09
-1.25891e-09
6.04534e-10
9.60753e-10
-8.14835e-10
5.91139e-10
5.40491e-10
-5.07606e-10
5.89699e-10
1.10575e-10
-3.61431e-10
6.0219e-10
-3.26102e-10
-3.77651e-10
6.19975e-10
-7.6821e-10
-5.3634e-10
6.37285e-10
-1.20873e-09
-8.089e-10
6.48919e-10
-1.62326e-09
-1.17135e-09
6.49064e-10
-1.97632e-09
-1.60375e-09
6.37433e-10
-2.22857e-09
-2.09682e-09
6.20475e-10
-2.35716e-09
-2.6401e-09
6.04187e-10
-2.3618e-09
-3.2069e-09
5.91008e-10
-2.26053e-09
-3.7533e-09
5.76136e-10
-2.07462e-09
-4.23202e-09
5.55318e-10
-1.81352e-09
-4.61594e-09
5.29295e-10
-1.47538e-09
-4.90426e-09
5.04031e-10
-1.05953e-09
-5.11529e-09
4.87939e-10
-5.71176e-10
-5.26839e-09
4.78382e-10
-5.40316e-09
4.74511e-10
5.36281e-10
-7.04958e-09
5.36281e-10
1.03092e-09
-6.31487e-09
5.12382e-10
1.5176e-09
-6.16009e-09
5.24598e-10
1.96821e-09
-5.83002e-09
5.38975e-10
2.36431e-09
-5.44e-09
5.70909e-10
2.6749e-09
-5.01297e-09
6.11986e-10
2.85922e-09
-4.54503e-09
6.58742e-10
2.88606e-09
-4.02407e-09
7.00868e-10
2.74938e-09
-3.43914e-09
7.29213e-10
2.46371e-09
-2.80191e-09
7.42982e-10
2.07154e-09
-2.15779e-09
7.40405e-10
1.6199e-09
-1.57083e-09
7.34765e-10
1.14278e-09
-1.10659e-09
7.39733e-10
6.4833e-10
-7.99141e-10
7.57146e-10
1.33775e-10
-6.57313e-10
7.82196e-10
-4.02043e-10
-6.76534e-10
8.06728e-10
-9.50882e-10
-8.38763e-10
8.22831e-10
-1.49033e-09
-1.12633e-09
8.2755e-10
-1.9841e-09
-1.52778e-09
8.20358e-10
-2.39325e-09
-2.02979e-09
8.05628e-10
-2.68356e-09
-2.6225e-09
7.8709e-10
-2.84305e-09
-3.27634e-09
7.67062e-10
-2.87604e-09
-3.94484e-09
7.42067e-10
-2.79172e-09
-4.57676e-09
7.10568e-10
-2.59355e-09
-5.13259e-09
6.75464e-10
-2.27965e-09
-5.5976e-09
6.43313e-10
-1.84974e-09
-5.97665e-09
6.19718e-10
-1.31556e-09
-6.27566e-09
6.0384e-10
-7.0152e-10
-6.49457e-09
5.90604e-10
-6.70536e-09
5.84086e-10
6.3639e-10
-8.3395e-09
6.3639e-10
1.32489e-09
-7.68836e-09
6.49855e-10
1.9742e-09
-7.50721e-09
6.6823e-10
2.56371e-09
-7.13701e-09
6.88295e-10
3.0629e-09
-6.69306e-09
7.23865e-10
3.42866e-09
-6.17741e-09
7.66781e-10
3.6156e-09
-5.58108e-09
8.15198e-10
3.59784e-09
-4.89793e-09
8.55772e-10
3.38468e-09
-4.14657e-09
8.83098e-10
3.01407e-09
-3.36877e-09
8.98533e-10
2.5384e-09
-2.63365e-09
9.11427e-10
1.99866e-09
-2.00225e-09
9.30333e-10
1.41677e-09
-1.52128e-09
9.55812e-10
7.97607e-10
-1.20682e-09
9.86481e-10
1.42184e-10
-1.05832e-09
1.01598e-09
-5.41603e-10
-1.0691e-09
1.03495e-09
-1.22859e-09
-1.23527e-09
1.04084e-09
-1.88394e-09
-1.54954e-09
1.0353e-09
-2.4669e-09
-2.00791e-09
1.02037e-09
-2.94097e-09
-2.59699e-09
9.99671e-10
-3.2843e-09
-3.29441e-09
9.74442e-10
-3.48659e-09
-4.05597e-09
9.41629e-10
-3.54261e-09
-4.8288e-09
9.00927e-10
-3.44776e-09
-5.56371e-09
8.5581e-10
-3.19616e-09
-6.23241e-09
8.15419e-10
-2.79003e-09
-6.81898e-09
7.84832e-10
-2.24383e-09
-7.31287e-09
7.60681e-10
-1.58084e-09
-7.70954e-09
7.43151e-10
-8.31788e-10
-7.99919e-09
7.30447e-10
-8.28322e-09
7.26438e-10
8.26276e-10
-1.0011e-08
8.26276e-10
1.70349e-09
-9.45151e-09
8.4325e-10
2.50961e-09
-9.20747e-09
8.57278e-10
3.23194e-09
-8.77771e-09
8.80186e-10
3.82686e-09
-8.24599e-09
9.17249e-10
4.24265e-09
-7.60153e-09
9.64353e-10
4.43811e-09
-6.83702e-09
1.01379e-09
4.39849e-09
-5.96619e-09
1.0588e-09
4.14103e-09
-5.03672e-09
1.09641e-09
3.70999e-09
-4.12171e-09
1.13074e-09
3.15023e-09
-3.29483e-09
1.16601e-09
2.49519e-09
-2.60843e-09
1.20506e-09
1.76172e-09
-2.08953e-09
1.24477e-09
9.60298e-10
-1.73905e-09
1.27568e-09
1.09997e-10
-1.56223e-09
1.29451e-09
-7.58454e-10
-1.56059e-09
1.29839e-09
-1.6058e-09
-1.73903e-09
1.28881e-09
-2.39163e-09
-2.09803e-09
1.27294e-09
-3.08142e-09
-2.62834e-09
1.25067e-09
-3.6435e-09
-3.31355e-09
1.22073e-09
-4.05606e-09
-4.1196e-09
1.18113e-09
-4.29984e-09
-4.99783e-09
1.13117e-09
-4.35775e-09
-5.89975e-09
1.07821e-09
-4.21745e-09
-6.78043e-09
1.03024e-09
-3.87838e-09
-7.60565e-09
9.90953e-10
-3.35594e-09
-8.34477e-09
9.61324e-10
-2.67544e-09
-8.97252e-09
9.38967e-10
-1.86186e-09
-9.47762e-09
9.18018e-10
-9.54396e-10
-9.84799e-09
9.07775e-10
-1.0181e-08
9.13774e-10
1.05402e-09
-1.21418e-08
1.05402e-09
2.12492e-09
-1.16457e-08
1.06557e-09
3.10589e-09
-1.13218e-08
1.08195e-09
3.97566e-09
-1.08147e-08
1.11313e-09
4.67934e-09
-1.01668e-08
1.15965e-09
5.16057e-09
-9.36025e-09
1.21654e-09
5.38094e-09
-8.39779e-09
1.27664e-09
5.33548e-09
-7.32113e-09
1.33386e-09
5.04933e-09
-6.20774e-09
1.3876e-09
4.55774e-09
-5.14463e-09
1.44185e-09
3.89311e-09
-4.20303e-09
1.49746e-09
3.08118e-09
-3.42281e-09
1.54852e-09
2.1452e-09
-2.82115e-09
1.58746e-09
1.11693e-09
-2.40298e-09
1.60948e-09
3.97447e-11
-2.18196e-09
1.61186e-09
-1.03606e-09
-2.1715e-09
1.60071e-09
-2.06629e-09
-2.37621e-09
1.58248e-09
-3.01199e-09
-2.79187e-09
1.55689e-09
-3.83718e-09
-3.40578e-09
1.52202e-09
-4.50914e-09
-4.19552e-09
1.47487e-09
-4.99626e-09
-5.12685e-09
1.41761e-09
-5.26915e-09
-6.15619e-09
1.35862e-09
-5.30555e-09
-7.23635e-09
1.30531e-09
-5.09834e-09
-8.31144e-09
1.25953e-09
-4.65925e-09
-9.32847e-09
1.22097e-09
-4.00629e-09
-1.02409e-08
1.18245e-09
-3.16332e-09
-1.10212e-08
1.14905e-09
-2.17042e-09
-1.1655e-08
1.13144e-09
-1.0861e-09
-1.21128e-08
1.12872e-09
-1.2446e-08
1.13216e-09
1.30956e-09
-1.47924e-08
1.30956e-09
2.6014e-09
-1.4339e-08
1.31861e-09
3.79474e-09
-1.39353e-08
1.34581e-09
4.83872e-09
-1.33318e-08
1.39588e-09
5.66682e-09
-1.25368e-08
1.46155e-09
6.22274e-09
-1.15343e-08
1.53441e-09
6.47742e-09
-1.03477e-08
1.60804e-09
6.43466e-09
-9.04823e-09
1.67881e-09
6.11615e-09
-7.73225e-09
1.74753e-09
5.54625e-09
-6.49235e-09
1.81808e-09
4.74467e-09
-5.38953e-09
1.88506e-09
3.73769e-09
-4.46107e-09
1.93902e-09
2.56518e-09
-3.73085e-09
1.97276e-09
1.28448e-09
-3.22035e-09
1.98577e-09
-3.89968e-11
-2.95511e-09
1.98295e-09
-1.34861e-09
-2.94496e-09
1.97012e-09
-2.59672e-09
-3.18695e-09
1.9479e-09
-3.74016e-09
-3.66963e-09
1.91197e-09
-4.734e-09
-4.38015e-09
1.85999e-09
-5.53191e-09
-5.29911e-09
1.79491e-09
-6.0925e-09
-6.39609e-09
1.72695e-09
-6.38427e-09
-7.62575e-09
1.66336e-09
-6.3911e-09
-8.92889e-09
1.60511e-09
-6.11569e-09
-1.02301e-08
1.55087e-09
-5.56969e-09
-1.14617e-08
1.49731e-09
-4.76674e-09
-1.25752e-08
1.44625e-09
-3.73742e-09
-1.35403e-08
1.40928e-09
-2.54769e-09
-1.43133e-08
1.38956e-09
-1.28138e-09
-1.48296e-08
1.37164e-09
-1.5148e-08
1.3519e-09
1.59357e-09
-1.80259e-08
1.59357e-09
3.17009e-09
-1.76474e-08
1.6146e-09
4.61806e-09
-1.71562e-08
1.66785e-09
5.85965e-09
-1.64247e-08
1.74406e-09
6.82098e-09
-1.5437e-08
1.82879e-09
7.45299e-09
-1.41962e-08
1.91583e-09
7.74368e-09
-1.27569e-08
1.9996e-09
7.70382e-09
-1.12101e-08
2.07777e-09
7.34447e-09
-9.66067e-09
2.1587e-09
6.67395e-09
-8.19573e-09
2.24106e-09
5.708e-09
-6.87748e-09
2.31788e-09
4.48216e-09
-5.75168e-09
2.37735e-09
3.0562e-09
-4.86379e-09
2.41663e-09
1.50761e-09
-4.2552e-09
2.43889e-09
-9.01816e-11
-3.9494e-09
2.44718e-09
-1.6745e-09
-3.94522e-09
2.44065e-09
-3.19065e-09
-4.22946e-09
2.41549e-09
-4.57786e-09
-4.79208e-09
2.36651e-09
-5.77093e-09
-5.62519e-09
2.2956e-09
-6.70916e-09
-6.71663e-09
2.21622e-09
-7.34926e-09
-8.02816e-09
2.13731e-09
-7.66567e-09
-9.50268e-09
2.06239e-09
-7.65358e-09
-1.10599e-08
1.99014e-09
-7.31405e-09
-1.26116e-08
1.91584e-09
-6.64929e-09
-1.40867e-08
1.8391e-09
-5.67554e-09
-1.54365e-08
1.77186e-09
-4.44746e-09
-1.66029e-08
1.72116e-09
-3.05324e-09
-1.7498e-08
1.67758e-09
-1.56287e-09
-1.80558e-08
1.62349e-09
-1.83929e-08
1.58513e-09
1.93864e-09
-2.19695e-08
1.93864e-09
3.85433e-09
-2.17058e-08
1.98415e-09
5.58514e-09
-2.10921e-08
2.06348e-09
7.03797e-09
-2.01776e-08
2.15664e-09
8.1388e-09
-1.89399e-08
2.25518e-09
8.85932e-09
-1.74189e-08
2.35055e-09
9.20253e-09
-1.56924e-08
2.43479e-09
9.1714e-09
-1.38685e-08
2.527e-09
8.76229e-09
-1.20474e-08
2.62951e-09
7.97472e-09
-1.03114e-08
2.7345e-09
6.82535e-09
-8.72995e-09
2.83059e-09
5.36446e-09
-7.37517e-09
2.91024e-09
3.66766e-09
-6.31712e-09
2.97296e-09
1.82029e-09
-5.60429e-09
3.01739e-09
-9.88688e-11
-5.25163e-09
3.04187e-09
-2.01899e-09
-5.24658e-09
3.04166e-09
-3.86126e-09
-5.5754e-09
3.00746e-09
-5.53676e-09
-6.23856e-09
2.94091e-09
-6.95883e-09
-7.23528e-09
2.85328e-09
-8.06035e-09
-8.54847e-09
2.75884e-09
-8.80128e-09
-1.01215e-08
2.66365e-09
-9.16505e-09
-1.18753e-08
2.56779e-09
-9.14598e-09
-1.37105e-08
2.46501e-09
-8.735e-09
-1.55405e-08
2.35578e-09
-7.93118e-09
-1.73006e-08
2.25303e-09
-6.7734e-09
-1.89144e-08
2.16516e-09
-5.34279e-09
-2.02737e-08
2.08588e-09
-3.71393e-09
-2.12782e-08
1.99845e-09
-1.92293e-09
-2.19159e-08
1.91656e-09
-2.23479e-08
1.89958e-09
2.36574e-09
-2.67912e-08
2.36574e-09
4.64358e-09
-2.66162e-08
2.4285e-09
6.6705e-09
-2.58213e-08
2.51923e-09
8.34906e-09
-2.46645e-08
2.62345e-09
9.62272e-09
-2.31274e-08
2.72487e-09
1.04775e-08
-2.12872e-08
2.8199e-09
1.09066e-08
-1.92504e-08
2.9308e-09
1.08989e-08
-1.7123e-08
3.06112e-09
1.04363e-08
-1.4992e-08
3.20457e-09
9.51368e-09
-1.29408e-08
3.34814e-09
8.15993e-09
-1.10617e-08
3.47889e-09
6.43868e-09
-9.45587e-09
3.5922e-09
4.4342e-09
-8.21098e-09
3.68582e-09
2.23355e-09
-7.37388e-09
3.75613e-09
-7.71677e-11
-6.94999e-09
3.79408e-09
-2.40069e-09
-6.93171e-09
3.79238e-09
-4.62551e-09
-7.31377e-09
3.74601e-09
-6.63274e-09
-8.11032e-09
3.66309e-09
-8.32151e-09
-9.31907e-09
3.56027e-09
-9.62385e-09
-1.09007e-08
3.4456e-09
-1.05029e-08
-1.27721e-08
3.32203e-09
-1.09392e-08
-1.48316e-08
3.18559e-09
-1.09128e-08
-1.69778e-08
3.03676e-09
-1.04097e-08
-1.91341e-08
2.89042e-09
-9.44903e-09
-2.1217e-08
2.75724e-09
-8.09991e-09
-2.30976e-08
2.63516e-09
-6.4357e-09
-2.46426e-08
2.50632e-09
-4.49265e-09
-2.58e-08
2.38142e-09
-2.31108e-09
-2.66081e-08
2.31224e-09
-2.71496e-08
2.31925e-09
2.86384e-09
-3.26351e-08
2.86384e-09
5.49978e-09
-3.24263e-08
2.92296e-09
7.8506e-09
-3.14186e-08
3.0198e-09
9.80832e-09
-2.99646e-08
3.11454e-09
1.13228e-08
-2.8097e-08
3.22422e-09
1.2367e-08
-2.59266e-08
3.36213e-09
1.29188e-08
-2.35676e-08
3.53147e-09
1.29458e-08
-2.111e-08
3.7257e-09
1.24182e-08
-1.86275e-08
3.92882e-09
1.13378e-08
-1.62197e-08
4.12347e-09
9.74934e-09
-1.40136e-08
4.30142e-09
7.72573e-09
-1.21319e-08
4.45806e-09
5.35319e-09
-1.06713e-08
4.5899e-09
2.72423e-09
-9.67419e-09
4.68569e-09
-5.35679e-11
-9.15027e-09
4.7338e-09
-2.84656e-09
-9.11038e-09
4.7265e-09
-5.5061e-09
-9.56795e-09
4.66898e-09
-7.89349e-09
-1.0538e-08
4.57263e-09
-9.8985e-09
-1.20033e-08
4.44897e-09
-1.14516e-08
-1.38891e-08
4.30144e-09
-1.25069e-08
-1.60894e-08
4.13155e-09
-1.3026e-08
-1.8492e-08
3.93931e-09
-1.29759e-08
-2.10073e-08
3.7413e-09
-1.23642e-08
-2.35329e-08
3.54981e-09
-1.12415e-08
-2.59446e-08
3.36609e-09
-9.67418e-09
-2.80829e-08
3.17858e-09
-7.69576e-09
-2.98553e-08
2.99469e-09
-5.3477e-09
-3.12577e-08
2.86783e-09
-2.72892e-09
-3.22794e-08
2.80891e-09
-3.28799e-08
2.79344e-09
3.4028e-09
-3.95839e-08
3.4028e-09
6.41694e-09
-3.91774e-08
3.44207e-09
9.15128e-09
-3.7943e-08
3.52345e-09
1.14828e-08
-3.6203e-08
3.64156e-09
1.33336e-08
-3.40184e-08
3.80561e-09
1.46432e-08
-3.15176e-08
4.01811e-09
1.53523e-08
-2.88088e-08
4.27177e-09
1.54054e-08
-2.59688e-08
4.54724e-09
1.47804e-08
-2.30826e-08
4.82221e-09
1.35008e-08
-2.02807e-08
5.08134e-09
1.16222e-08
-1.772e-08
5.32392e-09
9.23283e-09
-1.55421e-08
5.53864e-09
6.41572e-09
-1.38321e-08
5.71795e-09
3.27725e-09
-1.26372e-08
5.84228e-09
-4.07202e-11
-1.19933e-08
5.90162e-09
-3.36841e-09
-1.19345e-08
5.8924e-09
-6.51949e-09
-1.24999e-08
5.8247e-09
-9.34105e-09
-1.3682e-08
5.70796e-09
-1.17225e-08
-1.54308e-08
5.55015e-09
-1.35789e-08
-1.76469e-08
5.35264e-09
-1.48412e-08
-2.02062e-08
5.11644e-09
-1.54535e-08
-2.30004e-08
4.85832e-09
-1.53973e-08
-2.59243e-08
4.59766e-09
-1.46847e-08
-2.88477e-08
4.33608e-09
-1.33708e-08
-3.15914e-08
4.06417e-09
-1.14891e-08
-3.40234e-08
3.7884e-09
-9.09772e-09
-3.61007e-08
3.58006e-09
-6.29346e-09
-3.77913e-08
3.45084e-09
-3.23118e-09
-3.89745e-08
3.35129e-09
-3.96257e-08
3.27558e-09
3.95042e-09
-4.76527e-08
3.95042e-09
7.45634e-09
-4.69763e-08
3.96559e-09
1.06936e-08
-4.55445e-08
4.06966e-09
1.34925e-08
-4.35459e-08
4.25435e-09
1.5746e-08
-4.1066e-08
4.5092e-09
1.73558e-08
-3.82276e-08
4.821e-09
1.82281e-08
-3.51275e-08
5.17319e-09
1.82999e-08
-3.18505e-08
5.54091e-09
1.75645e-08
-2.85162e-08
5.90231e-09
1.60628e-08
-2.5294e-08
6.24972e-09
1.38588e-08
-2.23577e-08
6.57885e-09