/*--------------------------------*- C++ -*----------------------------------*\
| =========                 |                                                 |
| \\      /  F ield         | OpenFOAM: The Open Source CFD Toolbox           |
|  \\    /   O peration     | Version:  2312                                  |
|   \\  /    A nd           | Website:  www.openfoam.com                      |
|    \\/     M anipulation  |                                                 |
\*---------------------------------------------------------------------------*/
FoamFile
{
    version     2.0;
    format      ascii;
    arch        "LSB;label=32;scalar=64";
    class       volVectorField;
    location    "0.248571";
    object      U;
}
// * * * * * * * * * * * * * * * * * * * * * * * * * * * * * * * * * * * * * //

dimensions      [0 1 -1 0 0 0 0];

internalField   nonuniform List<vector> 
90000
(
(5.94015e-07 -8.54943e-07 5.94015e-07)
(5.02933e-07 1.80004e-07 3.27216e-07)
(-1.84859e-07 -9.32166e-08 2.90565e-07)
(-2.08197e-07 -1.49496e-07 1.89878e-07)
(-2.13762e-07 -1.74652e-07 1.48473e-07)
(-1.26743e-07 -2.09116e-07 1.20556e-07)
(5.97107e-08 -2.48453e-07 1.03603e-07)
(2.87565e-07 -2.68771e-07 8.92621e-08)
(4.93997e-07 -2.35663e-07 8.88619e-08)
(6.05038e-07 -1.56566e-07 8.15838e-08)
(5.67896e-07 -4.71272e-08 4.90306e-08)
(4.17853e-07 7.37925e-08 -4.89934e-09)
(2.31332e-07 1.4753e-07 -7.36151e-08)
(9.69843e-08 1.55385e-07 -1.35169e-07)
(1.0241e-07 9.74571e-08 -1.67122e-07)
(2.74196e-07 -1.78042e-08 -1.58223e-07)
(5.31796e-07 -1.39183e-07 -6.62519e-08)
(7.61045e-07 -1.99238e-07 8.87186e-08)
(8.42545e-07 -2.02345e-07 2.34491e-07)
(6.43509e-07 -1.39932e-07 3.6212e-07)
(1.18546e-07 -2.30609e-08 4.40158e-07)
(-7.0103e-07 1.00477e-07 4.45519e-07)
(-1.71908e-06 2.14802e-07 3.90416e-07)
(-2.75473e-06 2.59183e-07 2.98266e-07)
(-3.53728e-06 1.67987e-07 1.60029e-07)
(-3.79632e-06 -8.86373e-08 -1.82992e-08)
(-3.4171e-06 -4.12209e-07 -1.39181e-07)
(-2.44267e-06 -6.5594e-07 -1.1288e-07)
(-8.59777e-07 -9.25138e-07 1.96523e-08)
(6.20379e-08 -8.28959e-07 6.99762e-07)
(-5.71559e-08 -1.62605e-06 -5.71559e-08)
(5.02759e-08 -1.31827e-07 -7.85892e-09)
(3.54171e-07 -6.05007e-07 4.28624e-09)
(5.94022e-07 -7.06106e-07 3.77409e-08)
(7.93624e-07 -7.90359e-07 8.44512e-08)
(9.72826e-07 -8.95815e-07 1.28478e-07)
(1.11616e-06 -9.86996e-07 1.67182e-07)
(1.23044e-06 -1.01058e-06 1.95892e-07)
(1.30061e-06 -9.20047e-07 2.07738e-07)
(1.3071e-06 -7.20973e-07 2.16724e-07)
(1.26532e-06 -4.68703e-07 2.32142e-07)
(1.17435e-06 -2.24517e-07 2.47292e-07)
(1.03244e-06 -7.06892e-08 2.82043e-07)
(8.52159e-07 -5.92598e-08 3.30677e-07)
(6.30081e-07 -1.77482e-07 3.87423e-07)
(3.76885e-07 -3.7367e-07 4.24287e-07)
(9.11337e-08 -5.53453e-07 4.07697e-07)
(-2.28343e-07 -6.20595e-07 3.50658e-07)
(-5.7204e-07 -5.7038e-07 2.71776e-07)
(-9.19748e-07 -3.86053e-07 1.78663e-07)
(-1.23049e-06 -1.21855e-07 9.62476e-08)
(-1.45319e-06 8.79864e-08 8.44868e-08)
(-1.55184e-06 1.75905e-07 1.23699e-07)
(-1.49078e-06 3.14133e-08 1.95287e-07)
(-1.28301e-06 -4.51885e-07 3.2968e-07)
(-9.01326e-07 -1.26029e-06 4.81179e-07)
(-2.95508e-07 -2.18788e-06 5.93282e-07)
(2.91045e-07 -2.92389e-06 5.74102e-07)
(3.44174e-07 -3.53822e-06 5.87929e-07)
(1.01117e-07 -3.3363e-06 4.50451e-07)
(-2.36492e-08 -1.72791e-06 -2.36492e-08)
(4.31362e-07 -1.23716e-06 6.21657e-08)
(1.16618e-06 -1.5363e-06 1.25879e-07)
(1.60782e-06 -1.60538e-06 1.77969e-07)
(1.90771e-06 -1.68171e-06 2.20128e-07)
(2.07271e-06 -1.75946e-06 2.48093e-07)
(2.12448e-06 -1.79627e-06 2.55397e-07)
(2.09852e-06 -1.75281e-06 2.55112e-07)
(2.04135e-06 -1.60964e-06 2.62099e-07)
(1.97087e-06 -1.3736e-06 2.61506e-07)
(1.89556e-06 -1.08181e-06 2.77141e-07)
(1.79888e-06 -8.35214e-07 3.17901e-07)
(1.61776e-06 -6.60708e-07 3.76801e-07)
(1.29705e-06 -5.99108e-07 4.29338e-07)
(7.98409e-07 -6.23583e-07 4.52457e-07)
(1.23889e-07 -6.79539e-07 4.33916e-07)
(-6.51461e-07 -7.16257e-07 3.7108e-07)
(-1.40442e-06 -6.92169e-07 2.65674e-07)
(-2.00712e-06 -5.86413e-07 1.25447e-07)
(-2.31684e-06 -4.39466e-07 3.21588e-09)
(-2.23211e-06 -3.12461e-07 -5.72083e-08)
(-1.79233e-06 -3.31566e-07 -8.20259e-08)
(-1.09478e-06 -5.50178e-07 -3.34444e-08)
(-2.54113e-07 -1.04977e-06 9.33707e-08)
(5.35295e-07 -1.84369e-06 2.58697e-07)
(1.0468e-06 -2.84928e-06 4.51215e-07)
(1.14593e-06 -3.82932e-06 5.90467e-07)
(9.04212e-07 -4.42805e-06 5.99081e-07)
(3.61133e-07 -4.26847e-06 4.40964e-07)
(8.90668e-09 -4.09931e-06 -8.43013e-08)
(1.90104e-07 -2.45571e-06 1.90104e-07)
(9.25611e-07 -2.87171e-06 2.87646e-07)
(1.78917e-06 -2.90129e-06 3.31811e-07)
(2.337e-06 -2.85461e-06 3.66984e-07)
(2.68701e-06 -2.76325e-06 3.83553e-07)
(2.83487e-06 -2.64831e-06 3.83783e-07)
(2.81761e-06 -2.50411e-06 3.65518e-07)
(2.68639e-06 -2.31458e-06 3.3421e-07)
(2.50273e-06 -2.08002e-06 3.00849e-07)
(2.32663e-06 -1.81166e-06 2.77203e-07)
(2.13933e-06 -1.52325e-06 2.66268e-07)
(1.91397e-06 -1.24278e-06 2.83032e-07)
(1.60915e-06 -9.94603e-07 2.98874e-07)
(1.14679e-06 -7.72695e-07 3.12767e-07)
(4.9435e-07 -5.86596e-07 2.91216e-07)
(-3.27558e-07 -4.34882e-07 2.3724e-07)
(-1.2104e-06 -3.24224e-07 1.64677e-07)
(-2.01085e-06 -2.76568e-07 8.26977e-08)
(-2.57954e-06 -2.9974e-07 2.07575e-08)
(-2.7645e-06 -4.41397e-07 -3.48648e-08)
(-2.503e-06 -6.84016e-07 -7.38051e-08)
(-1.84318e-06 -1.08444e-06 -7.35888e-08)
(-9.19427e-07 -1.60336e-06 -2.66468e-08)
(4.25697e-08 -2.23656e-06 3.97173e-08)
(7.95703e-07 -2.9351e-06 1.19145e-07)
(1.12898e-06 -3.59702e-06 1.6171e-07)
(9.92667e-07 -4.11168e-06 1.41916e-07)
(4.56041e-07 -4.29728e-06 6.38631e-08)
(-2.81188e-07 -3.28332e-06 -7.78169e-08)
(-3.28318e-07 -3.29744e-06 -4.47246e-07)
(4.35816e-07 -3.98658e-06 4.35816e-07)
(1.37819e-06 -5.01211e-06 5.15086e-07)
(2.23261e-06 -4.72228e-06 5.46281e-07)
(2.82882e-06 -4.45571e-06 5.50731e-07)
(3.20653e-06 -4.09211e-06 5.37292e-07)
(3.36843e-06 -3.68722e-06 5.0036e-07)
(3.33372e-06 -3.27309e-06 4.45281e-07)
(3.13841e-06 -2.85568e-06 3.82475e-07)
(2.84506e-06 -2.46188e-06 3.22379e-07)
(2.49934e-06 -2.09331e-06 2.70317e-07)
(2.12235e-06 -1.7545e-06 2.35599e-07)
(1.70403e-06 -1.40361e-06 2.03217e-07)
(1.22244e-06 -1.03172e-06 1.75525e-07)
(6.51811e-07 -6.48623e-07 1.32538e-07)
(-1.98183e-08 -2.80707e-07 9.65257e-08)
(-7.48096e-07 1.63772e-08 6.97815e-08)
(-1.44756e-06 1.65298e-07 7.29051e-08)
(-2.03429e-06 9.94457e-08 7.84038e-08)
(-2.41085e-06 -2.06242e-07 8.49437e-08)
(-2.50952e-06 -7.1062e-07 1.03489e-07)
(-2.3043e-06 -1.32675e-06 1.40101e-07)
(-1.82826e-06 -2.02821e-06 1.61366e-07)
(-1.2262e-06 -2.70007e-06 1.69438e-07)
(-6.59721e-07 -3.27707e-06 1.55612e-07)
(-2.56189e-07 -3.68713e-06 9.45503e-08)
(-1.34887e-07 -3.83935e-06 -2.00544e-08)
(-3.23355e-07 -3.81144e-06 -1.68182e-07)
(-7.60239e-07 -3.75229e-06 -2.66797e-07)
(-1.06797e-06 -2.93865e-06 -3.63183e-07)
(-5.52457e-07 -3.48326e-06 -4.51804e-07)
(6.20185e-07 -6.28343e-06 6.20185e-07)
(1.67203e-06 -7.2999e-06 6.51345e-07)
(2.46792e-06 -6.75879e-06 6.47166e-07)
(3.1204e-06 -6.22621e-06 6.10942e-07)
(3.5845e-06 -5.54905e-06 5.60925e-07)
(3.83462e-06 -4.79768e-06 4.98941e-07)
(3.86698e-06 -4.04667e-06 4.39133e-07)
(3.69715e-06 -3.34542e-06 3.85993e-07)
(3.34349e-06 -2.72661e-06 3.37392e-07)
(2.8324e-06 -2.19528e-06 2.89412e-07)
(2.21172e-06 -1.72136e-06 2.45961e-07)
(1.53951e-06 -1.28066e-06 1.98201e-07)
(8.46134e-07 -8.28885e-07 1.34546e-07)
(1.8514e-07 -3.9735e-07 9.23949e-08)
(-4.00164e-07 -4.32142e-09 7.83804e-08)
(-9.08407e-07 2.6791e-07 1.08796e-07)
(-1.33133e-06 2.86817e-07 1.70235e-07)
(-1.66694e-06 1.29621e-08 2.54671e-07)
(-1.91052e-06 -5.65562e-07 3.5263e-07)
(-2.04941e-06 -1.35778e-06 4.46345e-07)
(-2.09981e-06 -2.22939e-06 4.98689e-07)
(-2.09887e-06 -3.08885e-06 5.27909e-07)
(-2.08809e-06 -3.75234e-06 5.08924e-07)
(-2.08431e-06 -4.14652e-06 4.01245e-07)
(-2.11096e-06 -4.21803e-06 2.5135e-07)
(-2.15627e-06 -3.97661e-06 8.23588e-08)
(-2.10515e-06 -3.54758e-06 -6.55943e-08)
(-1.94287e-06 -3.27701e-06 -1.64297e-07)
(-1.55584e-06 -2.87405e-06 -1.80181e-07)
(-6.34864e-07 -4.14427e-06 -1.76124e-07)
(6.4619e-07 -8.88716e-06 6.4619e-07)
(1.7159e-06 -9.51065e-06 6.21053e-07)
(2.55818e-06 -8.80402e-06 5.66876e-07)
(3.35287e-06 -8.00134e-06 5.08106e-07)
(4.00406e-06 -7.00751e-06 4.50639e-07)
(4.47329e-06 -5.91948e-06 4.07774e-07)
(4.70331e-06 -4.83774e-06 3.8817e-07)
(4.6431e-06 -3.8385e-06 3.89632e-07)
(4.27387e-06 -2.95462e-06 3.93946e-07)
(3.61778e-06 -2.20373e-06 3.91432e-07)
(2.75328e-06 -1.56968e-06 3.77042e-07)
(1.7991e-06 -1.04215e-06 3.46932e-07)
(8.70023e-07 -6.11145e-07 3.08122e-07)
(8.31435e-08 -2.70936e-07 2.79916e-07)
(-4.92792e-07 -6.48904e-08 2.96306e-07)
(-8.9642e-07 -1.52112e-08 3.61791e-07)
(-1.18493e-06 -2.15003e-07 4.6649e-07)
(-1.4247e-06 -7.02135e-07 5.9421e-07)
(-1.699e-06 -1.45256e-06 7.02131e-07)
(-2.04142e-06 -2.39732e-06 7.94899e-07)
(-2.4502e-06 -3.36707e-06 8.70287e-07)
(-2.90753e-06 -4.23717e-06 8.59575e-07)
(-3.36691e-06 -4.80569e-06 7.73262e-07)
(-3.764e-06 -5.0248e-06 6.52603e-07)
(-4.01991e-06 -4.90627e-06 5.13824e-07)
(-4.03309e-06 -4.56341e-06 3.75237e-07)
(-3.70621e-06 -4.17509e-06 2.408e-07)
(-3.00774e-06 -4.0247e-06 1.88704e-07)
(-1.91999e-06 -4.00791e-06 1.82647e-07)
(-6.37371e-07 -5.65189e-06 2.45376e-07)
(4.91759e-07 -1.11925e-05 4.91759e-07)
(1.5629e-06 -1.1577e-05 4.4217e-07)
(2.67791e-06 -1.07264e-05 3.87922e-07)
(3.74047e-06 -9.72064e-06 3.4802e-07)
(4.69749e-06 -8.49166e-06 3.36316e-07)
(5.46691e-06 -7.14947e-06 3.53656e-07)
(5.94384e-06 -5.79096e-06 4.04232e-07)
(6.04201e-06 -4.48784e-06 4.68224e-07)
(5.71159e-06 -3.30753e-06 5.40227e-07)
(4.96977e-06 -2.30773e-06 5.94245e-07)
(3.92442e-06 -1.50782e-06 6.22789e-07)
(2.73985e-06 -9.37436e-07 6.29815e-07)
(1.58362e-06 -6.13272e-07 6.29327e-07)
(5.66962e-07 -4.88719e-07 6.3263e-07)
(-2.20628e-07 -5.59369e-07 6.69644e-07)
(-8.10871e-07 -8.10086e-07 7.29519e-07)
(-1.32921e-06 -1.24288e-06 8.14499e-07)
(-1.83426e-06 -1.89103e-06 9.11645e-07)
(-2.37941e-06 -2.72307e-06 9.82796e-07)
(-2.98803e-06 -3.69283e-06 1.00495e-06)
(-3.63147e-06 -4.6374e-06 9.87496e-07)
(-4.28404e-06 -5.43346e-06 9.41792e-07)
(-4.88219e-06 -5.9365e-06 8.81639e-07)
(-5.32742e-06 -6.13054e-06 8.14115e-07)
(-5.51549e-06 -6.06661e-06 7.42472e-07)
(-5.33766e-06 -5.90211e-06 6.79502e-07)
(-4.71932e-06 -5.83528e-06 6.22723e-07)
(-3.67003e-06 -5.99697e-06 5.7848e-07)
(-2.2143e-06 -6.35245e-06 5.62373e-07)
(-6.89357e-07 -7.92007e-06 6.23331e-07)
(2.96255e-07 -1.28867e-05 2.96255e-07)
(1.44981e-06 -1.3694e-05 2.79329e-07)
(3.01321e-06 -1.26926e-05 2.71098e-07)
(4.42221e-06 -1.15873e-05 2.79441e-07)
(5.71213e-06 -1.02287e-05 3.32114e-07)
(6.76962e-06 -8.70738e-06 4.19482e-07)
(7.46159e-06 -7.10413e-06 5.29279e-07)
(7.68345e-06 -5.49704e-06 6.49177e-07)
(7.39413e-06 -3.99099e-06 7.47465e-07)
(6.64077e-06 -2.715e-06 8.23902e-07)
(5.534e-06 -1.75371e-06 8.8414e-07)
(4.2209e-06 -1.16736e-06 9.29051e-07)
(2.85809e-06 -9.64242e-07 9.75374e-07)
(1.53506e-06 -1.06797e-06 1.02491e-06)
(2.82315e-07 -1.3601e-06 1.06717e-06)
(-9.06151e-07 -1.82026e-06 1.10526e-06)
(-2.038e-06 -2.41123e-06 1.11235e-06)
(-3.087e-06 -3.12255e-06 1.06841e-06)
(-4.02744e-06 -3.98128e-06 1.00683e-06)
(-4.86263e-06 -4.94611e-06 9.31605e-07)
(-5.56547e-06 -5.86724e-06 8.74024e-07)
(-6.10328e-06 -6.66383e-06 8.37311e-07)
(-6.46568e-06 -7.24717e-06 8.3149e-07)
(-6.61856e-06 -7.59684e-06 8.4363e-07)
(-6.51016e-06 -7.79007e-06 8.66796e-07)
(-6.06463e-06 -7.97286e-06 8.72432e-07)
(-5.21227e-06 -8.30151e-06 8.58407e-07)
(-3.93259e-06 -8.85886e-06 8.4297e-07)
(-2.27574e-06 -9.56946e-06 8.44832e-07)
(-6.76142e-07 -1.08413e-05 8.99174e-07)
(2.8485e-07 -1.43683e-05 2.8485e-07)
(1.70014e-06 -1.62297e-05 3.33226e-07)
(3.67543e-06 -1.50573e-05 3.69281e-07)
(5.36337e-06 -1.39322e-05 4.39105e-07)
(6.8783e-06 -1.24885e-05 5.45572e-07)
(8.06545e-06 -1.07932e-05 6.64212e-07)
(8.81571e-06 -8.91612e-06 7.82606e-07)
(9.07471e-06 -6.98422e-06 8.69672e-07)
(8.85047e-06 -5.14159e-06 9.44822e-07)
(8.19177e-06 -3.55558e-06 9.96315e-07)
(7.17569e-06 -2.40297e-06 1.04733e-06)
(5.87809e-06 -1.74444e-06 1.11574e-06)
(4.34371e-06 -1.55726e-06 1.18396e-06)
(2.63093e-06 -1.71271e-06 1.24185e-06)
(7.65653e-07 -2.07088e-06 1.25856e-06)
(-1.19643e-06 -2.54835e-06 1.22429e-06)
(-3.09409e-06 -3.13754e-06 1.13272e-06)
(-4.79061e-06 -3.88679e-06 9.96669e-07)
(-6.18027e-06 -4.84393e-06 8.66062e-07)
(-7.16723e-06 -5.90791e-06 7.6827e-07)
(-7.75032e-06 -7.01938e-06 7.20506e-07)
(-8.0147e-06 -8.02352e-06 7.28985e-07)
(-8.0232e-06 -8.82978e-06 7.82656e-07)
(-7.79943e-06 -9.46033e-06 8.50648e-07)
(-7.32177e-06 -1.00001e-05 9.02401e-07)
(-6.52948e-06 -1.05944e-05 9.39202e-07)
(-5.36744e-06 -1.1361e-05 9.71407e-07)
(-3.8541e-06 -1.2306e-05 1.01153e-06)
(-2.09825e-06 -1.32812e-05 1.06234e-06)
(-5.78511e-07 -1.41797e-05 1.13397e-06)
(5.94078e-07 -1.64492e-05 5.94078e-07)
(2.43012e-06 -1.95952e-05 6.79163e-07)
(4.59883e-06 -1.81799e-05 7.58827e-07)
(6.39173e-06 -1.70153e-05 8.42831e-07)
(7.88826e-06 -1.54232e-05 9.51872e-07)
(8.97479e-06 -1.34822e-05 1.03543e-06)
(9.62239e-06 -1.12718e-05 1.07982e-06)
(9.87509e-06 -8.97209e-06 1.07614e-06)
(9.79105e-06 -6.77744e-06 1.05582e-06)
(9.38183e-06 -4.87326e-06 1.06954e-06)
(8.6208e-06 -3.45626e-06 1.09987e-06)
(7.45122e-06 -2.57159e-06 1.16736e-06)
(5.81211e-06 -2.16154e-06 1.24773e-06)
(3.68921e-06 -2.07829e-06 1.29001e-06)
(1.18093e-06 -2.21723e-06 1.27676e-06)
(-1.49089e-06 -2.53393e-06 1.19174e-06)
(-4.08487e-06 -3.098e-06 1.03957e-06)
(-6.37067e-06 -4.00339e-06 8.91429e-07)
(-8.10927e-06 -5.24065e-06 7.85362e-07)
(-9.21043e-06 -6.67229e-06 7.26193e-07)
(-9.7711e-06 -8.19912e-06 7.25121e-07)
(-9.91116e-06 -9.58563e-06 7.71312e-07)
(-9.71719e-06 -1.07543e-05 8.18055e-07)
(-9.20335e-06 -1.17557e-05 8.70657e-07)
(-8.34959e-06 -1.27156e-05 9.21455e-07)
(-7.11508e-06 -1.37745e-05 9.9099e-07)
(-5.50987e-06 -1.49986e-05 1.07804e-06)
(-3.69694e-06 -1.62736e-05 1.18052e-06)
(-1.89235e-06 -1.73536e-05 1.26168e-06)
(-4.96331e-07 -1.77813e-05 1.32385e-06)
(1.16807e-06 -2.00963e-05 1.16807e-06)
(3.48977e-06 -2.39667e-05 1.24018e-06)
(5.54934e-06 -2.22754e-05 1.33642e-06)
(7.23213e-06 -2.09304e-05 1.38344e-06)
(8.51251e-06 -1.90656e-05 1.42793e-06)
(9.39615e-06 -1.67637e-05 1.39803e-06)
(9.95939e-06 -1.41516e-05 1.32284e-06)
(1.02894e-05 -1.14703e-05 1.22509e-06)
(1.04426e-05 -8.94634e-06 1.14021e-06)
(1.03739e-05 -6.73317e-06 1.12198e-06)
(9.92001e-06 -4.96659e-06 1.18408e-06)
(8.88415e-06 -3.63873e-06 1.26126e-06)
(7.12719e-06 -2.69267e-06 1.30347e-06)
(4.64402e-06 -2.07518e-06 1.31041e-06)
(1.62812e-06 -1.77201e-06 1.26253e-06)
(-1.60018e-06 -1.87341e-06 1.16205e-06)
(-4.70383e-06 -2.50755e-06 1.06644e-06)
(-7.35611e-06 -3.73425e-06 9.82963e-07)
(-9.36503e-06 -5.46773e-06 9.31423e-07)
(-1.07339e-05 -7.48275e-06 9.33882e-07)
(-1.15408e-05 -9.54099e-06 9.54115e-07)
(-1.18442e-05 -1.14181e-05 9.76634e-07)
(-1.16706e-05 -1.30782e-05 9.9425e-07)
(-1.09977e-05 -1.45851e-05 1.00693e-06)
(-9.7823e-06 -1.60894e-05 1.04172e-06)
(-8.05168e-06 -1.76861e-05 1.12403e-06)
(-5.98476e-06 -1.93293e-05 1.24924e-06)
(-3.8925e-06 -2.07811e-05 1.37095e-06)
(-2.0473e-06 -2.17571e-05 1.43852e-06)
(-5.90476e-07 -2.16904e-05 1.43223e-06)
(1.87606e-06 -2.60901e-05 1.87606e-06)
(4.6073e-06 -2.92114e-05 1.88982e-06)
(6.31342e-06 -2.73672e-05 1.92501e-06)
(7.86251e-06 -2.56234e-05 1.85992e-06)
(9.00178e-06 -2.33363e-05 1.77754e-06)
(9.82599e-06 -2.05842e-05 1.65216e-06)
(1.04606e-05 -1.75747e-05 1.51106e-06)
(1.10092e-05 -1.458e-05 1.3865e-06)
(1.14752e-05 -1.18048e-05 1.32445e-06)
(1.1688e-05 -9.2799e-06 1.34486e-06)
(1.13706e-05 -7.03337e-06 1.41433e-06)
(1.02773e-05 -5.02202e-06 1.49564e-06)
(8.26791e-06 -3.28714e-06 1.53539e-06)
(5.4326e-06 -1.9242e-06 1.50051e-06)
(2.06681e-06 -1.1206e-06 1.42814e-06)
(-1.4647e-06 -1.07111e-06 1.36262e-06)
(-4.81504e-06 -1.89617e-06 1.31274e-06)
(-7.7236e-06 -3.58554e-06 1.29628e-06)
(-1.00863e-05 -5.92314e-06 1.31169e-06)
(-1.19105e-05 -8.53759e-06 1.34509e-06)
(-1.32046e-05 -1.11615e-05 1.3614e-06)
(-1.39251e-05 -1.3605e-05 1.32629e-06)
(-1.39667e-05 -1.58788e-05 1.28863e-06)
(-1.32271e-05 -1.80758e-05 1.2691e-06)
(-1.17114e-05 -2.0275e-05 1.29354e-06)
(-9.59127e-06 -2.24489e-05 1.38197e-06)
(-7.2139e-06 -2.44069e-05 1.48897e-06)
(-4.92336e-06 -2.58603e-05 1.56824e-06)
(-2.87881e-06 -2.65976e-05 1.55932e-06)
(-9.46279e-07 -2.62326e-05 1.4916e-06)
(2.48288e-06 -3.44551e-05 2.48288e-06)
(5.59177e-06 -3.50946e-05 2.28567e-06)
(7.0965e-06 -3.32186e-05 2.19904e-06)
(8.75073e-06 -3.09797e-05 2.09381e-06)
(1.00631e-05 -2.8177e-05 1.96632e-06)
(1.11257e-05 -2.49894e-05 1.83411e-06)
(1.20591e-05 -2.16907e-05 1.73107e-06)
(1.29149e-05 -1.85009e-05 1.69387e-06)
(1.3594e-05 -1.54927e-05 1.71491e-06)
(1.38099e-05 -1.25858e-05 1.80221e-06)
(1.3247e-05 -9.66778e-06 1.89173e-06)
(1.1724e-05 -6.78177e-06 1.93571e-06)
(9.24967e-06 -4.13448e-06 1.90872e-06)
(6.0555e-06 -2.01358e-06 1.83867e-06)
(2.45816e-06 -7.87679e-07 1.80122e-06)
(-1.2168e-06 -7.02731e-07 1.76262e-06)
(-4.71011e-06 -1.81672e-06 1.77032e-06)
(-7.90664e-06 -3.97619e-06 1.8137e-06)
(-1.07675e-05 -6.82524e-06 1.85878e-06)
(-1.32244e-05 -9.9737e-06 1.87156e-06)
(-1.51476e-05 -1.31556e-05 1.83578e-06)
(-1.63545e-05 -1.62609e-05 1.7887e-06)
(-1.6643e-05 -1.93299e-05 1.71554e-06)
(-1.58953e-05 -2.23876e-05 1.68062e-06)
(-1.42273e-05 -2.5387e-05 1.7132e-06)
(-1.19662e-05 -2.81045e-05 1.78363e-06)
(-9.45664e-06 -3.02508e-05 1.81054e-06)
(-6.90671e-06 -3.16189e-05 1.77095e-06)
(-4.38074e-06 -3.21988e-05 1.69152e-06)
(-1.54431e-06 -3.19138e-05 1.6378e-06)
(2.67946e-06 -4.42992e-05 2.67946e-06)
(6.16678e-06 -4.14973e-05 2.38478e-06)
(8.10799e-06 -3.97031e-05 2.26506e-06)
(1.03464e-05 -3.70497e-05 2.1574e-06)
(1.23156e-05 -3.38024e-05 2.08416e-06)
(1.40252e-05 -3.02998e-05 2.06036e-06)
(1.54923e-05 -2.6814e-05 2.0874e-06)
(1.66385e-05 -2.34454e-05 2.18162e-06)
(1.72272e-05 -2.00808e-05 2.30586e-06)
(1.69666e-05 -1.65593e-05 2.41703e-06)
(1.5677e-05 -1.27709e-05 2.48322e-06)
(1.33675e-05 -8.91946e-06 2.46475e-06)
(1.02488e-05 -5.39177e-06 2.3862e-06)
(6.63774e-06 -2.68201e-06 2.30387e-06)
(2.8127e-06 -1.22916e-06 2.28e-06)
(-1.04063e-06 -1.22532e-06 2.3113e-06)
(-4.8173e-06 -2.60173e-06 2.38197e-06)
(-8.48892e-06 -5.08342e-06 2.45529e-06)
(-1.19979e-05 -8.29905e-06 2.48955e-06)
(-1.51531e-05 -1.1906e-05 2.46439e-06)
(-1.76783e-05 -1.56877e-05 2.39346e-06)
(-1.92824e-05 -1.96088e-05 2.31475e-06)
(-1.97412e-05 -2.36531e-05 2.26559e-06)
(-1.90596e-05 -2.76973e-05 2.25843e-06)
(-1.7467e-05 -3.14825e-05 2.26793e-06)
(-1.52427e-05 -3.46531e-05 2.22479e-06)
(-1.25966e-05 -3.69518e-05 2.14328e-06)
(-9.60464e-06 -3.83613e-05 2.04269e-06)
(-6.22996e-06 -3.90886e-05 1.96378e-06)
(-2.19759e-06 -3.93122e-05 1.95099e-06)
(2.6343e-06 -5.45823e-05 2.6343e-06)
(6.75766e-06 -4.88539e-05 2.34098e-06)
(9.89375e-06 -4.72293e-05 2.27069e-06)
(1.31887e-05 -4.42718e-05 2.2449e-06)
(1.619e-05 -4.07171e-05 2.31179e-06)
(1.87909e-05 -3.69902e-05 2.44341e-06)
(2.08424e-05 -3.32654e-05 2.61558e-06)
(2.20732e-05 -2.94957e-05 2.80046e-06)
(2.22167e-05 -2.54493e-05 2.97186e-06)
(2.10853e-05 -2.09969e-05 3.07179e-06)
(1.87369e-05 -1.61542e-05 3.06e-06)
(1.54633e-05 -1.13595e-05 2.99154e-06)
(1.16052e-05 -7.16083e-06 2.91409e-06)
(7.48423e-06 -4.14501e-06 2.90479e-06)
(3.24945e-06 -2.65575e-06 2.96802e-06)
(-1.06747e-06 -2.77066e-06 3.05832e-06)
(-5.44757e-06 -4.31177e-06 3.14735e-06)
(-9.85065e-06 -6.97567e-06 3.2096e-06)
(-1.41404e-05 -1.04688e-05 3.21403e-06)
(-1.79824e-05 -1.45447e-05 3.1591e-06)
(-2.09913e-05 -1.90652e-05 3.07915e-06)
(-2.28882e-05 -2.39726e-05 3.00676e-06)
(-2.35458e-05 -2.90986e-05 2.95703e-06)
(-2.30571e-05 -3.41207e-05 2.90129e-06)
(-2.16228e-05 -3.85998e-05 2.81171e-06)
(-1.93964e-05 -4.22048e-05 2.6874e-06)
(-1.64126e-05 -4.48387e-05 2.56016e-06)
(-1.26537e-05 -4.66445e-05 2.46235e-06)
(-8.16158e-06 -4.78639e-05 2.40832e-06)
(-2.84718e-06 -4.88268e-05 2.38431e-06)
(2.65338e-06 -6.51843e-05 2.65338e-06)
(7.82056e-06 -5.80658e-05 2.516e-06)
(1.26998e-05 -5.65209e-05 2.57756e-06)
(1.73866e-05 -5.33301e-05 2.64591e-06)
(2.16141e-05 -4.95421e-05 2.80705e-06)
(2.51408e-05 -4.54905e-05 3.01743e-06)
(2.76197e-05 -4.12042e-05 3.25841e-06)
(2.86778e-05 -3.6565e-05 3.47508e-06)
(2.81266e-05 -3.13857e-05 3.61726e-06)
(2.60107e-05 -2.56976e-05 3.67965e-06)
(2.26178e-05 -1.97667e-05 3.65309e-06)
(1.84017e-05 -1.42e-05 3.61597e-06)
(1.37711e-05 -9.63908e-06 3.63875e-06)
(8.93177e-06 -6.55743e-06 3.72628e-06)
(3.90719e-06 -5.1176e-06 3.85453e-06)
(-1.32741e-06 -5.30132e-06 3.97952e-06)
(-6.73792e-06 -6.90971e-06 4.06349e-06)
(-1.21682e-05 -9.70849e-06 4.09048e-06)
(-1.73555e-05 -1.35286e-05 4.059e-06)
(-2.18726e-05 -1.82069e-05 3.99096e-06)
(-2.53385e-05 -2.3647e-05 3.90621e-06)
(-2.75745e-05 -2.96481e-05 3.81808e-06)
(-2.85299e-05 -3.58406e-05 3.70567e-06)
(-2.82736e-05 -4.17446e-05 3.5556e-06)
(-2.68681e-05 -4.69249e-05 3.37962e-06)
(-2.43185e-05 -5.11736e-05 3.21076e-06)
(-2.06099e-05 -5.4514e-05 3.08333e-06)
(-1.57966e-05 -5.70696e-05 3.00248e-06)
(-1.00854e-05 -5.89356e-05 2.94104e-06)
(-3.49111e-06 -6.06584e-05 2.90314e-06)
(3.11949e-06 -7.70786e-05 3.11949e-06)
(9.77332e-06 -7.0139e-05 3.18067e-06)
(1.64607e-05 -6.8463e-05 3.27004e-06)
(2.26317e-05 -6.49584e-05 3.35783e-06)
(2.80682e-05 -6.07858e-05 3.54024e-06)
(3.23926e-05 -5.60692e-05 3.77508e-06)
(3.51584e-05 -5.07421e-05 4.0178e-06)
(3.60028e-05 -4.4712e-05 4.22034e-06)
(3.48419e-05 -3.8017e-05 4.35247e-06)
(3.19171e-05 -3.0925e-05 4.42341e-06)
(2.76869e-05 -2.40159e-05 4.48396e-06)
(2.26208e-05 -1.79091e-05 4.57673e-06)
(1.70305e-05 -1.31713e-05 4.7052e-06)
(1.10465e-05 -1.00606e-05 4.86143e-06)
(4.69321e-06 -8.61454e-06 5.01129e-06)
(-1.98557e-06 -8.76665e-06 5.10897e-06)
(-8.8223e-06 -1.03981e-05 5.14182e-06)
(-1.55227e-05 -1.3415e-05 5.11768e-06)
(-2.17168e-05 -1.77191e-05 5.04764e-06)
(-2.69922e-05 -2.31865e-05 4.95053e-06)
(-3.10574e-05 -2.9653e-05 4.83246e-06)
(-3.37766e-05 -3.67466e-05 4.67444e-06)
(-3.50666e-05 -4.39667e-05 4.47187e-06)
(-3.48774e-05 -5.08099e-05 4.2405e-06)
(-3.31536e-05 -5.69388e-05 4.03028e-06)
(-2.9873e-05 -6.22032e-05 3.87312e-06)
(-2.51191e-05 -6.65764e-05 3.75198e-06)
(-1.9082e-05 -7.00624e-05 3.66776e-06)
(-1.20598e-05 -7.2608e-05 3.60238e-06)
(-4.13609e-06 -7.50795e-05 3.58603e-06)
(4.03312e-06 -9.19046e-05 4.03312e-06)
(1.2575e-05 -8.58561e-05 4.12215e-06)
(2.10128e-05 -8.37308e-05 4.19085e-06)
(2.86389e-05 -7.97265e-05 4.31416e-06)
(3.52173e-05 -7.48426e-05 4.50811e-06)
(4.02685e-05 -6.90342e-05 4.74524e-06)
(4.33225e-05 -6.22181e-05 4.99118e-06)
(4.40964e-05 -5.44317e-05 5.21391e-06)
(4.26043e-05 -4.60076e-05 5.39929e-06)
(3.91595e-05 -3.75234e-05 5.56856e-06)
(3.42125e-05 -2.9697e-05 5.74375e-06)
(2.81546e-05 -2.30997e-05 5.93958e-06)
(2.12336e-05 -1.80993e-05 6.13959e-06)
(1.3581e-05 -1.4781e-05 6.29586e-06)
(5.34072e-06 -1.31548e-05 6.39151e-06)
(-3.23245e-06 -1.31999e-05 6.41175e-06)
(-1.17959e-05 -1.49176e-05 6.36454e-06)
(-1.99488e-05 -1.8291e-05 6.28819e-06)
(-2.73055e-05 -2.3244e-05 6.18151e-06)
(-3.35458e-05 -2.96293e-05 6.03698e-06)
(-3.84074e-05 -3.71623e-05 5.84195e-06)
(-4.16843e-05 -4.53749e-05 5.59009e-06)
(-4.31945e-05 -5.3759e-05 5.32079e-06)
(-4.27883e-05 -6.18455e-05 5.07727e-06)
(-4.03974e-05 -6.93249e-05 4.88063e-06)
(-3.60964e-05 -7.59646e-05 4.73473e-06)
(-3.00926e-05 -8.15819e-05 4.62557e-06)
(-2.26375e-05 -8.60951e-05 4.52e-06)
(-1.40685e-05 -8.93981e-05 4.4638e-06)
(-4.73143e-06 -9.24928e-05 4.51402e-06)
(5.20932e-06 -0.000110956 5.20932e-06)
(1.58634e-05 -0.000105683 5.2459e-06)
(2.6089e-05 -0.000102837 5.32301e-06)
(3.53258e-05 -9.81459e-05 5.47414e-06)
(4.31834e-05 -9.22395e-05 5.70513e-06)
(4.91023e-05 -8.49729e-05 5.98895e-06)
(5.26036e-05 -7.63216e-05 6.28845e-06)
(5.34698e-05 -6.65637e-05 6.5732e-06)
(5.18067e-05 -5.63279e-05 6.84043e-06)
(4.79215e-05 -4.64192e-05 7.11087e-06)
(4.21538e-05 -3.7566e-05 7.38969e-06)
(3.47909e-05 -3.02298e-05 7.64656e-06)
(2.60729e-05 -2.46288e-05 7.84216e-06)
(1.62731e-05 -2.07919e-05 7.95117e-06)
(5.76296e-06 -1.87971e-05 7.9597e-06)
(-4.97849e-06 -1.87346e-05 7.90161e-06)
(-1.54776e-05 -2.06567e-05 7.81052e-06)
(-2.53313e-05 -2.45301e-05 7.68432e-06)
(-3.41638e-05 -3.02616e-05 7.5128e-06)
(-4.16329e-05 -3.76493e-05 7.27853e-06)
(-4.74178e-05 -4.63486e-05 6.99164e-06)
(-5.12136e-05 -5.58973e-05 6.69561e-06)
(-5.27606e-05 -6.58187e-05 6.4289e-06)
(-5.19093e-05 -7.56107e-05 6.20176e-06)
(-4.86839e-05 -8.48368e-05 6.01197e-06)
(-4.32358e-05 -9.31068e-05 5.82121e-06)
(-3.57738e-05 -0.000100154 5.65306e-06)
(-2.6612e-05 -0.000105856 5.56601e-06)
(-1.62545e-05 -0.00011001 5.5577e-06)
(-5.36524e-06 -0.000113351 5.60268e-06)
(6.47484e-06 -0.000134911 6.47484e-06)
(1.95201e-05 -0.000130156 6.48816e-06)
(3.19035e-05 -0.000126511 6.61997e-06)
(4.30729e-05 -0.000120951 6.86885e-06)
(5.242e-05 -0.000113728 7.19658e-06)
(5.93284e-05 -0.000104671 7.56117e-06)
(6.33686e-05 -9.39072e-05 7.93033e-06)
(6.44183e-05 -8.20055e-05 8.28462e-06)
(6.26108e-05 -6.98388e-05 8.62817e-06)
(5.81788e-05 -5.83094e-05 8.98163e-06)
(5.13399e-05 -4.80798e-05 9.31687e-06)
(4.23187e-05 -3.95329e-05 9.5853e-06)
(3.14428e-05 -3.28712e-05 9.74884e-06)
(1.92001e-05 -2.8225e-05 9.80665e-06)
(6.20215e-06 -2.5789e-05 9.78709e-06)
(-6.92998e-06 -2.56834e-05 9.72097e-06)
(-1.968e-05 -2.79186e-05 9.61061e-06)
(-3.16091e-05 -3.24166e-05 9.43254e-06)
(-4.22724e-05 -3.90478e-05 9.17318e-06)
(-5.1213e-05 -4.76005e-05 8.84742e-06)
(-5.79924e-05 -5.77516e-05 8.50799e-06)
(-6.22462e-05 -6.90585e-05 8.19175e-06)
(-6.37356e-05 -8.09915e-05 7.90443e-06)
(-6.23955e-05 -9.28917e-05 7.63832e-06)
(-5.83005e-05 -0.000104152 7.37493e-06)
(-5.15762e-05 -0.000114293 7.1218e-06)
(-4.24348e-05 -0.000123032 6.93841e-06)
(-3.13537e-05 -0.000130083 6.84351e-06)
(-1.90798e-05 -0.000134973 6.767e-06)
(-6.29803e-06 -0.000138223 6.70324e-06)
(7.86459e-06 -0.000164374 7.86459e-06)
(2.37686e-05 -0.000160201 7.93894e-06)
(3.88564e-05 -0.000155725 8.20742e-06)
(5.22832e-05 -0.000149048 8.58975e-06)
(6.32774e-05 -0.000140128 9.01651e-06)
(7.12226e-05 -0.000128898 9.45604e-06)
(7.58162e-05 -0.000115749 9.87667e-06)
(7.70607e-05 -0.000101497 1.02642e-05)
(7.50696e-05 -8.71513e-05 1.06649e-05)
(6.99367e-05 -7.36133e-05 1.10734e-05)
(6.1776e-05 -6.14977e-05 1.14536e-05)
(5.08398e-05 -5.12167e-05 1.17443e-05)
(3.76055e-05 -4.31158e-05 1.19324e-05)
(2.27622e-05 -3.75118e-05 1.20378e-05)
(7.06902e-06 -3.46524e-05 1.20768e-05)
(-8.80084e-06 -3.45802e-05 1.20446e-05)
(-2.4268e-05 -3.72134e-05 1.19202e-05)
(-3.8754e-05 -4.24431e-05 1.16758e-05)
(-5.16299e-05 -5.01657e-05 1.13201e-05)
(-6.2264e-05 -6.02245e-05 1.09231e-05)
(-7.01365e-05 -7.22785e-05 1.05311e-05)
(-7.49049e-05 -8.5818e-05 1.0162e-05)
(-7.6421e-05 -0.000100143 9.80786e-06)
(-7.4671e-05 -0.000114429 9.44263e-06)
(-6.96701e-05 -0.00012798 9.0622e-06)
(-6.15003e-05 -0.000140313 8.72849e-06)
(-5.05061e-05 -0.000150993 8.48087e-06)
(-3.74102e-05 -0.000159357 8.27775e-06)
(-2.30477e-05 -0.000164738 8.01582e-06)
(-7.73019e-06 -0.000167987 7.84142e-06)
(9.56377e-06 -0.000200297 9.56377e-06)
(2.89103e-05 -0.00019709 9.76458e-06)
(4.71102e-05 -0.00019157 1.01651e-05)
(6.29983e-05 -0.00018334 1.06382e-05)
(7.57337e-05 -0.000172205 1.11389e-05)
(8.48067e-05 -0.000158379 1.16167e-05)
(9.01021e-05 -0.000142528 1.20273e-05)
(9.16571e-05 -0.000125651 1.2477e-05)
(8.94673e-05 -0.000108778 1.29805e-05)
(8.35054e-05 -9.27549e-05 1.34983e-05)
(7.38447e-05 -7.82392e-05 1.3972e-05)
(6.08186e-05 -6.5819e-05 1.43633e-05)
(4.50623e-05 -5.60744e-05 1.4672e-05)
(2.73976e-05 -4.94594e-05 1.48922e-05)
(8.61737e-06 -4.61665e-05 1.50158e-05)
(-1.05522e-05 -4.61216e-05 1.50175e-05)
(-2.93344e-05 -4.91868e-05 1.48468e-05)
(-4.68893e-05 -5.53146e-05 1.45126e-05)
(-6.23462e-05 -6.44653e-05 1.40733e-05)
(-7.4934e-05 -7.6498e-05 1.3603e-05)
(-8.41194e-05 -9.09395e-05 1.31328e-05)
(-8.96252e-05 -0.000107107 1.26614e-05)
(-9.13478e-05 -0.000124095 1.21551e-05)
(-8.92141e-05 -0.000141024 1.16131e-05)
(-8.31621e-05 -0.000157221 1.11031e-05)
(-7.33668e-05 -0.000172067 1.06712e-05)
(-6.04388e-05 -0.000184725 1.0289e-05)
(-4.51761e-05 -0.000194238 9.85923e-06)
(-2.81784e-05 -0.000200206 9.43263e-06)
(-9.53898e-06 -0.000204027 9.36959e-06)
(1.1694e-05 -0.000244178 1.1694e-05)
(3.50121e-05 -0.00024202 1.19691e-05)
(5.6479e-05 -0.000234978 1.24368e-05)
(7.49612e-05 -0.000224617 1.29682e-05)
(8.96761e-05 -0.000210728 1.34726e-05)
(0.00010028 -0.000193898 1.39296e-05)
(0.00010668 -0.000175053 1.44647e-05)
(0.00010879 -0.000155269 1.5101e-05)
(0.000106459 -0.000135485 1.58076e-05)
(9.9556e-05 -0.000116525 1.65173e-05)
(8.81955e-05 -9.9198e-05 1.7164e-05)
(7.28476e-05 -8.43735e-05 1.77248e-05)
(5.42606e-05 -7.28457e-05 1.81901e-05)
(3.32965e-05 -6.5094e-05 1.8542e-05)
(1.07924e-05 -6.12155e-05 1.87338e-05)
(-1.23488e-05 -6.11011e-05 1.87259e-05)
(-3.50571e-05 -6.46512e-05 1.84926e-05)
(-5.61774e-05 -7.19453e-05 1.80767e-05)
(-7.46176e-05 -8.29761e-05 1.75643e-05)
(-8.95344e-05 -9.74657e-05 1.69962e-05)
(-0.000100411 -0.000114713 1.63861e-05)
(-0.000106976 -0.000133806 1.57118e-05)
(-0.000109034 -0.000153736 1.4973e-05)
(-0.000106405 -0.000173692 1.42469e-05)
(-9.90935e-05 -0.00019294 1.35919e-05)
(-8.75477e-05 -0.000210448 1.3e-05)
(-7.25173e-05 -0.000224993 1.23669e-05)
(-5.45438e-05 -0.000235799 1.17271e-05)
(-3.40139e-05 -0.000243016 1.13713e-05)
(-1.14471e-05 -0.000247885 1.14597e-05)
(1.41826e-05 -0.000297592 1.41826e-05)
(4.18034e-05 -0.000295728 1.44548e-05)
(6.66464e-05 -0.000286708 1.495e-05)
(8.81432e-05 -0.000273639 1.54106e-05)
(0.000105467 -0.00025659 1.59333e-05)
(0.000118261 -0.000236504 1.65945e-05)
(0.000126289 -0.000214494 1.74196e-05)
(0.00012923 -0.000191541 1.83764e-05)
(0.000126732 -0.000168446 1.93809e-05)
(0.000118675 -0.000146122 2.03435e-05)
(0.000105316 -0.000125669 2.12238e-05)
(8.72611e-05 -0.00010821 2.19998e-05)
(6.53116e-05 -9.46753e-05 2.26554e-05)
(4.03568e-05 -8.55082e-05 2.31328e-05)
(1.33551e-05 -8.07748e-05 2.33726e-05)
(-1.44708e-05 -8.04836e-05 2.33338e-05)
(-4.16851e-05 -8.46743e-05 2.30451e-05)
(-6.68744e-05 -9.35038e-05 2.25661e-05)
(-8.87907e-05 -0.000106882 2.19541e-05)
(-0.000106545 -0.000124239 2.12251e-05)
(-0.000119574 -0.000144622 2.03852e-05)
(-0.000127462 -0.000166956 1.94314e-05)
(-0.000129839 -0.000190288 1.84499e-05)