/*--------------------------------*- C++ -*----------------------------------*\
| =========                 |                                                 |
| \\      /  F ield         | OpenFOAM: The Open Source CFD Toolbox           |
|  \\    /   O peration     | Version:  2312                                  |
|   \\  /    A nd           | Website:  www.openfoam.com                      |
|    \\/     M anipulation  |                                                 |
\*---------------------------------------------------------------------------*/
FoamFile
{
    version     2.0;
    format      ascii;
    arch        "LSB;label=32;scalar=64";
    class       surfaceScalarField;
    location    "1.50315242808";
    object      alphaPhi0.water;
}
// * * * * * * * * * * * * * * * * * * * * * * * * * * * * * * * * * * * * * //

dimensions      [0 3 -1 0 0 0 0];

oriented        oriented;

internalField   nonuniform List<scalar> 
263100
(
-3.32211e-09
6.64392e-09
-3.32211e-09
1.60959e-09
-3.12516e-09
-1.81317e-09
3.89459e-09
-9.18127e-10
-1.37225e-09
5.43045e-09
-7.0238e-10
-8.38764e-10
6.53806e-09
-9.97367e-10
-1.15568e-10
7.47752e-09
-1.41092e-09
4.66041e-10
8.24548e-09
-1.81879e-09
1.04529e-09
8.61064e-09
-1.99788e-09
1.62704e-09
8.34441e-09
-1.79618e-09
2.05664e-09
7.35635e-09
-1.1684e-09
2.15051e-09
5.66686e-09
-2.99347e-10
1.98289e-09
3.42921e-09
6.45605e-10
1.58605e-09
9.8784e-10
1.38086e-09
1.05442e-09
-1.14827e-09
1.67407e-09
4.55856e-10
-2.50059e-09
1.38383e-09
-3.77585e-11
-2.90184e-09
6.06882e-10
-2.1193e-10
-2.37538e-09
-3.48563e-10
-1.84061e-10
-1.31283e-09
-1.15259e-09
8.40436e-11
-4.175e-10
-1.57499e-09
6.73906e-10
-3.52698e-10
-1.32773e-09
1.25742e-09
-1.55287e-09
-4.73703e-10
1.66862e-09
-4.08989e-09
7.79202e-10
1.75276e-09
-7.55394e-09
1.93833e-09
1.52086e-09
-1.08093e-08
2.26929e-09
9.81382e-10
-1.24857e-08
1.34904e-09
3.22703e-10
-1.12855e-08
-7.80452e-10
-4.24289e-10
-6.17021e-09
-4.07301e-09
-1.0466e-09
4.24643e-09
-6.99509e-09
-3.42582e-09
1.76041e-08
-9.0466e-09
-4.31508e-09
4.7269e-08
-2.96747e-08
8.60383e-10
4.91697e-09
8.60381e-10
9.08339e-10
-4.07002e-09
8.86387e-10
9.69525e-10
-1.82442e-09
8.35474e-10
1.06853e-09
-1.55455e-09
7.43499e-10
1.35598e-09
-2.01138e-09
7.16756e-10
1.86216e-09
-2.61126e-09
6.84145e-10
2.54232e-09
-3.13484e-09
6.25651e-10
3.30894e-09
-3.32291e-09
5.47971e-10
4.06966e-09
-3.05981e-09
4.92239e-10
4.67405e-09
-2.28748e-09
5.0394e-10
5.01037e-09
-1.2142e-09
5.67717e-10
5.03847e-09
-1.90233e-10
7.96911e-10
4.68226e-09
6.39002e-10
1.08708e-09
4.0158e-09
8.64273e-10
1.46514e-09
3.01847e-09
5.3155e-10
1.8385e-09
1.68646e-09
-1.88307e-10
2.11624e-09
2.23465e-10
-1.16307e-09
2.26686e-09
-1.19642e-09
-1.94045e-09
2.19746e-09
-2.49007e-09
-2.18987e-09
1.89865e-09
-3.59043e-09
-1.72548e-09
1.48859e-09
-4.54619e-09
-6.37483e-10
1.11034e-09
-5.35586e-09
6.82674e-10
8.97279e-10
-6.04327e-09
1.79374e-09
8.23313e-10
-6.27854e-09
1.61388e-09
8.8226e-10
-6.18713e-09
7.70119e-11
1.17244e-09
-6.21791e-09
-2.64856e-09
1.89095e-09
-6.44947e-09
-6.62398e-09
2.7748e-09
-2.0881e-09
-1.63695e-08
5.00464e-09
1.24571e-08
-3.19933e-08
8.38763e-09
5.66189e-08
3.09057e-09
1.95562e-09
1.00035e-09
1.95562e-09
-3.34053e-10
-2.76413e-09
9.74261e-10
-1.85241e-09
-1.1075e-09
7.92728e-10
-2.84912e-09
-1.01013e-09
4.43543e-10
-3.48146e-09
-1.49625e-09
1.08349e-10
-3.66014e-09
-2.27632e-09
-1.65232e-10
-3.22108e-09
-3.09536e-09
-4.87632e-10
-2.12684e-09
-3.65674e-09
-7.6959e-10
-4.13904e-10
-3.89667e-09
-8.85307e-10
1.71408e-09
-3.62952e-09
-7.95188e-10
3.9814e-09
-2.99635e-09
-4.94431e-10
5.93749e-09
-2.19058e-09
3.50322e-11
7.31641e-09
-1.32337e-09
5.74284e-10
7.56736e-09
-6.23728e-10
1.22789e-09
6.57122e-09
-1.56162e-10
1.67474e-09
4.40631e-09
7.42237e-11
1.89338e-09
1.42337e-09
7.73817e-11
1.73366e-09
-1.70212e-09
-5.51924e-11
1.2316e-09
-4.21858e-09
-2.23334e-10
5.41481e-10
-5.55857e-09
-2.435e-10
-1.50261e-10
-5.52092e-09
-7.82751e-11
-6.04937e-10
-4.27164e-09
2.24999e-10
-7.9955e-10
-2.15187e-09
3.38913e-10
-6.72739e-10
1.13207e-10
-2.85459e-10
-3.73372e-10
2.07397e-09
-1.81533e-09
-7.59263e-11
2.8572e-09
-3.53037e-09
9.12326e-11
6.1073e-11
-4.26854e-09
4.33617e-10
-7.30222e-09
-1.25024e-08
3.48969e-09
-4.67504e-09
-4.31393e-08
8.51726e-09
3.42991e-08
1.76468e-08
1.90795e-09
-2.82082e-09
1.90795e-09
-1.31201e-09
-3.58214e-10
8.04597e-10
-3.40555e-09
4.3281e-10
5.44565e-10
-4.90515e-09
3.7462e-10
1.06167e-10
-6.04766e-09
-1.26518e-10
-2.35957e-10
-6.67772e-09
-1.05018e-09
-6.04819e-10
-6.59276e-09
-2.15198e-09
-1.03705e-09
-5.65227e-09
-3.21307e-09
-1.39281e-09
-3.92256e-09
-4.06534e-09
-1.56963e-09
-1.52759e-09
-4.5004e-09
-1.53258e-09
1.25009e-09
-4.4797e-09
-1.30272e-09
3.91948e-09
-3.9788e-09
-8.89375e-10
5.9351e-09
-2.98477e-09
-3.62254e-10
6.79978e-09
-1.57167e-09
7.54404e-11
6.29939e-09
8.00344e-11
2.5656e-10
4.48839e-09
1.72929e-09
1.48427e-10
1.78884e-09
2.90288e-09
-1.33496e-10
-1.03782e-09
3.38507e-09
-6.2119e-10
-3.21174e-09
3.04922e-09
-1.10616e-09
-4.05434e-09
2.08823e-09
-1.49666e-09
-3.23779e-09
8.46445e-10
-1.74879e-09
-9.87481e-10
-2.14471e-10
-1.81835e-09
2.09508e-09
-1.10199e-09
-1.64913e-09
5.06053e-09
-1.99712e-09
-1.26131e-09
7.11774e-09
-3.09383e-09
-7.86272e-10
8.90394e-09
-4.55818e-09
-7.66034e-10
1.16024e-08
-4.08577e-09
-2.88909e-09
3.24935e-09
-8.98914e-10
-3.25841e-09
-1.08663e-08
-2.61958e-08
-2.83366e-09
1.57612e-08
7.66603e-09
1.542e-09
-5.90998e-09
1.542e-09
-1.46115e-09
2.01418e-09
6.2166e-10
-3.37756e-09
1.90729e-09
4.33563e-10
-4.78262e-09
1.6811e-09
9.025e-11
-5.93195e-09
1.17556e-09
-1.60997e-10
-6.73603e-09
1.52372e-10
-4.0658e-10
-7.05291e-09
-1.14969e-09
-6.93307e-10
-6.80507e-09
-2.59774e-09
-8.70841e-10
-5.9327e-09
-3.87741e-09
-1.06772e-09
-4.43355e-09
-4.8946e-09
-1.11212e-09
-2.50074e-09
-5.35569e-09
-1.06372e-09
-4.4661e-10
-5.09846e-09
-9.41166e-10
1.41008e-09
-4.00792e-09
-8.3993e-10
2.71042e-09
-2.09226e-09
-7.85789e-10
3.29566e-09
3.25677e-10
-8.36689e-10
2.99618e-09
2.9933e-09
-9.70169e-10
1.98698e-09
5.0171e-09
-1.11057e-09
7.34127e-10
5.87936e-09
-1.2471e-09
-1.47686e-10
5.33945e-09
-1.41431e-09
-1.80104e-10
3.69108e-09
-1.57657e-09
7.94738e-10
1.5705e-09
-1.70525e-09
2.75763e-09
-3.88651e-10
-1.79528e-09
5.24182e-09
-1.77554e-09
-1.81748e-09
7.51079e-09
-2.5662e-09
-1.70702e-09
8.65577e-09
-2.8851e-09
-1.36102e-09
8.33538e-09
-3.62501e-09
-6.20221e-10
8.95745e-09
-4.08468e-09
-6.30729e-10
5.95089e-09
3.77872e-09
-1.67887e-09
-6.48215e-09
-9.56671e-09
-4.20334e-09
9.31107e-09
-3.85863e-11
7.13301e-10
-7.3416e-09
7.133e-10
-8.76414e-10
3.36244e-09
2.33422e-10
-1.79033e-09
2.57269e-09
2.41122e-10
-2.43121e-09
2.12669e-09
1.88027e-10
-3.06158e-09
1.60605e-09
1.92853e-10
-3.71899e-09
6.13527e-10
1.89534e-10
-4.361e-09
-7.11469e-10
1.97416e-10
-5.01097e-09
-2.19751e-09
2.43787e-10
-5.58644e-09
-3.58426e-09
2.76797e-10
-5.88482e-09
-4.76577e-09
1.6446e-10
-5.78834e-09
-5.48113e-09
2.43407e-11
-5.19039e-09
-5.52328e-09
-1.77299e-10
-4.05946e-09
-4.72674e-09
-4.15868e-10
-2.49769e-09
-2.98998e-09
-6.67551e-10
-7.34112e-10
-6.05961e-10
-8.35137e-10
9.22429e-10
2.23415e-09
-9.00587e-10
2.23382e-09
4.51722e-09
-8.1486e-10
3.10475e-09
5.65054e-09
-6.45543e-10
3.65006e-09
5.2877e-09
-4.97271e-10
4.06263e-09
3.71231e-09
-4.37912e-10
4.63191e-09
1.51562e-09
-5.19005e-10
5.50265e-09
-5.56671e-10
-7.07878e-10
6.53016e-09
-1.89048e-09
-9.18233e-10
7.44164e-09
-2.38251e-09
-1.10137e-09
7.74609e-09
-1.88889e-09
-1.3073e-09
5.99696e-09
-5.92092e-10
-1.29076e-09
3.10706e-09
-1.21611e-10
-1.08041e-09
2.2561e-09
6.88866e-09
-2.26649e-09
-4.14163e-09
1.86829e-09
-5.04492e-09
8.12464e-09
-2.96186e-09
-6.40533e-10
-6.0648e-09
-6.40534e-10
-3.09888e-11
3.22936e-09
-4.82172e-10
7.48897e-10
2.01799e-09
-2.30556e-10
1.45537e-09
1.45779e-09
-4.27088e-11
1.83769e-09
9.5508e-10
2.6387e-10
1.64172e-09
2.02893e-10
6.02278e-10
7.31574e-10
-7.29861e-10
9.24732e-10
-8.38113e-10
-1.81483e-09
1.18381e-09
-2.8973e-09
-2.8729e-09
1.34524e-09
-5.15665e-09
-3.83171e-09
1.32336e-09
-7.16029e-09
-4.59382e-09
1.11505e-09
-8.31542e-09
-5.06446e-09
6.95635e-10
-8.19036e-09
-5.03096e-09
1.79002e-10
-6.75242e-09
-4.23247e-09
-1.95257e-10
-4.32697e-09
-2.69172e-09
-3.39333e-10
-1.23428e-09
-6.54122e-10
-2.0398e-10
1.82348e-09
1.349e-09
1.10804e-10
4.39613e-09
2.62098e-09
4.56768e-10
6.10108e-09
2.76146e-09
8.20647e-10
6.93421e-09
1.81892e-09
1.05892e-09
7.10814e-09
1.87989e-10
1.15155e-09
6.81716e-09
-1.31082e-09
1.04214e-09
6.25794e-09
-2.20296e-09
8.67867e-10
5.27231e-09
-2.10616e-09
7.04661e-10
3.88107e-09
-8.3979e-10
3.36801e-10
1.75351e-09
1.99668e-09
-4.67222e-10
-1.55836e-09
4.32872e-09
-1.14507e-09
-2.09208e-09
9.72348e-09
-2.30832e-09
-3.90827e-09
7.60761e-09
-3.93079e-09
6.43167e-09
-2.22183e-09
-2.26388e-09
-1.54012e-09
-2.26388e-09
6.69508e-10
1.78172e-09
-1.48778e-09
3.25522e-09
6.32353e-10
-1.20223e-09
5.41797e-09
1.25075e-10
-8.31957e-10
6.88426e-09
-2.03812e-10
-3.08822e-10
7.31492e-09
-4.2691e-10
1.98292e-10
6.43309e-09
-5.52616e-10
7.04475e-10
4.26903e-09
-7.1084e-10
1.06079e-09
1.10757e-09
-9.64403e-10
1.25464e-09
-2.53518e-09
-1.41414e-09
1.22772e-09
-5.98304e-09
-2.15162e-09
1.00901e-09
-8.48432e-09
-3.22491e-09
6.65812e-10
-9.5161e-09
-4.34057e-09
3.46079e-10
-8.8313e-09
-5.02239e-09
1.10189e-10
-6.58694e-09
-4.99709e-09
6.62839e-11
-3.30616e-09
-4.20723e-09
2.7757e-10
3.5648e-10
-2.93453e-09
6.25861e-10
3.75207e-09
-1.79446e-09
1.02429e-09
6.25548e-09
-1.20914e-09
1.47072e-09
7.56637e-09
-1.35742e-09
1.86799e-09
7.72253e-09
-2.11804e-09
2.15123e-09
6.98103e-09
-2.92485e-09
2.35575e-09
5.44979e-09
-3.10947e-09
2.43681e-09
3.1239e-09
-2.11043e-09
2.32806e-09
1.96775e-10
1.3933e-10
1.94471e-09
-2.27456e-09
3.47644e-09
9.87172e-10
-4.70114e-09
6.73185e-09
1.79914e-11
-3.60719e-09
9.16988e-09
-5.46837e-10
-2.42965e-09
7.01885e-09
-5.95673e-10
3.02862e-09
9.67589e-10
-3.24245e-09
4.94376e-09
-3.24245e-09
1.51025e-09
-8.02992e-10
-2.16521e-09
5.26328e-09
-1.21952e-09
-1.89899e-09
8.29094e-09
-1.50239e-09
-1.39767e-09
1.03308e-08
-1.36056e-09
-8.79956e-10
1.10777e-08
-7.98815e-10
-3.70934e-10
1.03031e-08
1.76759e-10
5.04065e-11
8.12669e-09
1.2246e-09
2.47086e-10
4.83618e-09
2.00422e-09
3.29244e-10
9.846e-10
2.12963e-09
3.16307e-10
-2.74342e-09
1.35789e-09
2.28038e-10
-5.74534e-09
-3.17987e-10
1.05328e-10
-7.56519e-09
-2.57539e-09
6.56682e-11
-7.99661e-09
-4.70653e-09
1.2704e-10
-7.03839e-09
-6.1977e-09
2.5412e-10
-4.92459e-09
-6.72648e-09
4.1711e-10
-2.08989e-09
-6.38555e-09
6.27544e-10
9.29638e-10
-5.66394e-09
8.60363e-10
3.62122e-09
-5.04463e-09
1.15319e-09
5.51823e-09
-4.77344e-09
1.52701e-09
6.29623e-09
-4.72233e-09
1.83282e-09
5.78982e-09
-4.54148e-09
2.12804e-09
4.07235e-09
-3.6779e-09
2.28932e-09
1.44456e-09
-1.62309e-09
2.1422e-09
-1.47788e-09
1.32051e-09
1.74125e-09
-3.43374e-09
4.36629e-09
1.06419e-09
-3.93288e-09
6.34549e-09
8.82101e-10
-1.77682e-09
5.69842e-09
1.31113e-09
4.68844e-11
2.83128e-09
2.35888e-09
4.93621e-10
2.57788e-09
-3.00051e-09
1.09463e-08
-3.00051e-09
2.25191e-09
-4.3163e-09
-1.72957e-09
6.10297e-09
-3.70477e-09
-1.35776e-09
9.04644e-09
-3.61276e-09
-8.24644e-10
1.08413e-08
-2.77031e-09
-3.75848e-10
1.13153e-08
-1.20336e-09
-5.89767e-11
1.06152e-08
8.46961e-10
4.16064e-11
8.89124e-09
2.9405e-09
2.13615e-11
6.48452e-09
4.52464e-09
-9.88248e-11
3.73349e-09
5.08084e-09
-1.84045e-10
9.47662e-10
4.26988e-09
-1.0886e-10
-1.62385e-09
2.17388e-09
9.79943e-11
-3.84007e-09
-7.06805e-10
3.66794e-10
-5.52378e-09
-3.59805e-09
5.9497e-10
-6.46411e-09
-5.94205e-09
7.04708e-10
-6.46631e-09
-7.38314e-09
6.78802e-10
-5.37017e-09
-7.965e-09
5.02693e-10
-3.33814e-09
-7.9964e-09
3.18807e-10
-8.66238e-10
-7.75596e-09
2.56689e-10
1.36823e-09
-7.30687e-09
3.14731e-10
2.80695e-09
-6.61677e-09
4.69859e-10
2.96412e-09
-5.28896e-09
6.02584e-10
1.93121e-09
-3.08458e-09
4.49698e-10
3.18269e-10
-6.19349e-11
5.95972e-11
-1.08379e-09
3.10235e-09
-3.74391e-10
-1.26981e-09
4.99158e-09
-4.35987e-10
1.21921e-11
4.82282e-09
2.42248e-10
1.64546e-09
2.92003e-09
1.14528e-09
1.36299e-09
1.45649e-09
1.65646e-09
1.236e-09
6.20273e-10
-6.40946e-10
1.2234e-08
-6.40947e-10
3.11471e-09
-8.63502e-09
5.82028e-10
5.34246e-09
-6.72141e-09
8.05217e-10
6.64134e-09
-5.93289e-09
1.03801e-09
7.06475e-09
-4.37717e-09
1.20113e-09
6.77601e-09
-2.04673e-09
1.15109e-09
6.13926e-09
6.19287e-10
8.84958e-10
5.43646e-09
3.21415e-09
4.51304e-10
4.82685e-09
5.04919e-09
1.09025e-10
4.19336e-09
5.74708e-09
-7.00155e-12
3.29838e-09
5.06285e-09
1.29159e-10
1.83054e-09
3.21413e-09
4.55949e-10
-3.45015e-10
7.2591e-10
7.72261e-10
-3.02178e-09
-1.76569e-09
8.74598e-10
-5.65964e-09
-4.00144e-09
7.2781e-10
-7.57832e-09
-5.76176e-09
3.27795e-10
-8.21945e-09
-7.07149e-09
-2.22433e-10
-7.42813e-09
-8.03192e-09
-7.26827e-10
-5.55288e-09
-8.57271e-09
-1.03096e-09
-3.31713e-09
-8.39437e-09
-1.12228e-09
-1.51051e-09
-7.25857e-09
-1.14072e-09
-5.4237e-10
-5.03728e-09
-1.19785e-09
-2.62621e-10
-1.91244e-09
-1.43244e-09
1.80429e-11
1.28375e-09
-1.60972e-09
7.77495e-10
3.83155e-09
-1.47464e-09
2.23818e-09
4.52302e-09
-9.80621e-10
3.67564e-09
3.61703e-09
-2.22364e-10
3.51613e-09
2.94963e-09
1.37544e-10
1.43272e-09
3.97164e-09
-4.25116e-10
3.76708e-09
-1.09201e-09
3.01082e-09
6.22371e-09
3.01082e-09
2.89497e-09
-1.2074e-08
3.58666e-09
2.01071e-09
-9.7618e-09
3.95212e-09
4.75287e-10
-8.02823e-09
3.65854e-09
-1.09705e-09
-5.86655e-09
3.09045e-09
-2.21072e-09
-3.09543e-09
2.1924e-09
-2.50716e-09
-1.80206e-10
1.12758e-09
-1.6628e-09
2.17124e-09
2.31969e-10
2.23639e-12
3.75095e-09
-3.31566e-10
1.90804e-09
4.37177e-09
-4.93424e-10
3.22213e-09
4.137e-09
-3.49303e-10
3.21329e-09
3.44132e-09
-1.77838e-10
1.65436e-09
2.44856e-09
-1.21876e-10
-1.14322e-09
1.35543e-09
-2.80709e-10
-4.44277e-09
5.79133e-11
-7.16422e-10
-7.26824e-09
-1.59442e-09
-1.29847e-09
-8.90286e-09
-3.5457e-09
-1.84816e-09
-9.06032e-09
-5.56365e-09
-2.26858e-09
-7.96575e-09
-7.13208e-09
-2.49407e-09
-6.23162e-09
-7.61901e-09
-2.46996e-09
-4.43768e-09
-6.683e-09
-2.33207e-09
-2.79957e-09
-4.4448e-09
-2.19582e-09
-1.13739e-09
-1.58185e-09
-1.96082e-09
9.06921e-10
8.62768e-10
-1.5943e-09
3.2968e-09
2.33922e-09
-8.714e-10
5.25367e-09
2.62599e-09
-3.61783e-11
5.59667e-09
2.80266e-09
4.92826e-10
3.85213e-09
4.36031e-09
3.53738e-10
1.49542e-09
6.57394e-09
-2.26627e-10
5.00933e-09
2.70692e-10
6.30005e-09
-6.35834e-09
6.30005e-09
1.08095e-09
-1.23365e-08
5.53005e-09
-3.60669e-09
-9.75079e-09
4.71865e-09
-7.67903e-09
-7.38132e-09
3.46754e-09
-1.08622e-08
-4.6726e-09
2.03207e-09
-1.24093e-08
-1.9345e-09
4.30071e-10
-1.19711e-08
2.10488e-10
-7.83534e-10
-9.58072e-09
1.56834e-09
-1.74061e-09
-5.81449e-09
2.35852e-09
-2.32504e-09
-1.74908e-09
2.78418e-09
-2.42707e-09
1.36428e-09
3.3773e-09
-2.30098e-09
2.73554e-09
4.34097e-09
-2.21641e-09
2.20657e-09
5.40335e-09
-2.36982e-09
2.37618e-10
6.11038e-09
-2.7289e-09
-2.348e-09
5.8669e-09
-3.16553e-09
-4.7358e-09
4.37236e-09
-3.52088e-09
-6.3367e-09
1.81127e-09
-3.69804e-09
-6.9741e-09
-1.18535e-09
-3.68333e-09
-6.81454e-09
-3.7758e-09
-3.45915e-09
-6.08962e-09
-5.11328e-09
-3.17539e-09
-4.89614e-09
-4.97473e-09
-2.84848e-09
-3.1001e-09
-3.74611e-09
-2.44387e-09
-6.07177e-10
-2.15114e-09
-1.87535e-09
2.25721e-09
-8.83425e-10
-1.07241e-09
4.91644e-09
-1.62269e-10
-1.14298e-10
6.19513e-09
6.56217e-10
7.32385e-10
5.4376e-09
2.5351e-09
1.06463e-09
3.56885e-09
5.30398e-09
9.63473e-10
1.94915e-09
7.00172e-09
1.23e-09
5.33692e-09
1.65644e-09
5.84766e-09
-1.80261e-08
5.84766e-09
-3.21908e-09
-5.86832e-09
2.66723e-09
-1.03573e-08
-3.86848e-09
1.31596e-09
-1.56109e-08
-1.63684e-09
-4.31194e-10
-1.89603e-08
5.32864e-10
-1.79584e-09
-1.98664e-08
2.10954e-09
-3.07729e-09
-1.80868e-08
2.49487e-09
-4.00229e-09
-1.41647e-08
2.00552e-09
-4.29635e-09
-9.13452e-09
1.54194e-09
-4.14915e-09
-4.21377e-09
1.83141e-09
-3.90191e-09
-4.98495e-10
3.41785e-09
-3.68805e-09
1.66283e-09
5.95949e-09
-3.71045e-09
2.24555e-09
8.81931e-09
-3.9278e-09
1.78312e-09
1.08763e-08
-4.2315e-09
8.39601e-10
1.12784e-08
-4.39521e-09
-2.5401e-10
9.842e-09
-4.30273e-09
-1.32413e-09
6.94193e-09
-3.98695e-09
-2.37174e-09
3.43043e-09
-3.4946e-09
-3.3997e-09
3.74271e-10
-3.04901e-09
-4.11256e-09
-1.57321e-09
-2.75499e-09
-4.04116e-09
-2.38547e-09
-2.58965e-09
-2.86616e-09
-2.46809e-09
-2.38333e-09
-6.60565e-10
-2.23301e-09
-2.05534e-09
1.93092e-09
-1.78384e-09
-1.62386e-09
3.77843e-09
-6.96e-10
-1.24764e-09
4.1667e-09
1.40865e-09
-1.07535e-09
3.37427e-09
4.75021e-09
-1.35784e-09
2.47957e-09
7.59253e-09
-1.32885e-09
1.2571e-09
8.95899e-09
-6.68773e-10
8.28552e-09
-1.63146e-09
1.00431e-09
-1.99953e-08
1.00431e-09
-8.49078e-09
6.01635e-09
-2.2961e-09
-1.52368e-08
6.41225e-09
-3.45246e-09
-1.94778e-08
7.47878e-09
-4.79336e-09
-2.13289e-08
7.91667e-09
-5.45155e-09
-2.06027e-08
6.91565e-09
-5.45103e-09
-1.7576e-08
4.57745e-09
-5.02831e-09
-1.3159e-08
1.99413e-09
-4.32487e-09
-8.59424e-09
5.63751e-10
-3.50534e-09
-4.64056e-09
9.10262e-10
-2.95063e-09
-1.64755e-09
3.30691e-09
-2.79951e-09
5.40339e-10
6.86088e-09
-3.00593e-09
2.21907e-09
1.05333e-08
-3.30862e-09
3.56523e-09
1.30238e-08
-3.40861e-09
4.52028e-09
1.35743e-08
-3.16517e-09
4.79667e-09
1.22686e-08
-2.61655e-09
4.04307e-09
9.69076e-09
-1.90808e-09
2.26743e-09
6.57621e-09
-1.28238e-09
-1.14163e-10
3.84872e-09
-1.00461e-09
-2.32862e-09
1.81426e-09
-1.08431e-09
-3.55308e-09
2.68797e-10
-1.34051e-09
-3.49203e-09
-7.04684e-10
-1.73426e-09
-2.36599e-09
-1.16721e-09
-2.10044e-09
-1.00433e-09
-5.8918e-10
-2.46348e-09
-5.973e-11
1.46042e-09
-3.00645e-09
5.49255e-11
5.1069e-09
-3.71628e-09
-4.4396e-12
9.13383e-09
-4.22508e-09
-1.66444e-10
1.19076e-08
-4.05072e-09
-6.04884e-10
1.37538e-08
-4.25084e-09
1.22851e-08
-4.50953e-09
-4.27244e-09
-1.13969e-08
-4.27244e-09
-1.10839e-08
1.95181e-08
-6.56649e-09
-1.50356e-08
1.68691e-08
-6.39495e-09
-1.67311e-08
1.55361e-08
-6.25281e-09
-1.62302e-08
1.30347e-08
-5.51205e-09
-1.3958e-08
9.09739e-09
-4.34963e-09
-1.08991e-08
4.58789e-09
-2.96721e-09
-8.03307e-09
9.58062e-10
-1.72996e-09
-5.74275e-09
-7.5742e-10
-8.71051e-10
-4.15001e-09
3.5312e-11
-6.21536e-10
-2.71266e-09
2.88078e-09
-9.16524e-10
-8.08037e-10
6.52457e-09
-1.47486e-09
1.73796e-09
9.94615e-09
-1.86608e-09
4.63062e-09
1.19824e-08
-1.7587e-09
7.01517e-09
1.24644e-08
-1.18168e-09
8.04006e-09
1.16549e-08
-3.17415e-10
7.31352e-09
1.00602e-08
4.51958e-10
4.95332e-09
8.1867e-09
8.46125e-10
1.73207e-09
6.34401e-09
8.24547e-10
-1.21236e-09
4.37426e-09
4.85978e-10
-3.09758e-09
2.23584e-09
2.34061e-11
-3.74899e-09
4.29227e-10
-3.72768e-10
-3.66764e-09
-4.11104e-10
-7.22462e-10
-3.63965e-09
6.93495e-10
-1.18975e-09
-3.92403e-09
3.75562e-09
-1.88341e-09
-4.0892e-09
7.86757e-09
-2.46125e-09
-3.59333e-09
1.13585e-08
-2.57934e-09
-2.81301e-09
1.37619e-08
-2.48681e-09
-1.23563e-09
1.51257e-08
-2.79532e-09
1.14525e-08
-2.64508e-10
-6.69133e-09
2.05703e-09
-6.69133e-09
-8.90587e-09
2.81767e-08
-6.28124e-09
-9.35519e-09
2.28837e-08
-5.42246e-09
-8.44846e-09
1.90967e-08
-4.32869e-09
-6.58793e-09
1.41695e-08
-2.86084e-09
-4.50917e-09
8.49651e-09
-1.34834e-09
-3.09047e-09
3.40742e-09
-1.14356e-10
-2.89096e-09
3.46177e-10
5.30258e-10
-3.53068e-09
-5.87239e-10
5.8129e-10
-4.21926e-09
9.04125e-10
-7.43596e-11
-3.8419e-09
3.55734e-09
-9.5338e-10
-1.95016e-09
6.30088e-09
-1.57194e-09
1.32895e-09
8.33651e-09
-1.57672e-09
4.95259e-09
9.49067e-09
-1.04132e-09
7.69127e-09
9.96744e-09
-1.51893e-10
8.67885e-09
1.01227e-08
6.3477e-10
7.70373e-09
1.00322e-08
1.09483e-09
5.35515e-09
9.47494e-09
1.15512e-09
2.66141e-09
8.1073e-09
1.02989e-09
5.56442e-10
5.71309e-09
8.71966e-10
-7.12587e-10
2.7644e-09
8.54418e-10
-1.50346e-09
2.51924e-10
1.0918e-09
-2.46692e-09
-7.30703e-10
1.41792e-09
-3.73684e-09
5.5396e-10
1.55683e-09
-4.90714e-09
3.5598e-09
1.52695e-09
-5.02229e-09
6.44127e-09
1.71609e-09
-3.97672e-09
8.26903e-09
2.23209e-09
-2.19354e-09
9.14811e-09
3.03112e-09
3.91997e-10
8.55513e-09
4.19586e-09
5.29226e-09
6.73966e-09
-5.35619e-09
1.28614e-08
-5.35619e-09
-3.74684e-09
3.06119e-08
-3.84935e-09
-2.27262e-09
2.44551e-08
-2.87178e-09
-4.57129e-10
1.9284e-08
-1.83438e-09
1.21876e-09
1.35096e-08
-8.54525e-10
2.00596e-09
8.02633e-09
-1.64613e-10
1.47573e-09
4.03594e-09
4.35095e-11
-3.26556e-10
2.45229e-09
-1.73596e-10
-2.45377e-09
2.508e-09
-8.49766e-10
-3.75159e-09
3.78937e-09
-1.48086e-09
-3.38731e-09
5.13071e-09
-1.84182e-09
-1.15613e-09
5.78138e-09
-1.62523e-09
2.02232e-09
6.12404e-09
-8.86873e-10
4.8853e-09
6.53203e-09
1.6967e-10
6.528e-09
7.52459e-09
8.71157e-10
6.67505e-09
8.89192e-09
1.15397e-09
5.70073e-09
1.0096e-08
9.82742e-10
4.4238e-09
1.01697e-08
6.59247e-10
3.52553e-09
8.65453e-09
4.35724e-10
3.12579e-09
5.71195e-09
4.96068e-10
2.74884e-09
2.40159e-09
8.4845e-10
1.65306e-09
1.9022e-10
1.28255e-09
-2.95406e-10
-1.4852e-10
1.51024e-09
-2.29901e-09
1.18773e-09
1.53475e-09
-3.29918e-09
3.07389e-09
1.67316e-09
-2.65549e-09
3.72588e-09
2.28129e-09
-9.30849e-10
3.43435e-09
3.34103e-09
1.21892e-09
2.82336e-09
4.42471e-09
2.14282e-09
2.14897e-09
5.74648e-09
4.17951e-09
3.48764e-09
-3.26692e-09
1.95078e-08
-3.26692e-09
-2.39294e-10
2.98159e-08
-2.0081e-09
1.97241e-09
2.42441e-08
-1.80061e-09
3.61679e-09
1.929e-08
-1.45776e-09
4.65956e-09
1.38787e-08
-1.22992e-09
4.54702e-09
9.374e-09
-1.06735e-09
3.26265e-09
6.51938e-09
-1.04815e-09
1.47528e-09
5.45627e-09
-1.08432e-09
-1.43964e-10
5.32347e-09
-1.08342e-09
-7.34719e-10
5.27879e-09
-8.05097e-10
-3.9336e-11
4.52885e-09
-1.78892e-11
1.57594e-09
3.24059e-09
9.85486e-10
3.00789e-09
2.74674e-09
1.99241e-09
3.41057e-09
3.26069e-09
2.90595e-09
2.9388e-09
5.23171e-09
2.79567e-09
2.17677e-09
7.70084e-09
1.98171e-09
1.93951e-09
9.39672e-09
9.67123e-10
2.4771e-09
9.2824e-09
3.86647e-10
3.51258e-09
7.51568e-09
1.50975e-10
4.16557e-09
4.97684e-09
1.44789e-10
3.47348e-09
3.02133e-09
1.54421e-10
1.42496e-09
2.50514e-09
-1.60652e-10
-1.13926e-09
3.45375e-09
-9.04916e-10
-2.83248e-09
4.97119e-09
-1.92669e-09
-2.66392e-09
5.19911e-09
-2.09857e-09
-1.19875e-09
4.15774e-09
-1.67023e-09
2.94311e-10
3.56604e-09
-1.36832e-09
6.3832e-10
4.4515e-09
-1.69075e-09
-6.3205e-10
6.96379e-09
-3.24521e-09
1.06766e-08
-6.8712e-09
-2.3651e-09
2.43674e-08
-2.3651e-09
8.77872e-10
2.86661e-08
-1.85592e-09
3.2417e-09
2.40154e-08
-1.92208e-09
5.0609e-09
1.92319e-08
-1.55836e-09
6.18422e-09
1.39886e-08
-1.04554e-09
6.38668e-09
9.73089e-09
-3.91504e-10
5.6421e-09
7.16927e-09
2.38731e-10
4.72072e-09
5.74956e-09
7.45614e-10
4.13924e-09
4.60116e-09
1.39351e-09
4.19328e-09
2.97141e-09
2.31556e-09
4.24244e-09
1.03752e-09
3.47837e-09
3.51609e-09
-7.26108e-10
4.70587e-09
1.53645e-09
-4.09608e-10
5.12911e-09
-1.00857e-09
1.60619e-09
4.17734e-09
-3.1416e-09
4.68151e-09
2.65079e-09
-3.64858e-09
7.23131e-09
9.39237e-10
-2.33118e-09
8.18492e-09
-1.41805e-10
6.66534e-11
7.41684e-09
-5.61423e-10
2.04983e-09
6.05642e-09
-5.39846e-10
2.33425e-09
5.21177e-09
-5.1608e-10
6.85311e-10
5.60119e-09
-9.02467e-10
-2.03905e-09
7.32173e-09
-2.03325e-09
-4.17307e-09
8.97555e-09
-3.29347e-09
-4.23371e-09
8.9302e-09
-3.76627e-09
-2.45764e-09
7.11052e-09
-3.51522e-09
-9.20323e-10
6.07679e-09
-3.24508e-09
-6.00064e-10
7.41706e-09
-3.92448e-09
-1.80077e-09
1.13995e-08
-5.47169e-09
-3.4345e-09
1.68502e-08
-7.95774e-09
1.46936e-08
-7.20637e-09
-1.91233e-09
2.83291e-08
-1.91233e-09
1.73697e-09
2.63771e-08
-1.1361e-09
4.47496e-09
2.20833e-08
-6.03541e-10
6.58336e-09
1.68891e-08
4.24073e-10
7.90962e-09
1.15413e-08
1.29181e-09
8.20671e-09
7.56651e-09
2.01258e-09
8.03268e-09
4.90209e-09
2.55604e-09
7.76469e-09
3.01786e-09
3.08066e-09
7.51973e-09
9.64009e-10
3.92755e-09
6.75511e-09
-9.10397e-10
4.65644e-09
4.73085e-09
-2.17335e-09
5.21144e-09
1.07641e-09
-1.79704e-09
4.67112e-09
-3.34401e-09
8.39989e-10
3.09045e-09
-6.87818e-09
4.09006e-09
9.49284e-10
-8.54475e-09
7.25022e-09
-1.01765e-09
-7.40513e-09
7.93934e-09
-1.97071e-09
-4.27544e-09
6.9773e-09
-2.04527e-09
-1.22161e-09
5.83382e-09
-1.58675e-09
-6.01782e-12
5.80041e-09
-1.06096e-09
-9.90364e-10
7.3636e-09
-1.24708e-09
-3.17577e-09
9.90163e-09
-2.16613e-09
-4.84603e-09
1.20544e-08
-3.07903e-09
-4.47898e-09
1.17141e-08
-3.08321e-09
-2.31495e-09
8.94696e-09
-2.11618e-09
-4.24517e-10
6.11494e-09
-7.87758e-10
-2.77372e-10
6.50132e-09
-4.24205e-10
-1.48156e-09
1.00967e-08
-1.29322e-09
-2.54234e-09
1.49594e-08
-2.29133e-09
-1.42491e-09
1.86378e-08
-2.68437e-09
1.32922e-08
1.46354e-10
2.2881e-11
2.84123e-08
2.2875e-11
3.81205e-09
2.14299e-08
1.3338e-09
6.38025e-09
1.76195e-08
2.05423e-09
7.98126e-09
1.25612e-08
2.87042e-09
8.31449e-09
7.78016e-09
3.54918e-09
7.80095e-09
4.27476e-09
3.8976e-09
7.20875e-09
1.73115e-09
3.82115e-09
6.75005e-09
-8.80229e-11
3.58461e-09
5.89708e-09
-1.55973e-09
3.35694e-09
4.04648e-09
-2.11901e-09
2.99962e-09
4.91194e-10
-8.66068e-10
2.15026e-09
-4.0948e-09
2.09458e-09
5.6182e-10
-8.33159e-09
6.13604e-09
-1.22184e-09
-1.03824e-08
8.51565e-09
-2.56155e-09
-9.35775e-09
8.70747e-09
-2.68582e-09
-6.13007e-09
6.61336e-09
-2.11474e-09
-2.82298e-09
4.39826e-09
-9.42274e-10
-1.48024e-09
4.27506e-09
8.51247e-12
-2.4258e-09
6.5508e-09
2.1929e-12
-4.52091e-09
1.04028e-08
-1.1151e-09
-5.70191e-09
1.31974e-08
-2.25738e-09
-4.50351e-09
1.30932e-08
-2.34639e-09
-1.28229e-09
9.51534e-09
-1.09504e-09
1.60178e-09
5.2671e-09
7.6062e-10
2.05654e-09
3.96653e-09
1.69404e-09
5.00858e-10
6.70734e-09
1.38089e-09
-9.82638e-10
1.07758e-08
8.58726e-10
-8.21492e-10
1.3416e-08
1.4491e-09
8.63981e-10
1.42196e-08
2.79963e-09
1.14668e-08
2.70944e-09
2.52702e-09
2.34572e-08
2.52701e-09
5.52161e-09
1.4713e-08
3.8044e-09
6.8597e-09
1.19277e-08
4.42733e-09
6.71299e-09
8.24447e-09
4.52149e-09
5.37112e-09
5.11007e-09
4.048e-09
3.93917e-09
2.55141e-09
3.16368e-09
2.7867e-09
6.48291e-10
2.21145e-09
2.11164e-09
-1.01601e-09
1.54368e-09
1.12157e-09
-1.79259e-09
1.12632e-09
-9.44282e-10
-9.24629e-10
7.37368e-10
-4.17296e-09
2.21997e-09
-2.74911e-11
-7.42017e-09
6.20117e-09
-1.06268e-09
-8.93508e-09
8.80569e-09
-1.38668e-09
-7.94639e-09
8.30328e-09
-1.03086e-09
-4.89843e-09
5.18484e-09
2.04457e-10
-1.96075e-09
1.66434e-09
1.73283e-09
-1.21085e-09
2.98829e-10
3.07015e-09
-2.9043e-09
2.79235e-09
2.90321e-09
-5.5914e-09
7.6567e-09
1.32152e-09
-7.03203e-09
1.19997e-08
-3.96986e-10
-5.61025e-09
1.24123e-08
-8.54209e-10
-1.67927e-09
8.81462e-09
1.55217e-10
2.12205e-09
3.89785e-09
1.64836e-09
3.05762e-09
1.64275e-09
2.54219e-09
1.32584e-09
3.6882e-09
1.87873e-09
-5.13053e-10
7.96174e-09
4.59933e-10
-9.5773e-10
1.06686e-08
4.24096e-10
-2.05624e-10
1.12554e-08
1.26702e-09
5.41253e-10
1.21962e-08
1.11202e-09
1.13295e-08
4.85972e-10
4.33977e-09
1.48194e-08
4.33976e-09
4.98804e-09
9.40548e-09
4.60486e-09
4.76524e-09
7.84619e-09
4.25417e-09
3.129e-09
6.24201e-09
3.57634e-09
1.03464e-09
4.52754e-09
2.59851e-09
-8.48874e-10
2.7436e-09
1.59414e-09
-1.77298e-09
4.60618e-10
9.93344e-10
-2.2298e-09
-1.62621e-09
9.25389e-10
-3.08822e-09
-2.13799e-09
1.03776e-09
-4.91611e-09
-1.94609e-10
9.069e-10
-6.86064e-09
3.38919e-09
5.60118e-10
-7.581e-09
6.39023e-09
2.93719e-10
-6.10623e-09
6.3952e-09
6.79206e-10
-2.83395e-09
2.98779e-09
1.77241e-09
-4.41741e-11
-1.05609e-09
3.17142e-09
5.0303e-10
-3.21546e-09
4.04982e-09
-1.81807e-09
-1.05456e-09
3.39426e-09
-5.02516e-09
4.15409e-09
1.57263e-09
-6.81963e-09
9.28682e-09
-9.71881e-11
-5.38721e-09
1.05148e-08
-1.95819e-10
-1.38962e-09
6.89077e-09
1.28846e-09
2.48591e-09
1.90308e-09
2.80978e-09
3.19745e-09
-1.24508e-09
4.20762e-09
8.45596e-10
3.16263e-10
3.44724e-09
-1.75979e-09
4.26934e-09
1.77386e-09
-2.7446e-09
7.42834e-09
1.23578e-09
-2.71161e-09
9.12557e-09
1.18416e-09
-2.0401e-09
9.53334e-09
6.74031e-10
-3.98037e-10
9.08002e-09
1.04692e-09
7.07522e-09
3.43476e-09
4.09454e-09
6.58948e-09
4.09453e-09
3.07345e-09
6.52544e-09
3.68233e-09
1.78791e-09
5.71529e-09
3.21848e-09
-1.93876e-10
5.48276e-09
2.53942e-09
-2.32931e-09
4.68983e-09
1.76919e-09
-3.82796e-09
2.7071e-09
1.33096e-09
-4.62367e-09
-2.10882e-10
1.26406e-09
-5.63883e-09
-2.24803e-09
1.43518e-09
-7.19694e-09
-2.02397e-09
1.24315e-09
-8.78222e-09
3.86494e-10
8.02944e-10
-9.13148e-09
3.4997e-09
3.63044e-11
-7.29906e-09
4.48452e-09
-1.30798e-10
-3.74041e-09
2.10742e-09
5.24256e-10
-4.52239e-10
-1.84173e-09
1.33744e-09
7.27808e-10
-4.40026e-09
1.9638e-09
-7.94492e-10
-2.92628e-09
1.03927e-09
-3.1914e-09
1.85672e-09
-6.99099e-10
-4.22607e-09
6.81622e-09
-1.80207e-09
-2.26801e-09
8.45721e-09
-1.29325e-09
2.11674e-09
5.27745e-09
6.93759e-10
5.80783e-09
1.23506e-10
2.91616e-09
5.9067e-09
-3.02712e-09
4.65882e-09
2.59527e-09
-2.38509e-09
4.25151e-09
-1.54474e-09
1.82767e-09
2.38358e-09
-3.50429e-09
4.11133e-09
1.80896e-09
-3.63613e-09
4.43034e-09
2.74129e-09
-3.74926e-09
6.12633e-09
2.63363e-09
-1.66521e-09
5.31383e-09
1.56683e-09
2.0268e-09
3.91166e-10
4.35296e-09
2.89263e-09
5.61507e-09
3.1314e-09
1.88029e-10
3.13139e-09
1.47561e-09
5.15699e-09
2.64018e-09
-1.9776e-10
4.96563e-09
2.07886e-09
-2.01318e-09
5.55634e-09
1.40895e-09
-3.7006e-09
5.1381e-09
9.26176e-10
-5.05988e-09
3.15019e-09
6.31613e-10
-6.62985e-09
6.16041e-10
4.92828e-10
-8.71253e-09
-5.94796e-10
2.16513e-10
-1.09435e-08
4.61965e-10
-4.3067e-10
-1.21066e-08
2.83017e-09
-1.4216e-09
-1.0881e-08
3.81089e-09
-1.64705e-09
-7.21768e-09
1.79055e-09
-1.05283e-09
-2.97568e-09
-2.22465e-09
2.89937e-11
-4.19792e-10
-5.44009e-09
1.00131e-09
-4.09867e-10
-5.23324e-09
8.00184e-10
-1.27856e-09
-1.86727e-09
-1.95556e-10
-1.049e-09
2.64434e-09
-1.00599e-09
1.7338e-09
4.48349e-09
-4.24738e-10
6.61138e-09
2.31823e-09
1.29477e-09
1.01631e-08
-1.41055e-09
3.16807e-09
9.88564e-09
-3.95455e-09
4.37067e-09
6.04826e-09
-2.78228e-09
3.57171e-09
1.06134e-09
8.68056e-10
1.65397e-09
-2.14845e-09
4.54177e-09
3.32297e-10
-2.77921e-09
3.93117e-09
5.40676e-10
-2.25283e-09
1.92568e-09
1.58435e-09
-1.95325e-09
3.2881e-09
2.01603e-09
3.61625e-10
-1.3369e-10
2.49331e-09
1.88289e-09
-4.83101e-09
2.97625e-09
5.72351e-09
-1.57806e-09
1.55932e-09
-3.16547e-09
1.5593e-09
-1.57918e-10
5.45797e-09
9.01793e-10
-1.56648e-09
5.71422e-09
2.04483e-10
-2.80316e-09
6.77082e-09
-4.01583e-10
-3.90982e-09
6.60144e-09
-7.32475e-10
-5.33709e-09
5.06577e-09
-8.00728e-10
-7.62581e-09
3.53304e-09
-8.66957e-10
-1.05473e-08
3.30514e-09
-1.13857e-09
-1.26404e-08
4.02397e-09
-1.55092e-09
-1.24803e-08
4.0698e-09
-1.40882e-09
-9.73517e-09
1.6331e-09
-5.11422e-10
-5.43027e-09
-3.29811e-09
8.94415e-10
-1.85855e-09