/*--------------------------------*- C++ -*----------------------------------*\
| =========                 |                                                 |
| \\      /  F ield         | OpenFOAM: The Open Source CFD Toolbox           |
|  \\    /   O peration     | Version:  2312                                  |
|   \\  /    A nd           | Website:  www.openfoam.com                      |
|    \\/     M anipulation  |                                                 |
\*---------------------------------------------------------------------------*/
FoamFile
{
    version     2.0;
    format      ascii;
    arch        "LSB;label=32;scalar=64";
    class       volScalarField;
    location    "1.50315242808";
    object      alpha.water;
}
// * * * * * * * * * * * * * * * * * * * * * * * * * * * * * * * * * * * * * //

dimensions      [0 0 0 0 0 0 0];

internalField   nonuniform List<scalar> 
90000
(
1
1.00005
1.00004
1.00003
1.00003
1.00003
1.00002
1.00001
1
0.999994
0.999987
0.999982
0.99998
0.999981
0.999986
0.999994
1
1.00001
1.00001
1.00002
1.00001
1.00001
1.00001
1
1
1.00001
1.00002
1.00002
1.00002
1.00003
1.00005
1.00007
1.00006
1.00005
1.00004
1.00003
1.00002
1.00001
0.999993
0.999981
0.999971
0.999967
0.999968
0.999974
0.999984
0.999995
1.00001
1.00001
1.00002
1.00002
1.00001
1.00001
1
1.00001
1.00001
1.00002
1.00003
1.00002
0.999983
0.999845
1.00004
1.00005
1.00004
1.00004
1.00003
1.00002
1.00001
1.00001
0.999995
0.999986
0.999978
0.999971
0.999968
0.999968
0.99997
0.999974
0.999979
0.999984
0.999988
0.999991
0.999993
0.999994
0.999996
1
1.00001
1.00002
1.00004
1.00007
1.00014
0.999993
1.00003
1.00003
1.00002
1.00002
1.00002
1.00001
1.00001
1
0.999999
0.999993
0.999986
0.999978
0.99997
0.999964
0.999959
0.999956
0.999956
0.99996
0.999966
0.999974
0.999981
0.999988
0.999993
0.999997
1
1
0.999997
0.999992
1.00006
1.00001
1.00001
0.999998
0.999998
0.999998
0.999999
1
1
1.00001
1.00001
1.00001
1
0.999994
0.999985
0.999974
0.999965
0.999958
0.999955
0.999958
0.999964
0.999974
0.999983
0.99999
0.999995
0.999998
1
1.00001
1.00001
1
1.00002
1
0.999996
0.99997
0.999973
0.999976
0.999981
0.999989
0.999998
1.00001
1.00001
1.00002
1.00002
1.00001
1.00001
0.999998
0.999988
0.99998
0.999975
0.999975
0.999979
0.999986
0.999993
0.999999
1
1.00001
1.00001
1.00001
1.00001
1
1
0.999991
0.999979
0.999949
0.999955
0.999959
0.999967
0.999978
0.99999
1
1.00001
1.00002
1.00003
1.00003
1.00003
1.00002
1.00001
1.00001
1
0.999996
0.999995
0.999996
1
1
1.00001
1.00001
1.00002
1.00001
1.00001
1
0.999991
0.999989
0.999966
0.999942
0.999949
0.999954
0.999962
0.999972
0.999983
0.999994
1
1.00001
1.00002
1.00003
1.00003
1.00003
1.00003
1.00002
1.00001
1
0.999997
0.999994
0.999995
1
1.00001
1.00001
1.00001
1.00001
1
0.999995
0.999991
0.999997
0.999964
0.999958
0.999963
0.999967
0.999972
0.999977
0.999982
0.999986
0.999991
0.999996
1
1.00001
1.00002
1.00002
1.00002
1.00002
1.00001
0.999999
0.99999
0.999984
0.999984
0.999987
0.999992
0.999995
0.999994
0.99999
0.999986
0.999986
0.999993
1
0.999976
0.999995
0.999997
0.999999
0.999999
0.999996
0.999992
0.999988
0.999984
0.999984
0.999988
0.999994
1
1.00001
1.00001
1.00001
1
0.999995
0.999987
0.999982
0.999979
0.999978
0.999976
0.999973
0.999968
0.999966
0.999969
0.999979
0.999991
0.999996
1
1.00004
1.00004
1.00004
1.00003
1.00002
1.00001
0.999998
0.999988
0.999983
0.999983
0.999988
0.999995
1
1.00001
1.00001
1
1
0.999999
0.999996
0.999991
0.999984
0.999975
0.999966
0.999961
0.999964
0.999974
0.999986
0.999993
0.999993
1.00003
1.00008
1.00007
1.00007
1.00005
1.00004
1.00002
1
0.999993
0.999986
0.999984
0.999986
0.99999
0.999995
1
1
1.00001
1.00001
1.00002
1.00002
1.00001
1
0.999989
0.999982
0.999982
0.999989
0.999998
1
1
0.999999
1.00006
1.00008
1.00007
1.00006
1.00004
1.00003
1.00001
0.999999
0.999991
0.999986
0.999984
0.999983
0.999983
0.999985
0.99999
0.999999
1.00001
1.00002
1.00003
1.00003
1.00002
1.00001
1.00001
1
1.00001
1.00001
1.00001
1.00001
1
0.999996
1.00005
1.00004
1.00003
1.00002
1
0.999995
0.999988
0.999986
0.999986
0.999986
0.999984
0.999981
0.999977
0.999977
0.999982
0.999992
1
1.00001
1.00002
1.00002
1.00002
1.00001
1.00001
1.00001
1.00001
1.00001
0.999998
0.999985
0.999977
0.999974
1.00002
0.999977
0.999971
0.999965
0.999963
0.999967
0.999975
0.999984
0.999992
0.999995
0.999992
0.999987
0.999981
0.99998
0.999983
0.999992
1
1.00001
1.00001
1.00001
1.00001
1.00001
1.00001
1.00001
1
0.999991
0.999974
0.999963
0.999959
0.999964
0.999977
0.999927
0.999932
0.999938
0.999949
0.999965
0.999983
0.999998
1.00001
1.00001
1
0.999996
0.99999
0.999989
0.999992
0.999996
0.999998
0.999999
0.999999
1
1.00001
1.00001
1.00002
1.00001
1
0.999991
0.999981
0.99998
0.999984
1
0.999951
0.999914
0.99993
0.999945
0.999962
0.999981
0.999997
1.00001
1.00001
1.00001
1
0.999996
0.999995
0.999996
0.999997
0.999996
0.999992
0.999989
0.999989
0.999995
1.00001
1.00001
1.00002
1.00002
1.00001
1.00001
1.00001
1.00002
1.00003
1.00005
0.999951
0.999934
0.99995
0.999963
0.999976
0.999988
0.999994
0.999996
0.999994
0.999991
0.99999
0.999993
0.999998
1
1
0.999993
0.999984
0.999978
0.999979
0.999986
0.999994
1
0.999999
0.999996
0.999995
1
1.00001
1.00002
1.00003
1.00001
0.999966
0.999957
0.999966
0.999972
0.999977
0.99998
0.999981
0.99998
0.99998
0.999985
0.999994
1.00001
1.00002
1.00002
1.00001
0.999995
0.999982
0.999976
0.999976
0.999979
0.99998
0.999975
0.999968
0.999963
0.999965
0.999972
0.999977
0.999975
0.999962
0.999932
0.999977
0.99997
0.999973
0.999976
0.999979
0.999982
0.999984
0.999988
0.999995
1.00001
1.00002
1.00003
1.00004
1.00003
1.00001
0.999998
0.999989
0.999987
0.999988
0.999986
0.999978
0.999967
0.999958
0.999955
0.999959
0.999962
0.999957
0.999941
0.999918
0.999923
0.999983
0.999985
0.999989
0.999996
1
1.00001
1.00001
1.00002
1.00002
1.00003
1.00004
1.00004
1.00003
1.00002
1
0.999997
1
1.00001
1.00001
1
0.999993
0.999983
0.99998
0.999985
0.999991
0.999991
0.999981
0.999969
0.999966
1
0.999993
1.00001
1.00002
1.00003
1.00003
1.00003
1.00003
1.00003
1.00003
1.00003
1.00003
1.00002
1
0.999994
0.999994
1.00001
1.00002
1.00003
1.00003
1.00002
1.00001
1.00001
1.00001
1.00002
1.00002
1.00002
1.00001
1.00001
1.00003
1.00004
1.00001
1.00004
1.00004
1.00004
1.00004
1.00003
1.00003
1.00002
1.00002
1.00001
1.00001
0.999996
0.999989
0.999993
1.00001
1.00003
1.00004
1.00004
1.00003
1.00002
1.00002
1.00002
1.00003
1.00003
1.00002
1.00002
1.00001
1.00002
1.00002
0.999998
1.00003
1.00004
1.00003
1.00003
1.00002
1.00002
1.00002
1.00002
1.00002
1.00001
1.00001
0.999997
0.999997
1.00001
1.00002
1.00003
1.00003
1.00002
1.00001
1
1.00001
1.00003
1.00004
1.00003
1.00002
1.00002
1.00002
1.00001
0.999991
0.999991
1.00002
1.00002
1.00001
1.00001
1.00001
1.00001
1.00002
1.00003
1.00002
1.00002
1
0.999996
0.999995
1
1.00001
1
0.999986
0.999973
0.999974
0.999992
1.00002
1.00003
1.00004
1.00003
1.00003
1.00002
1.00002
1
1
1.00003
1.00001
0.999995
0.999996
0.999997
1
1.00001
1.00001
1.00002
1.00001
0.999999
0.999987
0.999983
0.999986
0.999989
0.999986
0.999975
0.999965
0.999968
0.999986
1.00001
1.00003
1.00003
1.00002
1.00002
1.00001
1.00001
0.999997
0.999998
1.00002
1
0.999995
0.999974
0.999976
0.999976
0.999981
0.999987
0.999993
0.999993
0.999989
0.999984
0.999985
0.999993
1
1.00001
1
0.999995
0.999996
1.00001
1.00003
1.00004
1.00003
1.00001
1
0.999998
0.999995
0.99999
0.999985
0.999995
0.99999
0.99995
0.999982
0.999953
0.999956
0.999959
0.999966
0.999975
0.999982
0.999986
0.999988
0.999994
1
1.00002
1.00003
1.00002
1.00002
1.00001
1.00002
1.00003
1.00003
1.00002
1
0.999994
0.999996
1
0.999995
0.999997
0.999998
0.999986
0.999955
0.999979
0.999969
0.999948
0.999958
0.999966
0.999975
0.999981
0.999985
0.999986
0.99999
0.999998
1.00001
1.00001
1.00001
1.00001
1
1.00001
1.00001
1.00001
0.999999
0.99998
0.999973
0.999981
0.999994
0.999999
0.999992
1
0.999997
0.999964
0.999972
1.00002
0.999971
0.999968
0.999978
0.99998
0.999978
0.999974
0.999971
0.999973
0.999982
0.999993
1
1
0.999998
0.999993
0.999995
1
1
0.99999
0.999976
0.999966
0.999972
0.999977
0.999979
0.999981
0.999972
0.999979
0.999975
0.999966
1.00001
0.999986
0.999988
0.99998
0.999975
0.999966
0.999959
0.999959
0.999967
0.99998
0.999995
1.00001
1.00001
1.00001
1
1
1
1.00001
1
0.999991
0.999988
0.999991
0.999995
0.999981
0.999963
0.999974
0.999965
0.999961
0.999976
0.999996
0.999992
0.999966
0.99999
0.999961
0.999954
0.999955
0.999966
0.99998
0.999993
1
1.00001
1
0.999996
0.999991
0.999993
1
1.00001
1.00001
1.00001
1.00001
1.00001
1.00001
1
0.999981
0.999961
0.999985
0.999975
0.999963
0.999995
0.999996
0.999961
0.999987
0.999974
0.999953
0.999967
0.999984
0.999998
1
0.999994
0.99998
0.999967
0.999961
0.999963
0.999975
0.999992
1.00001
1.00001
1.00001
1
1.00001
1.00001
0.999986
0.999973
0.999971
0.999961
0.999986
0.999978
0.999974
0.999996
0.999971
0.999977
0.999996
0.999973
0.999984
1
1.00001
0.999996
0.999978
0.999957
0.999945
0.999946
0.999958
0.999979
1
1.00001
1.00001
1
0.99999
0.999979
0.999975
0.999966
0.999941
0.999947
0.999983
0.999967
0.999971
0.999979
0.999988
0.999987
0.999978
0.999995
0.999988
0.999996
1.00001
1
0.999989
0.999976
0.999966
0.999962
0.999966
0.999975
0.999989
1
1.00001
1.00001
0.999994
0.999978
0.99998
0.999974
0.999971
0.999971
0.999966
0.999982
1.00002
0.99998
0.99997
0.999997
1
0.999989
0.999994
0.999987
0.999996
1
0.999995
0.99999
0.99999
0.999991
0.999988
0.999982
0.999979
0.999982
0.999987
0.999993
0.999995
0.999985
0.999983
0.999977
1
1
0.999995
1
1.00001
1.00001
1.00002
0.999987
0.999992
1.00002
1
1
0.999995
1.00001
1.00002
0.999996
0.999998
1.00001
1
0.99999
0.999974
0.999968
0.999972
0.999982
0.999986
0.999983
0.99998
0.999973
0.999997
0.999993
1.00001
1.00001
0.999987
1
1.00002
0.999991
1
0.999998
1.00001
1.00002
0.999991
1.00001
1.00001
1.00003
1.00001
1
1.00001
0.999998
0.999979
0.99997
0.999976
0.999989
0.999996
0.999994
0.999981
0.999971
0.999985
0.999977
1.00002
1.00001
0.999994
0.999992
0.999984
1.00001
1.00002
0.99998
0.999987
1.00001
0.999999
0.999988
0.999982
1
1
0.999996
0.999995
1.00001
0.999987
0.999975
0.999982
1
1.00002
1.00001
0.999996
0.99998
0.999978
0.99998
1.00001
0.999985
0.999997
1
0.999976
0.999997
1
1.00001
1
0.999972
0.999981
1.00001
0.999981
0.999973
0.999991
0.999991
0.999982
1
1.00004
0.99999
0.99998
0.999998
1.00002
1.00002
1.00001
0.99999
0.999977
0.999983
1
0.999983
0.999997
0.999983
0.999964
1.00002
0.999992
0.999995
0.99999
0.999983
0.999973
0.999993
0.999996
1
0.999981
0.999972
1
0.99999
1.00001
1.00004
1.00005
0.99999
1
1.00001
1.00001
0.999995
0.999979
0.999976
0.999988
0.999992
1
0.999982
0.999969
1.00002
0.999966
1
0.999998
0.999984
0.99999
1.00001
0.999994
1.00001
0.999996
0.999974
1
0.999981
1.00001
1
1.00003
1.00001
1
1
1
0.999997
0.999992
0.99998
0.999977
0.999994
1.00001
0.999986
0.999982
1.00001
0.999994
1.00003
0.999995
0.999968
1.00001
1.00002
0.999992
1
0.999992
0.999995
1.00002
0.999997
1.00001
0.999986
0.999994
1.00003
1.00003
0.999983
0.999937
0.999998
1
0.999999
0.999995
1
1
0.999989
0.999987
1
1.00002
0.999989
1
0.999988
1.00003
0.999972
0.999991
1
0.99998
0.999996
1.00003
1.00001
0.999991
0.999979
0.999963
1.00002
1.00001
0.99998
0.999969
1.00003
0.999948
1
1.00002
0.999998
1
1.00001
0.99999
0.99998
0.999997
0.999986
1.00001
0.999958
1.00002
0.99999
1
0.999986
0.999974
0.999998
1.00002
0.999986
0.999974
0.999991
0.99999
1
0.999961
0.999999
1.00002
0.999987
0.999987
1.00002
0.999946
1.00001
1.00001
1.00001
0.999982
0.999958
1.00001
1.00001
0.999997
1
1.00005
0.999995
0.999965
1.00003
0.999974
0.999986
1.00001
0.999987
1.00001
1.00002
0.999988
0.999991
0.999992
0.999997
1.00004
0.99996
0.99997
1.00001
1.00006
0.999979
0.999844
0.999989
0.999996
0.999998
0.999995
0.99996
1.00001
1.00001
1.00002
0.999959
0.999963
1.00006
0.999971
0.999969
1.00001
0.999969
0.99998
1.00004
0.99997
0.999979
1.00001
0.999983
0.999982
0.999976
1.00001
0.999974
1.00001
1.00001
0.999975
1.00007
0.999922
0.999981
0.999999
0.999964
1.00002
0.999977
0.999995
0.999963
1.00001
0.999995
1.00001
0.999934
1.00004
0.999994
0.999944
1
0.99999
0.999965
1
1.00002
0.99998
0.999991
1.00002
0.999997
0.999995
1
0.999945
1
0.999992
1.00002
1.00006
0.999997
0.999999
0.999953
1.00001
0.999992
1
1
1.00002
0.999972
1.00001
0.99998
0.999996
1.00001
1
1
1
0.999999
1
1.00001
1
1
0.999988
0.999992
0.999993
1.00002
1.00002
0.999989
0.999968
0.999989
1
0.999981
0.999999
1
1
1
1.00001
1
1
1
1
0.999995
0.999999
1
1
1.00001
1
1
1
1
1
1
1
0.999998
0.999998
1
1
1.00002
1
1
0.999986
0.732709
0.836362
0.802726
0.840851
0.846921
0.847483
0.850794
0.839161
0.840369
0.802742
0.852007
0.80388
0.841596
0.807009
0.861316
0.807909
0.854276
0.816545
0.866201
0.828787
0.789707
0.837557
0.838012
0.849268
0.856071
0.824615
0.831134
0.800313
0.837423
0.735166
0.112945
0.171982
0.159435
0.155258
0.152494
0.183057
0.175002
0.156176
0.155984
0.135202
0.158212
0.140895
0.177748
0.142105
0.173612
0.139338
0.173209
0.153025
0.172749
0.144861
0.12301
0.155473
0.16056
0.161266
0.179294
0.152093
0.154605
0.154985
0.173294
0.116827
0.000557758
0.000148496
0.000623262
0.000512331
0.000473359
0.00021779
0.00018441
0.000616386
0.000510953
0.000930559
0.000395336
0.00050962
0.000320962
0.000620919
0.00018523
0.000534007
0.000235104
0.000593443
0.000163011
0.000219961
0.000583208
0.000215597
0.000572897
0.000328615
0.000120485
0.000489427
0.000725249
0.00112584
0.0001728
0.000526129
1.30553e-05
0.00010937
9.42823e-05
4.72719e-05
0.00052964
0.000141825
7.38253e-05
0.000124969
0.000416928
0.00138223
0.000565778
0.000957752
0.00018457
0.000741269
0.000127574
0.000617191
0.000115171
0.00015282
0.000139638
0.000178238
0.00138648
0.000209934
0.000145243
0.000497045
0.000101938
0.00036462
6.82005e-05
0.000126502
6.84068e-05
7.34839e-07
3.83171e-07
1.72429e-05
1.78429e-05
2.22645e-06
1.7729e-05
5.63236e-06
4.3078e-06
1.49951e-05
4.75324e-06
1.75641e-06
5.1487e-05
2.50087e-06
3.17547e-06
3.38558e-06
2.83397e-06
1.36498e-06
5.64096e-06
4.64548e-06
1.33536e-05
4.81726e-06
1.43368e-06
8.10523e-05
5.17886e-05
1.12394e-05
1.80581e-06
5.94985e-06
1.89037e-06
2.33509e-05
1.72858e-05
3.56285e-07
1.40561e-07
1.22775e-06
1.96446e-06
2.47547e-07
3.33427e-07
1.30423e-08
3.11875e-07
3.81305e-06
1.03007e-05
5.82149e-07
6.42665e-06
4.22986e-06
4.51482e-06
3.97705e-06
1.44951e-06
1.20508e-06
4.05837e-06
4.45284e-06
4.10611e-06
4.14624e-06
2.36515e-07
1.25447e-05
1.30829e-05
1.9078e-06
3.65471e-09
6.53756e-09
3.22315e-08
1.89038e-06
5.94651e-07
1.28302e-07
9.58541e-08
1.67884e-07
1.22098e-07
1.99776e-08
3.5375e-09
3.71722e-10
7.08813e-08
9.48119e-07
1.50983e-06
9.2366e-08
2.78546e-07
2.43604e-06
5.58361e-06
4.27794e-06
2.2161e-06
1.59865e-06
4.58254e-06
4.35363e-06
3.96881e-06
1.55616e-06
2.41515e-07
1.97943e-06
1.13783e-06
9.50018e-08
1.83519e-10
7.70438e-09
1.04497e-08
1.39983e-07
1.94132e-08
1.07147e-07
3.33622e-09
1.61237e-09
4.62838e-09
1.15309e-07
8.92203e-08
3.32669e-10
1.20019e-10
1.88697e-11
3.61992e-11
5.57004e-09
1.11342e-07
5.65138e-07
1.15176e-06
2.05732e-06
3.37947e-06
3.37947e-06
2.20231e-06
6.93477e-07
3.65926e-07
1.13562e-07
3.33267e-08
5.95839e-11
1.61325e-11
5.19753e-11
1.36081e-10
1.42055e-07
1.7317e-07
1.3768e-08
1.39447e-09
3.55996e-09
4.61642e-10
1.22776e-09
1.73277e-10
2.6705e-08
2.68986e-08
2.43727e-09
1.21945e-10
1.84802e-11
2.88852e-11
1.75054e-09
4.56702e-09
3.36949e-10
1.05516e-09
2.29156e-07
3.17967e-06
3.30704e-06
2.67582e-07
8.78344e-10
2.62555e-10
4.11705e-11
2.30108e-09
1.24918e-10
1.45734e-11
8.19687e-11
2.55723e-09
3.27725e-08
3.88914e-08
1.51928e-10
1.00136e-09
4.25883e-10
3.32367e-10
6.85202e-10
1.32156e-10
3.87622e-11
3.77153e-11
3.31092e-10
9.09523e-11
1.84702e-11
2.12699e-11
1.39492e-10
6.47133e-11
8.08136e-11
1.2952e-10
2.89771e-10
3.12599e-07
4.9426e-07
3.75844e-09
9.4565e-11
3.54821e-11
1.20225e-11
1.63224e-10
2.94984e-11
1.4541e-11
7.82504e-11
2.94853e-10
2.22036e-11
2.30447e-11
1.3092e-10
5.90219e-10
3.27133e-10
1.78691e-10
2.55651e-10
1.05978e-10
4.39219e-11
3.76552e-11
3.87582e-11
2.34356e-11
8.83918e-12
4.47987e-12
1.2508e-11
2.22872e-11
7.05593e-11
7.06115e-11
4.26128e-11
1.4622e-10
1.98563e-10
6.72623e-11
5.09873e-11
2.91974e-11
1.19579e-11
1.53024e-11
3.14471e-12
8.22873e-12
2.06383e-11
3.2519e-11
2.21213e-11
4.23206e-11
1.05828e-10
2.5068e-10
1.79905e-10
3.77441e-11
6.51469e-11
3.46613e-11
1.59554e-11
1.2353e-11
5.11504e-12
2.57331e-12
1.4525e-12
1.06378e-12
1.5381e-12
3.48735e-12
9.33688e-12
1.47482e-11
2.97466e-11
1.21201e-11
1.11606e-11
3.32048e-11
1.53675e-11
6.16256e-12
3.31657e-12
1.53582e-12
1.08437e-12
1.39289e-12
2.22227e-12
4.42011e-12
1.11282e-11
1.60458e-11
3.39755e-11
6.53839e-11
3.75197e-11
3.80909e-12
8.7065e-12
5.40669e-12
2.15867e-12
1.41351e-12
5.64385e-13
2.47723e-13
1.74936e-13
2.12842e-13
4.31111e-13
1.0028e-12
2.43236e-12
4.97487e-12
6.85174e-12
9.71968e-12
8.9506e-12
7.45156e-12
4.86166e-12
2.30337e-12
9.88521e-13
4.38782e-13
2.22585e-13
1.69137e-13
2.2267e-13
4.98913e-13
1.41555e-12
2.02212e-12
5.31524e-12
8.75423e-12
3.77739e-12
2.80145e-13
6.38564e-13
5.04782e-13
2.12819e-13
8.75283e-14
3.34601e-14
1.38986e-14
1.11098e-14
1.75627e-14
4.42521e-14
1.15626e-13
3.08096e-13
6.99303e-13
1.12901e-12
1.96299e-12
1.8749e-12
1.15521e-12
6.8368e-13
3.17856e-13
1.16047e-13
4.52355e-14
1.76385e-14
1.08902e-14
1.27609e-14
2.95421e-14
8.22735e-14
2.06579e-13
5.03594e-13
6.38612e-13
2.79451e-13
1.35879e-14
3.49501e-14
2.55417e-14
1.03215e-14
2.99692e-15
9.24109e-16
3.65523e-16
3.16054e-16
5.50931e-16
1.46929e-15
4.57407e-15
1.46867e-14
3.68927e-14
8.06973e-14
1.46665e-13
1.49934e-13
8.16949e-14
3.71784e-14
1.48814e-14
4.66716e-15
1.49885e-15
5.54581e-16
3.10889e-16
3.33908e-16
8.10787e-16
2.76407e-15
1.03156e-14
2.57507e-14
3.53513e-14
1.35512e-14
3.51886e-16
1.13485e-15
6.57507e-16
2.30258e-16
6.3777e-17
1.82134e-17
7.50645e-18
7.58708e-18
1.38611e-17
3.70068e-17
1.19144e-16
4.03657e-16
1.12303e-15
2.6638e-15
4.8261e-15
5.01752e-15
2.69581e-15
1.13621e-15
4.08099e-16
1.2182e-16
3.7904e-17
1.4128e-17
7.43922e-18
6.78021e-18
1.57824e-17
5.87993e-17
2.29336e-16
6.61431e-16
1.14979e-15
3.52678e-16
6.25126e-18
2.22427e-17
1.20873e-17
4.05216e-18
1.15523e-18
3.35444e-19
1.53446e-19
1.86829e-19
3.65175e-19
9.61368e-19
2.94845e-18
9.52757e-18
2.62435e-17
6.01103e-17
1.05856e-16
1.08722e-16
6.07536e-17
2.64284e-17
9.64617e-18
3.02833e-18
9.87469e-19
3.72895e-19
1.84362e-19
1.39218e-19
2.88219e-19
1.07203e-18
4.04144e-18
1.21581e-17
2.2535e-17
6.26005e-18
9.51178e-20
3.59964e-19
1.97853e-19
6.66391e-20
1.8875e-20
5.522e-21
2.88023e-21
4.15452e-21
8.51338e-21
2.18382e-20
6.43678e-20
1.98266e-19
5.22492e-19
1.15506e-18
1.96654e-18
2.00065e-18
1.16649e-18
5.29262e-19
2.01933e-19
6.61642e-20
2.25117e-20
8.74763e-21
4.17307e-21
2.65917e-21
4.70792e-21
1.74652e-20
6.67925e-20
2.00697e-19
3.65907e-19
9.57072e-20
1.23426e-21
5.10391e-21
2.85375e-21
9.51807e-22
2.65383e-22
7.78174e-23
4.86127e-23
8.13263e-23
1.68458e-22
4.14697e-22
1.16333e-21
3.40494e-21
8.69014e-21
1.87155e-20
3.06365e-20
3.09027e-20
1.88495e-20
8.83166e-21
3.48548e-21
1.19493e-21
4.26681e-22
1.73111e-22
8.23355e-23
4.62094e-23
6.67764e-23
2.43738e-22
9.53157e-22
2.87183e-21
5.21956e-21
1.25814e-21
1.3823e-23
6.11815e-23
3.48128e-23
1.16523e-23
3.14941e-24
9.52503e-25
7.51484e-25
1.38399e-24
2.80387e-24
6.50986e-24
1.71851e-23
4.78108e-23
1.16804e-22
2.40406e-22
3.80353e-22
3.84323e-22
2.43094e-22
1.17741e-22
4.86388e-23
1.77744e-23
6.7514e-24
2.89724e-24
1.40958e-24
7.33679e-25
8.21965e-25
2.88176e-24
1.15266e-23
3.49047e-23
6.30656e-23
1.395e-23
1.3164e-25
6.36228e-25
3.61321e-25
1.21025e-25
3.21246e-26
1.03914e-26
1.04891e-26
1.99611e-26
3.86044e-26
8.39559e-26
2.07921e-25
5.41425e-25
1.23972e-24
2.44102e-24
3.80383e-24
3.86323e-24
2.50807e-24
1.2626e-24
5.52051e-25
2.16098e-25
8.78178e-26
4.03724e-26
2.06263e-26
1.04003e-26
8.99487e-27
2.92065e-26
1.1906e-25
3.60328e-25
6.40663e-25
1.31207e-25
1.10591e-27
5.53565e-27
3.21346e-27
1.05944e-27
2.82792e-28
1.01028e-28
1.26345e-28
2.41823e-28
4.45327e-28
8.98055e-28
2.02861e-27
4.76766e-27
1.01601e-26
1.92723e-26
2.92548e-26
2.92837e-26
1.95411e-26
1.04961e-26
4.9823e-27
2.1274e-27
9.40851e-28
4.70358e-28
2.56385e-28
1.29496e-28
8.92871e-29
2.53638e-28
1.04147e-27
3.14596e-27
5.50404e-27
1.0651e-27
8.17399e-30
4.1091e-29
2.46291e-29
8.20355e-30
2.14489e-30
8.77803e-31
1.30555e-30
2.48291e-30
4.26335e-30
7.75147e-30
1.56536e-29
3.33471e-29
6.69016e-29
1.20448e-28
1.74477e-28
1.74921e-28
1.23843e-28
7.17824e-29
3.65218e-29
1.69035e-29
8.2362e-30
4.54868e-30
2.66942e-30
1.38218e-30
7.99273e-31
1.86468e-30
7.6677e-30
2.33773e-29
4.06363e-29
7.62566e-30
5.48363e-32
2.79659e-31
1.69139e-31
5.6316e-32
1.45638e-32
7.0945e-33
1.19937e-32
2.1493e-32
3.29216e-32
5.29795e-32
9.65581e-32
1.89057e-31
3.48185e-31
5.75017e-31
7.96588e-31
8.16904e-31
6.0719e-31
3.70605e-31
2.03856e-31
1.0659e-31
5.91395e-32
3.62417e-32
2.28996e-32
1.23783e-32
6.47647e-33
1.18478e-32
4.85237e-32
1.51345e-31
2.61794e-31
4.86497e-32
3.33852e-34
1.67096e-33
1.0283e-33
3.29763e-34
8.74736e-35
5.12035e-35
9.1178e-35
1.50476e-34
2.09584e-34
3.08805e-34
5.0888e-34
8.6494e-34
1.36583e-33
2.04312e-33
2.78626e-33
2.95391e-33
2.30664e-33
1.52377e-33
9.4904e-34
5.67928e-34
3.5146e-34
2.35726e-34
1.62519e-34
9.50404e-35
4.8051e-35
6.69967e-35
2.69233e-34
8.5705e-34
1.46009e-33
2.73813e-34
1.80618e-36
8.64519e-36
5.33597e-36
1.69777e-36
4.46069e-37
3.12449e-37
5.69607e-37
8.94003e-37
1.16853e-36
1.56573e-36
2.20734e-36
3.14153e-36
4.44206e-36
6.45082e-36
8.61902e-36
8.81824e-36
6.97959e-36
5.07907e-36
3.64231e-36
2.47475e-36
1.70756e-36
1.28066e-36
9.89045e-37
6.34294e-37
3.18014e-37
3.39385e-37
1.28894e-36
4.14644e-36
6.94546e-36
1.35072e-36
8.82281e-39
4.08339e-38
2.44971e-38
7.61615e-39
1.98499e-39
1.7318e-39
3.26856e-39
4.79185e-39
5.57834e-39
6.27876e-39
7.27706e-39
9.17608e-39
1.2392e-38
1.65814e-38
1.9177e-38
1.80095e-38
1.55082e-38
1.36509e-38
1.16107e-38
8.89321e-39
6.86207e-39
5.83486e-39
5.08615e-39
3.56633e-39
1.80672e-39
1.52075e-39
5.24858e-39
1.71703e-38
2.88289e-38
5.92008e-39
3.80665e-41
1.69531e-40
1.01664e-40
2.91014e-41
8.23485e-42
8.6112e-42
1.55948e-41
2.0455e-41
2.06839e-41
2.00816e-41
2.11877e-41
2.55046e-41
3.04371e-41
3.28617e-41
3.24248e-41
3.16915e-41
3.2362e-41
3.25744e-41
2.98211e-41
2.49069e-41
2.22289e-41
2.22918e-41
2.24088e-41
1.72204e-41
8.91474e-42
6.14389e-42
1.8798e-41
6.33696e-41
1.08205e-40
2.31349e-41
1.45827e-43
6.24719e-43
3.61223e-43
1.01035e-43
3.12963e-44
3.51599e-44
5.88655e-44
7.12082e-44
6.46159e-44
5.78685e-44
5.74302e-44
5.99056e-44
5.48477e-44
4.76672e-44
4.59861e-44
5.05306e-44
5.47955e-44
5.5511e-44
5.47214e-44
5.54922e-44
6.25581e-44
7.46969e-44
8.49442e-44
6.917e-44
3.68969e-44
2.2548e-44
6.08065e-44
2.10857e-43
3.61233e-43
7.84941e-44
4.68706e-46
2.03969e-45
1.0872e-45
3.23456e-46
9.92114e-47
1.16918e-46
1.96045e-46
2.19619e-46
1.8347e-46
1.4489e-46
1.21783e-46
9.84536e-47
7.24745e-47
5.80395e-47
5.87784e-47
6.41537e-47
6.51211e-47
6.76983e-47
8.15824e-47
1.07706e-46
1.48087e-46
2.00801e-46
2.39689e-46
2.15126e-46
1.25945e-46
7.47767e-47
1.74208e-46
6.05589e-46
1.03594e-45
2.313e-46
1.40302e-48
5.57967e-48
3.20459e-48
9.20215e-49
2.61596e-49
3.24452e-49
5.2574e-49
5.06232e-49
3.88252e-49
2.58959e-49
1.84717e-49
1.31949e-49
9.35526e-50
7.41109e-50
6.70211e-50
5.97634e-50
5.61339e-50
6.85038e-50
1.07124e-49
1.73669e-49
2.70048e-49
4.11448e-49
5.29098e-49
5.70036e-49
3.837e-49
2.25378e-49
4.36135e-49
1.50052e-48
2.63517e-48
6.19787e-49
3.84578e-51
1.4166e-50
9.07808e-51
2.19778e-51
6.23297e-52
7.51272e-52
1.05759e-51
9.3046e-52
6.2256e-52
3.71312e-52
2.4859e-52
1.76092e-52
1.20149e-52
7.97084e-53
5.4967e-53
4.26773e-53
4.64779e-53
7.55648e-53
1.43632e-52
2.56994e-52
4.26214e-52
7.11344e-52
1.08209e-51
1.29613e-51
9.7853e-52
5.64191e-52
9.71131e-52
3.40508e-51
6.3551e-51
1.5667e-51
8.59228e-54
3.90096e-53
2.08776e-53
4.656e-54
1.29304e-54
1.36942e-54
1.82693e-54
1.58808e-54
9.79822e-55
5.53703e-55
3.62609e-55
2.40317e-55
1.37354e-55
7.32134e-56
4.55635e-56
4.00392e-56
5.37429e-56
9.63939e-56
1.83139e-55
3.23838e-55
5.58403e-55
1.03238e-54
1.82306e-54
2.33169e-54
1.88222e-54
1.09525e-54
1.93506e-54
7.25488e-54
1.45599e-53
3.65956e-54
2.0359e-56
9.01846e-56
4.16117e-56
1.00155e-56
2.31627e-57
2.1703e-57
2.85222e-57
2.37216e-57
1.33235e-57
7.28015e-58
4.52046e-58
2.614e-58
1.28519e-58
6.65231e-59
4.67093e-59
4.67955e-59
6.19446e-59
9.99576e-59
1.80969e-58
3.36156e-58
6.57875e-58
1.40513e-57
2.79022e-57
3.65025e-57
3.00056e-57
1.77713e-57
3.418e-57
1.3986e-56
3.01128e-56
7.5776e-57
4.35751e-59
1.54772e-58
8.29121e-59
1.89393e-59
3.8571e-60
3.94367e-60
4.4698e-60
3.35384e-60
1.71045e-60
8.91234e-61
4.9636e-61
2.54381e-61
1.21726e-61
7.02283e-62
5.49452e-62
5.39717e-62
6.488e-62
9.91124e-62
1.95849e-61
4.27231e-61
9.57585e-61
2.1793e-60
4.31364e-60
5.35479e-60
4.23838e-60
2.53959e-60
5.27021e-60
2.35278e-59
5.35639e-59
1.34193e-59
6.32087e-62
2.47394e-61
1.40845e-61
2.5435e-62
5.96662e-63
6.82667e-63
6.58608e-63
4.85043e-63
2.41877e-63
1.1964e-63
5.98334e-64
2.83797e-64
1.37157e-64
8.23384e-65
6.17931e-65
5.56414e-65
6.60888e-65
1.11452e-64
2.54893e-64
6.1273e-64
1.38104e-63
2.95378e-63
5.54311e-63
6.53404e-63
5.33461e-63
3.3881e-63
7.07785e-63
3.33217e-62
7.91633e-62
1.96515e-62
8.57086e-65
4.43878e-64
1.9312e-64
2.94807e-65
8.38393e-66
8.54034e-66
7.87566e-66
6.11178e-66
3.05723e-66
1.40303e-66
6.35092e-67
2.79918e-67
1.27766e-67
6.98499e-68
4.67795e-68
4.12007e-68
5.50185e-68
1.10217e-67
2.79834e-67
6.74149e-67
1.43814e-66
2.98065e-66
5.95985e-66
7.5215e-66
7.22436e-66
4.83477e-66
8.65684e-66
3.95681e-65
9.49014e-65
2.37413e-65
1.49102e-67
8.37546e-67
1.84933e-67
3.55155e-68
1.00395e-68
9.73578e-69
9.19345e-69
7.01752e-69
3.25249e-69
1.31449e-69
5.30261e-70
2.15259e-70
9.02551e-71
4.44948e-71
2.87803e-71
2.84444e-71
4.57452e-71
1.04094e-70
2.67755e-70
6.17908e-70
1.3052e-69
2.91689e-69
6.767e-69
9.91923e-69
1.04977e-68
6.85527e-69
9.79241e-69
4.32332e-68
1.05349e-67
2.50469e-68
2.19738e-70
6.4688e-70
1.89553e-70
4.22044e-71
1.24952e-71
1.17233e-71
1.09218e-71
7.49489e-72
3.08312e-72
1.09386e-72
4.12687e-73
1.67938e-73
7.12178e-74
3.61052e-74
2.54787e-74
2.82817e-74
4.79815e-74
1.04696e-73
2.46468e-73
5.39458e-73
1.18693e-72
2.94924e-72
7.55374e-72
1.17476e-71
1.21436e-71
7.59237e-72
1.06488e-71
4.45495e-71
1.06528e-70
2.52442e-71
1.67658e-73
6.11312e-73
2.83712e-73
6.52943e-74
1.43994e-74
1.22485e-74
1.1122e-74
7.10233e-75
2.73354e-75
9.32446e-76
3.6774e-76
1.62289e-76
7.32301e-77
3.88879e-77
2.82591e-77
3.02383e-77
4.58067e-77
8.58695e-77
1.82913e-76
4.04171e-76
9.705e-76
2.6346e-75
6.91971e-75
1.02805e-74
1.00534e-74
6.42547e-75
9.82656e-75
3.95575e-74
9.58459e-74
2.59115e-74
2.12389e-76
1.04486e-75
5.04331e-76
7.89312e-77
1.52356e-77
1.23225e-77
1.18018e-77
7.74067e-78
3.0082e-78
1.06768e-78
4.46358e-79
2.00644e-79
8.78177e-80
4.42709e-80
2.9721e-80
2.80037e-80
3.65237e-80
6.17404e-80
1.31891e-79
3.21236e-79
8.52001e-79
2.39551e-78
6.0262e-78
8.28643e-78
7.87072e-78
5.49143e-78
8.55222e-78
3.54985e-77
9.26735e-77
2.6333e-77
3.19845e-79
1.30829e-78
5.26481e-79
8.25483e-80
1.67199e-80
1.48097e-80
1.52587e-80
1.02124e-80
4.00838e-81
1.43579e-81
5.82099e-82
2.41249e-82
9.59127e-83
4.4858e-83
2.84525e-83
2.5281e-83
3.19118e-83
5.52167e-83
1.27492e-82
3.37079e-82
9.13271e-82
2.44387e-81
5.64941e-81
7.46538e-81
7.10759e-81
5.29529e-81
8.19969e-81
3.39878e-80
8.61903e-80
2.33049e-80
3.14757e-82
1.25586e-81
6.06005e-82
1.04037e-82
2.35334e-83
2.242e-83
2.16416e-83
1.24493e-83
4.39292e-84
1.38715e-84
4.88177e-85
1.76641e-85
6.57713e-86
3.16132e-86
2.15992e-86
2.07801e-86
2.81794e-86
5.21065e-86
1.25522e-85
3.33541e-85
8.72486e-85
2.22551e-84
5.04923e-84
7.00652e-84
7.04629e-84
5.43815e-84
7.84839e-84
3.17124e-83
7.84539e-83
1.82908e-83
4.87358e-85
2.75883e-84
1.29147e-84
2.16904e-85
4.99229e-86
4.13712e-86
3.17394e-86
1.31142e-86
3.42418e-87
8.23141e-88
2.31839e-88
7.41065e-89
2.82644e-89
1.55497e-89
1.22704e-89
1.31555e-89
1.89597e-89
3.61703e-89
8.77868e-89
2.32652e-88
6.21554e-88
1.70203e-87
4.35478e-87
7.20594e-87
8.13805e-87
6.39153e-87
8.42823e-87
3.08247e-86
6.89378e-86
1.62822e-86
1.17795e-87
5.94147e-87
2.29656e-87
4.27365e-88
9.41429e-89
6.36207e-89
3.86131e-89
1.18063e-89
2.49263e-90
5.31867e-91
1.41908e-91
4.70365e-92
1.84987e-92
1.00669e-92
7.731e-93
8.14165e-93
1.1505e-92
2.2301e-92
5.61033e-92
1.5755e-91
4.70065e-91
1.50465e-90
4.56414e-90
8.98344e-90
1.10747e-89
8.65797e-90
1.05384e-89
3.5245e-89
7.49148e-89
1.86004e-89
1.81595e-90
5.88044e-90
2.47709e-90
5.58174e-91
1.20426e-91
6.12075e-92
3.35261e-92
1.09283e-92
2.75219e-93
6.77769e-94
1.95892e-94
6.47881e-95
2.3067e-95
1.07217e-95
7.05245e-96
6.89547e-96
9.56964e-96
1.9237e-95
5.07365e-95
1.4938e-94
4.71752e-94
1.6185e-93
5.27573e-93
1.1145e-92
1.40737e-92
1.07949e-92
1.28068e-92
4.16235e-92
9.04495e-92
2.25535e-92
9.07751e-94
1.79379e-93
1.44447e-93
4.49629e-94
8.43463e-95
4.18626e-95
2.99003e-95
1.42376e-95
4.83795e-96
1.36033e-96
3.89032e-97
1.1515e-97
3.41823e-98
1.31859e-98
7.65939e-99
7.11867e-99
9.7412e-99
1.95356e-98
5.16592e-98
1.52368e-97
4.81162e-97
1.63232e-96
5.23231e-96
1.10059e-95
1.38679e-95
1.08347e-95
1.38847e-95
4.8335e-95
1.00364e-94
2.43989e-95
4.19711e-97
1.45411e-96
1.27986e-96
3.37377e-97
5.92534e-98
4.18516e-98
4.00251e-98
2.55034e-98
1.01238e-98
2.79912e-99
7.15574e-100
1.82553e-100
4.67478e-101
1.61894e-101
8.90606e-102
8.00387e-102
1.06932e-101
2.10378e-101
5.4889e-101
1.58813e-100
4.84507e-100
1.55979e-99
4.66209e-99
9.28211e-99
1.15363e-98
9.50919e-99
1.22306e-98
4.14887e-98
9.14393e-98
2.34319e-98
8.07569e-100
3.87952e-99
2.17625e-99
3.46183e-100
7.57768e-101
6.44512e-101
6.83731e-101
4.69555e-101
1.77303e-101
4.46765e-102
1.04308e-102
2.50729e-103
6.2902e-104
2.18207e-104
1.20307e-104
1.08044e-104
1.44029e-104
2.82232e-104
7.28325e-104
2.04742e-103
5.90254e-103
1.74499e-102
4.6909e-102
8.39417e-102
9.99877e-102
8.42348e-102
1.1042e-101
3.37115e-101
6.79991e-101
1.99518e-101
1.97439e-102
7.70514e-102
3.70037e-102
5.45976e-103
1.0837e-103
8.86561e-104
9.86305e-104
6.1942e-104
2.15418e-104
5.37661e-105
1.34224e-105
3.60429e-106
9.87805e-107
3.58793e-107
2.01763e-107
1.82468e-107
2.39403e-107
4.53271e-107
1.13844e-106
3.03501e-106
8.09287e-106