/*--------------------------------*- C++ -*----------------------------------*\
| =========                 |                                                 |
| \\      /  F ield         | OpenFOAM: The Open Source CFD Toolbox           |
|  \\    /   O peration     | Version:  2312                                  |
|   \\  /    A nd           | Website:  www.openfoam.com                      |
|    \\/     M anipulation  |                                                 |
\*---------------------------------------------------------------------------*/
FoamFile
{
    version     2.0;
    format      ascii;
    arch        "LSB;label=32;scalar=64";
    class       volScalarField;
    location    "1.50315242808";
    object      epsilon;
}
// * * * * * * * * * * * * * * * * * * * * * * * * * * * * * * * * * * * * * //

dimensions      [0 2 -3 0 0 0 0];

internalField   nonuniform List<scalar> 
90000
(
7.27248e-06
7.27538e-06
7.27607e-06
7.27628e-06
7.27666e-06
7.27683e-06
7.27694e-06
7.27699e-06
7.27688e-06
7.27652e-06
7.27593e-06
7.2752e-06
7.27454e-06
7.27438e-06
7.27475e-06
7.27501e-06
7.2751e-06
7.27528e-06
7.27566e-06
7.27577e-06
7.2752e-06
7.27484e-06
7.27631e-06
7.2789e-06
7.28106e-06
7.28187e-06
7.28073e-06
7.27966e-06
7.28499e-06
7.29462e-06
7.27729e-06
7.33928e-06
7.34526e-06
7.34538e-06
7.34523e-06
7.34521e-06
7.34535e-06
7.34551e-06
7.34556e-06
7.34554e-06
7.34562e-06
7.34587e-06
7.34613e-06
7.34625e-06
7.34617e-06
7.3459e-06
7.34562e-06
7.34551e-06
7.34546e-06
7.34537e-06
7.34572e-06
7.3464e-06
7.34711e-06
7.34734e-06
7.3469e-06
7.3465e-06
7.34797e-06
7.35254e-06
7.34995e-06
7.30825e-06
7.27701e-06
7.34596e-06
7.35311e-06
7.3535e-06
7.35357e-06
7.35372e-06
7.35393e-06
7.35399e-06
7.35377e-06
7.35337e-06
7.35344e-06
7.35406e-06
7.35497e-06
7.35559e-06
7.35556e-06
7.35482e-06
7.35358e-06
7.3526e-06
7.35346e-06
7.35473e-06
7.35552e-06
7.35555e-06
7.35499e-06
7.35424e-06
7.35469e-06
7.3561e-06
7.35739e-06
7.36217e-06
7.36842e-06
7.30298e-06
7.27622e-06
7.3458e-06
7.3538e-06
7.35451e-06
7.35487e-06
7.35522e-06
7.35555e-06
7.35569e-06
7.35553e-06
7.35502e-06
7.35453e-06
7.35469e-06
7.35517e-06
7.35561e-06
7.35554e-06
7.35482e-06
7.35384e-06
7.35387e-06
7.35517e-06
7.35614e-06
7.35622e-06
7.35553e-06
7.35549e-06
7.35731e-06
7.35901e-06
7.36043e-06
7.36266e-06
7.36298e-06
7.36628e-06
7.2903e-06
7.27607e-06
7.34551e-06
7.35373e-06
7.35451e-06
7.35487e-06
7.35513e-06
7.35537e-06
7.35557e-06
7.3557e-06
7.3556e-06
7.35531e-06
7.35487e-06
7.35435e-06
7.35383e-06
7.35376e-06
7.35444e-06
7.3553e-06
7.35591e-06
7.35603e-06
7.35557e-06
7.35484e-06
7.35519e-06
7.35695e-06
7.35882e-06
7.35996e-06
7.35993e-06
7.35935e-06
7.36018e-06
7.35534e-06
7.28325e-06
7.27632e-06
7.34569e-06
7.35343e-06
7.35402e-06
7.35417e-06
7.35419e-06
7.35427e-06
7.35453e-06
7.35492e-06
7.35534e-06
7.35565e-06
7.35581e-06
7.35569e-06
7.3551e-06
7.35444e-06
7.35482e-06
7.35565e-06
7.35606e-06
7.35581e-06
7.35524e-06
7.35511e-06
7.35582e-06
7.3569e-06
7.35773e-06
7.35809e-06
7.35781e-06
7.35621e-06
7.35971e-06
7.35212e-06
7.28218e-06
7.27669e-06
7.34599e-06
7.35348e-06
7.35419e-06
7.35457e-06
7.35475e-06
7.35467e-06
7.35446e-06
7.35439e-06
7.35483e-06
7.35569e-06
7.35663e-06
7.35726e-06
7.35724e-06
7.35635e-06
7.35498e-06
7.35423e-06
7.3545e-06
7.35511e-06
7.35566e-06
7.35605e-06
7.3562e-06
7.35596e-06
7.35524e-06
7.35471e-06
7.35603e-06
7.35816e-06
7.36234e-06
7.35473e-06
7.28127e-06
7.27657e-06
7.34708e-06
7.35475e-06
7.35587e-06
7.35665e-06
7.3572e-06
7.3573e-06
7.35669e-06
7.35544e-06
7.35432e-06
7.35505e-06
7.35641e-06
7.35753e-06
7.35787e-06
7.35712e-06
7.35537e-06
7.35321e-06
7.35291e-06
7.35453e-06
7.35575e-06
7.35627e-06
7.35607e-06
7.35517e-06
7.3542e-06
7.3545e-06
7.35711e-06
7.36003e-06
7.36195e-06
7.35319e-06
7.27932e-06
7.27702e-06
7.34877e-06
7.35653e-06
7.35767e-06
7.35858e-06
7.35914e-06
7.3592e-06
7.35868e-06
7.3575e-06
7.35587e-06
7.35473e-06
7.35538e-06
7.35619e-06
7.35676e-06
7.35688e-06
7.35644e-06
7.35563e-06
7.35499e-06
7.35516e-06
7.35574e-06
7.35602e-06
7.35566e-06
7.35476e-06
7.3542e-06
7.35532e-06
7.3579e-06
7.35977e-06
7.35944e-06
7.35014e-06
7.27751e-06
7.27988e-06
7.34979e-06
7.35717e-06
7.35805e-06
7.35864e-06
7.35892e-06
7.359e-06
7.35888e-06
7.35853e-06
7.35788e-06
7.35674e-06
7.3552e-06
7.35446e-06
7.35495e-06
7.35624e-06
7.35758e-06
7.35838e-06
7.35854e-06
7.35825e-06
7.35775e-06
7.3571e-06
7.35615e-06
7.35496e-06
7.35416e-06
7.35557e-06
7.35716e-06
7.35753e-06
7.35622e-06
7.34777e-06
7.27666e-06
7.28208e-06
7.35015e-06
7.35687e-06
7.3573e-06
7.35708e-06
7.35657e-06
7.3563e-06
7.35669e-06
7.35747e-06
7.35799e-06
7.35771e-06
7.35652e-06
7.35482e-06
7.35433e-06
7.35563e-06
7.35781e-06
7.35976e-06
7.36107e-06
7.36158e-06
7.36111e-06
7.3599e-06
7.35815e-06
7.35627e-06
7.35514e-06
7.35574e-06
7.35629e-06
7.35637e-06
7.35568e-06
7.34779e-06
7.27758e-06
7.28174e-06
7.35201e-06
7.35807e-06
7.3578e-06
7.35688e-06
7.35577e-06
7.35505e-06
7.35529e-06
7.35603e-06
7.35674e-06
7.35706e-06
7.35685e-06
7.3559e-06
7.35447e-06
7.35451e-06
7.35713e-06
7.36011e-06
7.36229e-06
7.36325e-06
7.36288e-06
7.36143e-06
7.35931e-06
7.35692e-06
7.35517e-06
7.35532e-06
7.35614e-06
7.35676e-06
7.35644e-06
7.34959e-06
7.27883e-06
7.28055e-06
7.35377e-06
7.35989e-06
7.36013e-06
7.3608e-06
7.36147e-06
7.36188e-06
7.36155e-06
7.36012e-06
7.35803e-06
7.35705e-06
7.35768e-06
7.35805e-06
7.35778e-06
7.35744e-06
7.35819e-06
7.35964e-06
7.36078e-06
7.36122e-06
7.36096e-06
7.36004e-06
7.35856e-06
7.35669e-06
7.3552e-06
7.35556e-06
7.35651e-06
7.35705e-06
7.35723e-06
7.35051e-06
7.27954e-06
7.28528e-06
7.35304e-06
7.36097e-06
7.36306e-06
7.36587e-06
7.36795e-06
7.36847e-06
7.36697e-06
7.36384e-06
7.36016e-06
7.35762e-06
7.35833e-06
7.3601e-06
7.36152e-06
7.36209e-06
7.36166e-06
7.36018e-06
7.35802e-06
7.35663e-06
7.35666e-06
7.35726e-06
7.35744e-06
7.357e-06
7.3564e-06
7.35645e-06
7.35677e-06
7.35747e-06
7.35807e-06
7.35082e-06
7.28046e-06
7.28985e-06
7.35022e-06
7.36347e-06
7.36744e-06
7.37016e-06
7.37094e-06
7.36965e-06
7.36667e-06
7.36284e-06
7.35916e-06
7.35669e-06
7.35767e-06
7.36044e-06
7.36288e-06
7.36394e-06
7.36334e-06
7.36121e-06
7.35807e-06
7.3551e-06
7.35391e-06
7.35544e-06
7.35699e-06
7.3577e-06
7.3576e-06
7.35723e-06
7.35783e-06
7.35964e-06
7.36055e-06
7.35404e-06
7.28351e-06
7.29002e-06
7.35834e-06
7.36821e-06
7.37005e-06
7.36999e-06
7.36802e-06
7.36478e-06
7.36153e-06
7.35901e-06
7.35706e-06
7.35572e-06
7.35688e-06
7.35979e-06
7.36229e-06
7.36345e-06
7.36309e-06
7.36175e-06
7.35966e-06
7.3573e-06
7.35545e-06
7.35548e-06
7.35679e-06
7.3578e-06
7.35806e-06
7.35841e-06
7.35983e-06
7.36169e-06
7.3631e-06
7.3577e-06
7.28564e-06
7.28616e-06
7.36595e-06
7.37123e-06
7.36982e-06
7.36659e-06
7.36238e-06
7.35854e-06
7.35747e-06
7.35778e-06
7.35736e-06
7.35688e-06
7.35787e-06
7.35971e-06
7.36131e-06
7.36215e-06
7.3624e-06
7.36192e-06
7.36063e-06
7.35889e-06
7.35727e-06
7.35642e-06
7.35656e-06
7.35723e-06
7.35788e-06
7.35896e-06
7.36067e-06
7.36235e-06
7.3635e-06
7.35679e-06
7.28433e-06
7.28504e-06
7.36905e-06
7.37229e-06
7.36933e-06
7.36534e-06
7.36148e-06
7.35908e-06
7.35824e-06
7.35827e-06
7.35812e-06
7.35846e-06
7.35871e-06
7.35896e-06
7.35939e-06
7.36009e-06
7.36071e-06
7.36092e-06
7.36058e-06
7.35971e-06
7.35851e-06
7.35735e-06
7.35726e-06
7.35782e-06
7.35839e-06
7.35976e-06
7.36121e-06
7.362e-06
7.36183e-06
7.3538e-06
7.28265e-06
7.28938e-06
7.36952e-06
7.37316e-06
7.37036e-06
7.36707e-06
7.36439e-06
7.36253e-06
7.36102e-06
7.35953e-06
7.35853e-06
7.35789e-06
7.35719e-06
7.3569e-06
7.35692e-06
7.3573e-06
7.3581e-06
7.35903e-06
7.35955e-06
7.35937e-06
7.35858e-06
7.35778e-06
7.35783e-06
7.35838e-06
7.3604e-06
7.3625e-06
7.36302e-06
7.36255e-06
7.36153e-06
7.3538e-06
7.28357e-06
7.29363e-06
7.36918e-06
7.37366e-06
7.37122e-06
7.36847e-06
7.36644e-06
7.36494e-06
7.36339e-06
7.36169e-06
7.36004e-06
7.35856e-06
7.35716e-06
7.3559e-06
7.35484e-06
7.35506e-06
7.3565e-06
7.35796e-06
7.35865e-06
7.35864e-06
7.35833e-06
7.35829e-06
7.3597e-06
7.36286e-06
7.36547e-06
7.36598e-06
7.36516e-06
7.36472e-06
7.3648e-06
7.35924e-06
7.28755e-06
7.29704e-06
7.36803e-06
7.3731e-06
7.37119e-06
7.36946e-06
7.36832e-06
7.36724e-06
7.36583e-06
7.36411e-06
7.36222e-06
7.36023e-06
7.35802e-06
7.35602e-06
7.35583e-06
7.35732e-06
7.35873e-06
7.35928e-06
7.35917e-06
7.35931e-06
7.36024e-06
7.36245e-06
7.36565e-06
7.36782e-06
7.36761e-06
7.36581e-06
7.36487e-06
7.36534e-06
7.36661e-06
7.36124e-06
7.28932e-06
7.29922e-06
7.36671e-06
7.37305e-06
7.37216e-06
7.37121e-06
7.37026e-06
7.36898e-06
7.36734e-06
7.36545e-06
7.36328e-06
7.36071e-06
7.35847e-06
7.35864e-06
7.36034e-06
7.3609e-06
7.36024e-06
7.3593e-06
7.35945e-06
7.36117e-06
7.36427e-06
7.36791e-06
7.37005e-06
7.36928e-06
7.36698e-06
7.36617e-06
7.36662e-06
7.36777e-06
7.36866e-06
7.36196e-06
7.29164e-06
7.30019e-06
7.36661e-06
7.37426e-06
7.37416e-06
7.37328e-06
7.37186e-06
7.37005e-06
7.3681e-06
7.36612e-06
7.36399e-06
7.36199e-06
7.36142e-06
7.36211e-06
7.3615e-06
7.35963e-06
7.358e-06
7.35809e-06
7.36025e-06
7.36398e-06
7.36829e-06
7.37095e-06
7.37065e-06
7.3687e-06
7.36821e-06
7.36897e-06
7.37046e-06
7.37189e-06
7.37198e-06
7.36477e-06
7.29535e-06
7.30128e-06
7.36923e-06
7.3771e-06
7.37701e-06
7.3757e-06
7.3739e-06
7.37207e-06
7.37035e-06
7.3685e-06
7.36641e-06
7.36453e-06
7.36386e-06
7.36265e-06
7.3599e-06
7.35718e-06
7.35738e-06
7.35899e-06
7.36233e-06
7.36729e-06
7.3706e-06
7.37104e-06
7.37002e-06
7.3705e-06
7.37185e-06
7.37364e-06
7.37577e-06
7.37677e-06
7.37683e-06
7.36922e-06
7.30039e-06
7.30552e-06
7.37424e-06
7.38159e-06
7.38109e-06
7.37949e-06
7.37773e-06
7.37615e-06
7.37455e-06
7.37254e-06
7.37011e-06
7.36775e-06
7.36567e-06
7.36261e-06
7.35935e-06
7.35861e-06
7.35901e-06
7.36072e-06
7.36534e-06
7.36898e-06
7.3701e-06
7.37045e-06
7.37273e-06
7.37485e-06
7.37656e-06
7.37919e-06
7.38095e-06
7.38198e-06
7.38236e-06
7.37532e-06
7.30731e-06
7.3129e-06
7.38129e-06
7.38806e-06
7.38712e-06
7.38545e-06
7.38377e-06
7.38212e-06
7.38021e-06
7.37778e-06
7.37497e-06
7.37184e-06
7.36816e-06
7.3644e-06
7.3622e-06
7.36083e-06
7.36006e-06
7.36245e-06
7.36603e-06
7.36841e-06
7.37107e-06
7.37479e-06
7.37752e-06
7.37937e-06
7.3821e-06
7.38452e-06
7.38619e-06
7.3878e-06
7.3893e-06
7.38455e-06
7.31366e-06
7.32291e-06
7.39025e-06
7.39666e-06
7.3955e-06
7.39368e-06
7.39164e-06
7.3893e-06
7.38656e-06
7.38344e-06
7.37978e-06
7.3756e-06
7.37146e-06
7.36842e-06
7.36615e-06
7.36325e-06
7.36171e-06
7.36353e-06
7.36715e-06
7.37196e-06
7.37671e-06
7.37988e-06
7.38235e-06
7.38541e-06
7.38849e-06
7.39097e-06
7.39373e-06
7.39606e-06
7.39821e-06
7.39281e-06
7.32191e-06
7.33463e-06
7.40113e-06
7.40733e-06
7.40576e-06
7.4033e-06
7.40037e-06
7.39703e-06
7.39338e-06
7.38947e-06
7.38517e-06
7.38077e-06
7.37731e-06
7.37448e-06
7.37087e-06
7.36668e-06
7.36518e-06
7.36795e-06
7.37305e-06
7.37834e-06
7.38242e-06
7.38578e-06
7.38968e-06
7.39315e-06
7.39646e-06
7.39988e-06
7.40382e-06
7.40679e-06
7.4076e-06
7.4015e-06
7.33326e-06
7.34771e-06
7.41356e-06
7.41916e-06
7.41711e-06
7.41419e-06
7.41068e-06
7.40669e-06
7.40246e-06
7.39786e-06
7.39297e-06
7.38856e-06
7.38488e-06
7.38062e-06
7.37541e-06
7.37079e-06
7.37005e-06
7.37391e-06
7.3794e-06
7.38477e-06
7.38947e-06
7.39382e-06
7.39858e-06
7.40291e-06
7.4074e-06
7.41157e-06
7.41618e-06
7.41932e-06
7.4192e-06
7.41313e-06
7.34778e-06
7.36259e-06
7.42777e-06
7.43328e-06
7.43105e-06
7.42781e-06
7.42399e-06
7.41963e-06
7.41467e-06
7.40905e-06
7.40309e-06
7.39779e-06
7.39242e-06
7.38615e-06
7.37959e-06
7.3748e-06
7.37485e-06
7.37937e-06
7.38512e-06
7.39125e-06
7.39745e-06
7.40319e-06
7.40931e-06
7.4155e-06
7.42118e-06
7.4255e-06
7.43025e-06
7.43386e-06
7.43415e-06
7.42996e-06
7.36402e-06
7.38061e-06
7.44568e-06
7.45122e-06
7.44875e-06
7.44493e-06
7.4404e-06
7.43519e-06
7.42924e-06
7.42231e-06
7.41501e-06
7.40801e-06
7.4006e-06
7.39266e-06
7.38516e-06
7.3801e-06
7.38038e-06
7.3854e-06
7.39192e-06
7.39927e-06
7.4073e-06
7.41517e-06
7.42316e-06
7.43089e-06
7.43687e-06
7.44144e-06
7.44606e-06
7.4508e-06
7.45363e-06
7.44917e-06
7.38262e-06
7.40313e-06
7.46816e-06
7.47319e-06
7.46992e-06
7.46519e-06
7.45977e-06
7.45363e-06
7.44664e-06
7.43859e-06
7.42985e-06
7.4209e-06
7.41158e-06
7.40205e-06
7.39345e-06
7.38762e-06
7.38765e-06
7.39342e-06
7.4016e-06
7.41056e-06
7.42009e-06
7.43015e-06
7.43975e-06
7.44755e-06
7.45434e-06
7.46e-06
7.46538e-06
7.47149e-06
7.47615e-06
7.47054e-06
7.40524e-06
7.43078e-06
7.49476e-06
7.49903e-06
7.49517e-06
7.48965e-06
7.48332e-06
7.47628e-06
7.46825e-06
7.4589e-06
7.44834e-06
7.43698e-06
7.4254e-06
7.41423e-06
7.40448e-06
7.39772e-06
7.39752e-06
7.40421e-06
7.41459e-06
7.42535e-06
7.43665e-06
7.44847e-06
7.4581e-06
7.46662e-06
7.47563e-06
7.48329e-06
7.4893e-06
7.49656e-06
7.5013e-06
7.49584e-06
7.43254e-06
7.46406e-06
7.52662e-06
7.53055e-06
7.52624e-06
7.51994e-06
7.51244e-06
7.50395e-06
7.49409e-06
7.48275e-06
7.47009e-06
7.45655e-06
7.44301e-06
7.43008e-06
7.41872e-06
7.41108e-06
7.41092e-06
7.41826e-06
7.43053e-06
7.44363e-06
7.45684e-06
7.4694e-06
7.48059e-06
7.49149e-06
7.50281e-06
7.51153e-06
7.51907e-06
7.52668e-06
7.53119e-06
7.52683e-06
7.46521e-06
7.50434e-06
7.56583e-06
7.56939e-06
7.56412e-06
7.55633e-06
7.54706e-06
7.5366e-06
7.52465e-06
7.5113e-06
7.49667e-06
7.48125e-06
7.46566e-06
7.45047e-06
7.43692e-06
7.42813e-06
7.42855e-06
7.43675e-06
7.45034e-06
7.46589e-06
7.48085e-06
7.49547e-06
7.51041e-06
7.52326e-06
7.53565e-06
7.5462e-06
7.5558e-06
7.56324e-06
7.56829e-06
7.56472e-06
7.50466e-06
7.55344e-06
7.61329e-06
7.61568e-06
7.60895e-06
7.59968e-06
7.58883e-06
7.57659e-06
7.56268e-06
7.54727e-06
7.53056e-06
7.51294e-06
7.49489e-06
7.47709e-06
7.46101e-06
7.45072e-06
7.45185e-06
7.46192e-06
7.47708e-06
7.49487e-06
7.51232e-06
7.53003e-06
7.54795e-06
7.56265e-06
7.57603e-06
7.5896e-06
7.60007e-06
7.60777e-06
7.61343e-06
7.61085e-06
7.55294e-06
7.61269e-06
7.6695e-06
7.67066e-06
7.66306e-06
7.65294e-06
7.64067e-06
7.62653e-06
7.61051e-06
7.5929e-06
7.57385e-06
7.55345e-06
7.53233e-06
7.51198e-06
7.49388e-06
7.48196e-06
7.48299e-06
7.49503e-06
7.51202e-06
7.53262e-06
7.554e-06
7.57394e-06
7.59428e-06
7.61076e-06
7.62666e-06
7.64221e-06
7.65375e-06
7.66218e-06
7.66926e-06
7.66812e-06
7.61229e-06
7.68343e-06
7.73721e-06
7.73809e-06
7.72993e-06
7.71844e-06
7.70423e-06
7.68784e-06
7.66953e-06
7.64947e-06
7.62751e-06
7.60386e-06
7.57953e-06
7.55675e-06
7.53711e-06
7.52357e-06
7.52328e-06
7.53687e-06
7.55657e-06
7.5807e-06
7.60561e-06
7.62823e-06
7.6502e-06
7.66988e-06
7.68852e-06
7.70574e-06
7.71872e-06
7.72924e-06
7.73826e-06
7.73789e-06
7.68448e-06
7.76853e-06
7.82064e-06
7.82072e-06
7.8109e-06
7.79729e-06
7.78086e-06
7.76219e-06
7.74135e-06
7.71823e-06
7.693e-06
7.66654e-06
7.63946e-06
7.61363e-06
7.59138e-06
7.57613e-06
7.57468e-06
7.59049e-06
7.614e-06
7.64116e-06
7.66852e-06
7.69361e-06
7.71803e-06
7.74179e-06
7.76318e-06
7.78187e-06
7.79705e-06
7.80999e-06
7.82039e-06
7.82126e-06
7.77096e-06
7.87247e-06
7.92181e-06
7.91957e-06
7.90775e-06
7.89251e-06
7.87449e-06
7.85348e-06
7.82951e-06
7.80306e-06
7.77459e-06
7.7456e-06
7.71555e-06
7.68568e-06
7.65967e-06
7.64318e-06
7.64217e-06
7.65961e-06
7.68629e-06
7.71583e-06
7.74567e-06
7.77438e-06
7.80293e-06
7.8299e-06
7.85338e-06
7.87427e-06
7.8925e-06
7.90743e-06
7.91904e-06
7.92243e-06
7.8733e-06
7.99773e-06
8.04282e-06
8.03885e-06
8.02652e-06
8.01015e-06
7.98967e-06
7.96518e-06
7.93822e-06
7.90948e-06
7.87797e-06
7.84512e-06
7.81166e-06
7.77938e-06
7.74938e-06
7.73086e-06
7.73045e-06
7.74872e-06
7.77826e-06
7.81137e-06
7.84466e-06
7.87745e-06
7.90927e-06
7.9385e-06
7.96438e-06
7.98889e-06
8.00991e-06
8.02668e-06
8.0395e-06
8.04488e-06
7.99689e-06
8.14835e-06
8.19169e-06
8.18694e-06
8.17281e-06
8.15295e-06
8.12902e-06
8.10232e-06
8.07326e-06
8.04146e-06
8.00656e-06
7.97035e-06
7.93372e-06
7.8997e-06
7.8663e-06
7.8435e-06
7.84508e-06
7.86658e-06
7.89808e-06
7.93422e-06
7.9705e-06
8.00652e-06
8.04078e-06
8.07319e-06
8.10288e-06
8.12942e-06
8.152e-06
8.17182e-06
8.1875e-06
8.1945e-06
8.14845e-06
8.33351e-06
8.37792e-06
8.36835e-06
8.34995e-06
8.32728e-06
8.30164e-06
8.2729e-06
8.24009e-06
8.20472e-06
8.16775e-06
8.1304e-06
8.09023e-06
8.05255e-06
8.01765e-06
7.99299e-06
7.99483e-06
8.01899e-06
8.05209e-06
8.09014e-06
8.12973e-06
8.16867e-06
8.20484e-06
8.23962e-06
8.27323e-06
8.30223e-06
8.32723e-06
8.35018e-06
8.36941e-06
8.37826e-06
8.33203e-06
8.56398e-06
8.61112e-06
8.59404e-06
8.57389e-06
8.54885e-06
8.51859e-06
8.48624e-06
8.45024e-06
8.41281e-06
8.37438e-06
8.33703e-06
8.29774e-06
8.26101e-06
8.22759e-06
8.20591e-06
8.20694e-06
8.22873e-06
8.26116e-06
8.29801e-06
8.33549e-06
8.37395e-06
8.41345e-06
8.45051e-06
8.48503e-06
8.51729e-06
8.54909e-06
8.57468e-06
8.5964e-06
8.61077e-06
8.55973e-06
8.85931e-06
8.92923e-06
8.90236e-06
8.88011e-06
8.84581e-06
8.80737e-06
8.77271e-06
8.73305e-06
8.69727e-06
8.66839e-06
8.64744e-06
8.64259e-06
8.65756e-06
8.67083e-06
8.69311e-06
8.70509e-06
8.67912e-06
8.65562e-06
8.64652e-06
8.64878e-06
8.66756e-06
8.69731e-06
8.73422e-06
8.77152e-06
8.80532e-06
8.84544e-06
8.87981e-06
8.90193e-06
8.93058e-06
8.85418e-06
9.32645e-06
9.52272e-06
9.45161e-06
9.47231e-06
9.3823e-06
9.31199e-06
9.30424e-06
9.26522e-06
9.25427e-06
9.33682e-06
9.52494e-06
9.89085e-06
1.04808e-05
1.10828e-05
1.15995e-05
1.16911e-05
1.11548e-05
1.0496e-05
9.9455e-06
9.52952e-06
9.3464e-06
9.25793e-06
9.26031e-06
9.30509e-06
9.30891e-06
9.37575e-06
9.47784e-06
9.45301e-06
9.52843e-06
9.31535e-06
1.06341e-05
1.14623e-05
1.11825e-05
1.17833e-05
1.11716e-05
1.09885e-05
1.14133e-05
1.13429e-05
1.16177e-05
1.28077e-05
1.49423e-05
1.89281e-05
2.58236e-05
3.26973e-05
3.85323e-05
3.8627e-05
3.38532e-05
2.58951e-05
1.96663e-05
1.50168e-05
1.29304e-05
1.16624e-05
1.13229e-05
1.14092e-05
1.0983e-05
1.1149e-05
1.18109e-05
1.11864e-05
1.15082e-05
1.05787e-05
1.7901e-05
2.01657e-05
1.92486e-05
2.45869e-05
2.09462e-05
2.17826e-05
2.66894e-05
2.6593e-05
3.13206e-05
4.23401e-05
6.57726e-05
0.000111446
0.000170659
0.000230932
0.000275832
0.000270211
0.000238775
0.000170346
0.000114949
6.57997e-05
4.40157e-05
3.17722e-05
2.64552e-05
2.64938e-05
2.18613e-05
2.0772e-05
2.49909e-05
1.92741e-05
2.03599e-05
1.76273e-05
6.91067e-05
5.77268e-05
6.63291e-05
9.31387e-05
9.0308e-05
0.000126087
0.000162519
0.000167639
0.000243478
0.000419286
0.000477239
0.000813966
0.00094547
0.00118609
0.00124273
0.00124768
0.00115159
0.000994003
0.000747054
0.000489801
0.000440939
0.000248547
0.000167716
0.000158367
0.000126728
8.92789e-05
9.7881e-05
6.9939e-05
5.8321e-05
6.86474e-05
0.000249312
0.000204711
0.000324126
0.000377266
0.00042546
0.000752586
0.000780942
0.000925498
0.00123235
0.00188503
0.00151396
0.00247435
0.00218316
0.00287235
0.00243634
0.00283606
0.00239191
0.00255251
0.0019039
0.00170316
0.00198179
0.001233
0.000943621
0.000777801
0.000743342
0.000530193
0.000410511
0.000353914
0.000207746
0.00024943
0.000612933
0.000874755
0.00088064
0.00106589
0.00134167
0.00231208
0.00250942
0.00272006
0.00321528
0.00441292
0.00345166
0.00573163
0.00506343
0.00575834
0.00430994
0.00556169
0.00474205
0.00505117
0.00378162
0.00368922
0.00453845
0.00312547
0.00266963
0.00220384
0.00226561
0.00163996
0.00118838
0.00096461
0.000909976
0.000618037
0.000951986
0.00112889
0.00138006
0.00163802
0.00209769
0.00356766
0.00465126
0.00363843
0.00388157
0.00572394
0.00555499
0.00745536
0.00657741
0.00655872
0.00585574
0.00647363
0.00638098
0.00682039
0.0059719
0.00452565
0.00525105
0.00399331
0.00352751
0.0041788
0.00376633
0.002263
0.00178933
0.00146972
0.00118807
0.000979075
0.00117183
0.00135552
0.00169425
0.00228008
0.00282546
0.00339235
0.00396367
0.00473734
0.0038972
0.0048917
0.0044608
0.00474685
0.00509347
0.00484895
0.00507096
0.00535782
0.00558422
0.00471955
0.00570325
0.00484286
0.00502556
0.00430638
0.00441192
0.0039961
0.00341831
0.00303888
0.00251514
0.00182637
0.00122931
0.00125077
0.00105812
0.00126474
0.00148558
0.0019211
0.00216719
0.00287597
0.0030041
0.00330649
0.00383591
0.00440972
0.00375759
0.00493362
0.00412906
0.00504597
0.00436653
0.00592637
0.00446323
0.00467065
0.00430944
0.00463141
0.0049649
0.0035755
0.00335555
0.00303357
0.00293628
0.00218805
0.00198431
0.00154469
0.00119049
0.00114557
0.000490252
0.000735817
0.00110512
0.00132966
0.00131847
0.00153604
0.00163199
0.00175519
0.00198597
0.00251505
0.00265751
0.00323578
0.0033108
0.00374064
0.00381886
0.00421735
0.00340777
0.003254
0.00310069
0.00274207
0.00255786
0.00195042
0.00177936
0.0016391
0.00141588
0.00134342
0.00132964
0.00110648
0.000754668
0.000510617
0.000260247
0.000391539
0.000593277
0.000724553
0.000595526
0.000665868
0.000839193
0.000968082
0.00107895
0.00129003
0.0014313
0.00160863
0.00179271
0.00198789
0.00231764
0.00227238
0.00199699
0.00173841
0.00167559
0.00141091
0.00128058
0.00110005
0.000985617
0.000846132
0.000653801
0.000594856
0.000708504
0.000578594
0.00039605
0.000260385
0.000188279
0.000240558
0.00030194
0.000373377
0.000276571
0.000273083
0.00037855
0.000520144
0.000703396
0.000908864
0.00102155
0.00109668
0.00115221
0.00124769
0.00136713
0.00134222
0.0012499
0.00114116
0.00109905
0.000997639
0.000897541
0.000705813
0.000526034
0.000380707
0.000272374
0.00027375
0.000368131
0.00029669
0.000242088
0.000190012
0.000140986
0.000158959
0.000170093
0.000190092
0.000162453
0.000149239
0.000172308
0.000230767
0.000349677
0.000535402
0.000718267
0.000870613
0.000962981
0.00102408
0.00103942
0.00102952
0.00102449
0.000963575
0.000862895
0.000701025
0.000528369
0.000345981
0.000231471
0.000173102
0.000149768
0.000162452
0.000190232
0.000168454
0.000158806
0.000141573
0.00011213
0.000112586
0.000113236
0.000116626
0.000110714
0.000106676
0.000111257
0.000126211
0.000165207
0.000252596
0.000393837
0.000574499
0.000749397
0.000876009
0.000908424
0.000902038
0.00087658
0.000751281
0.000571187
0.000386521
0.000248925
0.000163915
0.000125899
0.000111265
0.000106906
0.000111106
0.00011668
0.000113296
0.000112873
0.000111352
9.05586e-05
8.82248e-05
8.65276e-05
8.68041e-05
8.53641e-05
8.51466e-05
8.70812e-05
9.18617e-05
0.000102621
0.000128386
0.000184952
0.000289471
0.000437756
0.000590889
0.000673906
0.000667778
0.000591107
0.00044026
0.000288212
0.000182932
0.000127254
0.00010217
9.13179e-05
8.68453e-05
8.49737e-05
8.52122e-05
8.65876e-05
8.65928e-05
8.82711e-05
9.08257e-05
7.61245e-05
7.29146e-05
7.15553e-05
7.14471e-05
7.13408e-05
7.20741e-05
7.33287e-05
7.553e-05
7.91058e-05
8.59032e-05
0.000100778
0.000133568
0.000194661
0.000278643
0.000348816
0.000346331
0.000278087
0.000195099
0.000133197
0.0001002
8.53169e-05
7.84533e-05
7.52267e-05
7.30404e-05
7.18617e-05
7.11042e-05
7.12981e-05
7.1612e-05
7.30696e-05
7.62146e-05
6.55248e-05
6.16779e-05
6.0825e-05
6.07931e-05
6.11229e-05
6.19376e-05
6.29652e-05
6.42801e-05
6.57367e-05
6.77052e-05
7.09896e-05
7.80691e-05
9.24838e-05
0.00011554
0.000139005
0.000138668
0.000115361
9.23526e-05
7.80629e-05
7.07751e-05
6.75809e-05
6.532e-05
6.4085e-05
6.27521e-05
6.17474e-05
6.11248e-05
6.05516e-05
6.09078e-05
6.19277e-05
6.55026e-05
5.68781e-05
5.30208e-05
5.21927e-05
5.21779e-05
5.27731e-05
5.35046e-05
5.42078e-05
5.49445e-05
5.55557e-05
5.60756e-05
5.65925e-05
5.76858e-05
5.98662e-05
6.37279e-05
6.79066e-05
6.77885e-05
6.37092e-05
5.97833e-05
5.76953e-05
5.63709e-05
5.58337e-05
5.52061e-05
5.46973e-05
5.40008e-05
5.31898e-05
5.27045e-05
5.21475e-05
5.22632e-05
5.32222e-05
5.6991e-05
4.96601e-05
4.58668e-05
4.50785e-05
4.51521e-05
4.56795e-05
4.62131e-05
4.65829e-05
4.68603e-05
4.69721e-05
4.68763e-05
4.66071e-05
4.64003e-05
4.61781e-05
4.62236e-05
4.64579e-05
4.64059e-05
4.62356e-05
4.61204e-05
4.63159e-05
4.65016e-05
4.66914e-05
4.67936e-05
4.66737e-05
4.6373e-05
4.59363e-05
4.54653e-05
4.52768e-05
4.52018e-05
4.59988e-05
4.9668e-05
4.33747e-05
3.98745e-05
3.90936e-05
3.91986e-05
3.96529e-05
3.99356e-05
3.99811e-05
3.98803e-05
3.96361e-05
3.9234e-05
3.86898e-05
3.80914e-05
3.73979e-05
3.68134e-05
3.6461e-05
3.64731e-05
3.68596e-05
3.74112e-05
3.79613e-05
3.85877e-05
3.91415e-05
3.96173e-05
3.97993e-05
3.97576e-05
3.97132e-05
3.94584e-05
3.93134e-05
3.91981e-05
3.98921e-05
4.32985e-05
3.78532e-05
3.4687e-05
3.41172e-05
3.42367e-05
3.44557e-05
3.44325e-05
3.42932e-05
3.40357e-05
3.36251e-05
3.30452e-05
3.23415e-05
3.15695e-05
3.07524e-05
3.00942e-05
2.97087e-05
2.97585e-05
3.01646e-05
3.08202e-05
3.15214e-05
3.23124e-05
3.30199e-05
3.35991e-05
3.3974e-05
3.41793e-05
3.42654e-05
3.41822e-05
3.40654e-05
3.4036e-05
3.47239e-05
3.77731e-05
3.29262e-05
3.03573e-05
2.98684e-05
2.98424e-05
2.98148e-05
2.97174e-05
2.95271e-05
2.91721e-05
2.86587e-05
2.79796e-05
2.72132e-05
2.64164e-05
2.56243e-05
2.49936e-05
2.46092e-05
2.46235e-05
2.49879e-05
2.56221e-05
2.63661e-05
2.71836e-05
2.79589e-05
2.86129e-05
2.90671e-05
2.93926e-05
2.95543e-05
2.95925e-05
2.95961e-05
2.96901e-05
3.03536e-05
3.29988e-05
2.88667e-05
2.66562e-05
2.61115e-05
2.60021e-05
2.59461e-05
2.58409e-05
2.55569e-05
2.51151e-05
2.45594e-05
2.38773e-05
2.31317e-05
2.23802e-05
2.16477e-05
2.10453e-05
2.06626e-05
2.06439e-05
2.09851e-05
2.15714e-05
2.2292e-05
2.30651e-05
2.38193e-05
2.44943e-05
2.50009e-05
2.53743e-05
2.56213e-05
2.57687e-05
2.58742e-05
2.60259e-05
2.66061e-05
2.88502e-05
2.52717e-05
2.33657e-05
2.29301e-05
2.28279e-05
2.27245e-05
2.24962e-05
2.21572e-05
2.17242e-05
2.11916e-05
2.05524e-05
1.9863e-05
1.9164e-05
1.84842e-05
1.79198e-05
1.75636e-05
1.75329e-05
1.78381e-05
1.83713e-05
1.90415e-05
1.97637e-05
2.04762e-05
2.11241e-05
2.16459e-05
2.20466e-05
2.23495e-05
2.2572e-05
2.27363e-05
2.28974e-05
2.33846e-05
2.52695e-05
2.22122e-05
2.07278e-05
2.03672e-05
2.01929e-05
1.99711e-05
1.96816e-05
1.93668e-05
1.896e-05
1.84624e-05
1.78856e-05
1.72638e-05
1.66144e-05
1.59797e-05
1.54562e-05
1.51354e-05
1.51057e-05
1.5374e-05
1.58548e-05
1.64727e-05
1.71477e-05
1.78159e-05
1.84188e-05
1.89169e-05
1.93185e-05
1.96437e-05
1.98988e-05
2.00875e-05
2.02544e-05
2.0678e-05
2.22442e-05
1.97544e-05
1.85975e-05
1.81871e-05
1.79494e-05
1.76976e-05
1.74649e-05
1.71719e-05
1.67781e-05
1.6321e-05
1.58031e-05
1.52329e-05
1.46258e-05
1.40483e-05
1.35872e-05
1.33085e-05
1.32837e-05
1.3524e-05
1.39662e-05
1.45358e-05
1.51471e-05
1.57384e-05
1.62717e-05
1.6727e-05
1.71111e-05
1.74317e-05
1.76895e-05
1.78878e-05
1.80598e-05
1.84223e-05
1.96893e-05
1.76789e-05
1.66533e-05
1.62766e-05
1.60786e-05
1.5901e-05
1.5708e-05
1.54101e-05
1.50478e-05
1.46374e-05
1.41597e-05
1.36273e-05
1.30785e-05
1.25799e-05
1.21837e-05
1.19346e-05
1.19094e-05
1.21294e-05
1.2536e-05
1.3045e-05
1.35716e-05
1.4073e-05
1.45391e-05
1.49599e-05
1.53292e-05
1.56369e-05
1.58812e-05
1.60684e-05
1.62237e-05
1.65159e-05
1.75222e-05
1.58566e-05
1.4966e-05
1.47235e-05
1.45905e-05
1.4452e-05
1.42402e-05
1.39608e-05
1.36486e-05
1.32799e-05
1.28437e-05
1.23645e-05
1.18854e-05
1.14505e-05
1.10919e-05
1.08606e-05
1.08433e-05
1.10545e-05
1.14236e-05
1.18644e-05
1.23111e-05
1.27455e-05
1.31663e-05
1.35574e-05
1.38972e-05
1.41716e-05
1.43832e-05
1.45435e-05
1.46748e-05
1.49087e-05
1.57101e-05
1.42729e-05
1.3637e-05
1.34746e-05
1.33599e-05
1.32122e-05
1.30074e-05
1.27801e-05
1.25138e-05
1.2183e-05
1.17963e-05
1.13795e-05
1.09652e-05
1.05783e-05
1.02507e-05
1.0045e-05
1.00432e-05
1.02423e-05
1.05664e-05
1.09436e-05
1.133e-05
1.17151e-05
1.20901e-05
1.2434e-05
1.2725e-05
1.29567e-05
1.31367e-05
1.32763e-05
1.33918e-05
1.35822e-05
1.42172e-05
1.30368e-05
1.25962e-05
1.24283e-05
1.2313e-05
1.21789e-05
1.20196e-05
1.18365e-05
1.15971e-05
1.12989e-05
1.09578e-05
1.06e-05
1.02456e-05
9.90708e-06
9.61813e-06
9.44393e-06
9.4514e-06
9.62862e-06
9.90682e-06
1.02293e-05
1.05653e-05
1.09022e-05
1.12252e-05
1.15153e-05
1.17595e-05
1.1957e-05
1.21145e-05
1.22388e-05
1.23399e-05
1.24927e-05
1.29856e-05
1.20671e-05
1.16795e-05
1.15231e-05
1.14442e-05
1.13448e-05
1.12177e-05
1.10489e-05
1.08275e-05
1.05643e-05
1.02768e-05
9.98647e-06
9.6961e-06
9.40857e-06
9.15967e-06
9.01215e-06
9.01884e-06
9.16799e-06
9.40003e-06
9.67092e-06
9.95852e-06
1.02472e-05
1.05204e-05
1.07632e-05
1.09695e-05
1.11407e-05
1.12796e-05
1.13884e-05
1.14736e-05
1.15924e-05
1.19651e-05
1.11914e-05
1.08591e-05
1.07809e-05
1.07338e-05
1.06461e-05
1.05256e-05
1.03652e-05
1.01711e-05
9.95391e-06
9.72983e-06
9.50511e-06
9.26753e-06
9.02267e-06
8.80965e-06
8.68152e-06
8.67942e-06
8.79679e-06
8.986e-06
9.21478e-06
9.46371e-06
9.7123e-06
9.94461e-06
1.01511e-05
1.03294e-05
1.0479e-05
1.05992e-05
1.06894e-05
1.07573e-05
1.08472e-05
1.11228e-05
1.04349e-05
1.0239e-05
1.02099e-05
1.01506e-05
1.00635e-05
9.95238e-06
9.81443e-06
9.65692e-06
9.48639e-06
9.31135e-06
9.12397e-06
8.9155e-06
8.70383e-06
8.52577e-06
8.4169e-06
8.40714e-06
8.49676e-06
8.65477e-06
8.85457e-06
9.07315e-06
9.28969e-06
9.48898e-06
9.66589e-06
9.81901e-06
9.94568e-06
1.00432e-05
1.01126e-05
1.01638e-05
1.02312e-05
1.04352e-05
9.89353e-06
9.80526e-06
9.74655e-06
9.67586e-06
9.60356e-06
9.51108e-06
9.40031e-06
9.27556e-06
9.14304e-06
8.99925e-06
8.83236e-06
8.64828e-06
8.47304e-06
8.33106e-06
8.23945e-06
8.22349e-06
8.29274e-06
8.42674e-06
8.59922e-06
8.78517e-06
8.96582e-06
9.13039e-06
9.27615e-06
9.40202e-06
9.50444e-06
9.58149e-06
9.63661e-06
9.67838e-06
9.73057e-06
9.87754e-06
9.49216e-06
9.40571e-06
9.33152e-06
9.28799e-06
9.23837e-06
9.16667e-06
9.07822e-06
8.97988e-06
8.87532e-06
8.75318e-06
8.60767e-06
8.45634e-06
8.3217e-06
8.21194e-06
8.13455e-06
8.11578e-06
8.16795e-06
8.27526e-06
8.41407e-06
8.5619e-06
8.70394e-06
8.83493e-06
8.95288e-06
9.05535e-06
9.13946e-06
9.20458e-06
9.25308e-06
9.2898e-06
9.32835e-06
9.42606e-06
9.11392e-06
9.0242e-06
8.99475e-06
8.98465e-06
8.95321e-06
8.89695e-06
8.82143e-06
8.73892e-06
8.64962e-06
8.54286e-06
8.42255e-06
8.30729e-06
8.2067e-06
8.11935e-06
8.05353e-06
8.0353e-06
8.07597e-06
8.16045e-06
8.26806e-06
8.38197e-06
8.49367e-06
8.60032e-06
8.69875e-06
8.78475e-06
8.85575e-06
8.91132e-06
8.95271e-06
8.98175e-06
9.00455e-06
9.0599e-06
8.77419e-06
8.73668e-06
8.75647e-06
8.7566e-06
8.72767e-06
8.67358e-06
8.6054e-06
8.53631e-06
8.4608e-06
8.37109e-06
8.27709e-06
8.19104e-06
8.11155e-06
8.03652e-06
7.97881e-06
7.96523e-06
8.00371e-06
8.07513e-06
8.1613e-06
8.25185e-06
8.34235e-06
8.43062e-06
8.51243e-06
8.58307e-06
8.64018e-06
8.68294e-06
8.71182e-06
8.72763e-06
8.73216e-06
8.75239e-06
8.52673e-06