/*--------------------------------*- C++ -*----------------------------------*\
| =========                 |                                                 |
| \\      /  F ield         | OpenFOAM: The Open Source CFD Toolbox           |
|  \\    /   O peration     | Version:  2312                                  |
|   \\  /    A nd           | Website:  www.openfoam.com                      |
|    \\/     M anipulation  |                                                 |
\*---------------------------------------------------------------------------*/
FoamFile
{
    version     2.0;
    format      ascii;
    arch        "LSB;label=32;scalar=64";
    class       volScalarField;
    location    "1.50315242808";
    object      k;
}
// * * * * * * * * * * * * * * * * * * * * * * * * * * * * * * * * * * * * * //

dimensions      [0 2 -2 0 0 0 0];

internalField   nonuniform List<scalar> 
90000
(
2.00425e-05
2.00479e-05
2.00492e-05
2.00496e-05
2.00504e-05
2.00508e-05
2.0051e-05
2.00511e-05
2.00509e-05
2.00502e-05
2.00491e-05
2.00477e-05
2.00463e-05
2.0046e-05
2.00467e-05
2.00472e-05
2.00474e-05
2.00477e-05
2.00483e-05
2.00485e-05
2.00475e-05
2.00469e-05
2.00497e-05
2.00547e-05
2.00587e-05
2.00602e-05
2.00581e-05
2.0056e-05
2.00664e-05
2.0085e-05
2.00516e-05
2.01678e-05
2.0179e-05
2.01793e-05
2.0179e-05
2.0179e-05
2.01793e-05
2.01796e-05
2.01797e-05
2.01797e-05
2.01799e-05
2.01803e-05
2.01808e-05
2.0181e-05
2.01808e-05
2.01803e-05
2.01797e-05
2.01796e-05
2.01795e-05
2.01794e-05
2.018e-05
2.01813e-05
2.01826e-05
2.01831e-05
2.01823e-05
2.01816e-05
2.01844e-05
2.01931e-05
2.01882e-05
2.01109e-05
2.00509e-05
2.01804e-05
2.01939e-05
2.01947e-05
2.01949e-05
2.01952e-05
2.01956e-05
2.01957e-05
2.01953e-05
2.01945e-05
2.01946e-05
2.01958e-05
2.01976e-05
2.01987e-05
2.01987e-05
2.01972e-05
2.01949e-05
2.0193e-05
2.01947e-05
2.01971e-05
2.01986e-05
2.01986e-05
2.01975e-05
2.0196e-05
2.01968e-05
2.01995e-05
2.0202e-05
2.02113e-05
2.02233e-05
2.01008e-05
2.00494e-05
2.01801e-05
2.01952e-05
2.01966e-05
2.01974e-05
2.01981e-05
2.01987e-05
2.0199e-05
2.01987e-05
2.01977e-05
2.01967e-05
2.0197e-05
2.01979e-05
2.01988e-05
2.01986e-05
2.01973e-05
2.01954e-05
2.01954e-05
2.01978e-05
2.01997e-05
2.01998e-05
2.01985e-05
2.01984e-05
2.02018e-05
2.0205e-05
2.02077e-05
2.0212e-05
2.02127e-05
2.02193e-05
2.00765e-05
2.00492e-05
2.01795e-05
2.01951e-05
2.01966e-05
2.01974e-05
2.01979e-05
2.01984e-05
2.01988e-05
2.0199e-05
2.01988e-05
2.01983e-05
2.01974e-05
2.01964e-05
2.01954e-05
2.01953e-05
2.01966e-05
2.01982e-05
2.01993e-05
2.01995e-05
2.01986e-05
2.01972e-05
2.01979e-05
2.02012e-05
2.02047e-05
2.02069e-05
2.02068e-05
2.02058e-05
2.02074e-05
2.01984e-05
2.00629e-05
2.00498e-05
2.01799e-05
2.01946e-05
2.01957e-05
2.0196e-05
2.0196e-05
2.01962e-05
2.01967e-05
2.01975e-05
2.01983e-05
2.01989e-05
2.01992e-05
2.01989e-05
2.01978e-05
2.01965e-05
2.01972e-05
2.01988e-05
2.01996e-05
2.01992e-05
2.01981e-05
2.01978e-05
2.01991e-05
2.02012e-05
2.02027e-05
2.02034e-05
2.02029e-05
2.01998e-05
2.02063e-05
2.01919e-05
2.00607e-05
2.00505e-05
2.01805e-05
2.01947e-05
2.0196e-05
2.01966e-05
2.0197e-05
2.01968e-05
2.01964e-05
2.01964e-05
2.01973e-05
2.0199e-05
2.02008e-05
2.02019e-05
2.02018e-05
2.02001e-05
2.01975e-05
2.01961e-05
2.01967e-05
2.01979e-05
2.01989e-05
2.01996e-05
2.01999e-05
2.01994e-05
2.01981e-05
2.0197e-05
2.01994e-05
2.02033e-05
2.02112e-05
2.01968e-05
2.0059e-05
2.00502e-05
2.01825e-05
2.0197e-05
2.01992e-05
2.02007e-05
2.02017e-05
2.02019e-05
2.02007e-05
2.01983e-05
2.01962e-05
2.01977e-05
2.02003e-05
2.02024e-05
2.02031e-05
2.02016e-05
2.01983e-05
2.01941e-05
2.01936e-05
2.01967e-05
2.0199e-05
2.02e-05
2.01997e-05
2.0198e-05
2.01961e-05
2.01965e-05
2.02013e-05
2.02068e-05
2.02105e-05
2.01939e-05
2.00552e-05
2.0051e-05
2.01856e-05
2.02004e-05
2.02026e-05
2.02044e-05
2.02054e-05
2.02055e-05
2.02045e-05
2.02022e-05
2.01991e-05
2.01969e-05
2.01983e-05
2.01999e-05
2.0201e-05
2.02012e-05
2.02004e-05
2.01988e-05
2.01975e-05
2.01978e-05
2.0199e-05
2.01995e-05
2.01989e-05
2.01972e-05
2.0196e-05
2.0198e-05
2.02029e-05
2.02064e-05
2.02058e-05
2.01881e-05
2.00518e-05
2.00565e-05
2.01875e-05
2.02016e-05
2.02033e-05
2.02045e-05
2.0205e-05
2.02052e-05
2.02049e-05
2.02042e-05
2.02029e-05
2.02007e-05
2.01978e-05
2.01965e-05
2.01975e-05
2.02e-05
2.02025e-05
2.0204e-05
2.02042e-05
2.02036e-05
2.02026e-05
2.02014e-05
2.01997e-05
2.01975e-05
2.01959e-05
2.01985e-05
2.02015e-05
2.02022e-05
2.01997e-05
2.01837e-05
2.00501e-05
2.00606e-05
2.01882e-05
2.0201e-05
2.02019e-05
2.02015e-05
2.02005e-05
2.02e-05
2.02007e-05
2.02022e-05
2.02031e-05
2.02026e-05
2.02003e-05
2.01971e-05
2.01963e-05
2.01988e-05
2.02029e-05
2.02066e-05
2.0209e-05
2.02099e-05
2.0209e-05
2.02067e-05
2.02034e-05
2.01998e-05
2.01978e-05
2.0199e-05
2.02e-05
2.02001e-05
2.01987e-05
2.01838e-05
2.00519e-05
2.00599e-05
2.01918e-05
2.02033e-05
2.02028e-05
2.0201e-05
2.01989e-05
2.01976e-05
2.01981e-05
2.01995e-05
2.02008e-05
2.02014e-05
2.02009e-05
2.01991e-05
2.01964e-05
2.01967e-05
2.02016e-05
2.02072e-05
2.02113e-05
2.02131e-05
2.02124e-05
2.02096e-05
2.02056e-05
2.02011e-05
2.01978e-05
2.01982e-05
2.01997e-05
2.02009e-05
2.02002e-05
2.01872e-05
2.00543e-05
2.00576e-05
2.01952e-05
2.02068e-05
2.02072e-05
2.02085e-05
2.02097e-05
2.02105e-05
2.02099e-05
2.02072e-05
2.02033e-05
2.02014e-05
2.02026e-05
2.02033e-05
2.02028e-05
2.02021e-05
2.02036e-05
2.02063e-05
2.02085e-05
2.02093e-05
2.02088e-05
2.02071e-05
2.02042e-05
2.02007e-05
2.01978e-05
2.01985e-05
2.02004e-05
2.02014e-05
2.02017e-05
2.01889e-05
2.00556e-05
2.00667e-05
2.01937e-05
2.02088e-05
2.02127e-05
2.02181e-05
2.02221e-05
2.02231e-05
2.02202e-05
2.02143e-05
2.02073e-05
2.02025e-05
2.02039e-05
2.02072e-05
2.02099e-05
2.02109e-05
2.02101e-05
2.02073e-05
2.02032e-05
2.02006e-05
2.02007e-05
2.02019e-05
2.02021e-05
2.02012e-05
2.02001e-05
2.02002e-05
2.02008e-05
2.02022e-05
2.02033e-05
2.01896e-05
2.00574e-05
2.00753e-05
2.01883e-05
2.02136e-05
2.02212e-05
2.02263e-05
2.02278e-05
2.02253e-05
2.02196e-05
2.02124e-05
2.02054e-05
2.02008e-05
2.02027e-05
2.02079e-05
2.02125e-05
2.02145e-05
2.02133e-05
2.02092e-05
2.02033e-05
2.01977e-05
2.01955e-05
2.01984e-05
2.02012e-05
2.02025e-05
2.02023e-05
2.02016e-05
2.02029e-05
2.02064e-05
2.02081e-05
2.01958e-05
2.00632e-05
2.00754e-05
2.0204e-05
2.02227e-05
2.02261e-05
2.0226e-05
2.02222e-05
2.0216e-05
2.02098e-05
2.0205e-05
2.02014e-05
2.01989e-05
2.02012e-05
2.02067e-05
2.02114e-05
2.02135e-05
2.02128e-05
2.02102e-05
2.02063e-05
2.02018e-05
2.01983e-05
2.01983e-05
2.02008e-05
2.02026e-05
2.02031e-05
2.02039e-05
2.02067e-05
2.02102e-05
2.02129e-05
2.02026e-05
2.00672e-05
2.00679e-05
2.02183e-05
2.02283e-05
2.02256e-05
2.02194e-05
2.02114e-05
2.02041e-05
2.0202e-05
2.02026e-05
2.02018e-05
2.02011e-05
2.0203e-05
2.02064e-05
2.02094e-05
2.0211e-05
2.02115e-05
2.02106e-05
2.02081e-05
2.02048e-05
2.02017e-05
2.02e-05
2.02002e-05
2.02015e-05
2.02027e-05
2.02048e-05
2.02081e-05
2.02113e-05
2.02134e-05
2.02006e-05
2.00646e-05
2.0066e-05
2.0224e-05
2.02302e-05
2.02245e-05
2.02169e-05
2.02095e-05
2.02049e-05
2.02033e-05
2.02034e-05
2.02033e-05
2.0204e-05
2.02045e-05
2.02049e-05
2.02057e-05
2.02071e-05
2.02083e-05
2.02087e-05
2.0208e-05
2.02064e-05
2.0204e-05
2.02018e-05
2.02016e-05
2.02026e-05
2.02036e-05
2.02062e-05
2.02089e-05
2.02104e-05
2.021e-05
2.01948e-05
2.00613e-05
2.00743e-05
2.02248e-05
2.02317e-05
2.02264e-05
2.02201e-05
2.0215e-05
2.02114e-05
2.02086e-05
2.02058e-05
2.0204e-05
2.02028e-05
2.02015e-05
2.0201e-05
2.02011e-05
2.02018e-05
2.02034e-05
2.02051e-05
2.02061e-05
2.02057e-05
2.02042e-05
2.02026e-05
2.02026e-05
2.02035e-05
2.02074e-05
2.02113e-05
2.02122e-05
2.02112e-05
2.02094e-05
2.01948e-05
2.00631e-05
2.00823e-05
2.02241e-05
2.02326e-05
2.02279e-05
2.02227e-05
2.02187e-05
2.02159e-05
2.0213e-05
2.02098e-05
2.02068e-05
2.0204e-05
2.02015e-05
2.01991e-05
2.01972e-05
2.01977e-05
2.02004e-05
2.02032e-05
2.02044e-05
2.02043e-05
2.02037e-05
2.02036e-05
2.02062e-05
2.02122e-05
2.0217e-05
2.02179e-05
2.02163e-05
2.02155e-05
2.02158e-05
2.02055e-05
2.00708e-05
2.00887e-05
2.02219e-05
2.02314e-05
2.02277e-05
2.02244e-05
2.02222e-05
2.02201e-05
2.02175e-05
2.02143e-05
2.02108e-05
2.02072e-05
2.02031e-05
2.01993e-05
2.01991e-05
2.02021e-05
2.02048e-05
2.02057e-05
2.02053e-05
2.02055e-05
2.02072e-05
2.02114e-05
2.02174e-05
2.02214e-05
2.02209e-05
2.02174e-05
2.02156e-05
2.02166e-05
2.02192e-05
2.02092e-05
2.00739e-05
2.00928e-05
2.02192e-05
2.02312e-05
2.02294e-05
2.02274e-05
2.02256e-05
2.02232e-05
2.02201e-05
2.02167e-05
2.02127e-05
2.02079e-05
2.02037e-05
2.02044e-05
2.02078e-05
2.02089e-05
2.02075e-05
2.02056e-05
2.02057e-05
2.02089e-05
2.02147e-05
2.02216e-05
2.02256e-05
2.0224e-05
2.02195e-05
2.02179e-05
2.02188e-05
2.0221e-05
2.02228e-05
2.02102e-05
2.00781e-05
2.00944e-05
2.02188e-05
2.02331e-05
2.02328e-05
2.0231e-05
2.02283e-05
2.02249e-05
2.02213e-05
2.02177e-05
2.02138e-05
2.02101e-05
2.02094e-05
2.02109e-05
2.02099e-05
2.02063e-05
2.02031e-05
2.02031e-05
2.02071e-05
2.02141e-05
2.02222e-05
2.02272e-05
2.02264e-05
2.02226e-05
2.02216e-05
2.02229e-05
2.02258e-05
2.02286e-05
2.02288e-05
2.02151e-05
2.00848e-05
2.00961e-05
2.02232e-05
2.0238e-05
2.02378e-05
2.02352e-05
2.02318e-05
2.02284e-05
2.02254e-05
2.0222e-05
2.02183e-05
2.0215e-05
2.02139e-05
2.02118e-05
2.02066e-05
2.02014e-05
2.02018e-05
2.02047e-05
2.02109e-05
2.02202e-05
2.02264e-05
2.02271e-05
2.02249e-05
2.02257e-05
2.02281e-05
2.02314e-05
2.02355e-05
2.02375e-05
2.02375e-05
2.02232e-05
2.0094e-05
2.01034e-05
2.02321e-05
2.0246e-05
2.02451e-05
2.02421e-05
2.02389e-05
2.0236e-05
2.02332e-05
2.02296e-05
2.02252e-05
2.0221e-05
2.02173e-05
2.02115e-05
2.02053e-05
2.0204e-05
2.02048e-05
2.02079e-05
2.02166e-05
2.02234e-05
2.02252e-05
2.02257e-05
2.02299e-05
2.02337e-05
2.02366e-05
2.02416e-05
2.02449e-05
2.02468e-05
2.02475e-05
2.0234e-05
2.01064e-05
2.01165e-05
2.02448e-05
2.02577e-05
2.0256e-05
2.0253e-05
2.02499e-05
2.02469e-05
2.02436e-05
2.02393e-05
2.02343e-05
2.02287e-05
2.02218e-05
2.02147e-05
2.02106e-05
2.02081e-05
2.02066e-05
2.02112e-05
2.02178e-05
2.02221e-05
2.0227e-05
2.02339e-05
2.02387e-05
2.02418e-05
2.02468e-05
2.02513e-05
2.02543e-05
2.02573e-05
2.02598e-05
2.02507e-05
2.0118e-05
2.01348e-05
2.02611e-05
2.02733e-05
2.02713e-05
2.0268e-05
2.02643e-05
2.02601e-05
2.02552e-05
2.02497e-05
2.02431e-05
2.02354e-05
2.02276e-05
2.0222e-05
2.02179e-05
2.02126e-05
2.02096e-05
2.02129e-05
2.02197e-05
2.02287e-05
2.02375e-05
2.02431e-05
2.02473e-05
2.02528e-05
2.02585e-05
2.0263e-05
2.02679e-05
2.02721e-05
2.0276e-05
2.02659e-05
2.01332e-05
2.01562e-05
2.0281e-05
2.02929e-05
2.02901e-05
2.02856e-05
2.02802e-05
2.02741e-05
2.02676e-05
2.02606e-05
2.02528e-05
2.02446e-05
2.02383e-05
2.02333e-05
2.02267e-05
2.0219e-05
2.02161e-05
2.02212e-05
2.02307e-05
2.02405e-05
2.02478e-05
2.02536e-05
2.02606e-05
2.02669e-05
2.0273e-05
2.02792e-05
2.02862e-05
2.02916e-05
2.02931e-05
2.02818e-05
2.01537e-05
2.018e-05
2.03037e-05
2.03144e-05
2.03107e-05
2.03054e-05
2.0299e-05
2.02918e-05
2.02842e-05
2.02758e-05
2.02668e-05
2.02587e-05
2.02522e-05
2.02446e-05
2.02351e-05
2.02266e-05
2.02252e-05
2.02323e-05
2.02424e-05
2.02521e-05
2.02605e-05
2.02683e-05
2.0277e-05
2.02847e-05
2.02928e-05
2.03004e-05
2.03087e-05
2.03145e-05
2.03144e-05
2.03026e-05
2.01803e-05
2.02072e-05
2.03294e-05
2.034e-05
2.0336e-05
2.03302e-05
2.03233e-05
2.03155e-05
2.03065e-05
2.02962e-05
2.02851e-05
2.02755e-05
2.0266e-05
2.02547e-05
2.02427e-05
2.02339e-05
2.0234e-05
2.02423e-05
2.02527e-05
2.02637e-05
2.02749e-05
2.02854e-05
2.02966e-05
2.03078e-05
2.0318e-05
2.03258e-05
2.03343e-05
2.0341e-05
2.03413e-05
2.03333e-05
2.02099e-05
2.02402e-05
2.0362e-05
2.03727e-05
2.03683e-05
2.03615e-05
2.03533e-05
2.03439e-05
2.03329e-05
2.03201e-05
2.03066e-05
2.0294e-05
2.02807e-05
2.02664e-05
2.02527e-05
2.02435e-05
2.02441e-05
2.02532e-05
2.02649e-05
2.02781e-05
2.02927e-05
2.03071e-05
2.03219e-05
2.03362e-05
2.03467e-05
2.0355e-05
2.03635e-05
2.03718e-05
2.03768e-05
2.03682e-05
2.02437e-05
2.02814e-05
2.0403e-05
2.04127e-05
2.04068e-05
2.03982e-05
2.03884e-05
2.03772e-05
2.03645e-05
2.03496e-05
2.03336e-05
2.03175e-05
2.03007e-05
2.02834e-05
2.02678e-05
2.02572e-05
2.02572e-05
2.02677e-05
2.02824e-05
2.02987e-05
2.03159e-05
2.03342e-05
2.03521e-05
2.03665e-05
2.03785e-05
2.03889e-05
2.03989e-05
2.04094e-05
2.04178e-05
2.04072e-05
2.02851e-05
2.0332e-05
2.04513e-05
2.04595e-05
2.04525e-05
2.04425e-05
2.04311e-05
2.04185e-05
2.0404e-05
2.03869e-05
2.03676e-05
2.03469e-05
2.03258e-05
2.03054e-05
2.02878e-05
2.02756e-05
2.02751e-05
2.02872e-05
2.03062e-05
2.03256e-05
2.0346e-05
2.03677e-05
2.03852e-05
2.0401e-05
2.04173e-05
2.04314e-05
2.04423e-05
2.0455e-05
2.04636e-05
2.04532e-05
2.0335e-05
2.03928e-05
2.0509e-05
2.05166e-05
2.05089e-05
2.04976e-05
2.04842e-05
2.0469e-05
2.04511e-05
2.04304e-05
2.04071e-05
2.03822e-05
2.03575e-05
2.03341e-05
2.03137e-05
2.02999e-05
2.02996e-05
2.03127e-05
2.03351e-05
2.03587e-05
2.03828e-05
2.04057e-05
2.04259e-05
2.04461e-05
2.04669e-05
2.04826e-05
2.04962e-05
2.05098e-05
2.05179e-05
2.05095e-05
2.03946e-05
2.04662e-05
2.058e-05
2.05871e-05
2.05777e-05
2.05638e-05
2.05472e-05
2.05282e-05
2.05065e-05
2.0482e-05
2.04551e-05
2.04268e-05
2.03986e-05
2.03712e-05
2.03468e-05
2.03309e-05
2.03317e-05
2.03462e-05
2.03707e-05
2.03988e-05
2.04261e-05
2.04528e-05
2.04799e-05
2.05037e-05
2.05264e-05
2.05452e-05
2.05626e-05
2.05762e-05
2.05854e-05
2.05782e-05
2.04664e-05
2.05554e-05
2.0666e-05
2.0671e-05
2.0659e-05
2.06424e-05
2.06229e-05
2.06007e-05
2.05753e-05
2.05471e-05
2.05165e-05
2.04845e-05
2.04519e-05
2.04197e-05
2.03905e-05
2.03718e-05
2.03741e-05
2.03921e-05
2.04192e-05
2.04516e-05
2.04834e-05
2.05156e-05
2.05481e-05
2.05751e-05
2.05994e-05
2.06236e-05
2.06429e-05
2.0657e-05
2.06671e-05
2.06616e-05
2.05542e-05
2.0663e-05
2.07676e-05
2.07705e-05
2.0757e-05
2.07389e-05
2.07168e-05
2.06911e-05
2.06619e-05
2.06298e-05
2.05952e-05
2.05582e-05
2.05198e-05
2.0483e-05
2.04503e-05
2.04286e-05
2.04308e-05
2.04524e-05
2.04828e-05
2.05205e-05
2.05593e-05
2.05954e-05
2.06322e-05
2.06622e-05
2.0691e-05
2.07189e-05
2.07402e-05
2.07554e-05
2.07679e-05
2.0765e-05
2.06619e-05
2.07911e-05
2.089e-05
2.08924e-05
2.08779e-05
2.08572e-05
2.08315e-05
2.08018e-05
2.07686e-05
2.07323e-05
2.06925e-05
2.06496e-05
2.06054e-05
2.05641e-05
2.0529e-05
2.05044e-05
2.05041e-05
2.05285e-05
2.0564e-05
2.0608e-05
2.0653e-05
2.06939e-05
2.07336e-05
2.07692e-05
2.0803e-05
2.08341e-05
2.08576e-05
2.08764e-05
2.08924e-05
2.0891e-05
2.07924e-05
2.09449e-05
2.10404e-05
2.10413e-05
2.10236e-05
2.09991e-05
2.09694e-05
2.09358e-05
2.08983e-05
2.08565e-05
2.08108e-05
2.07629e-05
2.0714e-05
2.06671e-05
2.06275e-05
2.06001e-05
2.05973e-05
2.06259e-05
2.06684e-05
2.07176e-05
2.07669e-05
2.08122e-05
2.08563e-05
2.0899e-05
2.09378e-05
2.09715e-05
2.09985e-05
2.10219e-05
2.10405e-05
2.10409e-05
2.09484e-05
2.11321e-05
2.12218e-05
2.12185e-05
2.11974e-05
2.117e-05
2.11378e-05
2.11001e-05
2.1057e-05
2.10093e-05
2.09579e-05
2.09057e-05
2.08517e-05
2.07976e-05
2.07507e-05
2.07215e-05
2.07193e-05
2.07509e-05
2.07992e-05
2.08524e-05
2.09062e-05
2.09579e-05
2.10093e-05
2.10578e-05
2.11001e-05
2.11377e-05
2.117e-05
2.11969e-05
2.12174e-05
2.1222e-05
2.11328e-05
2.13567e-05
2.14378e-05
2.14316e-05
2.14098e-05
2.13807e-05
2.13443e-05
2.13005e-05
2.12521e-05
2.12004e-05
2.11438e-05
2.10847e-05
2.10248e-05
2.09667e-05
2.09122e-05
2.08793e-05
2.08784e-05
2.09114e-05
2.09647e-05
2.10242e-05
2.10842e-05
2.11432e-05
2.12002e-05
2.12528e-05
2.1299e-05
2.13431e-05
2.13804e-05
2.141e-05
2.14323e-05
2.1441e-05
2.1355e-05
2.16252e-05
2.1702e-05
2.16947e-05
2.167e-05
2.1635e-05
2.15927e-05
2.15451e-05
2.14933e-05
2.14364e-05
2.13738e-05
2.1309e-05
2.12435e-05
2.11825e-05
2.11221e-05
2.1081e-05
2.10841e-05
2.11228e-05
2.11795e-05
2.12445e-05
2.13096e-05
2.13741e-05
2.14353e-05
2.14933e-05
2.15462e-05
2.15933e-05
2.16335e-05
2.16682e-05
2.16955e-05
2.17069e-05
2.16259e-05
2.19529e-05
2.20301e-05
2.2015e-05
2.19831e-05
2.19433e-05
2.18984e-05
2.18475e-05
2.17896e-05
2.17271e-05
2.1661e-05
2.15945e-05
2.15225e-05
2.14549e-05
2.13923e-05
2.13478e-05
2.13513e-05
2.13948e-05
2.14543e-05
2.15226e-05
2.15933e-05
2.16628e-05
2.17271e-05
2.17889e-05
2.18488e-05
2.18995e-05
2.19433e-05
2.19837e-05
2.20169e-05
2.2031e-05
2.19516e-05
2.2357e-05
2.24378e-05
2.24104e-05
2.23759e-05
2.23325e-05
2.22801e-05
2.22233e-05
2.21603e-05
2.2095e-05
2.20264e-05
2.19602e-05
2.18903e-05
2.18246e-05
2.17649e-05
2.17262e-05
2.17276e-05
2.17671e-05
2.18252e-05
2.1891e-05
2.19577e-05
2.20258e-05
2.20958e-05
2.21608e-05
2.22217e-05
2.22781e-05
2.2333e-05
2.23774e-05
2.24142e-05
2.24378e-05
2.23518e-05
2.28693e-05
2.29883e-05
2.29447e-05
2.2908e-05
2.28494e-05
2.27835e-05
2.27234e-05
2.26544e-05
2.2593e-05
2.25416e-05
2.25049e-05
2.24958e-05
2.25214e-05
2.25435e-05
2.25841e-05
2.26031e-05
2.25593e-05
2.25183e-05
2.25035e-05
2.25073e-05
2.25403e-05
2.2593e-05
2.26572e-05
2.27216e-05
2.27802e-05
2.28485e-05
2.29067e-05
2.29429e-05
2.29906e-05
2.2863e-05
2.36669e-05
2.39966e-05
2.3879e-05
2.39161e-05
2.3766e-05
2.36495e-05
2.36373e-05
2.35711e-05
2.35538e-05
2.36932e-05
2.40176e-05
2.46331e-05
2.56174e-05
2.65982e-05
2.7446e-05
2.75733e-05
2.67278e-05
2.56399e-05
2.4731e-05
2.40248e-05
2.37097e-05
2.35602e-05
2.35637e-05
2.36385e-05
2.36446e-05
2.37552e-05
2.39243e-05
2.38798e-05
2.40054e-05
2.36498e-05
2.58239e-05
2.71328e-05
2.66974e-05
2.76349e-05
2.6693e-05
2.64173e-05
2.70958e-05
2.7004e-05
2.74568e-05
2.93177e-05
3.26078e-05
3.82357e-05
4.72293e-05
5.56241e-05
6.20956e-05
6.2215e-05
5.68211e-05
4.72184e-05
3.93266e-05
3.26991e-05
2.95096e-05
2.75272e-05
2.69715e-05
2.70871e-05
2.64107e-05
2.66581e-05
2.76786e-05
2.67042e-05
2.72038e-05
2.57351e-05
3.66746e-05
3.94092e-05
3.82884e-05
4.49138e-05
4.05593e-05
4.17512e-05
4.78389e-05
4.7958e-05
5.36642e-05
6.61754e-05
8.96966e-05
0.000127667
0.000170278
0.000208093
0.000234842
0.000230387
0.000213238
0.000168973
0.000130889
8.93982e-05
6.79296e-05
5.41801e-05
4.77968e-05
4.75885e-05
4.18841e-05
4.03427e-05
4.54e-05
3.83406e-05
3.96525e-05
3.63091e-05
9.09039e-05
7.91342e-05
8.72206e-05
0.000108397
0.000107133
0.000133598
0.000158538
0.000164143
0.00021069
0.000300527
0.000334514
0.000470312
0.00052587
0.000602977
0.000627651
0.000622641
0.000597639
0.000536392
0.000447725
0.000338785
0.000310802
0.000213583
0.000163995
0.000155724
0.000134021
0.000106823
0.000111946
9.03864e-05
7.96784e-05
9.07214e-05
0.000208097
0.000181765
0.000246495
0.00027388
0.00030095
0.000435565
0.000446417
0.000500111
0.000609316
0.000795664
0.000707585
0.000960364
0.000893176
0.00106288
0.000963569
0.00105674
0.000948625
0.000980772
0.000812951
0.000759452
0.000825131
0.000607801
0.000506325
0.000446313
0.000431854
0.000344551
0.000289591
0.000261399
0.000183426
0.000208293
0.000402725
0.000498569
0.000479892
0.000556014
0.000649791
0.000958336
0.000991707
0.00101558
0.00115619
0.00145542
0.00126205
0.00173575
0.00155996
0.00173905
0.00141323
0.00171125
0.00148699
0.00155378
0.00132583
0.00130466
0.0014925
0.00113312
0.000999399
0.000902582
0.000967893
0.000740966
0.000599091
0.000509149
0.000511795
0.000404536
0.000514654
0.000585515
0.000673584
0.000774729
0.000931784
0.00142878
0.00162377
0.00128617
0.00131046
0.00166263
0.00166262
0.00198722
0.00191796
0.00183811
0.00172445
0.00181462
0.00183559
0.00190559
0.00183113
0.00147198
0.00159895
0.00134259
0.00122705
0.00147956
0.00149356
0.000976967
0.000813493
0.000694311
0.000603112
0.000522899
0.000577921
0.000670318
0.000799527
0.00100611
0.00110448
0.00135658
0.00147082
0.00150511
0.00132041
0.00150948
0.00144863
0.00153547
0.00160441
0.00154145
0.00157545
0.00166514
0.00167481
0.00153333
0.00174694
0.00154015
0.00155084
0.0014016
0.00141415
0.00138109
0.00136819
0.00115571
0.00106746
0.00084225
0.000620308
0.000602504
0.000544991
0.000636744
0.000726894
0.000849245
0.000892105
0.00110688
0.00113825
0.00120699
0.00130182
0.00147305
0.00132906
0.0016039
0.00140076
0.00160742
0.00143446
0.00178091
0.00145948
0.0015012
0.00144253
0.00151412
0.00158098
0.00123462
0.00120182
0.00111853
0.00108819
0.000895854
0.000869149
0.000742735
0.000613401
0.000577575
0.000342982
0.000453101
0.000596208
0.000662948
0.000646389
0.000736094
0.00075648
0.000790044
0.000856293
0.00102415
0.00105987
0.00120646
0.00120356
0.00132715
0.00132506
0.00143675
0.00122129
0.00120037
0.00114998
0.00108499
0.00103867
0.000848673
0.000786535
0.000739831
0.00067872
0.000648736
0.000659074
0.000591707
0.0004607
0.000351023
0.000222009
0.000296961
0.000394657
0.000438998
0.000377977
0.000410948
0.000476265
0.00052109
0.000558636
0.000630231
0.000679001
0.0007404
0.000796229
0.000860519
0.000949703
0.000939164
0.000855527
0.000781185
0.000757182
0.000675183
0.000628208
0.000566647
0.000525311
0.000475228
0.000403392
0.000375913
0.000428593
0.000383435
0.000298947
0.000221653
0.000177282
0.000212134
0.000249369
0.000281087
0.00022628
0.000223959
0.000278571
0.000343397
0.000419087
0.000495409
0.000535012
0.000560543
0.000584345
0.000617627
0.000661634
0.000651073
0.00061975
0.000581133
0.000565744
0.000529758
0.00049307
0.000420859
0.00034655
0.000279686
0.000223999
0.000224608
0.000276786
0.000244352
0.000212281
0.000177217
0.000144496
0.000158396
0.000166469
0.000177786
0.000158785
0.000149735
0.000164798
0.000200327
0.000263605
0.000349604
0.000424268
0.000481096
0.000514756
0.000536396
0.000543105
0.000539064
0.000537182
0.000515781
0.000480079
0.000418878
0.00034715
0.000262352
0.000201099
0.000165566
0.000150387
0.000158862
0.000177084
0.000164573
0.000157802
0.000144395
0.000123151
0.000124358
0.000124862
0.000127145
0.000122771
0.000119744
0.00012307
0.000133856
0.000160134
0.000211732
0.00028491
0.000365955
0.000436278
0.000483314
0.000494739
0.000492208
0.000483707
0.000437616
0.000365518
0.000282146
0.000210225
0.000159637
0.000133859
0.000123226
0.00012005
0.00012311
0.000126936
0.000124566
0.000124226
0.0001224
0.000106734
0.000105041
0.00010375
0.000104014
0.000103052
0.000102923
0.00010449
0.000108267
0.000116535
0.000135196
0.000172037
0.000232008
0.000305918
0.000373083
0.000406267
0.000403747
0.000373295
0.000307521
0.000231931
0.000171231
0.000134684
0.000116357
0.000107971
0.000104388
0.000102868
0.000102993
0.000103878
0.000103715
0.000104936
0.000107115
9.52604e-05
9.2305e-05
9.12425e-05
9.12634e-05
9.13058e-05
9.19973e-05
9.31128e-05
9.49899e-05
9.79606e-05
0.000103466
0.000115048
0.000138595
0.00017803
0.000226603
0.00026299
0.000261737
0.000226547
0.000178668
0.000138675
0.000114862
0.000103191
9.75839e-05
9.48622e-05
9.29813e-05
9.19258e-05
9.12073e-05
9.12302e-05
9.13694e-05
9.25095e-05
9.55039e-05
8.63226e-05
8.26228e-05
8.19019e-05
8.19749e-05
8.237e-05
8.31672e-05
8.41354e-05
8.53323e-05
8.66326e-05
8.8359e-05
9.11841e-05
9.71149e-05
0.000108594
0.00012563
0.000142108
0.000141931
0.000125693
0.00010869
9.72802e-05
9.11607e-05
8.83953e-05
8.64208e-05
8.52927e-05
8.40661e-05
8.31117e-05
8.24731e-05
8.1876e-05
8.20977e-05
8.29943e-05
8.64563e-05
7.86497e-05
7.48141e-05
7.40403e-05
7.40976e-05
7.4724e-05
7.54686e-05
7.61772e-05
7.68996e-05
7.74963e-05
7.79963e-05
7.84878e-05
7.94986e-05
8.14728e-05
8.48889e-05
8.85087e-05
8.84378e-05
8.49435e-05
8.14864e-05
7.95959e-05
7.83853e-05
7.78775e-05
7.72809e-05
7.67763e-05
7.60818e-05
7.52698e-05
7.47474e-05
7.4165e-05
7.42185e-05
7.5132e-05
7.88717e-05
7.19001e-05
6.80154e-05
6.72239e-05
6.73379e-05
6.79012e-05
6.84717e-05
6.88768e-05
6.91841e-05
6.93236e-05
6.92535e-05
6.90086e-05
6.88143e-05
6.86014e-05
6.86489e-05
6.88846e-05
6.885e-05
6.86976e-05
6.85987e-05
6.87927e-05
6.89712e-05
6.91465e-05
6.92266e-05
6.90826e-05
6.87516e-05
6.82805e-05
6.77766e-05
6.7545e-05
6.74448e-05
6.8258e-05
7.20227e-05
6.57395e-05
6.20241e-05
6.11975e-05
6.13273e-05
6.18232e-05
6.21434e-05
6.22203e-05
6.2146e-05
6.19183e-05
6.15228e-05
6.09748e-05
6.03601e-05
5.96392e-05
5.90279e-05
5.86626e-05
5.86865e-05
5.91059e-05
5.96964e-05
6.02808e-05
6.09314e-05
6.14971e-05
6.19719e-05
6.21406e-05
6.20755e-05
6.19988e-05
6.17094e-05
6.15329e-05
6.14015e-05
6.21511e-05
6.57795e-05
6.00719e-05
5.65867e-05
5.59427e-05
5.60798e-05
5.63306e-05
5.63236e-05
5.61923e-05
5.59303e-05
5.54994e-05
5.48804e-05
5.41179e-05
5.32704e-05
5.23644e-05
5.16284e-05
5.11992e-05
5.12641e-05
5.1734e-05
5.248e-05
5.3271e-05
5.41489e-05
5.49252e-05
5.55516e-05
5.59493e-05
5.61582e-05
5.62349e-05
5.61288e-05
5.59884e-05
5.59503e-05
5.67237e-05
6.01024e-05
5.47827e-05
5.18249e-05
5.12417e-05
5.12147e-05
5.11903e-05
5.10898e-05
5.08823e-05
5.0486e-05
4.99065e-05
4.91314e-05
4.82462e-05
4.73153e-05
4.63802e-05
4.56295e-05
4.51731e-05
4.51981e-05
4.56471e-05
4.64164e-05
4.73087e-05
4.82756e-05
4.91804e-05
4.99347e-05
5.04533e-05
5.08185e-05
5.09953e-05
5.10305e-05
5.10265e-05
5.11296e-05
5.19053e-05
5.49572e-05
5.02107e-05
4.75565e-05
4.68883e-05
4.67576e-05
4.66942e-05
4.65717e-05
4.62361e-05
4.57117e-05
4.50461e-05
4.42197e-05
4.33068e-05
4.23759e-05
4.14592e-05
4.06991e-05
4.0216e-05
4.01994e-05
4.06439e-05
4.13973e-05
4.2312e-05
4.3281e-05
4.42138e-05
4.50384e-05
4.56517e-05
4.60988e-05
4.63911e-05
4.65632e-05
4.66846e-05
4.68635e-05
4.75713e-05
5.02689e-05
4.59697e-05
4.35842e-05
4.3025e-05
4.2895e-05
4.2767e-05
4.24832e-05
4.20611e-05
4.15188e-05
4.08444e-05
4.00274e-05
3.91368e-05
3.82232e-05
3.73248e-05
3.65718e-05
3.60955e-05
3.60603e-05
3.64799e-05
3.72031e-05
3.81005e-05
3.90548e-05
3.99841e-05
4.08182e-05
4.1483e-05
4.19893e-05
4.23687e-05
4.26451e-05
4.28477e-05
4.30479e-05
4.36687e-05
4.60298e-05
4.21923e-05
4.02527e-05
3.97695e-05
3.95425e-05
3.92549e-05
3.88793e-05
3.84679e-05
3.79321e-05
3.72701e-05
3.64967e-05
3.5653e-05
3.4761e-05
3.38792e-05
3.31447e-05
3.2693e-05
3.26562e-05
3.3044e-05
3.37297e-05
3.45987e-05
3.55344e-05
3.64479e-05
3.72617e-05
3.79268e-05
3.84582e-05
3.88849e-05
3.92172e-05
3.94617e-05
3.96792e-05
4.02407e-05
4.22826e-05
3.90227e-05
3.74499e-05
3.68884e-05
3.65676e-05
3.62284e-05
3.59129e-05
3.5513e-05
3.49716e-05
3.43378e-05
3.36129e-05
3.28047e-05
3.19339e-05
3.10958e-05
3.04194e-05
3.00094e-05
2.99772e-05
3.03398e-05
3.09975e-05
3.18328e-05
3.27164e-05
3.35593e-05
3.431e-05
3.4944e-05
3.54739e-05
3.59125e-05
3.62627e-05
3.65307e-05
3.67637e-05
3.72627e-05
3.898e-05
3.6239e-05
3.47988e-05
3.42667e-05
3.39889e-05
3.37402e-05
3.34676e-05
3.30462e-05
3.25292e-05
3.19389e-05
3.1244e-05
3.04603e-05
2.96429e-05
2.88908e-05
2.82874e-05
2.79069e-05
2.78725e-05
2.82168e-05
2.88436e-05
2.96176e-05
3.04074e-05
3.11496e-05
3.18312e-05
3.24398e-05
3.29686e-05
3.34054e-05
3.37499e-05
3.40124e-05
3.42308e-05
3.46478e-05
3.60639e-05
3.37029e-05
3.24136e-05
3.20557e-05
3.18628e-05
3.16614e-05
3.13533e-05
3.09447e-05
3.0484e-05
2.99354e-05
2.92791e-05
2.85503e-05
2.78126e-05
2.71347e-05
2.65708e-05
2.62062e-05
2.61826e-05
2.65232e-05
2.71101e-05
2.78022e-05
2.84948e-05
2.91597e-05
2.97958e-05
3.03802e-05
3.08831e-05
3.12858e-05
3.15945e-05
3.18274e-05
3.20185e-05
3.23641e-05
3.35311e-05
3.14226e-05
3.04681e-05
3.02196e-05
3.00482e-05
2.98273e-05
2.95207e-05
2.91775e-05
2.87723e-05
2.82649e-05
2.7666e-05
2.70136e-05
2.63574e-05
2.57378e-05
2.52085e-05
2.48755e-05
2.48762e-05
2.52055e-05
2.57348e-05
2.63433e-05
2.69593e-05
2.75657e-05
2.8149e-05
2.86781e-05
2.91219e-05
2.94726e-05
2.97436e-05
2.99529e-05
3.01263e-05
3.04163e-05
3.137e-05
2.95819e-05
2.8898e-05
2.86377e-05
2.84609e-05
2.8255e-05
2.80094e-05
2.77247e-05
2.73507e-05
2.68814e-05
2.63399e-05
2.57657e-05
2.51907e-05
2.4636e-05
2.4159e-05
2.38712e-05
2.38871e-05
2.41865e-05
2.46507e-05
2.51829e-05
2.5731e-05
2.62744e-05
2.67896e-05
2.72479e-05
2.76304e-05
2.79377e-05
2.81815e-05
2.83731e-05
2.8529e-05
2.87678e-05
2.95295e-05
2.80937e-05
2.74811e-05
2.72339e-05
2.71092e-05
2.69526e-05
2.6751e-05
2.64826e-05
2.61286e-05
2.5705e-05
2.52383e-05
2.4762e-05
2.42811e-05
2.38012e-05
2.33833e-05
2.31361e-05
2.31508e-05
2.3407e-05
2.38011e-05
2.42566e-05
2.47353e-05
2.52107e-05
2.56562e-05
2.60486e-05
2.63796e-05
2.66525e-05
2.68727e-05
2.70445e-05
2.71791e-05
2.73691e-05
2.796e-05
2.67178e-05
2.61832e-05
2.60547e-05
2.59779e-05
2.58365e-05
2.56414e-05
2.53812e-05
2.50642e-05
2.47072e-05
2.43357e-05
2.39598e-05
2.35599e-05
2.31455e-05
2.27835e-05
2.25662e-05
2.25656e-05
2.27705e-05
2.3097e-05
2.34879e-05
2.39089e-05
2.43257e-05
2.47117e-05
2.5052e-05
2.53438e-05
2.55874e-05
2.5782e-05
2.59275e-05
2.60371e-05
2.61839e-05
2.66309e-05
2.55021e-05
2.51785e-05
2.51279e-05
2.50305e-05
2.48875e-05
2.47044e-05
2.44762e-05
2.42142e-05
2.39288e-05
2.36336e-05
2.33158e-05
2.29604e-05
2.25977e-05
2.22914e-05
2.21049e-05
2.20909e-05
2.22495e-05
2.25259e-05
2.28722e-05
2.3247e-05
2.36148e-05
2.3951e-05
2.42474e-05
2.45023e-05
2.47121e-05
2.48731e-05
2.49874e-05
2.50717e-05
2.51839e-05
2.55209e-05
2.46124e-05
2.44618e-05
2.43634e-05
2.42459e-05
2.41251e-05
2.39705e-05
2.37844e-05
2.3574e-05
2.3349e-05
2.31034e-05
2.28171e-05
2.24998e-05
2.21963e-05
2.19501e-05
2.17923e-05
2.17673e-05
2.18912e-05
2.21275e-05
2.24289e-05
2.27515e-05
2.30623e-05
2.33434e-05
2.3591e-05
2.38038e-05
2.39763e-05
2.41057e-05
2.4198e-05
2.42681e-05
2.43561e-05
2.46025e-05
2.3941e-05
2.37941e-05
2.36693e-05
2.35957e-05
2.35118e-05
2.33903e-05
2.32399e-05
2.30717e-05
2.28918e-05
2.2681e-05
2.24293e-05
2.21663e-05
2.19314e-05
2.17403e-05
2.16065e-05
2.15761e-05
2.16703e-05
2.18608e-05
2.21052e-05
2.23637e-05
2.26107e-05
2.28373e-05
2.30401e-05
2.32156e-05
2.33593e-05
2.34702e-05
2.35526e-05
2.3615e-05
2.36808e-05
2.38463e-05
2.33011e-05
2.31493e-05
2.30991e-05
2.30817e-05
2.30278e-05
2.29311e-05
2.2801e-05
2.26582e-05
2.25033e-05
2.23178e-05
2.21081e-05
2.19064e-05
2.17301e-05
2.15774e-05
2.14632e-05
2.14331e-05
2.15071e-05
2.16579e-05
2.18486e-05
2.20494e-05
2.22454e-05
2.24316e-05
2.26027e-05
2.27516e-05
2.28741e-05
2.29698e-05
2.30408e-05
2.30908e-05
2.313e-05
2.32243e-05
2.27207e-05
2.26583e-05
2.2692e-05
2.26917e-05
2.26411e-05
2.25472e-05
2.24288e-05
2.23086e-05
2.21766e-05
2.20196e-05
2.18547e-05
2.17033e-05
2.15632e-05
2.14314e-05
2.1331e-05
2.13088e-05
2.13787e-05
2.15067e-05
2.16602e-05
2.18207e-05
2.19805e-05
2.21357e-05
2.2279e-05
2.24024e-05
2.25019e-05
2.25764e-05