/*--------------------------------*- C++ -*----------------------------------*\
| =========                 |                                                 |
| \\      /  F ield         | OpenFOAM: The Open Source CFD Toolbox           |
|  \\    /   O peration     | Version:  2312                                  |
|   \\  /    A nd           | Website:  www.openfoam.com                      |
|    \\/     M anipulation  |                                                 |
\*---------------------------------------------------------------------------*/
FoamFile
{
    version     2.0;
    format      ascii;
    arch        "LSB;label=32;scalar=64";
    class       volScalarField;
    location    "1.50315242808";
    object      nut;
}
// * * * * * * * * * * * * * * * * * * * * * * * * * * * * * * * * * * * * * //

dimensions      [0 2 -1 0 0 0 0];

internalField   nonuniform List<scalar> 
90000
(
4.97123e-06
4.97192e-06
4.97211e-06
4.97217e-06
4.97229e-06
4.97235e-06
4.9724e-06
4.97243e-06
4.9724e-06
4.97231e-06
4.97214e-06
4.97192e-06
4.97172e-06
4.97166e-06
4.97176e-06
4.97184e-06
4.97185e-06
4.97187e-06
4.97194e-06
4.97196e-06
4.97183e-06
4.9718e-06
4.97221e-06
4.97287e-06
4.97342e-06
4.97362e-06
4.97331e-06
4.97304e-06
4.97454e-06
4.97717e-06
4.97243e-06
4.98774e-06
4.98925e-06
4.9893e-06
4.98927e-06
4.98929e-06
4.98934e-06
4.98939e-06
4.98941e-06
4.98941e-06
4.98943e-06
4.98949e-06
4.98955e-06
4.98956e-06
4.98953e-06
4.98944e-06
4.98936e-06
4.98935e-06
4.98935e-06
4.98935e-06
4.98943e-06
4.9896e-06
4.98978e-06
4.98985e-06
4.98975e-06
4.98968e-06
4.99005e-06
4.99125e-06
4.9906e-06
4.9807e-06
4.97231e-06
4.98946e-06
4.99129e-06
4.9914e-06
4.99144e-06
4.9915e-06
4.99156e-06
4.99158e-06
4.99151e-06
4.99141e-06
4.99142e-06
4.99158e-06
4.99183e-06
4.99198e-06
4.99197e-06
4.99177e-06
4.99143e-06
4.99118e-06
4.99142e-06
4.99174e-06
4.99194e-06
4.99194e-06
4.99177e-06
4.99154e-06
4.99164e-06
4.99201e-06
4.99237e-06
4.99371e-06
4.99544e-06
4.97931e-06
4.97211e-06
4.9894e-06
4.99147e-06
4.99168e-06
4.9918e-06
4.99192e-06
4.99202e-06
4.99206e-06
4.99201e-06
4.99186e-06
4.99172e-06
4.99175e-06
4.99187e-06
4.99199e-06
4.99197e-06
4.99179e-06
4.99152e-06
4.9915e-06
4.99182e-06
4.99208e-06
4.99211e-06
4.99192e-06
4.99187e-06
4.99233e-06
4.99276e-06
4.99313e-06
4.99374e-06
4.99386e-06
4.99489e-06
4.97591e-06
4.97212e-06
4.98932e-06
4.99146e-06
4.99168e-06
4.9918e-06
4.99189e-06
4.99197e-06
4.99203e-06
4.99206e-06
4.99203e-06
4.99194e-06
4.99181e-06
4.99166e-06
4.99153e-06
4.99152e-06
4.9917e-06
4.99191e-06
4.99206e-06
4.99207e-06
4.99194e-06
4.99175e-06
4.99183e-06
4.99228e-06
4.99275e-06
4.99305e-06
4.99304e-06
4.99291e-06
4.99316e-06
4.992e-06
4.97398e-06
4.97223e-06
4.98939e-06
4.99139e-06
4.99154e-06
4.99158e-06
4.99159e-06
4.99163e-06
4.99171e-06
4.99183e-06
4.99195e-06
4.99203e-06
4.99207e-06
4.99201e-06
4.99184e-06
4.99164e-06
4.99176e-06
4.992e-06
4.99211e-06
4.99205e-06
4.99189e-06
4.99184e-06
4.99202e-06
4.99229e-06
4.99251e-06
4.99261e-06
4.99254e-06
4.9921e-06
4.99294e-06
4.99098e-06
4.97364e-06
4.97232e-06
4.98949e-06
4.9914e-06
4.99156e-06
4.99165e-06
4.99168e-06
4.99165e-06
4.99162e-06
4.99165e-06
4.9918e-06
4.99204e-06
4.99229e-06
4.99243e-06
4.9924e-06
4.99214e-06
4.99177e-06
4.9916e-06
4.99172e-06
4.99189e-06
4.99202e-06
4.9921e-06
4.99213e-06
4.99207e-06
4.9919e-06
4.99174e-06
4.99202e-06
4.99249e-06
4.99358e-06
4.9916e-06
4.97339e-06
4.97225e-06
4.98976e-06
4.99172e-06
4.99202e-06
4.99222e-06
4.99235e-06
4.99237e-06
4.9922e-06
4.99187e-06
4.99162e-06
4.99184e-06
4.99221e-06
4.9925e-06
4.99258e-06
4.99237e-06
4.99191e-06
4.99133e-06
4.99128e-06
4.99171e-06
4.99203e-06
4.99216e-06
4.99212e-06
4.9919e-06
4.99163e-06
4.99163e-06
4.99224e-06
4.99298e-06
4.9935e-06
4.99122e-06
4.97286e-06
4.97235e-06
4.99014e-06
4.99218e-06
4.99249e-06
4.99274e-06
4.99289e-06
4.99289e-06
4.99273e-06
4.9924e-06
4.99195e-06
4.99166e-06
4.99189e-06
4.99214e-06
4.99231e-06
4.99234e-06
4.99221e-06
4.99197e-06
4.99178e-06
4.99182e-06
4.99199e-06
4.99209e-06
4.99201e-06
4.99179e-06
4.9916e-06
4.99179e-06
4.99245e-06
4.99294e-06
4.99286e-06
4.99044e-06
4.97238e-06
4.97311e-06
4.99037e-06
4.99233e-06
4.99259e-06
4.99276e-06
4.99284e-06
4.99285e-06
4.9928e-06
4.99268e-06
4.99249e-06
4.99217e-06
4.99177e-06
4.99165e-06
4.99183e-06
4.99218e-06
4.9925e-06
4.99267e-06
4.99268e-06
4.99258e-06
4.99245e-06
4.9923e-06
4.99208e-06
4.99178e-06
4.99153e-06
4.99189e-06
4.9923e-06
4.99239e-06
4.99204e-06
4.98985e-06
4.97216e-06
4.97367e-06
4.99047e-06
4.99225e-06
4.99238e-06
4.99234e-06
4.99221e-06
4.99214e-06
4.99223e-06
4.99241e-06
4.99253e-06
4.99244e-06
4.99212e-06
4.99168e-06
4.99163e-06
4.992e-06
4.99255e-06
4.99303e-06
4.99334e-06
4.99344e-06
4.9933e-06
4.99299e-06
4.99255e-06
4.99207e-06
4.99181e-06
4.992e-06
4.99214e-06
4.99213e-06
4.99193e-06
4.98989e-06
4.97241e-06
4.97356e-06
4.99099e-06
4.99257e-06
4.99249e-06
4.99225e-06
4.99195e-06
4.99177e-06
4.99185e-06
4.99205e-06
4.99222e-06
4.99229e-06
4.99222e-06
4.99196e-06
4.9916e-06
4.99169e-06
4.99238e-06
4.99312e-06
4.99366e-06
4.99388e-06
4.99377e-06
4.9934e-06
4.99285e-06
4.99224e-06
4.99182e-06
4.99189e-06
4.99209e-06
4.99224e-06
4.99214e-06
4.99035e-06
4.97275e-06
4.97323e-06
4.99145e-06
4.99303e-06
4.99309e-06
4.99326e-06
4.99343e-06
4.99355e-06
4.99347e-06
4.9931e-06
4.99257e-06
4.99231e-06
4.99246e-06
4.99255e-06
4.99248e-06
4.9924e-06
4.9926e-06
4.99297e-06
4.99327e-06
4.99339e-06
4.99332e-06
4.99308e-06
4.99269e-06
4.99219e-06
4.99179e-06
4.99191e-06
4.99217e-06
4.99231e-06
4.99233e-06
4.99059e-06
4.97292e-06
4.97447e-06
4.99123e-06
4.99329e-06
4.99385e-06
4.9946e-06
4.99514e-06
4.99527e-06
4.99488e-06
4.99407e-06
4.99313e-06
4.99249e-06
4.99267e-06
4.99312e-06
4.99348e-06
4.99361e-06
4.99348e-06
4.99308e-06
4.99253e-06
4.99222e-06
4.99226e-06
4.9924e-06
4.99241e-06
4.99226e-06
4.99209e-06
4.99212e-06
4.99222e-06
4.9924e-06
4.99256e-06
4.99068e-06
4.97317e-06
4.97561e-06
4.99048e-06
4.99398e-06
4.99503e-06
4.99574e-06
4.99593e-06
4.99557e-06
4.99479e-06
4.9938e-06
4.99287e-06
4.99227e-06
4.99253e-06
4.99324e-06
4.99385e-06
4.9941e-06
4.99392e-06
4.99336e-06
4.99256e-06
4.9918e-06
4.99151e-06
4.9919e-06
4.99227e-06
4.99243e-06
4.99239e-06
4.9923e-06
4.99252e-06
4.99302e-06
4.99327e-06
4.99158e-06
4.97396e-06
4.97557e-06
4.9927e-06
4.99525e-06
4.99572e-06
4.99568e-06
4.99514e-06
4.99428e-06
4.99343e-06
4.99277e-06
4.99228e-06
4.99199e-06
4.99232e-06
4.99306e-06
4.99368e-06
4.99395e-06
4.99385e-06
4.9935e-06
4.99296e-06
4.99235e-06
4.99186e-06
4.99186e-06
4.99218e-06
4.99242e-06
4.99248e-06
4.99262e-06
4.99303e-06
4.99354e-06
4.99388e-06
4.99245e-06
4.97448e-06
4.97449e-06
4.99463e-06
4.99599e-06
4.99561e-06
4.99475e-06
4.99364e-06
4.99262e-06
4.99231e-06
4.99239e-06
4.99231e-06
4.99226e-06
4.99254e-06
4.993e-06
4.99339e-06
4.99359e-06
4.99366e-06
4.99354e-06
4.9932e-06
4.99275e-06
4.99232e-06
4.99207e-06
4.99207e-06
4.99224e-06
4.9924e-06
4.99271e-06
4.99317e-06
4.9936e-06
4.99387e-06
4.99211e-06
4.9741e-06
4.97432e-06
4.99536e-06
4.9962e-06
4.99541e-06
4.99436e-06
4.99334e-06
4.99268e-06
4.99243e-06
4.99247e-06
4.99252e-06
4.99265e-06
4.99272e-06
4.99277e-06
4.99287e-06
4.99307e-06
4.99323e-06
4.99329e-06
4.99319e-06
4.99296e-06
4.99263e-06
4.9923e-06
4.99225e-06
4.99236e-06
4.99249e-06
4.99285e-06
4.9932e-06
4.99339e-06
4.99332e-06
4.99127e-06
4.97361e-06
4.97545e-06
4.99542e-06
4.99636e-06
4.99562e-06
4.99475e-06
4.99404e-06
4.99354e-06
4.99316e-06
4.99282e-06
4.99261e-06
4.99245e-06
4.99228e-06
4.99222e-06
4.99225e-06
4.99236e-06
4.99258e-06
4.99282e-06
4.99293e-06
4.99286e-06
4.99263e-06
4.99241e-06
4.99238e-06
4.99247e-06
4.99301e-06
4.99352e-06
4.9936e-06
4.99345e-06
4.9932e-06
4.99125e-06
4.97388e-06
4.97652e-06
4.99531e-06
4.99646e-06
4.99582e-06
4.99508e-06
4.99452e-06
4.99411e-06
4.99373e-06
4.99333e-06
4.99294e-06
4.99259e-06
4.99227e-06
4.99197e-06
4.99171e-06
4.99182e-06
4.99221e-06
4.99257e-06
4.99271e-06
4.99266e-06
4.99256e-06
4.99254e-06
4.99289e-06
4.99369e-06
4.99432e-06
4.9944e-06
4.99416e-06
4.99408e-06
4.99418e-06
4.99285e-06
4.97495e-06
4.97738e-06
4.99499e-06
4.99627e-06
4.99574e-06
4.99525e-06
4.99493e-06
4.99464e-06
4.9943e-06
4.9939e-06
4.99346e-06
4.993e-06
4.99247e-06
4.99198e-06
4.99201e-06
4.99247e-06
4.99284e-06
4.99293e-06
4.99282e-06
4.9928e-06
4.99302e-06
4.99358e-06
4.99439e-06
4.9949e-06
4.99479e-06
4.99427e-06
4.99403e-06
4.99422e-06
4.99464e-06
4.9933e-06
4.97532e-06
4.9779e-06
4.99458e-06
4.99617e-06
4.99588e-06
4.99558e-06
4.9953e-06
4.99498e-06
4.99459e-06
4.99416e-06
4.99366e-06
4.99304e-06
4.9925e-06
4.9927e-06
4.99323e-06
4.9934e-06
4.99318e-06
4.99284e-06
4.9928e-06
4.9932e-06
4.994e-06
4.99493e-06
4.99544e-06
4.99516e-06
4.99451e-06
4.99427e-06
4.9944e-06
4.99475e-06
4.99503e-06
4.99332e-06
4.97578e-06
4.97806e-06
4.9944e-06
4.99631e-06
4.99622e-06
4.99593e-06
4.99555e-06
4.9951e-06
4.99465e-06
4.99421e-06
4.99371e-06
4.99329e-06
4.99332e-06
4.99359e-06
4.99347e-06
4.99297e-06
4.99249e-06
4.99244e-06
4.99294e-06
4.99388e-06
4.99497e-06
4.99562e-06
4.99546e-06
4.99489e-06
4.99471e-06
4.99486e-06
4.99527e-06
4.99567e-06
4.99571e-06
4.99385e-06
4.9766e-06
4.97814e-06
4.99483e-06
4.99681e-06
4.99674e-06
4.99637e-06
4.99591e-06
4.99549e-06
4.99513e-06
4.99474e-06
4.99429e-06
4.99396e-06
4.99389e-06
4.99365e-06
4.99296e-06
4.99224e-06
4.99228e-06
4.99262e-06
4.99343e-06
4.99468e-06
4.99549e-06
4.99551e-06
4.99515e-06
4.99521e-06
4.99547e-06
4.9959e-06
4.99648e-06
4.99675e-06
4.99675e-06
4.99481e-06
4.97769e-06
4.97887e-06
4.99584e-06
4.9977e-06
4.99758e-06
4.9972e-06
4.9968e-06
4.99646e-06
4.99614e-06
4.99572e-06
4.99522e-06
4.99475e-06
4.9943e-06
4.99355e-06
4.99269e-06
4.99256e-06
4.99265e-06
4.99302e-06
4.99421e-06
4.99508e-06
4.99525e-06
4.99525e-06
4.99578e-06
4.99621e-06
4.99649e-06
4.99717e-06
4.9976e-06
4.99786e-06
4.99793e-06
4.99601e-06
4.97915e-06
4.98035e-06
4.99733e-06
4.99908e-06
4.99891e-06
4.99854e-06
4.99816e-06
4.99781e-06
4.99744e-06
4.99696e-06
4.99642e-06
4.99576e-06
4.99487e-06
4.99388e-06
4.99334e-06
4.99306e-06
4.99283e-06
4.99347e-06
4.99432e-06
4.99485e-06
4.99546e-06
4.99633e-06
4.99688e-06
4.99715e-06
4.99777e-06
4.99834e-06
4.99869e-06
4.99907e-06
4.99932e-06
4.99804e-06
4.98053e-06
4.98256e-06
4.99929e-06
5.00098e-06
5.00079e-06
5.00041e-06
4.99994e-06
4.99944e-06
4.9989e-06
4.9983e-06
4.99753e-06
4.99654e-06
4.9955e-06
4.99477e-06
4.99431e-06
4.99363e-06
4.9932e-06
4.99362e-06
4.99452e-06
4.9957e-06
4.99681e-06
4.99745e-06
4.99784e-06
4.99848e-06
4.99923e-06
4.99975e-06
5.0003e-06
5.00081e-06
5.00126e-06
4.99991e-06
4.98248e-06
4.98518e-06
5.00176e-06
5.00342e-06
5.00313e-06
5.00257e-06
5.00189e-06
5.00116e-06
5.00041e-06
4.9996e-06
4.99862e-06
4.99757e-06
4.99679e-06
4.99624e-06
4.99546e-06
4.99446e-06
4.99406e-06
4.99471e-06
4.99596e-06
4.9972e-06
4.99804e-06
4.99863e-06
4.99947e-06
5.00022e-06
5.00095e-06
5.0017e-06
5.00253e-06
5.00319e-06
5.00334e-06
5.00188e-06
4.98491e-06
4.98806e-06
5.00455e-06
5.00604e-06
5.00561e-06
5.00496e-06
5.00418e-06
5.00332e-06
5.00244e-06
5.00142e-06
5.00026e-06
4.99926e-06
4.99855e-06
4.99767e-06
4.99652e-06
4.99545e-06
4.99525e-06
4.99614e-06
4.9974e-06
4.99858e-06
4.99952e-06
5.00042e-06
5.0015e-06
5.00239e-06
5.00335e-06
5.00428e-06
5.00524e-06
5.00598e-06
5.00601e-06
5.00429e-06
4.98817e-06
4.99142e-06
5.00766e-06
5.00913e-06
5.00869e-06
5.008e-06
5.00721e-06
5.0063e-06
5.00521e-06
5.0039e-06
5.00246e-06
5.00132e-06
5.00024e-06
4.9989e-06
4.99743e-06
4.99634e-06
4.99635e-06
4.99738e-06
4.99863e-06
4.99992e-06
5.00126e-06
5.00252e-06
5.00393e-06
5.00529e-06
5.00647e-06
5.00742e-06
5.0084e-06
5.00923e-06
5.00921e-06
5.0081e-06
4.99177e-06
4.9955e-06
5.01162e-06
5.01315e-06
5.01267e-06
5.01187e-06
5.0109e-06
5.00976e-06
5.00839e-06
5.00674e-06
5.005e-06
5.00353e-06
5.00199e-06
5.00027e-06
4.9986e-06
4.99748e-06
4.99757e-06
4.99867e-06
5.00004e-06
5.00157e-06
5.00338e-06
5.00515e-06
5.00705e-06
5.00886e-06
5.01004e-06
5.01106e-06
5.01213e-06
5.01299e-06
5.01355e-06
5.01235e-06
4.99587e-06
5.00061e-06
5.01668e-06
5.01807e-06
5.01736e-06
5.01632e-06
5.01513e-06
5.01378e-06
5.01219e-06
5.0103e-06
5.00832e-06
5.00642e-06
5.00444e-06
5.00234e-06
5.00043e-06
4.99914e-06
4.99915e-06
5.0004e-06
5.00216e-06
5.00411e-06
5.00615e-06
5.00842e-06
5.01073e-06
5.01258e-06
5.01393e-06
5.01524e-06
5.01655e-06
5.01761e-06
5.0186e-06
5.01716e-06
5.00099e-06
5.0069e-06
5.02258e-06
5.02375e-06
5.02288e-06
5.02166e-06
5.02032e-06
5.01884e-06
5.0171e-06
5.015e-06
5.01261e-06
5.01005e-06
5.00745e-06
5.00497e-06
5.00286e-06
5.00138e-06
5.00132e-06
5.00275e-06
5.00509e-06
5.00738e-06
5.00983e-06
5.01255e-06
5.01471e-06
5.01672e-06
5.0187e-06
5.02047e-06
5.02182e-06
5.02319e-06
5.02425e-06
5.0228e-06
5.00716e-06
5.01443e-06
5.02957e-06
5.03067e-06
5.02976e-06
5.02845e-06
5.02691e-06
5.02512e-06
5.02295e-06
5.02035e-06
5.01741e-06
5.01425e-06
5.0112e-06
5.00842e-06
5.006e-06
5.00436e-06
5.00431e-06
5.00582e-06
5.00858e-06
5.01139e-06
5.01436e-06
5.01719e-06
5.0196e-06
5.02221e-06
5.02484e-06
5.02669e-06
5.02833e-06
5.02991e-06
5.03091e-06
5.02969e-06
5.01453e-06
5.02346e-06
5.03823e-06
5.03931e-06
5.03822e-06
5.0366e-06
5.03464e-06
5.03235e-06
5.02965e-06
5.02657e-06
5.02316e-06
5.01961e-06
5.0162e-06
5.01296e-06
5.01004e-06
5.00812e-06
5.00825e-06
5.00988e-06
5.01279e-06
5.01616e-06
5.01954e-06
5.02286e-06
5.02616e-06
5.02923e-06
5.0321e-06
5.03424e-06
5.03639e-06
5.03808e-06
5.0392e-06
5.0381e-06
5.02338e-06
5.03445e-06
5.04874e-06
5.04958e-06
5.04818e-06
5.04623e-06
5.0439e-06
5.04118e-06
5.03802e-06
5.03447e-06
5.03064e-06
5.02669e-06
5.02276e-06
5.01891e-06
5.01536e-06
5.01303e-06
5.01343e-06
5.0155e-06
5.01867e-06
5.02264e-06
5.02658e-06
5.03055e-06
5.03449e-06
5.03793e-06
5.04094e-06
5.04374e-06
5.04621e-06
5.04799e-06
5.0492e-06
5.0482e-06
5.03417e-06
5.04766e-06
5.06115e-06
5.06177e-06
5.06023e-06
5.05809e-06
5.05539e-06
5.05221e-06
5.04859e-06
5.0446e-06
5.0403e-06
5.03577e-06
5.03107e-06
5.0266e-06
5.02269e-06
5.01999e-06
5.02039e-06
5.02292e-06
5.02651e-06
5.0312e-06
5.03594e-06
5.04034e-06
5.04483e-06
5.04857e-06
5.05209e-06
5.05543e-06
5.05819e-06
5.06002e-06
5.06144e-06
5.06078e-06
5.04738e-06
5.06339e-06
5.07614e-06
5.07676e-06
5.07507e-06
5.07253e-06
5.06936e-06
5.06569e-06
5.06162e-06
5.05715e-06
5.05224e-06
5.04696e-06
5.04152e-06
5.03645e-06
5.03239e-06
5.02937e-06
5.0294e-06
5.0323e-06
5.03655e-06
5.04201e-06
5.04749e-06
5.05245e-06
5.0573e-06
5.06165e-06
5.06583e-06
5.06964e-06
5.07254e-06
5.07476e-06
5.07665e-06
5.07619e-06
5.06336e-06
5.08229e-06
5.09456e-06
5.09494e-06
5.0928e-06
5.08978e-06
5.08615e-06
5.08205e-06
5.07747e-06
5.07233e-06
5.06669e-06
5.06082e-06
5.05485e-06
5.04906e-06
5.04445e-06
5.0412e-06
5.04081e-06
5.04429e-06
5.04946e-06
5.05548e-06
5.06146e-06
5.06697e-06
5.07234e-06
5.07754e-06
5.08236e-06
5.0865e-06
5.08967e-06
5.09254e-06
5.09478e-06
5.0944e-06
5.08243e-06
5.10524e-06
5.11661e-06
5.11648e-06
5.11392e-06
5.11059e-06
5.1067e-06
5.10213e-06
5.09684e-06
5.09097e-06
5.08465e-06
5.07829e-06
5.07178e-06
5.06507e-06
5.05939e-06
5.05603e-06
5.05566e-06
5.0595e-06
5.06545e-06
5.07192e-06
5.0785e-06
5.0848e-06
5.09105e-06
5.09698e-06
5.10217e-06
5.1068e-06
5.11059e-06
5.1139e-06
5.11626e-06
5.11633e-06
5.10503e-06
5.13266e-06
5.14275e-06
5.14232e-06
5.13972e-06
5.13623e-06
5.13188e-06
5.12655e-06
5.12061e-06
5.11426e-06
5.10734e-06
5.1001e-06
5.0929e-06
5.08576e-06
5.07894e-06
5.07512e-06
5.07496e-06
5.07898e-06
5.08553e-06
5.09279e-06
5.10016e-06
5.10737e-06
5.1143e-06
5.12076e-06
5.12635e-06
5.13179e-06
5.13627e-06
5.13974e-06
5.14223e-06
5.14295e-06
5.13238e-06
5.16527e-06
5.17451e-06
5.17404e-06
5.17117e-06
5.16703e-06
5.162e-06
5.1562e-06
5.14991e-06
5.14293e-06
5.13525e-06
5.12734e-06
5.1194e-06
5.11193e-06
5.10441e-06
5.09938e-06
5.09981e-06
5.10457e-06
5.11154e-06
5.11952e-06
5.1275e-06
5.1354e-06
5.14285e-06
5.14997e-06
5.15638e-06
5.16206e-06
5.16694e-06
5.17094e-06
5.17404e-06
5.17505e-06
5.16555e-06
5.20473e-06
5.21361e-06
5.21243e-06
5.20879e-06
5.20408e-06
5.1988e-06
5.19266e-06
5.18573e-06
5.17822e-06
5.17006e-06
5.16198e-06
5.15306e-06
5.14474e-06
5.13703e-06
5.13143e-06
5.13193e-06
5.13735e-06
5.14474e-06
5.15317e-06
5.16186e-06
5.17033e-06
5.17818e-06
5.18567e-06
5.19303e-06
5.19896e-06
5.20411e-06
5.20895e-06
5.21268e-06
5.21383e-06
5.20502e-06
5.25285e-06
5.2619e-06
5.25948e-06
5.25566e-06
5.25062e-06
5.24456e-06
5.23775e-06
5.23027e-06
5.22265e-06
5.21407e-06
5.20601e-06
5.1974e-06
5.18923e-06
5.18182e-06
5.17704e-06
5.17707e-06
5.18214e-06
5.18939e-06
5.19759e-06
5.20576e-06
5.21404e-06
5.22259e-06
5.23036e-06
5.23774e-06
5.24443e-06
5.2507e-06
5.25587e-06
5.25983e-06
5.2621e-06
5.253e-06
5.31308e-06
5.32652e-06
5.32231e-06
5.3186e-06
5.31197e-06
5.30442e-06
5.29734e-06
5.28912e-06
5.28212e-06
5.27561e-06
5.27117e-06
5.26988e-06
5.27274e-06
5.27504e-06
5.28049e-06
5.28208e-06
5.27737e-06
5.2725e-06
5.27111e-06
5.27151e-06
5.27552e-06
5.28206e-06
5.28968e-06
5.29719e-06
5.30408e-06
5.31176e-06
5.31817e-06
5.32175e-06
5.32677e-06
5.31325e-06
5.40517e-06
5.44227e-06
5.42961e-06
5.43458e-06
5.4181e-06
5.40562e-06
5.40451e-06
5.39692e-06
5.39539e-06
5.41116e-06
5.45056e-06
5.52139e-06
5.63534e-06
5.74512e-06
5.84468e-06
5.85279e-06
5.76379e-06
5.63707e-06
5.53476e-06
5.45119e-06
5.41316e-06
5.3962e-06
5.39641e-06
5.40456e-06
5.40512e-06
5.41694e-06
5.43514e-06
5.42916e-06
5.44302e-06
5.40381e-06
5.64399e-06
5.78042e-06
5.73642e-06
5.83298e-06
5.74015e-06
5.71586e-06
5.78941e-06
5.78593e-06
5.84012e-06
6.03993e-06
6.40422e-06
6.9514e-06
7.77409e-06
8.5164e-06
9.00615e-06
9.01864e-06
8.58347e-06
7.74901e-06
7.07768e-06
6.40821e-06
6.0612e-06
5.84765e-06
5.78223e-06
5.7878e-06
5.71585e-06
5.73674e-06
5.83775e-06
5.73734e-06
5.78755e-06
5.63461e-06
6.76232e-06
6.93147e-06
6.85454e-06
7.38411e-06
7.06836e-06
7.20227e-06
7.71731e-06
7.78391e-06
8.27526e-06
9.30858e-06
1.10091e-05
1.31625e-05
1.52908e-05
1.68762e-05
1.79949e-05
1.76789e-05
1.71389e-05
1.5085e-05
1.34136e-05
1.09314e-05
9.43523e-06
8.31522e-06
7.77194e-06
7.6931e-06
7.22214e-06
7.0517e-06
7.42288e-06
6.86415e-06
6.95035e-06
6.7311e-06
1.07619e-05
9.76323e-06
1.03223e-05
1.1354e-05
1.14383e-05
1.274e-05
1.39189e-05
1.44648e-05
1.64085e-05
1.93864e-05
2.11025e-05
2.44573e-05
2.6324e-05
2.75885e-05
2.853e-05
2.7965e-05
2.7914e-05
2.60507e-05
2.41497e-05
2.10897e-05
1.97165e-05
1.65183e-05
1.44321e-05
1.37812e-05
1.27559e-05
1.15033e-05
1.15229e-05
1.05131e-05
9.79713e-06
1.07904e-05
1.56327e-05
1.45253e-05
1.68711e-05
1.78943e-05
1.9159e-05
2.26878e-05
2.29671e-05
2.4322e-05
2.71141e-05
3.02262e-05
2.97635e-05
3.3547e-05
3.28876e-05
3.53974e-05
3.42981e-05
3.54373e-05
3.386e-05
3.39165e-05
3.12411e-05
3.04781e-05
3.09193e-05
2.69651e-05
2.44514e-05
2.30491e-05
2.25802e-05
2.01519e-05
1.83861e-05
1.73761e-05
1.45758e-05
1.56547e-05
2.38148e-05
2.55745e-05
2.35359e-05
2.61037e-05
2.83233e-05
3.57499e-05
3.52724e-05
3.41264e-05
3.74182e-05
4.32008e-05
4.15305e-05
4.73086e-05
4.32538e-05
4.7268e-05
4.17056e-05
4.73875e-05
4.19654e-05
4.30161e-05
4.18351e-05
4.15245e-05
4.41738e-05
3.69722e-05
3.3672e-05
3.32687e-05
3.72145e-05
3.01304e-05
2.71815e-05
2.4187e-05
2.59062e-05
2.3831e-05
2.50405e-05
2.73317e-05
2.95887e-05
3.2978e-05
3.72504e-05
5.14983e-05
5.10176e-05
4.0919e-05
3.98182e-05
4.34649e-05
4.47864e-05
4.76721e-05
5.03348e-05
4.63625e-05
4.57048e-05
4.5779e-05
4.75234e-05
4.79174e-05
5.05324e-05
4.30888e-05
4.38192e-05
4.06255e-05
3.84145e-05
4.71475e-05
5.3305e-05
3.79592e-05
3.32858e-05
2.95201e-05
2.75546e-05
2.5134e-05
2.56515e-05
2.98331e-05
3.39572e-05
3.99564e-05
3.88573e-05
4.88237e-05
4.91204e-05
4.30375e-05
4.02633e-05
4.19217e-05
4.23396e-05
4.47014e-05
4.54839e-05
4.41017e-05
4.40516e-05
4.65751e-05
4.52077e-05
4.48347e-05
4.81588e-05
4.40828e-05
4.30717e-05
4.10562e-05
4.07951e-05
4.29588e-05
4.92859e-05
3.95571e-05
4.07742e-05
3.49571e-05
2.81705e-05
2.61208e-05
2.52631e-05
2.88518e-05
3.20103e-05
3.37876e-05
3.30505e-05
3.83407e-05
3.8815e-05
3.96539e-05
3.97627e-05
4.4286e-05
4.23081e-05
4.69281e-05
4.2768e-05
4.60845e-05
4.24116e-05
4.81656e-05
4.29525e-05
4.34251e-05
4.34582e-05
4.45504e-05
4.53091e-05
3.83683e-05
3.87397e-05
3.71182e-05
3.62959e-05
3.30111e-05
3.42627e-05
3.21417e-05
2.8445e-05
2.62083e-05
2.15956e-05
2.51109e-05
2.89487e-05
2.97483e-05
2.85207e-05
3.17473e-05
3.15587e-05
3.20053e-05
3.32288e-05
3.75337e-05
3.80429e-05
4.04843e-05
3.93774e-05
4.23775e-05
4.13791e-05
4.40516e-05
3.93922e-05
3.98522e-05
3.83854e-05
3.86384e-05
3.79596e-05
3.3235e-05
3.12907e-05
3.00539e-05
2.92818e-05
2.81945e-05
2.9402e-05
2.84781e-05
2.53119e-05
2.1718e-05
1.70451e-05
2.02706e-05
2.36279e-05
2.39385e-05
2.1591e-05
2.2826e-05
2.43264e-05
2.52439e-05
2.60316e-05
2.77104e-05
2.89902e-05
3.06704e-05
3.18278e-05
3.35253e-05
3.50245e-05
3.49337e-05
3.29864e-05
3.15935e-05
3.07947e-05
2.90795e-05
2.77359e-05
2.62698e-05
2.51981e-05
2.40219e-05
2.24002e-05
2.13799e-05
2.3334e-05
2.28692e-05
2.03087e-05
1.69815e-05
1.50235e-05
1.68361e-05
1.85357e-05
1.90449e-05
1.66621e-05
1.65304e-05
1.84497e-05
2.04038e-05
2.24724e-05
2.43036e-05
2.5218e-05
2.57858e-05
2.66717e-05
2.75162e-05
2.88183e-05
2.84235e-05
2.76566e-05
2.66346e-05
2.621e-05
2.53177e-05
2.43784e-05
2.25853e-05
2.05476e-05
1.84923e-05
1.65793e-05
1.65858e-05
1.87296e-05
1.81123e-05
1.6753e-05
1.48756e-05
1.33284e-05
1.42051e-05
1.4663e-05
1.49649e-05
1.39681e-05
1.3521e-05
1.41853e-05
1.56511e-05
1.78848e-05
2.05454e-05
2.25547e-05
2.39266e-05
2.47644e-05
2.5286e-05
2.554e-05
2.54031e-05
2.53501e-05
2.48478e-05
2.40386e-05
2.2526e-05
2.05276e-05
1.79044e-05
1.57242e-05
1.42523e-05
1.35909e-05
1.39816e-05
1.48361e-05
1.44703e-05
1.41123e-05
1.32546e-05
1.2173e-05
1.23626e-05
1.23914e-05
1.24752e-05
1.22526e-05
1.20971e-05
1.22524e-05
1.27767e-05
1.39695e-05
1.5973e-05
1.85499e-05
2.09802e-05
2.28591e-05
2.3999e-05
2.42497e-05
2.41721e-05
2.40224e-05
2.29418e-05
2.10514e-05
1.8536e-05
1.59788e-05
1.39924e-05
1.2809e-05
1.22826e-05
1.21329e-05
1.22769e-05
1.24284e-05
1.23261e-05
1.23049e-05
1.21089e-05
1.13218e-05
1.12556e-05
1.1196e-05
1.12172e-05
1.11964e-05
1.1197e-05
1.12842e-05
1.14842e-05
1.19103e-05
1.28131e-05
1.44022e-05
1.67356e-05
1.92407e-05
2.12005e-05
2.20428e-05
2.197e-05
2.12169e-05
1.93323e-05
1.67976e-05
1.44251e-05
1.28293e-05
1.19262e-05
1.14894e-05
1.12927e-05
1.12078e-05
1.12036e-05
1.12159e-05
1.11801e-05
1.12273e-05
1.13693e-05
1.07286e-05
1.05167e-05
1.04712e-05
1.04918e-05
1.05172e-05
1.05685e-05
1.06411e-05
1.07517e-05
1.09178e-05
1.12158e-05
1.18205e-05
1.2943e-05
1.46538e-05
1.65854e-05
1.78453e-05
1.78025e-05
1.66103e-05
1.47258e-05
1.2994e-05
1.18503e-05
1.12329e-05
1.09242e-05
1.07661e-05
1.0653e-05
1.05833e-05
1.05295e-05
1.05061e-05
1.0492e-05
1.05409e-05
1.07708e-05
1.02349e-05
9.96122e-06
9.9254e-06
9.94833e-06
9.99024e-06
1.00506e-05
1.01181e-05
1.01951e-05
1.02754e-05
1.03782e-05
1.05411e-05
1.08727e-05
1.1476e-05
1.22942e-05
1.30753e-05
1.30744e-05
1.23255e-05
1.15126e-05
1.09106e-05
1.05676e-05
1.04058e-05
1.02904e-05
1.02167e-05
1.01358e-05
1.00681e-05
1.0015e-05
9.96392e-06
9.95936e-06
1.00104e-05
1.02702e-05
9.78793e-06
9.50086e-06
9.453e-06
9.47031e-06
9.52248e-06
9.58042e-06
9.63454e-06
9.68651e-06
9.72918e-06
9.76375e-06
9.79687e-06
9.86034e-06
9.97899e-06
1.01769e-05
1.03825e-05
1.03839e-05
1.0193e-05
9.99614e-06
9.88288e-06
9.80972e-06
9.7762e-06
9.73644e-06
9.6991e-06
9.64727e-06
9.58642e-06
9.54084e-06
9.49307e-06
9.48573e-06
9.54552e-06
9.82378e-06
9.36901e-06
9.07736e-06
9.02237e-06
9.03824e-06
9.08398e-06
9.1306e-06
9.16562e-06
9.19285e-06
9.20799e-06
9.20817e-06
9.19594e-06
9.18499e-06
9.17218e-06
9.17584e-06
9.19235e-06
9.19344e-06
9.18646e-06
9.18292e-06
9.19597e-06
9.20684e-06
9.21607e-06
9.21726e-06
9.20253e-06
9.17366e-06
9.13438e-06
9.09332e-06
9.06886e-06
9.05699e-06
9.11597e-06
9.39948e-06
8.96725e-06
8.68299e-06
8.62192e-06
8.63535e-06
8.67503e-06
8.70305e-06
8.7147e-06
8.71586e-06
8.70541e-06
8.68265e-06
8.64862e-06
8.60826e-06
8.55969e-06
8.51827e-06
8.49446e-06
8.49858e-06
8.53007e-06
8.57308e-06
8.61508e-06
8.65915e-06
8.6959e-06
8.72463e-06
8.7321e-06
8.72293e-06
8.71114e-06
8.68573e-06
8.66794e-06
8.65636e-06
8.71471e-06
8.99395e-06
8.57991e-06
8.30818e-06
8.25576e-06
8.26728e-06
8.28838e-06
8.29192e-06
8.28682e-06
8.27184e-06
8.24432e-06
8.20292e-06
8.15014e-06
8.08995e-06
8.02483e-06
7.97144e-06
7.94118e-06
7.94801e-06
7.98541e-06
8.04258e-06
8.10249e-06
8.16681e-06
8.2226e-06
8.26622e-06
8.29248e-06
8.30436e-06
8.30614e-06
8.29495e-06
8.2818e-06
8.27767e-06
8.33957e-06
8.60685e-06
8.20329e-06
7.96261e-06
7.91184e-06
7.91041e-06
7.91017e-06
7.90497e-06
7.89141e-06
7.86351e-06
7.82168e-06
7.76461e-06
7.69821e-06
7.62732e-06
7.55539e-06
7.49731e-06
7.46285e-06
7.46678e-06
7.50482e-06
7.56782e-06
7.63975e-06
7.71598e-06
7.78586e-06
7.84306e-06
7.88168e-06
7.90768e-06
7.91921e-06
7.9199e-06
7.91773e-06
7.92456e-06
7.98833e-06
8.23746e-06
7.86027e-06
7.63598e-06
7.57775e-06
7.56725e-06
7.56303e-06
7.55403e-06
7.5283e-06
7.48794e-06
7.436e-06
7.37037e-06
7.29704e-06
7.22132e-06
7.14618e-06
7.08364e-06
7.0446e-06
7.04514e-06
7.08471e-06
7.15003e-06
7.22805e-06
7.30941e-06
7.38634e-06
7.45322e-06
7.50242e-06
7.53749e-06
7.55982e-06
7.57243e-06
7.58095e-06
7.59462e-06
7.65509e-06
7.883e-06
7.52576e-06
7.31682e-06
7.26572e-06
7.2542e-06
7.24378e-06
7.22053e-06
7.18604e-06
7.14149e-06
7.08508e-06
7.01607e-06
6.94016e-06
6.86137e-06
6.78323e-06
6.71742e-06
6.6763e-06
6.67494e-06
6.7143e-06
6.7805e-06
6.86126e-06
6.94579e-06
7.02695e-06
7.09859e-06
7.15499e-06
7.19742e-06
7.22877e-06
7.25122e-06
7.26738e-06
7.28386e-06
7.33926e-06
7.54612e-06
7.21303e-06
7.03524e-06
6.98896e-06
6.96902e-06
6.94429e-06
6.91222e-06
6.87672e-06
6.82998e-06
6.77135e-06
6.70263e-06
6.62671e-06
6.5455e-06
6.4646e-06
6.39689e-06
6.35563e-06
6.3538e-06
6.39209e-06
6.45813e-06
6.54029e-06
6.62727e-06
6.71088e-06
6.78431e-06
6.84363e-06
6.89044e-06
6.92758e-06
6.95615e-06
6.97699e-06
6.99597e-06
7.04798e-06
7.23354e-06
6.93766e-06
6.78718e-06
6.73377e-06
6.70481e-06
6.6746e-06
6.64625e-06
6.60994e-06
6.5604e-06
6.50191e-06
6.43445e-06
6.35818e-06
6.27519e-06
6.19471e-06
6.12936e-06
6.09013e-06
6.08846e-06
6.1258e-06
6.19182e-06
6.27414e-06
6.3598e-06
6.44031e-06
6.51103e-06
6.57007e-06
6.61885e-06
6.65877e-06
6.69035e-06
6.71432e-06
6.7355e-06
6.78337e-06
6.94538e-06
6.68558e-06
6.5444e-06
6.49267e-06
6.46648e-06
6.44336e-06
6.41757e-06
6.3779e-06
6.32874e-06
6.27218e-06
6.20472e-06
6.12777e-06
6.04678e-06
5.9715e-06
5.91081e-06
5.87298e-06
5.87092e-06
5.90768e-06
5.97286e-06
6.05199e-06
6.13153e-06
6.20528e-06
6.27209e-06
6.33096e-06
6.3815e-06
6.4228e-06
6.45509e-06
6.47954e-06
6.50018e-06
6.54173e-06
6.68033e-06
6.44714e-06
6.31818e-06
6.28122e-06
6.26238e-06
6.24275e-06
6.21288e-06
6.17312e-06
6.12772e-06
6.07318e-06
6.00716e-06
5.93315e-06
5.85749e-06
5.78721e-06
5.72858e-06
5.69114e-06
5.68996e-06
5.72737e-06
5.79031e-06
5.86348e-06
5.93573e-06
6.00414e-06
6.06861e-06
6.12702e-06
6.1767e-06
6.21612e-06
6.24613e-06
6.26867e-06
6.28744e-06
6.32309e-06
6.4411e-06
6.22609e-06
6.12653e-06
6.09966e-06
6.08242e-06
6.06031e-06
6.02983e-06
5.99519e-06
5.95389e-06
5.90178e-06
5.83967e-06
5.77143e-06
5.70201e-06
5.63597e-06
5.57935e-06
5.54419e-06
5.5455e-06
5.58261e-06
5.64101e-06
5.70719e-06
5.77335e-06
5.83757e-06
5.89845e-06
5.95299e-06
5.99824e-06
6.03373e-06
6.06098e-06
6.08194e-06
6.09952e-06
6.13034e-06
6.22957e-06
6.04122e-06
5.96673e-06
5.93893e-06
5.92072e-06
5.89963e-06
5.87433e-06
5.84455e-06
5.80536e-06
5.75586e-06
5.6983e-06
5.63663e-06
5.57422e-06
5.51363e-06
5.46147e-06
5.43049e-06
5.43343e-06
5.46793e-06
5.52037e-06
5.57963e-06
5.63994e-06
5.69895e-06
5.75416e-06
5.80273e-06
5.84289e-06
5.87491e-06
5.90016e-06
5.91991e-06
5.93615e-06
5.96213e-06
6.04354e-06
5.88648e-06
5.81953e-06
5.79285e-06
5.77949e-06
5.76297e-06
5.74142e-06
5.71271e-06
5.67479e-06
5.62909e-06
5.57832e-06
5.52588e-06
5.47245e-06
5.41894e-06
5.37249e-06
5.34558e-06
5.34841e-06
5.37848e-06
5.42383e-06
5.47565e-06
5.52945e-06
5.58223e-06
5.6311e-06
5.67374e-06
5.70942e-06
5.73861e-06
5.76198e-06
5.78012e-06
5.79446e-06
5.81555e-06
5.88029e-06
5.74062e-06
5.68191e-06
5.66706e-06
5.65845e-06
5.64312e-06
5.62187e-06
5.59354e-06
5.55883e-06
5.51945e-06
5.47802e-06
5.43568e-06
5.39048e-06
5.34367e-06
5.30303e-06
5.27913e-06
5.28016e-06
5.30473e-06
5.34303e-06
5.38823e-06
5.43627e-06
5.48342e-06
5.52662e-06
5.56434e-06
5.59645e-06
5.62308e-06
5.6442e-06
5.65994e-06
5.67185e-06
5.68849e-06
5.73852e-06
5.60925e-06
5.57244e-06
5.56588e-06
5.55511e-06
5.53932e-06
5.51905e-06
5.4937e-06
5.46441e-06
5.43227e-06
5.39872e-06
5.36239e-06
5.32177e-06
5.28034e-06
5.24547e-06
5.2248e-06
5.22422e-06
5.24361e-06
5.27657e-06
5.31727e-06
5.36066e-06
5.40269e-06
5.44091e-06
5.47433e-06
5.50286e-06
5.52622e-06
5.54408e-06
5.55675e-06
5.56613e-06
5.57907e-06
5.61738e-06
5.5106e-06
5.49239e-06
5.48112e-06
5.46801e-06
5.45444e-06
5.43708e-06
5.41608e-06
5.39224e-06
5.36647e-06
5.33811e-06
5.30503e-06
5.26832e-06
5.23317e-06
5.20494e-06
5.18742e-06
5.18554e-06
5.20094e-06
5.22934e-06
5.26503e-06
5.30289e-06
5.33895e-06
5.3713e-06
5.39967e-06
5.42395e-06
5.44352e-06
5.45818e-06
5.46863e-06
5.47658e-06
5.48683e-06
5.51508e-06
5.43453e-06
5.41737e-06
5.40333e-06
5.39492e-06
5.3854e-06
5.3716e-06
5.35441e-06
5.33496e-06
5.31394e-06
5.28932e-06
5.26001e-06
5.22932e-06
5.20191e-06
5.17999e-06
5.16511e-06
5.16247e-06
5.17441e-06
5.1975e-06
5.22667e-06
5.25727e-06
5.28635e-06
5.31285e-06
5.33641e-06
5.35672e-06
5.3733e-06
5.38608e-06
5.39553e-06
5.40271e-06
5.41041e-06
5.42945e-06
5.36155e-06
5.34452e-06
5.3388e-06
5.33676e-06
5.3305e-06
5.31926e-06
5.30408e-06
5.2873e-06
5.26912e-06
5.24737e-06
5.2228e-06
5.19906e-06
5.17841e-06
5.16084e-06
5.14806e-06
5.14531e-06
5.15479e-06
5.17323e-06
5.19622e-06
5.22025e-06
5.24356e-06
5.26561e-06
5.28576e-06
5.30318e-06
5.31747e-06
5.3286e-06
5.33685e-06
5.34266e-06
5.34728e-06
5.35804e-06
5.29516e-06
5.28875e-06
5.29248e-06
5.29227e-06
5.28613e-06
5.27506e-06
5.26119e-06
5.24705e-06
5.23143e-06
5.21289e-06
5.19343e-06
5.17551e-06
5.15899e-06
5.14372e-06
5.13246e-06
5.13052e-06
5.13943e-06
5.15514e-06