/*--------------------------------*- C++ -*----------------------------------*\
| =========                 |                                                 |
| \\      /  F ield         | OpenFOAM: The Open Source CFD Toolbox           |
|  \\    /   O peration     | Version:  2312                                  |
|   \\  /    A nd           | Website:  www.openfoam.com                      |
|    \\/     M anipulation  |                                                 |
\*---------------------------------------------------------------------------*/
FoamFile
{
    version     2.0;
    format      ascii;
    arch        "LSB;label=32;scalar=64";
    class       volScalarField;
    location    "1.50315242808";
    object      p;
}
// * * * * * * * * * * * * * * * * * * * * * * * * * * * * * * * * * * * * * //

dimensions      [1 -1 -2 0 0 0 0];

internalField   nonuniform List<scalar> 
90000
(
4845.81
4845.81
4845.81
4845.81
4845.81
4845.81
4845.81
4845.81
4845.8
4845.8
4845.8
4845.8
4845.8
4845.8
4845.8
4845.8
4845.8
4845.8
4845.8
4845.81
4845.81
4845.81
4845.81
4845.81
4845.81
4845.81
4845.81
4845.81
4845.82
4845.81
4747.71
4747.71
4747.71
4747.71
4747.71
4747.71
4747.71
4747.71
4747.7
4747.7
4747.7
4747.7
4747.7
4747.7
4747.7
4747.7
4747.7
4747.7
4747.7
4747.7
4747.71
4747.71
4747.71
4747.71
4747.71
4747.71
4747.71
4747.71
4747.72
4747.71
4649.6
4649.6
4649.6
4649.6
4649.6
4649.6
4649.6
4649.61
4649.61
4649.61
4649.61
4649.61
4649.6
4649.6
4649.6
4649.6
4649.6
4649.6
4649.6
4649.6
4649.61
4649.61
4649.61
4649.61
4649.61
4649.61
4649.61
4649.61
4649.61
4649.61
4551.5
4551.5
4551.5
4551.5
4551.5
4551.5
4551.5
4551.51
4551.51
4551.51
4551.51
4551.51
4551.51
4551.51
4551.51
4551.51
4551.51
4551.51
4551.51
4551.51
4551.51
4551.51
4551.51
4551.51
4551.51
4551.51
4551.51
4551.51
4551.51
4551.51
4453.4
4453.4
4453.4
4453.4
4453.4
4453.4
4453.4
4453.41
4453.41
4453.41
4453.41
4453.41
4453.41
4453.41
4453.41
4453.41
4453.41
4453.41
4453.41
4453.41
4453.41
4453.41
4453.41
4453.41
4453.41
4453.41
4453.41
4453.41
4453.41
4453.41
4355.3
4355.3
4355.3
4355.3
4355.3
4355.3
4355.3
4355.31
4355.31
4355.31
4355.31
4355.31
4355.31
4355.31
4355.31
4355.31
4355.31
4355.31
4355.31
4355.31
4355.31
4355.31
4355.31
4355.31
4355.31
4355.31
4355.31
4355.31
4355.31
4355.31
4257.21
4257.21
4257.21
4257.21
4257.21
4257.21
4257.21
4257.21
4257.21
4257.21
4257.21
4257.21
4257.21
4257.21
4257.21
4257.21
4257.21
4257.21
4257.21
4257.21
4257.21
4257.21
4257.21
4257.21
4257.21
4257.21
4257.21
4257.21
4257.21
4257.21
4159.11
4159.11
4159.11
4159.11
4159.11
4159.11
4159.11
4159.11
4159.11
4159.11
4159.11
4159.11
4159.11
4159.11
4159.11
4159.11
4159.11
4159.11
4159.11
4159.11
4159.11
4159.11
4159.11
4159.11
4159.11
4159.11
4159.11
4159.11
4159.11
4159.11
4061.01
4061.02
4061.02
4061.01
4061.01
4061.01
4061.01
4061.01
4061.01
4061.01
4061.01
4061.01
4061.01
4061.01
4061.01
4061.01
4061.01
4061.01
4061.01
4061.01
4061.01
4061.01
4061.01
4061.01
4061.01
4061.01
4061.01
4061.01
4061.01
4061.01
3962.92
3962.92
3962.92
3962.92
3962.91
3962.91
3962.91
3962.91
3962.91
3962.91
3962.91
3962.91
3962.91
3962.91
3962.91
3962.91
3962.91
3962.91
3962.91
3962.91
3962.91
3962.91
3962.91
3962.91
3962.91
3962.91
3962.91
3962.92
3962.92
3962.92
3864.82
3864.82
3864.82
3864.82
3864.81
3864.81
3864.81
3864.81
3864.81
3864.81
3864.81
3864.81
3864.81
3864.81
3864.81
3864.81
3864.81
3864.81
3864.81
3864.82
3864.82
3864.82
3864.82
3864.82
3864.82
3864.82
3864.82
3864.82
3864.82
3864.82
3766.71
3766.71
3766.71
3766.71
3766.71
3766.71
3766.71
3766.71
3766.71
3766.71
3766.71
3766.71
3766.71
3766.71
3766.71
3766.71
3766.71
3766.71
3766.71
3766.72
3766.72
3766.72
3766.72
3766.72
3766.72
3766.72
3766.72
3766.72
3766.72
3766.72
3668.61
3668.61
3668.61
3668.61
3668.61
3668.61
3668.61
3668.61
3668.61
3668.61
3668.61
3668.61
3668.61
3668.61
3668.61
3668.61
3668.61
3668.61
3668.61
3668.61
3668.62
3668.62
3668.62
3668.62
3668.62
3668.62
3668.62
3668.62
3668.62
3668.62
3570.51
3570.5
3570.5
3570.5
3570.51
3570.51
3570.51
3570.51
3570.51
3570.51
3570.51
3570.51
3570.51
3570.51
3570.51
3570.51
3570.51
3570.51
3570.51
3570.51
3570.52
3570.52
3570.52
3570.52
3570.52
3570.52
3570.52
3570.52
3570.52
3570.52
3472.41
3472.4
3472.41
3472.41
3472.41
3472.41
3472.41
3472.41
3472.41
3472.41
3472.41
3472.41
3472.41
3472.41
3472.41
3472.41
3472.41
3472.41
3472.41
3472.41
3472.41
3472.42
3472.42
3472.42
3472.42
3472.42
3472.42
3472.43
3472.43
3472.43
3374.31
3374.31
3374.31
3374.31
3374.31
3374.31
3374.31
3374.31
3374.31
3374.31
3374.31
3374.31
3374.31
3374.31
3374.31
3374.31
3374.31
3374.31
3374.31
3374.31
3374.31
3374.32
3374.32
3374.32
3374.32
3374.33
3374.33
3374.33
3374.33
3374.33
3276.22
3276.22
3276.22
3276.22
3276.22
3276.22
3276.21
3276.21
3276.21
3276.21
3276.21
3276.21
3276.21
3276.21
3276.21
3276.21
3276.21
3276.21
3276.21
3276.21
3276.21
3276.22
3276.22
3276.22
3276.22
3276.23
3276.23
3276.23
3276.23
3276.23
3178.12
3178.12
3178.12
3178.12
3178.12
3178.12
3178.12
3178.11
3178.11
3178.11
3178.11
3178.11
3178.11
3178.11
3178.11
3178.11
3178.11
3178.11
3178.11
3178.11
3178.12
3178.12
3178.12
3178.12
3178.13
3178.13
3178.13
3178.13
3178.13
3178.13
3080.03
3080.03
3080.03
3080.03
3080.02
3080.02
3080.02
3080.02
3080.01
3080.01
3080.01
3080.01
3080.01
3080.01
3080.01
3080.01
3080.01
3080.01
3080.01
3080.02
3080.02
3080.02
3080.02
3080.03
3080.03
3080.03
3080.04
3080.04
3080.04
3080.04
2981.94
2981.94
2981.93
2981.93
2981.93
2981.93
2981.92
2981.92
2981.92
2981.91
2981.91
2981.91
2981.91
2981.91
2981.91
2981.91
2981.91
2981.91
2981.92
2981.92
2981.92
2981.93
2981.93
2981.94
2981.94
2981.94
2981.94
2981.95
2981.95
2981.95
2883.84
2883.84
2883.84
2883.84
2883.83
2883.83
2883.83
2883.82
2883.82
2883.81
2883.81
2883.81
2883.8
2883.8
2883.81
2883.81
2883.81
2883.81
2883.82
2883.82
2883.83
2883.83
2883.84
2883.84
2883.85
2883.85
2883.85
2883.86
2883.86
2883.86
2785.75
2785.75
2785.75
2785.74
2785.74
2785.73
2785.73
2785.72
2785.72
2785.71
2785.71
2785.71
2785.7
2785.7
2785.7
2785.71
2785.71
2785.71
2785.72
2785.72
2785.73
2785.74
2785.74
2785.75
2785.75
2785.76
2785.76
2785.76
2785.77
2785.77
2687.66
2687.65
2687.65
2687.65
2687.64
2687.64
2687.63
2687.63
2687.62
2687.61
2687.61
2687.61
2687.6
2687.6
2687.6
2687.61
2687.61
2687.61
2687.62
2687.62
2687.63
2687.64
2687.65
2687.65
2687.66
2687.67
2687.67
2687.67
2687.68
2687.68
2589.56
2589.56
2589.56
2589.55
2589.55
2589.54
2589.54
2589.53
2589.52
2589.52
2589.51
2589.51
2589.51
2589.5
2589.5
2589.5
2589.51
2589.51
2589.52
2589.53
2589.54
2589.54
2589.55
2589.56
2589.57
2589.58
2589.58
2589.59
2589.59
2589.59
2491.48
2491.48
2491.47
2491.47
2491.46
2491.45
2491.45
2491.44
2491.43
2491.42
2491.42
2491.41
2491.41
2491.41
2491.4
2491.41
2491.41
2491.42
2491.42
2491.43
2491.44
2491.45
2491.46
2491.47
2491.48
2491.49
2491.5
2491.5
2491.51
2491.51
2393.4
2393.39
2393.39
2393.38
2393.38
2393.37
2393.36
2393.35
2393.34
2393.33
2393.32
2393.32
2393.31
2393.31
2393.31
2393.31
2393.31
2393.32
2393.33
2393.34
2393.35
2393.36
2393.37
2393.39
2393.4
2393.41
2393.42
2393.43
2393.43
2393.43
2295.32
2295.32
2295.31
2295.31
2295.3
2295.29
2295.28
2295.26
2295.25
2295.24
2295.23
2295.22
2295.22
2295.21
2295.21
2295.21
2295.22
2295.23
2295.24
2295.25
2295.26
2295.27
2295.29
2295.31
2295.32
2295.33
2295.35
2295.35
2295.36
2295.36
2197.25
2197.25
2197.25
2197.24
2197.22
2197.21
2197.2
2197.18
2197.17
2197.15
2197.14
2197.13
2197.12
2197.11
2197.11
2197.12
2197.12
2197.13
2197.14
2197.15
2197.17
2197.19
2197.21
2197.23
2197.25
2197.26
2197.28
2197.29
2197.3
2197.3
2099.19
2099.19
2099.18
2099.17
2099.16
2099.14
2099.12
2099.1
2099.08
2099.06
2099.05
2099.03
2099.02
2099.02
2099.02
2099.02
2099.02
2099.03
2099.05
2099.07
2099.09
2099.11
2099.13
2099.16
2099.18
2099.2
2099.22
2099.23
2099.24
2099.24
2001.14
2001.14
2001.13
2001.11
2001.09
2001.07
2001.05
2001.03
2001
2000.98
2000.96
2000.94
2000.93
2000.92
2000.92
2000.92
2000.93
2000.94
2000.96
2000.98
2001.01
2001.03
2001.06
2001.09
2001.11
2001.14
2001.16
2001.18
2001.19
2001.19
1903.09
1903.09
1903.08
1903.06
1903.04
1903.01
1902.99
1902.96
1902.93
1902.9
1902.88
1902.86
1902.84
1902.83
1902.83
1902.83
1902.84
1902.85
1902.88
1902.9
1902.93
1902.96
1902.99
1903.03
1903.06
1903.09
1903.11
1903.13
1903.14
1903.15
1805.06
1805.05
1805.04
1805.02
1804.99
1804.96
1804.93
1804.9
1804.86
1804.83
1804.8
1804.77
1804.75
1804.74
1804.74
1804.74
1804.75
1804.77
1804.79
1804.82
1804.86
1804.9
1804.93
1804.97
1805.01
1805.04
1805.07
1805.09
1805.11
1805.12
1707.03
1707.02
1707.01
1706.99
1706.96
1706.92
1706.88
1706.84
1706.8
1706.76
1706.73
1706.7
1706.68
1706.66
1706.66
1706.66
1706.67
1706.69
1706.72
1706.75
1706.8
1706.84
1706.88
1706.93
1706.97
1707.01
1707.04
1707.06
1707.08
1707.09
1609.02
1609.01
1608.99
1608.96
1608.93
1608.89
1608.85
1608.8
1608.76
1608.71
1608.67
1608.64
1608.61
1608.59
1608.58
1608.59
1608.6
1608.63
1608.66
1608.7
1608.75
1608.8
1608.85
1608.9
1608.94
1608.99
1609.02
1609.05
1609.07
1609.08
1511.02
1511.01
1510.99
1510.96
1510.92
1510.87
1510.83
1510.77
1510.72
1510.67
1510.63
1510.59
1510.55
1510.53
1510.53
1510.53
1510.55
1510.58
1510.61
1510.66
1510.71
1510.77
1510.83
1510.88
1510.93
1510.98
1511.02
1511.05
1511.07
1511.08
1413.03
1413.02
1413
1412.97
1412.92
1412.88
1412.82
1412.76
1412.71
1412.65
1412.6
1412.55
1412.52
1412.49
1412.49
1412.49
1412.51
1412.54
1412.58
1412.64
1412.69
1412.76
1412.82
1412.88
1412.94
1412.99
1413.03
1413.06
1413.09
1413.1
1315.06
1315.05
1315.03
1314.99
1314.95
1314.9
1314.84
1314.78
1314.71
1314.65
1314.59
1314.54
1314.5
1314.48
1314.47
1314.47
1314.49
1314.53
1314.57
1314.63
1314.7
1314.77
1314.84
1314.9
1314.96
1315.02
1315.06
1315.1
1315.12
1315.13
1217.11
1217.1
1217.08
1217.04
1217
1216.94
1216.88
1216.82
1216.75
1216.68
1216.61
1216.56
1216.51
1216.49
1216.47
1216.48
1216.5
1216.54
1216.59
1216.65
1216.73
1216.8
1216.88
1216.95
1217.01
1217.07
1217.12
1217.15
1217.18
1217.19
1119.19
1119.18
1119.15
1119.12
1119.07
1119.02
1118.95
1118.88
1118.81
1118.74
1118.67
1118.61
1118.56
1118.53
1118.52
1118.52
1118.54
1118.59
1118.64
1118.71
1118.79
1118.87
1118.94
1119.02
1119.09
1119.15
1119.19
1119.23
1119.26
1119.27
1021.28
1021.27
1021.25
1021.22
1021.17
1021.12
1021.05
1020.98
1020.91
1020.84
1020.77
1020.7
1020.65
1020.62
1020.6
1020.61
1020.63
1020.68
1020.74
1020.81
1020.89
1020.97
1021.05
1021.12
1021.19
1021.25
1021.29
1021.33
1021.35
1021.36
923.398
923.389
923.369
923.339
923.298
923.248
923.19
923.124
923.053
922.98
922.909
922.846
922.795
922.759
922.742
922.748
922.775
922.82
922.88
922.952
923.031
923.11
923.188
923.26
923.323
923.376
923.419
923.451
923.47
923.479
825.531
825.524
825.51
825.486
825.455
825.413
825.363
825.305
825.242
825.175
825.109
825.049
824.999
824.964
824.947
824.954
824.98
825.024
825.082
825.151
825.225
825.299
825.369
825.432
825.487
825.532
825.566
825.591
825.606
825.613
727.675
727.673
727.667
727.655
727.635
727.608
727.573
727.531
727.481
727.427
727.37
727.318
727.272
727.241
727.225
727.232
727.255
727.296
727.348
727.409
727.471
727.533
727.591
727.64
727.681
727.712
727.734
727.748
727.755
727.757
629.821
629.826
629.833
629.837
629.835
629.829
629.817
629.797
629.769
629.735
629.697
629.656
629.62
629.594
629.58
629.59
629.607
629.641
629.68
629.724
629.769
629.812
629.849
629.879
629.896
629.909
629.915
629.914
629.906
629.901
531.953
531.969
532.002
532.026
532.047
532.065
532.084
532.096
532.098
532.093
532.081
532.063
532.039
532.03
532.008
532.032
532.035
532.056
532.073
532.091
532.107
532.124
532.135
532.136
532.126
532.114
532.099
532.081
532.048
532.036
434.043
434.082
434.175
434.218
434.263
434.304
434.359
434.414
434.454
434.484
434.506
434.522
434.505
434.547
434.489
434.561
434.515
434.533
434.512
434.488
434.458
434.448
434.431
434.395
434.351
434.314
434.274
434.246
434.154
434.133
336.014
336.137
336.362
336.403
336.483
336.535
336.634
336.739
336.808
336.872
336.943
337
336.965
337.128
336.995
337.173
337.014
337.046
336.973
336.88
336.76
336.749
336.723
336.646
336.558
336.5
336.413
336.42
336.195
336.107
237.563
238.146
238.518
238.613
238.755
238.795
238.944
239.084
239.132
239.152
239.355
239.394
239.382
239.696
239.485
239.739
239.514
239.47
239.448
239.181
238.854
238.988
239.021
238.913
238.769
238.675
238.523
238.539
238.203
237.674
137.576
140.205
140.451
140.959
141.23
141.424
141.559
141.46
141.382
141.017
141.77
141.426
141.771
141.812
142.209
141.874
142.131
141.882
142.211
141.204
140.326
141.11
141.361
141.434
141.372
140.822
140.617
140.355
140.3
137.77
46.6059
51.5961
51.2181
51.443
51.6307
52.7756
52.7235
51.7381
51.451
50.5572
51.8483
51.0949
52.5083
51.3134
52.9511
51.1599
52.7709
51.8362
52.9238
50.7818
49.1179
51.1342
51.8024
52.1971
52.6138
51.2165
51.0763
51.0591
51.6992
46.934
0.881267
3.33257
2.90788
2.69449
2.58032
3.84799
3.47046
2.74634
2.73692
1.96969
2.76788
2.21037
3.51977
2.23872
3.27076
2.10285
3.29922
2.58926
3.26866
2.18559
1.4431
2.6582
2.93206
2.96013
3.66165
2.56565
2.69054
2.7183
3.2027
1.08493
-5.00251
-5.05711
-5.05346
-5.04594
-5.03303
-5.06508
-5.06198
-5.04513
-5.02905
-5.0005
-5.03656
-4.99694
-5.07419
-5.01918
-5.10031
-5.03134
-5.10013
-5.06437
-5.10073
-5.05861
-5.00707
-5.0497
-5.05211
-5.0392
-5.06202
-5.0377
-5.04278
-5.05395
-5.08543
-5.00765
-5.16235
-5.17842
-5.18169
-5.17708
-5.17191
-5.18027
-5.18166
-5.18313
-5.18339
-5.1665
-5.18509
-5.17555
-5.19521
-5.18626
-5.20444
-5.18967
-5.20467
-5.19976
-5.1975
-5.18977
-5.16643
-5.18458
-5.18676
-5.18463
-5.17944
-5.17728
-5.18312
-5.18941
-5.18381
-5.16789
-5.27598
-5.28723
-5.28682
-5.28971
-5.2968
-5.29658
-5.29709
-5.2967
-5.30347
-5.31464
-5.31076
-5.31495
-5.31054
-5.31596
-5.3116
-5.31604
-5.30932
-5.30898
-5.30754
-5.30811
-5.31285
-5.3008
-5.29975
-5.30346
-5.30019
-5.30046
-5.29599
-5.29197
-5.29004
-5.28099
-5.37935
-5.38308
-5.38565
-5.38846
-5.39244
-5.39291
-5.3937
-5.3941
-5.39775
-5.40362
-5.40221
-5.4043
-5.40278
-5.40691
-5.40439
-5.40686
-5.40332
-5.40421
-5.40246
-5.40155
-5.40325
-5.39919
-5.39715
-5.39696
-5.39494
-5.39431
-5.39235
-5.38978
-5.3872
-5.38427
-5.47946
-5.48095
-5.48255
-5.48459
-5.48623
-5.48724
-5.48853
-5.48965
-5.4913
-5.49333
-5.49475
-5.49561
-5.49606
-5.49682
-5.49675
-5.49683
-5.49646
-5.49612
-5.49562
-5.49477
-5.49378
-5.49274
-5.49194
-5.49118
-5.49012
-5.48876
-5.48769
-5.48594
-5.48463
-5.48339
-5.57853
-5.579
-5.58002
-5.58159
-5.58339
-5.58419
-5.58528
-5.58627
-5.58744
-5.58832
-5.58889
-5.58962
-5.58992
-5.59028
-5.59008
-5.59031
-5.59014
-5.59001
-5.5897
-5.58938
-5.5893
-5.58896
-5.58821
-5.58735
-5.58647
-5.58596
-5.58454
-5.5832
-5.58234
-5.58184
-5.67567
-5.67601
-5.6767
-5.67763
-5.67852
-5.67912
-5.67985
-5.68055
-5.68118
-5.68172
-5.68217
-5.6826
-5.68286
-5.68305
-5.68305
-5.68318
-5.68321
-5.68319
-5.68309
-5.68299
-5.68286
-5.68268
-5.68231
-5.68191
-5.6814
-5.68092
-5.68036
-5.67964
-5.6791
-5.67878
-5.77208
-5.77231
-5.77273
-5.77326
-5.7738
-5.77423
-5.77461
-5.77493
-5.77516
-5.77534
-5.77549
-5.77563
-5.77574
-5.77582
-5.7759
-5.77601
-5.77611
-5.77622
-5.77634
-5.77648
-5.77659
-5.77668
-5.77667
-5.77658
-5.77641
-5.77621
-5.7759
-5.77553
-5.77524
-5.77508
-5.86814
-5.86827
-5.8685
-5.86879
-5.86907
-5.86926
-5.86936
-5.86938
-5.86933
-5.86924
-5.86913
-5.86902
-5.86894
-5.86891
-5.86894
-5.86906
-5.86924
-5.86951
-5.86984
-5.8702
-5.87056
-5.87088
-5.87113
-5.87131
-5.87141
-5.87142
-5.87135
-5.87122
-5.8711
-5.87104
-5.96402
-5.96407
-5.96418
-5.9643
-5.96437
-5.96434
-5.96421
-5.96401
-5.96375
-5.96346
-5.96317
-5.9629
-5.96268
-5.96254
-5.96253
-5.96266
-5.96291
-5.9633
-5.96378
-5.9643
-5.96484
-5.96534
-5.96579
-5.96617
-5.96646
-5.96667
-5.96679
-5.96683
-5.96682
-5.96681
-6.05988
-6.05988
-6.05989
-6.05989
-6.0598
-6.0596
-6.05931
-6.05895
-6.05855
-6.05812
-6.0577
-6.05731
-6.057
-6.0568
-6.05676
-6.05688
-6.05717
-6.05762
-6.05818
-6.05881
-6.05947
-6.06012
-6.06072
-6.06125
-6.06169
-6.06203
-6.06227
-6.06242
-6.0625
-6.06254
-6.15578
-6.15575
-6.1557
-6.15559
-6.15538
-6.15507
-6.15467
-6.15421
-6.1537
-6.15318
-6.15267
-6.15222
-6.15186
-6.15163
-6.15157
-6.15169
-6.15199
-6.15247
-6.15307
-6.15376
-6.15449
-6.15522
-6.15592
-6.15655
-6.15709
-6.15753
-6.15786
-6.15809
-6.15824
-6.15831
-6.2518
-6.25174
-6.25163
-6.25145
-6.25116
-6.25077
-6.2503
-6.24976
-6.24919
-6.24861
-6.24806
-6.24758
-6.24721
-6.24697
-6.24691
-6.24702
-6.24733
-6.2478
-6.24842
-6.24913
-6.24989
-6.25066
-6.25141
-6.25211
-6.25271
-6.25322
-6.25362
-6.25392
-6.25411
-6.25421
-6.34798
-6.34791
-6.34775
-6.3475
-6.34715
-6.34671
-6.34619
-6.34562
-6.34502
-6.34442
-6.34386
-6.34338
-6.343
-6.34277
-6.34271
-6.34282
-6.34311
-6.34357
-6.34418
-6.34489
-6.34566
-6.34645
-6.34722
-6.34795
-6.3486
-6.34916
-6.34961
-6.34995
-6.35017
-6.35028
-6.44435
-6.44427
-6.44408
-6.44377
-6.44336
-6.44289
-6.44235
-6.44177
-6.44117
-6.44058
-6.44003
-6.43956
-6.4392
-6.43897
-6.4389
-6.43901
-6.43929
-6.43973
-6.44032
-6.44102
-6.44178
-6.44258
-6.44336
-6.4441
-6.44477
-6.44535
-6.44582
-6.44617
-6.4464
-6.44651
-6.5409
-6.54082
-6.54059
-6.54024
-6.53982
-6.53932
-6.53879
-6.53822
-6.53764
-6.53708
-6.53656
-6.53611
-6.53577
-6.53556
-6.5355
-6.5356
-6.53587
-6.53629
-6.53685
-6.53752
-6.53826
-6.53903
-6.5398
-6.54052
-6.54117
-6.54174
-6.5422
-6.54255
-6.54277
-6.54287
-6.6376
-6.6375
-6.63726
-6.63692
-6.63651
-6.63604
-6.63553
-6.63499
-6.63445
-6.63392
-6.63343
-6.63302
-6.63271
-6.63252
-6.63247
-6.63257
-6.63282
-6.63322
-6.63374
-6.63436
-6.63505
-6.63577
-6.63648
-6.63716
-6.63777
-6.6383
-6.63873
-6.63906
-6.63927
-6.63936
-6.73438
-6.73427
-6.73405
-6.73375
-6.73339
-6.73297
-6.73251
-6.73202
-6.73152
-6.73104
-6.73059
-6.73021
-6.72993
-6.72977
-6.72973
-6.72983
-6.73006
-6.73042
-6.73089
-6.73145
-6.73207
-6.73271
-6.73335
-6.73397
-6.73452
-6.73501
-6.7354
-6.7357
-6.7359
-6.73599
-6.83124
-6.83113
-6.83096
-6.83072
-6.83042
-6.83006
-6.82965
-6.82921
-6.82876
-6.82833
-6.82793
-6.8276
-6.82735
-6.82721
-6.82718
-6.82728
-6.82749
-6.82781
-6.82823
-6.82872
-6.82926
-6.82983
-6.83039
-6.83093
-6.83143
-6.83187
-6.83223
-6.8325
-6.83269
-6.83278
-6.92824
-6.92816
-6.92803
-6.92783
-6.92758
-6.92726
-6.92691
-6.92652
-6.92612
-6.92574
-6.92539
-6.9251
-6.92489
-6.92477
-6.92476
-6.92485
-6.92504
-6.92533
-6.9257
-6.92612
-6.9266
-6.92709
-6.92759
-6.92806
-6.92851
-6.9289
-6.92922
-6.92947
-6.92965
-6.92973
-7.02541
-7.02536
-7.02525
-7.02508
-7.02486
-7.02458
-7.02426
-7.02392
-7.02358
-7.02325
-7.02296
-7.02271
-7.02254
-7.02245
-7.02244
-7.02253
-7.0227
-7.02296
-7.02328
-7.02365
-7.02406
-7.02449
-7.02493
-7.02535
-7.02574
-7.02608
-7.02638
-7.0266
-7.02675
-7.02683
-7.12276
-7.12271
-7.12261
-7.12246
-7.12225
-7.122
-7.12173
-7.12143
-7.12114
-7.12087
-7.12062
-7.12043
-7.12029
-7.12022
-7.12023
-7.12031
-7.12046
-7.12068
-7.12096
-7.12129
-7.12164
-7.12202
-7.12239
-7.12276
-7.1231
-7.1234
-7.12366
-7.12386
-7.12399
-7.12405
-7.22021
-7.22017
-7.22007
-7.21993
-7.21974
-7.21953
-7.21929
-7.21904
-7.2188
-7.21858
-7.21839
-7.21823
-7.21813
-7.21808
-7.21809
-7.21816
-7.2183
-7.21849
-7.21873
-7.219
-7.21931
-7.21963
-7.21995
-7.22026
-7.22056
-7.22082
-7.22104
-7.2212
-7.22132
-7.22137
-7.31772
-7.31768
-7.31759
-7.31747
-7.31731
-7.31713
-7.31693
-7.31673
-7.31654
-7.31637
-7.31622
-7.3161
-7.31602
-7.31599
-7.31601
-7.31607
-7.31618
-7.31634
-7.31654
-7.31677
-7.31703
-7.31729
-7.31757
-7.31783
-7.31808
-7.3183
-7.31848
-7.31862
-7.31872
-7.31876
-7.41528
-7.41524
-7.41517
-7.41506
-7.41493
-7.41479
-7.41464
-7.41448
-7.41434
-7.4142
-7.41409
-7.414
-7.41395
-7.41393
-7.41394
-7.414
-7.41409
-7.41422
-7.41439
-7.41458
-7.41478
-7.415
-7.41523
-7.41544
-7.41565
-7.41583
-7.41598
-7.4161
-7.41618
-7.41622
-7.51289
-7.51286
-7.5128
-7.51272
-7.51262
-7.51251
-7.51239
-7.51228
-7.51216
-7.51206
-7.51198
-7.51192
-7.51188
-7.51187
-7.51188
-7.51193
-7.51201
-7.51211
-7.51225
-7.5124
-7.51257
-7.51274
-7.51292
-7.5131
-7.51327
-7.51342
-7.51354
-7.51364
-7.51371
-7.51374
-7.61056
-7.61053
-7.61049
-7.61043
-7.61035
-7.61027
-7.61019
-7.6101
-7.61002
-7.60994
-7.60988
-7.60983
-7.60981
-7.6098
-7.60982
-7.60986
-7.60992
-7.61001
-7.61011
-7.61023
-7.61037
-7.61051
-7.61066
-7.6108
-7.61093
-7.61105
-7.61116
-7.61124
-7.6113
-7.61132
-7.70828
-7.70826
-7.70823
-7.70819
-7.70814
-7.70808
-7.70801
-7.70795
-7.70788
-7.70783
-7.70778
-7.70774
-7.70772
-7.70772
-7.70774
-7.70777
-7.70782
-7.70789
-7.70798
-7.70808
-7.70818
-7.7083
-7.70842
-7.70853
-7.70864
-7.70874
-7.70883
-7.70889
-7.70894
-7.70896
-7.80606
-7.80605
-7.80603
-7.806
-7.80596
-7.80591
-7.80586
-7.80581
-7.80576
-7.80571
-7.80567
-7.80565
-7.80563
-7.80563
-7.80564
-7.80567
-7.80572
-7.80577
-7.80584
-7.80593
-7.80601
-7.80611
-7.8062
-7.8063
-7.80639
-7.80647
-7.80654
-7.80659
-7.80663
-7.80665
-7.90387
-7.90387
-7.90385
-7.90383
-7.9038
-7.90376
-7.90372
-7.90368
-7.90364
-7.9036
-7.90357
-7.90355
-7.90353
-7.90353
-7.90354
-7.90357
-7.9036
-7.90365
-7.90371
-7.90378
-7.90385
-7.90393
-7.90401
-7.90409
-7.90416
-7.90423
-7.90428
-7.90433
-7.90436
-7.90437
-8.00171
-8.00171
-8.00169
-8.00167
-8.00165
-8.00162
-8.00158
-8.00155
-8.00151
-8.00148
-8.00146
-8.00144
-8.00143
-8.00142
-8.00143
-8.00145
-8.00149
-8.00153
-8.00158
-8.00163
-8.00169
-8.00176
-8.00182
-8.00189
-8.00195
-8.002
-8.00205
-8.00209
-8.00211
-8.00212
-8.09955
-8.09955
-8.09954
-8.09952
-8.0995
-8.09947
-8.09944
-8.09941
-8.09938
-8.09936
-8.09933
-8.09932
-8.09931
-8.09931
-8.09931
-8.09933
-8.09936
-8.09939
-8.09943
-8.09948
-8.09953
-8.09959
-8.09964
-8.0997
-8.09975
-8.09979
-8.09983
-8.09986
-8.09988
-8.09989
-8.19738
-8.19738
-8.19738
-8.19736
-8.19734
-8.19732
-8.19729
-8.19727
-8.19724
-8.19722
-8.1972
-8.19719
-8.19718
-8.19718
-8.19718
-8.1972
-8.19722
-8.19725
-8.19728
-8.19732
-8.19737
-8.19741
-8.19746
-8.1975
-8.19755
-8.19758
-8.19762
-8.19764
-8.19766
-8.19766
-8.29521
-8.29521
-8.2952
-8.29519
-8.29517
-8.29516
-8.29513
-8.29511
-8.29509
-8.29507
-8.29505
-8.29504
-8.29503
-8.29503
-8.29504
-8.29505
-8.29507
-8.29509
-8.29512
-8.29516
-8.29519
-8.29523
-8.29527
-8.29531
-8.29534
-8.29537
-8.2954
-8.29542
-8.29543
-8.29544
-8.39302
-8.39302
-8.39302
-8.39301
-8.39299
-8.39298
-8.39296
-8.39294
-8.39292
-8.39291
-8.39289
-8.39288
-8.39288
-8.39288
-8.39288
-8.39289
-8.3929
-8.39293
-8.39295
-8.39298
-8.39301
-8.39304
-8.39307
-8.3931
-8.39313
-8.39316
-8.39318
-8.39319
-8.3932
-8.39321
-8.49082
-8.49082
-8.49082
-8.49081
-8.4908
-8.49078
-8.49077
-8.49075
-8.49074
-8.49073
-8.49071
-8.49071
-8.4907
-8.4907
-8.4907
-8.49071
-8.49073
-8.49074
-8.49076
-8.49079
-8.49081
-8.49084
-8.49086
-8.49089
-8.49091
-8.49093
-8.49095
-8.49096
-8.49097
-8.49097
-8.58861
-8.58861
-8.58861
-8.5886
-8.58859
-8.58858
-8.58857
-8.58855
-8.58854
-8.58853
-8.58852
-8.58851
-8.58851
-8.58851
-8.58851
-8.58852
-8.58853
-8.58854
-8.58856
-8.58858
-8.5886
-8.58862
-8.58864
-8.58867
-8.58868
-8.5887
-8.58872
-8.58873
-8.58873
-8.58873
-8.68638
-8.68638
-8.68638
-8.68637
-8.68637
-8.68636
-8.68635
-8.68634
-8.68633
-8.68632
-8.68631
-8.68631
-8.6863
-8.6863
-8.68631
-8.68631
-8.68632
-8.68633
-8.68634
-8.68636
-8.68638
-8.68639
-8.68641
-8.68643
-8.68644
-8.68646
-8.68647
-8.68648
-8.68648
-8.68648
-8.78414
-8.78414
-8.78414
-8.78413
-8.78413
-8.78412
-8.78411
-8.78411
-8.7841
-8.78409
-8.78409
-8.78408
-8.78408
-8.78408
-8.78408
-8.78409
-8.78409
-8.7841
-8.78411
-8.78413
-8.78414
-8.78415
-8.78417
-8.78418
-8.78419
-8.78421
-8.78421
-8.78422
-8.78422
-8.78422
-8.88189
-8.88189
-8.88189
-8.88188
-8.88188
-8.88187
-8.88187
-8.88186
-8.88185
-8.88185
-8.88184
-8.88184
-8.88184
-8.88184
-8.88184
-8.88185
-8.88185
-8.88186
-8.88187
-8.88188
-8.88189
-8.8819
-8.88191
-8.88192
-8.88193
-8.88194
-8.88195
-8.88195
-8.88195
-8.88195
-8.97962
-8.97962
-8.97962
-8.97962
-8.97962
-8.97961
-8.97961
-8.9796
-8.9796
-8.97959
-8.97959
-8.97959
-8.97959
-8.97959
-8.97959
-8.97959
-8.97959
-8.9796
-8.97961
-8.97962
-8.97962
-8.97963
-8.97964
-8.97965
-8.97966
-8.97967
-8.97967
-8.97967
-8.97968
-8.97968
-9.07735
-9.07735
-9.07734
-9.07734
-9.07734
-9.07734
-9.07733
-9.07733
-9.07733
-9.07732
-9.07732
-9.07732
-9.07732
-9.07732
-9.07732
-9.07732
-9.07732
-9.07733
-9.07734
-9.07734
-9.07735
-9.07736
-9.07736
-9.07737
-9.07738
-9.07738
-9.07739
-9.07739
-9.07739
-9.07739
-9.17506
-9.17506
-9.17506
-9.17506
-9.17505
-9.17505
-9.17505
-9.17505
-9.17504
-9.17504
-9.17504
-9.17504
-9.17504
-9.17504
-9.17504
-9.17504
-9.17504
-9.17505
-9.17505
-9.17506
-9.17506
-9.17507
-9.17507
-9.17508
-9.17508
-9.17509
-9.17509
-9.17509
-9.17509
-9.17509
-9.27276
-9.27276
-9.27276
-9.27276
-9.27276
-9.27276
-9.27275
-9.27275
-9.27275
-9.27275
-9.27275
-9.27274
-9.27274
-9.27274
-9.27274
-9.27275
-9.27275
-9.27275
-9.27275
-9.27276
-9.27276
-9.27277
-9.27277
-9.27278
-9.27278
-9.27278
-9.27278
-9.27279
-9.27279
-9.27279
-9.37045
-9.37045
-9.37045
-9.37045
-9.37045
-9.37045
-9.37045
-9.37045
-9.37045
-9.37044
-9.37044
-9.37044
-9.37044
-9.37044
-9.37044
-9.37044
-9.37044
-9.37045
-9.37045
-9.37045
-9.37046
-9.37046
-9.37046
-9.37047
-9.37047
-9.37047
-9.37047
-9.37047
-9.37047
-9.37047
-9.46814
-9.46814
-9.46814
-9.46814
-9.46814
-9.46814
-9.46814
-9.46813
-9.46813
-9.46813
-9.46813
-9.46813
-9.46813
-9.46813
-9.46813
-9.46813
-9.46813
-9.46813
-9.46814
-9.46814
-9.46814
-9.46814
-9.46815
-9.46815
-9.46815
-9.46815
-9.46815
-9.46815
-9.46815
-9.46815
-9.56582
-9.56582
-9.56582
-9.56582
-9.56582
-9.56582
-9.56582
-9.56581
-9.56581
-9.56581
-9.56581
-9.56581
-9.56581
-9.56581
-9.56581
-9.56581
-9.56581
-9.56582
-9.56582
-9.56582
-9.56582
-9.56582
-9.56582
-9.56582
-9.56583
-9.56583
-9.56583
-9.56583
-9.56583
-9.56583
-9.66349
-9.66349
-9.66349
-9.66349
-9.66349
-9.66349
-9.66349
-9.66349
-9.66349
-9.66349
-9.66349
-9.66349
-9.66349
-9.66349
-9.66349
-9.66349
-9.66349
-9.66349
-9.66349
-9.66349
-9.66349
-9.66349
-9.6635
-9.6635
-9.6635
-9.6635
-9.6635
-9.6635
-9.6635
-9.6635
-9.76117
-9.76117
-9.76117
-9.76117
-9.76117
-9.76116
-9.76116
-9.76116
-9.76116
-9.76116
-9.76116
-9.76116
-9.76116
-9.76116
-9.76116
-9.76116
-9.76116
-9.76117
-9.76117
-9.76117
-9.76117
-9.76117
-9.76117
-9.76117
-9.76117
-9.76117
-9.76117
-9.76117
-9.76117
-9.76117
4845.81
4845.81
4845.81
4845.81
4845.81
4845.81
4845.81
4845.81
4845.8
4845.8
4845.8
4845.8
4845.8
4845.8
4845.8
4845.8
4845.8
4845.8
4845.8
4845.81
4845.81
4845.81
4845.81
4845.81
4845.81
4845.81
4845.81
4845.82
4845.82
4845.82
4747.71
4747.71
4747.71
4747.71
4747.71
4747.71
4747.71
4747.71
4747.7
4747.7
4747.7
4747.7
4747.7
4747.7
4747.7
4747.7
4747.7
4747.7
4747.7
4747.7
4747.71
4747.71
4747.71
4747.71
4747.71
4747.71
4747.71
4747.71
4747.71
4747.71
4649.6
4649.6
4649.6
4649.6
4649.6
4649.6
4649.6
4649.61
4649.61
4649.61
4649.61
4649.61
4649.6
4649.6
4649.6
4649.6
4649.6
4649.6
4649.6
4649.6
4649.61
4649.61
4649.61
4649.61
4649.61
4649.61
4649.61
4649.61
4649.61
4649.61
4551.5
4551.5
4551.5
4551.5
4551.5
4551.5
4551.5
4551.51
4551.51
4551.51
4551.51
4551.51
4551.51
4551.51
4551.51
4551.51
4551.51
4551.51
4551.51
4551.51
4551.51
4551.51
4551.51
4551.51
4551.51
4551.51
4551.51
4551.51
4551.51
4551.51
4453.4
4453.4
4453.4
4453.4
4453.4
4453.4
4453.4
4453.41
4453.41
4453.41
4453.41
4453.41
4453.41
4453.41
4453.41
4453.41
4453.41
4453.41
4453.41
4453.41
4453.41
4453.41
4453.41
4453.41
4453.41
4453.41
4453.41
4453.41
4453.41
4453.41
4355.3
4355.3
4355.3
4355.3
4355.3
4355.3
4355.3
4355.31
4355.31
4355.31
4355.31
4355.31
4355.31
4355.31
4355.31
4355.31
4355.31
4355.31
4355.31
4355.31
4355.31
4355.31
4355.31
4355.31
4355.31
4355.31
4355.31
4355.31
4355.31
4355.31
4257.21
4257.21
4257.21
4257.21
4257.21
4257.21
4257.21
4257.21
4257.21
4257.21
4257.21
4257.21
4257.21
4257.21
4257.21
4257.21
4257.21
4257.21
4257.21
4257.21
4257.21
4257.21
4257.21
4257.21
4257.21
4257.21
4257.21
4257.21
4257.21
4257.21
4159.11
4159.11
4159.11
4159.11
4159.11
4159.11
4159.11
4159.11
4159.11
4159.11
4159.11
4159.11
4159.11
4159.11
4159.11
4159.11
4159.11
4159.11
4159.11
4159.11
4159.11
4159.11
4159.11
4159.11
4159.11
4159.11
4159.11
4159.11
4159.11
4159.11
4061.02
4061.02
4061.02
4061.01
4061.01
4061.01
4061.01
4061.01
4061.01
4061.01
4061.01
4061.01
4061.01
4061.01
4061.01
4061.01
4061.01
4061.01
4061.01
4061.01
4061.01
4061.01
4061.01
4061.01
4061.01
4061.01
4061.01
4061.01
4061.01
4061.01
3962.92
3962.92
3962.92
3962.92
3962.92
3962.91
3962.91
3962.91
3962.91
3962.91
3962.91
3962.91
3962.91
3962.91
3962.91
3962.91
3962.91
3962.91
3962.91
3962.91
3962.91
3962.91
3962.91
3962.91
3962.91
3962.91
3962.91
3962.92
3962.91
3962.92
3864.82
3864.82
3864.82
3864.82
3864.81
3864.81
3864.81
3864.81
3864.81
3864.81
3864.81
3864.81
3864.81
3864.81
3864.81
3864.81
3864.81
3864.81
3864.81
3864.82
3864.82
3864.82
3864.82
3864.82
3864.82
3864.82
3864.82
3864.82
3864.82
3864.82
3766.71
3766.71
3766.71
3766.71
3766.71
3766.71
3766.71
3766.71
3766.71
3766.71
3766.71
3766.71
3766.71
3766.71
3766.71
3766.71
3766.71
3766.71
3766.71
3766.72
3766.72
3766.72
3766.72
3766.72
3766.72
3766.72
3766.72
3766.72
3766.72
3766.72
3668.61
3668.61
3668.61
3668.61
3668.61
3668.61
3668.61
3668.61
3668.61
3668.61
3668.61
3668.61
3668.61
3668.61
3668.61
3668.61
3668.61
3668.61
3668.61
3668.61
3668.62
3668.62
3668.62
3668.62
3668.62
3668.62
3668.62
3668.62
3668.62
3668.62
3570.5
3570.5
3570.5
3570.5
3570.51
3570.51
3570.51
3570.51
3570.51
3570.51
3570.51
3570.51
3570.51
3570.51
3570.51
3570.51
3570.51
3570.51
3570.51
3570.51
3570.52
3570.52
3570.52
3570.52
3570.52
3570.52
3570.52
3570.52
3570.52
3570.52
3472.4
3472.4
3472.41
3472.41
3472.41
3472.41
3472.41
3472.41
3472.41
3472.41
3472.41
3472.41
3472.41
3472.41
3472.41
3472.41
3472.41
3472.41
3472.41
3472.41
3472.41
3472.42
3472.42
3472.42
3472.42
3472.42
3472.43
3472.43
3472.43
3472.43
3374.31
3374.31
3374.31
3374.31
3374.31
3374.31
3374.31
3374.31
3374.31
3374.31
3374.31
3374.31
3374.31
3374.31
3374.31
3374.31
3374.31
3374.31
3374.31
3374.31
3374.31
3374.32
3374.32
3374.32
3374.32
3374.33
3374.33
3374.33
3374.33
3374.33
3276.22
3276.22
3276.22
3276.22
3276.22
3276.22
3276.21
3276.21
3276.21
3276.21
3276.21
3276.21
3276.21
3276.21
3276.21
3276.21
3276.21
3276.21