/*--------------------------------*- C++ -*----------------------------------*\
| =========                 |                                                 |
| \\      /  F ield         | OpenFOAM: The Open Source CFD Toolbox           |
|  \\    /   O peration     | Version:  2312                                  |
|   \\  /    A nd           | Website:  www.openfoam.com                      |
|    \\/     M anipulation  |                                                 |
\*---------------------------------------------------------------------------*/
FoamFile
{
    version     2.0;
    format      ascii;
    arch        "LSB;label=32;scalar=64";
    class       volScalarField;
    location    "1.50315242808";
    object      p_rgh;
}
// * * * * * * * * * * * * * * * * * * * * * * * * * * * * * * * * * * * * * //

dimensions      [1 -1 -2 0 0 0 0];

internalField   nonuniform List<scalar> 
90000
(
4894.86
4894.87
4894.86
4894.86
4894.86
4894.86
4894.86
4894.86
4894.85
4894.85
4894.85
4894.85
4894.85
4894.85
4894.85
4894.85
4894.85
4894.85
4894.86
4894.86
4894.86
4894.86
4894.86
4894.86
4894.86
4894.86
4894.86
4894.87
4894.87
4894.86
4894.87
4894.87
4894.87
4894.87
4894.86
4894.86
4894.86
4894.86
4894.85
4894.85
4894.85
4894.85
4894.85
4894.85
4894.85
4894.85
4894.85
4894.85
4894.86
4894.86
4894.86
4894.86
4894.86
4894.86
4894.86
4894.86
4894.87
4894.87
4894.86
4894.84
4894.86
4894.87
4894.86
4894.86
4894.86
4894.86
4894.86
4894.86
4894.85
4894.85
4894.85
4894.85
4894.85
4894.85
4894.85
4894.85
4894.85
4894.85
4894.85
4894.85
4894.85
4894.86
4894.86
4894.86
4894.86
4894.86
4894.87
4894.88
4894.9
4894.86
4894.86
4894.86
4894.86
4894.86
4894.86
4894.86
4894.86
4894.86
4894.86
4894.86
4894.85
4894.85
4894.85
4894.84
4894.84
4894.84
4894.84
4894.84
4894.84
4894.85
4894.85
4894.85
4894.86
4894.86
4894.86
4894.86
4894.86
4894.86
4894.88
4894.87
4894.86
4894.85
4894.85
4894.85
4894.85
4894.85
4894.86
4894.86
4894.86
4894.86
4894.86
4894.86
4894.85
4894.85
4894.84
4894.84
4894.84
4894.84
4894.84
4894.85
4894.85
4894.86
4894.86
4894.86
4894.86
4894.86
4894.87
4894.86
4894.87
4894.86
4894.85
4894.84
4894.84
4894.84
4894.84
4894.85
4894.85
4894.86
4894.86
4894.87
4894.87
4894.87
4894.87
4894.86
4894.86
4894.85
4894.85
4894.85
4894.85
4894.85
4894.86
4894.86
4894.86
4894.86
4894.86
4894.86
4894.87
4894.86
4894.86
4894.86
4894.84
4894.82
4894.83
4894.83
4894.84
4894.84
4894.85
4894.86
4894.86
4894.87
4894.88
4894.88
4894.88
4894.87
4894.87
4894.87
4894.86
4894.86
4894.86
4894.86
4894.86
4894.86
4894.87
4894.87
4894.87
4894.87
4894.87
4894.86
4894.85
4894.85
4894.84
4894.82
4894.82
4894.83
4894.83
4894.84
4894.84
4894.85
4894.86
4894.87
4894.87
4894.88
4894.88
4894.88
4894.88
4894.88
4894.87
4894.86
4894.86
4894.86
4894.86
4894.86
4894.86
4894.87
4894.87
4894.87
4894.86
4894.86
4894.86
4894.86
4894.83
4894.83
4894.83
4894.84
4894.84
4894.84
4894.84
4894.85
4894.85
4894.85
4894.86
4894.86
4894.87
4894.88
4894.88
4894.87
4894.87
4894.86
4894.85
4894.85
4894.85
4894.85
4894.85
4894.86
4894.86
4894.85
4894.85
4894.85
4894.86
4894.86
4894.84
4894.86
4894.86
4894.87
4894.86
4894.86
4894.85
4894.85
4894.84
4894.84
4894.84
4894.85
4894.86
4894.87
4894.87
4894.87
4894.86
4894.86
4894.85
4894.85
4894.84
4894.84
4894.84
4894.84
4894.83
4894.83
4894.84
4894.85
4894.86
4894.86
4894.87
4894.91
4894.91
4894.91
4894.9
4894.89
4894.87
4894.86
4894.85
4894.84
4894.84
4894.84
4894.85
4894.86
4894.86
4894.87
4894.87
4894.87
4894.86
4894.86
4894.86
4894.85
4894.84
4894.83
4894.83
4894.83
4894.84
4894.85
4894.86
4894.86
4894.9
4894.95
4894.95
4894.94
4894.92
4894.9
4894.88
4894.87
4894.85
4894.84
4894.84
4894.84
4894.85
4894.85
4894.86
4894.86
4894.87
4894.88
4894.88
4894.88
4894.88
4894.87
4894.86
4894.85
4894.85
4894.86
4894.87
4894.87
4894.87
4894.87
4894.93
4894.96
4894.94
4894.93
4894.91
4894.89
4894.87
4894.86
4894.85
4894.84
4894.84
4894.84
4894.84
4894.84
4894.85
4894.86
4894.87
4894.89
4894.9
4894.9
4894.89
4894.88
4894.88
4894.87
4894.88
4894.89
4894.89
4894.88
4894.87
4894.87
4894.92
4894.91
4894.89
4894.88
4894.86
4894.85
4894.84
4894.84
4894.84
4894.84
4894.84
4894.83
4894.83
4894.83
4894.84
4894.85
4894.87
4894.88
4894.89
4894.89
4894.89
4894.88
4894.88
4894.89
4894.89
4894.88
4894.87
4894.85
4894.84
4894.84
4894.88
4894.82
4894.81
4894.81
4894.81
4894.81
4894.82
4894.84
4894.85
4894.85
4894.85
4894.84
4894.83
4894.83
4894.84
4894.85
4894.86
4894.87
4894.87
4894.88
4894.88
4894.88
4894.89
4894.89
4894.88
4894.86
4894.84
4894.82
4894.82
4894.83
4894.83
4894.75
4894.76
4894.77
4894.79
4894.81
4894.84
4894.86
4894.87
4894.87
4894.87
4894.85
4894.85
4894.84
4894.85
4894.85
4894.86
4894.86
4894.86
4894.86
4894.87
4894.89
4894.9
4894.89
4894.88
4894.86
4894.85
4894.85
4894.86
4894.88
4894.79
4894.73
4894.75
4894.78
4894.81
4894.84
4894.86
4894.87
4894.88
4894.87
4894.86
4894.85
4894.85
4894.85
4894.85
4894.85
4894.85
4894.84
4894.84
4894.85
4894.87
4894.89
4894.9
4894.9
4894.89
4894.89
4894.9
4894.91
4894.93
4894.95
4894.79
4894.76
4894.79
4894.81
4894.83
4894.85
4894.86
4894.86
4894.85
4894.85
4894.84
4894.85
4894.86
4894.86
4894.86
4894.85
4894.83
4894.82
4894.83
4894.84
4894.86
4894.87
4894.87
4894.87
4894.87
4894.88
4894.9
4894.92
4894.93
4894.91
4894.82
4894.8
4894.82
4894.83
4894.83
4894.84
4894.83
4894.83
4894.83
4894.84
4894.85
4894.87
4894.89
4894.89
4894.87
4894.85
4894.83
4894.82
4894.82
4894.83
4894.83
4894.83
4894.82
4894.81
4894.82
4894.83
4894.84
4894.84
4894.82
4894.77
4894.84
4894.83
4894.83
4894.84
4894.84
4894.84
4894.84
4894.85
4894.86
4894.88
4894.9
4894.92
4894.93
4894.91
4894.88
4894.85
4894.84
4894.84
4894.84
4894.84
4894.83
4894.81
4894.8
4894.8
4894.81
4894.82
4894.81
4894.79
4894.74
4894.75
4894.86
4894.86
4894.87
4894.88
4894.89
4894.89
4894.9
4894.9
4894.92
4894.93
4894.94
4894.94
4894.92
4894.89
4894.86
4894.85
4894.86
4894.88
4894.89
4894.88
4894.86
4894.85
4894.85
4894.86
4894.88
4894.88
4894.87
4894.84
4894.84
4894.91
4894.88
4894.93
4894.94
4894.95
4894.95
4894.95
4894.94
4894.94
4894.93
4894.93
4894.92
4894.89
4894.86
4894.84
4894.84
4894.87
4894.91
4894.93
4894.93
4894.92
4894.9
4894.9
4894.91
4894.94
4894.95
4894.94
4894.93
4894.94
4894.98
4895
4894.93
4894.99
4894.99
4894.99
4894.98
4894.96
4894.94
4894.92
4894.91
4894.9
4894.87
4894.85
4894.83
4894.84
4894.87
4894.92
4894.95
4894.96
4894.94
4894.92
4894.92
4894.93
4894.96
4894.97
4894.96
4894.95
4894.95
4894.97
4894.98
4894.92
4894.97
4895
4894.99
4894.97
4894.95
4894.94
4894.93
4894.92
4894.92
4894.9
4894.87
4894.85
4894.85
4894.87
4894.91
4894.93
4894.93
4894.91
4894.88
4894.88
4894.92
4894.96
4894.99
4894.99
4894.97
4894.97
4894.97
4894.96
4894.92
4894.92
4894.98
4894.97
4894.96
4894.94
4894.94
4894.94
4894.95
4894.95
4894.94
4894.91
4894.88
4894.85
4894.85
4894.86
4894.87
4894.86
4894.83
4894.8
4894.81
4894.86
4894.93
4894.98
4895
4895
4895
4895
4894.99
4894.96
4894.97
4895.03
4894.97
4894.93
4894.93
4894.93
4894.93
4894.94
4894.95
4894.94
4894.92
4894.88
4894.84
4894.82
4894.83
4894.83
4894.82
4894.8
4894.78
4894.79
4894.85
4894.92
4894.97
4894.99
4894.98
4894.98
4894.98
4894.98
4894.96
4894.97
4895.04
4894.98
4894.96
4894.9
4894.9
4894.9
4894.9
4894.9
4894.91
4894.9
4894.87
4894.85
4894.84
4894.85
4894.87
4894.88
4894.87
4894.85
4894.86
4894.9
4894.95
4894.99
4894.99
4894.96
4894.95
4894.95
4894.96
4894.96
4894.96
4894.99
4894.99
4894.88
4894.96
4894.88
4894.88
4894.88
4894.88
4894.89
4894.9
4894.89
4894.88
4894.89
4894.9
4894.93
4894.94
4894.93
4894.91
4894.9
4894.93
4894.96
4894.98
4894.96
4894.93
4894.92
4894.95
4894.98
4894.98
4895.01
4895.02
4895
4894.92
4895
4894.96
4894.89
4894.91
4894.93
4894.94
4894.94
4894.93
4894.91
4894.91
4894.91
4894.92
4894.93
4894.91
4894.88
4894.87
4894.88
4894.91
4894.92
4894.9
4894.86
4894.86
4894.91
4894.97
4895
4895
4895.05
4895.06
4894.98
4895.01
4895.14
4895.01
4894.99
4895.01
4895
4894.98
4894.95
4894.92
4894.9
4894.9
4894.91
4894.92
4894.9
4894.87
4894.85
4894.86
4894.88
4894.88
4894.86
4894.84
4894.83
4894.87
4894.92
4894.95
4894.98
4894.98
4895.03
4895.04
4895.03
4895.16
4895.1
4895.11
4895.08
4895.05
4895.01
4894.97
4894.94
4894.94
4894.95
4894.97
4894.97
4894.96
4894.92
4894.89
4894.88
4894.89
4894.91
4894.9
4894.88
4894.89
4894.92
4894.96
4894.95
4894.93
4895
4895
4895.02
4895.09
4895.17
4895.17
4895.1
4895.18
4895.08
4895.05
4895.03
4895.04
4895.05
4895.06
4895.05
4895.03
4894.98
4894.94
4894.9
4894.88
4894.89
4894.91
4894.92
4894.92
4894.94
4894.99
4895.02
4895.02
4894.99
4894.96
4895.08
4895.08
4895.08
4895.2
4895.23
4895.14
4895.23
4895.2
4895.12
4895.15
4895.19
4895.2
4895.18
4895.11
4895.03
4894.95
4894.89
4894.86
4894.87
4894.9
4894.94
4894.94
4894.93
4894.93
4894.96
4894.99
4894.96
4894.96
4895
4895.01
4895.13
4895.15
4895.18
4895.28
4895.22
4895.26
4895.33
4895.28
4895.31
4895.34
4895.33
4895.27
4895.17
4895.06
4894.97
4894.93
4894.92
4894.95
4894.99
4895
4894.99
4894.94
4894.9
4894.88
4894.89
4894.9
4894.86
4894.92
4895.09
4895.09
4895.15
4895.23
4895.3
4895.33
4895.33
4895.4
4895.39
4895.45
4895.48
4895.44
4895.37
4895.29
4895.21
4895.15
4895.11
4895.09
4895.08
4895.09
4895.07
4895.02
4894.96
4894.9
4894.91
4894.91
4894.93
4894.97
4894.99
4895.1
4895.28
4895.21
4895.23
4895.37
4895.43
4895.43
4895.48
4895.48
4895.52
4895.6
4895.55
4895.51
4895.48
4895.44
4895.38
4895.31
4895.24
4895.19
4895.15
4895.12
4895.08
4895.01
4894.99
4894.96
4895.04
4895.07
4895.07
4895.15
4895.22
4895.27
4895.39
4895.33
4895.4
4895.56
4895.55
4895.58
4895.6
4895.68
4895.72
4895.7
4895.69
4895.7
4895.65
4895.56
4895.46
4895.37
4895.33
4895.3
4895.25
4895.18
4895.12
4895.05
4895.12
4895.09
4895.15
4895.16
4895.13
4895.23
4895.34
4895.31
4895.42
4895.48
4895.59
4895.67
4895.64
4895.74
4895.77
4895.89
4895.83
4895.87
4895.88
4895.82
4895.72
4895.64
4895.61
4895.59
4895.55
4895.47
4895.36
4895.26
4895.25
4895.18
4895.3
4895.25
4895.2
4895.22
4895.23
4895.37
4895.48
4895.4
4895.5
4895.67
4895.7
4895.72
4895.76
4895.87
4895.9
4895.91
4895.92
4896.06
4895.98
4895.91
4895.9
4895.93
4895.93
4895.86
4895.72
4895.59
4895.51
4895.44
4895.51
4895.36
4895.37
4895.38
4895.28
4895.38
4895.45
4895.53
4895.56
4895.53
4895.64
4895.85
4895.8
4895.84
4895.96
4896.01
4896.02
4896.12
4896.28
4896.2
4896.15
4896.19
4896.23
4896.21
4896.11
4895.96
4895.84
4895.8
4895.79
4895.65
4895.64
4895.53
4895.43
4895.62
4895.53
4895.56
4895.59
4895.62
4895.65
4895.81
4895.9
4896.01
4896
4896.03
4896.21
4896.21
4896.31
4896.48
4896.53
4896.41
4896.45
4896.46
4896.42
4896.33
4896.21
4896.14
4896.13
4896.07
4896.05
4895.89
4895.77
4895.91
4895.67
4895.81
4895.79
4895.76
4895.83
4895.96
4895.98
4896.11
4896.15
4896.14
4896.31
4896.3
4896.46
4896.48
4896.61
4896.57
4896.55
4896.69
4896.67
4896.65
4896.61
4896.52
4896.47
4896.49
4896.49
4896.34
4896.25
4896.28
4896.17
4896.28
4896.09
4895.97
4896.16
4896.19
4896.14
4896.24
4896.27
4896.35
4896.52
4896.51
4896.62
4896.58
4896.66
4896.83
4896.88
4896.69
4896.51
4896.92
4896.92
4896.91
4896.88
4896.89
4896.86
4896.78
4896.73
4896.73
4896.74
4896.57
4896.57
4896.47
4896.62
4896.36
4896.45
4896.51
4896.46
4896.58
4896.76
4896.75
4896.75
4896.75
4896.74
4897.02
4896.99
4896.9
4896.87
4897.14
4896.79
4897.18
4897.25
4897.17
4897.2
4897.21
4897.13
4897.08
4897.13
4897.06
4897.14
4896.87
4897.09
4896.93
4896.94
4896.87
4896.83
4896.95
4897.06
4896.97
4896.96
4897.08
4897.12
4897.2
4897.06
4897.24
4897.35
4897.21
4897.21
4897.36
4897.02
4897.43
4897.48
4897.5
4897.4
4897.31
4897.57
4897.58
4897.53
4897.56
4897.76
4897.51
4897.36
4897.64
4897.37
4897.4
4897.52
4897.43
4897.54
4897.59
4897.49
4897.52
4897.54
4897.57
4897.74
4897.4
4897.43
4897.6
4897.78
4897.41
4896.81
4897.54
4897.62
4897.72
4897.75
4897.64
4897.9
4897.96
4898.06
4897.82
4897.87
4898.31
4897.94
4897.92
4898.14
4897.9
4898.02
4898.22
4897.95
4897.97
4898.07
4897.93
4897.92
4897.87
4897.99
4897.78
4897.89
4897.86
4897.68
4898.03
4897.33
4897.58
4897.78
4897.85
4898.14
4898.03
4898.16
4898.11
4898.42
4898.43
4898.58
4898.29
4898.82
4898.59
4898.52
4898.66
4898.78
4898.5
4898.69
4898.73
4898.44
4898.37
4898.51
4898.36
4898.27
4898.21
4897.9
4898.07
4898.03
4897.93
4898.03
4897.3
4897.89
4898.05
4898.41
4898.47
4898.55
4898.7
4898.93
4898.75
4898.96
4899.01
4899.13
4899.18
4899.45
4899.25
4899.49
4899.26
4899.23
4899.24
4898.94
4898.62
4898.68
4898.73
4898.63
4898.6
4898.5
4898.22
4898.14
4897.9
4897.42
4895.34
4898.05
4898.3
4898.83
4899.08
4899.33
4899.41
4899.33
4899.23
4898.87
4899.59
4899.27
4899.62
4899.66
4900.11
4899.72
4899.99
4899.73
4900.06
4899.05
4898.2
4898.96
4899.2
4899.28
4899.22
4898.67
4898.55
4898.22
4898.15
4895.55
3605.9
4113.72
3950.17
4135.35
4164.98
4168.85
4184.86
4127.44
4133.02
3949.59
4189.87
3955.65
4140.02
3971.05
4236.13
3975.26
4201.8
4017.83
4259.8
4076.16
3884.92
4119.06
4121.93
4176.93
4210.35
4056.36
4087.84
3938.31
4118.97
3618.15
564.811
859.444
796.921
776.033
762.241
914.769
874.526
780.632
779.67
676.051
790.729
704.466
888.165
710.485
867.447
696.656
865.483
764.881
863.173
724.07
615.185
777.063
802.515
806.033
895.958
760.241
772.798
774.706
865.806
584.227
2.86469
0.744517
3.14435
2.59199
2.40821
1.08627
0.920909
3.11798
2.60194
4.74827
2.01089
2.62731
1.59789
3.16681
0.88672
2.716
1.13862
2.98294
0.774156
1.10371
2.98859
1.09059
2.8915
1.6715
0.598225
2.48464
3.66977
5.68042
0.838857
2.69993
0.0550706
0.534552
0.453653
0.216391
2.70339
0.699685
0.348432
0.610092
2.112
7.09546
2.87615
4.90243
0.904666
3.7779
0.602187
3.13609
0.538144
0.736761
0.671203
0.877532
7.11739
1.0458
0.710777
2.52296
0.495296
1.84897
0.318028
0.611703
0.318397
-0.0138542
-0.0256234
0.0515288
0.0550832
-0.0296896
0.0445079
-0.0186965
-0.0261546
0.0302708
-0.030201
-0.0570808
0.20754
-0.0534869
-0.0455404
-0.0498588
-0.0483914
-0.0605305
-0.0313939
-0.0362779
0.0108268
-0.0345044
-0.0569802
0.372518
0.220138
0.00381512
-0.0423738
-0.0209193
-0.0377267
0.0788114
0.0489371
-0.030774
-0.0321484
-0.0300708
-0.0287104
-0.0406864
-0.0442131
-0.0463933
-0.045588
-0.0272848
0.00371883
-0.0540651
-0.0214395
-0.0352607
-0.032211
-0.0392217
-0.0501945
-0.0539737
-0.0351904
-0.0339746
-0.0340834
-0.032951
-0.055533
0.0142598
0.0191731
-0.0403159
-0.0484697
-0.0478226
-0.0457299
-0.0332336
-0.0375711
-0.0371315
-0.034388
-0.0354886
-0.0373391
-0.039936
-0.0416593
-0.0426881
-0.0435989
-0.0399414
-0.0385363
-0.0482744
-0.0486893
-0.0378143
-0.0211427
-0.0290002
-0.0401453
-0.0435813
-0.0269873
-0.0278891
-0.0294786
-0.0417591
-0.0479157
-0.037425
-0.0411967
-0.0461144
-0.0455694
-0.0441647
-0.0430804
-0.0406305
-0.0399767
-0.0382615
-0.0358596
-0.0363389
-0.0373429
-0.0383058
-0.0402481
-0.0415416
-0.0426309
-0.0436226
-0.0447904
-0.0456392
-0.0456196
-0.0438439
-0.0408951
-0.0362352
-0.0287128
-0.0289452
-0.0352967
-0.0435215
-0.0450288
-0.0461039
-0.0464688
-0.0463121
-0.0455638
-0.0446978
-0.043815
-0.0425184
-0.0409305
-0.0404689
-0.0396797
-0.0391713
-0.0349206
-0.0352578
-0.0359507
-0.036727
-0.0376188
-0.0383587
-0.0391034
-0.039795
-0.0404289
-0.0409649
-0.0413936
-0.0418456
-0.0421036
-0.0410078
-0.0243835
-0.0237912
-0.0409534
-0.042437
-0.042342
-0.0422355
-0.0420977
-0.0419267
-0.0415636
-0.0411607
-0.0406406
-0.0399899
-0.039392
-0.0388925
-0.0383448
-0.0380319
-0.0332264
-0.0334606
-0.0338802
-0.0344139
-0.0349518
-0.0353801
-0.0357618
-0.036081
-0.0363095
-0.03649
-0.0366383
-0.0367842
-0.0368854
-0.0369655
-0.0352597
-0.0343279
-0.0372356
-0.0373736
-0.0374903
-0.037627
-0.0377436
-0.0378323
-0.0378246
-0.0377321
-0.0375595
-0.0373575
-0.0370498
-0.0366781
-0.0363862
-0.0362269
-0.0311852
-0.0313146
-0.0315484
-0.0318354
-0.0321165
-0.0323113
-0.0324056
-0.0324293
-0.0323775
-0.0322883
-0.0321765
-0.0320745
-0.0319939
-0.0319549
-0.0319929
-0.03211
-0.0322938
-0.0325641
-0.0328919
-0.0332544
-0.0336093
-0.0339266
-0.0341772
-0.0343552
-0.0344564
-0.0344674
-0.0343985
-0.0342688
-0.0341497
-0.0340843
-0.0289745
-0.0290214
-0.0291296
-0.0292492
-0.0293227
-0.0292918
-0.0291606
-0.0289581
-0.0286998
-0.0284135
-0.0281192
-0.0278471
-0.0276269
-0.0274927
-0.0274817
-0.0276051
-0.02786
-0.0282455
-0.0287254
-0.029253
-0.0297871
-0.030294
-0.0307441
-0.0311189
-0.0314147
-0.0316206
-0.0317391
-0.031778
-0.0317745
-0.0317646
-0.0267289
-0.0267259
-0.0267436
-0.0267367
-0.026651
-0.0264547
-0.0261625
-0.0258025
-0.0253967
-0.02497
-0.0245463
-0.0241626
-0.0238512
-0.0236543
-0.023608
-0.0237307
-0.0240235
-0.0244711
-0.0250338
-0.0256643
-0.0263207
-0.0269673
-0.0275685
-0.0280955
-0.0285352
-0.0288765
-0.0291223
-0.0292746
-0.0293544
-0.0293873
-0.0245334
-0.0244987
-0.024445
-0.0243367
-0.0241343
-0.0238239
-0.0234222
-0.0229558
-0.0224478
-0.0219254
-0.0214195
-0.0209668
-0.0206071
-0.0203799
-0.0203177
-0.0204383
-0.0207436
-0.0212162
-0.021819
-0.0225066
-0.0232359
-0.0239697
-0.0246699
-0.025301
-0.0258404
-0.0262761
-0.0266095
-0.0268434
-0.0269886
-0.0270595
-0.0224533
-0.0223931
-0.0222834
-0.0220962
-0.0218094
-0.0214211
-0.0209475
-0.0204122
-0.0198402
-0.019262
-0.0187134
-0.0182326
-0.0178574
-0.017623
-0.0175571
-0.017675
-0.0179786
-0.0184532
-0.0190663
-0.0197761
-0.0205378
-0.0213125
-0.0220637
-0.0227566
-0.0233641
-0.0238705
-0.0242724
-0.0245696
-0.024765
-0.0248635
-0.0205331
-0.0204584
-0.0203049
-0.0200531
-0.0197017
-0.019259
-0.0187415
-0.0181701
-0.0175696
-0.0169712
-0.0164114
-0.0159278
-0.0155548
-0.0153227
-0.0152553
-0.0153662
-0.0156582
-0.0161197
-0.0167252
-0.0174356
-0.0182068
-0.0189982
-0.0197739
-0.0205015
-0.0211534
-0.0217097
-0.0221602
-0.0224991
-0.0227237
-0.0228338
-0.0187974
-0.0187226
-0.0185264
-0.0182173
-0.0178142
-0.017335
-0.0167961
-0.0162158
-0.0156162
-0.0150254
-0.0144772
-0.0140066
-0.0136456
-0.0134213
-0.0133549
-0.0134591
-0.0137373
-0.014181
-0.0147691
-0.0154674
-0.0162337
-0.0170267
-0.0178093
-0.0185492
-0.0192192
-0.0197969
-0.0202676
-0.0206215
-0.020853
-0.0209611
-0.0172532
-0.0171729
-0.0169404
-0.0165949
-0.0161659
-0.0156749
-0.015138
-0.0145707
-0.0139923
-0.0134272
-0.0129056
-0.0124595
-0.012119
-0.0119096
-0.0118503
-0.0119523
-0.0122184
-0.0126414
-0.0132029
-0.0138736
-0.0146127
-0.0153829
-0.0161458
-0.0168687
-0.0175247
-0.0180917
-0.0185534
-0.0188991
-0.0191225
-0.0192231
-0.0158487
-0.0157525
-0.0155102
-0.0151693
-0.0147554
-0.0142865
-0.0137771
-0.0132415
-0.0126982
-0.0121698
-0.0116841
-0.0112705
-0.0109572
-0.0107676
-0.0107194
-0.0108213
-0.0110738
-0.0114689
-0.0119895
-0.0126097
-0.0132989
-0.0140169
-0.0147294
-0.0154055
-0.0160193
-0.0165504
-0.0169834
-0.0173079
-0.0175179
-0.0176124
-0.0145257
-0.0144167
-0.0142
-0.0139032
-0.0135394
-0.0131204
-0.0126583
-0.0121684
-0.0116699
-0.0111851
-0.0107408
-0.0103646
-0.0100823
-0.00991608
-0.00987972
-0.00997976
-0.0102145
-0.0105749
-0.0110447
-0.0116016
-0.0122179
-0.0128627
-0.0135044
-0.0141153
-0.0146719
-0.0151558
-0.0155526
-0.0158527
-0.0160499
-0.0161417
-0.0132866
-0.0131842
-0.0130128
-0.0127739
-0.0124704
-0.0121091
-0.0117012
-0.011263
-0.0108143
-0.0103783
-0.00998049
-0.00964575
-0.00939805
-0.00925574
-0.00923038
-0.00932641
-0.00954069
-0.00986352
-0.0102795
-0.0107692
-0.0113097
-0.0118758
-0.0124417
-0.0129837
-0.013481
-0.0139168
-0.0142777
-0.0145541
-0.0147392
-0.0148291
-0.0121865
-0.0121072
-0.0119763
-0.0117834
-0.0115277
-0.0112149
-0.0108565
-0.010469
-0.0100722
-0.00968856
-0.00934108
-0.00905171
-0.00884008
-0.00872282
-0.00870826
-0.0087997
-0.00899341
-0.00928011
-0.00964593
-0.010074
-0.0105454
-0.0110395
-0.0115354
-0.0120133
-0.0124551
-0.0128455
-0.0131718
-0.0134241
-0.0135951
-0.0136804
-0.0112649
-0.0112091
-0.0111015
-0.0109337
-0.0107079
-0.0104308
-0.0101145
-0.00977484
-0.00943027
-0.00910063
-0.00880553
-0.00856327
-0.00838984
-0.00829705
-0.00829275
-0.00837938
-0.00855341
-0.00880677
-0.00912752
-0.00950154
-0.00991244
-0.0103435
-0.0107773
-0.0111972
-0.0115876
-0.0119343
-0.0122254
-0.0124513
-0.0126047
-0.0126813
-0.0105064
-0.0104624
-0.0103633
-0.0102081
-0.0100024
-0.00975483
-0.00947749
-0.00918473
-0.00889241
-0.00861686
-0.00837379
-0.0081776
-0.00804109
-0.00797177
-0.0079766
-0.00805737
-0.00821153
-0.00843279
-0.00871125
-0.00903561
-0.00939192
-0.00976595
-0.010143
-0.010509
-0.01085
-0.0111534
-0.0114083
-0.0116056
-0.0117386
-0.0118048
-0.00985783
-0.00981561
-0.00972082
-0.00957701
-0.00939209
-0.00917554
-0.00893854
-0.00869334
-0.00845276
-0.00822946
-0.00803558
-0.00788228
-0.00777849
-0.00772963
-0.00774114
-0.00781461
-0.00794829
-0.008138
-0.0083751
-0.00865156
-0.00895613
-0.00927598
-0.0095989
-0.00991283
-0.0102057
-0.0104664
-0.0106851
-0.0108538
-0.0109662
-0.0110229
-0.00927175
-0.00922976
-0.00914235
-0.00901535
-0.0088568
-0.00867549
-0.00848094
-0.00828304
-0.00809169
-0.00791646
-0.00776635
-0.00764919
-0.00757133
-0.0075397
-0.00755599
-0.00762108
-0.00773393
-0.00789186
-0.00809074
-0.00832187
-0.0085766
-0.00884454
-0.00911571
-0.00937974
-0.00962636
-0.00984617
-0.0100307
-0.0101728
-0.0102675
-0.0103148
-0.00873039
-0.00869168
-0.00861667
-0.0085119
-0.00838382
-0.00823954
-0.00808662
-0.00793273
-0.0077855
-0.00765182
-0.00753865
-0.00745182
-0.00739624
-0.0073761
-0.00739371
-0.00745004
-0.00754427
-0.00767425
-0.00783644
-0.00802503
-0.00823322
-0.00845304
-0.00867625
-0.00889401
-0.00909797
-0.00928028
-0.00943376
-0.00955281
-0.0096326
-0.0096719
-0.0082393
-0.00820581
-0.00814659
-0.00806561
-0.00796755
-0.00785763
-0.00774154
-0.00762528
-0.00751457
-0.0074145
-0.00733054
-0.00726722
-0.00722824
-0.00721666
-0.00723446
-0.00728232
-0.00735967
-0.00746488
-0.00759548
-0.00774736
-0.0079151
-0.00809271
-0.00827363
-0.00845059
-0.00861689
-0.00876625
-0.0088927
-0.00899189
-0.00905921
-0.00909248
-0.00780608
-0.00778021
-0.00773649
-0.00767676
-0.00760421
-0.00752258
-0.00743605
-0.00734916
-0.00726625
-0.00719136
-0.00712895
-0.00708263
-0.00705543
-0.00704951
-0.00706628
-0.00710641
-0.00716982
-0.00725529
-0.00736048
-0.00748215
-0.00761665
-0.00775935
-0.00790502
-0.00804774
-0.00818246
-0.00830401
-0.00840769
-0.00848972
-0.00854595
-0.00857472
-0.00743251
-0.00741474
-0.00738409
-0.00734077
-0.00728714
-0.00722614
-0.00716114
-0.00709538
-0.00703238
-0.00697521
-0.00692772
-0.00689297
-0.00687336
-0.0068705
-0.0068856
-0.00691943
-0.00697182
-0.00704166
-0.00712714
-0.00722571
-0.00733426
-0.00744938
-0.00756695
-0.00768234
-0.00779155
-0.0078904
-0.00797511
-0.00804238
-0.00808924
-0.00811374
-0.00710971
-0.00710058
-0.00707856
-0.00704608
-0.0070054
-0.00695857
-0.00690821
-0.00685679
-0.00680712
-0.00676197
-0.00672426
-0.00669705
-0.00668203
-0.00668069
-0.00669409
-0.00672274
-0.00676641
-0.00682418
-0.00689456
-0.00697546
-0.00706434
-0.00715827
-0.00725401
-0.00734807
-0.00743712
-0.00751778
-0.00758696
-0.00764196
-0.00768051
-0.00770077
-0.00682474
-0.00681985
-0.00680348
-0.00677834
-0.00674618
-0.00670877
-0.00666815
-0.00662639
-0.00658561
-0.00654847
-0.0065177
-0.0064953
-0.00648297
-0.00648209
-0.00649358
-0.00651777
-0.00655443
-0.00660276
-0.00666147
-0.00672878
-0.00680255
-0.00688029
-0.00695926
-0.00703661
-0.00710993
-0.00717603
-0.00723259
-0.00727747
-0.00730883
-0.00732485
-0.00655942
-0.0065565
-0.00654368
-0.00652342
-0.00649699
-0.00646589
-0.00643213
-0.00639714
-0.00636262
-0.00633124
-0.00630512
-0.00628608
-0.00627549
-0.0062746
-0.0062842
-0.00630457
-0.00633545
-0.00637614
-0.00642552
-0.00648207
-0.0065439
-0.00660891
-0.00667477
-0.00673915
-0.00679971
-0.00685415
-0.00690046
-0.00693702
-0.00696218
-0.00697468
-0.00629874
-0.00629756
-0.00628731
-0.00627019
-0.00624779
-0.00622157
-0.00619286
-0.00616283
-0.00613311
-0.00610618
-0.00608374
-0.00606722
-0.00605794
-0.00605691
-0.00606483
-0.00608195
-0.00610794
-0.00614228
-0.00618395
-0.00623162
-0.00628369
-0.0063383
-0.00639351
-0.00644728
-0.00649761
-0.00654265
-0.0065807
-0.00661045
-0.00663041
-0.00663972
-0.0060339
-0.00603389
-0.00602541
-0.00601079
-0.00599194
-0.00596948
-0.00594454
-0.00591853
-0.00589315
-0.0058701
-0.00585079
-0.00583653
-0.00582833
-0.00582733
-0.00583384
-0.00584811
-0.00586996
-0.00589886
-0.00593396
-0.00597412
-0.00601792
-0.00606378
-0.00611004
-0.00615499
-0.0061969
-0.00623417
-0.00626548
-0.00628957
-0.00630545
-0.00631226
-0.00575928
-0.00575963
-0.00575274
-0.00574074
-0.00572469
-0.00570542
-0.00568392
-0.00566173
-0.00564023
-0.0056206
-0.00560418
-0.00559199
-0.00558496
-0.00558392
-0.00558928
-0.00560114
-0.00561942
-0.00564362
-0.00567305
-0.00570675
-0.00574348
-0.00578185
-0.00582045
-0.00585795
-0.00589278
-0.0059236
-0.00594934
-0.0059689
-0.00598147
-0.00598653
-0.00547201
-0.00547205
-0.00546704
-0.00545727
-0.00544332
-0.00542706
-0.00540902
-0.0053906
-0.0053727
-0.00535621
-0.00534237
-0.00533215
-0.00532622
-0.00532528
-0.00532967
-0.00533952
-0.0053548
-0.00537501
-0.00539958
-0.00542768
-0.00545823
-0.00549009
-0.00552218
-0.00555328
-0.00558196
-0.00560741
-0.00562862
-0.00564452
-0.00565443
-0.00565807
-0.00517055
-0.00517129
-0.00516796
-0.00515962
-0.00514819
-0.00513477
-0.00512001
-0.00510483
-0.00508989
-0.00507622
-0.00506479
-0.00505631
-0.0050513
-0.00505055
-0.00505438
-0.00506241
-0.00507504
-0.00509186
-0.00511239
-0.00513568
-0.0051608
-0.00518717
-0.00521376
-0.00523941
-0.00526313
-0.00528393
-0.00530117
-0.00531396
-0.00532175
-0.00532428
-0.00485561
-0.00485721
-0.00485504
-0.00484833
-0.00483911
-0.0048282
-0.00481604
-0.00480347
-0.00479133
-0.00478025
-0.00477099
-0.00476406
-0.00476012
-0.00475962
-0.00476277
-0.00476962
-0.00478021
-0.00479411
-0.00481085
-0.00482991
-0.00485049
-0.00487216
-0.00489399
-0.00491505
-0.00493448
-0.00495146
-0.00496534
-0.00497551
-0.00498141
-0.00498307
-0.00452729
-0.00453053
-0.00452858
-0.00452318
-0.004516
-0.0045071
-0.00449723
-0.00448707
-0.00447729
-0.00446845
-0.00446099
-0.0044556
-0.00445265
-0.0044524
-0.00445515
-0.00446091
-0.00446947
-0.0044807
-0.00449432
-0.00450987
-0.00452674
-0.00454437
-0.00456213
-0.00457924
-0.00459498
-0.0046087
-0.00461974
-0.00462761
-0.004632
-0.00463294
-0.00418809
-0.00419047
-0.00418863
-0.00418463
-0.0041791
-0.00417205
-0.00416409
-0.004156
-0.00414815
-0.00414115
-0.00413538
-0.00413117
-0.00412891
-0.0041288
-0.00413109
-0.00413581
-0.00414284
-0.00415203
-0.00416313
-0.00417574
-0.00418939
-0.00420363
-0.00421795
-0.00423171
-0.00424428
-0.00425513
-0.00426378
-0.00426979
-0.00427295
-0.00427347
-0.00383546
-0.00383812
-0.00383589
-0.00383293
-0.00382888
-0.00382316
-0.00381691
-0.00381054
-0.00380445
-0.00379904
-0.00379465
-0.00379133
-0.00378955
-0.00378947
-0.00379131
-0.00379512
-0.00380084
-0.00380825
-0.00381722
-0.00382744
-0.0038385
-0.00385
-0.00386146
-0.00387242
-0.00388237
-0.00389089
-0.00389757
-0.00390207
-0.0039043
-0.00390436
-0.0034713
-0.00347313
-0.00347111
-0.00346888
-0.00346564
-0.00346113
-0.00345635
-0.00345156
-0.00344721
-0.00344305
-0.00343953
-0.00343687
-0.00343533
-0.00343521
-0.00343666
-0.00343971
-0.00344433
-0.00345034
-0.00345756
-0.00346577
-0.00347465
-0.00348382
-0.00349293
-0.00350159
-0.00350941
-0.00351604
-0.00352118
-0.0035246
-0.0035262
-0.00352573
-0.00309583
-0.00309612
-0.00309481
-0.00309331
-0.00309056
-0.00308727
-0.00308382
-0.00308009
-0.00307653
-0.00307329
-0.00307049
-0.00306839
-0.00306716
-0.00306704
-0.00306823
-0.00307067
-0.00307442
-0.00307925
-0.003085
-0.00309153
-0.00309857
-0.00310581
-0.003113
-0.00311979
-0.0031259
-0.00313104
-0.00313504
-0.0031376
-0.0031386
-0.00313773
-0.00270868
-0.00270837
-0.00270776
-0.00270666
-0.00270453
-0.00270201
-0.00269923
-0.00269626
-0.00269338
-0.00269076
-0.00268857
-0.002687
-0.00268608
-0.00268606
-0.00268704
-0.00268905
-0.00269206
-0.0026959
-0.00270045
-0.00270558
-0.0027111
-0.00271679
-0.00272242
-0.00272773
-0.00273243
-0.00273637
-0.00273934
-0.00274117
-0.00274171
-0.00274087
-0.00231147
-0.00231095
-0.00231069
-0.00230971
-0.00230815
-0.0023062
-0.00230398
-0.00230162
-0.00229936
-0.00229733
-0.00229559
-0.00229433
-0.00229363
-0.0022936
-0.00229438
-0.00229597
-0.00229833
-0.00230132
-0.00230485
-0.00230886
-0.00231315
-0.00231758
-0.00232196
-0.00232606
-0.0023297
-0.00233271
-0.00233492
-0.00233615
-0.00233632
-0.00233539
-0.00190473
-0.0019046
-0.00190414
-0.00190347
-0.0019024
-0.00190089
-0.00189925
-0.00189735
-0.00189559
-0.00189399
-0.00189266
-0.00189169
-0.00189117
-0.00189104
-0.00189166
-0.00189288
-0.00189464
-0.00189688
-0.00189957
-0.00190264
-0.00190589
-0.00190927
-0.00191258
-0.00191566
-0.00191837
-0.00192062
-0.00192216
-0.00192287
-0.00192275
-0.00192183
-0.00148975
-0.00149018
-0.00148958
-0.00148904
-0.00148827
-0.00148715
-0.00148583
-0.00148447
-0.00148329
-0.00148217
-0.00148119
-0.00148049
-0.00148004
-0.00148
-0.00148049
-0.00148141
-0.00148268
-0.00148429
-0.0014862
-0.00148838
-0.00149076
-0.00149321
-0.00149561
-0.00149779
-0.00149971
-0.00150122
-0.0015022
-0.00150255
-0.0015023
-0.00150175
-0.0010689
-0.0010695
-0.00106894
-0.00106843
-0.00106779
-0.00106683
-0.00106571
-0.00106488
-0.00106417
-0.00106356
-0.00106311
-0.00106278
-0.00106241
-0.00106223
-0.00106265
-0.00106327
-0.0010642
-0.0010653
-0.00106659
-0.001068
-0.00106953
-0.00107113
-0.00107271
-0.00107416
-0.0010754
-0.00107632
-0.00107687
-0.001077
-0.00107674
-0.00107647
-0.000643801
-0.000644153
-0.000643784
-0.000643288
-0.000642731
-0.000642032
-0.00064136
-0.000640776
-0.000640346
-0.000640056
-0.000639906
-0.000639709
-0.000639577
-0.000639595
-0.000639813
-0.000640296
-0.000640932
-0.000641614
-0.000642401
-0.000643219
-0.000644027
-0.000644852
-0.000645639
-0.000646355
-0.000646947
-0.000647355
-0.000647566
-0.000647539
-0.000647306
-0.000647187
-0.000216302
-0.00021622
-0.000215946
-0.000215569
-0.000215122
-0.000214575
-0.00021415
-0.000213807
-0.00021364
-0.000213583
-0.000213557
-0.000213562
-0.000213698
-0.000213935
-0.000214252
-0.000214622
-0.000214977
-0.000215286
-0.000215564
-0.00021579
-0.000215928
-0.000216026
-0.000216087
-0.000216094
-0.000216066
-0.000216007
-0.000215923
-0.000215807
-0.000215673
-0.000215606
4894.87
4894.87
4894.87
4894.86
4894.86
4894.86
4894.86
4894.86
4894.85
4894.85
4894.85
4894.85
4894.85
4894.85
4894.85
4894.85
4894.85
4894.85
4894.86
4894.86
4894.86
4894.86
4894.86
4894.86
4894.86
4894.86
4894.87
4894.87
4894.87