/*--------------------------------*- C++ -*----------------------------------*\
| =========                 |                                                 |
| \\      /  F ield         | OpenFOAM: The Open Source CFD Toolbox           |
|  \\    /   O peration     | Version:  2312                                  |
|   \\  /    A nd           | Website:  www.openfoam.com                      |
|    \\/     M anipulation  |                                                 |
\*---------------------------------------------------------------------------*/
FoamFile
{
    version     2.0;
    format      ascii;
    arch        "LSB;label=32;scalar=64";
    class       surfaceScalarField;
    location    "1.50315242808";
    object      phi;
}
// * * * * * * * * * * * * * * * * * * * * * * * * * * * * * * * * * * * * * //

dimensions      [0 3 -1 0 0 0 0];

oriented        oriented;

internalField   nonuniform List<scalar> 
263100
(
-3.33427e-09
6.66855e-09
-3.33427e-09
1.61098e-09
-3.1159e-09
-1.82178e-09
3.90122e-09
-9.04294e-10
-1.37984e-09
5.44057e-09
-6.88028e-10
-8.45391e-10
6.54993e-09
-9.82058e-10
-1.21452e-10
7.48961e-09
-1.39457e-09
4.60718e-10
8.25656e-09
-1.8014e-09
1.04021e-09
8.62042e-09
-1.9797e-09
1.62155e-09
8.35238e-09
-1.77677e-09
2.05044e-09
7.36229e-09
-1.14758e-09
2.1432e-09
5.67092e-09
-2.77392e-10
1.97422e-09
3.43185e-09
6.68165e-10
1.57632e-09
9.90207e-10
1.40331e-09
1.04373e-09
-1.14384e-09
1.6951e-09
4.44392e-10
-2.49173e-09
1.40259e-09
-4.9158e-11
-2.88894e-09
6.24682e-10
-2.2179e-10
-2.35907e-09
-3.31801e-10
-1.92209e-10
-1.29579e-09
-1.13565e-09
7.84223e-11
-4.04116e-10
-1.55679e-09
6.71371e-10
-3.46173e-10
-1.30834e-09
1.25687e-09
-1.55463e-09
-4.52736e-10
1.66789e-09
-4.10208e-09
8.02169e-10
1.75225e-09
-7.57607e-09
1.96261e-09
1.51866e-09
-1.08389e-08
2.29323e-09
9.77265e-10
-1.25175e-08
1.3702e-09
3.16307e-10
-1.13126e-08
-7.63997e-10
-4.32534e-10
-6.18657e-09
-4.06097e-09
-1.05646e-09
4.24357e-09
-6.98894e-09
-3.43232e-09
1.76138e-08
-9.04024e-09
-4.32094e-09
4.7289e-08
-2.9666e-08
8.48684e-10
4.9786e-09
8.48682e-10
9.08048e-10
-4.03782e-09
8.75013e-10
9.74671e-10
-1.7867e-09
8.26824e-10
1.07768e-09
-1.51564e-09
7.355e-10
1.36815e-09
-1.97143e-09
7.09689e-10
1.87646e-09
-2.5701e-09
6.77958e-10
2.55783e-09
-3.09246e-09
6.20327e-10
3.3254e-09
-3.28031e-09
5.43531e-10
4.08648e-09
-3.0165e-09
4.89005e-10
4.69019e-09
-2.24307e-09
5.01993e-10
5.02499e-09
-1.1693e-09
5.67229e-10
5.05072e-09
-1.45623e-10
7.98137e-10
4.69279e-09
6.82965e-10
1.08841e-09
4.02491e-09
9.05187e-10
1.46806e-09
3.02516e-09
5.7117e-10
1.84168e-09
1.68973e-09
-1.48409e-10
2.11931e-09
2.22821e-10
-1.12235e-09
2.26856e-09
-1.20105e-09
-1.89706e-09
2.19671e-09
-2.49844e-09
-2.14259e-09
1.89499e-09
-3.60133e-09
-1.67538e-09
1.48212e-09
-4.55863e-09
-5.8451e-10
1.10174e-09
-5.36833e-09
7.37542e-10
8.87551e-10
-6.05499e-09
1.84887e-09
8.14225e-10
-6.28449e-09
1.6622e-09
8.75005e-10
-6.18905e-09
1.21535e-10
1.16835e-09
-6.21379e-09
-2.6128e-09
1.88924e-09
-6.44021e-09
-6.59626e-09
2.77787e-09
-2.07646e-09
-1.63467e-08
5.01055e-09
1.247e-08
-3.19668e-08
8.39684e-09
5.66771e-08
3.09593e-09
1.94476e-09
1.0953e-09
1.94476e-09
-3.34568e-10
-2.71313e-09
9.66609e-10
-1.84791e-09
-1.04812e-09
7.85342e-10
-2.84036e-09
-9.48991e-10
4.36298e-10
-3.46857e-09
-1.43448e-09
1.01724e-10
-3.64324e-09
-2.21391e-09
-1.71091e-10
-3.20093e-09
-3.0318e-09
-4.92622e-10
-2.10404e-09
-3.59314e-09
-7.7383e-10
-3.90007e-10
-3.8319e-09
-8.88572e-10
1.73809e-09
-3.56431e-09
-7.96958e-10
4.0041e-09
-2.93114e-09
-4.9442e-10
5.95688e-09
-2.12589e-09
3.71545e-11
7.32956e-09
-1.25962e-09
5.79555e-10
7.57444e-09
-5.59607e-10
1.22964e-09
6.56945e-09
-9.27876e-11
1.67879e-09
4.39547e-09
1.378e-10
1.89778e-09
1.40583e-09
1.42036e-10
1.73543e-09
-1.72403e-09
1.3201e-11
1.23e-09
-4.24151e-09
-1.51152e-10
5.36719e-10
-5.57927e-09
-1.68737e-10
-1.5784e-10
-5.53587e-09
-2.38915e-12
-6.14023e-10
-4.27807e-09
3.00238e-10
-8.08448e-10
-2.1474e-09
4.11535e-10
-6.80683e-10
1.26577e-10
-2.18126e-10
-3.80397e-10
2.09491e-09
-1.75286e-09
-8.01267e-11
2.88118e-09
-3.47382e-09
8.90516e-11
8.20025e-11
-4.21244e-09
4.30072e-10
-7.28842e-09
-1.24506e-08
3.48936e-09
-4.67351e-09
-4.308e-08
8.51363e-09
3.43756e-08
1.76409e-08
1.90206e-09
-2.70231e-09
1.90206e-09
-1.31128e-09
-2.87153e-10
8.00529e-10
-3.40177e-09
5.13162e-10
5.40934e-10
-4.89836e-09
4.56541e-10
1.02756e-10
-6.03742e-09
-4.44e-11
-2.39334e-10
-6.66364e-09
-9.67921e-10
-6.08124e-10
-6.57505e-09
-2.06959e-09
-1.03928e-09
-5.63156e-09
-3.12995e-09
-1.39538e-09
-3.89954e-09
-3.98113e-09
-1.57171e-09
-1.50427e-09
-4.4153e-09
-1.53347e-09
1.27112e-09
-4.39359e-09
-1.30235e-09
3.93569e-09
-3.89196e-09
-8.88089e-10
5.94466e-09
-2.8977e-09
-3.60584e-10
6.80008e-09
-1.48407e-09
7.92921e-11
6.29022e-09
1.69998e-10
2.57316e-10
4.47084e-09
1.81996e-09
1.47479e-10
1.76651e-09
2.99538e-09
-1.38686e-10
-1.06228e-09
3.47888e-09
-6.26382e-10
-3.23468e-09
3.14315e-09
-1.1111e-09
-4.07168e-09
2.18118e-09
-1.50169e-09
-3.24586e-09
9.3753e-10
-1.75397e-09
-9.84175e-10
-1.25571e-10
-1.82348e-09
2.10922e-09
-1.01495e-09
-1.65388e-09
5.08201e-09
-1.91139e-09
-1.26589e-09
7.14233e-09
-3.00819e-09
-7.90834e-10
8.92413e-09
-4.46995e-09
-7.71035e-10
1.16152e-08
-3.98811e-09
-2.90036e-09
3.25137e-09
-8.00967e-10
-3.27038e-09
-1.08727e-08
-2.60928e-08
-2.84736e-09
1.58683e-08
7.64775e-09
1.54278e-09
-5.78061e-09
1.54278e-09
-1.46055e-09
2.10844e-09
6.22833e-10
-3.3771e-09
2.00882e-09
4.3443e-10
-4.78132e-09
1.78359e-09
9.06712e-11
-5.92848e-09
1.27794e-09
-1.61709e-10
-6.72925e-09
2.54737e-10
-4.08596e-10
-7.04373e-09
-1.04626e-09
-6.95845e-10
-6.79299e-09
-2.49374e-09
-8.74315e-10
-5.91874e-09
-3.77209e-09
-1.07105e-09
-4.42014e-09
-4.78696e-09
-1.11509e-09
-2.49045e-09
-5.24536e-09
-1.06641e-09
-4.41819e-10
-4.98539e-09
-9.43993e-10
1.40802e-09
-3.89268e-09
-8.4389e-10
2.70132e-09
-1.9752e-09
-7.91389e-10
3.28216e-09
4.43838e-10
-8.44054e-10
2.97947e-09
3.11054e-09
-9.77325e-10
1.9697e-09
5.13282e-09
-1.11705e-09
7.20119e-10
5.99303e-09
-1.25373e-09
-1.55625e-10
5.4497e-09
-1.41957e-09
-1.80842e-10
3.79798e-09
-1.57981e-09
8.00647e-10
1.67509e-09
-1.70666e-09
2.76856e-09
-2.84481e-10
-1.79598e-09
5.25559e-09
-1.66946e-09
-1.81889e-09
7.52453e-09
-2.4555e-09
-1.71066e-09
8.66575e-09
-2.7669e-09
-1.36782e-09
8.34195e-09
-3.49886e-09
-6.32112e-10
8.96159e-09
-3.94799e-09
-6.44113e-10
5.94889e-09
3.92308e-09
-1.69528e-09
-6.48582e-09
-9.41892e-09
-4.22282e-09
9.45301e-09
-5.67424e-11
7.18134e-10
-7.20843e-09
7.18133e-10
-8.78624e-10
3.48556e-09
2.37069e-10
-1.7961e-09
2.69923e-09
2.42771e-10
-2.43848e-09
2.25364e-09
1.87885e-10
-3.06861e-09
1.73324e-09
1.90193e-10
-3.72478e-09
7.40838e-10
1.85032e-10
-4.36492e-09
-5.83328e-10
1.91689e-10
-5.01254e-09
-2.06905e-09
2.36867e-10
-5.58696e-09
-3.45482e-09
2.70554e-10
-5.88627e-09
-4.63296e-09
1.58213e-10
-5.79268e-09
-5.34401e-09
1.75065e-11
-5.19879e-09
-5.38276e-09
-1.84471e-10
-4.07099e-09
-4.58392e-09
-4.24871e-10
-2.51108e-09
-2.84472e-09
-6.79055e-10
-7.46259e-10
-4.62284e-10
-8.47581e-10
9.14205e-10
2.37372e-09
-9.12603e-10
2.23135e-09
4.65133e-09
-8.24501e-10
3.10909e-09
5.77819e-09
-6.51411e-10
3.66024e-09
5.40905e-09
-4.98537e-10
4.07565e-09
3.83233e-09
-4.37214e-10
4.64515e-09
1.63589e-09
-5.17178e-10
5.51378e-09
-4.328e-10
-7.06638e-10
6.53734e-09
-1.75955e-09
-9.19286e-10
7.4442e-09
-2.24171e-09
-1.10599e-09
7.74467e-09
-1.73691e-09
-1.31531e-09
5.99221e-09
-4.27973e-10
-1.30278e-09
3.10481e-09
5.20013e-11
-1.09651e-09
2.25449e-09
7.07041e-09
-2.2806e-09
-4.14118e-09
2.05165e-09
-5.05834e-09
8.29531e-09
-2.96983e-09
-6.38054e-10
-5.92245e-09
-6.38056e-10
-3.75038e-11
3.38969e-09
-4.85076e-10
7.36431e-10
2.17981e-09
-2.36874e-10
1.43951e-09
1.61761e-09
-4.97683e-11
1.8203e-09
1.1134e-09
2.55926e-10
1.62489e-09
3.59056e-10
5.93478e-10
7.16564e-10
-5.74911e-10
9.15554e-10
-8.5194e-10
-1.65993e-09
1.17441e-09
-2.91084e-09
-2.71706e-09
1.3356e-09
-5.17063e-09
-3.67313e-09
1.31389e-09
-7.17571e-09
-4.43145e-09
1.10596e-09
-8.32937e-09
-4.89912e-09
6.8299e-10
-8.20281e-09
-4.86367e-09
1.65706e-10
-6.76131e-09
-4.06717e-09
-2.06903e-10
-4.32833e-09
-2.53471e-09
-3.48638e-10
-1.22644e-09
-5.05476e-10
-2.10804e-10
1.83874e-09
1.49064e-09
1.07596e-10
4.41531e-09
2.7569e-09
4.57174e-10
6.12064e-09
2.89409e-09
8.22517e-10
6.9506e-09
1.95173e-09
1.06396e-09
7.11896e-09
3.25677e-10
1.1556e-09
6.82138e-09
-1.16486e-09
1.04374e-09
6.25592e-09
-2.04612e-09
8.66499e-10
5.26618e-09
-1.93783e-09
7.00731e-10
3.87487e-09
-6.60883e-10
3.30544e-10
1.74931e-09
2.18586e-09
-4.72666e-10
-1.55787e-09
4.524e-09
-1.14897e-09
-2.08658e-09
9.92417e-09
-2.30913e-09
-3.89935e-09
7.80951e-09
-3.92927e-09
6.62641e-09
-2.21765e-09
-2.26965e-09
-1.372e-09
-2.26966e-09
6.55493e-10
1.9807e-09
-1.49521e-09
3.2359e-09
8.26898e-10
-1.20877e-09
5.39576e-09
3.17414e-10
-8.41465e-10
6.86187e-09
-1.57484e-11
-3.19327e-10
7.29412e-09
-2.44028e-10
1.87842e-10
6.41405e-09
-3.74152e-10
6.95718e-10
4.25052e-09
-5.3369e-10
1.05319e-09
1.0894e-09
-7.88449e-10
1.24795e-09
-2.55297e-09
-1.23732e-09
1.22157e-09
-5.9991e-09
-1.97382e-09
1.00307e-09
-8.49505e-09
-3.04899e-09
6.59937e-10
-9.51907e-09
-4.16839e-09
3.42431e-10
-8.82626e-09
-4.8554e-09
1.08754e-10
-6.57262e-09
-4.84183e-09
6.66433e-11
-3.28539e-09
-4.06154e-09
2.82022e-10
3.78455e-10
-2.79443e-09
6.34586e-10
3.77114e-09
-1.65687e-09
1.0347e-09
6.26995e-09
-1.07142e-09
1.48055e-09
7.57467e-09
-1.214e-09
1.87506e-09
7.72379e-09
-1.96375e-09
2.15453e-09
6.97733e-09
-2.7592e-09
2.3552e-09
5.44477e-09
-2.93327e-09
2.43431e-09
3.12082e-09
-1.92514e-09
2.32607e-09
1.97688e-10
3.31627e-10
1.94558e-09
-2.26914e-09
3.67549e-09
9.92176e-10
-4.69339e-09
6.93682e-09
2.63085e-11
-3.59751e-09
9.3799e-09
-5.36904e-10
-2.42088e-09
7.23441e-09
-5.86987e-10
3.24168e-09
9.75629e-10
-3.25242e-09
5.14463e-09
-3.25242e-09
1.49622e-09
-5.71668e-10
-2.1752e-09
5.24663e-09
-9.95097e-10
-1.90971e-09
8.27343e-09
-1.2836e-09
-1.40765e-09
1.03137e-08
-1.1504e-09
-8.88005e-10
1.1061e-08
-5.9767e-10
-3.76441e-10
1.02868e-08
3.69678e-10
4.71842e-11
8.10991e-09
1.41273e-09
2.47e-10
4.8191e-09
2.18828e-09
3.30441e-10
9.68977e-10
2.31084e-09
3.18072e-10
-2.75533e-09
1.53542e-09
2.30872e-10
-5.75062e-09
-1.47369e-10
1.09159e-10
-7.5618e-09
-2.41403e-09
7.20085e-11
-7.98308e-09
-4.55554e-09
1.36405e-10
-7.01935e-09
-6.05738e-09
2.66708e-10
-4.90363e-09
-6.59295e-09
4.30612e-10
-2.07447e-09
-6.24988e-09
6.41277e-10
9.36135e-10
-5.52257e-09
8.70109e-10
3.61936e-09
-4.89681e-09
1.15716e-09
5.5124e-09
-4.61602e-09
1.52393e-09
6.28999e-09
-4.554e-09
1.82758e-09
5.78737e-09
-4.36394e-09
2.12229e-09
4.07618e-09
-3.49281e-09
2.28563e-09
1.45441e-09
-1.43167e-09
2.14307e-09
-1.46536e-09
1.51875e-09
1.74717e-09
-3.4213e-09
4.57147e-09
1.07412e-09
-3.92348e-09
6.56174e-09
8.91088e-10
-1.77169e-09
5.92392e-09
1.31783e-09
4.89067e-11
3.0653e-09
2.36215e-09
7.25179e-10
2.57674e-09
-3.0112e-09
1.11787e-08
-3.0112e-09
2.24205e-09
-4.0659e-09
-1.7389e-09
6.09402e-09
-3.46441e-09
-1.36482e-09
9.03845e-09
-3.38204e-09
-8.28564e-10
1.08332e-08
-2.55183e-09
-3.76229e-10
1.13054e-08
-9.96822e-10
-5.59849e-11
1.06015e-08
1.04324e-09
4.7323e-11
8.87465e-09
3.12909e-09
2.75739e-11
6.46692e-09
4.7049e-09
-9.1752e-11
3.71936e-09
5.25478e-09
-1.79222e-10
9.4037e-10
4.4325e-09
-1.00986e-10
-1.62094e-09
2.32471e-09
1.06292e-10
-3.82745e-09
-5.6724e-10
3.76749e-10
-5.50499e-09
-3.46707e-09
6.06119e-10
-6.44495e-09
-5.81482e-09
7.14493e-10
-6.45608e-09
-7.25337e-09
6.88642e-10
-5.37168e-09
-7.8259e-09
5.08621e-10
-3.34605e-09
-7.84714e-09
3.15783e-10
-8.77216e-10
-7.59642e-09
2.47413e-10
1.36011e-09
-7.13914e-09
3.02224e-10
2.80688e-09
-6.44167e-09
4.57121e-10
2.97489e-09
-5.10755e-09
5.91557e-10
1.95026e-09
-2.89828e-09
4.4564e-10
3.4001e-10
1.3269e-10
6.0846e-11
-1.06545e-09
3.31009e-09
-3.71605e-10
-1.25871e-09
5.21445e-09
-4.35975e-10
1.38587e-11
5.06258e-09
2.40033e-10
1.64302e-09
3.17044e-09
1.13776e-09
1.36241e-09
1.71228e-09
1.64725e-09
1.48705e-09
6.11998e-10
-6.45809e-10
1.24813e-08
-6.4581e-10
3.11307e-09
-8.38667e-09
5.80563e-10
5.34186e-09
-6.48331e-09
8.06756e-10
6.63935e-09
-5.70575e-09
1.04271e-09
7.05789e-09
-4.16288e-09
1.20909e-09
6.76146e-09
-1.84492e-09
1.1613e-09
6.11695e-09
8.0959e-10
8.95301e-10
5.41032e-09
3.39324e-09
4.59949e-10
4.80169e-09
5.21625e-09
1.15087e-10
4.17404e-09
5.90176e-09
-1.19945e-12
3.29118e-09
5.20416e-09
1.29643e-10
1.83561e-09
3.34073e-09
4.58376e-10
-3.30648e-10
8.42584e-10
7.75649e-10
-3.00448e-09
-1.65168e-09
8.77969e-10
-5.64821e-09
-3.88122e-09
7.29833e-10
-7.57574e-09
-5.62771e-09
3.21577e-10
-8.22407e-09
-6.92522e-09
-2.32817e-10
-7.43715e-09
-7.87278e-09
-7.42028e-10
-5.5572e-09
-8.40788e-09
-1.04959e-09
-3.3092e-09
-8.22792e-09
-1.14072e-09
-1.48884e-09
-7.08987e-09
-1.15419e-09
-5.1199e-10
-4.86203e-09
-1.20513e-09
-2.29978e-10
-1.72846e-09
-1.43554e-09
4.63236e-11
1.48356e-09
-1.61189e-09
7.95317e-10
4.05416e-09
-1.47863e-09
2.24525e-09
4.76709e-09
-9.88635e-10
3.6773e-09
3.87912e-09
-2.34757e-10
3.5201e-09
3.21526e-09
1.26291e-10
1.44071e-09
4.23713e-09
-4.31457e-10
4.02889e-09
-1.08958e-09
3.01529e-09
6.46077e-09
3.01529e-09
2.90002e-09
-1.18468e-08
3.59281e-09
2.01193e-09
-9.54287e-09
3.96333e-09
4.6833e-10
-7.81918e-09
3.67282e-09
-1.11566e-09
-5.668e-09
3.10533e-09
-2.24197e-09
-2.90722e-09
2.20529e-09
-2.54868e-09
-3.17203e-12
1.13676e-09
-1.70877e-09
2.33481e-09
2.36363e-10
-4.02557e-11
3.89789e-09
-3.31637e-10
1.87666e-09
4.50055e-09
-4.96486e-10
3.20387e-09
4.24859e-09
-3.5162e-10
3.2079e-09
3.53991e-09
-1.82323e-10
1.6568e-09
2.54237e-09
-1.27002e-10
-1.13911e-09
1.45427e-09
-2.87771e-10
-4.44258e-09
1.71078e-10
-7.26272e-10
-7.26961e-09
-1.46395e-09
-1.31417e-09
-8.90136e-09
-3.40587e-09
-1.86526e-09
-9.05093e-09
-5.41676e-09
-2.28449e-09
-7.93974e-09
-6.98845e-09
-2.50923e-09
-6.1895e-09
-7.47582e-09
-2.48173e-09
-4.3854e-09
-6.53938e-09
-2.33508e-09
-2.74853e-09
-4.28744e-09
-2.19327e-09
-1.09419e-09
-1.408e-09
-1.95801e-09
9.38002e-10
1.06209e-09
-1.59512e-09
3.31745e-09
2.56616e-09
-8.76591e-10
5.26993e-09
2.8745e-09
-4.53452e-11
5.61617e-09
3.06258e-09
4.84715e-10
3.87906e-09
4.61525e-09
3.51387e-10
1.51793e-09
6.82902e-09
-2.16724e-10
5.27189e-09
2.86217e-10
6.3144e-09
-6.15871e-09
6.3144e-09
1.08302e-09
-1.21449e-08
5.54621e-09
-3.61531e-09
-9.5645e-09
4.73518e-09
-7.70253e-09
-7.1995e-09
3.48305e-09
-1.09027e-08
-4.49627e-09
2.04468e-09
-1.24653e-08
-1.76575e-09
4.37889e-10
-1.20365e-08
3.66904e-10
-7.81157e-10
-9.64772e-09
1.70839e-09
-1.74395e-09
-5.87348e-09
2.47396e-09
-2.33084e-09
-1.7942e-09
2.87548e-09
-2.43362e-09
1.33388e-09
3.44957e-09
-2.30724e-09
2.71703e-09
4.40278e-09
-2.22294e-09
2.196e-09
5.46567e-09
-2.37813e-09
2.31749e-10
6.18365e-09
-2.7403e-09
-2.34862e-09
5.95553e-09
-3.17895e-09
-4.7258e-09
4.47354e-09
-3.53521e-09
-6.31141e-09
1.91592e-09
-3.71139e-09
-6.92723e-09
-1.08438e-09
-3.69235e-09
-6.74832e-09
-3.68051e-09
-3.46361e-09
-6.01399e-09
-5.02149e-09
-3.16676e-09
-4.81963e-09
-4.87541e-09
-2.83811e-09
-3.03437e-09
-3.61976e-09
-2.43446e-09
-5.53886e-10
-1.99991e-09
-1.87159e-09
2.29926e-09
-7.00512e-10
-1.07458e-09
4.95686e-09
4.23817e-11
-1.18422e-10
6.24212e-09
8.74439e-10
7.29813e-10
5.48897e-09
2.75574e-09
1.07455e-09
3.61372e-09
5.52372e-09
9.80805e-10
1.97242e-09
7.23015e-09
1.25382e-09
5.58034e-09
1.67498e-09
5.86883e-09
-1.78874e-08
5.86883e-09
-3.22711e-09
-5.71543e-09
2.68308e-09
-1.03871e-08
-3.71788e-09
1.32865e-09
-1.56624e-08
-1.48591e-09
-4.22564e-10
-1.90312e-08
6.81508e-10
-1.79237e-09
-1.9951e-08
2.2512e-09
-3.07977e-09
-1.81758e-08
2.61809e-09
-4.00799e-09
-1.42497e-08
2.10305e-09
-4.30134e-09
-9.20716e-09
1.60672e-09
-4.1545e-09
-4.27213e-09
1.86932e-09
-3.90667e-09
-5.43811e-10
3.43582e-09
-3.69094e-09
1.62771e-09
5.96998e-09
-3.71376e-09
2.21992e-09
8.83326e-09
-3.93384e-09
1.76799e-09
1.09002e-08
-4.23802e-09
8.42132e-10
1.1313e-08
-4.40481e-09
-2.26232e-10
9.88034e-09
-4.31174e-09
-1.26858e-09
6.97614e-09
-3.99164e-09
-2.29072e-09
3.45582e-09
-3.49274e-09
-3.30277e-09
3.96219e-10
-3.04077e-09
-4.0136e-09
-1.54137e-09
-2.74719e-09
-3.95425e-09
-2.33283e-09
-2.58175e-09
-2.78858e-09
-2.38416e-09
-2.38276e-09
-5.90659e-10
-2.11875e-09
-2.0618e-09
2.00472e-09
-1.64741e-09
-1.632e-09
3.86024e-09
-5.46119e-10
-1.25121e-09
4.2501e-09
1.56797e-09
-1.06835e-09
3.44547e-09
4.91925e-09
-1.34472e-09
2.52106e-09
7.78161e-09
-1.32001e-09
1.25761e-09
9.17556e-09
-6.68815e-10
8.5048e-09
-1.65604e-09
1.02314e-09
-1.99247e-08
1.02314e-09
-8.51532e-09
6.12772e-09
-2.28751e-09
-1.52904e-08
6.52231e-09
-3.44923e-09
-1.95554e-08
7.59219e-09
-4.79659e-09
-2.1424e-08
8.02532e-09
-5.4579e-09
-2.07063e-08
7.00941e-09
-5.4576e-09
-1.76774e-08
4.64374e-09
-5.0351e-09
-1.32522e-08
2.02733e-09
-4.32874e-09
-8.67581e-09
5.58868e-10
-3.50636e-09
-4.71252e-09
8.77753e-10
-2.94811e-09
-1.71307e-09
3.25652e-09
-2.79526e-09
4.80536e-10
6.80707e-09
-3.00471e-09
2.172e-09
1.04805e-08
-3.31189e-09
3.5378e-09
1.2976e-08
-3.4144e-09
4.5221e-09
1.35285e-08
-3.17249e-09
4.83568e-09
1.22158e-08
-2.62191e-09
4.11562e-09
9.63289e-09
-1.9102e-09
2.36333e-09
6.5143e-09
-1.28088e-09
-9.11587e-12
3.79492e-09
-1.00259e-09
-2.2258e-09
1.78388e-09
-1.08673e-09
-3.45588e-09
2.7142e-10
-1.354e-09
-3.39397e-09
-6.77609e-10
-1.74956e-09
-2.26042e-09
-1.11866e-09
-2.11571e-09
-8.87334e-10
-5.27498e-10
-2.47596e-09
5.87249e-11
1.53273e-09
-3.00896e-09
1.56062e-10
5.19846e-09
-3.71315e-09
6.2949e-11
9.25065e-09
-4.22469e-09
-1.46728e-10
1.20695e-08
-4.06535e-09
-6.35031e-10
1.39405e-08
-4.26416e-09
1.24229e-08
-4.54302e-09
-4.26011e-09
-1.1395e-08
-4.26012e-09
-1.11219e-08
1.95767e-08
-6.56904e-09
-1.51064e-08
1.69231e-08
-6.39931e-09
-1.68252e-08
1.55884e-08
-6.2599e-09
-1.63364e-08
1.30749e-08
-5.52005e-09
-1.40662e-08
9.11465e-09
-4.35606e-09
-1.10043e-08
4.57202e-09
-2.96959e-09
-8.13246e-09
9.04945e-10
-1.72752e-09
-5.83918e-09
-8.46184e-10
-8.64941e-10
-4.24715e-09
-7.76663e-11
-6.12139e-10
-2.81012e-09
2.75478e-09
-9.0985e-10
-9.0005e-10
6.39723e-09
-1.47404e-09
1.66383e-09
9.81512e-09
-1.87179e-09
4.58552e-09
1.18499e-08
-1.76843e-09
7.00777e-09
1.23239e-08
-1.19033e-09
8.07438e-09
1.15029e-08
-3.26759e-10
7.38225e-09
9.90533e-09
4.4584e-10
5.04273e-09
8.03849e-09
8.40199e-10
1.82984e-09
6.21671e-09
8.14455e-10
-1.11094e-09
4.27701e-09
4.69587e-10
-2.98488e-09
2.16299e-09
3.1386e-12
-3.61778e-09
3.68214e-10
-3.93102e-10
-3.51755e-09
-4.66405e-10
-7.33695e-10
-3.48423e-09
6.45013e-10
-1.18839e-09
-3.78274e-09
3.724e-09
-1.87694e-09
-3.98233e-09
7.86706e-09
-2.45472e-09
-3.53246e-09
1.1394e-08
-2.58008e-09
-2.79083e-09
1.38283e-08
-2.48821e-09
-1.23973e-09
1.52045e-08
-2.80392e-09
1.14698e-08
-2.78023e-10
-6.68154e-09
1.97808e-09
-6.68154e-09
-8.95156e-09
2.81479e-08
-6.28179e-09
-9.43229e-09
2.28469e-08
-5.42519e-09
-8.545e-09
1.90529e-08
-4.33335e-09
-6.69449e-09
1.41076e-08
-2.86383e-09
-4.61938e-09
8.40764e-09
-1.34782e-09
-3.20103e-09
3.28501e-09
-1.09797e-10
-3.00412e-09
1.93307e-10
5.37516e-10
-3.65147e-09
-7.64659e-10
5.89787e-10
-4.34631e-09
7.09451e-10
-6.73809e-11
-3.97679e-09
3.36791e-09
-9.57026e-10
-2.07388e-09
6.10172e-09
-1.5812e-09
1.23005e-09
8.12935e-09
-1.59143e-09
4.89325e-09
9.27007e-09
-1.05628e-09
7.67522e-09
9.73279e-09
-1.63725e-10
8.70572e-09
9.87431e-09
6.24886e-10
7.76222e-09
9.78663e-09
1.08811e-09
5.43506e-09
9.24387e-09
1.14656e-09
2.75741e-09
7.89877e-09
1.0193e-09
6.74396e-10
5.52208e-09
8.60774e-10
-5.64976e-10
2.57639e-09
8.48003e-10
-1.32997e-09
5.78382e-11
1.09639e-09
-2.28157e-09
-9.30632e-10
1.43543e-09
-3.56186e-09
3.62785e-10
1.58031e-09
-4.76406e-09
3.39282e-09
1.54933e-09
-4.92401e-09
6.3121e-09
1.72922e-09
-3.921e-09
8.16262e-09
2.2412e-09
-2.16162e-09
9.03785e-09
3.04242e-09
4.10468e-10
8.41667e-09
4.22556e-09
5.11407e-09
6.77365e-09
-5.33979e-09
1.26684e-08
-5.33979e-09
-3.78822e-09
3.0458e-08
-3.84133e-09
-2.34597e-09
2.42901e-08
-2.86677e-09
-5.51897e-10
1.91074e-08
-1.82952e-09
1.11017e-09
1.33138e-08
-8.48283e-10
1.88839e-09
7.80793e-09
-1.57605e-10
1.34824e-09
3.7963e-09
5.10384e-11
-4.66961e-10
2.20081e-09
-1.68862e-10
-2.6106e-09
2.25622e-09
-8.5269e-10
-3.91692e-09
3.53384e-09
-1.49263e-09
-3.54894e-09
4.88305e-09
-1.85697e-09
-1.30012e-09
5.52496e-09
-1.64526e-09
1.9139e-09
5.84948e-09
-9.06809e-10
4.82448e-09
6.23296e-09
1.54196e-10
6.51071e-09
7.21078e-09
8.63371e-10
6.69492e-09
8.56711e-09
1.15003e-09
5.75195e-09
9.77442e-09
9.81441e-10
4.50234e-09
9.85709e-09
6.61895e-10
3.63553e-09
8.34889e-09
4.41657e-10
3.27406e-09
5.40249e-09
5.05491e-10
2.93072e-09
2.07474e-09
8.68633e-10
1.85161e-09
-1.5507e-10
1.31434e-09
-1.03624e-10
-5.01395e-10
1.54655e-09
-2.13207e-09
8.41299e-10
1.56855e-09
-3.16928e-09
2.746e-09
1.7008e-09
-2.55886e-09
3.40943e-09
2.30722e-09
-8.52513e-10
3.09586e-09
3.37342e-09
1.28064e-09
2.44319e-09
4.47261e-09
2.16655e-09
1.7381e-09
5.80246e-09
3.7531e-09
3.53543e-09
-3.23985e-09
1.91593e-08
-3.23985e-09
-2.74149e-10
2.95035e-08
-1.9906e-09
1.90292e-09
2.39181e-08
-1.7862e-09
3.52145e-09
1.89541e-08
-1.44603e-09
4.54443e-09
1.35323e-08
-1.22125e-09
4.41426e-09
9.02171e-09
-1.06219e-09
3.11169e-09
6.17141e-09
-1.04971e-09
1.3028e-09
5.1275e-09
-1.09353e-09
-3.30334e-10
5.01114e-09
-1.0963e-09
-9.21906e-10
4.9786e-09
-8.26675e-10
-2.11675e-10
4.241e-09
-4.07684e-11
1.43556e-09
2.93981e-09
9.66052e-10
2.91107e-09
2.42787e-09
1.97473e-09
3.35668e-09
2.91904e-09
2.89703e-09
2.92208e-09
4.87737e-09
2.79643e-09
2.1925e-09
7.33903e-09
1.98554e-09
1.9868e-09
9.0356e-09
9.71895e-10
2.56066e-09
8.91842e-09
3.91892e-10
3.6387e-09
7.13584e-09
1.61876e-10
4.32845e-09
4.57134e-09
1.67763e-10
3.65634e-09
2.58303e-09
1.89137e-10
1.60542e-09
2.04494e-09
-1.25375e-10
-9.80334e-10
2.98323e-09
-8.76968e-10
-2.70147e-09
4.48878e-09
-1.90629e-09
-2.55393e-09
4.69467e-09
-2.07805e-09
-1.09949e-09
3.61015e-09
-1.6391e-09
3.79064e-10
2.95774e-09
-1.32653e-09
6.85335e-10
3.79362e-09
-1.64439e-09
-6.39209e-10
6.28923e-09
-3.21493e-09
9.99501e-09
-6.87106e-09
-2.33414e-09
2.38389e-08
-2.33414e-09
8.46536e-10
2.81795e-08
-1.83622e-09
3.17466e-09
2.3517e-08
-1.90821e-09
4.96458e-09
1.87335e-08
-1.55009e-09
6.06334e-09
1.34968e-08
-1.04261e-09
6.24346e-09
9.25788e-09
-3.94092e-10
5.47846e-09
6.72968e-09
2.30531e-10
4.54324e-09
5.35513e-09
7.3306e-10
3.95523e-09
4.2503e-09
1.37571e-09
4.01867e-09
2.64567e-09
2.29758e-09
4.09211e-09
7.39995e-10
3.45675e-09
3.40389e-09
-1.02992e-09
4.68784e-09
1.45914e-09
-7.22214e-10
5.12498e-09
-1.0556e-09
1.28136e-09
4.18237e-09
-3.15953e-09
4.35491e-09
2.65589e-09
-3.6395e-09
6.90508e-09
9.43032e-10
-2.2894e-09
7.85393e-09
-1.39485e-10
1.48583e-10
7.06592e-09
-5.56531e-10
2.16957e-09
5.67115e-09
-5.27584e-10
2.47449e-09
4.79047e-09
-4.9613e-10
8.2499e-10
5.14166e-09
-8.82566e-10
-1.91505e-09
6.83006e-09
-2.02019e-09
-4.07174e-09
8.44987e-09
-3.28679e-09
-4.14922e-09
8.34643e-09
-3.75882e-09
-2.38001e-09
6.44745e-09
-3.50268e-09
-8.51265e-10
5.3215e-09
-3.22288e-09
-5.57853e-10
6.57962e-09
-3.89974e-09
-1.80463e-09
1.05137e-08
-5.45862e-09
-3.48452e-09
1.59528e-08
-7.96934e-09
1.37658e-08
-7.24293e-09
-1.89138e-09
2.76328e-08
-1.89138e-09
1.70794e-09
2.57267e-08
-1.12624e-09
4.4179e-09
2.14252e-08
-5.99321e-10
6.50215e-09
1.62455e-08
4.23564e-10
7.80677e-09
1.09255e-08
1.28823e-09
8.08415e-09
6.9964e-09
2.00748e-09
7.89584e-09
4.39445e-09
2.54868e-09
7.61887e-09
2.58924e-09
3.06984e-09
7.37414e-09
6.10047e-10
3.91348e-09
6.62736e-09
-1.21724e-09
4.63954e-09
4.62916e-09
-2.4336e-09
5.20276e-09
1.00106e-09
-2.04515e-09
4.67482e-09
-3.39854e-09
6.11912e-10
3.09687e-09
-6.91726e-09
3.87587e-09
9.55176e-10
-8.56914e-09
7.05482e-09
-1.01752e-09
-7.40712e-09
7.74953e-09
-1.97614e-09
-4.24563e-09
6.77298e-09
-2.05023e-09
-1.15903e-09
5.59676e-09
-1.58729e-09
7.59895e-11
5.52109e-09
-1.05544e-09
-9.08985e-10
7.04225e-09
-1.23848e-09
-3.11363e-09
9.53509e-09
-2.16199e-09
-4.8079e-09
1.16296e-08
-3.08003e-09
-4.45716e-09
1.12083e-08
-3.0856e-09
-2.30017e-09
8.32595e-09
-2.1148e-09
-4.1546e-10
5.36041e-09
-7.77881e-10
-2.8735e-10
5.62494e-09
-4.13354e-10
-1.52202e-09
9.12622e-09
-1.29465e-09
-2.61408e-09
1.39316e-08
-2.30906e-09
-1.48676e-09
1.7547e-08
-2.70531e-09
1.21922e-08
1.00273e-10
2.36357e-11
2.75965e-08
2.36302e-11
3.7932e-09
2.0648e-08
1.32984e-09
6.35405e-09
1.68343e-08
2.04963e-09
7.94583e-09
1.18131e-08
2.86169e-09
8.26967e-09
7.08389e-09
3.54047e-09
7.74487e-09
3.65616e-09
3.88991e-09
7.14207e-09
1.21217e-09
3.81175e-09
6.67851e-09
-4.97464e-10
3.57873e-09
5.8342e-09
-1.87032e-09
3.35463e-09
3.99781e-09
-2.34873e-09
2.99917e-09
4.57006e-10
-1.0186e-09
2.15802e-09
-4.12492e-09
2.00078e-09
5.68413e-10
-8.36234e-09
6.09797e-09
-1.21658e-09
-1.04145e-08
8.52381e-09
-2.56428e-09
-9.38335e-09
8.74711e-09
-2.69232e-09
-6.13849e-09
6.65749e-09
-2.12182e-09
-2.80988e-09
4.42181e-09
-9.46657e-10
-1.45538e-09
4.26144e-09
1.09908e-11
-2.40883e-09
6.49429e-09
9.28797e-12
-4.5285e-09
1.02994e-08
-1.1099e-09
-5.7402e-09
1.30291e-08
-2.25624e-09
-4.56737e-09
1.2828e-08
-2.34661e-09
-1.35962e-09
9.11398e-09
-1.09034e-09
1.5131e-09
4.70443e-09
7.70285e-10
1.94732e-09
3.24295e-09
1.70332e-09
3.68116e-10
5.84635e-09
1.37694e-09
-1.12132e-09
9.80083e-09
8.33324e-10
-9.51412e-10
1.2368e-08
1.41138e-09
7.8501e-10
1.30769e-08
2.75045e-09
1.03243e-08
2.66603e-09
2.50397e-09
2.25999e-08
2.50396e-09
5.53265e-09
1.38598e-08
3.78148e-09
6.89217e-09
1.1087e-08
4.40859e-09
6.76001e-09
7.45495e-09
4.51278e-09
5.42183e-09
4.40301e-09
4.04315e-09
3.98648e-09
1.95568e-09
3.16204e-09
2.83203e-09
1.83053e-10
2.21143e-09
2.15944e-09
-1.34058e-09
1.5452e-09
1.17323e-09
-1.98395e-09
1.13066e-09
-8.9365e-10
-9.94927e-10
7.45017e-10
-4.12724e-09
2.26236e-09
-1.48136e-11
-7.39068e-09
6.34723e-09
-1.05051e-09
-8.92537e-09
9.04216e-09
-1.37745e-09
-7.95137e-09
8.60682e-09
-1.02535e-09
-4.90657e-09
5.52374e-09
2.1002e-10
-1.96533e-09
2.00493e-09
1.74257e-09
-1.21958e-09
6.16391e-10
3.09036e-09
-2.93193e-09
3.07208e-09
2.93135e-09
-5.6577e-09
7.90232e-09
1.34602e-09
-7.14389e-09
1.21882e-08
-3.75744e-10
-5.76351e-09
1.25109e-08
-8.36623e-10
-1.86171e-09
8.77653e-09
1.73854e-10
1.91624e-09
3.69014e-09
1.66875e-09
2.82232e-09
1.2579e-09
2.56212e-09
1.06165e-09
3.14102e-09
1.88339e-09
-7.84201e-10
7.27269e-09
4.39566e-10
-1.20486e-09
9.85487e-09
3.85703e-10
-3.7927e-10
1.03337e-08
1.2266e-09
4.60464e-10
1.11926e-08
1.06123e-09
1.0339e-08
4.58549e-10
4.2937e-09
1.40245e-08
4.29369e-09
5.03883e-09
8.55829e-09
4.57961e-09
4.87616e-09
7.03243e-09
4.23917e-09
3.2817e-09
5.50325e-09
3.56978e-09
1.21222e-09
3.89915e-09
2.59825e-09
-6.58951e-10
2.25586e-09
1.59785e-09
-1.57828e-09
1.30264e-10
1.00046e-09
-2.03488e-09
-1.79318e-09
9.38923e-10
-2.89766e-09
-2.1465e-09
1.05616e-09
-4.74092e-09
-5.17616e-11
9.31786e-10
-6.71257e-09
3.67558e-09
5.905e-10
-7.46928e-09
6.81075e-09
3.25235e-10
-6.03107e-09
6.92401e-09
7.11899e-10
-2.78609e-09
3.58627e-09
1.8076e-09
-1.66401e-11
-4.24631e-10
3.21107e-09
5.0783e-10
-2.58801e-09
4.10039e-09
-1.85877e-09
-4.40986e-10
3.45514e-09
-5.11254e-09
4.71587e-09
1.63996e-09
-6.97806e-09
9.84199e-09
-4.55286e-11
-5.60926e-09
1.09981e-08
-1.51347e-10
-1.66457e-09
7.26038e-09
1.33182e-09
2.16805e-09
2.117e-09
2.8516e-09
2.83357e-09
-1.20019e-09
4.24835e-09
4.39474e-10
2.0614e-10
3.46847e-09
-2.18237e-09
4.01613e-09
1.76854e-09
-3.14249e-09
7.0427e-09
1.21088e-09
-3.03486e-09
8.61474e-09
1.15189e-09
-2.23986e-09
8.91864e-09
6.38006e-10
-4.59066e-10
8.42415e-09
1.00448e-09
6.46527e-09
3.42824e-09
4.04593e-09
5.94536e-09
4.04592e-09
3.18027e-09
5.78566e-09
3.66231e-09
1.98903e-09
5.03469e-09
3.21131e-09
7.80504e-11
4.89557e-09
2.54246e-09
-2.00895e-09
4.23151e-09
1.77947e-09
-3.47679e-09
2.4025e-09
1.34781e-09
-4.25731e-09
-3.50299e-10
1.28906e-09
-5.27177e-09
-2.21883e-09
1.46927e-09
-6.84492e-09
-1.83175e-09
1.28853e-09
-8.46522e-09
7.42921e-10
8.56532e-10
-8.86216e-09
4.00549e-09
9.84617e-11
-7.08979e-09
5.13928e-09
-6.89169e-11
-3.58306e-09
2.86156e-09
5.88439e-10
-3.41556e-10
-1.02958e-09
1.40787e-09
7.86903e-10
-3.55973e-09
2.04066e-09
-7.96398e-10
-2.09254e-09
1.1217e-09
-3.27922e-09
2.69e-09
-6.15099e-10
-4.39799e-09
7.60942e-09
-1.74293e-09
-2.52607e-09
9.22651e-09
-1.22601e-09
1.78651e-09
5.95765e-09
7.56762e-10
5.41384e-09
6.8325e-10
2.97718e-09
5.45156e-09
-2.61201e-09
4.71723e-09
2.08198e-09
-2.09732e-09
4.29145e-09
-2.09458e-09
2.00451e-09
2.40185e-09
-4.04382e-09
4.18019e-09
1.80765e-09
-4.10882e-09
4.39795e-09
2.7308e-09
-4.11021e-09
6.01743e-09
2.61821e-09
-1.8807e-09
5.16084e-09
1.54648e-09
1.98589e-09
2.2823e-10
4.34724e-09
2.80139e-09
5.66485e-09
3.09224e-09
-2.26143e-10
3.09223e-09
1.63819e-09
4.62666e-09
2.63693e-09
9.16755e-11
4.51346e-09
2.08962e-09
-1.62507e-09
5.20543e-09
1.43004e-09
-3.23927e-09
4.91375e-09
9.56061e-10
-4.54904e-09
3.06682e-09
6.71189e-10
-6.09317e-09
6.77322e-10
5.43587e-10
-8.17593e-09
-3.87137e-10
2.7931e-10
-1.04341e-08
8.09591e-10
-3.537e-10
-1.16566e-08
3.3365e-09
-1.34049e-09
-1.05006e-08
4.44661e-09
-1.56522e-09
-6.91637e-09
2.55382e-09
-9.6529e-10
-2.74581e-09
-1.38988e-09
1.16226e-10
-2.68098e-10
-4.56249e-09
1.09206e-09
-3.41543e-10
-4.34535e-09
8.96678e-10
-1.3145e-09
-9.72984e-10
-1.09188e-10
-1.19776e-09
3.52773e-09
-9.18024e-10
1.48091e-09
5.31643e-09
-3.507e-10
6.26886e-09
3.10496e-09
1.3668e-09
9.74185e-09
-7.24404e-10
3.24027e-09
9.38486e-09
-3.37e-09
4.43948e-09
5.47613e-09
-2.30313e-09
3.62733e-09
4.37858e-10
1.27343e-09
1.69336e-09
-2.77873e-09
4.89096e-09
3.54291e-10
-3.36007e-09
4.2308e-09
5.53009e-10
-2.73525e-09
2.19589e-09
1.59771e-09
-2.3044e-09
3.57193e-09
2.03355e-09
1.79334e-10
1.73221e-10
2.52194e-09
1.87424e-09
-4.48698e-09
3.03885e-09
6.16973e-09
-1.47883e-09
1.54391e-09
-3.30127e-09
1.54389e-09
5.31955e-11
5.21707e-09
9.23783e-10
-1.20617e-09
5.55509e-09
2.38937e-10
-2.32132e-09
6.70139e-09
-3.58525e-10
-3.33321e-09
6.62954e-09
-6.80669e-10
-4.69508e-09
5.19127e-09
-7.37797e-10
-6.95163e-09
3.75237e-09
-7.92106e-10
-9.87679e-09
3.62216e-09
-1.05611e-09
-1.20131e-08
4.44183e-09
-1.46585e-09
-1.19262e-08
4.59868e-09
-1.31685e-09
-9.2663e-09
2.24507e-09
-4.23414e-10
-5.0559e-09
-2.6043e-09
9.85523e-10
-1.58464e-09
-6.99274e-09
2.17211e-09
-1.67947e-10
-8.80534e-09