/*--------------------------------*- C++ -*----------------------------------*\
| =========                 |                                                 |
| \\      /  F ield         | OpenFOAM: The Open Source CFD Toolbox           |
|  \\    /   O peration     | Version:  2312                                  |
|   \\  /    A nd           | Website:  www.openfoam.com                      |
|    \\/     M anipulation  |                                                 |
\*---------------------------------------------------------------------------*/
FoamFile
{
    version     2.0;
    format      ascii;
    arch        "LSB;label=32;scalar=64";
    class       volVectorField;
    location    "1.50315242808";
    object      U;
}
// * * * * * * * * * * * * * * * * * * * * * * * * * * * * * * * * * * * * * //

dimensions      [0 1 -1 0 0 0 0];

internalField   nonuniform List<vector> 
90000
(
(-3.7426e-05 4.64148e-05 -3.7426e-05)
(-1.47636e-05 -1.76691e-05 -2.37614e-05)
(3.89573e-05 -3.11131e-06 -2.01049e-05)
(4.48334e-05 -1.7924e-06 -1.69312e-05)
(6.01999e-05 -3.6863e-06 -1.21022e-05)
(6.99884e-05 -6.40011e-06 -6.63032e-06)
(7.86621e-05 -9.02389e-06 -1.20751e-06)
(8.46702e-05 -1.02859e-05 3.58831e-06)
(8.54919e-05 -9.2414e-06 7.14123e-06)
(7.93237e-05 -5.57563e-06 8.97753e-06)
(6.58017e-05 -1.17468e-07 9.19404e-06)
(4.58338e-05 5.82174e-06 8.12033e-06)
(2.18339e-05 1.08273e-05 5.9021e-06)
(-1.75717e-06 1.31392e-05 2.6977e-06)
(-1.9655e-05 1.18228e-05 -1.01621e-06)
(-2.85047e-05 7.48806e-06 -3.79437e-06)
(-2.72816e-05 1.21081e-06 -4.61759e-06)
(-1.82519e-05 -4.88923e-06 -3.06428e-06)
(-7.21244e-06 -8.29597e-06 7.5078e-07)
(-1.31119e-06 -7.32537e-06 5.11136e-06)
(-6.38047e-06 -2.20371e-06 8.01853e-06)
(-2.57583e-05 5.48468e-06 8.18323e-06)
(-5.76366e-05 1.31797e-05 5.29095e-06)
(-9.29839e-05 1.66374e-05 -1.05517e-06)
(-0.000119571 1.23417e-05 -9.59641e-06)
(-0.000124385 -6.47366e-08 -1.85477e-05)
(-9.09892e-05 -1.90377e-05 -3.02945e-05)
(-4.07799e-05 -2.58959e-05 -6.34569e-05)
(0.000144226 -1.48706e-05 -0.000139968)
(0.000156612 0.000287088 -0.000320184)
(5.40944e-06 7.07568e-05 5.40943e-06)
(9.82819e-06 -3.96448e-05 5.65851e-06)
(9.18617e-06 -1.51912e-05 4.89178e-06)
(1.00244e-05 -1.22691e-05 3.5617e-06)
(1.19025e-05 -1.62539e-05 2.77682e-06)
(1.58802e-05 -2.13765e-05 1.89999e-06)
(2.18846e-05 -2.59349e-05 1.00956e-06)
(2.92378e-05 -2.75077e-05 1.75557e-07)
(3.702e-05 -2.46013e-05 -4.09313e-07)
(4.3963e-05 -1.66815e-05 -1.53467e-07)
(4.87011e-05 -5.21776e-06 8.83662e-07)
(5.05432e-05 6.48773e-06 3.1496e-06)
(4.89242e-05 1.46555e-05 6.09397e-06)
(4.383e-05 1.72488e-05 9.99311e-06)
(3.55682e-05 1.27729e-05 1.37434e-05)
(2.389e-05 2.93607e-06 1.65462e-05)
(9.74452e-06 -8.72041e-06 1.81131e-05)
(-4.89866e-06 -1.85452e-05 1.76837e-05)
(-1.85933e-05 -2.23813e-05 1.51012e-05)
(-3.05923e-05 -1.79216e-05 1.13268e-05)
(-4.08618e-05 -6.29396e-06 7.58785e-06)
(-4.97224e-05 9.42461e-06 5.09252e-06)
(-5.74791e-05 2.29804e-05 3.73548e-06)
(-6.22635e-05 2.50175e-05 4.20669e-06)
(-6.29653e-05 1.18005e-05 7.20844e-06)
(-6.26826e-05 -1.61868e-05 1.60968e-05)
(-5.42475e-05 -6.12639e-05 2.98357e-05)
(-9.04081e-05 -0.000126556 6.75332e-05)
(6.46853e-05 -0.000187801 8.27441e-05)
(0.000140618 0.000588535 4.79725e-05)
(1.90544e-05 3.13097e-05 1.90544e-05)
(1.20104e-05 -3.60108e-05 1.16711e-05)
(-1.59145e-05 -1.69768e-05 9.93522e-06)
(-2.34071e-05 -1.50835e-05 6.85429e-06)
(-3.17703e-05 -1.97244e-05 3.80489e-06)
(-3.60122e-05 -2.62588e-05 2.39132e-07)
(-3.487e-05 -3.24966e-05 -3.19232e-06)
(-2.72941e-05 -3.56581e-05 -6.04469e-06)
(-1.33597e-05 -3.49311e-05 -7.84758e-06)
(6.03491e-06 -2.91476e-05 -8.03479e-06)
(2.84771e-05 -1.97808e-05 -6.35316e-06)
(5.00588e-05 -9.86034e-06 -2.82536e-06)
(6.7278e-05 -2.25741e-06 2.83185e-06)
(7.58705e-05 1.14436e-06 8.0603e-06)
(7.21751e-05 -1.87758e-07 1.23675e-05)
(5.60194e-05 -4.90458e-06 1.52994e-05)
(2.96081e-05 -1.06913e-05 1.53222e-05)
(-2.03714e-06 -1.55224e-05 1.23907e-05)
(-3.12297e-05 -1.65536e-05 7.4026e-06)
(-5.09498e-05 -1.25623e-05 1.65794e-06)
(-5.75257e-05 -4.16513e-06 -3.11955e-06)
(-5.07378e-05 6.2528e-06 -5.0108e-06)
(-3.29424e-05 1.29746e-05 -4.08745e-06)
(-9.95317e-06 8.12574e-06 -1.43515e-06)
(1.20753e-05 -8.61883e-06 1.36544e-06)
(2.66825e-05 -3.20666e-05 2.6002e-06)
(3.74183e-05 -5.78678e-05 9.00639e-06)
(-3.92899e-05 -0.000175215 4.33595e-05)
(-8.37466e-05 -0.00042428 0.000105682)
(-1.93505e-05 0.000478899 0.000172365)
(2.0814e-05 -8.25523e-06 2.0814e-05)
(8.49506e-06 -1.53257e-05 1.27731e-05)
(-2.89852e-05 -2.97884e-06 1.06394e-05)
(-4.14404e-05 -2.7568e-06 7.37018e-06)
(-5.47427e-05 -7.78491e-06 3.34945e-06)
(-6.38473e-05 -1.61912e-05 -8.9596e-07)
(-6.68112e-05 -2.5841e-05 -4.7124e-06)
(-6.18623e-05 -3.39782e-05 -8.14548e-06)
(-4.85844e-05 -3.9481e-05 -1.06319e-05)
(-2.78165e-05 -4.04022e-05 -1.17976e-05)
(-1.54117e-06 -3.72304e-05 -1.15041e-05)
(2.6354e-05 -3.09217e-05 -9.4723e-06)
(5.04332e-05 -2.17663e-05 -6.07496e-06)
(6.52396e-05 -1.15217e-05 -2.5921e-06)
(6.71269e-05 -1.05759e-06 4.48654e-07)
(5.51653e-05 8.41842e-06 8.65248e-07)
(3.1765e-05 1.43971e-05 -4.77097e-07)
(2.92184e-06 1.62628e-05 -3.17785e-06)
(-2.32541e-05 1.42905e-05 -6.26297e-06)
(-3.89857e-05 9.83356e-06 -8.89921e-06)
(-3.93322e-05 4.83488e-06 -1.06061e-05)
(-2.34253e-05 6.59437e-07 -1.07451e-05)
(4.89552e-06 -3.53138e-06 -8.76305e-06)
(3.67621e-05 -1.20138e-05 -4.88194e-06)
(6.23722e-05 -2.58314e-05 4.4518e-07)
(8.00841e-05 -4.11606e-05 9.6753e-07)
(0.000106945 -3.60391e-05 -1.80864e-05)
(0.000114691 -5.52598e-05 -2.06114e-05)
(-6.41501e-05 -0.000377286 2.80395e-07)
(-0.000118905 0.000233378 8.35338e-05)
(1.78826e-05 -4.32711e-05 1.78826e-05)
(5.4007e-06 1.00952e-05 1.11964e-05)
(-2.89352e-05 1.32412e-05 9.76546e-06)
(-4.06243e-05 1.198e-05 7.40867e-06)
(-5.34852e-05 7.03087e-06 4.68006e-06)
(-6.33995e-05 -2.36332e-06 1.67966e-06)
(-6.9145e-05 -1.49059e-05 -1.22188e-06)
(-6.96593e-05 -2.8051e-05 -2.98696e-06)
(-6.41993e-05 -3.90985e-05 -5.69197e-06)
(-5.22499e-05 -4.68118e-05 -7.64674e-06)
(-3.48896e-05 -4.94124e-05 -9.17076e-06)
(-1.45187e-05 -4.57441e-05 -9.86376e-06)
(5.48466e-06 -3.52046e-05 -1.03527e-05)
(2.14042e-05 -1.78485e-05 -1.05867e-05)
(3.0968e-05 4.32901e-06 -1.10509e-05)
(3.23118e-05 2.65991e-05 -1.14621e-05)
(2.52252e-05 4.33078e-05 -1.13373e-05)
(1.304e-05 5.04086e-05 -1.11562e-05)
(1.3813e-06 4.58511e-05 -1.12839e-05)
(-4.09739e-06 3.20145e-05 -1.13718e-05)
(7.31028e-07 1.40295e-05 -1.11389e-05)
(1.67605e-05 -2.80118e-06 -1.04372e-05)
(4.01676e-05 -1.52701e-05 -9.20197e-06)
(6.48748e-05 -2.43624e-05 -6.89871e-06)
(8.2893e-05 -3.19394e-05 -2.28923e-06)
(8.65707e-05 -4.51191e-05 6.01855e-06)
(8.22123e-05 -4.66435e-05 3.78289e-06)
(0.000110404 3.38363e-05 -8.78231e-06)
(-1.50027e-05 -0.000167518 -1.84924e-05)
(-8.83482e-05 0.000108783 1.59326e-05)
(8.9397e-06 -6.74017e-05 8.93969e-06)
(1.56384e-06 2.98582e-05 5.53696e-06)
(-1.59992e-05 2.5138e-05 5.67554e-06)
(-2.09025e-05 2.17709e-05 5.44669e-06)
(-2.72727e-05 1.68129e-05 5.69838e-06)
(-3.37111e-05 6.93038e-06 5.73544e-06)
(-4.02474e-05 -7.08239e-06 5.62249e-06)
(-4.673e-05 -2.28432e-05 5.47341e-06)
(-5.2965e-05 -3.69274e-05 5.01557e-06)
(-5.75227e-05 -4.84229e-05 3.13449e-06)
(-5.87102e-05 -5.47083e-05 -2.00969e-07)
(-5.5413e-05 -5.36129e-05 -3.54192e-06)
(-4.68886e-05 -4.3657e-05 -7.0684e-06)
(-3.33862e-05 -2.41063e-05 -1.04249e-05)
(-1.6562e-05 3.04602e-06 -1.27074e-05)
(1.00443e-06 3.12683e-05 -1.36749e-05)
(1.6219e-05 5.36144e-05 -1.27129e-05)
(2.69753e-05 6.36544e-05 -1.04558e-05)
(3.38423e-05 5.83257e-05 -7.78498e-06)
(3.86251e-05 4.0874e-05 -5.42346e-06)
(4.3574e-05 1.79961e-05 -4.02522e-06)
(5.08727e-05 -3.38942e-06 -3.50054e-06)
(6.05767e-05 -1.85231e-05 -3.58303e-06)
(7.05157e-05 -2.54257e-05 -4.04026e-06)
(7.73594e-05 -2.41115e-05 -5.11526e-06)
(7.57049e-05 -2.12496e-05 -4.08005e-06)
(3.28353e-05 -2.53978e-05 -8.00159e-07)
(4.12742e-05 5.24024e-05 -1.44661e-05)
(-9.48638e-06 -2.5719e-05 -3.02621e-05)
(-5.58713e-05 8.78471e-05 -1.83861e-05)
(-5.70768e-06 -6.99893e-05 -5.70769e-06)
(-5.09511e-06 3.63061e-05 -4.41662e-06)
(4.20981e-06 2.58963e-05 -2.31423e-06)
(1.10843e-05 2.06741e-05 -6.06833e-07)
(1.68569e-05 1.54926e-05 2.64062e-06)
(1.8116e-05 6.4899e-06 6.15965e-06)
(1.27926e-05 -5.71777e-06 9.4637e-06)
(4.32331e-07 -1.95468e-05 1.2008e-05)
(-1.80013e-05 -3.27064e-05 1.33288e-05)
(-4.01234e-05 -4.38856e-05 1.27954e-05)
(-6.21048e-05 -5.13337e-05 1.04942e-05)
(-7.86029e-05 -5.35289e-05 5.82052e-06)
(-8.41832e-05 -4.8484e-05 -1.22803e-07)
(-7.63566e-05 -3.45536e-05 -5.11445e-06)
(-5.6654e-05 -1.2747e-05 -8.03762e-06)
(-2.84424e-05 1.25125e-05 -8.28166e-06)
(3.28959e-06 3.43321e-05 -6.41437e-06)
(3.21422e-05 4.63748e-05 -2.69209e-06)
(5.37123e-05 4.48064e-05 1.66291e-06)
(6.6393e-05 3.16817e-05 5.13612e-06)
(7.12166e-05 1.22309e-05 7.39523e-06)
(7.03639e-05 -6.82248e-06 8.15158e-06)
(6.59611e-05 -1.88927e-05 8.07459e-06)
(5.81169e-05 -2.1062e-05 7.4922e-06)
(4.593e-05 -1.18147e-05 4.88299e-06)
(3.38325e-05 1.16225e-05 -1.56997e-06)
(-4.68883e-06 2.61442e-05 -6.39969e-06)
(-1.90676e-05 8.96109e-05 -1.73929e-05)
(-3.19083e-05 6.18563e-05 -2.779e-05)
(-3.32415e-05 7.68301e-05 -1.70682e-05)
(-2.24632e-05 -4.1774e-05 -2.24632e-05)
(-1.41629e-05 2.86766e-05 -1.70213e-05)
(2.37604e-05 1.58483e-05 -1.43531e-05)
(4.32785e-05 1.03135e-05 -1.08724e-05)
(6.20558e-05 5.60276e-06 -5.61458e-06)
(7.20196e-05 1.37199e-07 1.56153e-07)
(7.00796e-05 -5.75863e-06 5.68422e-06)
(5.48291e-05 -1.28384e-05 1.03193e-05)
(2.78631e-05 -1.99578e-05 1.31729e-05)
(-6.79851e-06 -2.7118e-05 1.37186e-05)
(-4.32189e-05 -3.44154e-05 1.20711e-05)
(-7.3864e-05 -4.14764e-05 8.80687e-06)
(-9.20466e-05 -4.62024e-05 5.18325e-06)
(-9.38518e-05 -4.49846e-05 1.55699e-06)
(-7.87174e-05 -3.67181e-05 -1.0738e-06)
(-5.02961e-05 -2.21617e-05 -1.33743e-06)
(-1.44891e-05 -5.79858e-06 5.76254e-07)
(2.17737e-05 6.36619e-06 3.89734e-06)
(5.17707e-05 1.02106e-05 7.79913e-06)
(7.08846e-05 4.996e-06 1.13979e-05)
(7.79041e-05 -6.64361e-06 1.45015e-05)
(7.46501e-05 -1.88103e-05 1.68102e-05)
(6.3022e-05 -2.42416e-05 1.78631e-05)
(4.36801e-05 -1.86494e-05 1.71497e-05)
(1.5914e-05 -1.176e-06 1.42094e-05)
(-1.10872e-05 3.18918e-05 7.15308e-06)
(-3.87758e-05 6.28715e-05 3.67425e-07)
(-4.63211e-05 0.000102362 -7.5501e-06)
(-3.04043e-05 8.48164e-05 -8.44666e-06)
(-1.22535e-05 5.07855e-05 4.27408e-06)
(-3.39622e-05 1.58089e-05 -3.39622e-05)
(-1.78321e-05 8.75167e-06 -2.66429e-05)
(4.10083e-05 -2.21737e-07 -2.39892e-05)
(6.75943e-05 -4.34645e-06 -1.91282e-05)
(9.38973e-05 -5.83288e-06 -1.33122e-05)
(0.000108197 -4.51635e-06 -7.03003e-06)
(0.000108308 -6.7227e-07 -1.12314e-06)
(9.34737e-05 3.70399e-06 3.08912e-06)
(6.57279e-05 6.3539e-06 6.26205e-06)
(2.94071e-05 5.02081e-06 8.09401e-06)
(-9.43334e-06 -2.27115e-06 8.54883e-06)
(-4.38617e-05 -1.57746e-05 7.84454e-06)
(-6.82131e-05 -3.28739e-05 6.91667e-06)
(-7.94438e-05 -4.73869e-05 5.99995e-06)
(-7.65125e-05 -5.55153e-05 5.15466e-06)
(-6.0635e-05 -5.48367e-05 4.52105e-06)
(-3.5311e-05 -4.69332e-05 4.9521e-06)
(-5.31665e-06 -3.74101e-05 6.15087e-06)
(2.38293e-05 -3.09563e-05 7.88046e-06)
(4.70299e-05 -2.99099e-05 1.01197e-05)
(6.05703e-05 -3.3007e-05 1.21857e-05)
(6.19346e-05 -3.58345e-05 1.43583e-05)
(5.05312e-05 -3.24696e-05 1.56135e-05)
(2.83999e-05 -1.7588e-05 1.46552e-05)
(-7.34665e-07 9.15554e-06 1.17239e-05)
(-2.6497e-05 4.30687e-05 6.57069e-06)
(-4.0422e-05 7.09685e-05 4.35974e-06)
(-3.15619e-05 7.88955e-05 6.23525e-06)
(-4.53182e-06 5.16409e-05 1.37657e-05)
(5.33258e-06 1.42548e-05 1.6807e-05)
(-3.42878e-05 8.46923e-05 -3.42878e-05)
(-1.3251e-05 -2.18542e-05 -2.55473e-05)
(4.99006e-05 -2.14485e-05 -2.19759e-05)
(7.57447e-05 -2.27922e-05 -1.68414e-05)
(0.000100454 -1.79886e-05 -1.15207e-05)
(0.000111831 -7.16051e-06 -6.74149e-06)
(0.000110595 8.11212e-06 -2.83267e-06)
(9.8231e-05 2.45572e-05 2.57284e-07)
(7.72784e-05 3.69392e-05 2.01108e-06)
(5.12423e-05 4.07338e-05 3.40438e-06)
(2.33174e-05 3.27541e-05 5.73342e-06)
(-3.8461e-06 1.32304e-05 8.28519e-06)
(-2.78546e-05 -1.36409e-05 1.03114e-05)
(-4.72076e-05 -4.05937e-05 1.16562e-05)
(-6.04276e-05 -6.14015e-05 1.18137e-05)
(-6.53678e-05 -7.25019e-05 1.06879e-05)
(-6.00993e-05 -7.4186e-05 8.22707e-06)
(-4.43086e-05 -7.0418e-05 5.29312e-06)
(-2.13404e-05 -6.53052e-05 3.01024e-06)
(3.22798e-06 -6.06848e-05 2.15425e-06)
(2.26328e-05 -5.6122e-05 2.31802e-06)
(3.09847e-05 -4.80548e-05 2.46175e-06)
(2.59793e-05 -3.27053e-05 1.09853e-06)
(1.16326e-05 -7.53109e-06 -1.47687e-06)
(-4.91134e-06 2.47354e-05 -4.45325e-06)
(-1.43631e-05 4.99387e-05 -4.92151e-06)
(-8.67893e-06 5.78501e-05 1.53217e-10)
(1.00328e-05 4.06504e-05 6.65807e-06)
(1.90519e-05 1.405e-05 1.11827e-05)
(8.83988e-06 3.67376e-06 4.88741e-06)
(-1.51327e-05 0.000127427 -1.51327e-05)
(6.75621e-06 -6.19441e-05 -4.65e-06)
(4.78128e-05 -4.94429e-05 -1.41064e-06)
(6.03095e-05 -4.547e-05 1.81071e-06)
(6.92008e-05 -3.35109e-05 4.76515e-06)
(6.94956e-05 -1.34207e-05 5.82448e-06)
(6.45184e-05 1.15856e-05 5.07915e-06)
(5.76125e-05 3.51168e-05 3.39501e-06)
(5.10287e-05 5.27248e-05 2.67451e-06)
(4.50017e-05 5.92791e-05 3.80999e-06)
(3.77713e-05 5.12711e-05 6.08738e-06)
(2.65138e-05 3.01856e-05 9.7447e-06)
(8.70432e-06 1.33437e-06 1.32688e-05)
(-1.56647e-05 -2.8465e-05 1.48473e-05)
(-4.30972e-05 -5.27352e-05 1.41701e-05)
(-6.69153e-05 -6.95326e-05 1.07814e-05)
(-8.04026e-05 -7.90536e-05 5.54132e-06)
(-7.98194e-05 -8.34524e-05 -7.49804e-09)
(-6.6094e-05 -8.38574e-05 -4.62326e-06)
(-4.48403e-05 -7.94264e-05 -7.48865e-06)
(-2.36079e-05 -6.91634e-05 -9.34227e-06)
(-8.84219e-06 -5.04618e-05 -1.10172e-05)
(-2.98364e-06 -2.2613e-05 -1.34182e-05)
(-1.36227e-06 1.03593e-05 -1.48336e-05)
(2.72774e-06 3.91227e-05 -1.40923e-05)
(1.44815e-05 5.06717e-05 -1.04489e-05)
(3.14173e-05 4.26557e-05 -4.31867e-06)
(3.97267e-05 2.59817e-05 2.38945e-07)
(2.5225e-05 2.31252e-05 -2.31265e-06)
(5.76251e-06 2.72226e-05 -7.61037e-06)
(2.04542e-05 0.00010856 2.04542e-05)
(3.35854e-05 -0.000102684 2.64188e-05)
(2.4655e-05 -8.17779e-05 3.00599e-05)
(1.3435e-05 -6.94034e-05 2.8288e-05)
(-3.67651e-06 -5.122e-05 2.47169e-05)
(-1.77127e-05 -2.54941e-05 1.84776e-05)
(-2.55597e-05 3.35136e-06 1.0762e-05)
(-2.30965e-05 2.92113e-05 4.33681e-06)
(-9.90666e-06 4.68229e-05 -1.2589e-07)
(9.14414e-06 5.35087e-05 -1.10218e-06)
(2.67856e-05 4.82523e-05 1.03016e-06)
(3.44766e-05 3.40621e-05 4.08798e-06)
(2.68355e-05 1.45773e-05 6.42119e-06)
(4.61361e-06 -5.64327e-06 6.6786e-06)
(-2.70555e-05 -2.43797e-05 3.78782e-06)
(-5.9169e-05 -4.11896e-05 -9.59524e-07)
(-8.24313e-05 -5.67878e-05 -6.27815e-06)
(-9.1677e-05 -7.06043e-05 -1.10653e-05)
(-8.65086e-05 -8.02115e-05 -1.43136e-05)
(-7.15565e-05 -8.08235e-05 -1.56945e-05)
(-5.32231e-05 -6.93686e-05 -1.64429e-05)
(-3.57092e-05 -4.60598e-05 -1.70514e-05)
(-1.92559e-05 -1.43592e-05 -1.66369e-05)
(-1.44298e-06 1.63837e-05 -1.49309e-05)
(2.11171e-05 3.59576e-05 -9.96333e-06)
(4.45587e-05 3.9079e-05 -3.84066e-06)
(5.75039e-05 3.35113e-05 1.71085e-06)
(4.94951e-05 3.86638e-05 2.37451e-06)
(2.5765e-05 5.84415e-05 -1.52632e-06)
(6.55523e-06 4.8904e-05 1.91889e-06)
(5.70139e-05 9.72283e-06 5.70139e-05)
(4.93564e-05 -0.000126902 5.23507e-05)
(-2.21059e-05 -0.000102467 4.68876e-05)
(-5.52306e-05 -8.16401e-05 3.76429e-05)
(-9.44924e-05 -5.70774e-05 2.65881e-05)
(-0.000118928 -2.91093e-05 1.37903e-05)
(-0.000124978 -3.26942e-06 1.50861e-06)
(-0.000110647 1.79885e-05 -8.34918e-06)
(-7.88644e-05 3.13231e-05 -1.35884e-05)
(-3.78832e-05 3.66068e-05 -1.4997e-05)
(3.72405e-07 3.78519e-05 -1.40521e-05)
(2.39313e-05 3.86835e-05 -1.28949e-05)
(2.77494e-05 3.8458e-05 -1.26026e-05)
(1.43263e-05 3.62114e-05 -1.3793e-05)
(-9.75643e-06 2.82834e-05 -1.60513e-05)
(-3.58237e-05 1.3222e-05 -1.83386e-05)
(-5.65083e-05 -8.7839e-06 -1.98385e-05)
(-6.77223e-05 -3.37032e-05 -2.04102e-05)
(-6.96067e-05 -5.43498e-05 -1.98622e-05)
(-6.45473e-05 -6.34499e-05 -1.89006e-05)
(-5.46508e-05 -5.78027e-05 -1.76781e-05)
(-3.97809e-05 -3.99181e-05 -1.59794e-05)
(-1.88102e-05 -1.68568e-05 -1.2992e-05)
(8.30559e-06 2.15287e-06 -8.12638e-06)
(3.73743e-05 1.19928e-05 -1.44855e-06)
(5.84455e-05 1.59918e-05 5.41519e-06)
(6.08506e-05 2.61816e-05 9.15694e-06)
(4.57014e-05 5.16286e-05 9.16143e-06)
(2.85759e-05 7.24904e-05 1.02788e-05)
(1.16522e-05 5.22297e-05 1.40513e-05)
(6.51782e-05 -0.0001288 6.51782e-05)
(3.0761e-05 -0.000101109 4.22192e-05)
(-8.34392e-05 -7.6891e-05 3.21392e-05)
(-0.000130663 -5.30136e-05 1.78688e-05)
(-0.000175733 -2.62512e-05 2.93442e-06)
(-0.000197744 -2.36818e-06 -1.06199e-05)
(-0.000193553 1.24541e-05 -2.01692e-05)
(-0.000164227 1.81084e-05 -2.45272e-05)
(-0.000118066 2.02713e-05 -2.58589e-05)
(-6.68527e-05 2.34337e-05 -2.55289e-05)
(-2.11352e-05 3.40769e-05 -2.42098e-05)
(9.19115e-06 5.22285e-05 -2.35742e-05)
(2.17552e-05 7.27917e-05 -2.39455e-05)
(2.14611e-05 8.78403e-05 -2.4869e-05)
(1.35726e-05 8.96943e-05 -2.51839e-05)
(3.04256e-06 7.56729e-05 -2.41865e-05)
(-7.84457e-06 4.82126e-05 -2.20778e-05)
(-1.82442e-05 1.45108e-05 -1.90029e-05)
(-2.83005e-05 -1.45985e-05 -1.60412e-05)
(-3.70251e-05 -3.21922e-05 -1.40162e-05)
(-4.06865e-05 -3.64621e-05 -1.29801e-05)
(-3.49835e-05 -3.08543e-05 -1.19723e-05)
(-1.82762e-05 -2.22018e-05 -1.02049e-05)
(6.84163e-06 -1.53805e-05 -7.44371e-06)
(3.08535e-05 -9.74674e-06 -4.72231e-06)
(4.23866e-05 5.21127e-06 -3.13144e-06)
(3.93435e-05 3.40228e-05 -4.413e-06)
(3.05728e-05 6.44007e-05 -3.89165e-06)
(2.00626e-05 7.75754e-05 6.3035e-07)
(7.47845e-06 6.62357e-05 -7.22286e-06)
(3.49281e-05 -0.000206559 3.49281e-05)
(-2.18312e-05 -5.15268e-06 6.7714e-06)
(-0.000132135 8.81229e-06 -4.88853e-06)
(-0.000175884 2.66218e-05 -1.77159e-05)
(-0.000207514 4.26811e-05 -2.53234e-05)
(-0.000213407 4.78611e-05 -2.78546e-05)
(-0.000194121 3.92179e-05 -2.79909e-05)
(-0.000155715 2.3199e-05 -2.59104e-05)
(-0.000109688 1.2153e-05 -2.19853e-05)
(-6.61235e-05 1.46423e-05 -1.90752e-05)
(-3.01869e-05 3.42431e-05 -1.80881e-05)
(-4.41109e-06 6.53697e-05 -1.9145e-05)
(1.40396e-05 9.94553e-05 -2.06369e-05)
(2.90649e-05 0.000123862 -2.08101e-05)
(4.07115e-05 0.000129592 -1.86666e-05)
(4.74227e-05 0.000115848 -1.45003e-05)
(4.57414e-05 8.75808e-05 -9.36457e-06)
(3.34089e-05 5.29917e-05 -4.55247e-06)
(1.22616e-05 2.28432e-05 -1.65406e-06)
(-1.16785e-05 2.09846e-06 -1.25525e-06)
(-3.00543e-05 -1.02491e-05 -2.97762e-06)
(-3.62593e-05 -1.58496e-05 -5.93039e-06)
(-2.96557e-05 -1.75632e-05 -8.72766e-06)
(-1.56309e-05 -1.37415e-05 -1.11222e-05)
(-2.62824e-06 2.52088e-07 -1.44198e-05)
(2.50655e-06 3.07804e-05 -1.9469e-05)
(7.6656e-07 6.99125e-05 -2.41708e-05)
(1.78574e-06 9.73799e-05 -2.45561e-05)
(-4.52065e-06 0.000112819 -2.65568e-05)
(-7.11462e-06 0.000107646 -3.26348e-05)
(-1.34861e-05 -0.000170174 -1.34861e-05)
(-7.46757e-05 0.000130434 -3.08862e-05)
(-0.000137592 0.000120722 -3.15833e-05)
(-0.000161552 0.000120375 -3.28909e-05)
(-0.000168141 0.000110894 -3.03923e-05)
(-0.000153614 8.56943e-05 -2.48838e-05)
(-0.00012597 4.99043e-05 -1.72154e-05)
(-9.56003e-05 1.66684e-05 -9.93427e-06)
(-6.90863e-05 -1.68765e-06 -4.51718e-06)
(-4.95444e-05 2.52073e-06 -2.53106e-06)
(-3.50596e-05 2.87316e-05 -4.37738e-06)
(-1.94661e-05 6.61617e-05 -8.17753e-06)
(2.64911e-06 0.000103204 -1.12264e-05)
(3.10298e-05 0.000127002 -1.06982e-05)
(5.8679e-05 0.000132464 -6.8311e-06)
(7.69759e-05 0.000121347 -6.6718e-07)
(7.93667e-05 9.96315e-05 5.91673e-06)
(6.40617e-05 7.35891e-05 9.88243e-06)
(3.5354e-05 5.01381e-05 1.06822e-05)
(2.35621e-06 3.07792e-05 8.69541e-06)
(-2.32136e-05 1.39372e-05 5.62231e-06)
(-3.51006e-05 4.74459e-07 2.43405e-06)
(-3.67102e-05 -5.50355e-06 -1.00194e-07)
(-3.5167e-05 3.04234e-06 -3.20509e-06)
(-3.62e-05 3.02998e-05 -8.22425e-06)
(-3.89578e-05 7.00266e-05 -1.36579e-05)
(-3.75081e-05 0.000108188 -1.69867e-05)
(-3.12966e-05 0.000135071 -1.87513e-05)
(-2.11767e-05 0.000155334 -2.33916e-05)
(-8.31289e-06 0.000130081 -8.89086e-06)
(-3.87319e-05 -4.79705e-05 -3.87319e-05)
(-8.33141e-05 0.000246025 -3.76691e-05)
(-9.38749e-05 0.000205324 -3.33268e-05)
(-9.14237e-05 0.000179302 -2.77113e-05)
(-7.71991e-05 0.000140705 -1.86004e-05)
(-5.65666e-05 9.02928e-05 -8.59821e-06)
(-3.78154e-05 3.8496e-05 1.35217e-07)
(-2.90608e-05 5.69766e-07 5.45594e-06)
(-3.19165e-05 -1.50559e-05 6.85341e-06)
(-4.01404e-05 -3.60668e-06 2.34674e-06)
(-4.33425e-05 2.69967e-05 -4.41658e-06)
(-3.27941e-05 6.15076e-05 -9.90657e-06)
(-6.35437e-06 9.00452e-05 -1.14178e-05)
(3.02e-05 0.000106405 -8.97783e-06)
(6.41655e-05 0.000111006 -3.08631e-06)
(8.41753e-05 0.00010728 3.3743e-06)
(8.47527e-05 9.86573e-05 7.5396e-06)
(6.76353e-05 8.64471e-05 9.0081e-06)
(4.13773e-05 7.09339e-05 9.25357e-06)
(1.59913e-05 5.04436e-05 9.30046e-06)
(-1.33071e-06 2.67352e-05 1.00761e-05)
(-1.02208e-05 5.08016e-06 1.24772e-05)
(-1.74628e-05 -4.42619e-06 1.5209e-05)
(-2.85752e-05 7.54482e-06 1.59989e-05)
(-4.19739e-05 3.96335e-05 1.46406e-05)
(-4.93917e-05 7.66347e-05 1.37873e-05)
(-4.50395e-05 0.0001047 1.48907e-05)
(-3.38531e-05 0.000123876 1.78896e-05)
(-4.41569e-06 0.000130008 2.37304e-05)
(8.98346e-06 8.54244e-05 4.44329e-05)
(-3.93464e-05 8.08574e-05 -3.93465e-05)
(-5.42039e-05 0.000299528 -2.93624e-05)
(-2.89608e-05 0.00024055 -2.31556e-05)
(-1.53997e-05 0.000194323 -1.60602e-05)
(3.56257e-06 0.00013837 -8.74227e-06)
(1.72888e-05 7.97987e-05 -2.94602e-06)
(1.91357e-05 3.06955e-05 -2.72892e-07)
(6.66258e-06 5.24727e-06 -8.28093e-07)
(-1.53916e-05 1.82212e-06 -5.42179e-06)
(-3.47441e-05 1.89143e-05 -1.06189e-05)
(-4.03223e-05 4.17205e-05 -1.49433e-05)
(-2.71822e-05 5.96922e-05 -1.53573e-05)
(1.78889e-06 7.1143e-05 -1.21191e-05)
(3.42284e-05 7.8186e-05 -5.88873e-06)
(5.83304e-05 8.4974e-05 3.49244e-07)
(6.78477e-05 9.23694e-05 3.4813e-06)
(6.36644e-05 9.83275e-05 3.97782e-06)
(5.19555e-05 9.68879e-05 3.18683e-06)
(4.05273e-05 8.35538e-05 3.07028e-06)
(3.3992e-05 5.72245e-05 5.3758e-06)
(3.10433e-05 2.45658e-05 9.72301e-06)
(2.49865e-05 -2.7526e-06 1.43614e-05)
(9.97638e-06 -1.29187e-05 1.74799e-05)
(-1.16498e-05 4.2447e-07 1.80634e-05)
(-2.87824e-05 2.62886e-05 1.80862e-05)
(-3.07586e-05 4.48655e-05 2.04286e-05)
(-1.85322e-05 5.109e-05 2.66033e-05)
(5.34739e-07 4.89095e-05 3.45388e-05)
(2.23473e-05 3.30604e-05 4.53249e-05)
(1.72587e-05 2.51453e-05 3.6682e-05)
(-3.1221e-05 0.000164534 -3.1221e-05)
(-2.34617e-05 0.000303624 -2.10334e-05)
(1.42277e-05 0.000243992 -1.92082e-05)
(2.58205e-05 0.000192114 -1.64786e-05)
(4.16162e-05 0.00013465 -1.41273e-05)
(4.65286e-05 8.33655e-05 -1.25795e-05)
(3.92904e-05 4.97016e-05 -1.21667e-05)
(2.26414e-05 3.85721e-05 -1.24496e-05)
(3.70506e-06 4.07728e-05 -1.31322e-05)
(-8.64547e-06 4.87363e-05 -1.2584e-05)
(-8.44474e-06 5.0989e-05 -8.7667e-06)
(4.9288e-06 4.62176e-05 -1.45964e-06)
(2.2544e-05 4.33317e-05 6.41176e-06)
(3.24026e-05 4.58895e-05 1.30999e-05)
(3.21882e-05 5.9944e-05 1.36709e-05)
(2.58875e-05 7.93876e-05 9.75872e-06)
(2.0538e-05 9.46318e-05 3.98626e-06)
(2.20938e-05 9.55718e-05 4.39993e-07)
(3.08697e-05 7.95192e-05 3.97013e-07)
(4.06848e-05 5.09286e-05 2.42514e-06)
(4.23118e-05 2.05408e-05 5.05965e-06)
(2.86453e-05 2.11456e-06 4.84526e-06)
(3.15695e-06 3.72732e-06 3.28918e-07)
(-2.10978e-05 2.09298e-05 -7.9619e-06)
(-2.96082e-05 3.37705e-05 -1.09143e-05)
(-1.92035e-05 2.95978e-05 -8.4463e-06)
(-3.50281e-06 1.9825e-05 -4.46238e-06)
(1.01037e-05 1.2246e-05 -3.60603e-06)
(-4.86782e-07 1.36136e-05 -1.05028e-05)
(-9.05209e-06 5.92534e-05 -3.62386e-05)
(-2.58435e-05 0.000217974 -2.58436e-05)
(-1.2346e-05 0.000291267 -2.16188e-05)
(2.70496e-05 0.000239183 -2.20562e-05)
(3.98545e-05 0.000190453 -2.00733e-05)
(5.6313e-05 0.000137561 -1.71249e-05)
(6.30326e-05 9.53202e-05 -1.29e-05)
(5.98622e-05 7.02331e-05 -9.1237e-06)
(5.05767e-05 6.0074e-05 -4.52212e-06)
(4.19971e-05 5.43171e-05 1.06215e-06)
(3.90334e-05 4.48445e-05 8.87863e-06)
(4.02615e-05 2.90012e-05 1.75803e-05)
(3.84293e-05 8.80022e-06 2.59423e-05)
(2.56006e-05 2.95047e-06 3.05326e-05)
(2.15044e-06 1.34329e-05 2.60404e-05)
(-2.25709e-05 4.07187e-05 1.68473e-05)
(-3.67432e-05 6.92652e-05 5.87079e-06)
(-3.20007e-05 8.42126e-05 -2.11076e-06)
(-1.14034e-05 8.0003e-05 -4.77767e-06)
(1.36168e-05 6.30701e-05 -3.72181e-06)
(2.73709e-05 4.36051e-05 -2.21438e-06)
(1.99619e-05 3.31629e-05 -3.42655e-06)
(-4.91681e-06 3.95868e-05 -1.0649e-05)
(-3.24738e-05 5.66377e-05 -2.05184e-05)
(-4.48682e-05 6.88095e-05 -2.61257e-05)
(-3.45827e-05 6.1389e-05 -2.6365e-05)
(-1.44102e-05 4.64619e-05 -2.4195e-05)
(-4.34981e-06 4.6131e-05 -2.5992e-05)
(-7.03089e-06 6.93976e-05 -3.31816e-05)
(-3.15618e-05 0.000115455 -5.09646e-05)
(-2.74947e-05 0.000130595 -5.13083e-05)
(-2.29761e-05 0.00026083 -2.29762e-05)
(-6.91861e-06 0.000272201 -1.8158e-05)
(3.68965e-05 0.000227458 -1.54421e-05)
(5.46791e-05 0.000177907 -9.39343e-06)
(7.27863e-05 0.000126147 -1.85441e-06)
(8.07805e-05 8.56725e-05 4.7453e-06)
(8.07802e-05 6.01376e-05 1.021e-05)
(7.79425e-05 4.41096e-05 1.52806e-05)
(7.51579e-05 2.69348e-05 2.14149e-05)
(7.05735e-05 4.62027e-06 2.77594e-05)
(5.78786e-05 -1.54245e-05 3.37587e-05)
(3.04403e-05 -2.70507e-05 3.23048e-05)
(-1.15314e-05 -1.45516e-05 2.37004e-05)
(-5.35109e-05 1.57593e-05 1.08651e-05)
(-8.06043e-05 5.23794e-05 -5.13311e-06)
(-8.3076e-05 7.24071e-05 -1.3499e-05)
(-5.94915e-05 7.31618e-05 -1.49791e-05)
(-2.47296e-05 6.23841e-05 -1.2531e-05)
(-4.78478e-07 5.35041e-05 -8.4048e-06)
(1.13269e-07 5.55179e-05 -9.00375e-06)
(-1.87994e-05 7.09616e-05 -1.52677e-05)
(-4.17813e-05 9.4141e-05 -2.32047e-05)
(-5.01193e-05 0.000105032 -2.64048e-05)
(-3.52402e-05 9.2626e-05 -2.23938e-05)
(-1.09113e-05 6.42489e-05 -1.3899e-05)
(-4.13723e-08 5.63919e-05 -8.93675e-06)
(-7.21144e-06 8.08651e-05 -1.29941e-05)
(-2.27753e-05 0.000131572 -1.95931e-05)
(-2.36931e-05 0.000182879 -2.51511e-05)
(-8.63967e-06 0.000136218 -8.05864e-06)
(-1.04417e-05 0.000281902 -1.04417e-05)
(1.3216e-05 0.000234865 -4.54234e-07)
(5.54324e-05 0.000194463 5.80372e-06)
(7.26455e-05 0.000142318 1.2549e-05)
(8.25741e-05 9.13445e-05 1.80325e-05)
(8.1029e-05 5.19884e-05 2.12824e-05)
(7.4792e-05 2.63383e-05 2.2342e-05)
(6.92776e-05 6.76861e-06 2.23892e-05)
(6.31285e-05 -1.24812e-05 2.23897e-05)
(5.1013e-05 -2.70252e-05 2.1808e-05)
(2.49695e-05 -2.74588e-05 1.7846e-05)
(-1.73229e-05 -8.42164e-06 8.39568e-06)
(-6.40986e-05 2.95975e-05 -5.39267e-06)
(-9.7539e-05 6.40407e-05 -1.62918e-05)
(-0.000102518 8.37473e-05 -1.92633e-05)
(-7.89408e-05 7.62936e-05 -1.76884e-05)
(-4.2887e-05 5.80252e-05 -1.06719e-05)
(-1.64442e-05 4.91123e-05 -3.95277e-06)
(-1.46662e-05 5.90036e-05 -3.18614e-06)
(-3.34219e-05 8.67569e-05 -1.11162e-05)
(-5.39199e-05 0.000116397 -2.07091e-05)
(-5.60835e-05 0.000129839 -2.43353e-05)
(-3.16782e-05 0.000110323 -1.83987e-05)
(3.89625e-06 6.94928e-05 -5.53981e-06)
(2.22625e-05 4.10909e-05 5.24025e-06)
(1.34901e-05 5.55578e-05 4.90023e-06)
(-4.54089e-06 9.57667e-05 5.63451e-07)
(-1.68616e-05 0.000136938 2.57103e-06)
(-3.22708e-07 0.000155749 1.10694e-05)
(1.04785e-05 0.000110871 1.21262e-05)
(1.05101e-05 0.000258548 1.05101e-05)
(4.01029e-05 0.000173901 1.9139e-05)
(6.5247e-05 0.000140405 2.44155e-05)
(7.00455e-05 9.51034e-05 2.67027e-05)
(6.22757e-05 5.3241e-05 2.55038e-05)
(4.67041e-05 2.4023e-05 2.10324e-05)
(3.29046e-05 3.67847e-06 1.56118e-05)
(2.45852e-05 -1.29898e-05 1.13722e-05)
(1.8306e-05 -2.35119e-05 8.95557e-06)
(4.18741e-06 -1.83417e-05 6.39357e-06)
(-2.36721e-05 7.31478e-06 1.10192e-06)
(-5.85926e-05 4.68575e-05 -6.86066e-06)
(-8.44778e-05 8.40485e-05 -1.07461e-05)
(-8.75905e-05 9.54221e-05 -1.04883e-05)
(-6.58104e-05 8.00743e-05 -3.45967e-06)
(-3.20489e-05 4.8608e-05 6.90898e-06)
(-1.02945e-05 2.56476e-05 1.68489e-05)
(-1.60868e-05 3.41196e-05 1.73715e-05)
(-4.22335e-05 7.22604e-05 7.05687e-06)
(-6.69938e-05 0.000115937 -7.28897e-06)
(-6.94373e-05 0.000135397 -1.43053e-05)
(-4.10224e-05 0.000116635 -1.0463e-05)
(3.22387e-06 6.8506e-05 9.30746e-07)
(3.00021e-05 2.78353e-05 1.00829e-05)
(2.24804e-05 2.85355e-05 7.5126e-06)
(-1.12588e-06 6.58047e-05 -2.61729e-06)
(-1.34115e-05 0.000100252 -5.7386e-06)
(-1.01933e-05 0.000114431 -1.21622e-06)
(2.44327e-06 0.000120558 -1.20708e-06)
(5.56845e-06 0.000107697 -7.64369e-06)
(2.51089e-05 0.000187363 2.51089e-05)
(5.05206e-05 0.00011053 2.80816e-05)
(5.1853e-05 8.85467e-05 2.74886e-05)
(4.26782e-05 6.12079e-05 2.47939e-05)
(2.28147e-05 3.76912e-05 1.95063e-05)
(1.73585e-06 1.95187e-05 1.29102e-05)
(-1.23619e-05 1.50145e-06 8.56508e-06)
(-1.82932e-05 -1.49284e-05 7.30667e-06)
(-2.38013e-05 -1.9489e-05 7.4342e-06)
(-3.73994e-05 -2.71029e-06 6.21939e-06)
(-5.76627e-05 3.42254e-05 3.19489e-06)
(-7.34865e-05 7.15535e-05 3.0156e-07)
(-7.07943e-05 8.57672e-05 1.52813e-06)
(-4.53721e-05 6.55693e-05 8.62839e-06)
(-1.05701e-05 2.24195e-05 1.84023e-05)
(9.34034e-06 -1.0894e-05 2.5989e-05)
(-2.61685e-06 -1.09823e-05 2.37918e-05)
(-3.48729e-05 3.38699e-05 1.29463e-05)
(-6.40279e-05 9.08265e-05 -1.50272e-06)
(-6.89888e-05 0.000121752 -6.19591e-06)
(-3.94741e-05 0.000105886 1.33323e-06)
(5.80199e-06 5.62994e-05 1.32404e-05)
(3.18252e-05 8.27783e-06 2.35354e-05)
(1.99344e-05 2.20587e-06 1.99424e-05)
(-1.06701e-05 3.62563e-05 8.34243e-06)
(-2.97604e-05 7.69113e-05 1.68214e-06)
(-3.14281e-05 9.62289e-05 -2.7234e-07)
(-3.07553e-05 9.99025e-05 -5.14634e-06)
(-1.22357e-05 0.000108313 -4.69106e-06)
(3.97251e-06 9.16786e-05 1.66445e-05)
(2.74556e-05 9.82696e-05 2.74556e-05)
(4.19179e-05 6.9247e-05 2.54697e-05)
(2.64924e-05 5.78439e-05 2.39673e-05)
(1.19358e-05 4.92677e-05 2.07915e-05)
(-9.48285e-06 3.98419e-05 1.64933e-05)
(-2.82139e-05 2.30943e-05 1.32332e-05)
(-3.90342e-05 -1.53654e-06 1.24391e-05)
(-4.72374e-05 -2.30103e-05 1.30372e-05)
(-6.00617e-05 -2.3988e-05 1.15517e-05)
(-7.72009e-05 1.38884e-06 7.2788e-06)
(-8.9363e-05 3.87633e-05 1.02751e-06)
(-8.3596e-05 6.16475e-05 -1.96694e-06)
(-5.50643e-05 4.99151e-05 8.88322e-07)
(-1.72854e-05 9.53214e-06 6.92663e-06)
(8.34378e-06 -2.91751e-05 1.26624e-05)
(4.59059e-06 -3.36124e-05 7.71587e-06)
(-2.08211e-05 4.77292e-06 -3.55892e-06)
(-4.35445e-05 6.44688e-05 -1.32081e-05)
(-4.13068e-05 0.000102046 -1.19657e-05)
(-5.98846e-06 9.04269e-05 -4.75293e-07)
(4.03423e-05 4.00141e-05 1.66771e-05)
(6.3008e-05 -1.26024e-05 3.02436e-05)
(4.29275e-05 -2.70326e-05 3.05549e-05)
(-3.1827e-06 7.27599e-06 1.84168e-05)