/*--------------------------------*- C++ -*----------------------------------*\
| =========                 |                                                 |
| \\      /  F ield         | OpenFOAM: The Open Source CFD Toolbox           |
|  \\    /   O peration     | Version:  2312                                  |
|   \\  /    A nd           | Website:  www.openfoam.com                      |
|    \\/     M anipulation  |                                                 |
\*---------------------------------------------------------------------------*/
FoamFile
{
    version     2.0;
    format      ascii;
    arch        "LSB;label=32;scalar=64";
    class       surfaceScalarField;
    location    "0.05";
    object      alphaPhi0.water;
}
// * * * * * * * * * * * * * * * * * * * * * * * * * * * * * * * * * * * * * //

dimensions      [0 3 -1 0 0 0 0];

oriented        oriented;

internalField   nonuniform List<scalar> 
231600
(
1.01273e-07
-1.04196e-07
2.92313e-09
2.01671e-07
-1.03317e-07
2.91735e-09
2.97219e-07
-9.84652e-08
2.91656e-09
3.86819e-07
-9.25199e-08
2.91965e-09
4.69399e-07
-8.55048e-08
2.92515e-09
5.44385e-07
-7.79169e-08
2.93123e-09
6.11642e-07
-7.0195e-08
2.93611e-09
6.71377e-07
-6.26729e-08
2.93903e-09
7.24016e-07
-5.55781e-08
2.94062e-09
7.70114e-07
-4.90417e-08
2.94077e-09
8.10291e-07
-4.31199e-08
2.93852e-09
8.45182e-07
-3.78251e-08
2.93391e-09
8.75396e-07
-3.31399e-08
2.92708e-09
9.01503e-07
-2.90266e-08
2.91871e-09
9.24023e-07
-2.54331e-08
2.90988e-09
9.43427e-07
-2.23061e-08
2.90156e-09
9.60129e-07
-1.95952e-08
2.89351e-09
9.74493e-07
-1.72511e-08
2.88577e-09
9.8684e-07
-1.52264e-08
2.87876e-09
9.97447e-07
-1.34799e-08
2.87262e-09
1.00656e-06
-1.19759e-08
2.86716e-09
1.01438e-06
-1.06819e-08
2.8624e-09
1.02109e-06
-9.5692e-09
2.85848e-09
1.02685e-06
-8.61368e-09
2.85534e-09
1.03179e-06
-7.79407e-09
2.85286e-09
1.03603e-06
-7.09151e-09
2.85087e-09
1.03967e-06
-6.48937e-09
2.84934e-09
1.04279e-06
-5.97317e-09
2.84822e-09
1.04548e-06
-5.53051e-09
2.84748e-09
1.04778e-06
-5.15077e-09
2.84702e-09
1.04976e-06
-4.82486e-09
2.84678e-09
1.05146e-06
-4.54503e-09
2.84672e-09
1.05292e-06
-4.30474e-09
2.84679e-09
1.05417e-06
-4.09844e-09
2.84695e-09
1.05524e-06
-3.92136e-09
2.84711e-09
1.05616e-06
-3.76938e-09
2.84723e-09
1.05695e-06
-3.63889e-09
2.84732e-09
1.05763e-06
-3.5268e-09
2.84743e-09
1.05822e-06
-3.43054e-09
2.84755e-09
1.05872e-06
-3.34789e-09
2.84766e-09
1.05914e-06
-3.27697e-09
2.84771e-09
1.05951e-06
-3.21611e-09
2.84768e-09
1.05983e-06
-3.16387e-09
2.84766e-09
1.0601e-06
-3.11901e-09
2.84769e-09
1.06033e-06
-3.08051e-09
2.84775e-09
1.06053e-06
-3.04744e-09
2.84776e-09
1.06071e-06
-3.01903e-09
2.84768e-09
1.06085e-06
-2.99463e-09
2.84753e-09
1.06098e-06
-2.97368e-09
2.84746e-09
1.06109e-06
-2.95572e-09
2.84746e-09
1.06118e-06
-2.9403e-09
2.84747e-09
1.06126e-06
-2.92705e-09
2.84745e-09
1.06133e-06
-2.91565e-09
2.84741e-09
1.06139e-06
-2.90585e-09
2.84733e-09
1.06144e-06
-2.89743e-09
2.84727e-09
1.06149e-06
-2.89021e-09
2.84721e-09
1.06152e-06
-2.88402e-09
2.84717e-09
1.06155e-06
-2.87873e-09
2.84716e-09
1.06158e-06
-2.87419e-09
2.84714e-09
1.0616e-06
-2.87031e-09
2.84713e-09
1.06162e-06
-2.86697e-09
2.84712e-09
1.06164e-06
-2.86412e-09
2.84711e-09
1.06166e-06
-2.86167e-09
2.8471e-09
1.06167e-06
-2.85957e-09
2.84709e-09
1.06168e-06
-2.85777e-09
2.84708e-09
1.06169e-06
-2.85622e-09
2.84707e-09
1.0617e-06
-2.8549e-09
2.84707e-09
1.0617e-06
-2.85376e-09
2.84706e-09
1.06171e-06
-2.85279e-09
2.84706e-09
1.06171e-06
-2.85196e-09
2.84705e-09
1.06172e-06
-2.85124e-09
2.84705e-09
1.06172e-06
-2.85063e-09
2.84704e-09
1.06173e-06
-2.8501e-09
2.84704e-09
1.06173e-06
-2.84965e-09
2.84703e-09
1.06173e-06
-2.84926e-09
2.84703e-09
1.06173e-06
-2.84893e-09
2.84703e-09
1.06173e-06
-2.84865e-09
2.84702e-09
1.06174e-06
-2.8484e-09
2.84702e-09
1.06174e-06
-2.84819e-09
2.84701e-09
1.06174e-06
-2.84801e-09
2.84701e-09
1.06174e-06
-2.84785e-09
2.84701e-09
1.06174e-06
-2.84772e-09
2.847e-09
1.06174e-06
-2.8476e-09
2.847e-09
1.06174e-06
-2.8475e-09
2.847e-09
1.06174e-06
-2.84742e-09
2.84699e-09
1.06174e-06
-2.84734e-09
2.84699e-09
1.06174e-06
-2.84728e-09
2.84698e-09
1.06174e-06
-2.84722e-09
2.84698e-09
1.06174e-06
-2.84718e-09
2.84698e-09
1.06174e-06
-2.84713e-09
2.84697e-09
1.06174e-06
-2.8471e-09
2.84697e-09
1.06174e-06
-2.84706e-09
2.84697e-09
1.06174e-06
-2.84703e-09
2.84696e-09
1.06174e-06
-2.84701e-09
2.84696e-09
1.06174e-06
-2.84698e-09
2.84696e-09
1.06174e-06
-2.84696e-09
2.84695e-09
1.06174e-06
-2.84694e-09
2.84695e-09
1.06174e-06
-2.84693e-09
2.84694e-09
1.06174e-06
-2.84691e-09
2.84694e-09
1.06174e-06
-2.84689e-09
2.84694e-09
1.06174e-06
-2.84688e-09
2.84693e-09
1.06174e-06
-2.84686e-09
2.84693e-09
1.06174e-06
-2.84684e-09
2.84693e-09
1.06174e-06
-2.84683e-09
2.84692e-09
1.06174e-06
-2.84681e-09
2.84692e-09
1.06174e-06
-2.84679e-09
2.84692e-09
1.06174e-06
-2.84678e-09
2.84691e-09
1.06174e-06
-2.84675e-09
2.84691e-09
1.06174e-06
-2.84673e-09
2.8469e-09
1.06174e-06
-2.84671e-09
2.8469e-09
1.06174e-06
-2.84668e-09
2.8469e-09
1.06174e-06
-2.84665e-09
2.84689e-09
1.06174e-06
-2.84661e-09
2.84689e-09
1.06174e-06
-2.84657e-09
2.84689e-09
1.06174e-06
-2.84652e-09
2.84688e-09
1.06174e-06
-2.84647e-09
2.84688e-09
1.06174e-06
-2.84641e-09
2.84687e-09
1.06174e-06
-2.84634e-09
2.84687e-09
1.06174e-06
-2.84625e-09
2.84687e-09
1.06174e-06
-2.84616e-09
2.84686e-09
1.06174e-06
-2.84605e-09
2.84686e-09
1.06174e-06
-2.84592e-09
2.84686e-09
1.06174e-06
-2.84577e-09
2.84685e-09
1.06174e-06
-2.84559e-09
2.84685e-09
1.06174e-06
-2.84539e-09
2.84685e-09
1.06173e-06
-2.84515e-09
2.84685e-09
1.06173e-06
-2.84488e-09
2.84684e-09
1.06173e-06
-2.84456e-09
2.84684e-09
1.06173e-06
-2.84419e-09
2.84684e-09
1.06172e-06
-2.84376e-09
2.84684e-09
1.06172e-06
-2.84325e-09
2.84684e-09
1.06172e-06
-2.84266e-09
2.84684e-09
1.06171e-06
-2.84197e-09
2.84684e-09
1.06171e-06
-2.84117e-09
2.84684e-09
1.0617e-06
-2.84023e-09
2.84684e-09
1.06169e-06
-2.83914e-09
2.84685e-09
1.06168e-06
-2.83786e-09
2.84685e-09
1.06167e-06
-2.83636e-09
2.84685e-09
1.06166e-06
-2.83461e-09
2.84685e-09
1.06165e-06
-2.83257e-09
2.84685e-09
1.06163e-06
-2.83019e-09
2.84686e-09
1.06161e-06
-2.8274e-09
2.84686e-09
1.06159e-06
-2.82414e-09
2.84686e-09
1.06156e-06
-2.82033e-09
2.84687e-09
1.06153e-06
-2.81588e-09
2.84687e-09
1.06149e-06
-2.81067e-09
2.84688e-09
1.06145e-06
-2.80459e-09
2.84688e-09
1.0614e-06
-2.79748e-09
2.84689e-09
1.06134e-06
-2.78919e-09
2.8469e-09
1.06127e-06
-2.77953e-09
2.84691e-09
1.0612e-06
-2.76828e-09
2.84692e-09
1.0611e-06
-2.75519e-09
2.84691e-09
1.061e-06
-2.73995e-09
2.84688e-09
1.06087e-06
-2.72223e-09
2.84683e-09
1.06072e-06
-2.70162e-09
2.84675e-09
1.06055e-06
-2.67767e-09
2.84664e-09
1.06036e-06
-2.64982e-09
2.8465e-09
1.06013e-06
-2.61742e-09
2.84631e-09
1.05986e-06
-2.57973e-09
2.84607e-09
1.05955e-06
-2.53585e-09
2.84576e-09
1.05919e-06
-2.48471e-09
2.84537e-09
1.05877e-06
-2.42502e-09
2.84491e-09
1.05829e-06
-2.3553e-09
2.84439e-09
1.05772e-06
-2.27381e-09
2.84383e-09
1.05706e-06
-2.17853e-09
2.8433e-09
1.05629e-06
-2.06715e-09
2.84286e-09
1.05539e-06
-1.93707e-09
2.84255e-09
1.05435e-06
-1.78533e-09
2.84236e-09
1.05312e-06
-1.60844e-09
2.84214e-09
1.05169e-06
-1.40228e-09
2.84165e-09
1.05001e-06
-1.16214e-09
2.8406e-09
1.04806e-06
-8.82875e-10
2.83953e-09
1.04577e-06
-5.57984e-10
2.83714e-09
1.04312e-06
-1.79284e-10
2.83283e-09
1.04002e-06
2.64109e-10
2.82525e-09
1.03642e-06
7.74449e-10
2.82986e-09
1.03222e-06
1.36584e-09
2.83085e-09
1.02734e-06
2.05416e-09
2.83076e-09
1.02167e-06
2.84879e-09
2.83049e-09
1.01507e-06
3.77087e-09
2.83024e-09
1.00739e-06
4.84244e-09
2.83043e-09
9.98469e-07
6.0888e-09
2.83093e-09
9.88095e-07
7.53803e-09
2.83152e-09
9.76042e-07
9.21991e-09
2.83142e-09
9.62047e-07
1.11655e-08
2.83015e-09
9.45815e-07
1.34085e-08
2.82721e-09
9.2701e-07
1.59879e-08
2.82192e-09
9.05252e-07
1.89466e-08
2.81572e-09
8.80117e-07
2.2329e-08
2.80907e-09
8.51141e-07
2.61764e-08
2.80185e-09
8.17826e-07
3.05234e-08
2.79435e-09
7.79649e-07
3.53929e-08
2.78652e-09
7.36089e-07
4.07861e-08
2.77801e-09
6.86652e-07
4.66708e-08
2.76792e-09
6.30921e-07
5.29737e-08
2.75703e-09
5.686e-07
5.95737e-08
2.74761e-09
4.99569e-07
6.62839e-08
2.74318e-09
4.23971e-07
7.28437e-08
2.74951e-09
3.42339e-07
7.88749e-08
2.77318e-09
8.43568e-08
2.84219e-09
1.03635e-07
-2.10581e-07
2.74823e-09
2.06324e-07
-2.08752e-07
2.74511e-09
3.03663e-07
-1.98555e-07
2.75144e-09
3.94519e-07
-1.86139e-07
2.76265e-09
4.77832e-07
-1.71595e-07
2.77652e-09
5.53104e-07
-1.55978e-07
2.79097e-09
6.20304e-07
-1.40198e-07
2.80352e-09
6.79739e-07
-1.24925e-07
2.81136e-09
7.31932e-07
-1.10592e-07
2.81594e-09
7.77514e-07
-9.74393e-08
2.81835e-09
8.1715e-07
-8.55712e-08
2.81757e-09
8.51504e-07
-7.49952e-08
2.81356e-09
8.81209e-07
-6.56565e-08
2.80752e-09
9.06847e-07
-5.74664e-08
2.80003e-09
9.28945e-07
-5.03219e-08
2.79159e-09
9.47971e-07
-4.41153e-08
2.78273e-09
9.64338e-07
-3.87387e-08
2.77412e-09
9.7841e-07
-3.40899e-08
2.76613e-09
9.90501e-07
-3.0077e-08
2.75883e-09
1.00089e-06
-2.66177e-08
2.75211e-09
1.0098e-06
-2.36384e-08
2.74617e-09
1.01745e-06
-2.10749e-08
2.7412e-09
1.02402e-06
-1.88716e-08
2.73714e-09
1.02965e-06
-1.69805e-08
2.73388e-09
1.03449e-06
-1.53588e-08
2.73128e-09
1.03864e-06
-1.39688e-08
2.72922e-09
1.0422e-06
-1.27776e-08
2.72763e-09
1.04525e-06
-1.17565e-08
2.72647e-09
1.04788e-06
-1.08809e-08
2.72572e-09
1.05013e-06
-1.01299e-08
2.72528e-09
1.05207e-06
-9.48534e-09
2.72504e-09
1.05373e-06
-8.93193e-09
2.72496e-09
1.05516e-06
-8.45672e-09
2.72501e-09
1.05638e-06
-8.0487e-09
2.72514e-09
1.05743e-06
-7.69838e-09
2.72524e-09
1.05833e-06
-7.39756e-09
2.72529e-09
1.05911e-06
-7.13921e-09
2.72533e-09
1.05977e-06
-6.91728e-09
2.72541e-09
1.06034e-06
-6.72668e-09
2.72552e-09
1.06083e-06
-6.56301e-09
2.72562e-09
1.06125e-06
-6.42249e-09
2.72564e-09
1.06161e-06
-6.30187e-09
2.72552e-09
1.06192e-06
-6.19833e-09
2.7255e-09
1.06219e-06
-6.10948e-09
2.72554e-09
1.06241e-06
-6.03324e-09
2.7256e-09
1.06261e-06
-5.96779e-09
2.72561e-09
1.06278e-06
-5.91153e-09
2.72548e-09
1.06292e-06
-5.86322e-09
2.72529e-09
1.06305e-06
-5.82183e-09
2.72521e-09
1.06315e-06
-5.78637e-09
2.72521e-09
1.06325e-06
-5.75595e-09
2.72522e-09
1.06332e-06
-5.72983e-09
2.72524e-09
1.06339e-06
-5.7074e-09
2.72526e-09
1.06345e-06
-5.68814e-09
2.7253e-09
1.0635e-06
-5.67162e-09
2.72535e-09
1.06354e-06
-5.65745e-09
2.72539e-09
1.06358e-06
-5.6453e-09
2.72542e-09
1.06361e-06
-5.63488e-09
2.72544e-09
1.06363e-06
-5.62595e-09
2.72544e-09
1.06366e-06
-5.61828e-09
2.72543e-09
1.06368e-06
-5.61171e-09
2.72543e-09
1.06369e-06
-5.60607e-09
2.72542e-09
1.06371e-06
-5.60124e-09
2.72541e-09
1.06372e-06
-5.59709e-09
2.72541e-09
1.06373e-06
-5.59354e-09
2.7254e-09
1.06374e-06
-5.59049e-09
2.72539e-09
1.06375e-06
-5.58787e-09
2.72539e-09
1.06375e-06
-5.58563e-09
2.72538e-09
1.06376e-06
-5.58371e-09
2.72537e-09
1.06377e-06
-5.58206e-09
2.72536e-09
1.06377e-06
-5.58065e-09
2.72536e-09
1.06377e-06
-5.57943e-09
2.72535e-09
1.06378e-06
-5.57839e-09
2.72534e-09
1.06378e-06
-5.5775e-09
2.72534e-09
1.06378e-06
-5.57673e-09
2.72533e-09
1.06378e-06
-5.57607e-09
2.72532e-09
1.06378e-06
-5.57551e-09
2.72532e-09
1.06379e-06
-5.57502e-09
2.72531e-09
1.06379e-06
-5.5746e-09
2.7253e-09
1.06379e-06
-5.57424e-09
2.7253e-09
1.06379e-06
-5.57393e-09
2.72529e-09
1.06379e-06
-5.57366e-09
2.72528e-09
1.06379e-06
-5.57343e-09
2.72528e-09
1.06379e-06
-5.57323e-09
2.72527e-09
1.06379e-06
-5.57306e-09
2.72526e-09
1.06379e-06
-5.57291e-09
2.72526e-09
1.06379e-06
-5.57278e-09
2.72525e-09
1.06379e-06
-5.57266e-09
2.72524e-09
1.06379e-06
-5.57256e-09
2.72523e-09
1.06379e-06
-5.57247e-09
2.72523e-09
1.06379e-06
-5.57239e-09
2.72522e-09
1.06379e-06
-5.57233e-09
2.72521e-09
1.06379e-06
-5.57226e-09
2.72521e-09
1.06379e-06
-5.57221e-09
2.7252e-09
1.06379e-06
-5.57216e-09
2.72519e-09
1.06379e-06
-5.57211e-09
2.72519e-09
1.06379e-06
-5.57207e-09
2.72518e-09
1.06379e-06
-5.57203e-09
2.72517e-09
1.06379e-06
-5.57199e-09
2.72517e-09
1.06379e-06
-5.57196e-09
2.72516e-09
1.06379e-06
-5.57192e-09
2.72515e-09
1.06379e-06
-5.57189e-09
2.72514e-09
1.06379e-06
-5.57185e-09
2.72514e-09
1.06379e-06
-5.57182e-09
2.72513e-09
1.06379e-06
-5.57178e-09
2.72512e-09
1.06379e-06
-5.57174e-09
2.72512e-09
1.06379e-06
-5.5717e-09
2.72511e-09
1.06379e-06
-5.57165e-09
2.7251e-09
1.06379e-06
-5.57161e-09
2.7251e-09
1.06379e-06
-5.57155e-09
2.72509e-09
1.06379e-06
-5.57149e-09
2.72508e-09
1.06379e-06
-5.57143e-09
2.72508e-09
1.06379e-06
-5.57135e-09
2.72507e-09
1.06379e-06
-5.57127e-09
2.72506e-09
1.06379e-06
-5.57117e-09
2.72506e-09
1.06379e-06
-5.57106e-09
2.72505e-09
1.06379e-06
-5.57093e-09
2.72504e-09
1.06379e-06
-5.57079e-09
2.72504e-09
1.06379e-06
-5.57062e-09
2.72503e-09
1.06379e-06
-5.57043e-09
2.72502e-09
1.06379e-06
-5.57021e-09
2.72502e-09
1.06379e-06
-5.56995e-09
2.72501e-09
1.06379e-06
-5.56965e-09
2.72501e-09
1.06379e-06
-5.5693e-09
2.725e-09
1.06379e-06
-5.5689e-09
2.72499e-09
1.06378e-06
-5.56843e-09
2.72499e-09
1.06378e-06
-5.56789e-09
2.72498e-09
1.06378e-06
-5.56725e-09
2.72498e-09
1.06378e-06
-5.56651e-09
2.72497e-09
1.06377e-06
-5.56565e-09
2.72496e-09
1.06377e-06
-5.56464e-09
2.72495e-09
1.06377e-06
-5.56347e-09
2.72494e-09
1.06376e-06
-5.5621e-09
2.72494e-09
1.06376e-06
-5.5605e-09
2.72493e-09
1.06375e-06
-5.55864e-09
2.72492e-09
1.06374e-06
-5.55647e-09
2.72491e-09
1.06373e-06
-5.55394e-09
2.7249e-09
1.06372e-06
-5.55098e-09
2.7249e-09
1.06371e-06
-5.54753e-09
2.72489e-09
1.0637e-06
-5.5435e-09
2.72489e-09
1.06368e-06
-5.53879e-09
2.72488e-09
1.06366e-06
-5.5333e-09
2.72488e-09
1.06364e-06
-5.52689e-09
2.72488e-09
1.06361e-06
-5.5194e-09
2.72488e-09
1.06358e-06
-5.51065e-09
2.72489e-09
1.06355e-06
-5.50041e-09
2.72489e-09
1.06351e-06
-5.48845e-09
2.7249e-09
1.06346e-06
-5.47447e-09
2.72491e-09
1.0634e-06
-5.45816e-09
2.72492e-09
1.06334e-06
-5.43914e-09
2.72492e-09
1.06326e-06
-5.41695e-09
2.72492e-09
1.06317e-06
-5.3911e-09
2.7249e-09
1.06306e-06
-5.36097e-09
2.72486e-09
1.06294e-06
-5.32587e-09
2.72481e-09
1.0628e-06
-5.285e-09
2.72474e-09
1.06263e-06
-5.2374e-09
2.72465e-09
1.06244e-06
-5.18199e-09
2.72452e-09
1.06221e-06
-5.11749e-09
2.72437e-09
1.06195e-06
-5.04242e-09
2.72419e-09
1.06165e-06
-4.955e-09
2.72395e-09
1.0613e-06
-4.85313e-09
2.72365e-09
1.06089e-06
-4.73426e-09
2.72326e-09
1.06041e-06
-4.59547e-09
2.72278e-09
1.05986e-06
-4.43341e-09
2.72223e-09
1.05921e-06
-4.24417e-09
2.72166e-09
1.05846e-06
-4.02334e-09
2.72113e-09
1.05758e-06
-3.76603e-09
2.72068e-09
1.05656e-06
-3.46657e-09
2.7203e-09
1.05536e-06
-3.1181e-09
2.71987e-09
1.05396e-06
-2.71218e-09
2.71925e-09
1.05232e-06
-2.23884e-09
2.71833e-09
1.0504e-06
-1.6871e-09
2.71648e-09
1.04817e-06
-1.04483e-09
2.71402e-09
1.04557e-06
-2.98668e-10
2.71076e-09
1.04255e-06
5.76637e-10
2.70756e-09
1.03905e-06
1.56546e-09
2.70543e-09
1.035e-06
2.71628e-09
2.70658e-09
1.0303e-06
4.06318e-09
2.70566e-09
1.02482e-06
5.62243e-09
2.70524e-09
1.01845e-06
7.43533e-09
2.70506e-09
1.01104e-06
9.54529e-09
2.70519e-09
1.00241e-06
1.20015e-08
2.70581e-09
9.92378e-07
1.48585e-08
2.70678e-09
9.80718e-07
1.81737e-08
2.70721e-09
9.67173e-07
2.20094e-08
2.70579e-09
9.51451e-07
2.64357e-08
2.70245e-09
9.33214e-07
3.15338e-08
2.69783e-09
9.12081e-07
3.73933e-08
2.69212e-09
8.87621e-07
4.41073e-08
2.68574e-09
8.59359e-07
5.17635e-08
2.67871e-09
8.26776e-07
6.04394e-08
2.67146e-09
7.89318e-07
7.01911e-08
2.66422e-09
7.46415e-07
8.10354e-08
2.65587e-09
6.97511e-07
9.29279e-08
2.646e-09
6.42104e-07
1.05745e-07
2.6351e-09
5.79798e-07
1.19257e-07
2.62585e-09
5.10374e-07
1.33091e-07
2.62259e-09
4.33851e-07
1.46724e-07
2.63615e-09
3.5052e-07
1.59503e-07
2.67039e-09
1.7113e-07
2.77074e-09
1.0824e-07
-3.2114e-07
2.31845e-09
2.15295e-07
-3.18129e-07
2.32167e-09
3.15932e-07
-3.01535e-07
2.34507e-09
4.08951e-07
-2.81534e-07
2.3759e-09
4.93343e-07
-2.58399e-07
2.40787e-09
5.68792e-07
-2.3387e-07
2.43896e-09
6.35509e-07
-2.0938e-07
2.46707e-09
6.94027e-07
-1.85927e-07
2.48798e-09
7.45055e-07
-1.64118e-07
2.50044e-09
7.89365e-07
-1.44256e-07
2.5074e-09
8.27719e-07
-1.26438e-07
2.50961e-09
8.60842e-07
-1.10629e-07
2.50813e-09
8.89403e-07
-9.67195e-08
2.50377e-09
9.14e-07
-8.45574e-08
2.49672e-09
9.35162e-07
-7.39729e-08
2.48774e-09
9.53358e-07
-6.47919e-08
2.47823e-09
9.68998e-07
-5.68476e-08
2.46892e-09
9.82435e-07
-4.99862e-08
2.45998e-09
9.93973e-07
-4.40678e-08
2.45151e-09
1.00388e-06
-3.89675e-08
2.44381e-09
1.01238e-06
-3.45755e-08
2.43711e-09
1.01967e-06
-3.07975e-08
2.4315e-09
1.02592e-06
-2.75521e-08
2.42699e-09
1.03129e-06
-2.47681e-08
2.42351e-09
1.03589e-06
-2.23818e-08
2.4209e-09
1.03984e-06
-2.0337e-08
2.41889e-09
1.04323e-06
-1.8585e-08
2.4173e-09
1.04614e-06
-1.70836e-08
2.41612e-09
1.04864e-06
-1.57966e-08
2.4154e-09
1.05079e-06
-1.46924e-08
2.41503e-09
1.05263e-06
-1.37446e-08
2.41483e-09
1.05422e-06
-1.29306e-08
2.4148e-09
1.05558e-06
-1.22316e-08
2.41488e-09
1.05674e-06
-1.16313e-08
2.41497e-09
1.05774e-06
-1.11157e-08
2.41501e-09
1.0586e-06
-1.06729e-08
2.415e-09
1.05934e-06
-1.02925e-08
2.41497e-09
1.05997e-06
-9.96593e-09
2.41504e-09
1.06052e-06
-9.68545e-09
2.41515e-09
1.06098e-06
-9.44462e-09
2.41524e-09
1.06138e-06
-9.23782e-09
2.41523e-09
1.06172e-06
-9.06022e-09
2.41503e-09
1.06202e-06
-8.90785e-09
2.41504e-09
1.06227e-06
-8.77709e-09
2.41503e-09
1.06249e-06
-8.66488e-09
2.41499e-09
1.06268e-06
-8.5686e-09
2.41498e-09
1.06284e-06
-8.48598e-09
2.41507e-09
1.06297e-06
-8.41509e-09
2.41519e-09
1.06309e-06
-8.35428e-09
2.4152e-09
1.06319e-06
-8.30212e-09
2.41512e-09
1.06328e-06
-8.25739e-09
2.41507e-09
1.06336e-06
-8.21899e-09
2.41507e-09
1.06342e-06
-8.18602e-09
2.41509e-09
1.06348e-06
-8.15772e-09
2.41512e-09
1.06352e-06
-8.13345e-09
2.41516e-09
1.06356e-06
-8.11263e-09
2.41519e-09
1.0636e-06
-8.09479e-09
2.41521e-09
1.06363e-06
-8.07948e-09
2.41522e-09
1.06365e-06
-8.06635e-09
2.41523e-09
1.06367e-06
-8.05509e-09
2.41523e-09
1.06369e-06
-8.04543e-09
2.41523e-09
1.06371e-06
-8.03715e-09
2.41523e-09
1.06372e-06
-8.03005e-09
2.41523e-09
1.06373e-06
-8.02396e-09
2.41523e-09
1.06374e-06
-8.01873e-09
2.41522e-09
1.06375e-06
-8.01425e-09
2.41522e-09
1.06376e-06
-8.01041e-09
2.41522e-09
1.06377e-06
-8.00712e-09
2.41521e-09
1.06377e-06
-8.00429e-09
2.41521e-09
1.06378e-06
-8.00187e-09
2.4152e-09
1.06378e-06
-7.99979e-09
2.4152e-09
1.06378e-06
-7.998e-09
2.41519e-09
1.06379e-06
-7.99647e-09
2.41519e-09
1.06379e-06
-7.99516e-09
2.41518e-09
1.06379e-06
-7.99403e-09
2.41518e-09
1.06379e-06
-7.99306e-09
2.41517e-09
1.0638e-06
-7.99222e-09
2.41516e-09
1.0638e-06
-7.99151e-09
2.41516e-09
1.0638e-06
-7.99089e-09
2.41515e-09
1.0638e-06
-7.99036e-09
2.41515e-09
1.0638e-06
-7.9899e-09
2.41514e-09
1.0638e-06
-7.9895e-09
2.41514e-09
1.0638e-06
-7.98916e-09
2.41513e-09
1.0638e-06
-7.98886e-09
2.41512e-09
1.0638e-06
-7.9886e-09
2.41512e-09
1.0638e-06
-7.98838e-09
2.41511e-09
1.0638e-06
-7.98818e-09
2.41511e-09
1.0638e-06
-7.98801e-09
2.4151e-09
1.0638e-06
-7.98786e-09
2.4151e-09
1.0638e-06
-7.98773e-09
2.41509e-09
1.0638e-06
-7.98762e-09
2.41508e-09
1.0638e-06
-7.98751e-09
2.41508e-09
1.0638e-06
-7.98742e-09
2.41507e-09
1.0638e-06
-7.98733e-09
2.41507e-09
1.0638e-06
-7.98726e-09
2.41506e-09
1.0638e-06
-7.98719e-09
2.41505e-09
1.0638e-06
-7.98712e-09
2.41505e-09
1.0638e-06
-7.98706e-09
2.41504e-09
1.0638e-06
-7.98701e-09
2.41504e-09
1.0638e-06
-7.98695e-09
2.41503e-09
1.0638e-06
-7.9869e-09
2.41502e-09
1.0638e-06
-7.98684e-09
2.41502e-09
1.0638e-06
-7.98679e-09
2.41501e-09
1.0638e-06
-7.98673e-09
2.41501e-09
1.0638e-06
-7.98668e-09
2.415e-09
1.0638e-06
-7.98662e-09
2.415e-09
1.0638e-06
-7.98656e-09
2.41499e-09
1.0638e-06
-7.98649e-09
2.41498e-09
1.0638e-06
-7.98641e-09
2.41498e-09
1.0638e-06
-7.98633e-09
2.41497e-09
1.0638e-06
-7.98624e-09
2.41497e-09
1.0638e-06
-7.98614e-09
2.41496e-09
1.0638e-06
-7.98603e-09
2.41495e-09
1.0638e-06
-7.9859e-09
2.41495e-09
1.0638e-06
-7.98576e-09
2.41494e-09
1.0638e-06
-7.9856e-09
2.41494e-09
1.0638e-06
-7.98541e-09
2.41493e-09
1.0638e-06
-7.98519e-09
2.41493e-09
1.0638e-06
-7.98495e-09
2.41492e-09
1.0638e-06
-7.98466e-09
2.41492e-09
1.0638e-06
-7.98433e-09
2.41491e-09
1.0638e-06
-7.98395e-09
2.41491e-09
1.0638e-06
-7.98351e-09
2.4149e-09
1.0638e-06
-7.983e-09
2.4149e-09
1.0638e-06
-7.98241e-09
2.41489e-09
1.06379e-06
-7.98172e-09
2.41489e-09
1.06379e-06
-7.98091e-09
2.41488e-09
1.06379e-06
-7.97998e-09
2.41488e-09
1.06379e-06
-7.97889e-09
2.41488e-09
1.06378e-06
-7.97761e-09
2.41487e-09
1.06378e-06
-7.97613e-09
2.41487e-09
1.06378e-06
-7.97441e-09
2.41486e-09
1.06377e-06
-7.9724e-09
2.41486e-09
1.06377e-06
-7.97005e-09
2.41486e-09
1.06376e-06
-7.96731e-09
2.41486e-09
1.06375e-06
-7.96412e-09
2.41485e-09
1.06375e-06
-7.9604e-09
2.41485e-09
1.06374e-06
-7.95605e-09
2.41485e-09
1.06373e-06
-7.95099e-09
2.41486e-09
1.06371e-06
-7.94507e-09
2.41486e-09
1.0637e-06
-7.93817e-09
2.41486e-09
1.06368e-06
-7.93011e-09
2.41487e-09
1.06366e-06
-7.9207e-09
2.41488e-09
1.06363e-06
-7.90971e-09
2.41489e-09
1.0636e-06
-7.89687e-09
2.4149e-09
1.06357e-06
-7.88185e-09
2.41492e-09
1.06353e-06
-7.86429e-09
2.41494e-09
1.06348e-06
-7.84377e-09
2.41497e-09
1.06343e-06
-7.8198e-09
2.415e-09
1.06337e-06
-7.79185e-09
2.41503e-09
1.06329e-06
-7.75924e-09
2.41505e-09
1.06321e-06
-7.72123e-09
2.41507e-09
1.06311e-06
-7.67693e-09
2.41508e-09
1.06299e-06
-7.6253e-09
2.41507e-09
1.06285e-06
-7.56515e-09
2.41506e-09
1.0627e-06
-7.4951e-09
2.41504e-09
1.06251e-06
-7.41355e-09
2.41502e-09
1.0623e-06
-7.31867e-09
2.415e-09
1.06205e-06
-7.20828e-09
2.41498e-09
1.06176e-06
-7.07984e-09
2.41494e-09
1.06142e-06
-6.93021e-09
2.41485e-09
1.06104e-06
-6.75552e-09
2.41464e-09
1.06058e-06
-6.55139e-09
2.41426e-09
1.06006e-06
-6.31289e-09
2.41371e-09
1.05944e-06
-6.03419e-09
2.41302e-09
1.05873e-06
-5.70865e-09
2.41223e-09
1.05789e-06
-5.32937e-09
2.41143e-09
1.05692e-06
-4.88844e-09
2.4106e-09
1.05577e-06
-4.37574e-09
2.40952e-09
1.05444e-06
-3.77842e-09
2.40792e-09
1.05288e-06
-3.08098e-09
2.40579e-09
1.05105e-06
-2.2674e-09
2.4028e-09
1.04892e-06
-1.32256e-09
2.40012e-09
1.04645e-06
-2.24707e-10
2.39728e-09
1.04355e-06
1.08166e-09
2.39079e-09
1.0402e-06
2.52387e-09
2.38642e-09
1.03631e-06
4.22193e-09
2.39157e-09
1.0318e-06
6.1957e-09
2.39034e-09
1.02654e-06
8.49133e-09
2.39072e-09
1.02042e-06
1.11639e-08
2.39018e-09
1.0133e-06
1.42748e-08
2.39022e-09
1.005e-06
1.78968e-08
2.39073e-09
9.95358e-07
2.21109e-08
2.39181e-09
9.8414e-07
2.70004e-08
2.39216e-09
9.71104e-07
3.26592e-08
2.39107e-09
9.5596e-07
3.9196e-08
2.38795e-09
9.38378e-07
4.67366e-08
2.38364e-09
9.17977e-07
5.542e-08
2.3785e-09
8.94323e-07
6.53908e-08
2.37289e-09
8.66932e-07
7.67889e-08
2.36698e-09
8.35268e-07
8.97435e-08
2.36108e-09
7.98746e-07
1.04358e-07
2.35507e-09
7.56747e-07
1.20685e-07
2.3479e-09
7.08644e-07
1.3869e-07
2.33894e-09
6.53835e-07
1.58223e-07
2.3292e-09
5.91803e-07
1.78966e-07
2.32005e-09
5.22209e-07
2.00372e-07
2.3141e-09
4.44966e-07
2.21647e-07
2.32203e-09
3.60332e-07
2.41738e-07
2.35429e-09
2.60101e-07
2.45446e-09
1.15724e-07
-4.38412e-07
1.54918e-09
2.29867e-07
-4.33836e-07
1.56396e-09
3.35675e-07
-4.08961e-07
1.61707e-09
4.31911e-07
-3.79449e-07
1.68231e-09
5.17721e-07
-3.45954e-07
1.74545e-09
5.93161e-07
-3.11111e-07
1.80216e-09
6.58875e-07
-2.76942e-07
1.8522e-09
7.15782e-07
-2.44724e-07
1.89141e-09
7.64886e-07
-2.15144e-07
1.91789e-09
8.0717e-07
-1.88473e-07
1.93422e-09
8.43528e-07
-1.64735e-07
1.94228e-09
8.74763e-07
-1.43805e-07
1.94395e-09
9.01584e-07
-1.25478e-07
1.94071e-09
9.24607e-07
-1.09513e-07
1.93385e-09
9.44367e-07
-9.5658e-08
1.92489e-09
9.61329e-07
-8.36662e-08
1.91506e-09
9.75887e-07
-7.33084e-08
1.90504e-09
9.8838e-07
-6.4374e-08
1.89508e-09
9.991e-07
-5.66733e-08
1.88565e-09
1.0083e-06
-5.00394e-08
1.87709e-09
1.01618e-06
-4.43286e-08
1.8696e-09
1.02294e-06
-3.94177e-08
1.86334e-09
1.02873e-06
-3.52019e-08
1.8585e-09
1.0337e-06
-3.15887e-08
1.85521e-09
1.03796e-06
-2.84942e-08
1.85319e-09
1.04162e-06
-2.58441e-08
1.85185e-09
1.04475e-06
-2.3574e-08
1.85074e-09
1.04745e-06
-2.16293e-08
1.84979e-09
1.04977e-06
-1.99626e-08
1.84929e-09
1.05176e-06
-1.85324e-08
1.84915e-09
1.05347e-06
-1.73041e-08
1.84917e-09
1.05494e-06
-1.62488e-08
1.84929e-09
1.0562e-06
-1.53423e-08
1.8494e-09
1.05728e-06
-1.45636e-08
1.84951e-09
1.05821e-06
-1.38947e-08
1.84958e-09
1.05901e-06
-1.33201e-08
1.8496e-09
1.05969e-06
-1.28267e-08
1.84961e-09
1.06028e-06
-1.24029e-08
1.84959e-09
1.06078e-06
-1.20391e-08
1.84967e-09
1.06121e-06
-1.17267e-08
1.84969e-09
1.06158e-06
-1.14586e-08
1.84972e-09
1.0619e-06
-1.12283e-08
1.84983e-09
1.06217e-06
-1.10307e-08
1.84975e-09
1.06241e-06
-1.0861e-08
1.84965e-09
1.06261e-06
-1.07154e-08
1.84952e-09
1.06278e-06
-1.05905e-08
1.84941e-09
1.06293e-06
-1.04833e-08
1.84939e-09
1.06306e-06
-1.03914e-08
1.84941e-09
1.06317e-06
-1.03126e-08
1.84939e-09
1.06326e-06
-1.0245e-08
1.84933e-09
1.06334e-06
-1.0187e-08
1.84928e-09
1.06341e-06
-1.01372e-08
1.84928e-09
1.06347e-06
-1.00945e-08
1.84931e-09
1.06352e-06
-1.00578e-08
1.84937e-09
1.06357e-06
-1.00264e-08
1.84943e-09
1.0636e-06
-9.9994e-09
1.84948e-09
1.06364e-06
-9.97629e-09
1.84952e-09
1.06366e-06
-9.95647e-09
1.84956e-09
1.06369e-06
-9.93948e-09
1.84959e-09
1.06371e-06
-9.9249e-09
1.84961e-09
1.06372e-06
-9.9124e-09
1.84963e-09
1.06374e-06
-9.90168e-09
1.84965e-09
1.06375e-06
-9.89249e-09
1.84966e-09
1.06376e-06
-9.8846e-09
1.84967e-09
1.06377e-06
-9.87784e-09
1.84968e-09
1.06378e-06
-9.87204e-09
1.84968e-09
1.06379e-06
-9.86707e-09
1.84969e-09
1.06379e-06
-9.8628e-09
1.84969e-09
1.0638e-06
-9.85915e-09
1.84969e-09
1.0638e-06
-9.85601e-09
1.8497e-09
1.06381e-06
-9.85331e-09
1.8497e-09
1.06381e-06
-9.851e-09
1.8497e-09
1.06381e-06
-9.84902e-09
1.8497e-09
1.06381e-06
-9.84732e-09
1.8497e-09
1.06382e-06
-9.84585e-09
1.8497e-09
1.06382e-06
-9.8446e-09
1.8497e-09
1.06382e-06
-9.84351e-09
1.8497e-09
1.06382e-06
-9.84259e-09
1.8497e-09
1.06382e-06
-9.84178e-09
1.8497e-09
1.06382e-06
-9.84109e-09
1.8497e-09
1.06382e-06
-9.8405e-09
1.8497e-09
1.06382e-06
-9.83999e-09
1.8497e-09
1.06382e-06
-9.83954e-09
1.8497e-09
1.06382e-06
-9.83916e-09
1.8497e-09
1.06382e-06
-9.83882e-09
1.8497e-09
1.06382e-06
-9.83853e-09
1.8497e-09
1.06383e-06
-9.83828e-09
1.8497e-09
1.06383e-06
-9.83805e-09
1.8497e-09
1.06383e-06
-9.83786e-09
1.8497e-09
1.06383e-06
-9.83769e-09
1.8497e-09
1.06383e-06
-9.83753e-09
1.8497e-09
1.06383e-06
-9.8374e-09
1.84969e-09
1.06383e-06
-9.83728e-09
1.84969e-09
1.06383e-06
-9.83717e-09
1.84969e-09
1.06383e-06
-9.83707e-09
1.84969e-09
1.06383e-06
-9.83698e-09
1.84969e-09
1.06383e-06
-9.83689e-09
1.84969e-09
1.06383e-06
-9.83681e-09
1.84969e-09
1.06383e-06
-9.83674e-09
1.84969e-09
1.06383e-06
-9.83666e-09
1.84969e-09
1.06383e-06
-9.83659e-09
1.84968e-09
1.06383e-06
-9.83652e-09
1.84968e-09
1.06383e-06
-9.83645e-09
1.84968e-09
1.06383e-06
-9.83638e-09
1.84968e-09
1.06383e-06
-9.8363e-09
1.84968e-09
1.06383e-06
-9.83623e-09
1.84968e-09
1.06383e-06
-9.83614e-09
1.84968e-09
1.06383e-06
-9.83605e-09
1.84968e-09
1.06383e-06
-9.83596e-09
1.84968e-09
1.06383e-06
-9.83585e-09
1.84968e-09
1.06383e-06
-9.83573e-09
1.84968e-09
1.06383e-06
-9.8356e-09
1.84967e-09
1.06383e-06
-9.83546e-09
1.84967e-09
1.06383e-06
-9.83529e-09
1.84967e-09
1.06383e-06
-9.8351e-09
1.84967e-09
1.06382e-06
-9.83489e-09
1.84967e-09
1.06382e-06
-9.83465e-09
1.84967e-09
1.06382e-06
-9.83437e-09
1.84967e-09
1.06382e-06
-9.83405e-09
1.84967e-09
1.06382e-06
-9.83368e-09
1.84967e-09
1.06382e-06
-9.83325e-09
1.84967e-09
1.06382e-06
-9.83275e-09
1.84967e-09
1.06382e-06
-9.83218e-09
1.84967e-09
1.06382e-06
-9.83152e-09
1.84967e-09
1.06382e-06
-9.83075e-09
1.84967e-09
1.06382e-06
-9.82985e-09
1.84967e-09
1.06382e-06
-9.82881e-09
1.84967e-09
1.06381e-06
-9.8276e-09
1.84967e-09
1.06381e-06
-9.82619e-09
1.84968e-09
1.06381e-06
-9.82454e-09
1.84968e-09
1.06381e-06
-9.82263e-09
1.84968e-09
1.0638e-06
-9.82039e-09
1.84969e-09
1.0638e-06
-9.81779e-09
1.84969e-09
1.06379e-06
-9.81475e-09
1.8497e-09
1.06379e-06
-9.81121e-09
1.8497e-09
1.06378e-06
-9.80708e-09
1.84971e-09
1.06377e-06
-9.80226e-09
1.84972e-09
1.06376e-06
-9.79664e-09
1.84973e-09
1.06375e-06
-9.79009e-09
1.84974e-09
1.06374e-06
-9.78244e-09
1.84976e-09
1.06373e-06
-9.77351e-09
1.84978e-09
1.06371e-06
-9.76309e-09
1.84979e-09
1.06369e-06
-9.75093e-09
1.84982e-09
1.06367e-06
-9.73672e-09
1.84984e-09
1.06364e-06
-9.72013e-09
1.84988e-09
1.06361e-06
-9.70072e-09
1.84993e-09
1.06357e-06
-9.67801e-09
1.85e-09
1.06353e-06
-9.65147e-09
1.85009e-09
1.06348e-06
-9.62047e-09
1.8502e-09
1.06342e-06
-9.58429e-09
1.85032e-09
1.06335e-06
-9.54211e-09
1.85044e-09
1.06327e-06
-9.49291e-09
1.85056e-09
1.06318e-06
-9.43556e-09
1.85069e-09
1.06307e-06
-9.36871e-09
1.85083e-09
1.06295e-06
-9.29081e-09
1.85097e-09
1.0628e-06
-9.20009e-09
1.85115e-09
1.06263e-06
-9.09452e-09
1.85138e-09
1.06243e-06
-8.97174e-09
1.85168e-09
1.0622e-06
-8.82909e-09
1.85208e-09
1.06193e-06
-8.66335e-09
1.85257e-09
1.06162e-06
-8.47047e-09
1.85304e-09
1.06126e-06
-8.24494e-09
1.85329e-09
1.06084e-06
-7.98071e-09
1.85312e-09
1.06036e-06
-7.67167e-09
1.85253e-09
1.05979e-06
-7.30994e-09
1.85153e-09
1.05913e-06
-6.88605e-09
1.85021e-09
1.05835e-06
-6.39229e-09
1.8489e-09
1.05745e-06
-5.81935e-09
1.84748e-09
1.05639e-06
-5.1541e-09
1.84546e-09
1.05516e-06
-4.37895e-09
1.84232e-09
1.05371e-06
-3.47136e-09
1.83866e-09
1.05201e-06
-2.40899e-09
1.83422e-09
1.05004e-06
-1.18474e-09
1.83306e-09
1.04773e-06
2.46151e-10
1.8329e-09
1.04505e-06
1.92018e-09
1.83982e-09
1.04193e-06
3.80338e-09
1.84035e-09
1.03832e-06
6.01264e-09
1.82762e-09
1.03413e-06
8.56295e-09
1.83182e-09
1.02925e-06
1.15463e-08
1.82477e-09
1.02357e-06
1.50209e-08
1.82652e-09
1.01695e-06
1.90667e-08
1.82437e-09
1.00924e-06
2.37779e-08
1.82244e-09
1.00026e-06
2.92641e-08
1.82321e-09
9.89817e-07
3.5628e-08
1.82289e-09
9.77662e-07
4.29965e-08
1.82073e-09
9.63525e-07
5.15186e-08
1.81679e-09
9.47086e-07
6.13681e-08
1.81175e-09
9.27966e-07
7.27378e-08
1.80617e-09
9.0573e-07
8.58284e-08
1.80062e-09
8.79882e-07
1.00841e-07
1.79575e-09
8.49859e-07
1.17974e-07
1.79165e-09
8.15027e-07
1.37401e-07
1.78707e-09
7.74686e-07
1.59244e-07
1.78063e-09
7.28085e-07
1.83522e-07
1.77227e-09
6.74447e-07
2.10103e-07
1.76245e-09
6.13039e-07
2.38622e-07
1.75243e-09
5.43277e-07
2.68386e-07
1.74628e-09