/*--------------------------------*- C++ -*----------------------------------*\
| =========                 |                                                 |
| \\      /  F ield         | OpenFOAM: The Open Source CFD Toolbox           |
|  \\    /   O peration     | Version:  2312                                  |
|   \\  /    A nd           | Website:  www.openfoam.com                      |
|    \\/     M anipulation  |                                                 |
\*---------------------------------------------------------------------------*/
FoamFile
{
    version     2.0;
    format      ascii;
    arch        "LSB;label=32;scalar=64";
    class       volScalarField;
    location    "0.05";
    object      p_rgh;
}
// * * * * * * * * * * * * * * * * * * * * * * * * * * * * * * * * * * * * * //

dimensions      [1 -1 -2 0 0 0 0];

internalField   nonuniform List<scalar> 
80000
(
446.549
446.157
445.356
444.166
442.603
440.688
438.446
435.904
433.088
430.027
426.746
423.269
419.619
415.817
411.879
407.823
403.664
399.413
395.082
390.681
386.219
381.704
377.143
372.54
367.903
363.235
358.54
353.821
349.083
344.326
339.555
334.769
329.972
325.165
320.348
315.524
310.693
305.856
301.014
296.168
291.318
286.464
281.608
276.749
271.888
267.025
262.161
257.295
252.427
247.559
242.69
237.82
232.949
228.078
223.206
218.334
213.461
208.588
203.715
198.841
193.967
189.094
184.219
179.345
174.471
169.596
164.722
159.847
154.972
150.098
145.223
140.348
135.473
130.598
125.723
120.848
115.973
111.098
106.223
101.348
96.473
91.5979
86.7229
81.8478
76.9727
72.0976
67.2225
62.3474
57.4723
52.5972
47.722
42.8469
37.9718
33.0967
28.2216
23.3465
18.4713
13.5962
8.72109
3.84596
-1.02916
-5.90428
-10.7794
-15.6545
-20.5297
-25.4048
-30.2799
-35.155
-40.0301
-44.9053
-49.7804
-54.6555
-59.5306
-64.4057
-69.2808
-74.1559
-79.031
-83.9061
-88.7812
-93.6563
-98.5314
-103.406
-108.282
-113.157
-118.032
-122.907
-127.782
-132.657
-137.532
-142.407
-147.281
-152.156
-157.031
-161.906
-166.781
-171.655
-176.53
-181.404
-186.279
-191.153
-196.027
-200.901
-205.775
-210.649
-215.522
-220.395
-225.268
-230.14
-235.012
-239.884
-244.755
-249.625
-254.494
-259.363
-264.23
-269.096
-273.961
-278.824
-283.686
-288.545
-293.402
-298.256
-303.106
-307.952
-312.795
-317.631
-322.462
-327.286
-332.103
-336.91
-341.706
-346.491
-351.261
-356.015
-360.75
-365.464
-370.153
-374.815
-379.446
-384.04
-388.593
-393.097
-397.545
-401.929
-406.242
-410.475
-414.617
-418.657
-422.581
-426.375
-430.023
-433.508
-436.813
-439.92
-442.811
-445.468
-447.873
-450.009
-451.855
-453.438
446.915
446.521
445.712
444.509
442.93
440.995
438.731
436.165
433.327
430.243
426.94
423.443
419.775
415.955
412.002
407.932
403.759
399.497
395.156
390.747
386.277
381.755
377.188
372.58
367.938
363.266
358.568
353.846
349.105
344.346
339.573
334.785
329.987
325.178
320.36
315.535
310.703
305.866
301.023
296.176
291.326
286.472
281.615
276.756
271.895
267.031
262.167
257.3
252.433
247.565
242.695
237.825
232.954
228.083
223.211
218.339
213.466
208.593
203.72
198.846
193.972
189.098
184.224
179.35
174.475
169.601
164.726
159.852
154.977
150.102
145.227
140.353
135.478
130.603
125.728
120.853
115.978
111.103
106.228
101.353
96.4776
91.6025
86.7274
81.8524
76.9773
72.1022
67.2271
62.352
57.4769
52.6017
47.7266
42.8515
37.9764
33.1013
28.2262
23.351
18.4759
13.6008
8.72568
3.85056
-1.02456
-5.89968
-10.7748
-15.6499
-20.525
-25.4002
-30.2753
-35.1504
-40.0255
-44.9006
-49.7758
-54.6509
-59.526
-64.4011
-69.2762
-74.1513
-79.0264
-83.9015
-88.7766
-93.6517
-98.5268
-103.402
-108.277
-113.152
-118.027
-122.902
-127.777
-132.652
-137.527
-142.402
-147.277
-152.152
-157.027
-161.901
-166.776
-171.651
-176.525
-181.4
-186.274
-191.149
-196.023
-200.897
-205.771
-210.644
-215.518
-220.391
-225.264
-230.136
-235.008
-239.88
-244.751
-249.621
-254.491
-259.359
-264.227
-269.093
-273.958
-278.822
-283.683
-288.543
-293.4
-298.254
-303.105
-307.952
-312.794
-317.632
-322.464
-327.289
-332.106
-336.915
-341.713
-346.499
-351.271
-356.027
-360.765
-365.482
-370.175
-374.842
-379.479
-384.08
-388.639
-393.149
-397.604
-401.997
-406.32
-410.564
-414.719
-418.774
-422.713
-426.523
-430.189
-433.692
-437.016
-440.143
-443.053
-445.728
-448.15
-450.306
-452.176
-453.767
447.649
447.25
446.426
445.198
443.585
441.611
439.302
436.689
433.804
430.674
427.327
423.789
420.083
416.228
412.244
408.145
403.948
399.663
395.302
390.875
386.39
381.855
377.275
372.658
368.006
363.326
358.621
353.894
349.147
344.384
339.607
334.816
330.015
325.203
320.383
315.556
310.723
305.883
301.04
296.191
291.34
286.485
281.627
276.768
271.906
267.042
262.177
257.31
252.443
247.574
242.704
237.834
232.963
228.091
223.219
218.347
213.474
208.601
203.727
198.854
193.98
189.106
184.232
179.357
174.483
169.609
164.734
159.859
154.985
150.11
145.235
140.36
135.485
130.61
125.735
120.86
115.985
111.11
106.235
101.36
96.4851
91.61
86.7349
81.8598
76.9847
72.1096
67.2345
62.3594
57.4843
52.6092
47.7341
42.859
37.9839
33.1088
28.2336
23.3585
18.4834
13.6083
8.73317
3.85805
-1.01707
-5.8922
-10.7673
-15.6424
-20.5176
-25.3927
-30.2678
-35.1429
-40.018
-44.8931
-49.7683
-54.6434
-59.5185
-64.3936
-69.2687
-74.1438
-79.0189
-83.894
-88.7691
-93.6442
-98.5193
-103.394
-108.269
-113.144
-118.019
-122.895
-127.77
-132.645
-137.52
-142.394
-147.269
-152.144
-157.019
-161.894
-166.769
-171.643
-176.518
-181.393
-186.267
-191.141
-196.016
-200.89
-205.763
-210.637
-215.511
-220.384
-225.257
-230.129
-235.002
-239.873
-244.744
-249.615
-254.485
-259.354
-264.222
-269.088
-273.954
-278.818
-283.68
-288.54
-293.398
-298.253
-303.105
-307.953
-312.797
-317.637
-322.47
-327.298
-332.118
-336.929
-341.73
-346.52
-351.297
-356.058
-360.801
-365.524
-370.225
-374.9
-379.546
-384.158
-388.729
-393.253
-397.724
-402.134
-406.477
-410.744
-414.923
-419.005
-422.974
-426.816
-430.517
-434.058
-437.421
-440.588
-443.538
-446.252
-448.711
-450.899
-452.806
-454.45
448.75
448.345
447.5
446.236
444.572
442.536
440.158
437.473
434.515
431.314
427.901
424.301
420.537
416.631
412.599
408.458
404.223
399.905
395.515
391.062
386.554
381.999
377.401
372.768
368.103
363.412
358.696
353.96
349.206
344.437
339.653
334.858
330.052
325.237
320.413
315.583
310.747
305.906
301.06
296.21
291.357
286.501
281.642
276.781
271.919
267.054
262.188
257.321
252.453
247.584
242.714
237.843
232.972
228.1
223.228
218.355
213.482
208.609
203.736
198.862
193.988
189.114
184.24
179.365
174.491
169.616
164.742
159.867
154.992
150.117
145.242
140.368
135.493
130.618
125.743
120.868
115.993
111.118
106.243
101.368
96.4925
91.6174
86.7423
81.8672
76.9921
72.117
67.2419
62.3668
57.4917
52.6166
47.7415
42.8664
37.9913
33.1162
28.241
23.3659
18.4908
13.6157
8.74057
3.86545
-1.00967
-5.88479
-10.7599
-15.635
-20.5101
-25.3853
-30.2604
-35.1355
-40.0106
-44.8857
-49.7608
-54.636
-59.5111
-64.3862
-69.2613
-74.1364
-79.0115
-83.8866
-88.7617
-93.6368
-98.5118
-103.387
-108.262
-113.137
-118.012
-122.887
-127.762
-132.637
-137.512
-142.387
-147.262
-152.137
-157.012
-161.887
-166.761
-171.636
-176.511
-181.385
-186.26
-191.134
-196.008
-200.883
-205.757
-210.63
-215.504
-220.377
-225.25
-230.123
-234.995
-239.867
-244.739
-249.61
-254.48
-259.349
-264.217
-269.085
-273.951
-278.815
-283.678
-288.54
-293.399
-298.255
-303.109
-307.959
-312.805
-317.647
-322.483
-327.314
-332.138
-336.953
-341.76
-346.555
-351.338
-356.106
-360.857
-365.59
-370.301
-374.989
-379.649
-384.277
-388.865
-393.41
-397.904
-402.341
-406.714
-411.014
-415.23
-419.351
-423.365
-427.257
-431.011
-434.609
-438.032
-441.259
-444.271
-447.046
-449.562
-451.799
-453.745
-455.448
450.215
449.809
448.94
447.629
445.895
443.772
441.297
438.512
435.454
432.157
428.654
424.97
421.13
417.153
413.059
408.863
404.578
400.216
395.787
391.3
386.762
382.181
377.56
372.907
368.224
363.517
358.789
354.041
349.278
344.5
339.709
334.907
330.096
325.275
320.448
315.614
310.774
305.93
301.081
296.229
291.374
286.516
281.656
276.794
271.93
267.065
262.198
257.33
252.461
247.592
242.721
237.85
232.979
228.107
223.234
218.361
213.488
208.615
203.741
198.867
193.993
189.119
184.245
179.37
174.496
169.621
164.746
159.872
154.997
150.122
145.247
140.372
135.497
130.622
125.747
120.872
115.997
111.122
106.247
101.372
96.4971
91.622
86.7469
81.8718
76.9967
72.1216
67.2465
62.3714
57.4963
52.6212
47.7461
42.871
37.9958
33.1207
28.2456
23.3705
18.4954
13.6203
8.74514
3.87002
-1.00509
-5.88021
-10.7553
-15.6305
-20.5056
-25.3807
-30.2558
-35.1309
-40.006
-44.8812
-49.7563
-54.6314
-59.5065
-64.3816
-69.2567
-74.1318
-79.0069
-83.882
-88.7571
-93.6322
-98.5073
-103.382
-108.257
-113.133
-118.008
-122.883
-127.758
-132.633
-137.508
-142.383
-147.258
-152.132
-157.007
-161.882
-166.757
-171.632
-176.506
-181.381
-186.256
-191.13
-196.004
-200.879
-205.753
-210.627
-215.5
-220.374
-225.247
-230.12
-234.993
-239.865
-244.737
-249.608
-254.478
-259.348
-264.217
-269.085
-273.952
-278.818
-283.682
-288.544
-293.405
-298.263
-303.119
-307.972
-312.821
-317.666
-322.506
-327.34
-332.169
-336.99
-341.803
-346.605
-351.396
-356.172
-360.935
-365.68
-370.407
-375.11
-379.788
-384.437
-389.05
-393.622
-398.147
-402.619
-407.03
-411.374
-415.638
-419.813
-423.887
-427.845
-431.671
-435.347
-438.851
-442.163
-445.26
-448.119
-450.718
-453.033
-455.042
-456.81
452.036
451.641
450.751
449.384
447.559
445.319
442.715
439.797
436.609
433.19
429.572
425.783
421.846
417.783
413.611
409.346
405
400.584
396.108
391.579
387.005
382.391
377.743
373.064
368.36
363.634
358.889
354.129
349.354
344.566
339.767
334.957
330.138
325.311
320.478
315.64
310.796
305.948
301.096
296.242
291.384
286.524
281.662
276.799
271.934
267.067
262.199
257.331
252.461
247.591
242.72
237.848
232.976
228.104
223.231
218.358
213.485
208.611
203.737
198.863
193.989
189.115
184.24
179.366
174.491
169.616
164.742
159.867
154.992
150.117
145.242
140.367
135.492
130.617
125.742
120.867
115.992
111.117
106.242
101.367
96.4921
91.617
86.7419
81.8668
76.9917
72.1166
67.2415
62.3664
57.4913
52.6162
47.7411
42.866
37.9909
33.1158
28.2407
23.3655
18.4904
13.6153
8.74018
3.86506
-1.01006
-5.88518
-10.7603
-15.6354
-20.5105
-25.3856
-30.2608
-35.1359
-40.011
-44.8861
-49.7612
-54.6363
-59.5115
-64.3866
-69.2617
-74.1368
-79.0119
-83.887
-88.7621
-93.6372
-98.5123
-103.387
-108.262
-113.137
-118.013
-122.888
-127.763
-132.638
-137.513
-142.388
-147.263
-152.138
-157.013
-161.887
-166.762
-171.637
-176.512
-181.386
-186.261
-191.136
-196.01
-200.884
-205.759
-210.633
-215.507
-220.38
-225.254
-230.127
-235
-239.872
-244.744
-249.616
-254.487
-259.357
-264.227
-269.096
-273.963
-278.83
-283.696
-288.56
-293.423
-298.283
-303.142
-307.997
-312.85
-317.699
-322.543
-327.383
-332.218
-337.046
-341.867
-346.676
-351.475
-356.265
-361.041
-365.802
-370.546
-375.269
-379.97
-384.643
-389.285
-393.891
-398.454
-402.969
-407.429
-411.826
-416.15
-420.391
-424.54
-428.583
-432.501
-436.276
-439.886
-443.309
-446.517
-449.483
-452.183
-454.592
-456.685
-458.541
454.134
453.801
452.928
451.51
449.573
447.182
444.41
441.323
437.973
434.403
430.646
426.729
422.677
418.511
414.246
409.899
405.481
401.002
396.471
391.894
387.278
382.627
377.946
373.237
368.507
363.758
358.995
354.219
349.432
344.633
339.825
335.006
330.178
325.345
320.505
315.661
310.813
305.961
301.106
296.248
291.388
286.525
281.662
276.796
271.93
267.062
262.193
257.323
252.453
247.582
242.71
237.838
232.966
228.093
223.22
218.346
213.473
208.599
203.725
198.851
193.977
189.102
184.228
179.353
174.478
169.604
164.729
159.854
154.979
150.104
145.229
140.354
135.479
130.604
125.729
120.854
115.979
111.104
106.229
101.354
96.4789
91.6039
86.7288
81.8537
76.9786
72.1035
67.2284
62.3533
57.4781
52.603
47.7279
42.8528
37.9777
33.1026
28.2275
23.3523
18.4772
13.6021
8.72699
3.85188
-1.02324
-5.89836
-10.7735
-15.6486
-20.5237
-25.3988
-30.2739
-35.1491
-40.0242
-44.8993
-49.7744
-54.6495
-59.5246
-64.3997
-69.2749
-74.15
-79.0251
-83.9002
-88.7753
-93.6504
-98.5255
-103.401
-108.276
-113.151
-118.026
-122.901
-127.776
-132.651
-137.526
-142.401
-147.276
-152.151
-157.026
-161.901
-166.776
-171.65
-176.525
-181.4
-186.275
-191.149
-196.024
-200.898
-205.773
-210.647
-215.521
-220.395
-225.268
-230.142
-235.015
-239.888
-244.76
-249.632
-254.504
-259.375
-264.245
-269.114
-273.983
-278.851
-283.718
-288.584
-293.449
-298.313
-303.174
-308.034
-312.891
-317.744
-322.594
-327.439
-332.28
-337.114
-341.942
-346.766
-351.579
-356.383
-361.175
-365.953
-370.717
-375.464
-380.191
-384.894
-389.57
-394.214
-398.823
-403.389
-407.905
-412.365
-416.76
-421.081
-425.321
-429.466
-433.498
-437.396
-441.139
-444.702
-448.057
-451.166
-453.997
-456.521
-458.711
-460.665
456.238
456.091
455.369
453.955
451.899
449.325
446.351
443.064
439.527
435.784
431.869
427.807
423.622
419.337
414.966
410.525
406.025
401.474
396.88
392.248
387.584
382.891
378.172
373.428
368.664
363.889
359.105
354.313
349.512
344.704
339.886
335.056
330.218
325.375
320.528
315.678
310.823
305.966
301.106
296.245
291.381
286.516
281.649
276.781
271.912
267.042
262.172
257.301
252.429
247.557
242.684
237.811
232.938
228.065
223.191
218.317
213.443
208.569
203.694
198.82
193.945
189.071
184.196
179.321
174.446
169.571
164.697
159.822
154.947
150.072
145.197
140.322
135.447
130.572
125.697
120.821
115.946
111.071
106.196
101.321
96.4461
91.571
86.6959
81.8208
76.9457
72.0706
67.1955
62.3203
57.4452
52.5701
47.695
42.8199
37.9448
33.0697
28.1945
23.3194
18.4443
13.5692
8.69407
3.81895
-1.05616
-5.93128
-10.8064
-15.6815
-20.5566
-25.4318
-30.3069
-35.182
-40.0571
-44.9322
-49.8073
-54.6825
-59.5576
-64.4327
-69.3078
-74.1829
-79.058
-83.9331
-88.8082
-93.6833
-98.5584
-103.434
-108.309
-113.184
-118.059
-122.934
-127.809
-132.684
-137.559
-142.434
-147.309
-152.184
-157.059
-161.934
-166.809
-171.684
-176.559
-181.434
-186.309
-191.183
-196.058
-200.933
-205.807
-210.682
-215.556
-220.431
-225.305
-230.179
-235.053
-239.926
-244.8
-249.673
-254.546
-259.418
-264.291
-269.162
-274.033
-278.903
-283.772
-288.639
-293.506
-298.37
-303.234
-308.094
-312.953
-317.81
-322.664
-327.516
-332.363
-337.206
-342.044
-346.877
-351.703
-356.521
-361.329
-366.128
-370.914
-375.687
-380.443
-385.18
-389.895
-394.583
-399.241
-403.865
-408.449
-412.983
-417.46
-421.872
-426.219
-430.49
-434.66
-438.71
-442.619
-446.36
-449.9
-453.198
-456.206
-458.882
-461.188
-463.247
455.485
457.896
458.466
457.218
454.903
451.995
448.71
445.152
441.383
437.437
433.341
429.103
424.76
420.336
415.842
411.293
406.699
402.067
397.402
392.709
387.991
383.25
378.491
373.704
368.893
364.083
359.279
354.47
349.662
344.844
340.012
335.176
330.333
325.484
320.63
315.773
310.913
306.05
301.186
296.321
291.454
286.586
281.716
276.846
271.976
267.104
262.232
257.36
252.487
247.614
242.741
237.867
232.994
228.12
223.246
218.371
213.497
208.622
203.748
198.873
193.998
189.124
184.249
179.374
174.499
169.624
164.749
159.874
154.999
150.124
145.249
140.374
135.499
130.624
125.749
120.874
115.999
111.124
106.249
101.373
96.4984
91.6233
86.7482
81.8731
76.998
72.1229
67.2478
62.3727
57.4976
52.6225
47.7474
42.8723
37.9971
33.122
28.2469
23.3718
18.4967
13.6216
8.74649
3.87138
-1.00373
-5.87884
-10.7539
-15.6291
-20.5042
-25.3793
-30.2544
-35.1295
-40.0046
-44.8797
-49.7548
-54.6299
-59.505
-64.3801
-69.2553
-74.1304
-79.0055
-83.8806
-88.7557
-93.6308
-98.5059
-103.381
-108.256
-113.131
-118.006
-122.881
-127.756
-132.631
-137.507
-142.382
-147.257
-152.132
-157.007
-161.882
-166.757
-171.632
-176.507
-181.382
-186.257
-191.131
-196.006
-200.881
-205.756
-210.63
-215.505
-220.38
-225.254
-230.128
-235.003
-239.877
-244.751
-249.624
-254.498
-259.371
-264.244
-269.117
-273.989
-278.86
-283.731
-288.601
-293.47
-298.338
-303.205
-308.071
-312.935
-317.798
-322.659
-327.518
-332.374
-337.227
-342.076
-346.921
-351.762
-356.596
-361.424
-366.245
-371.057
-375.858
-380.648
-385.423
-390.182
-394.921
-399.637
-404.327
-408.985
-413.602
-418.169
-422.682
-427.151
-431.574
-435.906
-440.134
-444.243
-448.203
-451.981
-455.525
-458.76
-461.615
-464.023
-466.148
296.273
340.476
377.146
398.516
410.399
417.943
422.908
426.016
427.664
428.077
427.489
425.173
422.222
418.882
415.091
411.08
406.935
402.497
397.975
393.401
388.748
383.975
379.188
374.384
369.551
364.709
359.862
355.01
350.155
345.296
340.436
335.575
330.711
325.846
320.98
316.112
311.243
306.374
301.503
296.632
291.761
286.889
282.016
277.143
272.27
267.396
262.523
257.649
252.775
247.901
243.026
238.152
233.277
228.402
223.528
218.653
213.778
208.903
204.028
199.154
194.279
189.404
184.529
179.654
174.779
169.904
165.028
160.153
155.278
150.403
145.528
140.653
135.778
130.903
126.028
121.153
116.278
111.403
106.527
101.652
96.7772
91.9021
87.027
82.1519
77.2768
72.4017
67.5266
62.6515
57.7764
52.9013
48.0261
43.151
38.2759
33.4008
28.5257
23.6506
18.7755
13.9004
9.02525
4.15014
-0.724974
-5.60009
-10.4752
-15.3503
-20.2254
-25.1005
-29.9756
-34.8508
-39.7259
-44.601
-49.4761
-54.3512
-59.2263
-64.1014
-68.9765
-73.8516
-78.7268
-83.6019
-88.477
-93.3521
-98.2272
-103.102
-107.977
-112.852
-117.728
-122.603
-127.478
-132.353
-137.228
-142.103
-146.978
-151.853
-156.728
-161.603
-166.478
-171.354
-176.229
-181.104
-185.979
-190.854
-195.729
-200.604
-205.479
-210.354
-215.229
-220.103
-224.978
-229.853
-234.728
-239.602
-244.477
-249.352
-254.226
-259.1
-263.974
-268.848
-273.722
-278.596
-283.469
-288.342
-293.215
-298.087
-302.958
-307.83
-312.7
-317.57
-322.438
-327.306
-332.173
-337.038
-341.901
-346.763
-351.622
-356.479
-361.332
-366.182
-371.028
-375.868
-380.703
-385.531
-390.349
-395.158
-399.955
-404.738
-409.503
-414.246
-418.965
-423.653
-428.306
-432.916
-437.471
-441.959
-446.366
-450.666
-454.829
-458.8
-462.458
-465.634
-468.162
-470.249
-0.0420084
-0.0414334
-0.0407872
-0.0384132
-0.0353122
-0.0319857
-0.0284204
-0.0244005
-0.0194535
-0.0122513
0.0385364
1.13614
2.18354
3.1128
4.02685
4.80786
5.46182
6.16721
6.7797
7.28322
7.73846
8.18912
8.57733
8.86842
9.08764
9.27376
9.41345
9.51008
9.56962
9.60053
9.60725
9.59325
9.5616
9.5149
9.45543
9.38541
9.30634
9.21943
9.12585
9.02662
8.9226
8.81453
8.70304
8.58864
8.47179
8.35286
8.23217
8.11
7.98657
7.8621
7.73673
7.61062
7.48387
7.35659
7.22886
7.10075
6.97232
6.84362
6.7147
6.58558
6.4563
6.32688
6.19735
6.06773
5.93802
5.80825
5.67842
5.54854
5.41862
5.28866
5.15868
5.02867
4.89865
4.7686
4.63854
4.50847
4.37839
4.24831
4.11821
3.98811
3.85801
3.7279
3.59778
3.46767
3.33755
3.20743
3.07731
2.94719
2.81706
2.68694
2.55681
2.42669
2.29656
2.16643
2.0363
1.90618
1.77605
1.64592
1.51579
1.38566
1.25553
1.1254
0.995274
0.865145
0.735016
0.604887
0.474757
0.344628
0.214498
0.0843687
-0.0457611
-0.175891
-0.306021
-0.436152
-0.566282
-0.696414
-0.826546
-0.956678
-1.08681
-1.21695
-1.34708
-1.47722
-1.60736
-1.7375
-1.86764
-1.99779
-2.12795
-2.2581
-2.38827
-2.51844
-2.64862
-2.77881
-2.90902
-3.03924
-3.16949
-3.29976
-3.43005
-3.56038
-3.69076
-3.82118
-3.95166
-4.08222
-4.21286
-4.34361
-4.47449
-4.60551
-4.73671
-4.86813
-4.99981
-5.1318
-5.26415
-5.39695
-5.53028
-5.66424
-5.79894
-5.93454
-6.07119
-6.20909
-6.34848
-6.48961
-6.63284
-6.77857
-6.92732
-7.07962
-7.23616
-7.39782
-7.56541
-7.73984
-7.92235
-8.1145
-8.31816
-8.5356
-8.77094
-9.02606
-9.30412
-9.60928
-9.94666
-10.3227
-10.7468
-11.2289
-11.7777
-12.4048
-13.1255
-13.9593
-14.9346
-16.0745
-17.4121
-18.9815
-20.8329
-23.0288
-25.6387
-28.7445
-32.4556
-36.9258
-42.4183
-49.4043
-58.6002
-71.6367
-89.696
-111.349
-0.0357497
-0.0353895
-0.0345045
-0.032844
-0.0307091
-0.0283207
-0.0257537
-0.0229662
-0.0198576
-0.0170293
-0.0162974
-0.0191771
-0.0211465
-0.0220458
-0.0223407
-0.022058
-0.0214032
-0.0208237
-0.0201872
-0.019477
-0.0188467
-0.0183694
-0.0179565
-0.0175401
-0.0171243
-0.0167447
-0.0163641
-0.0159469
-0.0155138
-0.0150952
-0.0146961
-0.0143187
-0.0139664
-0.0136426
-0.0133468
-0.0130708
-0.0128206
-0.0126002
-0.0124072
-0.0122383
-0.0120903
-0.0119606
-0.0118466
-0.0117465
-0.0116588
-0.0115821
-0.0115154
-0.0114576
-0.0114076
-0.0113645
-0.0113275
-0.0112959
-0.0112689
-0.011246
-0.0112267
-0.0112105
-0.0111971
-0.0111862
-0.0111774
-0.0111705
-0.0111653
-0.0111616
-0.0111592
-0.011158
-0.0111577
-0.0111584
-0.0111599
-0.0111621
-0.0111649
-0.0111682
-0.011172
-0.0111762
-0.0111807
-0.0111855
-0.0111906
-0.0111958
-0.0112013
-0.0112069
-0.0112126
-0.0112185
-0.0112245
-0.0112306
-0.0112367
-0.011243
-0.0112493
-0.0112556
-0.011262
-0.0112685
-0.011275
-0.0112815
-0.011288
-0.0112946
-0.0113011
-0.0113077
-0.0113143
-0.0113209
-0.0113276
-0.0113342
-0.0113408
-0.0113475
-0.0113541
-0.0113608
-0.0113674
-0.0113741
-0.0113807
-0.0113874
-0.011394
-0.0114006
-0.0114073
-0.0114139
-0.0114205
-0.0114271
-0.0114337
-0.0114403
-0.0114469
-0.0114534
-0.0114599
-0.0114664
-0.0114729
-0.0114793
-0.0114857
-0.011492
-0.0114982
-0.0115044
-0.0115105
-0.0115166
-0.0115225
-0.0115283
-0.011534
-0.0115394
-0.0115448
-0.0115499
-0.0115547
-0.0115593
-0.0115635
-0.0115674
-0.0115708
-0.0115737
-0.011576
-0.0115777
-0.0115786
-0.0115787
-0.0115777
-0.0115757
-0.0115723
-0.0115675
-0.0115611
-0.0115527
-0.0115422
-0.0115294
-0.0115138
-0.0114952
-0.0114732
-0.0114473
-0.0114171
-0.011382
-0.0113414
-0.0112944
-0.0112404
-0.0111784
-0.0111077
-0.0110273
-0.0109364
-0.0108337
-0.0107179
-0.0105878
-0.0104414
-0.0102767
-0.0100915
-0.00988326
-0.00964822
-0.00938089
-0.00908261
-0.00874506
-0.00836458
-0.00793741
-0.00745926
-0.00692369
-0.00633137
-0.00568488
-0.00497879
-0.00421051
-0.0033774
-0.00247793
-0.0015096
-0.000469457
0.000642844
0.00181786
0.00306298
0.00439081
0.00580095
0.00730838
0.00896707
0.010712
0.0124501
0.0141162
0.00894707
0.0120194
-0.00727912
-0.0241768
-0.030477
-0.0301358
-0.0293907
-0.0281739
-0.0265887
-0.0247762
-0.0228449
-0.0209073
-0.0191094
-0.0178383
-0.0177036
-0.018422
-0.0190339
-0.0191922
-0.0190081
-0.018473
-0.0177306
-0.0169985
-0.0162478
-0.0155052
-0.0148271
-0.0142329
-0.0136997
-0.0132043
-0.0127523
-0.0123371
-0.0119427
-0.0115589
-0.0111831
-0.0108205
-0.010474
-0.0101457
-0.00983879
-0.00955607
-0.00929809
-0.00906392
-0.00885362
-0.00866665
-0.00850126
-0.00835527
-0.00822631
-0.00811212
-0.00801086
-0.00792115
-0.00784188
-0.00777202
-0.00771061
-0.00765676
-0.00760967
-0.00756856
-0.00753271
-0.00750149
-0.00747434
-0.00745077
-0.00743034
-0.00741269
-0.0073975
-0.00738447
-0.00737337
-0.00736398
-0.00735609
-0.00734953
-0.00734416
-0.00733984
-0.00733645
-0.00733388
-0.00733204
-0.00733083
-0.00733018
-0.00733001
-0.00733026
-0.00733086
-0.00733178
-0.00733296
-0.00733437
-0.00733597
-0.00733774
-0.00733966
-0.00734171
-0.00734387
-0.00734614
-0.00734849
-0.00735092
-0.00735342
-0.00735598
-0.00735859
-0.00736123
-0.00736392
-0.00736664
-0.00736938
-0.00737214
-0.00737493
-0.00737773
-0.00738055
-0.00738338
-0.00738621
-0.00738906
-0.00739192
-0.00739478
-0.00739764
-0.00740051
-0.00740338
-0.00740625
-0.00740912
-0.00741199
-0.00741486
-0.00741773
-0.00742059
-0.00742345
-0.00742631
-0.00742915
-0.00743198
-0.00743481
-0.00743762
-0.00744041
-0.00744319
-0.00744594
-0.00744867
-0.00745137
-0.00745403
-0.00745666
-0.00745924
-0.00746177
-0.00746423
-0.00746663
-0.00746894
-0.00747116
-0.00747328
-0.00747527
-0.00747711
-0.00747879
-0.00748028
-0.00748155
-0.00748257
-0.00748331
-0.00748372
-0.00748375
-0.00748334
-0.00748243
-0.00748094
-0.00747879
-0.00747589
-0.00747213
-0.0074674
-0.00746155
-0.00745446
-0.00744595
-0.00743584
-0.00742392
-0.00740998
-0.00739375
-0.00737497
-0.00735334
-0.0073285
-0.00730006
-0.0072676
-0.0072306
-0.00718849
-0.00714065
-0.00708636
-0.0070249
-0.00695565
-0.00687781
-0.00679048
-0.00669275
-0.00658355
-0.0064615
-0.00632521
-0.00617345
-0.00600477
-0.00581694
-0.0056068
-0.00537072
-0.00510743
-0.00481382
-0.00448675
-0.00412334
-0.00372041
-0.00327461
-0.00278558
-0.00225313
-0.00167445
-0.00104569
-0.000361946
0.000382147
0.00118852
0.00205757
0.00297609
0.0039454
0.004973
0.00605463
0.00715682
0.00821314
0.00920859
0.0102251
0.0109919
0.011222
0.0150359
0.0166957
0.0171307
-0.0258825
-0.0255832
-0.0249731
-0.0240342
-0.0228211
-0.0214309
-0.0199516
-0.0184976
-0.0171775
-0.0161545
-0.0155681
-0.0153182
-0.0150808
-0.0146962
-0.0141562
-0.0134801
-0.0127389
-0.012001
-0.0112779
-0.0105945
-0.00996595
-0.00940059
-0.00888636
-0.00841594
-0.00798563
-0.00758765
-0.00721329
-0.00686007
-0.00652316
-0.00620005
-0.00589169
-0.00559941
-0.00532723
-0.00507822
-0.00485194
-0.00464763
-0.00446415
-0.00430003
-0.00415381
-0.00402418
-0.00390914
-0.0038065
-0.00371473
-0.00363285
-0.00356003
-0.00349548
-0.0034384
-0.00338803
-0.00334365
-0.00330458
-0.00327019
-0.00323993
-0.0032133
-0.00318987
-0.00316927
-0.00315117
-0.00313528
-0.00312134
-0.00310914
-0.00309848
-0.00308919
-0.00308112
-0.00307411
-0.00306807
-0.00306287
-0.00305842
-0.00305463
-0.00305142
-0.00304872
-0.00304646
-0.00304458
-0.00304303
-0.00304176
-0.00304072
-0.0030399
-0.00303925
-0.00303875
-0.00303839
-0.00303815
-0.00303802
-0.00303798
-0.00303802
-0.00303814
-0.00303831
-0.00303854
-0.00303882
-0.00303913
-0.00303948
-0.00303986
-0.00304026
-0.00304068
-0.00304112
-0.00304157
-0.00304204
-0.00304252
-0.00304301
-0.00304351
-0.00304401
-0.00304452
-0.00304503
-0.00304555
-0.00304607
-0.00304659
-0.00304711
-0.00304763
-0.00304815
-0.00304866
-0.00304918
-0.00304968
-0.00305019
-0.00305068
-0.00305117
-0.00305165
-0.00305211
-0.00305256
-0.00305299
-0.0030534
-0.00305379
-0.00305416
-0.00305449
-0.00305478
-0.00305504
-0.00305524
-0.0030554
-0.00305548
-0.0030555
-0.00305542
-0.00305525
-0.00305497
-0.00305456
-0.00305399
-0.00305326
-0.00305232
-0.00305116
-0.00304973
-0.003048
-0.00304592
-0.00304345
-0.00304051
-0.00303705
-0.00303299
-0.00302824
-0.00302271
-0.00301629
-0.00300887
-0.00300031
-0.00299046
-0.00297917
-0.00296625
-0.0029515
-0.00293469
-0.00291558
-0.0028939
-0.00286935
-0.00284158
-0.00281022
-0.00277485
-0.00273498
-0.00269001
-0.00263927
-0.00258195
-0.00251738
-0.00244491
-0.00236383
-0.00227339
-0.00217264
-0.00206016
-0.00193492
-0.00179644
-0.00164401
-0.0014761
-0.0012908
-0.0010865
-0.000860717
-0.000610949
-0.000334874
-3.06905e-05
0.000302998
0.000667052
0.00106219
0.00149231
0.0019608
0.00247218
0.00303241
0.00364202
0.00430491
0.00502557
0.00581425
0.00668426
0.0075767
0.00848166
0.00945094
0.010465
0.0114967
0.0122899
0.0128841
0.0134558
0.0140464
0.0146762
0.015018
-0.0216138
-0.0213815
-0.0208957
-0.0201667
-0.0192413
-0.0181788
-0.017047
-0.0159203
-0.0148812
-0.0140043
-0.0133319
-0.012818
-0.0123449
-0.0118316
-0.0112582
-0.0106337
-0.00998998
-0.00935743
-0.00875169
-0.00817766
-0.00764884
-0.00716353
-0.00672022
-0.0063093
-0.00593064
-0.0055788
-0.00524868
-0.00493951
-0.00464678
-0.00436646
-0.00410021
-0.00384731
-0.00361315
-0.00340127
-0.00320906
-0.00303505
-0.00287802
-0.0027368
-0.00261031
-0.00249804
-0.00239811
-0.00230842
-0.00222793
-0.00215594
-0.0020919
-0.00203511
-0.00198488
-0.00194054
-0.00190144
-0.00186699
-0.00183663
-0.00180989
-0.00178634
-0.0017656
-0.00174734
-0.00173128
-0.00171716
-0.00170476
-0.0016939
-0.00168439
-0.00167608
-0.00166885
-0.00166256
-0.00165712
-0.00165243
-0.0016484
-0.00164496
-0.00164203
-0.00163955
-0.00163746
-0.0016357
-0.00163423
-0.00163301
-0.001632
-0.00163117
-0.00163049
-0.00162996
-0.00162954
-0.00162922
-0.00162901
-0.00162887
-0.00162881
-0.00162881
-0.00162886
-0.00162897
-0.00162911
-0.00162929
-0.0016295
-0.00162973
-0.00162998
-0.00163025
-0.00163054
-0.00163084
-0.00163116
-0.00163148
-0.00163181
-0.00163215
-0.0016325
-0.00163285
-0.0016332
-0.00163356
-0.00163392
-0.00163428
-0.00163464
-0.001635
-0.00163535
-0.00163571
-0.00163606
-0.00163641
-0.00163676
-0.00163709
-0.00163743
-0.00163775
-0.00163806
-0.00163835
-0.00163864
-0.0016389
-0.00163915
-0.00163937
-0.00163956
-0.00163973
-0.00163985
-0.00163994
-0.00163997
-0.00163995
-0.00163986
-0.0016397
-0.00163946
-0.00163911
-0.00163865
-0.00163806
-0.00163731
-0.00163639
-0.00163528
-0.00163393
-0.00163231
-0.00163039
-0.00162811
-0.00162544
-0.0016223
-0.00161864
-0.00161438
-0.00160943
-0.00160371
-0.00159711
-0.00158951
-0.0015808
-0.00157082
-0.00155942
-0.00154643
-0.00153165
-0.00151487
-0.00149587
-0.00147439
-0.00145015
-0.00142284
-0.00139212
-0.00135759
-0.00131877
-0.00127494
-0.00122514
-0.00116874
-0.00110528
-0.00103414
-0.000954703
-0.00086615
-0.000766743
-0.00065585
-0.000534022
-0.000401628
-0.000257001
-9.83367e-05
7.63713e-05
0.000269334
0.000481686
0.000714946
0.000970225
0.0012478
0.00154794
0.00187091
0.00222444
0.00260868
0.00302373
0.00346378
0.00393932
0.0044552
0.00501317
0.00560778
0.00622717
0.00692471
0.00769111
0.00846304
0.00923311
0.00997034
0.0106189
0.0111864
0.0116795
0.0120701
0.0123695
0.0125667
-0.0175973
-0.0174105
-0.0170303
-0.016474
-0.0157757
-0.0149782
-0.0141219
-0.0132521
-0.012423
-0.0116828
-0.0110479
-0.0104994
-0.00999009
-0.00948082
-0.00895715
-0.00842105
-0.00788566
-0.007365
-0.00686813
-0.00639854
-0.00596119
-0.00555521
-0.00517921
-0.00482858
-0.00450149
-0.00419464
-0.00390526
-0.00363265
-0.0033797
-0.00314956
-0.00293988
-0.0027503
-0.00257445
-0.00240836
-0.00225425
-0.00211287
-0.00198409
-0.0018673
-0.00176146
-0.0016649
-0.00157742
-0.00149932
-0.0014299
-0.00136822
-0.00131341
-0.00126482
-0.00122186
-0.00118395
-0.00115052
-0.00112105
-0.00109508
-0.00107219
-0.00105202
-0.00103425
-0.00101861
-0.00100484
-0.000992732
-0.000982094
-0.000972763
-0.000964592
-0.000957449
-0.000951222
-0.000945807
-0.000941116
-0.000937069
-0.000933591
-0.000930616
-0.000928082
-0.000925931
-0.000924114
-0.000922583
-0.000921298
-0.000920223
-0.000919327
-0.000918586
-0.000917978
-0.000917486
-0.000917098
-0.0009168
-0.000916583
-0.000916437
-0.000916353
-0.000916324
-0.000916342
-0.0009164
-0.000916493
-0.000916615
-0.000916762
-0.000916931
-0.000917118
-0.000917321
-0.000917538
-0.000917766
-0.000918005
-0.000918252
-0.000918506
-0.000918766
-0.000919031
-0.000919301
-0.000919573
-0.000919848
-0.000920125
-0.000920403
-0.000920681
-0.000920959
-0.000921235
-0.00092151
-0.000921783
-0.000922052
-0.000922316
-0.000922576
-0.000922829