/*--------------------------------*- C++ -*----------------------------------*\
| =========                 |                                                 |
| \\      /  F ield         | OpenFOAM: The Open Source CFD Toolbox           |
|  \\    /   O peration     | Version:  2312                                  |
|   \\  /    A nd           | Website:  www.openfoam.com                      |
|    \\/     M anipulation  |                                                 |
\*---------------------------------------------------------------------------*/
FoamFile
{
    version     2.0;
    format      ascii;
    arch        "LSB;label=32;scalar=64";
    class       volVectorField;
    location    "0.05";
    object      U;
}
// * * * * * * * * * * * * * * * * * * * * * * * * * * * * * * * * * * * * * //

dimensions      [0 1 -1 0 0 0 0];

internalField   nonuniform List<vector> 
80000
(
(0.00226201 -0.00232172 0.000149288)
(0.00677802 -0.00231229 0.000148815)
(0.0111816 -0.00220552 0.000148682)
(0.0153516 -0.0020786 0.000148814)
(0.0192425 -0.00192789 0.000149118)
(0.0228168 -0.00176343 0.000149477)
(0.026056 -0.0015947 0.000149777)
(0.0289592 -0.00142908 0.00014999)
(0.031538 -0.00127174 0.000150123)
(0.0338122 -0.00112577 0.000150147)
(0.0358065 -0.00099267 0.000150038)
(0.037548 -0.000872956 0.000149799)
(0.0390635 -0.000766464 0.000149406)
(0.0403786 -0.000672517 0.000148907)
(0.0415176 -0.000590073 0.000148371)
(0.0425025 -0.000518025 0.000147855)
(0.0433531 -0.000455327 0.000147345)
(0.0440871 -0.000400919 0.000146855)
(0.04472 -0.000353766 0.000146412)
(0.0452653 -0.000312961 0.00014602)
(0.045735 -0.000277712 0.000145671)
(0.0461393 -0.000247291 0.000145368)
(0.0464873 -0.000221054 0.000145117)
(0.0467866 -0.000198456 0.000144917)
(0.0470442 -0.000179018 0.000144763)
(0.0472657 -0.000162318 0.000144648)
(0.0474563 -0.00014798 0.000144569)
(0.0476203 -0.000135671 0.00014452)
(0.0477615 -0.000125101 0.000144496)
(0.0478831 -0.000116019 0.000144492)
(0.0479877 -0.000108206 0.000144501)
(0.0480779 -0.000101478 0.000144518)
(0.0481555 -9.56797e-05 0.000144539)
(0.0482223 -9.06831e-05 0.00014456)
(0.0482797 -8.63786e-05 0.000144577)
(0.0483292 -8.26711e-05 0.000144591)
(0.0483717 -7.94778e-05 0.000144602)
(0.0484083 -7.67272e-05 0.000144612)
(0.0484397 -7.43584e-05 0.000144621)
(0.0484668 -7.23195e-05 0.000144628)
(0.0484901 -7.05654e-05 0.000144632)
(0.0485101 -6.90565e-05 0.000144634)
(0.0485273 -6.77585e-05 0.000144636)
(0.0485421 -6.66419e-05 0.00014464)
(0.0485548 -6.5681e-05 0.000144639)
(0.0485658 -6.48543e-05 0.000144634)
(0.0485753 -6.4143e-05 0.00014463)
(0.0485834 -6.35309e-05 0.000144627)
(0.0485904 -6.30039e-05 0.000144623)
(0.0485964 -6.25502e-05 0.000144618)
(0.0486016 -6.21602e-05 0.000144616)
(0.048606 -6.18252e-05 0.000144616)
(0.0486098 -6.15375e-05 0.000144616)
(0.0486131 -6.12905e-05 0.000144617)
(0.0486159 -6.10784e-05 0.000144619)
(0.0486184 -6.08961e-05 0.00014462)
(0.0486204 -6.07394e-05 0.00014462)
(0.0486222 -6.06047e-05 0.000144621)
(0.0486237 -6.04891e-05 0.000144621)
(0.0486251 -6.03897e-05 0.000144622)
(0.0486262 -6.03044e-05 0.000144622)
(0.0486272 -6.02311e-05 0.000144622)
(0.048628 -6.01681e-05 0.000144622)
(0.0486287 -6.0114e-05 0.000144623)
(0.0486293 -6.00675e-05 0.000144623)
(0.0486299 -6.00276e-05 0.000144623)
(0.0486303 -5.99933e-05 0.000144623)
(0.0486307 -5.99639e-05 0.000144623)
(0.048631 -5.99386e-05 0.000144623)
(0.0486313 -5.99169e-05 0.000144623)
(0.0486316 -5.98983e-05 0.000144622)
(0.0486318 -5.98823e-05 0.000144622)
(0.0486319 -5.98685e-05 0.000144622)
(0.0486321 -5.98567e-05 0.000144622)
(0.0486322 -5.98466e-05 0.000144622)
(0.0486324 -5.98378e-05 0.000144622)
(0.0486324 -5.98304e-05 0.000144622)
(0.0486325 -5.98239e-05 0.000144622)
(0.0486326 -5.98184e-05 0.000144621)
(0.0486327 -5.98136e-05 0.000144621)
(0.0486327 -5.98095e-05 0.000144621)
(0.0486328 -5.9806e-05 0.000144621)
(0.0486328 -5.9803e-05 0.000144621)
(0.0486328 -5.98004e-05 0.000144621)
(0.0486329 -5.97981e-05 0.00014462)
(0.0486329 -5.97962e-05 0.00014462)
(0.0486329 -5.97945e-05 0.00014462)
(0.0486329 -5.9793e-05 0.00014462)
(0.0486329 -5.97918e-05 0.00014462)
(0.048633 -5.97907e-05 0.000144619)
(0.048633 -5.97897e-05 0.000144619)
(0.048633 -5.97889e-05 0.000144619)
(0.048633 -5.97881e-05 0.000144619)
(0.048633 -5.97875e-05 0.000144619)
(0.048633 -5.97869e-05 0.000144618)
(0.048633 -5.97864e-05 0.000144618)
(0.048633 -5.97859e-05 0.000144618)
(0.048633 -5.97854e-05 0.000144618)
(0.048633 -5.9785e-05 0.000144618)
(0.048633 -5.97846e-05 0.000144617)
(0.048633 -5.97842e-05 0.000144617)
(0.048633 -5.97839e-05 0.000144617)
(0.048633 -5.97835e-05 0.000144617)
(0.048633 -5.97831e-05 0.000144617)
(0.048633 -5.97827e-05 0.000144616)
(0.048633 -5.97822e-05 0.000144616)
(0.048633 -5.97818e-05 0.000144616)
(0.048633 -5.97813e-05 0.000144616)
(0.048633 -5.97807e-05 0.000144616)
(0.048633 -5.97801e-05 0.000144615)
(0.048633 -5.97794e-05 0.000144615)
(0.048633 -5.97786e-05 0.000144615)
(0.048633 -5.97777e-05 0.000144615)
(0.0486329 -5.97766e-05 0.000144615)
(0.0486329 -5.97754e-05 0.000144614)
(0.0486329 -5.9774e-05 0.000144614)
(0.0486329 -5.97725e-05 0.000144614)
(0.0486329 -5.97706e-05 0.000144614)
(0.0486328 -5.97685e-05 0.000144614)
(0.0486328 -5.9766e-05 0.000144614)
(0.0486328 -5.97631e-05 0.000144613)
(0.0486327 -5.97598e-05 0.000144613)
(0.0486327 -5.97559e-05 0.000144613)
(0.0486326 -5.97514e-05 0.000144613)
(0.0486326 -5.97462e-05 0.000144613)
(0.0486325 -5.97401e-05 0.000144613)
(0.0486324 -5.9733e-05 0.000144613)
(0.0486323 -5.97248e-05 0.000144613)
(0.0486322 -5.97152e-05 0.000144613)
(0.048632 -5.9704e-05 0.000144613)
(0.0486318 -5.9691e-05 0.000144613)
(0.0486316 -5.96758e-05 0.000144613)
(0.0486314 -5.96581e-05 0.000144613)
(0.0486311 -5.96375e-05 0.000144613)
(0.0486308 -5.96135e-05 0.000144613)
(0.0486305 -5.95855e-05 0.000144614)
(0.04863 -5.95529e-05 0.000144614)
(0.0486295 -5.95148e-05 0.000144615)
(0.0486289 -5.94704e-05 0.000144615)
(0.0486283 -5.94186e-05 0.000144616)
(0.0486275 -5.93582e-05 0.000144616)
(0.0486265 -5.92878e-05 0.000144617)
(0.0486255 -5.92058e-05 0.000144618)
(0.0486242 -5.911e-05 0.000144619)
(0.0486227 -5.89984e-05 0.00014462)
(0.048621 -5.88683e-05 0.000144622)
(0.048619 -5.87165e-05 0.000144624)
(0.0486167 -5.85397e-05 0.000144626)
(0.0486139 -5.83336e-05 0.000144628)
(0.0486108 -5.80938e-05 0.000144631)
(0.0486071 -5.7815e-05 0.000144634)
(0.0486028 -5.74912e-05 0.000144636)
(0.0485977 -5.71151e-05 0.000144637)
(0.0485919 -5.66784e-05 0.000144637)
(0.0485851 -5.61708e-05 0.000144636)
(0.0485772 -5.55805e-05 0.000144632)
(0.0485681 -5.48931e-05 0.000144626)
(0.0485575 -5.40923e-05 0.000144615)
(0.0485452 -5.31593e-05 0.0001446)
(0.0485308 -5.20726e-05 0.00014458)
(0.0485142 -5.08061e-05 0.000144554)
(0.0484949 -4.93293e-05 0.000144522)
(0.0484725 -4.76066e-05 0.000144485)
(0.0484465 -4.55971e-05 0.000144443)
(0.0484162 -4.32543e-05 0.0001444)
(0.0483809 -4.0525e-05 0.000144357)
(0.0483397 -3.73485e-05 0.000144314)
(0.0482918 -3.36546e-05 0.000144267)
(0.048236 -2.93604e-05 0.000144211)
(0.0481709 -2.43693e-05 0.000144135)
(0.048095 -1.85732e-05 0.000144039)
(0.0480066 -1.18427e-05 0.000143918)
(0.0479038 -4.01504e-06 0.000143746)
(0.0477841 5.10867e-06 0.000143503)
(0.047645 1.56947e-05 0.000143386)
(0.0474831 2.79312e-05 0.000143489)
(0.0472949 4.20839e-05 0.000143515)
(0.0470763 5.84072e-05 0.000143461)
(0.0468227 7.72317e-05 0.000143374)
(0.0465287 9.89931e-05 0.000143292)
(0.0461876 0.000124197 0.000143235)
(0.0457922 0.000153405 0.0001432)
(0.0453338 0.000187226 0.000143176)
(0.0448027 0.000226298 0.000143124)
(0.0441879 0.000271281 0.000143024)
(0.0434768 0.000322891 0.000142848)
(0.0426553 0.000381961 0.000142557)
(0.0417077 0.000449386 0.000142215)
(0.0406164 0.000526066 0.000141849)
(0.0393618 0.000612796 0.000141453)
(0.0379233 0.000710187 0.000141042)
(0.0362791 0.000818574 0.000140615)
(0.0344074 0.000937804 0.000140165)
(0.0322871 0.001067 0.000139683)
(0.0298998 0.00120442 0.000139208)
(0.0272315 0.00134742 0.000138873)
(0.0242749 0.00149202 0.000138862)
(0.0210269 0.00163279 0.00013941)
(0.017607 0.00176103 0.000140796)
(0.0122544 0.00188221 0.000144202)
(0.00231045 -0.00700862 0.00013816)
(0.00692944 -0.00698557 0.000137873)
(0.0114231 -0.00665549 0.000138228)
(0.0156619 -0.00626419 0.000138921)
(0.0195995 -0.00580139 0.000139817)
(0.0231997 -0.00529849 0.000140775)
(0.0264474 -0.00478471 0.000141616)
(0.0293458 -0.00428235 0.000142183)
(0.0319107 -0.00380648 0.000142576)
(0.0341659 -0.00336614 0.000142804)
(0.0361385 -0.00296576 0.000142823)
(0.0378573 -0.00260654 0.000142647)
(0.0393504 -0.00228744 0.000142334)
(0.0406444 -0.00200612 0.000141907)
(0.041764 -0.00175946 0.000141411)
(0.0427313 -0.00154414 0.00014088)
(0.0435661 -0.00135683 0.000140353)
(0.0442861 -0.00119429 0.000139857)
(0.0449067 -0.00105348 0.000139403)
(0.0454413 -0.000931685 0.000138986)
(0.0459016 -0.00082647 0.000138615)
(0.0462977 -0.000735656 0.000138301)
(0.0466385 -0.000657351 0.000138042)
(0.0469317 -0.000589921 0.000137836)
(0.0471839 -0.000531934 0.000137677)
(0.0474008 -0.00048212 0.000137561)
(0.0475874 -0.000439356 0.000137485)
(0.047748 -0.000402653 0.000137443)
(0.0478862 -0.000371146 0.000137429)
(0.0480052 -0.000344074 0.000137436)
(0.0481078 -0.000320784 0.000137455)
(0.0481961 -0.000300724 0.00013748)
(0.0482721 -0.000283435 0.000137505)
(0.0483375 -0.000268533 0.000137527)
(0.0483938 -0.000255693 0.000137545)
(0.0484423 -0.000244632 0.000137558)
(0.0484839 -0.000235102 0.000137569)
(0.0485197 -0.000226894 0.000137578)
(0.0485505 -0.000219825 0.000137588)
(0.048577 -0.000213739 0.000137595)
(0.0485998 -0.000208503 0.000137597)
(0.0486194 -0.000203998 0.000137597)
(0.0486362 -0.000200124 0.000137599)
(0.0486508 -0.000196791 0.000137603)
(0.0486632 -0.000193922 0.000137601)
(0.048674 -0.000191453 0.000137593)
(0.0486832 -0.000189331 0.000137589)
(0.0486912 -0.000187508 0.00013759)
(0.048698 -0.000185939 0.000137591)
(0.0487039 -0.00018459 0.000137593)
(0.048709 -0.000183429 0.000137595)
(0.0487133 -0.000182432 0.000137597)
(0.0487171 -0.000181574 0.000137599)
(0.0487203 -0.000180838 0.000137599)
(0.048723 -0.000180205 0.000137601)
(0.0487254 -0.000179661 0.000137602)
(0.0487274 -0.000179194 0.000137604)
(0.0487292 -0.000178792 0.000137605)
(0.0487307 -0.000178447 0.000137606)
(0.048732 -0.000178151 0.000137607)
(0.0487331 -0.000177896 0.000137607)
(0.048734 -0.000177677 0.000137608)
(0.0487348 -0.000177488 0.000137608)
(0.0487355 -0.000177327 0.000137608)
(0.0487361 -0.000177187 0.000137608)
(0.0487367 -0.000177068 0.000137608)
(0.0487371 -0.000176965 0.000137608)
(0.0487375 -0.000176877 0.000137608)
(0.0487378 -0.0001768 0.000137608)
(0.0487381 -0.000176735 0.000137608)
(0.0487383 -0.000176679 0.000137608)
(0.0487385 -0.00017663 0.000137608)
(0.0487387 -0.000176588 0.000137608)
(0.0487389 -0.000176552 0.000137607)
(0.048739 -0.000176521 0.000137607)
(0.0487391 -0.000176494 0.000137607)
(0.0487392 -0.000176471 0.000137607)
(0.0487393 -0.000176451 0.000137606)
(0.0487394 -0.000176434 0.000137606)
(0.0487394 -0.000176419 0.000137606)
(0.0487395 -0.000176406 0.000137605)
(0.0487395 -0.000176395 0.000137605)
(0.0487395 -0.000176385 0.000137605)
(0.0487396 -0.000176376 0.000137604)
(0.0487396 -0.000176369 0.000137604)
(0.0487396 -0.000176362 0.000137604)
(0.0487397 -0.000176356 0.000137603)
(0.0487397 -0.000176351 0.000137603)
(0.0487397 -0.000176346 0.000137603)
(0.0487397 -0.000176342 0.000137602)
(0.0487397 -0.000176338 0.000137602)
(0.0487397 -0.000176335 0.000137602)
(0.0487397 -0.000176332 0.000137601)
(0.0487397 -0.000176329 0.000137601)
(0.0487397 -0.000176326 0.000137601)
(0.0487397 -0.000176324 0.0001376)
(0.0487397 -0.000176322 0.0001376)
(0.0487397 -0.00017632 0.0001376)
(0.0487397 -0.000176317 0.000137599)
(0.0487398 -0.000176315 0.000137599)
(0.0487398 -0.000176313 0.000137599)
(0.0487398 -0.000176311 0.000137598)
(0.0487398 -0.000176309 0.000137598)
(0.0487398 -0.000176307 0.000137598)
(0.0487397 -0.000176305 0.000137597)
(0.0487397 -0.000176303 0.000137597)
(0.0487397 -0.000176301 0.000137596)
(0.0487397 -0.000176299 0.000137596)
(0.0487397 -0.000176296 0.000137596)
(0.0487397 -0.000176293 0.000137595)
(0.0487397 -0.00017629 0.000137595)
(0.0487397 -0.000176287 0.000137595)
(0.0487397 -0.000176283 0.000137594)
(0.0487397 -0.00017628 0.000137594)
(0.0487397 -0.000176275 0.000137594)
(0.0487397 -0.00017627 0.000137593)
(0.0487396 -0.000176265 0.000137593)
(0.0487396 -0.000176258 0.000137593)
(0.0487396 -0.000176251 0.000137593)
(0.0487396 -0.000176243 0.000137592)
(0.0487395 -0.000176233 0.000137592)
(0.0487395 -0.000176223 0.000137592)
(0.0487394 -0.00017621 0.000137591)
(0.0487394 -0.000176196 0.000137591)
(0.0487393 -0.00017618 0.000137591)
(0.0487392 -0.000176161 0.000137591)
(0.0487391 -0.000176139 0.000137591)
(0.048739 -0.000176113 0.00013759)
(0.0487389 -0.000176084 0.00013759)
(0.0487388 -0.00017605 0.00013759)
(0.0487386 -0.00017601 0.00013759)
(0.0487384 -0.000175964 0.00013759)
(0.0487382 -0.00017591 0.00013759)
(0.0487379 -0.000175848 0.000137589)
(0.0487376 -0.000175776 0.000137589)
(0.0487372 -0.000175691 0.00013759)
(0.0487368 -0.000175593 0.00013759)
(0.0487363 -0.000175479 0.00013759)
(0.0487358 -0.000175346 0.00013759)
(0.0487351 -0.000175191 0.000137591)
(0.0487343 -0.000175011 0.000137591)
(0.0487334 -0.000174801 0.000137592)
(0.0487324 -0.000174556 0.000137593)
(0.0487311 -0.000174271 0.000137594)
(0.0487297 -0.000173939 0.000137596)
(0.048728 -0.000173552 0.000137598)
(0.0487261 -0.000173101 0.000137601)
(0.0487238 -0.000172575 0.000137604)
(0.0487211 -0.000171962 0.000137607)
(0.048718 -0.000171249 0.000137611)
(0.0487144 -0.000170419 0.000137615)
(0.0487102 -0.000169454 0.000137619)
(0.0487052 -0.000168333 0.000137623)
(0.0486995 -0.00016703 0.000137625)
(0.0486929 -0.000165515 0.000137627)
(0.0486852 -0.000163752 0.000137626)
(0.0486762 -0.000161696 0.000137622)
(0.0486658 -0.0001593 0.000137615)
(0.0486537 -0.000156506 0.000137602)
(0.0486397 -0.000153252 0.000137583)
(0.0486235 -0.00014946 0.000137559)
(0.0486046 -0.000145038 0.000137528)
(0.0485827 -0.000139881 0.000137488)
(0.0485572 -0.000133868 0.000137443)
(0.0485275 -0.000126863 0.000137393)
(0.048493 -0.000118711 0.000137341)
(0.0484528 -0.000109237 0.000137288)
(0.0484059 -9.82339e-05 0.000137229)
(0.0483512 -8.54527e-05 0.000137158)
(0.0482875 -7.05989e-05 0.000137075)
(0.0482132 -5.3342e-05 0.000136972)
(0.0481267 -3.33001e-05 0.000136831)
(0.0480259 -9.99234e-06 0.000136654)
(0.0479088 1.71261e-05 0.0001364)
(0.0477731 4.84458e-05 0.000135864)
(0.0476162 8.43465e-05 0.00013621)
(0.0474348 0.000126086 0.000136348)
(0.0472246 0.000174244 0.000136297)
(0.0469807 0.00022995 0.000136183)
(0.0466977 0.000294486 0.000136096)
(0.0463693 0.000369311 0.00013602)
(0.0459882 0.000456066 0.00013598)
(0.0455463 0.00055654 0.000135967)
(0.045034 0.000672601 0.000135941)
(0.0444406 0.000806251 0.000135826)
(0.0437537 0.000959712 0.000135621)
(0.0429593 0.00113558 0.000135356)
(0.0420415 0.00133664 0.000135028)
(0.0409823 0.00156573 0.000134663)
(0.0397618 0.00182538 0.000134262)
(0.0383585 0.00211765 0.000133845)
(0.0367493 0.00244378 0.000133419)
(0.0349103 0.00280362 0.000132955)
(0.0328178 0.00319495 0.000132445)
(0.0304498 0.00361303 0.00013192)
(0.0277882 0.00405009 0.000131538)
(0.0248211 0.00449424 0.000131547)
(0.0215391 0.00492911 0.000132426)
(0.0180673 0.00533318 0.000134171)
(0.0125544 0.00570752 0.000138761)
(0.00240602 -0.0118227 0.000110059)
(0.00721533 -0.011782 0.000110254)
(0.0118759 -0.0111978 0.000111903)
(0.0162362 -0.0105095 0.00011408)
(0.0202492 -0.00970212 0.000116355)
(0.0238822 -0.00883242 0.0001186)
(0.0271283 -0.00795164 0.00012064)
(0.0300003 -0.00709746 0.000122201)
(0.0325231 -0.00629413 0.000123235)
(0.0347271 -0.00555511 0.000123877)
(0.0366451 -0.00488644 0.00012418)
(0.0383093 -0.00428873 0.000124229)
(0.0397504 -0.00375926 0.000124069)
(0.0409962 -0.00329347 0.000123713)
(0.0420718 -0.00288587 0.000123217)
(0.0429995 -0.00253061 0.000122668)
(0.0437993 -0.00222187 0.000122113)
(0.0444884 -0.00195415 0.000121571)
(0.0450819 -0.0017224 0.000121053)
(0.0455928 -0.00152205 0.00012058)
(0.0460325 -0.00134899 0.000120161)
(0.0464107 -0.00119964 0.000119803)
(0.046736 -0.0010709 0.000119508)
(0.0470157 -0.000960086 0.000119275)
(0.0472562 -0.000864817 0.000119103)
(0.047463 -0.000783005 0.000118985)
(0.0476409 -0.000712805 0.000118915)
(0.047794 -0.00065259 0.000118887)
(0.0479258 -0.000600924 0.000118894)
(0.0480394 -0.00055654 0.000118926)
(0.0481373 -0.000518347 0.00011897)
(0.0482216 -0.000485434 0.000119013)
(0.0482942 -0.000457053 0.000119048)
(0.0483567 -0.000432584 0.000119075)
(0.0484104 -0.000411494 0.000119096)
(0.0484567 -0.000393321 0.00011911)
(0.0484964 -0.000377665 0.00011912)
(0.0485306 -0.00036418 0.000119131)
(0.04856 -0.000352568 0.000119142)
(0.0485853 -0.000342572 0.000119148)
(0.048607 -0.00033397 0.000119147)
(0.0486257 -0.00032657 0.000119147)
(0.0486418 -0.000320205 0.000119148)
(0.0486556 -0.000314732 0.000119148)
(0.0486675 -0.000310023 0.000119153)
(0.0486778 -0.000305973 0.000119161)
(0.0486866 -0.000302492 0.000119163)
(0.0486942 -0.000299501 0.000119161)
(0.0487007 -0.000296931 0.000119161)
(0.0487063 -0.000294721 0.000119161)
(0.0487112 -0.00029282 0.000119162)
(0.0487153 -0.000291185 0.000119164)
(0.0487189 -0.00028978 0.000119166)
(0.0487219 -0.000288572 0.000119169)
(0.0487246 -0.000287535 0.000119172)
(0.0487268 -0.000286644 0.000119175)
(0.0487288 -0.000285878 0.000119178)
(0.0487304 -0.000285221 0.00011918)
(0.0487319 -0.000284656 0.000119182)
(0.0487331 -0.000284171 0.000119183)
(0.0487341 -0.000283754 0.000119185)
(0.048735 -0.000283395 0.000119186)
(0.0487358 -0.000283087 0.000119187)
(0.0487365 -0.000282822 0.000119187)
(0.0487371 -0.000282595 0.000119188)
(0.0487376 -0.000282399 0.000119188)
(0.048738 -0.000282231 0.000119188)
(0.0487383 -0.000282086 0.000119189)
(0.0487386 -0.000281962 0.000119189)
(0.0487389 -0.000281855 0.000119189)
(0.0487391 -0.000281763 0.000119189)
(0.0487393 -0.000281684 0.000119189)
(0.0487395 -0.000281616 0.000119189)
(0.0487397 -0.000281557 0.000119189)
(0.0487398 -0.000281507 0.000119189)
(0.0487399 -0.000281463 0.000119189)
(0.04874 -0.000281426 0.000119188)
(0.0487401 -0.000281393 0.000119188)
(0.0487401 -0.000281365 0.000119188)
(0.0487402 -0.000281341 0.000119188)
(0.0487402 -0.00028132 0.000119188)
(0.0487403 -0.000281302 0.000119187)
(0.0487403 -0.000281286 0.000119187)
(0.0487403 -0.000281272 0.000119187)
(0.0487404 -0.00028126 0.000119187)
(0.0487404 -0.000281249 0.000119186)
(0.0487404 -0.00028124 0.000119186)
(0.0487404 -0.000281232 0.000119186)
(0.0487404 -0.000281225 0.000119185)
(0.0487404 -0.000281218 0.000119185)
(0.0487405 -0.000281213 0.000119185)
(0.0487405 -0.000281207 0.000119185)
(0.0487405 -0.000281203 0.000119184)
(0.0487405 -0.000281198 0.000119184)
(0.0487405 -0.000281194 0.000119184)
(0.0487405 -0.000281191 0.000119183)
(0.0487405 -0.000281187 0.000119183)
(0.0487405 -0.000281184 0.000119183)
(0.0487405 -0.000281181 0.000119183)
(0.0487405 -0.000281178 0.000119182)
(0.0487405 -0.000281175 0.000119182)
(0.0487405 -0.000281172 0.000119182)
(0.0487405 -0.000281169 0.000119181)
(0.0487405 -0.000281166 0.000119181)
(0.0487405 -0.000281163 0.000119181)
(0.0487405 -0.00028116 0.000119181)
(0.0487405 -0.000281157 0.00011918)
(0.0487405 -0.000281153 0.00011918)
(0.0487405 -0.000281149 0.00011918)
(0.0487405 -0.000281145 0.000119179)
(0.0487405 -0.00028114 0.000119179)
(0.0487405 -0.000281136 0.000119179)
(0.0487405 -0.00028113 0.000119179)
(0.0487404 -0.000281124 0.000119178)
(0.0487404 -0.000281117 0.000119178)
(0.0487404 -0.000281109 0.000119178)
(0.0487404 -0.0002811 0.000119178)
(0.0487404 -0.00028109 0.000119177)
(0.0487403 -0.000281079 0.000119177)
(0.0487403 -0.000281066 0.000119177)
(0.0487403 -0.000281051 0.000119177)
(0.0487402 -0.000281033 0.000119177)
(0.0487402 -0.000281013 0.000119176)
(0.0487401 -0.00028099 0.000119176)
(0.0487401 -0.000280964 0.000119176)
(0.04874 -0.000280933 0.000119176)
(0.0487399 -0.000280897 0.000119176)
(0.0487398 -0.000280856 0.000119176)
(0.0487397 -0.000280808 0.000119176)
(0.0487396 -0.000280752 0.000119176)
(0.0487394 -0.000280688 0.000119176)
(0.0487392 -0.000280612 0.000119176)
(0.048739 -0.000280525 0.000119176)
(0.0487388 -0.000280423 0.000119176)
(0.0487385 -0.000280305 0.000119176)
(0.0487381 -0.000280167 0.000119177)
(0.0487377 -0.000280007 0.000119177)
(0.0487373 -0.00027982 0.000119178)
(0.0487367 -0.000279603 0.000119179)
(0.0487361 -0.00027935 0.00011918)
(0.0487353 -0.000279055 0.000119181)
(0.0487345 -0.000278712 0.000119182)
(0.0487335 -0.000278312 0.000119184)
(0.0487323 -0.000277847 0.000119187)
(0.0487309 -0.000277304 0.00011919)
(0.0487293 -0.000276672 0.000119194)
(0.0487275 -0.000275936 0.000119198)
(0.0487253 -0.000275077 0.000119204)
(0.0487227 -0.000274076 0.000119212)
(0.0487198 -0.000272909 0.00011922)
(0.0487163 -0.000271552 0.00011923)
(0.0487123 -0.000269973 0.00011924)
(0.0487076 -0.000268138 0.00011925)
(0.0487022 -0.000266004 0.000119261)
(0.0486958 -0.000263522 0.000119271)
(0.0486885 -0.000260631 0.00011928)
(0.0486799 -0.000257257 0.000119285)
(0.04867 -0.000253318 0.000119284)
(0.0486585 -0.000248724 0.000119278)
(0.0486452 -0.000243373 0.000119264)
(0.0486297 -0.000237136 0.000119242)
(0.0486117 -0.000229864 0.000119209)
(0.0485908 -0.000221377 0.000119162)
(0.0485665 -0.000211476 0.0001191)
(0.0485383 -0.000199943 0.00011903)
(0.0485054 -0.000186533 0.000118954)
(0.0484671 -0.000170964 0.000118873)
(0.0484224 -0.000152901 0.000118778)
(0.0483702 -0.000131932 0.00011866)
(0.0483095 -0.000107553 0.000118518)
(0.0482386 -7.92221e-05 0.000118358)
(0.048156 -4.63518e-05 0.000118149)
(0.0480599 -8.15465e-06 0.000117954)
(0.0479479 3.60499e-05 0.000117774)
(0.0478176 8.6971e-05 0.000118022)
(0.0476669 0.000146057 0.000116821)
(0.0474925 0.000214142 0.000117483)
(0.04729 0.00029287 0.000117566)
(0.047055 0.000384115 0.000117415)
(0.0467822 0.000489999 0.000117305)
(0.0464653 0.000612822 0.000117199)
(0.0460975 0.000755274 0.000117144)
(0.0456708 0.000920259 0.000117141)
(0.0451759 0.00111082 0.000117111)
(0.0446024 0.0013303 0.000117014)
(0.0439383 0.00158259 0.000116817)
(0.0431695 0.0018722 0.000116562)
(0.0422804 0.00220399 0.000116261)
(0.0412528 0.0025829 0.000115922)
(0.0400664 0.00301349 0.000115555)
(0.038699 0.00349961 0.000115179)
(0.0371265 0.00404395 0.000114792)
(0.0353234 0.00464706 0.000114353)
(0.0332634 0.00530623 0.000113846)
(0.0309213 0.00601454 0.000113314)
(0.0282749 0.00675964 0.000112846)
(0.025308 0.00752184 0.000112667)
(0.0220068 0.00827385 0.000113328)
(0.0185017 0.00898042 0.000115115)
(0.0128881 0.00963543 0.000120055)
(0.00255976 -0.0168535 5.24793e-05)
(0.00767636 -0.0167924 5.37622e-05)
(0.012604 -0.0158966 5.83206e-05)
(0.0171521 -0.0148508 6.38391e-05)
(0.0212748 -0.0136404 6.91341e-05)
(0.0249483 -0.0123548 7.3867e-05)
(0.0281809 -0.0110707 7.80124e-05)
(0.0310024 -0.00984089 8.12996e-05)
(0.0334527 -0.00869685 8.36362e-05)
(0.0355736 -0.00765367 8.51844e-05)
(0.0374053 -0.0067162 8.60755e-05)
(0.0389852 -0.00588256 8.64688e-05)
(0.0403467 -0.00514712 8.64687e-05)
(0.0415192 -0.00450227 8.61693e-05)
(0.0425284 -0.00393944 8.56861e-05)
(0.043397 -0.00344983 8.51118e-05)
(0.0441444 -0.00302503 8.44963e-05)
(0.0447875 -0.00265717 8.38634e-05)
(0.0453408 -0.00233902 8.32506e-05)
(0.0458167 -0.00206411 8.26844e-05)
(0.046226 -0.00182672 8.21751e-05)
(0.0465779 -0.00162192 8.17298e-05)
(0.0468802 -0.00144545 8.13591e-05)
(0.04714 -0.00129359 8.1073e-05)
(0.0473632 -0.0011631 8.08726e-05)
(0.047555 -0.00105112 8.07511e-05)
(0.04772 -0.000955112 8.0699e-05)
(0.047862 -0.000872848 8.07039e-05)
(0.0479844 -0.000802331 8.07555e-05)
(0.04809 -0.00074177 8.08415e-05)
(0.0481811 -0.000689629 8.09376e-05)
(0.0482596 -0.00064464 8.10142e-05)
(0.0483272 -0.000605806 8.1068e-05)
(0.0483853 -0.00057231 8.1104e-05)
(0.0484353 -0.000543435 8.11319e-05)
(0.0484783 -0.000518554 8.11522e-05)
(0.0485153 -0.000497121 8.11681e-05)
(0.0485471 -0.000478663 8.11806e-05)
(0.0485744 -0.000462773 8.11928e-05)
(0.0485978 -0.000449097 8.1202e-05)
(0.048618 -0.000437329 8.12099e-05)
(0.0486354 -0.000427206 8.12097e-05)
(0.0486503 -0.0004185 8.12052e-05)
(0.0486632 -0.000411014 8.12016e-05)
(0.0486742 -0.000404577 8.1201e-05)
(0.0486838 -0.000399044 8.12037e-05)
(0.048692 -0.000394288 8.12057e-05)
(0.048699 -0.000390201 8.12062e-05)
(0.0487051 -0.000386689 8.12063e-05)
(0.0487103 -0.00038367 8.12065e-05)
(0.0487148 -0.000381074 8.12083e-05)
(0.0487186 -0.000378842 8.12122e-05)
(0.0487219 -0.000376923 8.12179e-05)
(0.0487248 -0.000375275 8.12243e-05)
(0.0487272 -0.00037386 8.12307e-05)
(0.0487293 -0.000372645 8.12365e-05)
(0.0487311 -0.000371602 8.12415e-05)
(0.0487327 -0.000370706 8.1246e-05)
(0.048734 -0.000369937 8.12499e-05)
(0.0487351 -0.000369276 8.12533e-05)
(0.0487361 -0.000368708 8.12563e-05)
(0.048737 -0.000368221 8.12589e-05)
(0.0487377 -0.000367802 8.12611e-05)
(0.0487383 -0.000367442 8.1263e-05)
(0.0487388 -0.000367133 8.12646e-05)
(0.0487393 -0.000366868 8.1266e-05)
(0.0487397 -0.00036664 8.12672e-05)
(0.04874 -0.000366444 8.12682e-05)
(0.0487403 -0.000366276 8.1269e-05)
(0.0487405 -0.000366132 8.12698e-05)
(0.0487408 -0.000366008 8.12704e-05)
(0.0487409 -0.000365902 8.1271e-05)
(0.0487411 -0.000365811 8.12715e-05)
(0.0487412 -0.000365732 8.12719e-05)
(0.0487413 -0.000365665 8.12723e-05)
(0.0487414 -0.000365607 8.12726e-05)
(0.0487415 -0.000365558 8.12728e-05)
(0.0487416 -0.000365515 8.12731e-05)
(0.0487417 -0.000365478 8.12733e-05)
(0.0487417 -0.000365447 8.12735e-05)
(0.0487418 -0.00036542 8.12736e-05)
(0.0487418 -0.000365397 8.12737e-05)
(0.0487418 -0.000365377 8.12739e-05)
(0.0487419 -0.000365359 8.1274e-05)
(0.0487419 -0.000365345 8.1274e-05)
(0.0487419 -0.000365332 8.12741e-05)
(0.0487419 -0.000365321 8.12742e-05)
(0.0487419 -0.000365311 8.12742e-05)
(0.048742 -0.000365303 8.12743e-05)
(0.048742 -0.000365296 8.12743e-05)
(0.048742 -0.000365289 8.12744e-05)
(0.048742 -0.000365284 8.12744e-05)
(0.048742 -0.000365279 8.12744e-05)
(0.048742 -0.000365275 8.12745e-05)
(0.048742 -0.000365271 8.12745e-05)
(0.048742 -0.000365267 8.12745e-05)
(0.048742 -0.000365264 8.12745e-05)
(0.048742 -0.000365262 8.12746e-05)
(0.048742 -0.000365259 8.12746e-05)
(0.048742 -0.000365256 8.12746e-05)
(0.048742 -0.000365254 8.12746e-05)
(0.048742 -0.000365252 8.12747e-05)
(0.048742 -0.000365249 8.12747e-05)
(0.048742 -0.000365247 8.12747e-05)
(0.048742 -0.000365244 8.12747e-05)
(0.048742 -0.000365241 8.12748e-05)
(0.048742 -0.000365238 8.12748e-05)
(0.048742 -0.000365235 8.12748e-05)
(0.048742 -0.000365232 8.12749e-05)
(0.048742 -0.000365228 8.12749e-05)
(0.048742 -0.000365223 8.12749e-05)
(0.048742 -0.000365218 8.1275e-05)
(0.048742 -0.000365212 8.1275e-05)
(0.048742 -0.000365205 8.12751e-05)
(0.0487419 -0.000365197 8.12751e-05)
(0.0487419 -0.000365188 8.12752e-05)
(0.0487419 -0.000365178 8.12752e-05)
(0.0487419 -0.000365166 8.12753e-05)
(0.0487419 -0.000365152 8.12754e-05)
(0.0487418 -0.000365135 8.12755e-05)
(0.0487418 -0.000365116 8.12757e-05)
(0.0487418 -0.000365094 8.12758e-05)
(0.0487417 -0.000365069 8.1276e-05)
(0.0487417 -0.000365039 8.12762e-05)
(0.0487416 -0.000365004 8.12765e-05)
(0.0487416 -0.000364964 8.12767e-05)
(0.0487415 -0.000364917 8.12771e-05)
(0.0487414 -0.000364862 8.12774e-05)
(0.0487413 -0.000364798 8.12778e-05)
(0.0487412 -0.000364724 8.12783e-05)
(0.048741 -0.000364637 8.12789e-05)
(0.0487408 -0.000364536 8.12795e-05)
(0.0487406 -0.000364418 8.12803e-05)
(0.0487404 -0.000364281 8.12812e-05)
(0.0487401 -0.000364121 8.12822e-05)
(0.0487398 -0.000363935 8.12834e-05)
(0.0487394 -0.000363718 8.12848e-05)
(0.048739 -0.000363465 8.12865e-05)
(0.0487385 -0.00036317 8.12884e-05)
(0.0487379 -0.000362827 8.12907e-05)
(0.0487372 -0.000362427 8.12935e-05)
(0.0487364 -0.000361961 8.12967e-05)
(0.0487355 -0.000361418 8.13006e-05)
(0.0487344 -0.000360786 8.13054e-05)
(0.0487331 -0.000360049 8.13113e-05)
(0.0487317 -0.00035919 8.13188e-05)
(0.0487299 -0.000358189 8.13285e-05)
(0.0487279 -0.000357021 8.13407e-05)
(0.0487256 -0.000355659 8.13562e-05)
(0.0487228 -0.000354072 8.13749e-05)
(0.0487196 -0.000352225 8.13965e-05)
(0.0487158 -0.000350076 8.14208e-05)
(0.0487115 -0.000347579 8.1448e-05)
(0.0487064 -0.000344677 8.1478e-05)
(0.0487005 -0.000341303 8.15102e-05)
(0.0486937 -0.000337373 8.15424e-05)
(0.0486858 -0.000332779 8.15694e-05)
(0.0486766 -0.0003274 8.15862e-05)
(0.0486659 -0.00032112 8.15939e-05)
(0.0486535 -0.000313806 8.15922e-05)
(0.0486392 -0.000305286 8.15781e-05)
(0.0486225 -0.000295347 8.15438e-05)
(0.0486032 -0.000283731 8.14805e-05)
(0.0485808 -0.000270151 8.13837e-05)
(0.0485546 -0.00025433 8.12668e-05)
(0.0485241 -0.000235935 8.11442e-05)
(0.0484885 -0.000214593 8.10141e-05)
(0.048447 -0.000189855 8.08465e-05)
(0.0483987 -0.000161141 8.06133e-05)
(0.0483423 -0.000127711 8.03451e-05)
(0.0482764 -8.8864e-05 8.00903e-05)
(0.0481996 -4.39887e-05 7.98116e-05)
(0.0481101 8.23154e-06 7.95994e-05)
(0.0480056 6.78232e-05 7.9657e-05)
(0.0478845 0.000137738 8.03107e-05)
(0.0477442 0.000219221 8.06688e-05)
(0.0475815 0.000312694 7.90564e-05)
(0.0473931 0.000420713 7.94556e-05)
(0.0471746 0.00054582 7.89389e-05)
(0.0469206 0.000691212 7.90683e-05)
(0.0466253 0.00085985 7.88542e-05)
(0.0462823 0.00105556 7.86798e-05)
(0.0458839 0.00128224 7.86792e-05)
(0.0454214 0.00154399 7.86439e-05)
(0.0448848 0.0018455 7.84759e-05)
(0.0442628 0.00219255 7.8209e-05)
(0.0435418 0.00259165 7.78879e-05)
(0.0427061 0.00304992 7.75415e-05)
(0.0417376 0.00357465 7.71884e-05)
(0.0406155 0.00417277 7.68512e-05)
(0.0393164 0.00485043 7.65386e-05)
(0.0378142 0.00561251 7.61995e-05)
(0.0360806 0.00646131 7.57644e-05)
(0.034085 0.00739492 7.52123e-05)
(0.0317959 0.00840544 7.46052e-05)
(0.0291832 0.00947684 7.40256e-05)
(0.0262219 0.010582 7.37411e-05)
(0.0228887 0.0116825 7.42901e-05)
(0.0193221 0.0127255 7.63249e-05)
(0.0135033 0.0136985 8.09429e-05)
(0.00278609 -0.0222097 -4.59587e-05)