/*--------------------------------*- C++ -*----------------------------------*\
| =========                 |                                                 |
| \\      /  F ield         | OpenFOAM: The Open Source CFD Toolbox           |
|  \\    /   O peration     | Version:  2312                                  |
|   \\  /    A nd           | Website:  www.openfoam.com                      |
|    \\/     M anipulation  |                                                 |
\*---------------------------------------------------------------------------*/
FoamFile
{
    version     2.0;
    format      ascii;
    arch        "LSB;label=32;scalar=64";
    class       surfaceScalarField;
    location    "0.0940323";
    object      alphaPhi0.water;
}
// * * * * * * * * * * * * * * * * * * * * * * * * * * * * * * * * * * * * * //

dimensions      [0 3 -1 0 0 0 0];

oriented        oriented;

internalField   nonuniform List<scalar> 
263100
(
-3.92341e-14
7.85984e-14
-3.92334e-14
1.06195e-13
-2.826e-12
-9.27583e-14
-4.78679e-14
-2.02831e-12
-8.70841e-14
-1.23817e-13
-1.99988e-12
-1.5546e-13
-2.10635e-13
-1.98113e-12
-1.54789e-13
-2.80917e-13
-1.97847e-12
-1.66617e-13
-3.17622e-13
-1.97933e-12
-1.86571e-13
-3.37893e-13
-1.9725e-12
-1.97221e-13
-3.17769e-13
-1.98349e-12
-2.1042e-13
-2.77047e-13
-1.9735e-12
-2.21552e-13
-2.12132e-13
-1.97201e-12
-2.29287e-13
-1.29451e-13
-1.96775e-12
-2.34656e-13
-3.23597e-14
-1.96399e-12
-2.37077e-13
7.30077e-14
-1.95868e-12
-2.37359e-13
1.8025e-13
-1.95465e-12
-2.34123e-13
2.83482e-13
-1.95276e-12
-2.27859e-13
3.76686e-13
-1.95374e-12
-2.18103e-13
4.54579e-13
-1.95879e-12
-2.04623e-13
5.12096e-13
-1.96815e-12
-1.87412e-13
5.4486e-13
-1.98082e-12
-1.67862e-13
5.49381e-13
-1.99599e-12
-1.46895e-13
5.24888e-13
-2.01298e-12
-1.26781e-13
4.68953e-13
-2.03174e-12
-1.0455e-13
3.87063e-13
-2.05345e-12
-8.53822e-14
2.88787e-13
-2.07935e-12
-7.04388e-14
1.91897e-13
-2.11258e-12
-6.29856e-14
1.25107e-13
-2.16077e-12
-6.44532e-14
1.15622e-13
-2.23674e-12
-5.90626e-14
2.37085e-13
-2.37073e-12
-6.21658e-14
-2.06072e-12
-1.30718e-14
6.36499e-13
-3.97293e-12
6.36499e-13
1.6838e-13
-7.42805e-12
5.43416e-13
3.8648e-14
-6.53463e-12
5.49896e-13
-7.02895e-14
-6.45152e-12
5.06051e-13
-1.61463e-13
-6.43251e-12
5.05388e-13
-2.32458e-13
-6.42441e-12
4.9797e-13
-2.7967e-13
-6.4169e-12
4.89328e-13
-3.03677e-13
-6.39754e-12
4.82008e-13
-2.97526e-13
-6.39792e-12
4.72767e-13
-2.68087e-13
-6.37411e-12
4.66326e-13
-2.12014e-13
-6.3626e-12
4.59209e-13
-1.36583e-13
-6.34568e-12
4.54177e-13
-4.63679e-14
-6.3306e-12
4.50588e-13
5.21778e-14
-6.31751e-12
4.50225e-13
1.5621e-13
-6.31458e-12
4.53157e-13
2.58037e-13
-6.3174e-12
4.58118e-13
3.48426e-13
-6.32572e-12
4.6539e-13
4.20268e-13
-6.34216e-12
4.74466e-13
4.68354e-13
-6.36705e-12
4.84129e-13
4.88518e-13
-6.39829e-12
4.93471e-13
4.79714e-13
-6.43523e-12
5.01423e-13
4.42222e-13
-6.47665e-12
5.08534e-13
3.77476e-13
-6.52031e-12
5.1413e-13
2.87761e-13
-6.56497e-12
5.177e-13
1.78634e-13
-6.60919e-12
5.16145e-13
6.26974e-14
-6.66177e-12
5.10941e-13
-4.70329e-14
-6.72773e-12
5.0125e-13
-1.38866e-13
-6.83517e-12
5.04643e-13
-1.68624e-13
-7.00289e-12
4.76398e-13
-6.02817e-12
3.54698e-13
8.8999e-13
-8.01761e-12
8.89991e-13
2.6002e-13
-1.15446e-11
6.88233e-13
8.53279e-14
-1.07123e-11
7.02307e-13
-9.89124e-15
-1.06359e-11
6.57501e-13
-9.78107e-14
-1.06166e-11
6.63417e-13
-1.73263e-13
-1.06036e-11
6.60987e-13
-2.24968e-13
-1.05956e-11
6.55991e-13
-2.53554e-13
-1.05743e-11
6.51975e-13
-2.58174e-13
-1.05706e-11
6.46204e-13
-2.3757e-13
-1.05469e-11
6.42579e-13
-1.98646e-13
-1.05289e-11
6.39022e-13
-1.35551e-13
-1.05167e-11
6.37602e-13
-5.31876e-14
-1.0506e-11
6.36546e-13
4.02283e-14
-1.04966e-11
6.37743e-13
1.34419e-13
-1.04958e-11
6.41515e-13
2.22332e-13
-1.05028e-11
6.47894e-13
2.96691e-13
-1.0515e-11
6.55186e-13
3.51291e-13
-1.05339e-11
6.61782e-13
3.8279e-13
-1.05607e-11
6.66428e-13
3.87832e-13
-1.05935e-11
6.70401e-13
3.66983e-13
-1.06316e-11
6.71282e-13
3.20093e-13
-1.06713e-11
6.69044e-13
2.49169e-13
-1.07126e-11
6.6544e-13
1.58881e-13
-1.07543e-11
6.59261e-13
5.64964e-14
-1.07977e-11
6.52173e-13
-5.2482e-14
-1.08469e-11
6.4255e-13
-1.66376e-13
-1.08977e-11
6.25732e-13
-3.13541e-13
-1.09689e-11
6.22447e-13
-4.78526e-13
-1.10637e-11
5.72541e-13
-9.92127e-12
4.06281e-13
9.32061e-13
-1.20908e-11
9.32061e-13
3.29515e-13
-1.56721e-11
7.39262e-13
1.44789e-13
-1.48597e-11
7.4458e-13
4.90737e-14
-1.47952e-11
6.95205e-13
-4.47479e-14
-1.47782e-11
7.07617e-13
-1.1985e-13
-1.47713e-11
7.07211e-13
-1.72433e-13
-1.47735e-11
7.0746e-13
-2.0009e-13
-1.47653e-11
7.08845e-13
-2.14064e-13
-1.47636e-11
7.10009e-13
-1.99736e-13
-1.47589e-11
7.11258e-13
-1.61865e-13
-1.47566e-11
7.13348e-13
-1.08591e-13
-1.4755e-11
7.15116e-13
-4.18178e-14
-1.47598e-11
7.19948e-13
3.41697e-14
-1.4766e-11
7.25579e-13
1.09241e-13
-1.4774e-11
7.30908e-13
1.77308e-13
-1.47863e-11
7.35718e-13
2.32613e-13
-1.47994e-11
7.39763e-13
2.70999e-13
-1.48138e-11
7.4171e-13
2.90131e-13
-1.483e-11
7.3996e-13
2.84747e-13
-1.48469e-11
7.39181e-13
2.57097e-13
-1.48633e-11
7.32316e-13
2.09828e-13
-1.48793e-11
7.23431e-13
1.42431e-13
-1.48933e-11
7.14423e-13
5.77733e-14
-1.49075e-11
7.05188e-13
-4.16618e-14
-1.49258e-11
6.98405e-13
-1.54072e-13
-1.49496e-11
6.91564e-13
-2.6993e-13
-1.49777e-11
6.79603e-13
-4.16636e-13
-1.50096e-11
6.79169e-13
-5.55389e-13
-1.50643e-11
6.38365e-13
-1.38362e-11
4.82179e-13
9.88457e-13
-1.62453e-11
9.88458e-13
3.7383e-13
-1.9785e-11
7.84762e-13
1.86988e-13
-1.90112e-11
7.97707e-13
8.85867e-14
-1.89598e-11
7.50065e-13
5.50862e-16
-1.89598e-11
7.64956e-13
-7.18589e-14
-1.89662e-11
7.6919e-13
-1.22994e-13
-1.89919e-11
7.74058e-13
-1.5394e-13
-1.90104e-11
7.82324e-13
-1.66336e-13
-1.90365e-11
7.90641e-13
-1.58251e-13
-1.90676e-11
8.00426e-13
-1.29883e-13
-1.9101e-11
8.09995e-13
-8.95131e-14
-1.91294e-11
8.18352e-13
-3.92964e-14
-1.91638e-11
8.26546e-13
1.62074e-14
-1.9195e-11
8.33745e-13
6.99686e-14
-1.92179e-11
8.3794e-13
1.17896e-13
-1.92358e-11
8.38178e-13
1.57324e-13
-1.92463e-11
8.35698e-13
1.84225e-13
-1.92474e-11
8.31009e-13
1.96997e-13
-1.92422e-11
8.25586e-13
1.88427e-13
-1.92229e-11
8.18331e-13
1.65782e-13
-1.92015e-11
8.07542e-13
1.27828e-13
-1.91729e-11
7.96093e-13
7.31738e-14
-1.91382e-11
7.85363e-13
1.5177e-15
-1.91075e-11
7.80054e-13
-8.8906e-14
-1.90817e-11
7.7657e-13
-2.00991e-13
-1.90598e-11
7.71721e-13
-3.26048e-13
-1.90505e-11
7.61559e-13
-4.76873e-13
-1.90476e-11
7.60814e-13
-6.17451e-13
-1.90638e-11
7.1383e-13
-1.78343e-11
5.48161e-13
1.01895e-12
-2.04319e-11
1.01896e-12
4.01567e-13
-2.39009e-11
8.15539e-13
2.08962e-13
-2.31596e-11
8.26914e-13
1.00419e-13
-2.31211e-11
7.81928e-13
7.36769e-15
-2.31508e-11
7.97352e-13
-6.19734e-14
-2.319e-11
8.04365e-13
-1.16322e-13
-2.32491e-11
8.12187e-13
-1.43064e-13
-2.33198e-11
8.24179e-13
-1.54244e-13
-2.33908e-11
8.34829e-13
-1.49615e-13
-2.34735e-11
8.45766e-13
-1.29129e-13
-2.35601e-11
8.58629e-13
-1.0007e-13
-2.36362e-11
8.69895e-13
-6.37107e-14
-2.37145e-11
8.79088e-13
-2.39283e-14
-2.37801e-11
8.86028e-13
1.50817e-14
-2.38248e-11
8.89069e-13
5.09528e-14
-2.3853e-11
8.89022e-13
8.38459e-14
-2.38619e-11
8.84585e-13
1.09544e-13
-2.38438e-11
8.76405e-13
1.25539e-13
-2.38056e-11
8.6712e-13
1.3134e-13
-2.37443e-11
8.58321e-13
1.21539e-13
-2.36654e-11
8.46637e-13
9.93332e-14
-2.35816e-11
8.38799e-13
6.13454e-14
-2.34916e-11
8.35686e-13
-1.69271e-15
-2.34026e-11
8.37049e-13
-8.84294e-14
-2.33233e-11
8.36914e-13
-2.07224e-13
-2.3242e-11
8.31545e-13
-3.47977e-13
-2.31887e-11
8.2101e-13
-5.14036e-13
-2.31544e-11
8.15086e-13
-6.61829e-13
-2.3146e-11
7.61937e-13
-2.19808e-11
5.90745e-13
1.05755e-12
-2.46787e-11
1.05755e-12
4.11711e-13
-2.80489e-11
8.50152e-13
2.00975e-13
-2.73431e-11
8.59055e-13
8.02728e-14
-2.73279e-11
8.13916e-13
-3.1413e-14
-2.73891e-11
8.27823e-13
-1.12441e-13
-2.7478e-11
8.33979e-13
-1.71372e-13
-2.75928e-11
8.42457e-13
-1.98166e-13
-2.77409e-11
8.59658e-13
-2.10271e-13
-2.78749e-11
8.71131e-13
-2.06108e-13
-2.80277e-11
8.81989e-13
-1.8823e-13
-2.81818e-11
8.94697e-13
-1.64478e-13
-2.8318e-11
9.05057e-13
-1.34568e-13
-2.84491e-11
9.11626e-13
-9.78229e-14
-2.85561e-11
9.14463e-13
-5.7768e-14
-2.86247e-11
9.12709e-13
-1.7113e-14
-2.86618e-11
9.09084e-13
2.38926e-14
-2.86642e-11
9.01503e-13
6.70392e-14
-2.86256e-11
8.90812e-13
1.03609e-13
-2.85471e-11
8.80918e-13
1.32585e-13
-2.84356e-11
8.71621e-13
1.46675e-13
-2.82988e-11
8.67851e-13
1.39782e-13
-2.81536e-11
8.68452e-13
1.08768e-13
-2.80045e-11
8.72069e-13
4.2754e-14
-2.78514e-11
8.75231e-13
-6.12596e-14
-2.77129e-11
8.76916e-13
-1.93542e-13
-2.75926e-11
8.77203e-13
-3.51568e-13
-2.75029e-11
8.64731e-13
-5.31218e-13
-2.74496e-11
8.53435e-13
-6.84322e-13
-2.74379e-11
8.00944e-13
-2.63373e-11
6.09749e-13
1.10995e-12
-2.90481e-11
1.10995e-12
4.0104e-13
-3.22829e-11
8.92879e-13
1.55347e-13
-3.16269e-11
8.95824e-13
1.62177e-15
-3.16445e-11
8.51441e-13
-1.29874e-13
-3.17581e-11
8.6229e-13
-2.26821e-13
-3.19103e-11
8.67573e-13
-2.96007e-13
-3.2095e-11
8.72174e-13
-3.41172e-13
-3.23102e-11
8.75957e-13
-3.57877e-13
-3.25332e-11
8.8682e-13
-3.53848e-13
-3.27688e-11
8.94172e-13
-3.30209e-13
-3.30011e-11
9.03733e-13
-2.99707e-13
-3.3202e-11
9.10064e-13
-2.60999e-13
-3.3387e-11
9.11249e-13
-2.09143e-13
-3.35356e-11
9.08306e-13
-1.46605e-13
-3.36264e-11
9.02215e-13
-7.52728e-14
-3.367e-11
8.9511e-13
1.56682e-15
-3.36626e-11
8.86872e-13
8.08829e-14
-3.36016e-11
8.80658e-13
1.48408e-13
-3.34789e-11
8.77105e-13
2.02351e-13
-3.33177e-11
8.76195e-13
2.34723e-13
-3.31247e-11
8.7824e-13
2.36104e-13
-3.29192e-11
8.82566e-13
1.98549e-13
-3.27105e-11
8.88556e-13
1.21862e-13
-3.25058e-11
8.92783e-13
-9.41866e-16
-3.23198e-11
8.96175e-13
-1.59222e-13
-3.21691e-11
8.93947e-13
-3.41466e-13
-3.20595e-11
8.79886e-13
-5.39635e-13
-3.20033e-11
8.67432e-13
-7.14147e-13
-3.19853e-11
8.09976e-13
-3.09519e-11
6.11204e-13
1.16579e-12
-3.35968e-11
1.16579e-12
3.65843e-13
-3.66685e-11
9.36389e-13
6.79272e-14
-3.60772e-11
9.28621e-13
-1.34076e-13
-3.61385e-11
8.84299e-13
-3.03558e-13
-3.63174e-11
8.89569e-13
-4.3239e-13
-3.65389e-11
8.88564e-13
-5.24693e-13
-3.68019e-11
8.87143e-13
-5.76946e-13
-3.71016e-11
8.9007e-13
-5.96886e-13
-3.7412e-11
8.9389e-13
-5.92371e-13
-3.77251e-11
8.93034e-13
-5.55493e-13
-3.80337e-11
8.94437e-13
-5.03238e-13
-3.82944e-11
8.93455e-13
-4.3544e-13
-3.8526e-11
8.87389e-13
-3.47171e-13
-3.87073e-11
8.79183e-13
-2.34114e-13
-3.88176e-11
8.69031e-13
-1.10467e-13
-3.88581e-11
8.62645e-13
2.11512e-14
-3.88373e-11
8.57011e-13
1.47117e-13
-3.87494e-11
8.58053e-13
2.55921e-13
-3.85882e-11
8.63129e-13
3.35767e-13
-3.83786e-11
8.7029e-13
3.78935e-13
-3.81337e-11
8.77476e-13
3.76854e-13
-3.7874e-11
8.83369e-13
3.25345e-13
-3.76158e-11
8.8834e-13
2.25396e-13
-3.73725e-11
8.92577e-13
8.05055e-14
-3.71575e-11
8.93478e-13
-1.08408e-13
-3.69816e-11
8.89731e-13
-3.18782e-13
-3.68638e-11
8.76768e-13
-5.36603e-13
-3.68142e-11
8.66575e-13
-7.31881e-13
-3.6773e-11
8.03859e-13
-3.57728e-11
5.98204e-13
1.20589e-12
-3.83486e-11
1.20589e-12
3.11514e-13
-4.12553e-11
9.56531e-13
-5.69496e-14
-4.07328e-11
9.48711e-13
-3.21012e-13
-4.08481e-11
9.02639e-13
-5.40488e-13
-4.11005e-11
9.02047e-13
-7.11044e-13
-4.13946e-11
8.98392e-13
-8.35627e-13
-4.17341e-11
8.89959e-13
-9.07839e-13
-4.21136e-11
8.86436e-13
-9.31719e-13
-4.25053e-11
8.81421e-13
-9.18468e-13
-4.28847e-11
8.71586e-13
-8.54752e-13
-4.32566e-11
8.64671e-13
-7.59529e-13
-4.35643e-11
8.56684e-13
-6.37866e-13
-4.38279e-11
8.44842e-13
-4.84675e-13
-4.40291e-11
8.32221e-13
-3.03287e-13
-4.41442e-11
8.22058e-13
-1.06018e-13
-4.41752e-11
8.17403e-13
8.87233e-14
-4.41304e-11
8.17727e-13
2.66754e-13
-4.40122e-11
8.23596e-13
4.15598e-13
-4.38166e-11
8.33427e-13
5.16199e-13
-4.35624e-11
8.45304e-13
5.6448e-13
-4.32753e-11
8.54998e-13
5.54782e-13
-4.2974e-11
8.61722e-13
4.85903e-13
-4.26797e-11
8.66946e-13
3.63841e-13
-4.24097e-11
8.70176e-13
1.86249e-13
-4.21616e-11
8.67474e-13
-2.8189e-14
-4.19712e-11
8.66811e-13
-2.72864e-13
-4.18285e-11
8.56477e-13
-5.39023e-13
-4.17368e-11
8.31231e-13
-7.62825e-13
-4.16706e-11
7.72518e-13
-4.06841e-11
5.54714e-13
1.21308e-12
-4.3281e-11
1.21308e-12
2.06941e-13
-4.60255e-11
9.46224e-13
-2.34907e-13
-4.55858e-11
9.39349e-13
-5.5764e-13
-4.57654e-11
8.91612e-13
-8.36435e-13
-4.60829e-11
8.88375e-13
-1.05279e-12
-4.64495e-11
8.83863e-13
-1.21003e-12
-4.6858e-11
8.68195e-13
-1.29852e-12
-4.73043e-11
8.57508e-13
-1.32802e-12
-4.77554e-11
8.45871e-13
-1.3008e-12
-4.81844e-11
8.25786e-13
-1.19949e-12
-4.86001e-11
8.09967e-13
-1.04513e-12
-4.89378e-11
7.96202e-13
-8.50697e-13
-4.92171e-11
7.81625e-13
-6.17146e-13
-4.9423e-11
7.68203e-13
-3.5175e-13
-4.95317e-11
7.59945e-13
-7.31707e-14
-4.95456e-11
7.59038e-13
1.9318e-13
-4.9473e-11
7.64379e-13
4.25492e-13
-4.93215e-11
7.73272e-13
6.08859e-13
-4.90923e-11
7.83807e-13
7.30911e-13
-4.88048e-11
7.95325e-13
7.83594e-13
-4.84833e-11
8.04341e-13
7.64594e-13
-4.81469e-11
8.09659e-13
6.76218e-13
-4.78197e-11
8.14353e-13
5.22691e-13
-4.75117e-11
8.1452e-13
3.18347e-13
-4.72314e-11
8.16112e-13
6.06044e-14
-4.69875e-11
8.12906e-13
-2.15992e-13
-4.67877e-11
7.87841e-13
-5.07421e-13
-4.66271e-11
7.62034e-13
-7.62328e-13
-4.64946e-11
6.97553e-13
-4.54993e-11
4.65196e-13
1.17524e-12
-4.83141e-11
1.17524e-12
7.89971e-14
-5.09274e-11
8.93891e-13
-4.39149e-13
-5.05634e-11
8.93389e-13
-8.3382e-13
-5.08011e-11
8.44652e-13
-1.17713e-12
-5.11758e-11
8.3569e-13
-1.43937e-12
-5.16168e-11
8.3425e-13
-1.63233e-12
-5.20857e-11
8.16623e-13
-1.73579e-12
-5.25889e-11
8.01962e-13
-1.75919e-12
-5.30876e-11
7.87719e-13
-1.70612e-12
-5.35549e-11
7.63824e-13
-1.55653e-12
-5.39972e-11
7.42903e-13
-1.33028e-12
-5.4353e-11
7.27001e-13
-1.04985e-12
-5.46395e-11
7.13993e-13
-7.25486e-13
-5.48424e-11
7.03622e-13
-3.70554e-13
-5.49397e-11
6.98994e-13
-1.00146e-14
-5.49339e-11
7.0136e-13
3.26433e-13
-5.48355e-11
7.09226e-13
6.13157e-13
-5.46543e-11
7.18305e-13
8.33633e-13
-5.43965e-11
7.27262e-13
9.76619e-13
-5.40796e-11
7.34597e-13
1.03599e-12
-5.37249e-11
7.39881e-13
1.01346e-12
-5.33505e-11
7.42198e-13
9.09526e-13
-5.29704e-11
7.40325e-13
7.31094e-13
-5.25959e-11
7.35099e-13
4.89555e-13
-5.2236e-11
7.26074e-13
2.01108e-13
-5.18993e-11
7.09432e-13
-1.15488e-13
-5.15939e-11
6.79138e-13
-4.50371e-13
-5.13274e-11
6.47677e-13
-7.3043e-13
-5.11303e-11
5.81751e-13
-5.01347e-11
3.59799e-13
1.07425e-12
-5.32943e-11
1.07425e-12
-1.13356e-13
-5.58336e-11
7.95364e-13
-7.08859e-13
-5.55381e-11
7.97093e-13
-1.16429e-12
-5.58444e-11
7.55671e-13
-1.55411e-12
-5.62783e-11
7.41253e-13
-1.87005e-12
-5.67697e-11
7.42368e-13
-2.09505e-12
-5.73108e-11
7.25918e-13
-2.2024e-12
-5.78817e-11
7.14541e-13
-2.20903e-12
-5.84318e-11
7.04387e-13
-2.11332e-12
-5.89502e-11
6.84708e-13
-1.90433e-12
-5.94164e-11
6.64567e-13
-1.59754e-12
-5.97937e-11
6.50965e-13
-1.22354e-12
-6.00947e-11
6.4371e-13
-8.04559e-13
-6.03018e-11
6.40208e-13
-3.59329e-13
-6.03971e-11
6.41363e-13
8.1415e-14
-6.03794e-11
6.46598e-13
4.85358e-13
-6.02618e-11
6.54086e-13
8.27585e-13
-6.00589e-11
6.61245e-13
1.09029e-12
-5.9775e-11
6.65694e-13
1.26235e-12
-5.94236e-11
6.67016e-13
1.33909e-12
-5.90207e-11
6.64635e-13
1.31985e-12
-5.85792e-11
6.59146e-13
1.20729e-12
-5.81095e-11
6.50112e-13
1.00825e-12
-5.76223e-11
6.35939e-13
7.35598e-13
-5.71325e-11
6.15805e-13
4.07192e-13
-5.66587e-11
5.89821e-13
4.56042e-14
-5.62236e-11
5.57564e-13
-3.20568e-13
-5.58643e-11
5.28514e-13
-6.50275e-13
-5.55998e-11
4.64641e-13
-5.46102e-11
2.4444e-13
9.09509e-13
-5.8041e-11
9.09509e-13
-3.55089e-13
-6.05979e-11
6.30898e-13
-1.04723e-12
-6.03444e-11
6.40026e-13
-1.57175e-12
-6.07336e-11
5.97205e-13
-2.02021e-12
-6.12435e-11
5.85893e-13
-2.35406e-12
-6.18389e-11
6.09827e-13
-2.59203e-12
-6.24681e-11
6.01695e-13
-2.69375e-12
-6.31237e-11
5.94151e-13
-2.66534e-12
-6.37604e-11
5.91019e-13
-2.52873e-12
-6.43492e-11
5.8347e-13
-2.25321e-12
-6.48784e-11
5.72942e-13
-1.85204e-12
-6.53187e-11
5.71026e-13
-1.37411e-12
-6.56621e-11
5.74072e-13
-8.54947e-13
-6.58923e-11
5.76838e-13
-3.18182e-13
-6.60024e-11
5.81417e-13
2.06009e-13
-6.59905e-11
5.88515e-13
6.83492e-13
-6.58656e-11
5.9612e-13
1.08804e-12
-6.56419e-11
5.99995e-13
1.40291e-12
-6.53202e-11
5.96717e-13
1.61737e-12
-6.49096e-11
5.88383e-13
1.72598e-12
-6.4421e-11
5.75612e-13
1.7251e-12
-6.38639e-11
5.59938e-13
1.61612e-12
-6.32513e-11
5.40114e-13
1.40557e-12
-6.26021e-11
5.15728e-13
1.10699e-12
-6.19445e-11
4.8734e-13
7.41066e-13
-6.13187e-11
4.59493e-13
3.30243e-13
-6.07584e-11
4.28229e-13
-1.11411e-13
-6.03174e-11
4.06438e-13
-5.14004e-13
-6.00213e-11
3.37394e-13
-5.90615e-11
1.80242e-13
6.94828e-13
-6.2398e-11
6.94828e-13
-6.70369e-13
-6.50826e-11
4.23911e-13
-1.45148e-12
-6.48864e-11
4.3922e-13
-2.05144e-12
-6.53725e-11
4.02807e-13
-2.56427e-12
-6.59863e-11
3.92601e-13
-2.94094e-12
-6.67081e-11
4.12644e-13
-3.19519e-12
-6.74762e-11
4.13607e-13
-3.27954e-12
-6.82723e-11
4.15746e-13
-3.21095e-12
-6.90415e-11
4.15334e-13
-2.99111e-12
-6.97831e-11
4.29523e-13
-2.62713e-12
-7.04293e-11
4.41105e-13
-2.13081e-12
-7.09802e-11
4.56137e-13
-1.54499e-12
-7.14191e-11
4.75514e-13
-9.16329e-13
-7.17131e-11
4.90857e-13
-2.74914e-13
-7.1866e-11
5.01233e-13
3.46887e-13
-7.18729e-11
5.05627e-13
9.15522e-13
-7.17355e-11
5.02217e-13
1.41041e-12
-7.14711e-11
4.88357e-13
1.80348e-12
-7.10802e-11
4.81764e-13
2.08856e-12
-7.05646e-11
4.63737e-13
2.25543e-12
-6.99312e-11
4.40321e-13
2.29541e-12
-6.91929e-11
4.11828e-13
2.20641e-12
-6.83791e-11
3.8003e-13
1.99598e-12
-6.75301e-11
3.47408e-13
1.67819e-12
-6.66874e-11
3.11831e-13
1.26313e-12
-6.59284e-11
3.04499e-13
7.78145e-13
-6.52847e-11
2.96807e-13
2.19789e-13
-6.4789e-11
2.96997e-13
-3.45342e-13
-6.44692e-11
2.42705e-13
-6.34755e-11
5.53736e-14
4.40179e-13
-6.6248e-11
4.40179e-13
-1.0313e-12
-6.92126e-11
1.71395e-13
-1.94589e-12
-6.90656e-11
2.00305e-13
-2.65773e-12
-6.9683e-11
1.76214e-13
-3.25452e-12
-7.04526e-11
1.68706e-13
-3.69009e-12
-7.13665e-11
2.12477e-13
-3.95784e-12
-7.23446e-11
2.21139e-13
-4.01649e-12
-7.33522e-11
2.32088e-13
-3.89439e-12
-7.43433e-11
2.61054e-13
-3.5947e-12
-7.53026e-11
2.9099e-13
-3.12932e-12
-7.61287e-11
3.06921e-13
-2.51501e-12
-7.68438e-11
3.24079e-13
-1.79505e-12
-7.74225e-11
3.42816e-13
-1.02701e-12
-7.78097e-11
3.58023e-13
-2.47196e-13
-7.80221e-11
3.66752e-13
5.09595e-13
-7.80523e-11
3.70077e-13
1.20826e-12
-7.78808e-11
3.56114e-13
1.83096e-12
-7.75283e-11
3.20217e-13
2.34937e-12
-7.70023e-11
2.88162e-13
2.7479e-12
-7.63044e-11
2.50839e-13
3.01052e-12
-7.54488e-11
2.11778e-13
3.12145e-12
-7.44692e-11
1.79137e-13
3.07237e-12
-7.34236e-11
1.58677e-13
2.87039e-12
-7.23784e-11
1.49974e-13
2.50679e-12
-7.13826e-11
1.70648e-13
1.99977e-12
-7.04873e-11
1.63606e-13
1.37211e-12
-6.97507e-11
1.51997e-13
6.3872e-13
-6.91886e-11
1.39742e-13
-1.19097e-13
-6.88379e-11
8.52464e-14
-6.76522e-11
-1.4716e-13
2.01162e-13
-6.96157e-11
2.01162e-13
-1.46205e-12
-7.29596e-11
-4.70916e-14
-2.57516e-12
-7.28984e-11
2.0359e-14
-3.4447e-12
-7.36821e-11
-1.42035e-14
-4.16728e-12
-7.46652e-11
-9.63812e-15
-4.68365e-12
-7.58029e-11
3.34353e-16
-4.98429e-12
-7.70414e-11
4.86292e-15
-5.03319e-12
-7.83179e-11
7.84546e-15
-4.85009e-12
-7.95859e-11
1.26968e-14
-4.44492e-12
-8.08034e-11
2.31651e-14
-3.84609e-12
-8.18637e-11
3.35069e-14
-3.07403e-12
-8.27971e-11
4.81433e-14
-2.18787e-12
-8.35454e-11
6.61574e-14
-1.23322e-12
-8.40534e-11
7.66562e-14
-2.60413e-13
-8.43314e-11
8.23698e-14
7.01521e-13
-8.43848e-11
8.30748e-14
1.60279e-12
-8.41479e-11
6.55845e-14
2.41928e-12
-8.36711e-11
4.21066e-14
3.12415e-12
-8.29577e-11
1.29831e-14
3.69315e-12
-8.20256e-11
-1.39841e-14
4.09045e-12
-8.08968e-11
-3.52024e-14
4.29363e-12
-7.9642e-11
-4.80883e-14
4.28876e-12
-7.8338e-11
-5.8321e-14
4.06493e-12
-7.70625e-11
-6.19531e-14
3.62854e-12
-7.58736e-11
-6.35034e-14
2.98469e-12
-7.48087e-11
-7.05375e-14
2.16129e-12
-7.39304e-11
-8.84949e-14
1.20183e-12
-7.32565e-11
-1.10194e-13
1.75009e-13
-7.2814e-11
-1.59106e-13
-7.13555e-11
-3.65744e-13
5.37943e-15
-7.26073e-11
5.37945e-15
-2.01586e-12
-7.62058e-11
-2.68469e-13
-3.39689e-12
-7.62365e-11
-2.81498e-13
-4.51068e-12
-7.72042e-11
-3.28779e-13
-5.40422e-12
-7.84698e-11
-3.2252e-13
-6.04422e-12
-7.98757e-11
-3.31697e-13
-6.38166e-12
-8.14451e-11
-3.30521e-13
-6.41885e-12
-8.30543e-11
-3.2732e-13
-6.17019e-12
-8.46658e-11
-3.22029e-13
-5.63901e-12
-8.62072e-11
-3.09152e-13
-4.87037e-12
-8.75671e-11
-2.96315e-13
-3.90422e-12
-8.87626e-11
-2.85181e-13
-2.79739e-12
-8.9706e-11
-2.7952e-13
-1.58809e-12
-9.03579e-11
-2.77987e-13
-3.29485e-13
-9.07097e-11
-2.82852e-13
9.21108e-13
-9.07524e-11
-2.95396e-13
2.12132e-12
-9.04277e-11
-3.11498e-13
3.22987e-12
-8.97874e-11
-3.2706e-13
4.20292e-12
-8.88421e-11
-3.38862e-13
4.99705e-12
-8.76249e-11
-3.48516e-13
5.56839e-12
-8.6189e-11
-3.48079e-13
5.88973e-12
-8.46383e-11
-3.42996e-13
5.92248e-12
-8.30466e-11
-3.3171e-13
5.65625e-12
-8.1504e-11
-3.19892e-13
5.08356e-12
-8.00532e-11
-3.12429e-13
4.23262e-12
-7.87602e-11
-3.067e-13
3.15611e-12
-7.76895e-11
-3.07614e-13
1.88665e-12
-7.6847e-11
-2.92769e-13
4.80865e-13
-7.62399e-11
-3.15113e-13
-7.45174e-11
-5.56748e-13
-3.31694e-13
-7.49746e-11
-3.31694e-13
-2.72621e-12
-7.88759e-11
-6.03706e-13
-4.454e-12
-7.90336e-11
-5.94292e-13
-5.87394e-12
-8.02174e-11
-6.59022e-13
-7.02882e-12
-8.17762e-11
-6.60029e-13
-7.83329e-12
-8.35424e-11
-6.80741e-13
-8.24128e-12
-8.55005e-11
-6.88167e-13
-8.28333e-12
-8.75026e-11
-6.97375e-13
-7.95004e-12
-8.95293e-11
-7.05042e-13
-7.26717e-12
-9.14444e-11
-7.04436e-13
-6.28482e-12
-9.31602e-11
-7.04624e-13
-5.06331e-12
-9.46545e-11
-7.11953e-13
-3.64899e-12
-9.58269e-11
-7.27346e-13
-2.08624e-12
-9.66404e-11
-7.44472e-13
-4.43603e-13
-9.70622e-11
-7.64488e-13
1.20205e-12
-9.70699e-11
-7.86533e-13
2.81045e-12
-9.66503e-11
-7.94969e-13
4.30733e-12
-9.58169e-11
-7.97202e-13
5.62897e-12
-9.46071e-11
-7.9162e-13
6.71251e-12
-9.30835e-11
-7.72256e-13
7.49756e-12
-9.13243e-11
-7.409e-13
7.92383e-12
-8.94408e-11
-7.02802e-13
7.98137e-12
-8.75262e-11
-6.7883e-13
7.62772e-12
-8.56374e-11
-6.45371e-13
6.88901e-12
-8.38665e-11
-6.07445e-13
5.79481e-12
-8.22789e-11
-5.64488e-13
4.38216e-12
-8.09235e-11
-5.26944e-13
2.71479e-12
-7.9856e-11
-4.74395e-13
8.75773e-13
-7.90535e-11
-4.89698e-13
-7.71628e-11
-6.92073e-13
-6.95101e-13
-7.66993e-11
-6.95101e-13
-3.64181e-12
-8.07479e-11
-1.00961e-12
-5.81377e-12
-8.11228e-11
-9.98842e-13
-7.6383e-12
-8.25623e-11
-1.07491e-12
-9.07625e-12
-8.44811e-11
-1.09131e-12
-1.0094e-11
-8.66507e-11
-1.13477e-12
-1.06097e-11
-8.90514e-11
-1.16477e-12
-1.06612e-11
-9.15186e-11
-1.19981e-12
-1.02494e-11
-9.39999e-11
-1.23935e-12
-9.38209e-12
-9.63582e-11
-1.26871e-12
-8.12642e-12
-9.84982e-11
-1.28873e-12
-6.5683e-12
-1.00342e-10
-1.31217e-12
-4.75855e-12
-1.01781e-10
-1.34624e-12
-2.72892e-12
-1.028e-10
-1.37828e-12
-5.98031e-13
-1.03286e-10
-1.40754e-12
1.56965e-12
-1.03275e-10
-1.4281e-12
3.69046e-12
-1.02737e-10
-1.43884e-12
5.67152e-12
-1.01693e-10
-1.43311e-12
7.41837e-12
-1.00201e-10
-1.40763e-12
8.83895e-12
-9.83475e-11
-1.36263e-12
9.85991e-12
-9.6239e-11
-1.30347e-12
1.04072e-11
-9.39746e-11
-1.23766e-12
1.04391e-11
-9.16478e-11
-1.16976e-12
9.97327e-12
-8.93472e-11
-1.10077e-12
9.02308e-12
-8.71553e-11
-1.03677e-12
7.60789e-12
-8.51538e-11
-9.76147e-13
5.78693e-12
-8.3436e-11
-9.08785e-13
3.62483e-12
-8.2057e-11
-8.55127e-13
1.20425e-12
-8.0998e-11
-8.67899e-13
-7.90594e-11
-1.21327e-12
-1.21276e-12
-7.74904e-11
-1.21276e-12
-4.8097e-12
-8.16001e-11
-1.5061e-12
-7.5185e-12
-8.22516e-11
-1.53407e-12
-9.80973e-12
-8.40217e-11
-1.6146e-12
-1.16058e-11
-8.6341e-11
-1.65936e-12
-1.28751e-11
-8.89746e-11
-1.7339e-12
-1.3532e-11
-9.18844e-11
-1.79008e-12
-1.35975e-11
-9.49088e-11
-1.8518e-12
-1.30744e-11
-9.79252e-11
-1.91549e-12
-1.19812e-11
-1.0081e-10
-1.97176e-12
-1.0399e-11
-1.03432e-10
-2.02696e-12
-8.40345e-12
-1.05692e-10
-2.08799e-12
-6.08115e-12
-1.07428e-10
-2.15647e-12
-3.50456e-12
-1.08642e-10
-2.22003e-12
-7.45059e-13
-1.09246e-10
-2.26181e-12
2.06258e-12
-1.09218e-10
-2.28534e-12
4.79714e-12
-1.08551e-10
-2.28733e-12
7.33589e-12
-1.07284e-10
-2.26399e-12
9.55655e-12
-1.05488e-10
-2.21816e-12
1.13465e-11
-1.03267e-10
-2.15527e-12
1.25997e-11
-1.00727e-10
-2.08252e-12
1.32524e-11
-9.79764e-11
-2.00959e-12
1.32656e-11
-9.51041e-11
-1.93249e-12
1.26612e-11
-9.22608e-11
-1.83906e-12
1.14446e-11
-8.95305e-11
-1.73789e-12
9.62768e-12
-8.69998e-11
-1.64833e-12
7.2973e-12
-8.48159e-11
-1.58356e-12
4.55734e-12
-8.30178e-11
-1.5854e-12
1.51142e-12
-8.15566e-11
-1.71193e-12
-7.97338e-11
-2.19102e-12
-1.90892e-12
-7.69687e-11
-1.90892e-12
-6.21574e-12
-8.10098e-11
-2.23932e-12
-9.5591e-12
-8.19622e-11
-2.31713e-12
-1.23972e-11
-8.41129e-11
-2.4358e-12
-1.46588e-11
-8.68338e-11
-2.53467e-12
-1.61986e-11
-9.00888e-11
-2.62583e-12
-1.70133e-11
-9.3592e-11
-2.71512e-12
-1.70984e-11
-9.72618e-11
-2.81306e-12
-1.64361e-11
-1.00925e-10
-2.91129e-12
-1.50732e-11
-1.04435e-10
-3.00176e-12
-1.30744e-11
-1.07646e-10
-3.08342e-12
-1.05503e-11
-1.10397e-10
-3.16516e-12
-7.58693e-12
-1.12525e-10
-3.23665e-12
-4.29607e-12
-1.14001e-10
-3.29495e-12
-7.98778e-13
-1.1475e-10
-3.32547e-12
2.74591e-12
-1.14723e-10
-3.33228e-12
6.17516e-12
-1.13923e-10
-3.31823e-12
9.32733e-12
-1.12399e-10
-3.28519e-12
1.20527e-11
-1.10239e-10
-3.2358e-12
1.42166e-11
-1.07556e-10
-3.17531e-12
1.57139e-11
-1.04463e-10
-3.10718e-12
1.64725e-11
-1.01076e-10
-3.02713e-12
1.64671e-11
-9.75107e-11
-2.93052e-12
1.56804e-11
-9.39311e-11
-2.82864e-12
1.41128e-11
-9.04705e-11
-2.73817e-12
1.17632e-11
-8.71881e-11
-2.69323e-12
8.87069e-12
-8.44178e-11
-2.72644e-12
5.56188e-12
-8.20485e-11
-2.87355e-12
2.04655e-12
-8.02511e-11
-3.02304e-12
-7.86289e-11
-3.35797e-12
-2.94542e-12
-7.43716e-11
-2.94542e-12
-7.98015e-12
-7.8416e-11
-3.29297e-12
-1.20354e-11
-7.97052e-11
-3.37819e-12
-1.54833e-11
-8.23162e-11
-3.51397e-12
-1.81474e-11
-8.56613e-11
-3.5997e-12
-2.00522e-11
-8.95402e-11
-3.71688e-12
-2.10495e-11
-9.38117e-11
-3.84633e-12
-2.11394e-11
-9.82729e-11
-3.97046e-12
-2.03156e-11
-1.02746e-10
-4.07833e-12
-1.86315e-11
-1.0705e-10
-4.17593e-12
-1.61337e-11
-1.11017e-10
-4.26038e-12
-1.29623e-11
-1.14389e-10
-4.33958e-12
-9.23589e-12
-1.17015e-10
-4.40537e-12
-5.10845e-12
-1.18838e-10
-4.44531e-12
-7.41718e-13
-1.19782e-10
-4.46072e-12
3.65568e-12
-1.19774e-10
-4.44871e-12
7.87375e-12
-1.18828e-10
-4.41203e-12
1.17118e-11
-1.17003e-10
-4.35613e-12
1.49916e-11
-1.14398e-10
-4.28944e-12
1.7566e-11
-1.11135e-10
-4.21494e-12
1.93215e-11
-1.07334e-10
-4.1318e-12
2.01843e-11
-1.03127e-10
-4.03909e-12
2.01086e-11
-9.86499e-11
-3.94244e-12
1.90797e-11
-9.41239e-11
-3.86053e-12
1.70754e-11
-8.97153e-11
-3.79496e-12
1.42858e-11
-8.56118e-11
-3.81096e-12
1.08233e-11
-8.20215e-11
-3.93245e-12
6.95711e-12
-7.91177e-11
-4.03529e-12
2.84322e-12
-7.70882e-11
-4.02391e-12
-7.55902e-11
-4.31615e-12
-4.22643e-12
-6.90725e-11
-4.22643e-12
-1.00176e-11
-7.33318e-11
-4.53406e-12
-1.48625e-11
-7.50161e-11
-4.5982e-12
-1.89841e-11
-7.82082e-11
-4.73306e-12
-2.22273e-11
-8.22971e-11
-4.83298e-12
-2.4471e-11
-8.70685e-11
-4.94148e-12
-2.56914e-11
-9.23162e-11
-5.03468e-12
-2.5802e-11
-9.77892e-11
-5.15441e-12
-2.47841e-11
-1.03321e-10
-5.25824e-12
-2.2691e-11
-1.08636e-10
-5.37949e-12
-1.96446e-11
-1.13464e-10
-5.49505e-12
-1.57405e-11
-1.17609e-10
-5.58668e-12
-1.11058e-11
-1.20906e-10
-5.64367e-12
-5.96972e-12
-1.23189e-10
-5.66735e-12
-5.81761e-13
-1.24373e-10
-5.65964e-12
4.79931e-12
-1.24389e-10
-5.62224e-12
9.91895e-12
-1.23266e-10
-5.55907e-12
1.45392e-11
-1.21063e-10
-5.48307e-12
1.84555e-11
-1.17888e-10
-5.40036e-12
2.15064e-11
-1.13878e-10
-5.31242e-12
2.35586e-11
-1.0916e-10
-5.21869e-12
2.45316e-11
-1.03912e-10
-5.11756e-12
2.4355e-11
-9.83094e-11
-5.00739e-12
2.30149e-11
-9.26492e-11
-4.91407e-12
2.05959e-11
-8.71439e-11
-4.90273e-12
1.72682e-11
-8.20846e-11
-4.91403e-12
1.32195e-11
-7.76978e-11
-4.94687e-12
8.69953e-12
-7.42551e-11
-4.97976e-12
4.00854e-12
-7.20165e-11
-5.0092e-12
-7.03193e-11
-5.11276e-12
-5.64788e-12
-6.06341e-11
-5.64788e-12
-1.23387e-11
-6.52543e-11
-5.88336e-12
-1.81167e-11
-6.74437e-11
-5.91583e-12
-2.30243e-11
-7.14041e-11
-6.02975e-12
-2.69165e-11
-7.64621e-11
-6.10572e-12
-2.96445e-11
-8.23422e-11
-6.20327e-12
-3.11124e-11
-8.88232e-11
-6.33203e-12
-3.12115e-11
-9.55984e-11
-6.44711e-12
-2.99834e-11
-1.02391e-10
-6.5813e-12
-2.74668e-11
-1.08938e-10
-6.71732e-12
-2.37117e-11
-1.14899e-10
-6.84316e-12
-1.88788e-11
-1.20014e-10
-6.94273e-12
-1.32023e-11
-1.24073e-10
-7.01057e-12
-6.93411e-12
-1.26907e-10
-7.03435e-12
-3.66617e-13
-1.28394e-10
-7.01738e-12
6.15773e-12
-1.28413e-10
-6.97698e-12
1.23432e-11
-1.27046e-10
-6.9104e-12
1.79066e-11
-1.24348e-10
-6.82202e-12
2.26026e-11
-1.20435e-10
-6.71689e-12
2.62425e-11
-1.15471e-10
-6.60061e-12
2.86523e-11
-1.09576e-10
-6.48554e-12
2.97373e-11
-1.03036e-10
-6.36321e-12
2.9483e-11
-9.61605e-11
-6.22157e-12
2.78544e-11
-8.91816e-11
-6.13262e-12
2.4967e-11
-8.24463e-11
-6.0844e-12
2.10738e-11
-7.63886e-11
-6.03467e-12
1.63479e-11
-7.11822e-11
-5.99295e-12
1.10056e-11
-6.71507e-11
-5.94617e-12
5.34626e-12
-6.4594e-11
-5.88611e-12
-6.24054e-11
-5.88699e-12
-7.25951e-12
-4.85372e-11
-7.25951e-12
-1.5046e-11
-5.36077e-11
-7.40571e-12
-2.19363e-11
-5.64338e-11
-7.41321e-12
-2.78195e-11
-6.13206e-11
-7.52082e-12
-3.25168e-11
-6.7558e-11
-7.61607e-12
-3.57955e-11
-7.48151e-11
-7.73088e-12
-3.75657e-11
-8.27879e-11
-7.88448e-12
-3.76756e-11
-9.11431e-11
-8.03762e-12
-3.61586e-11
-9.95042e-11
-8.19105e-12
-3.30767e-11
-1.07528e-10
-8.36756e-12
-2.85024e-11
-1.14845e-10
-8.52413e-12
-2.26072e-11
-1.21153e-10
-8.6399e-12
-1.5698e-11
-1.26123e-10
-8.72716e-12
-8.10088e-12
-1.29579e-10
-8.77956e-12
-1.85783e-13
-1.31365e-10
-8.79473e-12
7.70306e-12
-1.31404e-10
-8.75897e-12
1.51882e-11
-1.29734e-10
-8.67854e-12
2.19304e-11
-1.26424e-10
-8.55965e-12
2.76086e-11
-1.2159e-10
-8.39524e-12
3.19632e-11
-1.15405e-10
-8.22275e-12
3.48314e-11
-1.08085e-10
-8.05671e-12
3.61245e-11
-1.00015e-10
-7.91076e-12
3.57932e-11
-9.15828e-11
-7.78947e-12
3.38769e-11
-8.31251e-11
-7.6727e-12
3.05316e-11
-7.50382e-11
-7.57433e-12
2.59653e-11
-6.78505e-11
-7.44086e-12
2.03693e-11
-6.17569e-11
-7.28567e-12
1.39558e-11
-5.70302e-11
-7.13152e-12
7.00188e-12
-5.3906e-11
-6.98903e-12
-5.08832e-11
-6.9317e-12