/*--------------------------------*- C++ -*----------------------------------*\
| =========                 |                                                 |
| \\      /  F ield         | OpenFOAM: The Open Source CFD Toolbox           |
|  \\    /   O peration     | Version:  2312                                  |
|   \\  /    A nd           | Website:  www.openfoam.com                      |
|    \\/     M anipulation  |                                                 |
\*---------------------------------------------------------------------------*/
FoamFile
{
    version     2.0;
    format      ascii;
    arch        "LSB;label=32;scalar=64";
    class       volScalarField;
    location    "0.0940323";
    object      alpha.water;
}
// * * * * * * * * * * * * * * * * * * * * * * * * * * * * * * * * * * * * * //

dimensions      [0 0 0 0 0 0 0];

internalField   nonuniform List<scalar> 
90000
(
1
1
1
1
1
1
1
1
1
1
1
1
1
1
1
1
1
1
1
1
1
1
1
1
1
1
1
1
1
1
1
1
1
1
1
1
1
1
1
1
1
1
1
1
1
1
1
1
1
1
1
1
1
1
1
1
1
1
1
1
1
1
1
1
1
1
1
1
1
1
1
1
1
1
1
1
1
1
1
1
1
1
1
1
1
1
1
1
1
1
1
1
1
1
1
1
1
1
1
1
1
1
1
1
1
1
1
1
1
1
1
1
1
1
1
1
1
1
1
1
1
1
1
1
1
1
1
1
1
1
1
1
1
1
1
1
1
1
1
1
1
1
1
1
1
1
1
1
1
1
1
1
1
1
1
1
1
1
1
1
1
1
1
1
1
1
1
1
1
1
1
1
1
1
1
1
1
1
1
1
1
1
1
1
1
1
1
1
1
1
1
1
1
1
1
1
1
1
1
1
1
1
1
1
1
1
1
1
1
1
1
1
1
1
1
1
1
1
1
1
1
1
1
1
1
1
1
1
1
1
1
1
1
1
1
1
1
1
1
1
1
1
1
1
1
1
1
1
1
1
1
1
1
1
1
1
1
1
1
1
1
1
1
1
1
1
1
1
1
1
1
1
1
1
1
1
1
1
1
1
1
1
1
1
1
1
1
1
1
1
1
1
1
1
1
1
1
1
1
1
1
1
1
1
1
1
1
1
1
1
1
1
1
1
1
1
1
1
1
1
1
1
1
1
1
1
1
1
1
1
1
1
1
1
1
1
1
1
1
1
1
1
1
1
1
1
1
1
1
1
1
1
1
1
1
1
1
1
1
1
1
1
1
1
1
1
1
1
1
1
1
1
1
1
1
1
1
1
1
1
1
1
1
1
1
1
1
1
1
1
1
1
1
1
1
1
1
1
1
1
1
1
1
1
1
1
1
1
1
1
1
1
1
1
1
1
1
1
1
1
1
1
1
1
1
1
1
1
1
1
1
1
1
1
1
1
1
1
1
1
1
1
1
1
1
1
1
1
1
1
1
1
1
1
1
1
1
1
1
1
1
1
1
1
1
1
1
1
1
1
1
1
1
1
1
1
1
1
1
1
1
1
1
1
1
1
1
1
1
1
1
1
1
1
1
1
1
1
1
1
1
1
1
1
1
1
1
1
1
1
1
1
1
1
1
1
1
1
1
1
1
1
1
1
1
1
1
1
1
1
1
1
1
1
1
1
1
1
1
1
1
1
1
1
1
1
1
1
1
1
1
1
1
1
1
1
1
1
1
1
1
1
1
1
1
1
1
1
1
1
1
1
1
1
1
1
1
1
1
1
1
1
1
1
1
1
1
1
1
1
1
1
1
1
1
1
1
1
1
1
1
1
1
1
1
1
1
1
1
1
1
1
1
1
1
1
1
1
1
1
1
1
1
1
1
1
1
1
1
1
1
1
1
1
1
1
1
1
1
1
1
1
1
1
1
1
1
1
1
1
1
1
1
1
1
1
1
1
1
1
1
1
1
1
1
1
1
1
1
1
1
1
1
1
1
1
1
1
1
1
1
1
1
1
1
1
1
1
1
1
1
1
1
1
1
1
1
1
1
1
1
1
1
1
1
1
1
1
1
1
1
1
1
1
1
1
1
1
1
1
1
1
1
1
1
1
1
1
1
1
1
1
1
1
1
1
1
1
1
1
1
1
1
1
1
1
1
1
1
1
1
1
1
1
1
1
1
1
1
1
1
1
1
1
1
1
1
1
1
1
1
1
1
1
1
1
1
1
1
1
1
1
1
1
1
1
1
1
1
1
1
1
1
1
1
1
1
1
1
1
1
1
1
1
1
1
1
1
1
1
1
1
1
1
1
1
1
1
1
1
1
1
1
1
1
1
1
1
1
1
1
1
1
1
1
1
1
1
1
1
1
1
1
1
1
1
1
1
1
1
1
1
1
1
1
1
1
1
1
1
1
1
1
1
1
1
1
1
1
1
1
1
1
1
1
1
1
1
1
1
1
1
1
1
1
1
1
1
1
1
1
1
1
1
1
1
1
1
1
1
1
1
1
1
1
1
1
1
1
1
1
1
1
1
1
1
1
1
1
1
1
1
1
1
1
1
1
1
1
1
1
1
1
1
1
1
1
1
1
1
1
1
1
1
1
1
1
1
1
1
1
1
1
1
1
1
1
1
1
1
1
1
1
1
1
1
1
1
1
1
1
1
1
1
1
1
1
1
1
1
1
1
1
1
1
1
1
1
1
1
1
1
1
1
1
1
1
1
1
1
1
1
1
1
1
1
1
1
1
1
1
1
1
1
1
1
1
1
1
1
1
1
1
1
1
1
1
1
1
1
1
1
1
1
1
1
1
1
1
1
1
1
1
1
1
1
1
1
1
1
1
1
1
1
1
1
1
1
1
1
1
1
1
1
1
1
1
1
1
1
1
1
1
1
1
1
1
1
1
1
1
1
1
1
1
1
1
1
1
1
1
1
1
1
1
1
1
1
1
1
1
1
1
1
1
1
1
1
1
1
1
1
1
1
1
1
1
1
1
1
1
1
1
1
1
1
1
1
1
1
1
1
1
1
1
1
1
1
1
1
1
1
1
1
1
1
1
1
1
1
1
1
1
1
1
1
1
1
1
1
1
1
1
1
1
1
1
1
1
1
1
1
1
1
1
1
1
1
1
1
1
1
1
1
1
1
1
1
1
1
1
1
1
1
1
1
1
1
1
1
1
1
1
1
1
1
1
1
1
1
1
1
1
1
1
1
1
1
1
1
1
1
1
1
1
1
1
1
1
1
1
1
1
1
1
1
1
1
1
1
1
1
1
1
1
1
1
1
1
1
1
1
1
1
1
1
1
1
1
1
1
1
1
1
1
1
1
0.999999
0.999999
0.999999
0.999999
0.999999
0.999999
0.999999
0.999999
0.999999
0.999999
0.999999
0.999999
0.999999
0.999999
0.999999
0.999999
0.999999
1
1
1
1
0.999999
0.999999
1
1
1
1
1
1
1
1
1
1
1
1
1
1
1
1
1
1
1
1
1
1
1
1
1
1
1
1
1
1
1
1
1
1
1
1
1
1
1
1
1
1
1
1
1
1
1
1
1
1
1
1
1
1
1
1
1
1
1
1
1
1
1
0.999999
1
0.999999
1
0.999999
0.999999
0.999999
1
0.999999
0.999999
0.999999
0.999999
0.999999
0.999999
1
0.999999
1
0.999999
0.999999
1
1
0.999999
0.999999
0.999999
0.999999
1
0.999999
1
1
1
1
1
1
1
1
1
1
1
1
1
1
1
1
1
1
1
1
1
1
1
1
1
1
1
1
1
1
0.999999
1
0.999999
0.999998
0.999999
0.999999
0.999999
1
0.999999
1
0.999999
0.999999
0.999999
0.999999
0.999999
0.999999
0.999999
1
0.999999
1
0.999999
0.999999
0.999999
0.999999
0.999999
0.999999
0.999999
0.999999
0.999998
0.999999
0.999999
1
1
1
1
1
1
1
1
1
1
1
1
1
1
1
1
1
1
1
1
1
1
1
1
1
1
1
1
1
0.999912
1.00001
1
1.00004
1.00005
1
1
1.00001
1
1.00001
1.00002
1.00003
1.00003
1.00002
1.00003
1.00002
1.00003
1
1
1.00003
1.00003
1.00003
1
1
1.00001
1
0.999968
0.999953
0.999929
0.999944
0.000275249
0.000216847
0.000218513
0.000189446
0.000175779
0.000217931
0.000216972
0.000208118
0.000209883
0.000200151
0.000181395
0.000168959
0.000166224
0.00017585
0.000163831
0.000178508
0.000162762
0.000196788
0.000198179
0.000177959
0.000174273
0.000178517
0.000216443
0.000217254
0.000207891
0.000218938
0.000248756
0.00025786
0.000274703
0.000259391
4.05497e-11
4.36636e-09
2.95154e-09
3.40169e-09
3.36522e-09
3.94204e-09
4.46477e-09
5.08069e-09
5.82466e-09
5.9597e-09
5.6786e-09
5.7058e-09
5.85133e-09
6.44035e-09
5.86515e-09
6.70253e-09
5.71548e-09
7.53665e-09
6.85142e-09
5.26694e-09
4.67705e-09
4.33139e-09
5.75019e-09
5.10211e-09
3.91813e-09
3.4367e-09
4.45394e-09
1.68259e-09
6.88367e-10
1.20646e-09
5.7914e-13
4.05497e-11
5.26882e-11
6.39406e-11
6.59023e-11
8.10672e-11
9.74127e-11
1.17263e-10
1.41778e-10
1.53302e-10
1.5316e-10
1.61021e-10
1.70866e-10
1.93215e-10
1.79253e-10
2.04146e-10
1.72383e-10
2.22044e-10
1.96297e-10
1.45144e-10
1.2292e-10
1.07671e-10
1.3444e-10
1.13054e-10
8.26329e-11
6.78633e-11
8.31523e-11
3.03048e-11
1.15847e-11
1.72456e-11
1.20513e-14
5.7914e-13
1.30662e-12
1.64375e-12
1.77233e-12
2.2983e-12
2.92495e-12
3.72867e-12
4.76222e-12
5.43052e-12
5.71288e-12
6.26508e-12
6.88297e-12
7.9899e-12
7.52137e-12
8.57951e-12
7.17622e-12
9.01419e-12
7.76484e-12
5.54072e-12
4.46315e-12
3.70847e-12
4.3475e-12
3.4746e-12
2.39308e-12
1.85509e-12
2.15071e-12
7.68269e-13
2.80457e-13
4.31656e-13
3.17564e-16
1.20513e-14
4.14087e-14
5.39151e-14
6.05256e-14
8.23602e-14
1.10603e-13
1.49066e-13
2.01632e-13
2.42961e-13
2.69153e-13
3.08537e-13
3.51932e-13
4.20188e-13
4.03622e-13
4.59658e-13
3.81623e-13
4.66157e-13
3.92357e-13
2.71316e-13
2.08044e-13
1.63778e-13
1.79318e-13
1.37266e-13
8.96393e-14
6.52971e-14
7.12701e-14
2.53526e-14
8.79746e-15
1.2827e-14
8.44394e-18
2.8071e-15
2.008e-15
2.67495e-15
2.9041e-15
3.9263e-15
5.48351e-15
7.77619e-15
1.11857e-14
1.43076e-14
1.71095e-14
2.1078e-14
2.59245e-14
3.25276e-14
3.33905e-14
3.76099e-14
3.17808e-14
3.64232e-14
3.19413e-14
2.25052e-14
1.64278e-14
1.22807e-14
1.2084e-14
1.0107e-14
6.51783e-15
4.25197e-15
4.04546e-15
1.84426e-15
4.87061e-16
1.19567e-15
2.98024e-19
1.53108e-16
9.1714e-17
1.28903e-16
1.49961e-16
2.15429e-16
3.20799e-16
4.83676e-16
7.39651e-16
9.99644e-16
1.23725e-15
1.5695e-15
1.96482e-15
2.5019e-15
2.54466e-15
2.89122e-15
2.38143e-15
2.75982e-15
2.31211e-15
1.53321e-15
1.07299e-15
7.61016e-16
7.32511e-16
5.64053e-16
3.37512e-16
2.10332e-16
1.942e-16
7.89881e-17
2.08895e-17
5.33116e-17
1.00896e-20
6.13868e-18
4.31803e-18
6.32949e-18
7.77107e-18
1.17393e-17
1.84613e-17
2.93956e-17
4.73838e-17
6.74282e-17
8.69961e-17
1.14008e-16
1.45827e-16
1.88761e-16
1.93517e-16
2.21815e-16
1.80409e-16
2.07988e-16
1.65548e-16
1.04047e-16
6.95909e-17
4.69603e-17
4.32156e-17
3.03204e-17
1.71465e-17
1.03538e-17
9.35573e-18
3.37922e-18
9.32724e-19
2.2318e-18
2.16253e-22
2.88893e-19
2.09655e-19
3.17947e-19
4.08797e-19
6.48408e-19
1.07633e-18
1.80599e-18
3.06186e-18
4.57327e-18
6.14648e-18
8.32065e-18
1.08815e-17
1.46086e-17
1.51423e-17
1.73309e-17
1.39085e-17
1.56876e-17
1.19715e-17
7.20316e-18
4.61129e-18
2.97376e-18
2.59572e-18
1.68565e-18
9.07785e-19
5.28876e-19
4.62889e-19
1.54e-19
4.30694e-20
1.01086e-19
4.51007e-24
1.40767e-20
1.03104e-20
1.63316e-20
2.16291e-20
3.59237e-20
6.27356e-20
1.10455e-19
1.96013e-19
3.0844e-19
4.35001e-19
6.13837e-19
8.27948e-19
1.12366e-18
1.16588e-18
1.32952e-18
1.05426e-18
1.1633e-18
8.52365e-19
4.92661e-19
3.03149e-19
1.87058e-19
1.55463e-19
9.4047e-20
4.83406e-20
2.72307e-20
2.31265e-20
7.18492e-21
2.0449e-21
4.67993e-21
2.06633e-25
6.84431e-22
5.27594e-22
8.51834e-22
1.18449e-21
2.03068e-21
3.70465e-21
6.82412e-21
1.26957e-20
2.07928e-20
3.03301e-20
4.4019e-20
6.04801e-20
8.25227e-20
8.57309e-20
9.71993e-20
7.65299e-20
8.21352e-20
5.81616e-20
3.26607e-20
1.94084e-20
1.15372e-20
9.10682e-21
5.17179e-21
2.54803e-21
1.3925e-21
1.1518e-21
3.35669e-22
9.78629e-23
2.15961e-22
1.32936e-26
3.17198e-23
2.60412e-23
4.23779e-23
6.22178e-23
1.10761e-22
2.0771e-22
3.94899e-22
7.52047e-22
1.26579e-21
1.89915e-21
2.81346e-21
3.9313e-21
5.40206e-21
5.62821e-21
6.34754e-21
4.94119e-21
5.20296e-21
3.57749e-21
1.94859e-21
1.11899e-21
6.46227e-22
4.91425e-22
2.67354e-22
1.27222e-22
6.82739e-23
5.47735e-23
1.55773e-23
4.64854e-24
9.64106e-24
8.00344e-28
1.37065e-24
1.15537e-24
1.8891e-24
2.851e-24
5.19752e-24
1.00328e-23
1.96718e-23
3.86694e-23
6.73012e-23
1.04033e-22
1.57857e-22
2.25171e-22
3.14013e-22
3.29826e-22
3.68277e-22
2.81101e-22
2.91481e-22
1.95164e-22
1.03072e-22
5.73215e-23
3.20309e-23
2.37692e-23
1.25297e-23
5.7883e-24
3.04396e-24
2.42334e-24
6.77995e-25
2.01945e-25
4.13322e-25
3.29124e-29
5.62997e-26
4.83972e-26
7.91929e-26
1.21767e-25
2.25529e-25
4.4457e-25
8.91831e-25
1.79717e-24
3.21288e-24
5.08531e-24
7.86552e-24
1.14085e-23
1.61127e-23
1.70504e-23
1.88319e-23
1.40983e-23
1.44487e-23
9.46553e-24
4.87513e-24
2.64424e-24
1.43907e-24
1.05127e-24
5.41546e-25
2.44912e-25
1.27e-25
1.01007e-25
2.79077e-26
8.31402e-27
1.68577e-26
1.23827e-30
2.1943e-27
1.91268e-27
3.11835e-27
4.8515e-27
9.06029e-27
1.80779e-26
3.67621e-26
7.52184e-26
1.36856e-25
2.19984e-25
3.4436e-25
5.04952e-25
7.19243e-25
7.65432e-25
8.36192e-25
6.15276e-25
6.26104e-25
4.03864e-25
2.04376e-25
1.09008e-25
5.82519e-26
4.22846e-26
2.14763e-26
9.5841e-27
4.93148e-27
3.93291e-27
1.07728e-27
3.2196e-28
6.45095e-28
4.40444e-32
7.93735e-29
6.97202e-29
1.12835e-28
1.76515e-28
3.30101e-28
6.61342e-28
1.35136e-27
2.78171e-27
5.10381e-27
8.26059e-27
1.29886e-26
1.91353e-26
2.73663e-26
2.92311e-26
3.15754e-26
2.28716e-26
2.32044e-26
1.48197e-26
7.41739e-27
3.94246e-27
2.13429e-27
1.52212e-27
7.65682e-28
3.40154e-28
1.75268e-28
1.40507e-28
3.83262e-29
1.15095e-29
2.27917e-29
1.42406e-33
2.60082e-30
2.29249e-30
3.67117e-30
5.74226e-30
1.06835e-29
2.13283e-29
4.34209e-29
8.91078e-29
1.63359e-28
2.63893e-28
4.13489e-28
6.08021e-28
8.68944e-28
9.29368e-28
9.91857e-28
7.11396e-28
7.23335e-28
4.61899e-28
2.33483e-28
1.24322e-28
6.77066e-29
4.85588e-29
2.43181e-29
1.08022e-29
5.65686e-30
4.51864e-30
1.23548e-30
3.73488e-31
7.32261e-31
4.1163e-35
7.60734e-32
6.70869e-32
1.05985e-31
1.64825e-31
3.03029e-31
5.98134e-31
1.20262e-30
2.43739e-30
4.42209e-30
7.0639e-30
1.09363e-29
1.59372e-29
2.26412e-29
2.41758e-29
2.54466e-29
1.83923e-29
1.87931e-29
1.20451e-29
6.14086e-30
3.30706e-30
1.83075e-30
1.33421e-30
6.75432e-31
3.03584e-31
1.61395e-31
1.29259e-31
3.56326e-32
1.0961e-32
2.11358e-32
1.05509e-36
1.97414e-33
1.73656e-33
2.69841e-33
4.14878e-33
7.48533e-33
1.4491e-32
2.85126e-32
5.65046e-32
1.00415e-31
1.57019e-31
2.37943e-31
3.40888e-31
4.78523e-31
5.08302e-31
5.2611e-31
3.84945e-31
3.97288e-31
2.5761e-31
1.33714e-31
7.35891e-32
4.18661e-32
3.13431e-32
1.61962e-32
7.43079e-33
4.04032e-33
3.26444e-33
9.12047e-34
2.86366e-34
5.43395e-34
2.3889e-38
4.53003e-35
3.96266e-35
6.0385e-35
9.12832e-35
1.60578e-34
3.02482e-34
5.77104e-34
1.10692e-33
1.90609e-33
2.88596e-33
4.2364e-33
5.9134e-33
8.14754e-33
8.57843e-33
8.78605e-33
6.48149e-33
6.79738e-33
4.49964e-33
2.40203e-33
1.36555e-33
8.07395e-34
6.2793e-34
3.34359e-34
1.57879e-34
8.83761e-35
7.2789e-35
2.05895e-35
6.61464e-36
1.2361e-35
4.76258e-40
9.15179e-37
7.93996e-37
1.18332e-36
1.74992e-36
2.98413e-36
5.42976e-36
9.95852e-36
1.83066e-35
3.02178e-35
4.38084e-35
6.16259e-35
8.30187e-35
1.11479e-34
1.1589e-34
1.18261e-34
8.7641e-35
9.39739e-35
6.41338e-35
3.55805e-35
2.11187e-35
1.31191e-35
1.07177e-35
5.93228e-36
2.90356e-36
1.68264e-36
1.42667e-36
4.07694e-37
1.3429e-37
2.47271e-37
8.31991e-42
1.61779e-38
1.38914e-38
2.01993e-38
2.90916e-38
4.78513e-38
8.35626e-38
1.46198e-37
2.55298e-37
3.9992e-37
5.49259e-37
7.32702e-37
9.43629e-37
1.22611e-36
1.25348e-36
1.27324e-36
9.5122e-37
1.04935e-36
7.45931e-37
4.34488e-37
2.72034e-37
1.79328e-37
1.55529e-37
9.01639e-38
4.60224e-38
2.77422e-38
2.43253e-38
7.06557e-39
2.38073e-39
4.32229e-39
1.2646e-43
2.4842e-40
2.10699e-40
2.98307e-40
4.16753e-40
6.58204e-40
1.09695e-39
1.81847e-39
2.99306e-39
4.40964e-39
5.68149e-39
7.1172e-39
8.68315e-39
1.08394e-38
1.08502e-38
1.09614e-38
8.28073e-39
9.44917e-39
7.06898e-39
4.36556e-39
2.90954e-39
2.05398e-39
1.91029e-39
1.16729e-39
6.24648e-40
3.93386e-40
3.58319e-40
1.06353e-40
3.65937e-41
6.55737e-41
1.65858e-45
3.2879e-42
2.74886e-42
3.78182e-42
5.10597e-42
7.70936e-42
1.21986e-41
1.90441e-41
2.93375e-41
4.03188e-41
4.82873e-41
5.62857e-41
6.448e-41
7.66698e-41
7.50106e-41
7.52024e-41
5.76189e-41
6.83166e-41
5.43365e-41
3.5905e-41
2.56688e-41
1.9572e-41
1.97291e-41
1.27753e-41
7.20301e-42
4.76063e-42
4.52614e-42
1.37599e-42
4.84134e-43
8.57425e-43
1.8621e-47
3.72194e-44
3.06101e-44
4.08361e-44
5.30834e-44
7.62848e-44
1.14021e-43
1.66641e-43
2.38653e-43
3.03541e-43
3.34787e-43
3.59909e-43
3.83753e-43
4.31137e-43
4.10885e-43
4.08163e-43
3.18054e-43
3.93254e-43
3.36055e-43
2.39651e-43
1.84858e-43
1.53697e-43
1.70139e-43
1.17243e-43
6.99997e-44
4.87928e-44
4.86794e-44
1.5194e-44
5.47501e-45
9.59798e-45
1.77744e-49
3.57835e-46
2.88926e-46
3.72912e-46
4.64897e-46
6.32984e-46
8.89021e-46
1.20885e-45
1.59853e-45
1.86697e-45
1.87524e-45
1.84343e-45
1.8128e-45
1.90618e-45
1.76377e-45
1.73267e-45
1.37669e-45
1.77931e-45
1.65397e-45
1.28397e-45
1.08528e-45
9.85874e-46
1.20203e-45
8.95541e-46
5.69071e-46
4.20695e-46
4.4301e-46
1.42294e-46
5.25975e-47
9.14025e-47
1.4343e-51
2.90446e-48
2.2981e-48
2.86299e-48
3.40902e-48
4.37704e-48
5.74479e-48
7.21991e-48
8.75575e-48
9.27207e-48
8.42949e-48
7.48395e-48
6.70747e-48
6.54843e-48
5.85207e-48
5.66889e-48
4.60444e-48
6.21394e-48
6.40682e-48
5.45796e-48
5.17823e-48
5.13142e-48
6.87922e-48
5.65934e-48
3.84543e-48
3.03513e-48
3.39371e-48
1.12414e-48
4.2693e-49
7.36435e-49
9.73744e-54
1.98089e-50
1.53317e-50
1.83964e-50
2.08297e-50
2.51063e-50
3.06213e-50
3.53178e-50
3.91271e-50
3.63059e-50
3.06345e-50
2.38545e-50
1.91739e-50
1.73152e-50
1.47592e-50
1.40701e-50
1.14476e-50
1.71022e-50
1.88469e-50
1.82418e-50
1.97981e-50
2.15436e-50
3.19726e-50
2.94697e-50
2.16645e-50
1.82257e-50
2.16343e-50
7.45783e-51
2.91442e-51
4.9963e-51
5.53956e-56
1.1311e-52
8.54901e-53
9.86264e-53
1.05712e-52
1.19087e-52
1.34234e-52
1.41113e-52
1.38221e-52
1.18887e-52
8.61379e-53
5.92684e-53
4.22752e-53
3.45959e-53
2.78792e-53
2.61231e-53
2.11245e-53
3.5748e-53
4.29895e-53
4.66693e-53
5.83367e-53
7.47286e-53
1.1995e-52
1.26252e-52
1.01119e-52
9.08677e-53
1.1487e-52
4.13943e-53
1.6667e-53
2.84291e-53
2.63246e-58
5.39227e-55
3.97342e-55
4.40339e-55
4.44533e-55
4.66219e-55
4.83783e-55
4.56474e-55
4.0103e-55
3.0684e-55
1.91862e-55
1.14422e-55
7.12008e-56
5.19781e-56
3.92426e-56
3.59318e-56
2.84911e-56
5.40716e-56
7.47678e-56
9.34909e-56
1.33969e-55
2.07478e-55
3.64533e-55
4.44122e-55
3.89836e-55
3.75347e-55
5.07203e-55
1.91633e-55
7.95864e-56
1.35216e-55
1.04235e-60
2.14112e-57
1.53596e-57
1.63195e-57
1.54627e-57
1.51023e-57
1.412e-57
1.2221e-57
9.45226e-58
6.26136e-58
3.37612e-58
1.71761e-58
9.16645e-59
5.86535e-59
4.10443e-59
3.61453e-59
2.7861e-59
6.0372e-59
9.73559e-59
1.42312e-58
2.40061e-58
4.33924e-58
9.50067e-58
1.24692e-57
1.23988e-57
1.28231e-57
1.85821e-57
7.38061e-58
3.16446e-58
5.36102e-58
3.43177e-63
7.06668e-60
4.92921e-60
4.98618e-60
4.45033e-60
4.01353e-60
3.46023e-60
2.64058e-60
1.7962e-60
1.02562e-60
4.70206e-61
2.01205e-61
9.06544e-62
4.99552e-62
3.20457e-62
2.67414e-62
1.91435e-62
4.84885e-62
9.3258e-62
1.62127e-61
3.30897e-61
7.15312e-61
2.00815e-60
2.85359e-60
3.25034e-60
3.61855e-60
5.6384e-60
2.35987e-60
1.04524e-60
1.76778e-60
9.37822e-66
1.93557e-62
1.31152e-62
1.2617e-62
1.06909e-62
8.79721e-63
6.86386e-63
4.66328e-63
2.7662e-63
1.34972e-63
5.20275e-64
1.85126e-64
6.96033e-65
3.25539e-65
1.89944e-65
1.46785e-65
8.8125e-66
2.66982e-65
6.30285e-65
1.32976e-64
3.42042e-64
9.12497e-64
3.30921e-63
5.46663e-63
6.90843e-63
8.53498e-63
1.41497e-62
6.2531e-63
2.86236e-63
4.83923e-63
2.12457e-68
4.39565e-65
2.89046e-65
2.64311e-65
2.12e-65
1.58904e-65
1.11955e-65
6.73304e-66
3.46018e-66
1.43195e-66
4.60551e-67
1.35476e-67
4.24262e-68
1.68098e-68
8.97741e-69
6.17242e-69
4.00217e-69
1.3346e-68
3.994e-68
1.08673e-67
3.1385e-67
8.73211e-67
4.36762e-66
8.55395e-66
1.20165e-65
1.66492e-65
2.93361e-65
1.37121e-65
6.48785e-66
1.09827e-65
3.98764e-71
8.2746e-68
5.29977e-68
4.58938e-68
3.44972e-68
2.36713e-68
1.50206e-68
7.96749e-69
3.53136e-69
1.23455e-69
3.31086e-70
8.13125e-71
2.17686e-71
7.57336e-72
3.90659e-72
2.24009e-72
1.40821e-72
5.66267e-72
2.08285e-71
7.04519e-71
2.49642e-70
7.94473e-70
4.63296e-69
1.09024e-68
1.71988e-68
2.67418e-68
5.02186e-68
2.48603e-68
1.21564e-68
2.0651e-68
6.20281e-74
1.29194e-70
8.05379e-71
6.60613e-71
4.65221e-71
2.91643e-71
1.66409e-71
7.78144e-72
2.9719e-72
8.81009e-73
2.00912e-73
4.33061e-74
1.09182e-74
3.82986e-75
2.16308e-75
1.47525e-75
4.2251e-76
1.8536e-75
8.55858e-75
3.64237e-74
1.59893e-73
6.15458e-73
3.9422e-72
1.1356e-71
2.02787e-71
3.54423e-71
7.0989e-71
3.72552e-71
1.8816e-71
3.21822e-71
8.00885e-77
1.67665e-73
1.01558e-73
7.91792e-74
5.23575e-74
2.99265e-74
1.53667e-74
6.3656e-75
2.11597e-75
5.45394e-76
1.13067e-76
2.44808e-77
6.9153e-78
2.68435e-78
1.65813e-78
1.38084e-78
1.11044e-78
5.98877e-79
2.79165e-78
1.51007e-77
8.3154e-77
3.87844e-76
2.70352e-75
9.74114e-75
1.98052e-74
3.88816e-74
8.29851e-74
4.61866e-74
2.40615e-74
4.16428e-74
8.61402e-80
1.81674e-76
1.06806e-76
7.96644e-77
4.96983e-77
2.58963e-77
1.20568e-77
4.50392e-78
1.34492e-78
3.22915e-79
6.97159e-80
1.758e-80
5.58638e-81
2.30925e-81
1.48027e-81
1.32133e-81
1.64277e-81
2.22696e-81
1.75342e-81
5.07393e-81
3.50757e-80
1.99981e-79
1.55001e-78
7.01542e-78
1.61948e-77
3.55257e-77
8.05003e-77
4.74658e-77
2.54438e-77
4.49244e-77
7.77281e-83
1.65812e-79
9.44638e-80
6.81892e-80
4.05326e-80
1.93316e-80
8.31646e-81
2.91433e-81
8.36907e-82
2.07658e-82
5.16913e-83
1.4582e-83
4.85367e-84
2.0246e-84
1.29949e-84
1.18429e-84
1.62436e-84
3.01868e-84
5.88456e-84
6.57587e-84
1.2153e-83
8.47679e-83
8.16611e-82
4.39487e-81
1.13699e-80
2.73663e-80
6.51903e-80
4.06124e-80
2.22888e-80
4.07189e-80
5.95707e-86
1.29247e-82
7.12987e-83
5.07067e-83
2.9232e-83
1.2883e-83
5.30296e-84
1.85689e-84
5.51741e-85
1.5042e-85
4.09413e-86
1.19537e-86
3.95853e-87
1.62846e-87
1.03584e-87
9.50648e-88
1.34692e-87
2.7206e-87
6.6492e-87
1.74661e-86
3.69875e-86
4.17488e-86
4.83783e-85
2.57022e-84
7.10843e-84
1.80786e-83
4.45558e-83
2.91364e-83
1.62299e-83
3.14361e-83
3.96225e-89
8.81139e-86
4.70161e-86
3.38171e-86
1.9361e-86
8.06096e-87
3.3054e-87
1.21389e-87
3.8626e-88
1.10516e-88
3.07947e-89
8.88572e-90
2.87444e-90
1.15963e-90
7.29655e-91
6.7149e-91
9.68289e-91
2.02698e-90
5.34223e-90
1.67595e-89
5.25921e-89
1.0907e-88
3.39396e-88
1.54004e-87
4.23867e-87
1.0605e-86
2.67125e-86
1.83232e-86
9.86785e-87
2.11773e-86
2.36615e-92
5.4465e-89
2.81643e-89
2.11547e-89
1.23121e-89
4.95142e-90
2.08552e-90
8.13131e-91
2.65151e-91
7.6317e-92
2.0932e-92
5.86628e-93
1.84519e-93
7.29469e-94
4.54133e-94
4.18702e-94
6.12579e-94
1.31509e-93
3.60982e-93
1.22082e-92
4.37178e-92
1.33799e-91
4.15981e-91
1.42249e-90
3.41612e-90
6.19261e-90
1.59025e-89
1.03664e-89
5.05521e-90
1.29258e-89
1.33579e-95
3.21886e-92
1.61563e-92
1.30231e-92
7.776e-93
3.09277e-93
1.33667e-93
5.29747e-94
1.71863e-94
4.84036e-95
1.2853e-95
3.48126e-96
1.0642e-96
4.12558e-97
2.54199e-97
2.35149e-97
3.49214e-97
7.68284e-97
2.18069e-96
7.73281e-96
2.97422e-95
1.05197e-94
3.49554e-94
1.14325e-93
2.66884e-93
4.40141e-93
9.12429e-93
5.54721e-93
2.19847e-93
7.53929e-93
7.56379e-99
1.91578e-95
9.3975e-96
8.19684e-96
4.99634e-96
1.94517e-96
8.42614e-97
3.31138e-97
1.04687e-97
2.84809e-98
7.28547e-99
1.90689e-99
5.67315e-100
2.15993e-100
1.31858e-100
1.22606e-100
1.85145e-100
4.18258e-100
1.22832e-99
4.53048e-99
1.83057e-98
6.9955e-98
2.45713e-97
8.11896e-97
1.93081e-96
3.11994e-96
5.48319e-96
3.01794e-96
8.32568e-97
4.43743e-96
4.55513e-102
1.19838e-98
5.74882e-99
5.25292e-99
3.19211e-99
1.21185e-99
5.19467e-100
1.98936e-100
6.06812e-101
1.58886e-101
3.91679e-102
9.92799e-103
2.88146e-103
1.07965e-103
6.54297e-104
6.12048e-104
9.41462e-104
2.18846e-103
6.66192e-103
2.54941e-102
1.07079e-101
4.30014e-101
1.57788e-100
5.34152e-100
1.3055e-99
2.11662e-99
3.4276e-99
1.77472e-99
3.20404e-100
2.75845e-99
2.83681e-105
7.65978e-102
3.59753e-102
3.37184e-102
2.01785e-102
7.44897e-103
3.13255e-103
1.15927e-103
3.40243e-104
8.58125e-105
2.04372e-105
5.03118e-106
1.42837e-106
5.27819e-107
3.17906e-107
2.99406e-107
4.69515e-107
1.12463e-106
3.55306e-106
1.40889e-105
6.11514e-105
2.54613e-104
9.66683e-104
3.35503e-103
8.44015e-103
1.38775e-102
2.16943e-102
1.0826e-102
1.25415e-103
1.75444e-102
1.80726e-108
4.95493e-105
2.28186e-105
2.15666e-105
1.25989e-105
4.51589e-106
1.85626e-106
6.62093e-107
1.87077e-107
4.55495e-108
1.051e-108
2.51983e-109
7.01468e-110
2.56098e-110
1.53389e-110
1.45475e-110
2.32764e-110
5.74503e-110
1.88435e-109
7.73423e-109
3.45681e-108
1.48186e-107
5.78273e-107
2.05111e-106
5.30274e-106
8.88186e-106
1.37951e-105
6.80271e-106
5.29886e-107
1.12871e-105
1.1628e-111
3.21764e-108
1.45346e-108
1.37139e-108
7.77704e-109
2.70808e-109
1.08722e-109
3.73702e-110
1.01793e-110
2.39769e-111
5.37307e-112
1.25711e-112
3.4383e-113
1.24152e-113
7.40822e-114
7.0766e-114
1.1527e-113
2.93537e-113
9.99175e-113
4.2405e-112
1.94783e-111
8.56605e-111
3.42159e-110
1.2361e-109
3.27603e-109
5.59498e-109
8.7592e-109
4.33961e-109
2.59259e-110
7.27985e-109
7.48191e-115
2.0896e-111
9.26011e-112
8.68273e-112
4.76974e-112
1.6131e-112
6.32604e-113
2.09597e-113
5.50949e-114
1.25721e-114
2.74102e-115
6.2679e-116
1.68669e-116
6.05287e-117
3.60987e-117
3.47383e-117
5.75058e-117
1.50263e-116
5.30779e-116
2.32804e-115
1.09812e-114
4.9458e-114
2.0178e-113
7.40736e-113
2.00837e-112
3.49616e-112
5.55076e-112
2.77521e-112
1.57616e-113
4.6816e-112
7.37216e-115
1.05272e-114
4.27418e-112
3.08046e-112
1.08204e-112
4.07695e-113
1.27293e-113
3.24581e-114
7.36398e-115
1.62826e-115
3.87511e-116
1.08771e-116
3.37359e-117
1.61832e-117
9.44088e-118
9.1717e-118
1.5097e-117
3.36399e-117
1.06158e-116
3.82694e-116
1.64862e-115
7.66749e-115
3.42318e-114
1.38749e-113
5.01324e-113
1.42115e-112
1.44772e-112
1.52319e-113
1.52319e-113
1.52319e-113
1
1
1
1
1
1
1
1
1
1
1
1
1
1
1
1
1
1
1
1
1
1
1
1
1
1
1
1
1
1
1
1
1
1
1
1
1
1
1
1
1
1
1
1
1
1
1
1
1
1
1
1
1
1
1
1
1
1
1
1
1
1
1
1
1
1
1
1
1
1
1
1
1
1
1
1
1
1
1
1
1
1
1
1
1
1
1
1
1
1
1
1
1
1
1
1
1
1
1
1
1
1
1
1
1
1
1
1
1
1
1
1
1
1
1
1
1
1
1
1
1
1
1
1
1
1
1
1
1
1
1
1
1
1
1
1
1
1
1
1
1
1
1
1
1
1
1
1
1
1
1
1
1
1
1
1
1
1
1
1
1
1
1
1
1
1
1
1
1
1
1
1
1
1
1
1
1
1
1
1
1
1
1
1
1
1
1
1
1
1
1
1
1
1
1
1
1
1
1
1
1
1
1
1
1
1
1
1
1
1
1
1
1
1
1
1
1
1
1
1
1
1
1
1
1
1
1
1
1
1
1
1
1
1
1
1
1
1
1
1
1
1
1
1
1
1
1
1
1
1
1
1
1
1
1
1
1
1
1
1
1
1
1
1
1
1
1
1
1
1
1
1
1
1
1
1
1
1
1
1
1
1
1
1
1
1
1
1
1
1
1
1
1
1
1
1
1
1
1
1
1
1
1
1
1
1
1
1
1
1
1
1
1
1
1
1
1
1
1
1
1
1
1
1
1
1
1
1
1
1
1
1
1
1
1
1
1
1
1
1
1
1
1
1
1
1
1
1
1
1
1
1
1
1
1
1
1
1
1
1
1
1
1
1
1
1
1
1
1
1
1
1
1
1
1
1
1
1
1
1
1
1
1
1
1
1
1
1
1
1
1
1
1
1
1
1
1
1
1
1
1
1
1
1
1
1
1
1
1
1
1
1
1
1
1
1
1
1
1
1
1
1
1
1
1
1
1
1
1
1
1
1
1
1
1
1
1
1
1
1
1
1
1
1
1
1
1
1
1
1
1
1
1
1
1
1
1
1
1
1
1
1
1
1
1
1
1
1
1
1
1
1
1
1
1
1
1
1
1
1
1
1
1
1
1
1
1
1
1
1
1
1
1
1
1
1
1
1
1
1
1
1
1
1
1
1
1
1
1
1
1
1
1
1
1
1
1
1
1
1
1
1
1
1
1
1
1
1
1
1
1
1
1
1
1
1
1
1
1
1
1
1
1
1
1
1
1
1
1
1
1
1
1
1
1
1
1
1
1
1
1
1
1
1
1
1
1
1
1
1
1
1
1
1
1
1
1
1
1
1
1
1
1
1
1
1
1
1
1
1
1
1
1
1
1
1
1
1
1
1
1
1
1
1
1
1
1
1
1
1
1
1
1
1
1
1
1
1
1
1
1
1
1
1
1
1
1
1
1
1
1
1
1
1
1
1
1
1
1
1
1
1
1
1
1
1
1
1
1
1
1
1
1
1
1
1
1
1
1
1
1
1
1
1
1
1
1
1
1
1
1
1
1
1
1
1
1
1
1
1
1
1
1
1
1
1
1
1
1
1
1
1
1
1
1
1
1
1
1
1
1
1
1
1
1
1
1
1
1
1
1
1
1
1
1
1
1
1
1
1
1
1
1
1
1
1
1
1
1
1
1
1
1
1
1
1
1
1
1
1
1
1
1
1
1
1
1
1
1
1
1
1
1
1
1
1
1
1
1
1
1
1
1
1
1
1
1
1
1
1
1
1
1
1
1
1
1
1
1
1
1
1
1
1
1
1
1
1
1
1
1
1
1
1
1
1
1
1
1
1
1
1
1
1
1
1
1
1
1
1
1
1
1
1
1
1
1
1
1
1
1
1
1
1
1
1
1
1
1
1
1
1
1
1
1
1
1
1
1
1
1
1
1
1
1
1
1
1
1
1
1
1
1
1
1
1
1
1
1
1
1
1
1
1
1
1
1
1
1
1
1
1
1
1
1
1
1
1
1
1
1
1
1
1
1
1
1
1
1
1
1
1
1
1
1
1
1
1
1
1
1
1
1
1
1
1
1
1
1
1
1
1
1
1
1
1
1
1
1
1
1
1
1
1
1
1
1
1
1
1
1
1
1
1
1
1
1
1
1
1
1
1
1
1
1
1
1
1
1
1
1
1
1
1
1
1
1
1
1
1
1
1
1
1
1
1
1
1
1
1
1
1
1
1
1
1
1
1
1
1
1
1
1
1
1
1
1
1
1
1
1
1
1
1
1
1
1
1
1
1
1
1
1
1
1
1
1
1
1
1
1
1
1
1
1
1
1
1
1
1
1
1
1
1
1
1
1
1
1
1
1
1
1
1
1
1
1
1
1
1
1
1
1
1
1
1
1
1
1
1
1
1
1
1
1
1
1
1
1
1
1
1
1
1
1
1
1
1
1
1
1
1
1
1
1
1
1
1
1
1
1
1
1
1
1
1
1
1
1
1
1
1
1
1
1
1
1
1
1
1
1
1
1
1
1
1
1
1
1
1
1
1
1
1
1
1
1
1
1
1
1
1
1
1
1
1
1
1
1
1
1
1
1
1
1
1
1
1
1
1
1
1
1
1
1
1
1
1
1
1
1
1
1
1
1
1
1
1
1
1
1
1
1
1
1
1
1
1
1
1
1
1
1
1
1
1
1
1
1
1
1
1
1
1
1
1
1
1
1
1
1
1
1
1
1
1
1
1
1
1
1
1
1
1
1
1
1
1
1
1
1
1
1
1
1
1
1
1
1
1
1
1
1
1
1
1
1
1
1
1
1
1
1
1
1
1
0.999999
0.999999
0.999999
0.999999
0.999999
0.999999
0.999999
0.999999
0.999999
0.999999
0.999999
0.999999
0.999999
0.999999
0.999999
0.999999
0.999999
0.999999
0.999999
0.999999
0.999999
1
1
0.999999
1
1
1
1
1
1
1
1
0.999999
0.999999
0.999999
0.999999
1
1
1
1
1
1
0.999999
0.999999
1
1
1
1
1
1
1
1
0.999999
1
1
1
1
1
1
1
1
1
1
1
1
1
1
1
1
1
1
1
1
1
1
1
1
1
1
1
1
1
1
1
1
1
1
1
0.999999
0.999999
0.999998
0.999999
0.999999
0.999999
0.999999
0.999999
0.999999
0.999999
0.999999
0.999999
0.999999
0.999999
0.999999
0.999999
0.999999
1
0.999999
0.999999
0.999999
0.999999
0.999999
0.999998
0.999999
0.999999
1
0.999999
1
1
1
1
0.999999
0.999999
0.999999
1
1
1
1
1
1
1
1
1
1
1
1
1
1
1
1
1
1
1
0.999999
0.999999
1
1
0.999999
1
1
1
1
1
1
1
1
1
1
1
1
1
1
1
1
1
1
1
1
1
1
1
1
1
0.999999
1
1
0.999999
0.999995
0.999997
0.999998
0.999996
1
0.999999
0.999998
0.999998
0.999998
0.999997
0.999997
0.999997
0.999998
0.999998
0.999998
0.999997
0.999998
0.999999
0.999998
0.999997
0.999997
0.999998
0.999998
0.999997
0.999997
0.999998
0.999998
0.999999
1
1.00001
1
1
1
1
1
1
1
1
1
1
1
1
1
1
1
1
1
1
1
1
1
1
1
1
1
1
1.00001
1.00001
1.00001
0.999993
1.00002
1.00003
1.00002
1.00002
1.00003
1.00002
1.00001
1.00001
1.00001
1.00002
1.00002
1.00002
1.00003
1.00003
1.00002
1.00001
1.00002
1.00003
1.00004
1.00003
1.00002
1.00002
1.00003
1.00001
1.00002
0.999988
0.999952
0.999902
0.000216847
0.000225535
0.000215025
0.000199837
0.00020958
0.000208055
0.000190034
0.000194589
0.000192436
0.000189399
0.000186083
0.000176634
0.000171729
0.000167614
0.000154614
0.000156569
0.000164579
0.00017725
0.000172944
0.000168348
0.000167888
0.000183064
0.000190359
0.00019429
0.000194257
0.000211154
0.000208265
0.000234259
0.000261081
0.000289131
4.36636e-09
6.61672e-11
4.06267e-09
2.89775e-09
3.17622e-09
4.68562e-09
2.66174e-09
2.45511e-09
2.80162e-09
3.16619e-09
3.47655e-09
4.1545e-09
4.68988e-09
5.07124e-09
5.03874e-09
4.97882e-09
4.60177e-09
4.13261e-09
4.17045e-09
4.2825e-09
4.06047e-09
3.96942e-09
3.52947e-09
3.2331e-09
2.88255e-09
2.30796e-09
3.69073e-09
2.24273e-09
1.20646e-09
1.72456e-11
4.05497e-11
1.18938e-12
6.61666e-11
5.52427e-11
6.32535e-11
9.86686e-11
5.89253e-11
5.75516e-11
6.9481e-11
8.29711e-11
9.5788e-11
1.20017e-10
1.40302e-10
1.55844e-10
1.57786e-10
1.55612e-10
1.42287e-10
1.24982e-10
1.22314e-10
1.20543e-10
1.08966e-10
1.0081e-10
8.53247e-11
7.3459e-11
6.15155e-11
4.67657e-11
7.11586e-11
4.16789e-11
1.72456e-11
4.60425e-13
5.7914e-13
3.05459e-14
1.18937e-12
1.46537e-12
1.75105e-12
2.88376e-12
1.82625e-12
1.88733e-12
2.41305e-12
3.04672e-12
3.69836e-12
4.84459e-12
5.86426e-12
6.68068e-12
6.87545e-12
6.77709e-12
6.14031e-12
5.2726e-12
5.00356e-12
4.74905e-12
4.10421e-12
3.59498e-12
2.87933e-12
2.32974e-12
1.84258e-12
1.32444e-12
1.89184e-12
1.07806e-12
3.9848e-13
7.50925e-14
1.20513e-14
1.52922e-15
3.03159e-14
4.88855e-14
6.10784e-14
1.05775e-13
7.06546e-14
7.71319e-14
1.04597e-13
1.39438e-13
1.77991e-13
2.44068e-13
3.06217e-13
3.57989e-13
3.74182e-13
3.69066e-13
3.31775e-13
2.79108e-13
2.55759e-13
2.3556e-13
1.95433e-13
1.62685e-13
1.23265e-13
9.42522e-14
7.04807e-14
4.80955e-14
6.43953e-14
3.60938e-14
1.25227e-14
1.84677e-15
2.80711e-15
4.64678e-17
2.87936e-15
2.21985e-15
2.86737e-15
4.87553e-15
3.2255e-15
3.7099e-15
5.33067e-15
7.4498e-15
1.0047e-14
1.44522e-14
1.8881e-14
2.27115e-14
2.40949e-14
2.4399e-14
2.208e-14
1.86586e-14
1.58656e-14
1.59559e-14
1.38116e-14
1.15231e-14
8.40809e-15
6.37859e-15
4.72967e-15
3.12184e-15
3.61777e-15
2.51176e-15
1.2296e-15
5.41051e-17
1.53109e-16
1.26576e-18
1.3965e-16
1.14323e-16
1.54969e-16
2.91489e-16
1.95603e-16
2.28443e-16
3.40318e-16
4.5256e-16
6.91927e-16
1.06549e-15
1.52584e-15
1.93857e-15
2.08534e-15
2.04768e-15
1.85302e-15
1.47576e-15
1.25803e-15
1.18598e-15
9.37672e-16
7.3029e-16
5.08518e-16
3.59493e-16
2.47598e-16
1.53491e-16
1.81281e-16
1.14489e-16
5.8363e-17
1.91231e-18
6.13868e-18
4.95198e-20
6.86783e-18
5.87993e-18
8.27925e-18
1.67479e-17
1.20765e-17
1.48084e-17
2.35723e-17
3.42472e-17
5.23895e-17
8.62991e-17
1.2507e-16
1.60893e-16
1.7538e-16
1.68417e-16
1.52037e-16
1.16324e-16
9.76849e-17
8.70623e-17
6.41151e-17
4.68306e-17
3.10588e-17
2.05936e-17
1.32306e-17
7.75589e-18
9.10842e-18
5.1458e-18
2.56596e-18
7.24607e-20
2.88893e-19
1.99228e-21
3.56413e-19
3.07369e-19
4.47244e-19
9.68216e-19
7.48668e-19
9.52574e-19
1.63548e-18
2.56996e-18
4.00103e-18
6.95497e-18
1.02578e-17
1.34004e-17
1.48139e-17
1.40901e-17
1.25808e-17
9.33686e-18
7.67432e-18
6.45081e-18
4.45948e-18
3.06287e-18
1.92942e-18
1.22632e-18
7.24939e-19
4.03899e-19
4.71174e-19
2.4643e-19
1.22365e-19
2.88396e-21
1.40767e-20
8.51124e-23
1.87273e-20
1.63296e-20
2.44547e-20
5.70028e-20
4.66532e-20
6.20742e-20
1.13731e-19
1.92851e-19
3.10222e-19
5.55707e-19
8.35107e-19
1.11218e-18
1.25197e-18
1.19061e-18
1.0433e-18
7.61416e-19
6.06309e-19
4.87097e-19
3.15334e-19
2.048e-19
1.24585e-19
7.40636e-20
4.15141e-20
2.19946e-20
2.4818e-20
1.20757e-20
5.95092e-21
1.15212e-22
6.84431e-22
5.18128e-24
9.65576e-22
8.95759e-22
1.34976e-21
3.34395e-21
2.98684e-21
4.32182e-21