/*--------------------------------*- C++ -*----------------------------------*\
| =========                 |                                                 |
| \\      /  F ield         | OpenFOAM: The Open Source CFD Toolbox           |
|  \\    /   O peration     | Version:  2312                                  |
|   \\  /    A nd           | Website:  www.openfoam.com                      |
|    \\/     M anipulation  |                                                 |
\*---------------------------------------------------------------------------*/
FoamFile
{
    version     2.0;
    format      ascii;
    arch        "LSB;label=32;scalar=64";
    class       volScalarField;
    location    "0.0940323";
    object      epsilon;
}
// * * * * * * * * * * * * * * * * * * * * * * * * * * * * * * * * * * * * * //

dimensions      [0 2 -3 0 0 0 0];

internalField   nonuniform List<scalar> 
90000
(
1.73528e-05
1.73528e-05
1.73528e-05
1.73528e-05
1.73528e-05
1.73528e-05
1.73528e-05
1.73528e-05
1.73528e-05
1.73528e-05
1.73528e-05
1.73528e-05
1.73528e-05
1.73528e-05
1.73528e-05
1.73528e-05
1.73528e-05
1.73528e-05
1.73528e-05
1.73528e-05
1.73528e-05
1.73528e-05
1.73528e-05
1.73528e-05
1.73528e-05
1.73528e-05
1.73528e-05
1.73528e-05
1.73528e-05
1.73528e-05
1.73528e-05
1.73535e-05
1.73535e-05
1.73535e-05
1.73535e-05
1.73535e-05
1.73535e-05
1.73535e-05
1.73535e-05
1.73535e-05
1.73535e-05
1.73535e-05
1.73535e-05
1.73535e-05
1.73535e-05
1.73535e-05
1.73535e-05
1.73535e-05
1.73535e-05
1.73535e-05
1.73535e-05
1.73535e-05
1.73535e-05
1.73535e-05
1.73535e-05
1.73535e-05
1.73535e-05
1.73535e-05
1.73535e-05
1.73528e-05
1.73528e-05
1.73535e-05
1.73535e-05
1.73535e-05
1.73535e-05
1.73535e-05
1.73535e-05
1.73535e-05
1.73535e-05
1.73535e-05
1.73535e-05
1.73535e-05
1.73535e-05
1.73535e-05
1.73535e-05
1.73535e-05
1.73535e-05
1.73535e-05
1.73535e-05
1.73535e-05
1.73535e-05
1.73535e-05
1.73535e-05
1.73535e-05
1.73535e-05
1.73535e-05
1.73535e-05
1.73535e-05
1.73535e-05
1.73528e-05
1.73528e-05
1.73535e-05
1.73535e-05
1.73535e-05
1.73535e-05
1.73535e-05
1.73535e-05
1.73535e-05
1.73535e-05
1.73535e-05
1.73535e-05
1.73535e-05
1.73535e-05
1.73535e-05
1.73535e-05
1.73535e-05
1.73535e-05
1.73535e-05
1.73535e-05
1.73535e-05
1.73535e-05
1.73535e-05
1.73535e-05
1.73535e-05
1.73535e-05
1.73535e-05
1.73535e-05
1.73535e-05
1.73535e-05
1.73528e-05
1.73528e-05
1.73535e-05
1.73535e-05
1.73535e-05
1.73535e-05
1.73535e-05
1.73535e-05
1.73535e-05
1.73535e-05
1.73535e-05
1.73535e-05
1.73535e-05
1.73535e-05
1.73535e-05
1.73535e-05
1.73535e-05
1.73535e-05
1.73535e-05
1.73535e-05
1.73535e-05
1.73535e-05
1.73535e-05
1.73535e-05
1.73535e-05
1.73535e-05
1.73535e-05
1.73535e-05
1.73535e-05
1.73535e-05
1.73528e-05
1.73528e-05
1.73535e-05
1.73535e-05
1.73535e-05
1.73535e-05
1.73535e-05
1.73535e-05
1.73535e-05
1.73535e-05
1.73535e-05
1.73535e-05
1.73535e-05
1.73535e-05
1.73535e-05
1.73535e-05
1.73535e-05
1.73535e-05
1.73535e-05
1.73535e-05
1.73535e-05
1.73535e-05
1.73535e-05
1.73535e-05
1.73535e-05
1.73535e-05
1.73535e-05
1.73535e-05
1.73535e-05
1.73535e-05
1.73528e-05
1.73528e-05
1.73535e-05
1.73535e-05
1.73535e-05
1.73535e-05
1.73535e-05
1.73535e-05
1.73535e-05
1.73535e-05
1.73535e-05
1.73535e-05
1.73535e-05
1.73535e-05
1.73535e-05
1.73535e-05
1.73535e-05
1.73535e-05
1.73535e-05
1.73535e-05
1.73535e-05
1.73535e-05
1.73535e-05
1.73535e-05
1.73535e-05
1.73535e-05
1.73535e-05
1.73535e-05
1.73535e-05
1.73535e-05
1.73528e-05
1.73528e-05
1.73535e-05
1.73535e-05
1.73535e-05
1.73535e-05
1.73535e-05
1.73535e-05
1.73535e-05
1.73535e-05
1.73535e-05
1.73535e-05
1.73535e-05
1.73535e-05
1.73535e-05
1.73535e-05
1.73535e-05
1.73535e-05
1.73535e-05
1.73535e-05
1.73535e-05
1.73535e-05
1.73535e-05
1.73535e-05
1.73535e-05
1.73535e-05
1.73535e-05
1.73535e-05
1.73535e-05
1.73535e-05
1.73528e-05
1.73528e-05
1.73535e-05
1.73535e-05
1.73535e-05
1.73535e-05
1.73535e-05
1.73535e-05
1.73535e-05
1.73535e-05
1.73535e-05
1.73535e-05
1.73535e-05
1.73535e-05
1.73535e-05
1.73535e-05
1.73535e-05
1.73535e-05
1.73535e-05
1.73535e-05
1.73535e-05
1.73535e-05
1.73535e-05
1.73535e-05
1.73535e-05
1.73535e-05
1.73535e-05
1.73535e-05
1.73535e-05
1.73535e-05
1.73528e-05
1.73528e-05
1.73535e-05
1.73535e-05
1.73535e-05
1.73535e-05
1.73535e-05
1.73535e-05
1.73535e-05
1.73535e-05
1.73535e-05
1.73535e-05
1.73535e-05
1.73535e-05
1.73535e-05
1.73535e-05
1.73535e-05
1.73535e-05
1.73535e-05
1.73535e-05
1.73535e-05
1.73535e-05
1.73535e-05
1.73535e-05
1.73535e-05
1.73535e-05
1.73535e-05
1.73535e-05
1.73535e-05
1.73535e-05
1.73528e-05
1.73528e-05
1.73535e-05
1.73535e-05
1.73535e-05
1.73535e-05
1.73535e-05
1.73535e-05
1.73535e-05
1.73535e-05
1.73535e-05
1.73535e-05
1.73535e-05
1.73535e-05
1.73535e-05
1.73535e-05
1.73535e-05
1.73535e-05
1.73535e-05
1.73535e-05
1.73535e-05
1.73535e-05
1.73535e-05
1.73535e-05
1.73535e-05
1.73535e-05
1.73535e-05
1.73535e-05
1.73535e-05
1.73535e-05
1.73528e-05
1.73528e-05
1.73535e-05
1.73535e-05
1.73535e-05
1.73535e-05
1.73535e-05
1.73535e-05
1.73535e-05
1.73535e-05
1.73535e-05
1.73535e-05
1.73535e-05
1.73535e-05
1.73535e-05
1.73535e-05
1.73535e-05
1.73535e-05
1.73535e-05
1.73535e-05
1.73535e-05
1.73535e-05
1.73535e-05
1.73535e-05
1.73535e-05
1.73535e-05
1.73535e-05
1.73535e-05
1.73535e-05
1.73535e-05
1.73528e-05
1.73528e-05
1.73535e-05
1.73535e-05
1.73535e-05
1.73535e-05
1.73535e-05
1.73535e-05
1.73535e-05
1.73535e-05
1.73535e-05
1.73535e-05
1.73535e-05
1.73535e-05
1.73535e-05
1.73535e-05
1.73535e-05
1.73535e-05
1.73535e-05
1.73535e-05
1.73535e-05
1.73535e-05
1.73535e-05
1.73535e-05
1.73535e-05
1.73535e-05
1.73535e-05
1.73535e-05
1.73535e-05
1.73535e-05
1.73528e-05
1.73528e-05
1.73535e-05
1.73535e-05
1.73535e-05
1.73535e-05
1.73535e-05
1.73535e-05
1.73535e-05
1.73535e-05
1.73535e-05
1.73535e-05
1.73535e-05
1.73535e-05
1.73535e-05
1.73535e-05
1.73535e-05
1.73535e-05
1.73535e-05
1.73535e-05
1.73535e-05
1.73535e-05
1.73535e-05
1.73535e-05
1.73535e-05
1.73535e-05
1.73535e-05
1.73535e-05
1.73535e-05
1.73535e-05
1.73528e-05
1.73528e-05
1.73535e-05
1.73535e-05
1.73535e-05
1.73535e-05
1.73535e-05
1.73535e-05
1.73535e-05
1.73535e-05
1.73535e-05
1.73535e-05
1.73535e-05
1.73535e-05
1.73535e-05
1.73535e-05
1.73535e-05
1.73535e-05
1.73535e-05
1.73535e-05
1.73535e-05
1.73535e-05
1.73535e-05
1.73535e-05
1.73535e-05
1.73535e-05
1.73535e-05
1.73535e-05
1.73535e-05
1.73535e-05
1.73528e-05
1.73528e-05
1.73535e-05
1.73535e-05
1.73535e-05
1.73535e-05
1.73535e-05
1.73535e-05
1.73535e-05
1.73535e-05
1.73535e-05
1.73535e-05
1.73535e-05
1.73535e-05
1.73535e-05
1.73535e-05
1.73535e-05
1.73535e-05
1.73535e-05
1.73535e-05
1.73535e-05
1.73535e-05
1.73535e-05
1.73535e-05
1.73535e-05
1.73535e-05
1.73535e-05
1.73535e-05
1.73535e-05
1.73535e-05
1.73528e-05
1.73528e-05
1.73535e-05
1.73535e-05
1.73535e-05
1.73535e-05
1.73535e-05
1.73535e-05
1.73535e-05
1.73535e-05
1.73535e-05
1.73535e-05
1.73535e-05
1.73535e-05
1.73535e-05
1.73535e-05
1.73535e-05
1.73535e-05
1.73535e-05
1.73535e-05
1.73535e-05
1.73535e-05
1.73535e-05
1.73535e-05
1.73535e-05
1.73535e-05
1.73535e-05
1.73535e-05
1.73535e-05
1.73535e-05
1.73528e-05
1.73528e-05
1.73535e-05
1.73535e-05
1.73535e-05
1.73535e-05
1.73535e-05
1.73535e-05
1.73535e-05
1.73535e-05
1.73535e-05
1.73535e-05
1.73535e-05
1.73535e-05
1.73535e-05
1.73535e-05
1.73535e-05
1.73535e-05
1.73535e-05
1.73535e-05
1.73535e-05
1.73535e-05
1.73535e-05
1.73535e-05
1.73535e-05
1.73535e-05
1.73535e-05
1.73535e-05
1.73535e-05
1.73535e-05
1.73528e-05
1.73528e-05
1.73535e-05
1.73535e-05
1.73535e-05
1.73535e-05
1.73535e-05
1.73535e-05
1.73535e-05
1.73535e-05
1.73535e-05
1.73535e-05
1.73535e-05
1.73535e-05
1.73535e-05
1.73535e-05
1.73535e-05
1.73535e-05
1.73535e-05
1.73535e-05
1.73535e-05
1.73535e-05
1.73535e-05
1.73535e-05
1.73535e-05
1.73535e-05
1.73535e-05
1.73535e-05
1.73535e-05
1.73535e-05
1.73528e-05
1.73528e-05
1.73535e-05
1.73535e-05
1.73535e-05
1.73535e-05
1.73535e-05
1.73535e-05
1.73535e-05
1.73535e-05
1.73535e-05
1.73535e-05
1.73535e-05
1.73535e-05
1.73535e-05
1.73535e-05
1.73535e-05
1.73535e-05
1.73535e-05
1.73535e-05
1.73535e-05
1.73535e-05
1.73535e-05
1.73535e-05
1.73535e-05
1.73535e-05
1.73535e-05
1.73535e-05
1.73535e-05
1.73535e-05
1.73528e-05
1.73528e-05
1.73535e-05
1.73535e-05
1.73535e-05
1.73535e-05
1.73535e-05
1.73535e-05
1.73535e-05
1.73535e-05
1.73535e-05
1.73535e-05
1.73535e-05
1.73535e-05
1.73535e-05
1.73535e-05
1.73535e-05
1.73535e-05
1.73535e-05
1.73535e-05
1.73535e-05
1.73535e-05
1.73535e-05
1.73535e-05
1.73535e-05
1.73535e-05
1.73535e-05
1.73535e-05
1.73535e-05
1.73535e-05
1.73528e-05
1.73528e-05
1.73535e-05
1.73535e-05
1.73535e-05
1.73535e-05
1.73535e-05
1.73535e-05
1.73535e-05
1.73535e-05
1.73535e-05
1.73535e-05
1.73535e-05
1.73535e-05
1.73535e-05
1.73535e-05
1.73535e-05
1.73535e-05
1.73535e-05
1.73535e-05
1.73535e-05
1.73535e-05
1.73535e-05
1.73535e-05
1.73535e-05
1.73535e-05
1.73535e-05
1.73535e-05
1.73535e-05
1.73535e-05
1.73528e-05
1.73528e-05
1.73535e-05
1.73535e-05
1.73535e-05
1.73535e-05
1.73535e-05
1.73535e-05
1.73535e-05
1.73535e-05
1.73535e-05
1.73535e-05
1.73535e-05
1.73535e-05
1.73535e-05
1.73535e-05
1.73535e-05
1.73535e-05
1.73535e-05
1.73535e-05
1.73535e-05
1.73535e-05
1.73535e-05
1.73535e-05
1.73535e-05
1.73535e-05
1.73535e-05
1.73535e-05
1.73535e-05
1.73535e-05
1.73528e-05
1.73528e-05
1.73535e-05
1.73535e-05
1.73535e-05
1.73535e-05
1.73535e-05
1.73535e-05
1.73535e-05
1.73535e-05
1.73535e-05
1.73535e-05
1.73535e-05
1.73535e-05
1.73535e-05
1.73535e-05
1.73535e-05
1.73535e-05
1.73535e-05
1.73535e-05
1.73535e-05
1.73535e-05
1.73535e-05
1.73535e-05
1.73535e-05
1.73535e-05
1.73535e-05
1.73535e-05
1.73535e-05
1.73535e-05
1.73528e-05
1.73528e-05
1.73535e-05
1.73535e-05
1.73535e-05
1.73535e-05
1.73535e-05
1.73535e-05
1.73535e-05
1.73535e-05
1.73535e-05
1.73535e-05
1.73535e-05
1.73535e-05
1.73535e-05
1.73535e-05
1.73535e-05
1.73535e-05
1.73535e-05
1.73535e-05
1.73535e-05
1.73535e-05
1.73535e-05
1.73535e-05
1.73535e-05
1.73535e-05
1.73535e-05
1.73535e-05
1.73535e-05
1.73535e-05
1.73528e-05
1.73528e-05
1.73535e-05
1.73535e-05
1.73535e-05
1.73535e-05
1.73535e-05
1.73535e-05
1.73535e-05
1.73535e-05
1.73535e-05
1.73535e-05
1.73535e-05
1.73535e-05
1.73535e-05
1.73535e-05
1.73535e-05
1.73535e-05
1.73535e-05
1.73535e-05
1.73535e-05
1.73535e-05
1.73535e-05
1.73535e-05
1.73535e-05
1.73535e-05
1.73535e-05
1.73535e-05
1.73535e-05
1.73535e-05
1.73528e-05
1.73528e-05
1.73535e-05
1.73535e-05
1.73535e-05
1.73535e-05
1.73535e-05
1.73535e-05
1.73535e-05
1.73535e-05
1.73535e-05
1.73535e-05
1.73535e-05
1.73535e-05
1.73535e-05
1.73535e-05
1.73535e-05
1.73535e-05
1.73535e-05
1.73535e-05
1.73535e-05
1.73535e-05
1.73535e-05
1.73535e-05
1.73535e-05
1.73535e-05
1.73535e-05
1.73535e-05
1.73535e-05
1.73535e-05
1.73528e-05
1.73528e-05
1.73535e-05
1.73535e-05
1.73535e-05
1.73535e-05
1.73535e-05
1.73535e-05
1.73535e-05
1.73535e-05
1.73535e-05
1.73535e-05
1.73535e-05
1.73535e-05
1.73535e-05
1.73535e-05
1.73535e-05
1.73535e-05
1.73535e-05
1.73535e-05
1.73535e-05
1.73535e-05
1.73535e-05
1.73535e-05
1.73535e-05
1.73535e-05
1.73535e-05
1.73535e-05
1.73535e-05
1.73535e-05
1.73528e-05
1.73528e-05
1.73535e-05
1.73535e-05
1.73535e-05
1.73535e-05
1.73535e-05
1.73535e-05
1.73535e-05
1.73535e-05
1.73535e-05
1.73535e-05
1.73535e-05
1.73535e-05
1.73535e-05
1.73535e-05
1.73535e-05
1.73535e-05
1.73535e-05
1.73535e-05
1.73535e-05
1.73535e-05
1.73535e-05
1.73535e-05
1.73535e-05
1.73535e-05
1.73535e-05
1.73535e-05
1.73535e-05
1.73535e-05
1.73528e-05
1.73528e-05
1.73535e-05
1.73535e-05
1.73535e-05
1.73535e-05
1.73535e-05
1.73535e-05
1.73535e-05
1.73535e-05
1.73535e-05
1.73535e-05
1.73535e-05
1.73535e-05
1.73535e-05
1.73535e-05
1.73535e-05
1.73535e-05
1.73535e-05
1.73535e-05
1.73535e-05
1.73535e-05
1.73535e-05
1.73535e-05
1.73535e-05
1.73535e-05
1.73535e-05
1.73535e-05
1.73535e-05
1.73535e-05
1.73528e-05
1.73528e-05
1.73535e-05
1.73535e-05
1.73535e-05
1.73535e-05
1.73535e-05
1.73535e-05
1.73535e-05
1.73535e-05
1.73535e-05
1.73535e-05
1.73535e-05
1.73535e-05
1.73535e-05
1.73535e-05
1.73535e-05
1.73535e-05
1.73535e-05
1.73535e-05
1.73535e-05
1.73535e-05
1.73535e-05
1.73535e-05
1.73535e-05
1.73535e-05
1.73535e-05
1.73535e-05
1.73535e-05
1.73535e-05
1.73528e-05
1.73528e-05
1.73535e-05
1.73535e-05
1.73535e-05
1.73535e-05
1.73535e-05
1.73535e-05
1.73535e-05
1.73535e-05
1.73535e-05
1.73535e-05
1.73535e-05
1.73535e-05
1.73535e-05
1.73535e-05
1.73535e-05
1.73535e-05
1.73535e-05
1.73535e-05
1.73535e-05
1.73535e-05
1.73535e-05
1.73535e-05
1.73535e-05
1.73535e-05
1.73535e-05
1.73535e-05
1.73535e-05
1.73535e-05
1.73528e-05
1.73528e-05
1.73535e-05
1.73535e-05
1.73535e-05
1.73535e-05
1.73535e-05
1.73535e-05
1.73535e-05
1.73535e-05
1.73535e-05
1.73535e-05
1.73535e-05
1.73535e-05
1.73535e-05
1.73535e-05
1.73535e-05
1.73535e-05
1.73535e-05
1.73535e-05
1.73535e-05
1.73535e-05
1.73535e-05
1.73535e-05
1.73535e-05
1.73535e-05
1.73535e-05
1.73535e-05
1.73535e-05
1.73535e-05
1.73528e-05
1.73528e-05
1.73535e-05
1.73535e-05
1.73535e-05
1.73535e-05
1.73535e-05
1.73535e-05
1.73535e-05
1.73535e-05
1.73535e-05
1.73535e-05
1.73535e-05
1.73535e-05
1.73535e-05
1.73535e-05
1.73535e-05
1.73535e-05
1.73535e-05
1.73535e-05
1.73535e-05
1.73535e-05
1.73535e-05
1.73535e-05
1.73535e-05
1.73535e-05
1.73535e-05
1.73535e-05
1.73535e-05
1.73535e-05
1.73528e-05
1.73528e-05
1.73535e-05
1.73535e-05
1.73535e-05
1.73535e-05
1.73535e-05
1.73535e-05
1.73535e-05
1.73535e-05
1.73535e-05
1.73535e-05
1.73535e-05
1.73535e-05
1.73535e-05
1.73535e-05
1.73535e-05
1.73535e-05
1.73535e-05
1.73535e-05
1.73535e-05
1.73535e-05
1.73535e-05
1.73535e-05
1.73535e-05
1.73535e-05
1.73535e-05
1.73535e-05
1.73535e-05
1.73535e-05
1.73528e-05
1.73528e-05
1.73535e-05
1.73535e-05
1.73535e-05
1.73535e-05
1.73535e-05
1.73535e-05
1.73535e-05
1.73535e-05
1.73535e-05
1.73535e-05
1.73535e-05
1.73535e-05
1.73535e-05
1.73535e-05
1.73535e-05
1.73535e-05
1.73535e-05
1.73535e-05
1.73535e-05
1.73535e-05
1.73535e-05
1.73535e-05
1.73535e-05
1.73535e-05
1.73535e-05
1.73535e-05
1.73535e-05
1.73535e-05
1.73528e-05
1.73528e-05
1.73535e-05
1.73535e-05
1.73535e-05
1.73535e-05
1.73535e-05
1.73535e-05
1.73535e-05
1.73535e-05
1.73535e-05
1.73535e-05
1.73535e-05
1.73535e-05
1.73535e-05
1.73535e-05
1.73535e-05
1.73535e-05
1.73535e-05
1.73535e-05
1.73535e-05
1.73535e-05
1.73535e-05
1.73535e-05
1.73535e-05
1.73535e-05
1.73535e-05
1.73535e-05
1.73535e-05
1.73535e-05
1.73528e-05
1.73528e-05
1.73535e-05
1.73535e-05
1.73535e-05
1.73535e-05
1.73535e-05
1.73535e-05
1.73535e-05
1.73535e-05
1.73535e-05
1.73535e-05
1.73535e-05
1.73535e-05
1.73535e-05
1.73535e-05
1.73535e-05
1.73535e-05
1.73535e-05
1.73535e-05
1.73535e-05
1.73535e-05
1.73535e-05
1.73535e-05
1.73535e-05
1.73535e-05
1.73535e-05
1.73535e-05
1.73535e-05
1.73535e-05
1.73528e-05
1.73528e-05
1.73536e-05
1.73536e-05
1.73536e-05
1.73536e-05
1.73536e-05
1.73536e-05
1.73535e-05
1.73535e-05
1.73535e-05
1.73535e-05
1.73535e-05
1.73535e-05
1.73535e-05
1.73535e-05
1.73535e-05
1.73535e-05
1.73535e-05
1.73535e-05
1.73535e-05
1.73535e-05
1.73535e-05
1.73535e-05
1.73536e-05
1.73536e-05
1.73536e-05
1.73536e-05
1.73536e-05
1.73536e-05
1.73528e-05
1.73528e-05
1.73536e-05
1.73536e-05
1.73536e-05
1.73536e-05
1.73536e-05
1.73536e-05
1.73536e-05
1.73536e-05
1.73536e-05
1.73535e-05
1.73535e-05
1.73535e-05
1.73535e-05
1.73535e-05
1.73535e-05
1.73535e-05
1.73535e-05
1.73535e-05
1.73535e-05
1.73536e-05
1.73536e-05
1.73536e-05
1.73536e-05
1.73536e-05
1.73536e-05
1.73536e-05
1.73536e-05
1.73536e-05
1.73528e-05
1.73529e-05
1.73536e-05
1.73536e-05
1.73536e-05
1.73536e-05
1.73536e-05
1.73536e-05
1.73536e-05
1.73536e-05
1.73536e-05
1.73536e-05
1.73536e-05
1.73535e-05
1.73535e-05
1.73535e-05
1.73535e-05
1.73535e-05
1.73535e-05
1.73536e-05
1.73536e-05
1.73536e-05
1.73536e-05
1.73536e-05
1.73536e-05
1.73536e-05
1.73536e-05
1.73536e-05
1.73536e-05
1.73536e-05
1.73529e-05
1.73529e-05
1.73536e-05
1.73536e-05
1.73536e-05
1.73536e-05
1.73536e-05
1.73536e-05
1.73536e-05
1.73536e-05
1.73536e-05
1.73536e-05
1.73536e-05
1.73536e-05
1.73535e-05
1.73535e-05
1.73535e-05
1.73535e-05
1.73536e-05
1.73536e-05
1.73536e-05
1.73536e-05
1.73536e-05
1.73536e-05
1.73536e-05
1.73536e-05
1.73536e-05
1.73536e-05
1.73536e-05
1.73536e-05
1.73529e-05
1.73529e-05
1.73536e-05
1.73536e-05
1.73536e-05
1.73536e-05
1.73536e-05
1.73536e-05
1.73536e-05
1.73536e-05
1.73536e-05
1.73536e-05
1.73536e-05
1.73536e-05
1.73536e-05
1.73535e-05
1.73535e-05
1.73536e-05
1.73536e-05
1.73536e-05
1.73536e-05
1.73536e-05
1.73536e-05
1.73536e-05
1.73536e-05
1.73536e-05
1.73536e-05
1.73536e-05
1.73536e-05
1.73536e-05
1.73529e-05
1.73529e-05
1.73536e-05
1.73536e-05
1.73536e-05
1.73536e-05
1.73536e-05
1.73536e-05
1.73536e-05
1.73536e-05
1.73536e-05
1.73536e-05
1.73536e-05
1.73536e-05
1.73536e-05
1.73536e-05
1.73536e-05
1.73536e-05
1.73536e-05
1.73536e-05
1.73536e-05
1.73536e-05
1.73536e-05
1.73536e-05
1.73536e-05
1.73536e-05
1.73536e-05
1.73536e-05
1.73536e-05
1.73536e-05
1.73529e-05
1.7353e-05
1.73537e-05
1.73537e-05
1.73537e-05
1.73537e-05
1.73537e-05
1.73537e-05
1.73537e-05
1.73536e-05
1.73536e-05
1.73536e-05
1.73536e-05
1.73536e-05
1.73536e-05
1.73536e-05
1.73536e-05
1.73536e-05
1.73536e-05
1.73536e-05
1.73536e-05
1.73536e-05
1.73536e-05
1.73537e-05
1.73537e-05
1.73537e-05
1.73537e-05
1.73537e-05
1.73537e-05
1.73537e-05
1.7353e-05
1.7353e-05
1.73537e-05
1.73537e-05
1.73537e-05
1.73537e-05
1.73537e-05
1.73537e-05
1.73537e-05
1.73537e-05
1.73537e-05
1.73537e-05
1.73536e-05
1.73536e-05
1.73536e-05
1.73536e-05
1.73536e-05
1.73536e-05
1.73536e-05
1.73536e-05
1.73537e-05
1.73537e-05
1.73537e-05
1.73537e-05
1.73537e-05
1.73537e-05
1.73537e-05
1.73537e-05
1.73537e-05
1.73537e-05
1.7353e-05
1.7353e-05
1.73538e-05
1.73538e-05
1.73537e-05
1.73538e-05
1.73537e-05
1.73538e-05
1.73537e-05
1.73537e-05
1.73537e-05
1.73537e-05
1.73537e-05
1.73537e-05
1.73537e-05
1.73536e-05
1.73537e-05
1.73537e-05
1.73537e-05
1.73537e-05
1.73537e-05
1.73537e-05
1.73537e-05
1.73537e-05
1.73537e-05
1.73538e-05
1.73538e-05
1.73538e-05
1.73538e-05
1.73538e-05
1.7353e-05
1.73531e-05
1.73538e-05
1.73538e-05
1.73537e-05
1.73539e-05
1.73538e-05
1.73537e-05
1.73538e-05
1.73538e-05
1.73538e-05
1.73537e-05
1.73537e-05
1.73537e-05
1.73537e-05
1.73537e-05
1.73537e-05
1.73537e-05
1.73537e-05
1.73537e-05
1.73538e-05
1.73538e-05
1.73538e-05
1.73538e-05
1.73538e-05
1.73538e-05
1.73538e-05
1.73538e-05
1.73538e-05
1.73538e-05
1.73531e-05
1.73533e-05
1.73538e-05
1.73539e-05
1.73539e-05
1.73539e-05
1.73539e-05
1.73539e-05
1.73538e-05
1.73539e-05
1.73539e-05
1.73538e-05
1.73538e-05
1.73538e-05
1.73538e-05
1.73538e-05
1.73538e-05
1.73538e-05
1.73538e-05
1.73538e-05
1.73538e-05
1.73538e-05
1.73539e-05
1.73539e-05
1.73539e-05
1.73539e-05
1.73539e-05
1.73539e-05
1.73539e-05
1.73539e-05
1.73531e-05
1.73557e-05
1.73562e-05
1.73579e-05
1.73567e-05
1.73635e-05
1.73557e-05
1.73598e-05
1.73578e-05
1.7357e-05
1.73573e-05
1.73579e-05
1.73578e-05
1.73573e-05
1.73563e-05
1.73567e-05
1.73561e-05
1.73568e-05
1.73557e-05
1.73557e-05
1.73581e-05
1.73589e-05
1.73589e-05
1.73561e-05
1.73556e-05
1.73572e-05
1.73555e-05
1.73535e-05
1.73549e-05
1.73564e-05
1.73594e-05
1.76193e-05
1.75115e-05
1.74851e-05
1.76097e-05
1.78139e-05
1.7963e-05
1.79998e-05
1.80303e-05
1.80287e-05
1.80002e-05
1.79492e-05
1.78663e-05
1.7777e-05
1.76819e-05
1.76145e-05
1.76244e-05
1.76805e-05
1.77828e-05
1.78792e-05
1.7944e-05
1.79997e-05
1.80189e-05
1.79863e-05
1.78921e-05
1.77598e-05
1.76424e-05
1.75063e-05
1.74325e-05
1.74495e-05
1.74316e-05
1.80442e-05
1.8338e-05
1.83527e-05
1.86912e-05
1.88914e-05
1.90416e-05
1.92048e-05
1.93206e-05
1.93548e-05
1.93175e-05
1.91947e-05
1.90116e-05
1.87984e-05
1.85893e-05
1.84518e-05
1.84675e-05
1.85903e-05
1.87947e-05
1.8989e-05
1.91766e-05
1.93085e-05
1.93505e-05
1.9316e-05
1.92692e-05
1.91154e-05
1.88683e-05
1.8633e-05
1.83257e-05
1.78507e-05
1.73261e-05
1.84042e-05
1.86125e-05
1.88026e-05
1.90609e-05
1.92277e-05
1.93869e-05
1.95466e-05
1.96558e-05
1.97199e-05
1.96999e-05
1.96367e-05
1.95295e-05
1.94039e-05
1.92796e-05
1.92078e-05
1.92105e-05
1.92946e-05
1.93819e-05
1.95086e-05
1.96523e-05
1.97188e-05
1.97101e-05
1.96616e-05
1.95758e-05
1.94045e-05
1.92224e-05
1.90479e-05
1.89031e-05
1.88613e-05
1.83363e-05
1.91012e-05
1.9232e-05
1.93848e-05
1.95658e-05
1.97355e-05
1.99071e-05
2.00771e-05
2.02088e-05
2.02989e-05
2.03402e-05
2.03275e-05
2.02831e-05
2.02239e-05
2.01636e-05
2.01462e-05
2.014e-05
2.01616e-05
2.02095e-05
2.02731e-05
2.03274e-05
2.03409e-05
2.02932e-05
2.02182e-05
2.00876e-05
1.99285e-05
1.97358e-05
1.95081e-05
1.92678e-05
1.92941e-05
1.90116e-05
1.97442e-05
1.98214e-05
1.995e-05
2.01022e-05
2.02723e-05
2.04569e-05
2.06374e-05
2.07934e-05
2.09103e-05
2.09946e-05
2.10456e-05
2.10719e-05
2.10731e-05
2.10618e-05
2.10572e-05
2.10618e-05
2.1068e-05
2.10719e-05
2.10765e-05
2.10639e-05
2.10096e-05
2.09143e-05
2.07967e-05
2.0642e-05
2.04638e-05
2.02867e-05
2.012e-05
1.99127e-05
1.98544e-05
1.97294e-05
2.03552e-05
2.03886e-05
2.04988e-05
2.06434e-05
2.08199e-05
2.10162e-05
2.12127e-05
2.1399e-05
2.15648e-05
2.17039e-05
2.18112e-05
2.18889e-05
2.19356e-05
2.19648e-05
2.19796e-05
2.19833e-05
2.19693e-05
2.19321e-05
2.18799e-05
2.18089e-05
2.17031e-05
2.15625e-05
2.13957e-05
2.12066e-05
2.10068e-05
2.08061e-05
2.06224e-05
2.04527e-05
2.03628e-05
2.03066e-05
2.08258e-05
2.08776e-05
2.09832e-05
2.11359e-05
2.13231e-05
2.15324e-05
2.175e-05
2.19663e-05
2.2174e-05
2.23631e-05
2.25246e-05
2.26541e-05
2.27481e-05
2.28131e-05
2.28479e-05
2.2853e-05
2.28247e-05
2.27584e-05
2.26595e-05
2.25314e-05
2.23709e-05
2.21812e-05
2.19695e-05
2.17453e-05
2.15279e-05
2.13292e-05
2.11501e-05
2.09937e-05
2.08806e-05
2.08222e-05
2.12932e-05
2.13369e-05
2.14459e-05
2.16013e-05
2.17929e-05
2.20125e-05
2.22517e-05
2.25014e-05
2.2752e-05
2.2991e-05
2.32064e-05
2.3388e-05
2.3528e-05
2.3625e-05
2.36759e-05
2.36785e-05
2.36311e-05
2.35321e-05
2.33866e-05
2.3203e-05
2.29887e-05
2.27528e-05
2.25038e-05
2.2248e-05
2.20002e-05
2.17777e-05
2.1588e-05
2.1436e-05
2.13265e-05
2.1271e-05
2.16503e-05
2.17071e-05
2.18172e-05
2.1971e-05
2.21643e-05
2.23926e-05
2.26496e-05
2.29266e-05
2.3212e-05
2.34923e-05
2.37529e-05
2.39797e-05
2.416e-05
2.42855e-05
2.43502e-05
2.43505e-05
2.42862e-05
2.4159e-05
2.39753e-05
2.37467e-05
2.34866e-05
2.321e-05
2.29298e-05
2.26541e-05
2.23918e-05
2.21561e-05
2.19577e-05
2.18044e-05
2.16992e-05
2.16455e-05
2.19276e-05
2.19997e-05
2.21038e-05
2.22535e-05
2.24475e-05
2.26817e-05
2.29498e-05
2.32428e-05
2.35493e-05
2.38551e-05
2.41449e-05
2.4402e-05
2.46104e-05
2.47571e-05
2.48327e-05
2.48324e-05
2.47566e-05
2.46097e-05
2.44006e-05
2.41428e-05
2.38525e-05
2.35472e-05
2.32433e-05
2.29526e-05
2.26835e-05
2.24448e-05
2.22448e-05
2.20909e-05
2.19866e-05
2.19291e-05
2.21107e-05
2.21864e-05
2.22822e-05
2.24285e-05
2.26214e-05
2.28561e-05
2.31256e-05
2.34216e-05
2.3733e-05
2.40461e-05
2.43452e-05
2.46131e-05
2.48322e-05
2.49875e-05
2.5068e-05
2.50678e-05
2.49873e-05
2.48325e-05
2.4614e-05
2.43463e-05
2.40464e-05
2.37322e-05
2.34205e-05
2.31251e-05
2.2856e-05
2.262e-05
2.24239e-05
2.22728e-05
2.21702e-05
2.21075e-05
2.21866e-05
2.22507e-05
2.23417e-05
2.24825e-05
2.26678e-05
2.28928e-05
2.31513e-05
2.34351e-05
2.37337e-05
2.40343e-05
2.43218e-05
2.45795e-05
2.47909e-05
2.4941e-05
2.50191e-05
2.50193e-05
2.49419e-05
2.47928e-05
2.45827e-05
2.43258e-05
2.40383e-05
2.37369e-05
2.34372e-05
2.31529e-05
2.28945e-05
2.26696e-05
2.24835e-05
2.23404e-05
2.22433e-05
2.21791e-05
2.2152e-05
2.22047e-05
2.22919e-05
2.24228e-05
2.25935e-05
2.27997e-05
2.30356e-05
2.32935e-05
2.35636e-05
2.38341e-05
2.40914e-05
2.43209e-05
2.45085e-05
2.46416e-05
2.47108e-05
2.47112e-05
2.46429e-05
2.4511e-05
2.43247e-05
2.40963e-05
2.38398e-05
2.35696e-05
2.32995e-05
2.30417e-05
2.28061e-05
2.26006e-05
2.24307e-05
2.23002e-05
2.22126e-05
2.21514e-05
2.20279e-05
2.20777e-05
2.2156e-05
2.22719e-05
2.24219e-05
2.2602e-05
2.28063e-05
2.30276e-05
2.32567e-05
2.34832e-05
2.3696e-05
2.38837e-05
2.40357e-05
2.41427e-05
2.41982e-05
2.41986e-05
2.4144e-05
2.4038e-05
2.38871e-05
2.37006e-05
2.3489e-05
2.32636e-05
2.30355e-05
2.28152e-05
2.26118e-05
2.24329e-05
2.22841e-05
2.21696e-05
2.20937e-05
2.20368e-05
2.18386e-05
2.18859e-05
2.19513e-05
2.20491e-05
2.21748e-05
2.23241e-05
2.24911e-05
2.26688e-05
2.28491e-05
2.30234e-05
2.31833e-05
2.33212e-05
2.34305e-05
2.35064e-05
2.35454e-05
2.35459e-05
2.35078e-05
2.34329e-05
2.33245e-05
2.31877e-05
2.30289e-05
2.28557e-05
2.26766e-05
2.25e-05
2.23341e-05
2.21859e-05
2.20612e-05
2.19644e-05
2.19009e-05
2.18493e-05
2.15955e-05
2.16374e-05
2.16896e-05
2.17685e-05
2.18687e-05
2.19855e-05
2.2113e-05
2.22447e-05
2.23737e-05
2.24935e-05
2.25984e-05
2.26844e-05
2.27492e-05
2.27924e-05
2.2814e-05
2.28144e-05
2.27935e-05
2.27511e-05
2.2687e-05
2.26018e-05
2.24977e-05
2.23787e-05
2.22504e-05
2.21194e-05
2.19927e-05
2.18769e-05
2.17776e-05
2.16994e-05
2.16486e-05
2.1603e-05
2.13083e-05
2.13443e-05
2.13845e-05
2.14451e-05
2.15201e-05
2.1605e-05
2.16941e-05
2.17816e-05
2.18618e-05
2.19299e-05
2.1983e-05
2.20202e-05
2.20434e-05
2.20559e-05
2.20611e-05
2.20614e-05
2.20566e-05
2.20445e-05
2.20217e-05
2.19849e-05
2.19322e-05
2.18644e-05
2.17846e-05
2.16974e-05
2.16088e-05
2.15246e-05
2.14502e-05
2.13906e-05
2.13521e-05
2.13128e-05
2.0991e-05
2.10226e-05
2.10514e-05
2.10945e-05
2.11461e-05
2.12017e-05
2.12562e-05
2.13043e-05
2.13414e-05
2.13645e-05
2.13726e-05
2.1368e-05
2.13555e-05
2.13417e-05
2.1333e-05
2.13331e-05
2.13422e-05
2.13561e-05
2.13688e-05
2.13735e-05
2.13653e-05
2.13423e-05
2.13052e-05
2.12572e-05
2.12029e-05
2.11476e-05
2.10964e-05
2.10539e-05
2.10268e-05
2.09938e-05
2.06587e-05
2.06859e-05
2.07039e-05
2.07314e-05
2.07625e-05
2.07929e-05
2.0818e-05
2.08333e-05
2.0835e-05
2.08215e-05
2.07937e-05
2.07559e-05
2.07153e-05
2.0681e-05
2.06613e-05
2.06615e-05
2.06814e-05
2.07158e-05
2.07564e-05
2.07941e-05
2.08218e-05
2.08352e-05
2.08334e-05
2.08181e-05
2.07929e-05
2.07624e-05
2.07313e-05
2.07039e-05
2.06866e-05
2.06596e-05
2.03235e-05
2.03452e-05
2.03542e-05
2.03687e-05
2.03829e-05
2.0393e-05
2.03948e-05
2.03843e-05
2.03589e-05
2.0318e-05
2.02637e-05
2.02017e-05
2.01407e-05
2.00916e-05
2.00639e-05
2.0064e-05
2.00917e-05
2.01409e-05
2.02018e-05
2.02637e-05
2.03179e-05
2.03588e-05
2.0384e-05
2.03944e-05
2.03925e-05
2.03822e-05
2.03678e-05
2.03531e-05
2.0344e-05
2.03226e-05
1.99947e-05
2.00108e-05
2.00132e-05
2.00175e-05
2.00187e-05
2.00132e-05
1.99974e-05
1.99682e-05
1.99236e-05
1.98637e-05
1.97917e-05
1.97138e-05
1.96396e-05
1.95807e-05
1.95478e-05
1.95478e-05
1.95806e-05
1.96394e-05
1.97135e-05
1.97914e-05
1.98634e-05
1.99232e-05
1.99677e-05
1.99968e-05
2.00124e-05
2.00178e-05
2.00165e-05
2.00121e-05
2.00095e-05
1.99931e-05
1.96804e-05
1.96921e-05
1.96898e-05
1.96865e-05
1.9678e-05
1.96612e-05
1.96332e-05
1.95914e-05
1.95346e-05
1.94633e-05
1.9381e-05
1.92942e-05
1.92127e-05
1.91484e-05
1.91126e-05
1.91125e-05
1.91481e-05
1.92122e-05
1.92936e-05
1.93804e-05
1.94627e-05
1.95339e-05
1.95907e-05
1.96324e-05
1.96604e-05
1.96771e-05
1.96856e-05
1.96888e-05
1.96913e-05
1.96791e-05
1.93871e-05
1.93957e-05
1.93898e-05
1.93811e-05
1.93658e-05
1.93416e-05
1.93059e-05
1.92567e-05
1.91934e-05
1.91166e-05
1.903e-05
1.89399e-05
1.88559e-05
1.87897e-05
1.87528e-05
1.87527e-05
1.87893e-05
1.88553e-05
1.89392e-05
1.90292e-05
1.91158e-05
1.91925e-05
1.92559e-05
1.9305e-05
1.93407e-05
1.93649e-05
1.93801e-05
1.93889e-05
1.93949e-05
1.93862e-05
1.91185e-05
1.91246e-05
1.91164e-05
1.9104e-05
1.90845e-05
1.90558e-05
1.90161e-05
1.89637e-05
1.88982e-05
1.88206e-05
1.87341e-05
1.86449e-05
1.8562e-05
1.84965e-05
1.84599e-05
1.84598e-05
1.84962e-05
1.85614e-05
1.86443e-05
1.87333e-05
1.88197e-05
1.88973e-05
1.89628e-05
1.90152e-05
1.9055e-05
1.90836e-05
1.9103e-05
1.91154e-05
1.91237e-05
1.91177e-05
1.8876e-05
1.88801e-05
1.88704e-05
1.88559e-05
1.88342e-05
1.88036e-05
1.87626e-05
1.87099e-05
1.86454e-05
1.85702e-05
1.84871e-05
1.84018e-05
1.83224e-05
1.82595e-05
1.82243e-05
1.82242e-05
1.82592e-05
1.83219e-05
1.84012e-05
1.84864e-05
1.85694e-05
1.86446e-05
1.87091e-05
1.87618e-05
1.88028e-05
1.88334e-05
1.8855e-05
1.88695e-05
1.88791e-05
1.88752e-05
1.86596e-05
1.86622e-05
1.86519e-05
1.86366e-05
1.86141e-05
1.85833e-05
1.85429e-05
1.84921e-05
1.84308e-05
1.83601e-05
1.82825e-05
1.8203e-05
1.81289e-05
1.80698e-05
1.80365e-05
1.80364e-05
1.80696e-05
1.81285e-05
1.82025e-05
1.82819e-05
1.83594e-05
1.84301e-05
1.84914e-05
1.85422e-05
1.85825e-05
1.86133e-05
1.86357e-05
1.86511e-05
1.86613e-05
1.86589e-05
1.84686e-05
1.84702e-05
1.846e-05
1.84446e-05
1.84225e-05
1.83927e-05
1.83542e-05
1.83066e-05
1.82498e-05
1.81849e-05
1.81141e-05
1.80415e-05
1.79736e-05
1.79191e-05
1.78882e-05
1.78881e-05
1.79189e-05
1.79733e-05
1.80411e-05
1.81136e-05
1.81843e-05
1.82492e-05
1.83059e-05
1.83535e-05
1.83919e-05
1.84216e-05
1.84437e-05
1.84592e-05
1.84693e-05
1.8468e-05
1.83016e-05
1.83028e-05
1.82929e-05
1.8278e-05
1.82569e-05
1.82288e-05
1.81932e-05
1.81496e-05
1.80981e-05
1.80396e-05
1.79761e-05
1.79109e-05
1.78497e-05
1.78002e-05
1.77718e-05
1.77718e-05
1.78001e-05
1.78495e-05
1.79106e-05
1.79757e-05
1.80391e-05
1.80975e-05
1.81489e-05
1.81925e-05
1.8228e-05
1.8256e-05
1.82771e-05
1.82919e-05
1.83018e-05
1.83011e-05
1.81569e-05
1.81577e-05
1.81484e-05
1.81343e-05
1.81147e-05
1.80889e-05
1.80565e-05
1.80173e-05
1.79713e-05
1.79195e-05
1.78633e-05
1.78057e-05
1.77513e-05
1.77069e-05
1.76811e-05
1.76811e-05
1.77067e-05
1.77511e-05
1.78055e-05
1.7863e-05
1.79191e-05
1.79709e-05
1.80167e-05
1.80559e-05
1.80882e-05
1.81138e-05
1.81334e-05
1.81473e-05
1.81565e-05
1.81562e-05
1.80321e-05
1.80327e-05
1.80241e-05
1.80111e-05
1.79932e-05
1.797e-05
1.79411e-05
1.79063e-05
1.78659e-05
1.78206e-05
1.77716e-05
1.77212e-05
1.76734e-05
1.76339e-05
1.76107e-05
1.76107e-05
1.76338e-05
1.76732e-05
1.7721e-05
1.77713e-05
1.78203e-05
1.78656e-05
1.79059e-05
1.79405e-05
1.79694e-05
1.79925e-05
1.80103e-05
1.80231e-05
1.80315e-05
1.80314e-05
1.79252e-05
1.79257e-05
1.79179e-05
1.79062e-05
1.78902e-05
1.78696e-05
1.78441e-05
1.78137e-05
1.77786e-05
1.77394e-05
1.7697e-05
1.76535e-05
1.76119e-05
1.75772e-05
1.75564e-05
1.75563e-05
1.75771e-05
1.76117e-05
1.76533e-05
1.76967e-05
1.7739e-05
1.77783e-05
1.78133e-05
1.78436e-05
1.7869e-05
1.78895e-05
1.79054e-05
1.7917e-05
1.79246e-05
1.79245e-05
1.7834e-05
1.78346e-05
1.78276e-05