/*--------------------------------*- C++ -*----------------------------------*\
| =========                 |                                                 |
| \\      /  F ield         | OpenFOAM: The Open Source CFD Toolbox           |
|  \\    /   O peration     | Version:  2312                                  |
|   \\  /    A nd           | Website:  www.openfoam.com                      |
|    \\/     M anipulation  |                                                 |
\*---------------------------------------------------------------------------*/
FoamFile
{
    version     2.0;
    format      ascii;
    arch        "LSB;label=32;scalar=64";
    class       volScalarField;
    location    "0.0940323";
    object      k;
}
// * * * * * * * * * * * * * * * * * * * * * * * * * * * * * * * * * * * * * //

dimensions      [0 2 -2 0 0 0 0];

internalField   nonuniform List<scalar> 
90000
(
3.58289e-05
3.58289e-05
3.58289e-05
3.58289e-05
3.58289e-05
3.58289e-05
3.58289e-05
3.58289e-05
3.58289e-05
3.58289e-05
3.58289e-05
3.58289e-05
3.58289e-05
3.58289e-05
3.58289e-05
3.58289e-05
3.58289e-05
3.58289e-05
3.58289e-05
3.58289e-05
3.58289e-05
3.58289e-05
3.58289e-05
3.58289e-05
3.58289e-05
3.58289e-05
3.58289e-05
3.58289e-05
3.58289e-05
3.58289e-05
3.58289e-05
3.58302e-05
3.58302e-05
3.58302e-05
3.58302e-05
3.58302e-05
3.58302e-05
3.58302e-05
3.58302e-05
3.58302e-05
3.58302e-05
3.58302e-05
3.58302e-05
3.58302e-05
3.58302e-05
3.58302e-05
3.58302e-05
3.58302e-05
3.58302e-05
3.58302e-05
3.58302e-05
3.58302e-05
3.58302e-05
3.58302e-05
3.58302e-05
3.58302e-05
3.58302e-05
3.58302e-05
3.58302e-05
3.58289e-05
3.58289e-05
3.58302e-05
3.58303e-05
3.58303e-05
3.58303e-05
3.58303e-05
3.58303e-05
3.58303e-05
3.58303e-05
3.58303e-05
3.58303e-05
3.58303e-05
3.58303e-05
3.58303e-05
3.58303e-05
3.58303e-05
3.58303e-05
3.58303e-05
3.58303e-05
3.58303e-05
3.58303e-05
3.58303e-05
3.58303e-05
3.58303e-05
3.58303e-05
3.58303e-05
3.58303e-05
3.58303e-05
3.58302e-05
3.58289e-05
3.58289e-05
3.58302e-05
3.58303e-05
3.58303e-05
3.58303e-05
3.58303e-05
3.58303e-05
3.58303e-05
3.58303e-05
3.58303e-05
3.58303e-05
3.58303e-05
3.58303e-05
3.58303e-05
3.58303e-05
3.58303e-05
3.58303e-05
3.58303e-05
3.58303e-05
3.58303e-05
3.58303e-05
3.58303e-05
3.58303e-05
3.58303e-05
3.58303e-05
3.58303e-05
3.58303e-05
3.58303e-05
3.58302e-05
3.58289e-05
3.58289e-05
3.58302e-05
3.58303e-05
3.58303e-05
3.58303e-05
3.58303e-05
3.58303e-05
3.58303e-05
3.58303e-05
3.58303e-05
3.58303e-05
3.58303e-05
3.58303e-05
3.58303e-05
3.58303e-05
3.58303e-05
3.58303e-05
3.58303e-05
3.58303e-05
3.58303e-05
3.58303e-05
3.58303e-05
3.58303e-05
3.58303e-05
3.58303e-05
3.58303e-05
3.58303e-05
3.58303e-05
3.58302e-05
3.58289e-05
3.58289e-05
3.58302e-05
3.58303e-05
3.58303e-05
3.58303e-05
3.58303e-05
3.58303e-05
3.58303e-05
3.58303e-05
3.58303e-05
3.58303e-05
3.58303e-05
3.58303e-05
3.58303e-05
3.58303e-05
3.58303e-05
3.58303e-05
3.58303e-05
3.58303e-05
3.58303e-05
3.58303e-05
3.58303e-05
3.58303e-05
3.58303e-05
3.58303e-05
3.58303e-05
3.58303e-05
3.58303e-05
3.58302e-05
3.58289e-05
3.58289e-05
3.58303e-05
3.58303e-05
3.58303e-05
3.58303e-05
3.58303e-05
3.58303e-05
3.58303e-05
3.58303e-05
3.58303e-05
3.58303e-05
3.58303e-05
3.58303e-05
3.58303e-05
3.58303e-05
3.58303e-05
3.58303e-05
3.58303e-05
3.58303e-05
3.58303e-05
3.58303e-05
3.58303e-05
3.58303e-05
3.58303e-05
3.58303e-05
3.58303e-05
3.58303e-05
3.58303e-05
3.58302e-05
3.58289e-05
3.58289e-05
3.58303e-05
3.58303e-05
3.58303e-05
3.58303e-05
3.58303e-05
3.58303e-05
3.58303e-05
3.58303e-05
3.58303e-05
3.58303e-05
3.58303e-05
3.58303e-05
3.58303e-05
3.58303e-05
3.58303e-05
3.58303e-05
3.58303e-05
3.58303e-05
3.58303e-05
3.58303e-05
3.58303e-05
3.58303e-05
3.58303e-05
3.58303e-05
3.58303e-05
3.58303e-05
3.58303e-05
3.58302e-05
3.58289e-05
3.58289e-05
3.58303e-05
3.58303e-05
3.58303e-05
3.58303e-05
3.58303e-05
3.58303e-05
3.58303e-05
3.58303e-05
3.58303e-05
3.58303e-05
3.58303e-05
3.58303e-05
3.58303e-05
3.58303e-05
3.58303e-05
3.58303e-05
3.58303e-05
3.58303e-05
3.58303e-05
3.58303e-05
3.58303e-05
3.58303e-05
3.58303e-05
3.58303e-05
3.58303e-05
3.58303e-05
3.58303e-05
3.58303e-05
3.58289e-05
3.58289e-05
3.58303e-05
3.58303e-05
3.58303e-05
3.58303e-05
3.58303e-05
3.58303e-05
3.58303e-05
3.58303e-05
3.58303e-05
3.58303e-05
3.58303e-05
3.58303e-05
3.58303e-05
3.58303e-05
3.58303e-05
3.58303e-05
3.58303e-05
3.58303e-05
3.58303e-05
3.58303e-05
3.58303e-05
3.58303e-05
3.58303e-05
3.58303e-05
3.58303e-05
3.58303e-05
3.58303e-05
3.58303e-05
3.58289e-05
3.58289e-05
3.58303e-05
3.58303e-05
3.58303e-05
3.58303e-05
3.58303e-05
3.58303e-05
3.58303e-05
3.58303e-05
3.58303e-05
3.58303e-05
3.58303e-05
3.58303e-05
3.58303e-05
3.58303e-05
3.58303e-05
3.58303e-05
3.58303e-05
3.58303e-05
3.58303e-05
3.58303e-05
3.58303e-05
3.58303e-05
3.58303e-05
3.58303e-05
3.58303e-05
3.58303e-05
3.58303e-05
3.58303e-05
3.58289e-05
3.58289e-05
3.58303e-05
3.58303e-05
3.58303e-05
3.58303e-05
3.58303e-05
3.58303e-05
3.58303e-05
3.58303e-05
3.58303e-05
3.58303e-05
3.58303e-05
3.58303e-05
3.58303e-05
3.58303e-05
3.58303e-05
3.58303e-05
3.58303e-05
3.58303e-05
3.58303e-05
3.58303e-05
3.58303e-05
3.58303e-05
3.58303e-05
3.58303e-05
3.58303e-05
3.58303e-05
3.58303e-05
3.58303e-05
3.58289e-05
3.58289e-05
3.58303e-05
3.58303e-05
3.58303e-05
3.58303e-05
3.58303e-05
3.58303e-05
3.58303e-05
3.58303e-05
3.58303e-05
3.58303e-05
3.58303e-05
3.58303e-05
3.58303e-05
3.58303e-05
3.58303e-05
3.58303e-05
3.58303e-05
3.58303e-05
3.58303e-05
3.58303e-05
3.58303e-05
3.58303e-05
3.58303e-05
3.58303e-05
3.58303e-05
3.58303e-05
3.58303e-05
3.58303e-05
3.58289e-05
3.58289e-05
3.58303e-05
3.58303e-05
3.58303e-05
3.58303e-05
3.58303e-05
3.58303e-05
3.58303e-05
3.58303e-05
3.58303e-05
3.58303e-05
3.58303e-05
3.58303e-05
3.58303e-05
3.58303e-05
3.58303e-05
3.58303e-05
3.58303e-05
3.58303e-05
3.58303e-05
3.58303e-05
3.58303e-05
3.58303e-05
3.58303e-05
3.58303e-05
3.58303e-05
3.58303e-05
3.58303e-05
3.58303e-05
3.58289e-05
3.58289e-05
3.58303e-05
3.58303e-05
3.58303e-05
3.58303e-05
3.58303e-05
3.58303e-05
3.58303e-05
3.58303e-05
3.58303e-05
3.58303e-05
3.58303e-05
3.58303e-05
3.58303e-05
3.58303e-05
3.58303e-05
3.58303e-05
3.58303e-05
3.58303e-05
3.58303e-05
3.58303e-05
3.58303e-05
3.58303e-05
3.58303e-05
3.58303e-05
3.58303e-05
3.58303e-05
3.58303e-05
3.58303e-05
3.58289e-05
3.58289e-05
3.58303e-05
3.58303e-05
3.58303e-05
3.58303e-05
3.58303e-05
3.58303e-05
3.58303e-05
3.58303e-05
3.58303e-05
3.58303e-05
3.58303e-05
3.58303e-05
3.58303e-05
3.58303e-05
3.58303e-05
3.58303e-05
3.58303e-05
3.58303e-05
3.58303e-05
3.58303e-05
3.58303e-05
3.58303e-05
3.58303e-05
3.58303e-05
3.58303e-05
3.58303e-05
3.58303e-05
3.58303e-05
3.58289e-05
3.58289e-05
3.58303e-05
3.58303e-05
3.58303e-05
3.58303e-05
3.58303e-05
3.58303e-05
3.58303e-05
3.58303e-05
3.58303e-05
3.58303e-05
3.58303e-05
3.58303e-05
3.58303e-05
3.58303e-05
3.58303e-05
3.58303e-05
3.58303e-05
3.58303e-05
3.58303e-05
3.58303e-05
3.58303e-05
3.58303e-05
3.58303e-05
3.58303e-05
3.58303e-05
3.58303e-05
3.58303e-05
3.58303e-05
3.58289e-05
3.58289e-05
3.58303e-05
3.58303e-05
3.58303e-05
3.58303e-05
3.58303e-05
3.58303e-05
3.58303e-05
3.58303e-05
3.58303e-05
3.58303e-05
3.58303e-05
3.58303e-05
3.58303e-05
3.58303e-05
3.58303e-05
3.58303e-05
3.58303e-05
3.58303e-05
3.58303e-05
3.58303e-05
3.58303e-05
3.58303e-05
3.58303e-05
3.58303e-05
3.58303e-05
3.58303e-05
3.58303e-05
3.58303e-05
3.58289e-05
3.58289e-05
3.58303e-05
3.58303e-05
3.58303e-05
3.58303e-05
3.58303e-05
3.58303e-05
3.58303e-05
3.58303e-05
3.58303e-05
3.58303e-05
3.58303e-05
3.58303e-05
3.58303e-05
3.58303e-05
3.58303e-05
3.58303e-05
3.58303e-05
3.58303e-05
3.58303e-05
3.58303e-05
3.58303e-05
3.58303e-05
3.58303e-05
3.58303e-05
3.58303e-05
3.58303e-05
3.58303e-05
3.58303e-05
3.58289e-05
3.58289e-05
3.58303e-05
3.58303e-05
3.58303e-05
3.58303e-05
3.58303e-05
3.58303e-05
3.58303e-05
3.58303e-05
3.58303e-05
3.58303e-05
3.58303e-05
3.58303e-05
3.58303e-05
3.58303e-05
3.58303e-05
3.58303e-05
3.58303e-05
3.58303e-05
3.58303e-05
3.58303e-05
3.58303e-05
3.58303e-05
3.58303e-05
3.58303e-05
3.58303e-05
3.58303e-05
3.58303e-05
3.58303e-05
3.58289e-05
3.58289e-05
3.58303e-05
3.58303e-05
3.58303e-05
3.58303e-05
3.58303e-05
3.58303e-05
3.58303e-05
3.58303e-05
3.58303e-05
3.58303e-05
3.58303e-05
3.58303e-05
3.58303e-05
3.58303e-05
3.58303e-05
3.58303e-05
3.58303e-05
3.58303e-05
3.58303e-05
3.58303e-05
3.58303e-05
3.58303e-05
3.58303e-05
3.58303e-05
3.58303e-05
3.58303e-05
3.58303e-05
3.58303e-05
3.58289e-05
3.58289e-05
3.58303e-05
3.58303e-05
3.58303e-05
3.58303e-05
3.58303e-05
3.58303e-05
3.58303e-05
3.58303e-05
3.58303e-05
3.58303e-05
3.58303e-05
3.58303e-05
3.58303e-05
3.58303e-05
3.58303e-05
3.58303e-05
3.58303e-05
3.58303e-05
3.58303e-05
3.58303e-05
3.58303e-05
3.58303e-05
3.58303e-05
3.58303e-05
3.58303e-05
3.58303e-05
3.58303e-05
3.58303e-05
3.58289e-05
3.58289e-05
3.58303e-05
3.58303e-05
3.58303e-05
3.58303e-05
3.58303e-05
3.58303e-05
3.58303e-05
3.58303e-05
3.58303e-05
3.58303e-05
3.58303e-05
3.58303e-05
3.58303e-05
3.58303e-05
3.58303e-05
3.58303e-05
3.58303e-05
3.58303e-05
3.58303e-05
3.58303e-05
3.58303e-05
3.58303e-05
3.58303e-05
3.58303e-05
3.58303e-05
3.58303e-05
3.58303e-05
3.58303e-05
3.58289e-05
3.58289e-05
3.58303e-05
3.58303e-05
3.58303e-05
3.58303e-05
3.58303e-05
3.58303e-05
3.58303e-05
3.58303e-05
3.58303e-05
3.58303e-05
3.58303e-05
3.58303e-05
3.58303e-05
3.58303e-05
3.58303e-05
3.58303e-05
3.58303e-05
3.58303e-05
3.58303e-05
3.58303e-05
3.58303e-05
3.58303e-05
3.58303e-05
3.58303e-05
3.58303e-05
3.58303e-05
3.58303e-05
3.58303e-05
3.58289e-05
3.58289e-05
3.58303e-05
3.58303e-05
3.58303e-05
3.58303e-05
3.58303e-05
3.58303e-05
3.58303e-05
3.58303e-05
3.58303e-05
3.58303e-05
3.58303e-05
3.58303e-05
3.58303e-05
3.58303e-05
3.58303e-05
3.58303e-05
3.58303e-05
3.58303e-05
3.58303e-05
3.58303e-05
3.58303e-05
3.58303e-05
3.58303e-05
3.58303e-05
3.58303e-05
3.58303e-05
3.58303e-05
3.58303e-05
3.58289e-05
3.58289e-05
3.58303e-05
3.58303e-05
3.58303e-05
3.58303e-05
3.58303e-05
3.58303e-05
3.58303e-05
3.58303e-05
3.58303e-05
3.58303e-05
3.58303e-05
3.58303e-05
3.58303e-05
3.58303e-05
3.58303e-05
3.58303e-05
3.58303e-05
3.58303e-05
3.58303e-05
3.58303e-05
3.58303e-05
3.58303e-05
3.58303e-05
3.58303e-05
3.58303e-05
3.58303e-05
3.58303e-05
3.58303e-05
3.58289e-05
3.58289e-05
3.58303e-05
3.58303e-05
3.58303e-05
3.58303e-05
3.58303e-05
3.58303e-05
3.58303e-05
3.58303e-05
3.58303e-05
3.58303e-05
3.58303e-05
3.58303e-05
3.58303e-05
3.58303e-05
3.58303e-05
3.58303e-05
3.58303e-05
3.58303e-05
3.58303e-05
3.58303e-05
3.58303e-05
3.58303e-05
3.58303e-05
3.58303e-05
3.58303e-05
3.58303e-05
3.58303e-05
3.58303e-05
3.58289e-05
3.58289e-05
3.58303e-05
3.58303e-05
3.58303e-05
3.58303e-05
3.58303e-05
3.58303e-05
3.58303e-05
3.58303e-05
3.58303e-05
3.58303e-05
3.58303e-05
3.58303e-05
3.58303e-05
3.58303e-05
3.58303e-05
3.58303e-05
3.58303e-05
3.58303e-05
3.58303e-05
3.58303e-05
3.58303e-05
3.58303e-05
3.58303e-05
3.58303e-05
3.58303e-05
3.58303e-05
3.58303e-05
3.58303e-05
3.58289e-05
3.58289e-05
3.58303e-05
3.58303e-05
3.58303e-05
3.58303e-05
3.58303e-05
3.58303e-05
3.58303e-05
3.58303e-05
3.58303e-05
3.58303e-05
3.58303e-05
3.58303e-05
3.58303e-05
3.58303e-05
3.58303e-05
3.58303e-05
3.58303e-05
3.58303e-05
3.58303e-05
3.58303e-05
3.58303e-05
3.58303e-05
3.58303e-05
3.58303e-05
3.58303e-05
3.58303e-05
3.58303e-05
3.58303e-05
3.58289e-05
3.58289e-05
3.58303e-05
3.58303e-05
3.58303e-05
3.58303e-05
3.58303e-05
3.58303e-05
3.58303e-05
3.58303e-05
3.58303e-05
3.58303e-05
3.58303e-05
3.58303e-05
3.58303e-05
3.58303e-05
3.58303e-05
3.58303e-05
3.58303e-05
3.58303e-05
3.58303e-05
3.58303e-05
3.58303e-05
3.58303e-05
3.58303e-05
3.58303e-05
3.58303e-05
3.58303e-05
3.58303e-05
3.58303e-05
3.58289e-05
3.58289e-05
3.58303e-05
3.58303e-05
3.58303e-05
3.58303e-05
3.58303e-05
3.58303e-05
3.58303e-05
3.58303e-05
3.58303e-05
3.58303e-05
3.58303e-05
3.58303e-05
3.58303e-05
3.58303e-05
3.58303e-05
3.58303e-05
3.58303e-05
3.58303e-05
3.58303e-05
3.58303e-05
3.58303e-05
3.58303e-05
3.58303e-05
3.58303e-05
3.58303e-05
3.58303e-05
3.58303e-05
3.58303e-05
3.58289e-05
3.58289e-05
3.58303e-05
3.58303e-05
3.58303e-05
3.58303e-05
3.58303e-05
3.58303e-05
3.58303e-05
3.58303e-05
3.58303e-05
3.58303e-05
3.58303e-05
3.58303e-05
3.58303e-05
3.58303e-05
3.58303e-05
3.58303e-05
3.58303e-05
3.58303e-05
3.58303e-05
3.58303e-05
3.58303e-05
3.58303e-05
3.58303e-05
3.58303e-05
3.58303e-05
3.58303e-05
3.58303e-05
3.58303e-05
3.58289e-05
3.58289e-05
3.58303e-05
3.58303e-05
3.58303e-05
3.58303e-05
3.58303e-05
3.58303e-05
3.58303e-05
3.58303e-05
3.58303e-05
3.58303e-05
3.58303e-05
3.58303e-05
3.58303e-05
3.58303e-05
3.58303e-05
3.58303e-05
3.58303e-05
3.58303e-05
3.58303e-05
3.58303e-05
3.58303e-05
3.58303e-05
3.58303e-05
3.58303e-05
3.58303e-05
3.58303e-05
3.58303e-05
3.58303e-05
3.58289e-05
3.58289e-05
3.58303e-05
3.58303e-05
3.58303e-05
3.58303e-05
3.58303e-05
3.58303e-05
3.58303e-05
3.58303e-05
3.58303e-05
3.58303e-05
3.58303e-05
3.58303e-05
3.58303e-05
3.58303e-05
3.58303e-05
3.58303e-05
3.58303e-05
3.58303e-05
3.58303e-05
3.58303e-05
3.58303e-05
3.58303e-05
3.58303e-05
3.58303e-05
3.58303e-05
3.58303e-05
3.58303e-05
3.58303e-05
3.58289e-05
3.5829e-05
3.58303e-05
3.58303e-05
3.58303e-05
3.58303e-05
3.58303e-05
3.58303e-05
3.58303e-05
3.58303e-05
3.58303e-05
3.58303e-05
3.58303e-05
3.58303e-05
3.58303e-05
3.58303e-05
3.58303e-05
3.58303e-05
3.58303e-05
3.58303e-05
3.58303e-05
3.58303e-05
3.58303e-05
3.58303e-05
3.58303e-05
3.58303e-05
3.58303e-05
3.58303e-05
3.58303e-05
3.58303e-05
3.5829e-05
3.5829e-05
3.58303e-05
3.58303e-05
3.58303e-05
3.58303e-05
3.58303e-05
3.58303e-05
3.58303e-05
3.58303e-05
3.58303e-05
3.58303e-05
3.58303e-05
3.58303e-05
3.58303e-05
3.58303e-05
3.58303e-05
3.58303e-05
3.58303e-05
3.58303e-05
3.58303e-05
3.58303e-05
3.58303e-05
3.58303e-05
3.58303e-05
3.58303e-05
3.58303e-05
3.58303e-05
3.58303e-05
3.58303e-05
3.5829e-05
3.5829e-05
3.58303e-05
3.58303e-05
3.58303e-05
3.58303e-05
3.58303e-05
3.58303e-05
3.58303e-05
3.58303e-05
3.58303e-05
3.58303e-05
3.58303e-05
3.58303e-05
3.58303e-05
3.58303e-05
3.58303e-05
3.58303e-05
3.58303e-05
3.58303e-05
3.58303e-05
3.58303e-05
3.58303e-05
3.58303e-05
3.58303e-05
3.58303e-05
3.58303e-05
3.58303e-05
3.58303e-05
3.58303e-05
3.5829e-05
3.5829e-05
3.58303e-05
3.58303e-05
3.58303e-05
3.58303e-05
3.58303e-05
3.58303e-05
3.58303e-05
3.58303e-05
3.58303e-05
3.58303e-05
3.58303e-05
3.58303e-05
3.58303e-05
3.58303e-05
3.58303e-05
3.58303e-05
3.58303e-05
3.58303e-05
3.58303e-05
3.58303e-05
3.58303e-05
3.58303e-05
3.58303e-05
3.58303e-05
3.58304e-05
3.58304e-05
3.58304e-05
3.58303e-05
3.5829e-05
3.5829e-05
3.58304e-05
3.58304e-05
3.58304e-05
3.58304e-05
3.58304e-05
3.58304e-05
3.58304e-05
3.58303e-05
3.58303e-05
3.58303e-05
3.58303e-05
3.58303e-05
3.58303e-05
3.58303e-05
3.58303e-05
3.58303e-05
3.58303e-05
3.58303e-05
3.58303e-05
3.58303e-05
3.58303e-05
3.58304e-05
3.58304e-05
3.58304e-05
3.58304e-05
3.58304e-05
3.58304e-05
3.58304e-05
3.5829e-05
3.58291e-05
3.58304e-05
3.58304e-05
3.58304e-05
3.58304e-05
3.58304e-05
3.58304e-05
3.58304e-05
3.58304e-05
3.58304e-05
3.58303e-05
3.58303e-05
3.58303e-05
3.58303e-05
3.58303e-05
3.58303e-05
3.58303e-05
3.58303e-05
3.58303e-05
3.58303e-05
3.58304e-05
3.58304e-05
3.58304e-05
3.58304e-05
3.58304e-05
3.58304e-05
3.58304e-05
3.58304e-05
3.58304e-05
3.58291e-05
3.58291e-05
3.58304e-05
3.58304e-05
3.58304e-05
3.58304e-05
3.58304e-05
3.58304e-05
3.58304e-05
3.58304e-05
3.58304e-05
3.58304e-05
3.58304e-05
3.58303e-05
3.58303e-05
3.58303e-05
3.58303e-05
3.58303e-05
3.58303e-05
3.58304e-05
3.58304e-05
3.58304e-05
3.58304e-05
3.58304e-05
3.58304e-05
3.58304e-05
3.58304e-05
3.58304e-05
3.58304e-05
3.58304e-05
3.58291e-05
3.58291e-05
3.58305e-05
3.58305e-05
3.58305e-05
3.58305e-05
3.58305e-05
3.58305e-05
3.58305e-05
3.58304e-05
3.58304e-05
3.58304e-05
3.58304e-05
3.58304e-05
3.58304e-05
3.58304e-05
3.58304e-05
3.58304e-05
3.58304e-05
3.58304e-05
3.58304e-05
3.58304e-05
3.58304e-05
3.58305e-05
3.58305e-05
3.58305e-05
3.58305e-05
3.58305e-05
3.58305e-05
3.58305e-05
3.58291e-05
3.58292e-05
3.58305e-05
3.58305e-05
3.58305e-05
3.58305e-05
3.58305e-05
3.58305e-05
3.58305e-05
3.58305e-05
3.58305e-05
3.58304e-05
3.58304e-05
3.58304e-05
3.58304e-05
3.58304e-05
3.58304e-05
3.58304e-05
3.58304e-05
3.58304e-05
3.58304e-05
3.58305e-05
3.58305e-05
3.58305e-05
3.58305e-05
3.58305e-05
3.58305e-05
3.58305e-05
3.58305e-05
3.58305e-05
3.58292e-05
3.58292e-05
3.58306e-05
3.58306e-05
3.58306e-05
3.58306e-05
3.58305e-05
3.58305e-05
3.58305e-05
3.58305e-05
3.58305e-05
3.58305e-05
3.58305e-05
3.58304e-05
3.58304e-05
3.58304e-05
3.58304e-05
3.58304e-05
3.58304e-05
3.58305e-05
3.58305e-05
3.58305e-05
3.58305e-05
3.58305e-05
3.58305e-05
3.58305e-05
3.58306e-05
3.58306e-05
3.58306e-05
3.58306e-05
3.58292e-05
3.58293e-05
3.58306e-05
3.58306e-05
3.58306e-05
3.58306e-05
3.58306e-05
3.58306e-05
3.58306e-05
3.58305e-05
3.58305e-05
3.58305e-05
3.58305e-05
3.58305e-05
3.58304e-05
3.58304e-05
3.58304e-05
3.58304e-05
3.58304e-05
3.58305e-05
3.58305e-05
3.58305e-05
3.58305e-05
3.58306e-05
3.58306e-05
3.58306e-05
3.58306e-05
3.58306e-05
3.58306e-05
3.58306e-05
3.58293e-05
3.58294e-05
3.58307e-05
3.58307e-05
3.58307e-05
3.58307e-05
3.58307e-05
3.58307e-05
3.58307e-05
3.58307e-05
3.58306e-05
3.58306e-05
3.58306e-05
3.58305e-05
3.58305e-05
3.58305e-05
3.58305e-05
3.58305e-05
3.58305e-05
3.58306e-05
3.58306e-05
3.58306e-05
3.58306e-05
3.58307e-05
3.58307e-05
3.58307e-05
3.58307e-05
3.58307e-05
3.58307e-05
3.58307e-05
3.58294e-05
3.58295e-05
3.58308e-05
3.58308e-05
3.58308e-05
3.58309e-05
3.58308e-05
3.58308e-05
3.58308e-05
3.58308e-05
3.58307e-05
3.58307e-05
3.58307e-05
3.58306e-05
3.58306e-05
3.58306e-05
3.58306e-05
3.58306e-05
3.58306e-05
3.58307e-05
3.58307e-05
3.58308e-05
3.58307e-05
3.58307e-05
3.58308e-05
3.58308e-05
3.58308e-05
3.58308e-05
3.58308e-05
3.58308e-05
3.58295e-05
3.58296e-05
3.58309e-05
3.58309e-05
3.58308e-05
3.58309e-05
3.58308e-05
3.58308e-05
3.58309e-05
3.58308e-05
3.58308e-05
3.58308e-05
3.58307e-05
3.58307e-05
3.58306e-05
3.58306e-05
3.58306e-05
3.58306e-05
3.58307e-05
3.58307e-05
3.58308e-05
3.58308e-05
3.58308e-05
3.58308e-05
3.58308e-05
3.58309e-05
3.58309e-05
3.58309e-05
3.58309e-05
3.5831e-05
3.58295e-05
3.58299e-05
3.58309e-05
3.58311e-05
3.58309e-05
3.58311e-05
3.58312e-05
3.5831e-05
3.58309e-05
3.5831e-05
3.58309e-05
3.58309e-05
3.58309e-05
3.58309e-05
3.58309e-05
3.58308e-05
3.58309e-05
3.58308e-05
3.5831e-05
3.58308e-05
3.58309e-05
3.5831e-05
3.58311e-05
3.58312e-05
3.58309e-05
3.5831e-05
3.58311e-05
3.58311e-05
3.5831e-05
3.58311e-05
3.58297e-05
3.58346e-05
3.58347e-05
3.58368e-05
3.58338e-05
3.58432e-05
3.58358e-05
3.5842e-05
3.58391e-05
3.58382e-05
3.58381e-05
3.58376e-05
3.58367e-05
3.58356e-05
3.58348e-05
3.58347e-05
3.58348e-05
3.5835e-05
3.58356e-05
3.5836e-05
3.58379e-05
3.58383e-05
3.58384e-05
3.58368e-05
3.58355e-05
3.58362e-05
3.58339e-05
3.58325e-05
3.58328e-05
3.58343e-05
3.58373e-05
3.62761e-05
3.60909e-05
3.60673e-05
3.63224e-05
3.66332e-05
3.68951e-05
3.69621e-05
3.70197e-05
3.70298e-05
3.69812e-05
3.68918e-05
3.67606e-05
3.66139e-05
3.64516e-05
3.6319e-05
3.63416e-05
3.64314e-05
3.66247e-05
3.67856e-05
3.68961e-05
3.69962e-05
3.69924e-05
3.69496e-05
3.67855e-05
3.65761e-05
3.63379e-05
3.61108e-05
3.59583e-05
3.59888e-05
3.59833e-05
3.70174e-05
3.76068e-05
3.77712e-05
3.83633e-05
3.87441e-05
3.90042e-05
3.93492e-05
3.95948e-05
3.96631e-05
3.95919e-05
3.93932e-05
3.90597e-05
3.86718e-05
3.82573e-05
3.80413e-05
3.80269e-05
3.82988e-05
3.86384e-05
3.89955e-05
3.9373e-05
3.95755e-05
3.96808e-05
3.95605e-05
3.94747e-05
3.91445e-05
3.87135e-05
3.82417e-05
3.77014e-05
3.68626e-05
3.61405e-05
3.78681e-05
3.82319e-05
3.86099e-05
3.90988e-05
3.93741e-05
3.97379e-05
4.0087e-05
4.0281e-05
4.0411e-05
4.04012e-05
4.02935e-05
4.01423e-05
3.98979e-05
3.97003e-05
3.95816e-05
3.95663e-05
3.97341e-05
3.98659e-05
4.00901e-05
4.03437e-05
4.04493e-05
4.03752e-05
4.02913e-05
4.01045e-05
3.97777e-05
3.93949e-05
3.90529e-05
3.86868e-05
3.84904e-05
3.79134e-05
3.91344e-05
3.9396e-05
3.97027e-05
3.99977e-05
4.03832e-05
4.07474e-05
4.10501e-05
4.13215e-05
4.15029e-05
4.16166e-05
4.16489e-05
4.15908e-05
4.15127e-05
4.14243e-05
4.13819e-05
4.14031e-05
4.14148e-05
4.14778e-05
4.15944e-05
4.16271e-05
4.16211e-05
4.15157e-05
4.13444e-05
4.10468e-05
4.07467e-05
4.03916e-05
3.99693e-05
3.952e-05
3.93794e-05
3.91493e-05
4.02892e-05
4.05256e-05
4.07344e-05
4.10384e-05
4.13881e-05
4.17412e-05
4.20758e-05
4.23984e-05
4.26692e-05
4.28639e-05
4.30008e-05
4.30818e-05
4.31256e-05
4.3145e-05
4.31303e-05
4.31345e-05
4.31315e-05
4.31123e-05
4.30929e-05
4.30426e-05
4.29015e-05
4.26777e-05
4.24122e-05
4.20966e-05
4.17407e-05
4.1383e-05
4.10456e-05
4.06929e-05
4.04502e-05
4.03602e-05
4.14879e-05
4.15458e-05
4.17413e-05
4.2037e-05
4.23802e-05
4.27511e-05
4.31346e-05
4.35129e-05
4.38649e-05
4.41697e-05
4.44141e-05
4.4599e-05
4.47181e-05
4.47966e-05
4.48363e-05
4.48411e-05
4.48009e-05
4.47145e-05
4.45892e-05
4.44203e-05
4.41736e-05
4.38621e-05
4.35067e-05
4.31285e-05
4.27453e-05
4.23698e-05
4.20236e-05
4.17346e-05
4.14863e-05
4.13927e-05
4.23659e-05
4.23834e-05
4.26109e-05
4.29101e-05
4.32657e-05
4.36632e-05
4.40897e-05
4.45254e-05
4.49473e-05
4.53355e-05
4.56689e-05
4.59432e-05
4.61466e-05
4.62836e-05
4.63604e-05
4.63736e-05
4.63091e-05
4.61631e-05
4.59509e-05
4.56795e-05
4.53393e-05
4.49452e-05
4.45192e-05
4.40809e-05
4.36585e-05
4.32658e-05
4.29048e-05
4.26204e-05
4.24003e-05
4.2312e-05
4.3084e-05
4.31905e-05
4.34134e-05
4.37097e-05
4.4073e-05
4.44896e-05
4.4946e-05
4.54264e-05
4.59092e-05
4.63722e-05
4.67908e-05
4.71494e-05
4.74318e-05
4.7626e-05
4.77278e-05
4.77352e-05
4.76409e-05
4.74411e-05
4.71523e-05
4.67936e-05
4.63742e-05
4.59101e-05
4.54242e-05
4.49351e-05
4.44698e-05
4.40523e-05
4.36874e-05
4.34016e-05
4.31986e-05
4.31099e-05
4.37474e-05
4.38787e-05
4.40775e-05
4.43607e-05
4.47218e-05
4.51497e-05
4.56302e-05
4.61472e-05
4.66798e-05
4.72043e-05
4.76937e-05
4.81228e-05
4.84683e-05
4.87092e-05
4.8832e-05
4.88322e-05
4.87096e-05
4.84668e-05
4.81196e-05
4.76923e-05
4.72079e-05
4.66885e-05
4.61585e-05
4.56375e-05
4.51471e-05
4.47107e-05
4.43404e-05
4.40511e-05
4.38507e-05
4.37502e-05
4.42302e-05
4.43504e-05
4.45319e-05
4.48018e-05
4.51568e-05
4.55874e-05
4.60793e-05
4.66156e-05
4.71753e-05
4.77322e-05
4.82594e-05
4.87276e-05
4.91086e-05
4.93767e-05
4.95135e-05
4.95108e-05
4.93706e-05
4.91011e-05
4.87196e-05
4.82522e-05
4.77284e-05
4.71757e-05
4.662e-05
4.60851e-05
4.559e-05
4.51535e-05
4.47888e-05
4.45062e-05
4.43125e-05
4.4203e-05
4.44867e-05
4.46034e-05
4.4773e-05
4.50328e-05
4.5377e-05
4.57962e-05
4.62767e-05
4.68023e-05
4.7353e-05
4.79049e-05
4.84303e-05
4.88992e-05
4.92822e-05
4.95532e-05
4.96924e-05
4.969e-05
4.95473e-05
4.92747e-05
4.88905e-05
4.84209e-05
4.78959e-05
4.73453e-05
4.67968e-05
4.62738e-05
4.57952e-05
4.53761e-05
4.50287e-05
4.47615e-05
4.45796e-05
4.44659e-05
4.45588e-05
4.46619e-05
4.48241e-05
4.5071e-05
4.53946e-05
4.57862e-05
4.62341e-05
4.67236e-05
4.72359e-05
4.77487e-05
4.82364e-05
4.86712e-05
4.90263e-05
4.9278e-05
4.94082e-05
4.94075e-05
4.92766e-05
4.90248e-05
4.86695e-05
4.8234e-05
4.77457e-05
4.72325e-05
4.67204e-05
4.6232e-05
4.57859e-05
4.53965e-05
4.50744e-05
4.48271e-05
4.46605e-05
4.45491e-05
4.44586e-05
4.45531e-05
4.47059e-05
4.49313e-05
4.52231e-05
4.55732e-05
4.59714e-05
4.64037e-05
4.68533e-05
4.73001e-05
4.77218e-05
4.80954e-05
4.83989e-05
4.86134e-05
4.87247e-05
4.87252e-05
4.8615e-05
4.84018e-05
4.80992e-05
4.7726e-05
4.73044e-05
4.68575e-05
4.6408e-05
4.59763e-05
4.55795e-05
4.52314e-05
4.49424e-05
4.47201e-05
4.4572e-05
4.4465e-05
4.42099e-05
4.43075e-05
4.44398e-05
4.46352e-05
4.48862e-05
4.5185e-05
4.55214e-05
4.58823e-05
4.62523e-05
4.66144e-05
4.69509e-05
4.72446e-05
4.74802e-05
4.76451e-05
4.77305e-05
4.77313e-05
4.76477e-05
4.74845e-05
4.72504e-05
4.69579e-05
4.66225e-05
4.62613e-05
4.58922e-05
4.55326e-05
4.51978e-05
4.49008e-05
4.46517e-05
4.44588e-05
4.43316e-05
4.42296e-05
4.38461e-05
4.39413e-05
4.40472e-05
4.42084e-05
4.44142e-05
4.46563e-05
4.49244e-05
4.52061e-05
4.54879e-05
4.57561e-05
4.5998e-05
4.62028e-05
4.63625e-05
4.64718e-05
4.65278e-05
4.65289e-05
4.64749e-05
4.63675e-05
4.62094e-05
4.60062e-05
4.57656e-05
4.54986e-05
4.5218e-05
4.49377e-05
4.46709e-05
4.44299e-05
4.42248e-05
4.4064e-05
4.39593e-05
4.3864e-05
4.33844e-05
4.34684e-05
4.35496e-05
4.36768e-05
4.38372e-05
4.40219e-05
4.42207e-05
4.44224e-05
4.46156e-05
4.47899e-05
4.49373e-05
4.50533e-05
4.5137e-05
4.51905e-05
4.52168e-05
4.52177e-05
4.51932e-05
4.51413e-05
4.50589e-05
4.49442e-05
4.47979e-05
4.46246e-05
4.44323e-05
4.42316e-05
4.40337e-05
4.38497e-05
4.36897e-05
4.35623e-05
4.34806e-05
4.33947e-05
4.28454e-05
4.29168e-05
4.29771e-05
4.30723e-05
4.31893e-05
4.33194e-05
4.34531e-05
4.35801e-05
4.36912e-05
4.3779e-05
4.38399e-05
4.38748e-05
4.38892e-05
4.38916e-05
4.38904e-05
4.3891e-05
4.38932e-05
4.38917e-05
4.38781e-05
4.38439e-05
4.37836e-05
4.36964e-05
4.35859e-05
4.34596e-05
4.33266e-05
4.31971e-05
4.30806e-05
4.29858e-05
4.29261e-05
4.28513e-05
4.22585e-05
4.23202e-05
4.23613e-05
4.2427e-05
4.25045e-05
4.25857e-05
4.26617e-05
4.27236e-05
4.27638e-05
4.27777e-05
4.27652e-05
4.27317e-05
4.26879e-05
4.26474e-05
4.26233e-05
4.26236e-05
4.26483e-05
4.26892e-05
4.27334e-05
4.2767e-05
4.27797e-05
4.2766e-05
4.27261e-05
4.26647e-05
4.25891e-05
4.25082e-05
4.2431e-05
4.23658e-05
4.23259e-05
4.22628e-05
4.16523e-05
4.17047e-05
4.17284e-05
4.17681e-05
4.18117e-05
4.18515e-05
4.18794e-05
4.18877e-05
4.18706e-05
4.18256e-05
4.17554e-05
4.16687e-05
4.15797e-05
4.15061e-05
4.14643e-05
4.14646e-05
4.15068e-05
4.15806e-05
4.16697e-05
4.17563e-05
4.18265e-05
4.18715e-05
4.18887e-05
4.18804e-05
4.18526e-05
4.18128e-05
4.17692e-05
4.17296e-05
4.17063e-05
4.16544e-05
4.10477e-05
4.10897e-05
4.10993e-05
4.11177e-05
4.11337e-05
4.11403e-05
4.11304e-05
4.10975e-05
4.10372e-05
4.09488e-05
4.08369e-05
4.07121e-05
4.05912e-05
4.0494e-05
4.04396e-05
4.04397e-05
4.04943e-05
4.05915e-05
4.07126e-05
4.08373e-05
4.09492e-05
4.10376e-05
4.10978e-05
4.11306e-05
4.11403e-05
4.11335e-05
4.11174e-05
4.10988e-05
4.1089e-05
4.10476e-05
4.04603e-05
4.04922e-05
4.04914e-05
4.04933e-05
4.04881e-05
4.04697e-05
4.04319e-05
4.03695e-05
4.02793e-05
4.01618e-05
4.00227e-05
3.98737e-05
3.97325e-05
3.96206e-05
3.95581e-05
3.95581e-05
3.96205e-05
3.97325e-05
3.98737e-05
4.00227e-05
4.01618e-05
4.02792e-05
4.03693e-05
4.04316e-05
4.04692e-05
4.04876e-05
4.04927e-05
4.04906e-05
4.04913e-05
4.04593e-05
3.99029e-05
3.99267e-05
3.99185e-05
3.99082e-05
3.98876e-05
3.98514e-05
3.97946e-05
3.97129e-05
3.96043e-05
3.947e-05
3.93162e-05
3.91546e-05
3.90032e-05
3.88835e-05
3.88168e-05
3.88167e-05
3.88833e-05
3.90028e-05
3.91542e-05
3.93157e-05
3.94695e-05
3.96038e-05
3.97123e-05
3.97939e-05
3.98507e-05
3.98869e-05
3.99075e-05
3.99178e-05
3.99262e-05
3.99021e-05
3.93852e-05
3.94028e-05
3.93894e-05
3.93705e-05
3.93394e-05
3.92917e-05
3.92234e-05
3.9131e-05
3.90134e-05
3.88721e-05
3.87133e-05
3.85484e-05
3.83945e-05
3.8273e-05
3.82052e-05
3.8205e-05
3.82727e-05
3.8394e-05
3.85477e-05
3.87126e-05
3.88713e-05
3.90125e-05
3.91302e-05
3.92225e-05
3.92909e-05
3.93385e-05
3.93696e-05
3.93885e-05
3.94022e-05
3.93847e-05
3.89123e-05
3.89253e-05
3.89083e-05
3.88839e-05
3.88464e-05
3.87924e-05
3.87185e-05
3.86222e-05
3.85026e-05
3.83618e-05
3.82054e-05
3.8044e-05
3.78935e-05
3.77744e-05
3.77077e-05
3.77076e-05
3.7774e-05
3.78929e-05
3.80432e-05
3.82045e-05
3.83609e-05
3.85017e-05
3.86213e-05
3.87177e-05
3.87916e-05
3.88456e-05
3.8883e-05
3.89073e-05
3.89242e-05
3.89118e-05
3.84863e-05
3.84954e-05
3.84766e-05
3.84492e-05
3.84087e-05
3.83523e-05
3.82773e-05
3.81819e-05
3.80656e-05
3.79304e-05
3.77814e-05
3.76283e-05
3.74853e-05
3.73717e-05
3.73078e-05
3.73076e-05
3.73714e-05
3.74848e-05
3.76275e-05
3.77806e-05
3.79295e-05
3.80647e-05
3.8181e-05
3.82765e-05
3.83515e-05
3.84079e-05
3.84483e-05
3.84756e-05
3.84943e-05
3.84857e-05
3.81068e-05
3.81131e-05
3.80937e-05
3.80653e-05
3.80243e-05
3.79683e-05
3.78954e-05
3.78042e-05
3.76946e-05
3.75684e-05
3.74302e-05
3.72883e-05
3.71555e-05
3.70494e-05
3.69893e-05
3.69892e-05
3.70491e-05
3.71551e-05
3.72877e-05
3.74295e-05
3.75676e-05
3.76938e-05
3.78034e-05
3.78946e-05
3.79675e-05
3.80234e-05
3.80645e-05
3.80928e-05
3.8112e-05
3.81063e-05
3.77723e-05
3.77767e-05
3.77577e-05
3.77297e-05
3.76897e-05
3.76361e-05
3.75674e-05
3.74825e-05
3.73816e-05
3.72664e-05
3.71408e-05
3.70119e-05
3.68909e-05
3.67934e-05
3.67378e-05
3.67377e-05
3.67932e-05
3.68905e-05
3.70115e-05
3.71403e-05
3.72658e-05
3.73809e-05
3.74817e-05
3.75665e-05
3.76352e-05
3.76888e-05
3.77288e-05
3.77568e-05
3.77756e-05
3.77719e-05
3.74802e-05
3.74835e-05
3.74654e-05
3.74386e-05
3.74008e-05
3.73508e-05
3.72874e-05
3.72101e-05
3.7119e-05
3.70157e-05
3.69035e-05
3.67883e-05
3.66796e-05
3.65913e-05
3.65405e-05
3.65405e-05
3.65912e-05
3.66793e-05
3.67879e-05
3.69031e-05
3.70152e-05
3.71184e-05
3.72094e-05
3.72866e-05
3.73499e-05
3.73998e-05
3.74375e-05
3.74643e-05
3.74821e-05
3.74798e-05
3.72271e-05
3.72296e-05
3.72128e-05
3.71877e-05
3.71528e-05
3.71071e-05
3.70498e-05
3.69805e-05
3.68996e-05
3.68083e-05
3.67094e-05
3.66078e-05
3.65114e-05
3.64325e-05
3.63866e-05
3.63865e-05
3.64324e-05
3.65112e-05
3.66075e-05
3.67091e-05
3.68079e-05
3.68992e-05
3.698e-05
3.70491e-05
3.71062e-05
3.71518e-05
3.71865e-05
3.72115e-05
3.7228e-05
3.72265e-05
3.70091e-05
3.70111e-05
3.69956e-05
3.69727e-05
3.6941e-05
3.69e-05
3.6849e-05
3.67879e-05
3.6717e-05
3.66373e-05
3.65511e-05
3.64625e-05
3.6378e-05
3.63081e-05
3.62669e-05
3.62669e-05
3.6308e-05
3.63778e-05
3.64622e-05
3.65508e-05
3.66369e-05
3.67166e-05
3.67874e-05
3.68485e-05
3.68993e-05
3.69402e-05
3.69716e-05
3.69944e-05
3.70094e-05
3.70084e-05
3.68224e-05
3.68241e-05
3.68101e-05
3.67895e-05
3.67613e-05
3.67251e-05
3.66803e-05
3.6627e-05
3.65654e-05
3.64966e-05
3.64223e-05
3.63458e-05
3.62726e-05
3.62112e-05
3.61744e-05
3.61743e-05
3.62111e-05
3.62724e-05
3.63456e-05
3.6422e-05
3.64962e-05
3.6565e-05
3.66265e-05
3.66798e-05
3.67244e-05
3.67606e-05
3.67886e-05
3.68091e-05
3.68226e-05
3.68217e-05
3.66633e-05
3.66649e-05