/*--------------------------------*- C++ -*----------------------------------*\
| =========                 |                                                 |
| \\      /  F ield         | OpenFOAM: The Open Source CFD Toolbox           |
|  \\    /   O peration     | Version:  2312                                  |
|   \\  /    A nd           | Website:  www.openfoam.com                      |
|    \\/     M anipulation  |                                                 |
\*---------------------------------------------------------------------------*/
FoamFile
{
    version     2.0;
    format      ascii;
    arch        "LSB;label=32;scalar=64";
    class       volScalarField;
    location    "0.0940323";
    object      nut;
}
// * * * * * * * * * * * * * * * * * * * * * * * * * * * * * * * * * * * * * //

dimensions      [0 2 -1 0 0 0 0];

internalField   nonuniform List<scalar> 
90000
(
6.65795e-06
6.65796e-06
6.65796e-06
6.65796e-06
6.65796e-06
6.65796e-06
6.65796e-06
6.65796e-06
6.65796e-06
6.65796e-06
6.65796e-06
6.65796e-06
6.65796e-06
6.65796e-06
6.65796e-06
6.65796e-06
6.65796e-06
6.65796e-06
6.65796e-06
6.65796e-06
6.65796e-06
6.65796e-06
6.65796e-06
6.65796e-06
6.65796e-06
6.65796e-06
6.65796e-06
6.65796e-06
6.65796e-06
6.65795e-06
6.65796e-06
6.65817e-06
6.65818e-06
6.65818e-06
6.65818e-06
6.65818e-06
6.65818e-06
6.65818e-06
6.65818e-06
6.65818e-06
6.65818e-06
6.65818e-06
6.65818e-06
6.65818e-06
6.65818e-06
6.65818e-06
6.65818e-06
6.65818e-06
6.65818e-06
6.65818e-06
6.65818e-06
6.65818e-06
6.65818e-06
6.65818e-06
6.65818e-06
6.65818e-06
6.65818e-06
6.65818e-06
6.65817e-06
6.65796e-06
6.65796e-06
6.65818e-06
6.65818e-06
6.65818e-06
6.65818e-06
6.65818e-06
6.65818e-06
6.65818e-06
6.65818e-06
6.65818e-06
6.65818e-06
6.65818e-06
6.65818e-06
6.65818e-06
6.65818e-06
6.65818e-06
6.65818e-06
6.65818e-06
6.65818e-06
6.65818e-06
6.65818e-06
6.65818e-06
6.65818e-06
6.65818e-06
6.65818e-06
6.65818e-06
6.65818e-06
6.65818e-06
6.65818e-06
6.65796e-06
6.65796e-06
6.65818e-06
6.65818e-06
6.65818e-06
6.65818e-06
6.65818e-06
6.65818e-06
6.65818e-06
6.65818e-06
6.65818e-06
6.65818e-06
6.65818e-06
6.65818e-06
6.65818e-06
6.65818e-06
6.65818e-06
6.65818e-06
6.65818e-06
6.65818e-06
6.65818e-06
6.65818e-06
6.65818e-06
6.65818e-06
6.65818e-06
6.65818e-06
6.65818e-06
6.65818e-06
6.65818e-06
6.65818e-06
6.65796e-06
6.65796e-06
6.65818e-06
6.65818e-06
6.65818e-06
6.65818e-06
6.65818e-06
6.65818e-06
6.65818e-06
6.65818e-06
6.65818e-06
6.65818e-06
6.65818e-06
6.65818e-06
6.65818e-06
6.65818e-06
6.65818e-06
6.65818e-06
6.65818e-06
6.65818e-06
6.65818e-06
6.65818e-06
6.65818e-06
6.65818e-06
6.65818e-06
6.65818e-06
6.65818e-06
6.65818e-06
6.65818e-06
6.65818e-06
6.65796e-06
6.65796e-06
6.65818e-06
6.65818e-06
6.65818e-06
6.65818e-06
6.65818e-06
6.65818e-06
6.65818e-06
6.65818e-06
6.65818e-06
6.65818e-06
6.65818e-06
6.65818e-06
6.65818e-06
6.65818e-06
6.65818e-06
6.65818e-06
6.65818e-06
6.65818e-06
6.65818e-06
6.65818e-06
6.65818e-06
6.65818e-06
6.65818e-06
6.65818e-06
6.65818e-06
6.65818e-06
6.65818e-06
6.65818e-06
6.65796e-06
6.65796e-06
6.65818e-06
6.65818e-06
6.65818e-06
6.65818e-06
6.65818e-06
6.65818e-06
6.65818e-06
6.65818e-06
6.65818e-06
6.65818e-06
6.65818e-06
6.65818e-06
6.65818e-06
6.65818e-06
6.65818e-06
6.65818e-06
6.65818e-06
6.65818e-06
6.65818e-06
6.65818e-06
6.65818e-06
6.65818e-06
6.65818e-06
6.65818e-06
6.65818e-06
6.65818e-06
6.65818e-06
6.65818e-06
6.65796e-06
6.65796e-06
6.65818e-06
6.65818e-06
6.65818e-06
6.65818e-06
6.65818e-06
6.65818e-06
6.65818e-06
6.65818e-06
6.65818e-06
6.65818e-06
6.65818e-06
6.65818e-06
6.65818e-06
6.65818e-06
6.65818e-06
6.65818e-06
6.65818e-06
6.65818e-06
6.65818e-06
6.65818e-06
6.65818e-06
6.65818e-06
6.65818e-06
6.65818e-06
6.65818e-06
6.65818e-06
6.65818e-06
6.65818e-06
6.65796e-06
6.65796e-06
6.65818e-06
6.65818e-06
6.65818e-06
6.65818e-06
6.65818e-06
6.65818e-06
6.65818e-06
6.65818e-06
6.65818e-06
6.65818e-06
6.65818e-06
6.65818e-06
6.65818e-06
6.65818e-06
6.65818e-06
6.65818e-06
6.65818e-06
6.65818e-06
6.65818e-06
6.65818e-06
6.65818e-06
6.65818e-06
6.65818e-06
6.65818e-06
6.65818e-06
6.65818e-06
6.65818e-06
6.65818e-06
6.65796e-06
6.65796e-06
6.65818e-06
6.65818e-06
6.65818e-06
6.65818e-06
6.65818e-06
6.65818e-06
6.65818e-06
6.65818e-06
6.65818e-06
6.65818e-06
6.65818e-06
6.65818e-06
6.65818e-06
6.65818e-06
6.65818e-06
6.65818e-06
6.65818e-06
6.65818e-06
6.65818e-06
6.65818e-06
6.65818e-06
6.65818e-06
6.65818e-06
6.65818e-06
6.65818e-06
6.65818e-06
6.65818e-06
6.65818e-06
6.65796e-06
6.65796e-06
6.65818e-06
6.65818e-06
6.65818e-06
6.65818e-06
6.65818e-06
6.65818e-06
6.65818e-06
6.65818e-06
6.65818e-06
6.65818e-06
6.65818e-06
6.65818e-06
6.65818e-06
6.65818e-06
6.65818e-06
6.65818e-06
6.65818e-06
6.65818e-06
6.65818e-06
6.65818e-06
6.65818e-06
6.65818e-06
6.65818e-06
6.65818e-06
6.65818e-06
6.65818e-06
6.65818e-06
6.65818e-06
6.65796e-06
6.65796e-06
6.65818e-06
6.65818e-06
6.65818e-06
6.65818e-06
6.65818e-06
6.65818e-06
6.65818e-06
6.65818e-06
6.65818e-06
6.65818e-06
6.65818e-06
6.65818e-06
6.65818e-06
6.65818e-06
6.65818e-06
6.65818e-06
6.65818e-06
6.65818e-06
6.65818e-06
6.65818e-06
6.65818e-06
6.65818e-06
6.65818e-06
6.65818e-06
6.65818e-06
6.65818e-06
6.65818e-06
6.65818e-06
6.65796e-06
6.65796e-06
6.65818e-06
6.65818e-06
6.65818e-06
6.65818e-06
6.65818e-06
6.65818e-06
6.65818e-06
6.65818e-06
6.65818e-06
6.65818e-06
6.65818e-06
6.65818e-06
6.65818e-06
6.65818e-06
6.65818e-06
6.65818e-06
6.65818e-06
6.65818e-06
6.65818e-06
6.65818e-06
6.65818e-06
6.65818e-06
6.65818e-06
6.65818e-06
6.65818e-06
6.65818e-06
6.65818e-06
6.65818e-06
6.65796e-06
6.65796e-06
6.65818e-06
6.65818e-06
6.65818e-06
6.65818e-06
6.65818e-06
6.65818e-06
6.65818e-06
6.65818e-06
6.65818e-06
6.65818e-06
6.65818e-06
6.65818e-06
6.65818e-06
6.65818e-06
6.65818e-06
6.65818e-06
6.65818e-06
6.65818e-06
6.65818e-06
6.65818e-06
6.65818e-06
6.65818e-06
6.65818e-06
6.65818e-06
6.65818e-06
6.65818e-06
6.65818e-06
6.65818e-06
6.65796e-06
6.65796e-06
6.65818e-06
6.65818e-06
6.65818e-06
6.65818e-06
6.65818e-06
6.65818e-06
6.65818e-06
6.65818e-06
6.65818e-06
6.65818e-06
6.65818e-06
6.65818e-06
6.65818e-06
6.65818e-06
6.65818e-06
6.65818e-06
6.65818e-06
6.65818e-06
6.65818e-06
6.65818e-06
6.65818e-06
6.65818e-06
6.65818e-06
6.65818e-06
6.65818e-06
6.65818e-06
6.65818e-06
6.65818e-06
6.65796e-06
6.65796e-06
6.65818e-06
6.65818e-06
6.65818e-06
6.65818e-06
6.65818e-06
6.65818e-06
6.65818e-06
6.65818e-06
6.65818e-06
6.65818e-06
6.65818e-06
6.65818e-06
6.65818e-06
6.65818e-06
6.65818e-06
6.65818e-06
6.65818e-06
6.65818e-06
6.65818e-06
6.65818e-06
6.65818e-06
6.65818e-06
6.65818e-06
6.65818e-06
6.65818e-06
6.65818e-06
6.65818e-06
6.65818e-06
6.65796e-06
6.65796e-06
6.65818e-06
6.65818e-06
6.65818e-06
6.65818e-06
6.65818e-06
6.65818e-06
6.65818e-06
6.65818e-06
6.65818e-06
6.65818e-06
6.65818e-06
6.65818e-06
6.65818e-06
6.65818e-06
6.65818e-06
6.65818e-06
6.65818e-06
6.65818e-06
6.65818e-06
6.65818e-06
6.65818e-06
6.65818e-06
6.65818e-06
6.65818e-06
6.65818e-06
6.65818e-06
6.65818e-06
6.65818e-06
6.65796e-06
6.65796e-06
6.65818e-06
6.65818e-06
6.65818e-06
6.65818e-06
6.65818e-06
6.65818e-06
6.65818e-06
6.65818e-06
6.65818e-06
6.65818e-06
6.65818e-06
6.65818e-06
6.65818e-06
6.65818e-06
6.65818e-06
6.65818e-06
6.65818e-06
6.65818e-06
6.65818e-06
6.65818e-06
6.65818e-06
6.65818e-06
6.65818e-06
6.65818e-06
6.65818e-06
6.65818e-06
6.65818e-06
6.65818e-06
6.65796e-06
6.65796e-06
6.65818e-06
6.65818e-06
6.65818e-06
6.65818e-06
6.65818e-06
6.65818e-06
6.65818e-06
6.65818e-06
6.65818e-06
6.65818e-06
6.65818e-06
6.65818e-06
6.65818e-06
6.65818e-06
6.65818e-06
6.65818e-06
6.65818e-06
6.65818e-06
6.65818e-06
6.65818e-06
6.65818e-06
6.65818e-06
6.65818e-06
6.65818e-06
6.65818e-06
6.65818e-06
6.65818e-06
6.65818e-06
6.65796e-06
6.65796e-06
6.65818e-06
6.65818e-06
6.65818e-06
6.65818e-06
6.65818e-06
6.65818e-06
6.65818e-06
6.65818e-06
6.65818e-06
6.65818e-06
6.65818e-06
6.65818e-06
6.65818e-06
6.65818e-06
6.65818e-06
6.65818e-06
6.65818e-06
6.65818e-06
6.65818e-06
6.65818e-06
6.65818e-06
6.65818e-06
6.65818e-06
6.65818e-06
6.65818e-06
6.65818e-06
6.65818e-06
6.65818e-06
6.65796e-06
6.65796e-06
6.65818e-06
6.65818e-06
6.65818e-06
6.65818e-06
6.65818e-06
6.65818e-06
6.65818e-06
6.65818e-06
6.65818e-06
6.65818e-06
6.65818e-06
6.65818e-06
6.65818e-06
6.65818e-06
6.65818e-06
6.65818e-06
6.65818e-06
6.65818e-06
6.65818e-06
6.65818e-06
6.65818e-06
6.65818e-06
6.65818e-06
6.65818e-06
6.65818e-06
6.65818e-06
6.65818e-06
6.65818e-06
6.65796e-06
6.65796e-06
6.65818e-06
6.65818e-06
6.65818e-06
6.65818e-06
6.65818e-06
6.65818e-06
6.65818e-06
6.65818e-06
6.65818e-06
6.65818e-06
6.65818e-06
6.65818e-06
6.65818e-06
6.65818e-06
6.65818e-06
6.65818e-06
6.65818e-06
6.65818e-06
6.65818e-06
6.65818e-06
6.65818e-06
6.65818e-06
6.65818e-06
6.65818e-06
6.65818e-06
6.65818e-06
6.65818e-06
6.65818e-06
6.65796e-06
6.65796e-06
6.65818e-06
6.65818e-06
6.65818e-06
6.65818e-06
6.65818e-06
6.65818e-06
6.65818e-06
6.65818e-06
6.65818e-06
6.65818e-06
6.65818e-06
6.65818e-06
6.65818e-06
6.65818e-06
6.65818e-06
6.65818e-06
6.65818e-06
6.65818e-06
6.65818e-06
6.65818e-06
6.65818e-06
6.65818e-06
6.65818e-06
6.65818e-06
6.65818e-06
6.65818e-06
6.65818e-06
6.65818e-06
6.65796e-06
6.65796e-06
6.65818e-06
6.65818e-06
6.65818e-06
6.65818e-06
6.65818e-06
6.65818e-06
6.65818e-06
6.65818e-06
6.65818e-06
6.65818e-06
6.65818e-06
6.65818e-06
6.65818e-06
6.65818e-06
6.65818e-06
6.65818e-06
6.65818e-06
6.65818e-06
6.65818e-06
6.65818e-06
6.65818e-06
6.65818e-06
6.65818e-06
6.65818e-06
6.65818e-06
6.65818e-06
6.65818e-06
6.65818e-06
6.65796e-06
6.65796e-06
6.65818e-06
6.65818e-06
6.65818e-06
6.65818e-06
6.65818e-06
6.65818e-06
6.65818e-06
6.65818e-06
6.65818e-06
6.65818e-06
6.65818e-06
6.65818e-06
6.65818e-06
6.65818e-06
6.65818e-06
6.65818e-06
6.65818e-06
6.65818e-06
6.65818e-06
6.65818e-06
6.65818e-06
6.65818e-06
6.65818e-06
6.65818e-06
6.65818e-06
6.65818e-06
6.65818e-06
6.65818e-06
6.65796e-06
6.65796e-06
6.65818e-06
6.65818e-06
6.65818e-06
6.65818e-06
6.65818e-06
6.65818e-06
6.65818e-06
6.65818e-06
6.65818e-06
6.65818e-06
6.65818e-06
6.65818e-06
6.65818e-06
6.65818e-06
6.65818e-06
6.65818e-06
6.65818e-06
6.65818e-06
6.65818e-06
6.65818e-06
6.65818e-06
6.65818e-06
6.65818e-06
6.65818e-06
6.65818e-06
6.65818e-06
6.65818e-06
6.65818e-06
6.65796e-06
6.65796e-06
6.65818e-06
6.65818e-06
6.65818e-06
6.65818e-06
6.65818e-06
6.65818e-06
6.65818e-06
6.65818e-06
6.65818e-06
6.65818e-06
6.65818e-06
6.65818e-06
6.65818e-06
6.65818e-06
6.65818e-06
6.65818e-06
6.65818e-06
6.65818e-06
6.65818e-06
6.65818e-06
6.65818e-06
6.65818e-06
6.65818e-06
6.65818e-06
6.65818e-06
6.65818e-06
6.65818e-06
6.65818e-06
6.65796e-06
6.65796e-06
6.65818e-06
6.65818e-06
6.65818e-06
6.65818e-06
6.65818e-06
6.65818e-06
6.65818e-06
6.65818e-06
6.65818e-06
6.65818e-06
6.65818e-06
6.65818e-06
6.65818e-06
6.65818e-06
6.65818e-06
6.65818e-06
6.65818e-06
6.65818e-06
6.65818e-06
6.65818e-06
6.65818e-06
6.65818e-06
6.65818e-06
6.65818e-06
6.65818e-06
6.65818e-06
6.65818e-06
6.65818e-06
6.65796e-06
6.65796e-06
6.65818e-06
6.65818e-06
6.65818e-06
6.65818e-06
6.65818e-06
6.65818e-06
6.65818e-06
6.65818e-06
6.65818e-06
6.65818e-06
6.65818e-06
6.65818e-06
6.65818e-06
6.65818e-06
6.65818e-06
6.65818e-06
6.65818e-06
6.65818e-06
6.65818e-06
6.65818e-06
6.65818e-06
6.65818e-06
6.65818e-06
6.65818e-06
6.65818e-06
6.65818e-06
6.65818e-06
6.65818e-06
6.65796e-06
6.65796e-06
6.65818e-06
6.65818e-06
6.65818e-06
6.65818e-06
6.65818e-06
6.65818e-06
6.65818e-06
6.65818e-06
6.65818e-06
6.65818e-06
6.65818e-06
6.65818e-06
6.65818e-06
6.65818e-06
6.65818e-06
6.65818e-06
6.65818e-06
6.65818e-06
6.65818e-06
6.65818e-06
6.65818e-06
6.65818e-06
6.65818e-06
6.65818e-06
6.65818e-06
6.65818e-06
6.65818e-06
6.65818e-06
6.65796e-06
6.65796e-06
6.65818e-06
6.65818e-06
6.65818e-06
6.65818e-06
6.65818e-06
6.65818e-06
6.65818e-06
6.65818e-06
6.65818e-06
6.65818e-06
6.65818e-06
6.65818e-06
6.65818e-06
6.65818e-06
6.65818e-06
6.65818e-06
6.65818e-06
6.65818e-06
6.65818e-06
6.65818e-06
6.65818e-06
6.65818e-06
6.65818e-06
6.65818e-06
6.65818e-06
6.65818e-06
6.65818e-06
6.65818e-06
6.65796e-06
6.65796e-06
6.65818e-06
6.65818e-06
6.65818e-06
6.65818e-06
6.65818e-06
6.65818e-06
6.65818e-06
6.65818e-06
6.65818e-06
6.65818e-06
6.65818e-06
6.65818e-06
6.65818e-06
6.65818e-06
6.65818e-06
6.65818e-06
6.65818e-06
6.65818e-06
6.65818e-06
6.65818e-06
6.65818e-06
6.65818e-06
6.65818e-06
6.65818e-06
6.65818e-06
6.65818e-06
6.65818e-06
6.65818e-06
6.65796e-06
6.65796e-06
6.65818e-06
6.65818e-06
6.65818e-06
6.65818e-06
6.65818e-06
6.65818e-06
6.65818e-06
6.65818e-06
6.65818e-06
6.65818e-06
6.65818e-06
6.65818e-06
6.65818e-06
6.65818e-06
6.65818e-06
6.65818e-06
6.65818e-06
6.65818e-06
6.65818e-06
6.65818e-06
6.65818e-06
6.65818e-06
6.65818e-06
6.65818e-06
6.65818e-06
6.65818e-06
6.65818e-06
6.65818e-06
6.65796e-06
6.65796e-06
6.65818e-06
6.65818e-06
6.65818e-06
6.65818e-06
6.65818e-06
6.65818e-06
6.65818e-06
6.65818e-06
6.65818e-06
6.65818e-06
6.65818e-06
6.65818e-06
6.65818e-06
6.65818e-06
6.65818e-06
6.65818e-06
6.65818e-06
6.65818e-06
6.65818e-06
6.65818e-06
6.65818e-06
6.65818e-06
6.65818e-06
6.65818e-06
6.65818e-06
6.65819e-06
6.65819e-06
6.65818e-06
6.65796e-06
6.65797e-06
6.65819e-06
6.65819e-06
6.65819e-06
6.65819e-06
6.65819e-06
6.65819e-06
6.65819e-06
6.65819e-06
6.65819e-06
6.65818e-06
6.65818e-06
6.65818e-06
6.65818e-06
6.65818e-06
6.65818e-06
6.65818e-06
6.65818e-06
6.65818e-06
6.65818e-06
6.65819e-06
6.65819e-06
6.65819e-06
6.65819e-06
6.65819e-06
6.65819e-06
6.65819e-06
6.65819e-06
6.65819e-06
6.65797e-06
6.65797e-06
6.65819e-06
6.65819e-06
6.65819e-06
6.65819e-06
6.65819e-06
6.65819e-06
6.65819e-06
6.65819e-06
6.65819e-06
6.65819e-06
6.65819e-06
6.65818e-06
6.65818e-06
6.65818e-06
6.65818e-06
6.65818e-06
6.65818e-06
6.65819e-06
6.65819e-06
6.65819e-06
6.65819e-06
6.65819e-06
6.65819e-06
6.65819e-06
6.65819e-06
6.65819e-06
6.65819e-06
6.65819e-06
6.65797e-06
6.65797e-06
6.65819e-06
6.65819e-06
6.65819e-06
6.65819e-06
6.65819e-06
6.65819e-06
6.65819e-06
6.65819e-06
6.65819e-06
6.65819e-06
6.65819e-06
6.65818e-06
6.65818e-06
6.65818e-06
6.65818e-06
6.65818e-06
6.65818e-06
6.65819e-06
6.65819e-06
6.65819e-06
6.65819e-06
6.65819e-06
6.65819e-06
6.65819e-06
6.65819e-06
6.65819e-06
6.65819e-06
6.65819e-06
6.65797e-06
6.65797e-06
6.65819e-06
6.65819e-06
6.65819e-06
6.65819e-06
6.65819e-06
6.65819e-06
6.65819e-06
6.65819e-06
6.65819e-06
6.65819e-06
6.65819e-06
6.65819e-06
6.65818e-06
6.65818e-06
6.65818e-06
6.65818e-06
6.65818e-06
6.65819e-06
6.65819e-06
6.65819e-06
6.65819e-06
6.65819e-06
6.65819e-06
6.65819e-06
6.65819e-06
6.6582e-06
6.6582e-06
6.65819e-06
6.65797e-06
6.65798e-06
6.6582e-06
6.6582e-06
6.6582e-06
6.6582e-06
6.6582e-06
6.65819e-06
6.65819e-06
6.65819e-06
6.65819e-06
6.65819e-06
6.65819e-06
6.65819e-06
6.65818e-06
6.65818e-06
6.65818e-06
6.65818e-06
6.65818e-06
6.65819e-06
6.65819e-06
6.65819e-06
6.65819e-06
6.65819e-06
6.6582e-06
6.6582e-06
6.6582e-06
6.6582e-06
6.6582e-06
6.6582e-06
6.65798e-06
6.65798e-06
6.6582e-06
6.6582e-06
6.6582e-06
6.6582e-06
6.6582e-06
6.6582e-06
6.6582e-06
6.65819e-06
6.65819e-06
6.65819e-06
6.65819e-06
6.65819e-06
6.65818e-06
6.65818e-06
6.65818e-06
6.65818e-06
6.65819e-06
6.65819e-06
6.65819e-06
6.65819e-06
6.65819e-06
6.6582e-06
6.6582e-06
6.6582e-06
6.6582e-06
6.6582e-06
6.6582e-06
6.6582e-06
6.65798e-06
6.65799e-06
6.65821e-06
6.65821e-06
6.65821e-06
6.65821e-06
6.65821e-06
6.6582e-06
6.6582e-06
6.6582e-06
6.6582e-06
6.65819e-06
6.65819e-06
6.65819e-06
6.65819e-06
6.65819e-06
6.65819e-06
6.65819e-06
6.65819e-06
6.65819e-06
6.6582e-06
6.6582e-06
6.6582e-06
6.6582e-06
6.6582e-06
6.6582e-06
6.65821e-06
6.65821e-06
6.65821e-06
6.6582e-06
6.65799e-06
6.658e-06
6.65822e-06
6.65822e-06
6.65822e-06
6.65822e-06
6.65822e-06
6.65822e-06
6.65821e-06
6.65821e-06
6.65821e-06
6.6582e-06
6.6582e-06
6.6582e-06
6.6582e-06
6.6582e-06
6.6582e-06
6.6582e-06
6.6582e-06
6.6582e-06
6.65821e-06
6.65821e-06
6.65821e-06
6.65821e-06
6.65821e-06
6.65821e-06
6.65822e-06
6.65822e-06
6.65822e-06
6.65821e-06
6.658e-06
6.65801e-06
6.65823e-06
6.65823e-06
6.65823e-06
6.65823e-06
6.65823e-06
6.65823e-06
6.65823e-06
6.65822e-06
6.65822e-06
6.65822e-06
6.65821e-06
6.65821e-06
6.6582e-06
6.6582e-06
6.6582e-06
6.65821e-06
6.65821e-06
6.65822e-06
6.65822e-06
6.65822e-06
6.65822e-06
6.65823e-06
6.65823e-06
6.65823e-06
6.65823e-06
6.65823e-06
6.65823e-06
6.65823e-06
6.65801e-06
6.65802e-06
6.65824e-06
6.65824e-06
6.65824e-06
6.65824e-06
6.65823e-06
6.65823e-06
6.65823e-06
6.65823e-06
6.65823e-06
6.65823e-06
6.65822e-06
6.65821e-06
6.65821e-06
6.6582e-06
6.6582e-06
6.65821e-06
6.65821e-06
6.65822e-06
6.65822e-06
6.65823e-06
6.65823e-06
6.65823e-06
6.65824e-06
6.65823e-06
6.65824e-06
6.65824e-06
6.65824e-06
6.65824e-06
6.65802e-06
6.65803e-06
6.65824e-06
6.65824e-06
6.65824e-06
6.65824e-06
6.65824e-06
6.65823e-06
6.65823e-06
6.65823e-06
6.65822e-06
6.65823e-06
6.65822e-06
6.65822e-06
6.65821e-06
6.65821e-06
6.6582e-06
6.6582e-06
6.65821e-06
6.65822e-06
6.65822e-06
6.65823e-06
6.65823e-06
6.65823e-06
6.65824e-06
6.65824e-06
6.65824e-06
6.65824e-06
6.65825e-06
6.65825e-06
6.65802e-06
6.65804e-06
6.65825e-06
6.65825e-06
6.65825e-06
6.65825e-06
6.65826e-06
6.65825e-06
6.65825e-06
6.65825e-06
6.65823e-06
6.65823e-06
6.65823e-06
6.65823e-06
6.65823e-06
6.65823e-06
6.65823e-06
6.65823e-06
6.65823e-06
6.65823e-06
6.65824e-06
6.65825e-06
6.65824e-06
6.65825e-06
6.65826e-06
6.65826e-06
6.65826e-06
6.65825e-06
6.65826e-06
6.65826e-06
6.65804e-06
6.65805e-06
6.65827e-06
6.65828e-06
6.65828e-06
6.65828e-06
6.65829e-06
6.65828e-06
6.65827e-06
6.65827e-06
6.65826e-06
6.65826e-06
6.65826e-06
6.65826e-06
6.65825e-06
6.65825e-06
6.65825e-06
6.65825e-06
6.65825e-06
6.65826e-06
6.65826e-06
6.65828e-06
6.65827e-06
6.65827e-06
6.65827e-06
6.65828e-06
6.65828e-06
6.65827e-06
6.65828e-06
6.65829e-06
6.65807e-06
6.65808e-06
6.65829e-06
6.6583e-06
6.65828e-06
6.65828e-06
6.65828e-06
6.65828e-06
6.65829e-06
6.65829e-06
6.65827e-06
6.65827e-06
6.65826e-06
6.65825e-06
6.65824e-06
6.65824e-06
6.65825e-06
6.65825e-06
6.65826e-06
6.65826e-06
6.65827e-06
6.65828e-06
6.65826e-06
6.65826e-06
6.65827e-06
6.65829e-06
6.65829e-06
6.65828e-06
6.65829e-06
6.65831e-06
6.65807e-06
6.65815e-06
6.65829e-06
6.65833e-06
6.65828e-06
6.65834e-06
6.65837e-06
6.6583e-06
6.6583e-06
6.6583e-06
6.65828e-06
6.65828e-06
6.6583e-06
6.6583e-06
6.6583e-06
6.65827e-06
6.65831e-06
6.65828e-06
6.65833e-06
6.65826e-06
6.65827e-06
6.65832e-06
6.65834e-06
6.65836e-06
6.65828e-06
6.6583e-06
6.65833e-06
6.65834e-06
6.65828e-06
6.65832e-06
6.6581e-06
6.65895e-06
6.65878e-06
6.65895e-06
6.65827e-06
6.65915e-06
6.65938e-06
6.66013e-06
6.65983e-06
6.65979e-06
6.65964e-06
6.65921e-06
6.65891e-06
6.65872e-06
6.65878e-06
6.65858e-06
6.65885e-06
6.65867e-06
6.65932e-06
6.65945e-06
6.65925e-06
6.65911e-06
6.65912e-06
6.6596e-06
6.65932e-06
6.65897e-06
6.65875e-06
6.65901e-06
6.65858e-06
6.65856e-06
6.65853e-06
6.72196e-06
6.69447e-06
6.69577e-06
6.74282e-06
6.78004e-06
6.82023e-06
6.83104e-06
6.84075e-06
6.84511e-06
6.83794e-06
6.82429e-06
6.80729e-06
6.78698e-06
6.76314e-06
6.7397e-06
6.74428e-06
6.75616e-06
6.78877e-06
6.81159e-06
6.82785e-06
6.84373e-06
6.83503e-06
6.83154e-06
6.80667e-06
6.77952e-06
6.73605e-06
6.70382e-06
6.67543e-06
6.68028e-06
6.68511e-06
6.83466e-06
6.941e-06
6.99624e-06
7.08658e-06
7.15139e-06
7.19052e-06
7.25611e-06
7.30294e-06
7.31521e-06
7.30305e-06
7.27618e-06
7.22239e-06
7.15992e-06
7.08608e-06
7.05854e-06
7.04717e-06
7.10109e-06
7.14903e-06
7.20725e-06
7.27557e-06
7.3004e-06
7.32341e-06
7.29203e-06
7.27809e-06
7.2144e-06
7.14881e-06
7.06371e-06
6.98065e-06
6.8511e-06
6.7847e-06
7.01251e-06
7.06789e-06
7.13544e-06
7.21817e-06
7.25665e-06
7.33067e-06
7.3991e-06
7.42936e-06
7.45307e-06
7.45706e-06
7.44122e-06
7.42602e-06
7.38337e-06
7.35751e-06
7.34096e-06
7.33424e-06
7.3643e-06
7.37988e-06
7.41466e-06
7.45383e-06
7.46766e-06
7.4436e-06
7.43097e-06
7.39452e-06
7.33872e-06
7.26632e-06
7.20612e-06
7.12584e-06
7.06928e-06
7.05529e-06
7.21605e-06
7.26311e-06
7.31849e-06
7.35895e-06
7.43696e-06
7.50647e-06
7.55388e-06
7.60421e-06
7.63708e-06
7.66336e-06
7.6801e-06
7.67545e-06
7.66904e-06
7.65921e-06
7.65015e-06
7.66034e-06
7.65649e-06
7.66159e-06
7.68055e-06
7.67207e-06
7.66477e-06
7.64392e-06
7.60911e-06
7.5487e-06
7.49815e-06
7.43995e-06
7.37022e-06
7.29532e-06
7.23362e-06
7.25556e-06
7.39912e-06
7.45706e-06
7.48551e-06
7.54014e-06
7.60484e-06
7.66536e-06
7.72064e-06
7.78066e-06
7.83629e-06
7.87625e-06
7.90741e-06
7.92729e-06
7.943e-06
7.95439e-06
7.95071e-06
7.95054e-06
7.94708e-06
7.93857e-06
7.92969e-06
7.91594e-06
7.8844e-06
7.83793e-06
7.78449e-06
7.72655e-06
7.66261e-06
7.59759e-06
7.53612e-06
7.48425e-06
7.41697e-06
7.43081e-06
7.61046e-06
7.6192e-06
7.64974e-06
7.70417e-06
7.76409e-06
7.82677e-06
7.89403e-06
7.96316e-06
8.03028e-06
8.09012e-06
8.13965e-06
8.17842e-06
8.20465e-06
8.22253e-06
8.23155e-06
8.23192e-06
8.2224e-06
8.20462e-06
8.17817e-06
8.14277e-06
8.09184e-06
8.03013e-06
7.96209e-06
7.89405e-06
7.82815e-06
7.76543e-06
7.70707e-06
7.66451e-06
7.60702e-06
7.5937e-06
7.75663e-06
7.7438e-06
7.78776e-06
7.84047e-06
7.90095e-06
7.96857e-06
8.04376e-06
8.12274e-06
8.19985e-06
8.27155e-06
8.33349e-06
8.38568e-06
8.42515e-06
8.4511e-06
8.46623e-06
8.46919e-06
8.45612e-06
8.42736e-06
8.38649e-06
8.33482e-06
8.27009e-06
8.19643e-06
8.11924e-06
8.04228e-06
7.96855e-06
7.89877e-06
7.83327e-06
7.78733e-06
7.74887e-06
7.73824e-06
7.84572e-06
7.86843e-06
7.90942e-06
7.96008e-06
8.02184e-06
8.09265e-06
8.17075e-06
8.25373e-06
8.33724e-06
8.41781e-06
8.49094e-06
8.55463e-06
8.60593e-06
8.6409e-06
8.65924e-06
8.66098e-06
8.64409e-06
8.60777e-06
8.55621e-06
8.4932e-06
8.41939e-06
8.33728e-06
8.25205e-06
8.16813e-06
8.08996e-06
8.01986e-06
7.95689e-06
7.90878e-06
7.87519e-06
7.86339e-06
7.9558e-06
7.98265e-06
8.01451e-06
8.06101e-06
8.12133e-06
8.1931e-06
8.27343e-06
8.35977e-06
8.44866e-06
8.53652e-06
8.61881e-06
8.69159e-06
8.75104e-06
8.79258e-06
8.81352e-06
8.81345e-06
8.79251e-06
8.75092e-06
8.69203e-06
8.62056e-06
8.53986e-06
8.45255e-06
8.3627e-06
8.27445e-06
8.19244e-06
8.1203e-06
8.05854e-06
8.00961e-06
7.9754e-06
7.95857e-06
8.02951e-06
8.04676e-06
8.07454e-06
8.11777e-06
8.17563e-06
8.24625e-06
8.32674e-06
8.41424e-06
8.5054e-06
8.59575e-06
8.68124e-06
8.75725e-06
8.81938e-06
8.86315e-06
8.88519e-06
8.8843e-06
8.86114e-06
8.81696e-06
8.75483e-06
8.67938e-06
8.59532e-06
8.50629e-06
8.41568e-06
8.32783e-06
8.24656e-06
8.17544e-06
8.11621e-06
8.06993e-06
8.0378e-06
8.01908e-06
8.05565e-06
8.07033e-06
8.09686e-06
8.13767e-06
8.1921e-06
8.25847e-06
8.33437e-06
8.41705e-06
8.50328e-06
8.58932e-06
8.67089e-06
8.74341e-06
8.80252e-06
8.84426e-06
8.8655e-06
8.86471e-06
8.84225e-06
8.79973e-06
8.73996e-06
8.66712e-06
8.58596e-06
8.5008e-06
8.41551e-06
8.33355e-06
8.25816e-06
8.19226e-06
8.13788e-06
8.09609e-06
8.06763e-06
8.04927e-06
8.05412e-06
8.06817e-06
8.09376e-06
8.13189e-06
8.18165e-06
8.2416e-06
8.30984e-06
8.38393e-06
8.46098e-06
8.53756e-06
8.60985e-06
8.67388e-06
8.72589e-06
8.76261e-06
8.78151e-06
8.78121e-06
8.76181e-06
8.72467e-06
8.67213e-06
8.60758e-06
8.53506e-06
8.45864e-06
8.38203e-06
8.3085e-06
8.2409e-06
8.1817e-06
8.13277e-06
8.09532e-06
8.07031e-06
8.05333e-06
8.03047e-06
8.0455e-06
8.06908e-06
8.10308e-06
8.14665e-06
8.19847e-06
8.25691e-06
8.3198e-06
8.38456e-06
8.44825e-06
8.50774e-06
8.55992e-06
8.60195e-06
8.63148e-06
8.64677e-06
8.64682e-06
8.63162e-06
8.60211e-06
8.55995e-06
8.50752e-06
8.44778e-06
8.38395e-06
8.31921e-06
8.25653e-06
8.19843e-06
8.1471e-06
8.10425e-06
8.07122e-06
8.04945e-06
8.033e-06
7.98563e-06
8.00282e-06
8.02223e-06
8.05082e-06
8.08714e-06
8.1299e-06
8.17745e-06
8.22781e-06
8.27869e-06
8.32769e-06
8.37249e-06
8.41096e-06
8.44135e-06
8.4624e-06
8.47325e-06
8.47342e-06
8.46287e-06
8.44205e-06
8.4118e-06
8.37337e-06
8.32852e-06
8.27944e-06
8.22855e-06
8.17832e-06
8.13096e-06
8.08842e-06
8.05236e-06
8.02415e-06
8.00574e-06
7.98948e-06
7.92282e-06
7.94006e-06
7.95458e-06
7.97738e-06
8.00618e-06
8.0396e-06
8.07599e-06
8.11349e-06
8.15015e-06
8.18411e-06
8.21381e-06
8.23812e-06
8.25646e-06
8.26869e-06
8.27488e-06
8.27509e-06
8.26929e-06
8.2574e-06
8.23931e-06
8.21516e-06
8.18555e-06
8.15161e-06
8.115e-06
8.07758e-06
8.04128e-06
8.00787e-06
7.97894e-06
7.95593e-06
7.94112e-06
7.9254e-06
7.84418e-06
7.85931e-06
7.86974e-06
7.88707e-06
7.90867e-06
7.93311e-06
7.95878e-06
7.98401e-06
8.00715e-06
8.02686e-06
8.04228e-06
8.05321e-06
8.06012e-06
8.06395e-06
8.06566e-06
8.06586e-06
8.0645e-06
8.06098e-06
8.0543e-06
8.04353e-06
8.02822e-06
8.00858e-06
7.98552e-06
7.96038e-06
7.93475e-06
7.91026e-06
7.88846e-06
7.87077e-06
7.85966e-06
7.84516e-06
7.75358e-06
7.76634e-06
7.77352e-06
7.78593e-06
7.80097e-06
7.81723e-06
7.83323e-06
7.84746e-06
7.85858e-06
7.8657e-06
7.86856e-06
7.86775e-06
7.86462e-06
7.86104e-06
7.85877e-06
7.85889e-06
7.86138e-06
7.86515e-06
7.8684e-06
7.86932e-06
7.86654e-06
7.85951e-06
7.8485e-06
7.83439e-06
7.81847e-06
7.8022e-06
7.78706e-06
7.77444e-06
7.76684e-06
7.75406e-06
7.65665e-06
7.66747e-06
7.67187e-06
7.67994e-06
7.68921e-06
7.69838e-06
7.70608e-06
7.711e-06
7.71207e-06
7.70877e-06
7.70134e-06
7.69095e-06
7.67965e-06
7.67004e-06
7.66452e-06
7.66458e-06
7.67022e-06
7.67992e-06
7.69126e-06
7.70169e-06
7.70917e-06
7.71255e-06
7.71158e-06
7.70677e-06
7.69914e-06
7.69e-06
7.6807e-06
7.67257e-06
7.668e-06
7.65716e-06
7.55818e-06
7.56725e-06
7.56927e-06
7.57364e-06
7.57808e-06
7.58138e-06
7.58233e-06
7.5798e-06
7.57298e-06
7.56163e-06
7.54634e-06
7.52872e-06
7.51128e-06
7.49713e-06
7.48917e-06
7.4892e-06
7.49723e-06
7.51142e-06
7.52888e-06
7.54652e-06
7.56183e-06
7.57323e-06
7.58012e-06
7.58271e-06
7.58179e-06
7.5785e-06
7.57406e-06
7.56968e-06
7.56755e-06
7.55863e-06
7.46143e-06
7.46873e-06
7.46888e-06
7.47028e-06
7.47087e-06
7.46958e-06
7.46535e-06
7.45724e-06
7.44464e-06
7.42755e-06
7.40679e-06
7.3842e-06
7.36258e-06
7.34533e-06
7.33569e-06
7.3357e-06
7.34538e-06
7.36265e-06
7.38429e-06
7.40691e-06
7.42769e-06
7.44481e-06
7.45742e-06
7.46555e-06
7.46978e-06
7.47107e-06
7.4705e-06
7.46911e-06
7.46888e-06
7.46172e-06
7.36863e-06
7.37431e-06
7.37311e-06
7.37223e-06
7.36992e-06
7.36524e-06
7.3573e-06
7.34532e-06
7.32889e-06
7.30815e-06
7.28405e-06
7.2585e-06
7.23441e-06
7.21533e-06
7.20468e-06
7.20469e-06
7.21535e-06
7.23445e-06
7.25856e-06
7.28413e-06
7.30825e-06
7.329e-06
7.34542e-06
7.35739e-06
7.36534e-06
7.37002e-06
7.37236e-06
7.37326e-06
7.37443e-06
7.36883e-06
7.28146e-06
7.28579e-06
7.28366e-06
7.28113e-06
7.27676e-06
7.26976e-06
7.25939e-06
7.24503e-06
7.22642e-06
7.20378e-06
7.1781e-06
7.15127e-06
7.12614e-06
7.10628e-06
7.09519e-06
7.09519e-06
7.10629e-06
7.12616e-06
7.1513e-06
7.17815e-06
7.20384e-06
7.22647e-06
7.24508e-06
7.25943e-06
7.2698e-06
7.27682e-06
7.28121e-06
7.28376e-06
7.2859e-06
7.28163e-06
7.20103e-06
7.20431e-06
7.20155e-06
7.1979e-06
7.1922e-06
7.18378e-06
7.17204e-06
7.15652e-06
7.13704e-06
7.11389e-06
7.08801e-06
7.06118e-06
7.03613e-06
7.0163e-06
7.0052e-06
7.0052e-06
7.0163e-06
7.03613e-06
7.06119e-06
7.08802e-06
7.1139e-06
7.13706e-06
7.15654e-06
7.17206e-06
7.1838e-06
7.19223e-06
7.19794e-06
7.2016e-06
7.20437e-06
7.20117e-06
7.1279e-06
7.13037e-06
7.12723e-06
7.12292e-06
7.11647e-06
7.10735e-06
7.0951e-06
7.07934e-06
7.05999e-06
7.03733e-06
7.01226e-06
6.98639e-06
6.96222e-06
6.94303e-06
6.93223e-06
6.93223e-06
6.94302e-06
6.96221e-06
6.98637e-06
7.01224e-06
7.03731e-06
7.05998e-06
7.07934e-06
7.09511e-06
7.10737e-06
7.11649e-06
7.12293e-06
7.12725e-06
7.13036e-06
7.12802e-06
7.06225e-06
7.06409e-06
7.06079e-06
7.05617e-06
7.04944e-06
7.04018e-06
7.02802e-06
7.0127e-06
6.99416e-06
6.9727e-06
6.94912e-06
6.92484e-06
6.90211e-06
6.88397e-06
6.87371e-06
6.8737e-06
6.88395e-06
6.90209e-06
6.9248e-06
6.94908e-06
6.97267e-06
6.99414e-06
7.01269e-06
7.02803e-06
7.04019e-06
7.04945e-06
7.05618e-06
7.0608e-06
7.06405e-06
7.06236e-06
7.00397e-06
7.00532e-06
7.00205e-06
6.99738e-06
6.99071e-06
6.9817e-06
6.97007e-06
6.95561e-06
6.93834e-06
6.91851e-06
6.89683e-06
6.87454e-06
6.8536e-06
6.83678e-06
6.8272e-06
6.82719e-06
6.83677e-06
6.85358e-06
6.87451e-06
6.8968e-06
6.91849e-06
6.93831e-06
6.95559e-06
6.97005e-06
6.98169e-06
6.9907e-06
6.99738e-06
7.00205e-06
7.00527e-06
7.00407e-06
6.95273e-06
6.95374e-06
6.95061e-06
6.94609e-06
6.9397e-06
6.93119e-06
6.92034e-06
6.90703e-06
6.89128e-06
6.87332e-06
6.85376e-06
6.83365e-06
6.81469e-06
6.79933e-06
6.79052e-06
6.79052e-06
6.79933e-06
6.81468e-06
6.83363e-06
6.85374e-06
6.8733e-06
6.89125e-06
6.90701e-06
6.92032e-06
6.93116e-06
6.93967e-06
6.94606e-06
6.95058e-06
6.95367e-06
6.95282e-06
6.90808e-06
6.90885e-06
6.90592e-06
6.90166e-06
6.89569e-06
6.88784e-06
6.87794e-06
6.86591e-06
6.85178e-06
6.83578e-06
6.8184e-06
6.80052e-06
6.78359e-06
6.76977e-06
6.76176e-06
6.76176e-06
6.76977e-06
6.78359e-06
6.80052e-06
6.81839e-06
6.83577e-06
6.85177e-06
6.86589e-06
6.87791e-06
6.8878e-06
6.89565e-06
6.9016e-06
6.90586e-06
6.90874e-06
6.90814e-06
6.86944e-06
6.87004e-06
6.86735e-06
6.86341e-06
6.85795e-06
6.85084e-06
6.84196e-06
6.83125e-06
6.81876e-06
6.80469e-06
6.78944e-06
6.77375e-06
6.75881e-06
6.7465e-06
6.7393e-06
6.7393e-06
6.7465e-06
6.75881e-06
6.77375e-06
6.78944e-06
6.80469e-06
6.81876e-06
6.83124e-06
6.84193e-06
6.8508e-06
6.8579e-06
6.86334e-06
6.86726e-06
6.86989e-06
6.86945e-06
6.83619e-06
6.83667e-06
6.83424e-06
6.83067e-06
6.82576e-06
6.81942e-06
6.81156e-06
6.80215e-06
6.79125e-06
6.77901e-06
6.76578e-06
6.75214e-06
6.7391e-06
6.72825e-06
6.72181e-06
6.72181e-06
6.72824e-06
6.7391e-06
6.75214e-06
6.76577e-06
6.77901e-06
6.79125e-06
6.80214e-06
6.81154e-06
6.81939e-06
6.82572e-06
6.83061e-06
6.83415e-06
6.83652e-06
6.83618e-06
6.80774e-06
6.80816e-06
6.80598e-06
6.8028e-06
6.79846e-06
6.79288e-06
6.786e-06
6.77783e-06
6.7684e-06
6.75785e-06
6.74647e-06
6.73473e-06
6.72345e-06
6.71396e-06
6.70825e-06
6.70825e-06
6.71396e-06
6.72344e-06
6.73473e-06
6.74646e-06
6.75784e-06
6.76839e-06
6.77781e-06
6.78598e-06
6.79285e-06
6.79842e-06
6.80275e-06
6.80591e-06
6.80802e-06
6.80773e-06
6.78354e-06
6.78392e-06
6.78201e-06
6.77922e-06
6.77542e-06
6.77056e-06
6.76461e-06
6.75757e-06
6.74948e-06