/*--------------------------------*- C++ -*----------------------------------*\
| =========                 |                                                 |
| \\      /  F ield         | OpenFOAM: The Open Source CFD Toolbox           |
|  \\    /   O peration     | Version:  2312                                  |
|   \\  /    A nd           | Website:  www.openfoam.com                      |
|    \\/     M anipulation  |                                                 |
\*---------------------------------------------------------------------------*/
FoamFile
{
    version     2.0;
    format      ascii;
    arch        "LSB;label=32;scalar=64";
    class       volScalarField;
    location    "0.0940323";
    object      p;
}
// * * * * * * * * * * * * * * * * * * * * * * * * * * * * * * * * * * * * * //

dimensions      [1 -1 -2 0 0 0 0];

internalField   nonuniform List<scalar> 
90000
(
4851.18
4851.18
4851.18
4851.18
4851.18
4851.18
4851.18
4851.18
4851.18
4851.18
4851.18
4851.18
4851.18
4851.18
4851.18
4851.18
4851.18
4851.18
4851.18
4851.18
4851.18
4851.18
4851.18
4851.18
4851.18
4851.18
4851.18
4851.18
4851.18
4851.18
4753.08
4753.08
4753.08
4753.08
4753.08
4753.08
4753.08
4753.08
4753.08
4753.08
4753.08
4753.08
4753.08
4753.08
4753.08
4753.08
4753.08
4753.08
4753.08
4753.08
4753.08
4753.08
4753.08
4753.08
4753.08
4753.08
4753.08
4753.08
4753.08
4753.08
4654.98
4654.98
4654.98
4654.98
4654.98
4654.98
4654.98
4654.98
4654.98
4654.98
4654.98
4654.98
4654.98
4654.98
4654.98
4654.98
4654.98
4654.98
4654.98
4654.98
4654.98
4654.98
4654.98
4654.98
4654.98
4654.98
4654.98
4654.98
4654.98
4654.98
4556.88
4556.88
4556.88
4556.88
4556.88
4556.88
4556.88
4556.88
4556.88
4556.88
4556.88
4556.88
4556.88
4556.88
4556.88
4556.88
4556.88
4556.88
4556.88
4556.88
4556.88
4556.88
4556.88
4556.88
4556.88
4556.88
4556.88
4556.88
4556.88
4556.88
4458.78
4458.78
4458.78
4458.78
4458.78
4458.78
4458.78
4458.78
4458.78
4458.78
4458.78
4458.78
4458.78
4458.78
4458.78
4458.78
4458.78
4458.78
4458.78
4458.78
4458.78
4458.78
4458.78
4458.78
4458.78
4458.78
4458.78
4458.78
4458.78
4458.78
4360.68
4360.68
4360.68
4360.68
4360.68
4360.68
4360.68
4360.68
4360.68
4360.68
4360.68
4360.68
4360.68
4360.68
4360.68
4360.68
4360.68
4360.68
4360.68
4360.68
4360.68
4360.68
4360.68
4360.68
4360.68
4360.68
4360.68
4360.68
4360.68
4360.68
4262.58
4262.58
4262.58
4262.58
4262.58
4262.58
4262.58
4262.58
4262.58
4262.58
4262.58
4262.58
4262.58
4262.58
4262.58
4262.58
4262.58
4262.58
4262.58
4262.58
4262.58
4262.58
4262.58
4262.58
4262.58
4262.58
4262.58
4262.58
4262.58
4262.58
4164.48
4164.48
4164.48
4164.48
4164.48
4164.48
4164.48
4164.48
4164.48
4164.48
4164.48
4164.48
4164.48
4164.48
4164.48
4164.48
4164.48
4164.48
4164.48
4164.48
4164.48
4164.48
4164.48
4164.48
4164.48
4164.48
4164.48
4164.48
4164.48
4164.48
4066.38
4066.38
4066.38
4066.38
4066.38
4066.38
4066.38
4066.38
4066.38
4066.38
4066.38
4066.38
4066.38
4066.38
4066.38
4066.38
4066.38
4066.38
4066.38
4066.38
4066.38
4066.38
4066.38
4066.38
4066.38
4066.38
4066.38
4066.38
4066.38
4066.38
3968.28
3968.28
3968.28
3968.28
3968.28
3968.28
3968.28
3968.28
3968.28
3968.28
3968.28
3968.28
3968.28
3968.28
3968.28
3968.28
3968.28
3968.28
3968.28
3968.28
3968.28
3968.28
3968.28
3968.28
3968.28
3968.28
3968.28
3968.28
3968.28
3968.28
3870.18
3870.18
3870.18
3870.18
3870.18
3870.18
3870.18
3870.18
3870.18
3870.18
3870.18
3870.18
3870.18
3870.18
3870.18
3870.18
3870.18
3870.18
3870.18
3870.18
3870.18
3870.18
3870.18
3870.18
3870.18
3870.18
3870.18
3870.18
3870.18
3870.18
3772.08
3772.08
3772.08
3772.08
3772.08
3772.08
3772.08
3772.08
3772.08
3772.08
3772.08
3772.08
3772.08
3772.08
3772.08
3772.08
3772.08
3772.08
3772.08
3772.08
3772.08
3772.08
3772.08
3772.08
3772.08
3772.08
3772.08
3772.08
3772.08
3772.08
3673.98
3673.98
3673.98
3673.98
3673.98
3673.98
3673.98
3673.98
3673.98
3673.98
3673.98
3673.98
3673.98
3673.98
3673.98
3673.98
3673.98
3673.98
3673.98
3673.98
3673.98
3673.98
3673.98
3673.98
3673.98
3673.98
3673.98
3673.98
3673.98
3673.98
3575.88
3575.88
3575.88
3575.88
3575.88
3575.88
3575.88
3575.88
3575.88
3575.88
3575.88
3575.88
3575.88
3575.88
3575.88
3575.88
3575.88
3575.88
3575.88
3575.88
3575.88
3575.88
3575.88
3575.88
3575.88
3575.88
3575.88
3575.88
3575.88
3575.88
3477.78
3477.78
3477.78
3477.78
3477.78
3477.78
3477.78
3477.78
3477.78
3477.78
3477.78
3477.78
3477.78
3477.78
3477.78
3477.78
3477.78
3477.78
3477.78
3477.78
3477.78
3477.78
3477.78
3477.78
3477.78
3477.78
3477.78
3477.78
3477.78
3477.78
3379.68
3379.68
3379.68
3379.68
3379.68
3379.68
3379.68
3379.68
3379.68
3379.68
3379.68
3379.68
3379.68
3379.68
3379.68
3379.68
3379.68
3379.68
3379.68
3379.68
3379.68
3379.68
3379.68
3379.68
3379.68
3379.68
3379.68
3379.68
3379.68
3379.68
3281.58
3281.58
3281.58
3281.58
3281.58
3281.58
3281.58
3281.58
3281.58
3281.58
3281.58
3281.58
3281.58
3281.58
3281.58
3281.58
3281.58
3281.58
3281.58
3281.58
3281.58
3281.58
3281.58
3281.58
3281.58
3281.58
3281.58
3281.58
3281.58
3281.58
3183.48
3183.48
3183.48
3183.48
3183.48
3183.48
3183.48
3183.48
3183.48
3183.48
3183.48
3183.48
3183.48
3183.48
3183.48
3183.48
3183.48
3183.48
3183.48
3183.48
3183.48
3183.48
3183.48
3183.48
3183.48
3183.48
3183.48
3183.48
3183.48
3183.48
3085.38
3085.38
3085.38
3085.38
3085.38
3085.38
3085.38
3085.38
3085.38
3085.38
3085.38
3085.38
3085.38
3085.38
3085.38
3085.38
3085.38
3085.38
3085.38
3085.38
3085.38
3085.38
3085.38
3085.38
3085.38
3085.38
3085.38
3085.38
3085.38
3085.38
2987.28
2987.28
2987.28
2987.28
2987.28
2987.28
2987.28
2987.28
2987.28
2987.28
2987.28
2987.28
2987.28
2987.28
2987.28
2987.28
2987.28
2987.28
2987.28
2987.28
2987.28
2987.28
2987.28
2987.28
2987.28
2987.28
2987.28
2987.28
2987.28
2987.28
2889.18
2889.18
2889.18
2889.18
2889.18
2889.18
2889.18
2889.18
2889.18
2889.18
2889.18
2889.18
2889.18
2889.18
2889.18
2889.18
2889.18
2889.18
2889.18
2889.18
2889.18
2889.18
2889.18
2889.18
2889.18
2889.18
2889.18
2889.18
2889.18
2889.18
2791.08
2791.08
2791.08
2791.08
2791.08
2791.08
2791.08
2791.08
2791.08
2791.08
2791.08
2791.08
2791.08
2791.08
2791.08
2791.08
2791.08
2791.08
2791.08
2791.08
2791.08
2791.08
2791.08
2791.08
2791.08
2791.08
2791.08
2791.08
2791.08
2791.08
2692.98
2692.98
2692.98
2692.98
2692.98
2692.98
2692.98
2692.98
2692.98
2692.98
2692.98
2692.98
2692.98
2692.98
2692.98
2692.98
2692.98
2692.98
2692.98
2692.98
2692.98
2692.98
2692.98
2692.98
2692.98
2692.98
2692.98
2692.98
2692.98
2692.98
2594.88
2594.88
2594.88
2594.88
2594.88
2594.88
2594.88
2594.88
2594.88
2594.88
2594.88
2594.88
2594.88
2594.88
2594.88
2594.88
2594.88
2594.88
2594.88
2594.88
2594.88
2594.88
2594.88
2594.88
2594.88
2594.88
2594.88
2594.88
2594.88
2594.88
2496.78
2496.78
2496.78
2496.78
2496.78
2496.78
2496.78
2496.78
2496.78
2496.78
2496.78
2496.78
2496.78
2496.78
2496.78
2496.78
2496.78
2496.78
2496.78
2496.78
2496.78
2496.78
2496.78
2496.78
2496.78
2496.78
2496.78
2496.78
2496.78
2496.78
2398.68
2398.68
2398.68
2398.68
2398.68
2398.68
2398.68
2398.68
2398.68
2398.68
2398.68
2398.68
2398.68
2398.68
2398.68
2398.68
2398.68
2398.68
2398.68
2398.68
2398.68
2398.68
2398.68
2398.68
2398.68
2398.68
2398.68
2398.68
2398.68
2398.68
2300.58
2300.58
2300.58
2300.58
2300.58
2300.58
2300.58
2300.58
2300.58
2300.58
2300.58
2300.58
2300.58
2300.58
2300.58
2300.58
2300.58
2300.58
2300.58
2300.58
2300.58
2300.58
2300.58
2300.58
2300.58
2300.58
2300.58
2300.58
2300.58
2300.58
2202.48
2202.48
2202.48
2202.48
2202.48
2202.48
2202.48
2202.48
2202.48
2202.48
2202.48
2202.48
2202.48
2202.48
2202.48
2202.48
2202.48
2202.48
2202.48
2202.48
2202.48
2202.48
2202.48
2202.48
2202.48
2202.48
2202.48
2202.48
2202.48
2202.48
2104.38
2104.38
2104.38
2104.38
2104.38
2104.38
2104.38
2104.38
2104.38
2104.38
2104.38
2104.38
2104.39
2104.39
2104.39
2104.39
2104.39
2104.39
2104.38
2104.38
2104.38
2104.38
2104.38
2104.38
2104.38
2104.38
2104.38
2104.38
2104.38
2104.38
2006.28
2006.28
2006.28
2006.28
2006.28
2006.28
2006.28
2006.28
2006.28
2006.28
2006.29
2006.29
2006.29
2006.29
2006.29
2006.29
2006.29
2006.29
2006.29
2006.29
2006.28
2006.28
2006.28
2006.28
2006.28
2006.28
2006.28
2006.28
2006.28
2006.28
1908.18
1908.18
1908.18
1908.18
1908.18
1908.18
1908.18
1908.18
1908.18
1908.19
1908.19
1908.19
1908.19
1908.19
1908.19
1908.19
1908.19
1908.19
1908.19
1908.19
1908.19
1908.18
1908.18
1908.18
1908.18
1908.18
1908.18
1908.18
1908.18
1908.18
1810.08
1810.08
1810.08
1810.08
1810.08
1810.08
1810.08
1810.08
1810.09
1810.09
1810.09
1810.09
1810.09
1810.09
1810.09
1810.09
1810.09
1810.09
1810.09
1810.09
1810.09
1810.09
1810.08
1810.08
1810.08
1810.08
1810.08
1810.08
1810.08
1810.08
1711.98
1711.98
1711.98
1711.98
1711.98
1711.98
1711.98
1711.98
1711.99
1711.99
1711.99
1711.99
1711.99
1711.99
1711.99
1711.99
1711.99
1711.99
1711.99
1711.99
1711.99
1711.99
1711.99
1711.98
1711.98
1711.98
1711.98
1711.98
1711.98
1711.98
1613.88
1613.88
1613.88
1613.88
1613.88
1613.88
1613.88
1613.88
1613.89
1613.89
1613.89
1613.89
1613.89
1613.89
1613.89
1613.89
1613.89
1613.89
1613.89
1613.89
1613.89
1613.89
1613.89
1613.88
1613.88
1613.88
1613.88
1613.88
1613.88
1613.88
1515.78
1515.78
1515.78
1515.78
1515.78
1515.78
1515.78
1515.79
1515.79
1515.79
1515.79
1515.79
1515.79
1515.79
1515.79
1515.79
1515.79
1515.79
1515.79
1515.79
1515.79
1515.79
1515.79
1515.78
1515.78
1515.78
1515.78
1515.78
1515.78
1515.78
1417.68
1417.68
1417.68
1417.68
1417.68
1417.68
1417.68
1417.69
1417.69
1417.69
1417.69
1417.69
1417.69
1417.69
1417.69
1417.69
1417.69
1417.69
1417.69
1417.69
1417.69
1417.69
1417.69
1417.68
1417.68
1417.68
1417.68
1417.68
1417.68
1417.68
1319.58
1319.58
1319.58
1319.58
1319.58
1319.58
1319.58
1319.59
1319.59
1319.59
1319.59
1319.59
1319.59
1319.59
1319.59
1319.59
1319.59
1319.59
1319.59
1319.59
1319.59
1319.59
1319.59
1319.58
1319.58
1319.58
1319.58
1319.58
1319.58
1319.58
1221.48
1221.48
1221.48
1221.48
1221.48
1221.48
1221.48
1221.49
1221.49
1221.49
1221.49
1221.49
1221.49
1221.49
1221.49
1221.49
1221.49
1221.49
1221.49
1221.49
1221.49
1221.49
1221.49
1221.48
1221.48
1221.48
1221.48
1221.48
1221.48
1221.48
1123.38
1123.38
1123.38
1123.38
1123.38
1123.38
1123.38
1123.39
1123.39
1123.39
1123.39
1123.39
1123.39
1123.39
1123.39
1123.39
1123.39
1123.39
1123.39
1123.39
1123.39
1123.39
1123.39
1123.38
1123.38
1123.38
1123.38
1123.38
1123.38
1123.38
1025.28
1025.28
1025.28
1025.28
1025.28
1025.28
1025.28
1025.28
1025.29
1025.29
1025.29
1025.29
1025.29
1025.29
1025.29
1025.29
1025.29
1025.29
1025.29
1025.29
1025.29
1025.29
1025.28
1025.28
1025.28
1025.28
1025.28
1025.28
1025.28
1025.28
927.178
927.178
927.179
927.179
927.18
927.181
927.183
927.184
927.185
927.186
927.187
927.188
927.189
927.19
927.19
927.19
927.19
927.189
927.188
927.187
927.186
927.185
927.184
927.183
927.182
927.181
927.18
927.179
927.179
927.178
829.076
829.076
829.077
829.077
829.078
829.08
829.081
829.082
829.084
829.085
829.087
829.088
829.089
829.089
829.09
829.089
829.089
829.089
829.088
829.087
829.085
829.084
829.083
829.081
829.08
829.079
829.078
829.077
829.076
829.076
730.973
730.973
730.974
730.975
730.976
730.977
730.979
730.98
730.982
730.984
730.985
730.986
730.988
730.988
730.989
730.989
730.988
730.988
730.986
730.985
730.984
730.982
730.981
730.979
730.978
730.976
730.975
730.974
730.973
730.973
632.869
632.87
632.87
632.872
632.873
632.874
632.876
632.878
632.88
632.882
632.883
632.885
632.886
632.887
632.887
632.887
632.887
632.886
632.885
632.883
632.882
632.88
632.878
632.876
632.875
632.873
632.872
632.871
632.87
632.87
534.765
534.766
534.767
534.768
534.769
534.771
534.773
534.775
534.777
534.779
534.781
534.782
534.784
534.785
534.785
534.785
534.785
534.784
534.782
534.781
534.779
534.777
534.775
534.773
534.771
534.769
534.768
534.767
534.766
534.765
436.66
436.661
436.662
436.663
436.664
436.666
436.668
436.67
436.673
436.675
436.677
436.679
436.68
436.682
436.682
436.682
436.682
436.681
436.679
436.677
436.675
436.673
436.671
436.668
436.666
436.665
436.663
436.662
436.661
436.66
338.554
338.555
338.556
338.557
338.559
338.561
338.563
338.565
338.568
338.57
338.573
338.575
338.576
338.578
338.578
338.578
338.578
338.576
338.575
338.573
338.57
338.568
338.566
338.563
338.561
338.559
338.558
338.556
338.555
338.554
240.447
240.448
240.449
240.451
240.453
240.455
240.457
240.459
240.462
240.465
240.467
240.469
240.471
240.472
240.473
240.473
240.472
240.471
240.469
240.467
240.465
240.462
240.46
240.457
240.455
240.453
240.451
240.449
240.448
240.448
142.339
142.341
142.342
142.344
142.345
142.347
142.35
142.352
142.355
142.357
142.36
142.362
142.364
142.365
142.366
142.366
142.365
142.364
142.362
142.36
142.357
142.355
142.352
142.35
142.347
142.345
142.343
142.342
142.34
142.339
44.2303
44.2305
44.231
44.2322
44.234
44.2361
44.2384
44.2409
44.2435
44.246
44.2484
44.2505
44.2523
44.2538
44.2545
44.2546
44.2538
44.2527
44.2508
44.2483
44.2457
44.2433
44.2409
44.2386
44.2364
44.2347
44.2334
44.2327
44.2322
44.232
-4.87831
-4.87929
-4.87879
-4.87814
-4.87633
-4.87373
-4.87122
-4.86859
-4.86577
-4.86304
-4.86056
-4.85835
-4.85638
-4.85482
-4.8541
-4.85394
-4.8548
-4.85592
-4.85793
-4.86073
-4.86357
-4.86619
-4.86855
-4.87106
-4.87342
-4.87498
-4.87604
-4.87672
-4.87708
-4.87735
-4.98876
-4.98819
-4.98749
-4.98595
-4.98412
-4.98218
-4.97973
-4.97692
-4.97395
-4.97085
-4.96788
-4.96525
-4.96311
-4.96164
-4.96082
-4.96086
-4.96165
-4.96336
-4.96551
-4.96795
-4.9707
-4.97374
-4.97682
-4.97956
-4.98187
-4.98403
-4.9859
-4.98729
-4.98829
-4.98916
-5.08833
-5.08782
-5.08689
-5.0856
-5.08387
-5.08201
-5.07979
-5.07718
-5.07437
-5.07156
-5.06883
-5.06642
-5.06435
-5.06296
-5.06223
-5.06225
-5.06302
-5.06449
-5.0665
-5.06884
-5.07151
-5.07421
-5.07699
-5.07954
-5.08184
-5.08379
-5.08548
-5.0866
-5.08732
-5.08881
-5.18858
-5.1882
-5.18748
-5.18627
-5.18488
-5.18322
-5.18117
-5.17891
-5.17646
-5.17404
-5.17175
-5.16962
-5.16786
-5.1666
-5.16593
-5.16602
-5.16666
-5.1679
-5.16969
-5.17171
-5.17402
-5.17642
-5.17878
-5.18094
-5.18298
-5.18476
-5.18619
-5.18723
-5.18766
-5.18898
-5.28987
-5.28968
-5.28903
-5.2881
-5.28697
-5.28556
-5.28388
-5.28209
-5.28021
-5.27829
-5.27645
-5.27475
-5.27336
-5.27237
-5.27182
-5.27184
-5.27236
-5.27335
-5.27475
-5.27643
-5.27827
-5.28015
-5.282
-5.28376
-5.28536
-5.28677
-5.28793
-5.28882
-5.28908
-5.2899
-5.39195
-5.39179
-5.39127
-5.39062
-5.3898
-5.38877
-5.3876
-5.38635
-5.38504
-5.38372
-5.38244
-5.38127
-5.38028
-5.37957
-5.37921
-5.37922
-5.37959
-5.3803
-5.38128
-5.38243
-5.38367
-5.38495
-5.38623
-5.38747
-5.38863
-5.38966
-5.39056
-5.3913
-5.39152
-5.39186
-5.4947
-5.49442
-5.49415
-5.4938
-5.49331
-5.4927
-5.49204
-5.49136
-5.49064
-5.48993
-5.48924
-5.48862
-5.48809
-5.4877
-5.48751
-5.48753
-5.48773
-5.4881
-5.4886
-5.4892
-5.48983
-5.49049
-5.49118
-5.49189
-5.49255
-5.49312
-5.49359
-5.49403
-5.49422
-5.49439
-5.59735
-5.59728
-5.59726
-5.59718
-5.59703
-5.59684
-5.59665
-5.59649
-5.59634
-5.5962
-5.59608
-5.59599
-5.59593
-5.59587
-5.59585
-5.59587
-5.5959
-5.59593
-5.59599
-5.59607
-5.59614
-5.59622
-5.59634
-5.59651
-5.5967
-5.59687
-5.597
-5.59714
-5.59723
-5.5973
-5.70046
-5.70055
-5.70065
-5.70078
-5.70093
-5.70113
-5.70138
-5.70169
-5.70204
-5.70243
-5.70284
-5.70322
-5.70356
-5.70379
-5.70392
-5.70392
-5.70379
-5.70355
-5.70322
-5.70285
-5.70244
-5.70202
-5.70162
-5.70128
-5.70102
-5.70081
-5.70063
-5.70051
-5.70044
-5.70041
-5.80373
-5.80384
-5.80402
-5.80431
-5.80472
-5.80524
-5.80586
-5.80658
-5.80737
-5.8082
-5.80902
-5.80978
-5.81042
-5.81088
-5.81111
-5.8111
-5.81085
-5.81038
-5.80974
-5.80899
-5.80817
-5.80734
-5.80653
-5.80578
-5.80514
-5.8046
-5.80417
-5.80385
-5.80363
-5.80354
-5.9068
-5.9069
-5.90717
-5.90761
-5.90822
-5.90899
-5.9099
-5.91092
-5.91203
-5.91317
-5.91428
-5.9153
-5.91614
-5.91675
-5.91705
-5.91703
-5.91669
-5.91606
-5.91521
-5.91419
-5.91307
-5.91193
-5.91082
-5.90978
-5.90886
-5.90808
-5.90746
-5.907
-5.9067
-5.90656
-6.00958
-6.00973
-6.01009
-6.01065
-6.0114
-6.01233
-6.01342
-6.01464
-6.01593
-6.01725
-6.01853
-6.01968
-6.02063
-6.02131
-6.02165
-6.02163
-6.02125
-6.02054
-6.01957
-6.0184
-6.01711
-6.01579
-6.01449
-6.01327
-6.01218
-6.01125
-6.0105
-6.00994
-6.00958
-6.00941
-6.11212
-6.11233
-6.11275
-6.11338
-6.11421
-6.11523
-6.1164
-6.11769
-6.11906
-6.12044
-6.12177
-6.12296
-6.12394
-6.12463
-6.12498
-6.12496
-6.12458
-6.12386
-6.12286
-6.12165
-6.12031
-6.11891
-6.11753
-6.11624
-6.11506
-6.11406
-6.11324
-6.11262
-6.11221
-6.11202
-6.21435
-6.2146
-6.21505
-6.2157
-6.21655
-6.21758
-6.21876
-6.22004
-6.22139
-6.22275
-6.22404
-6.22519
-6.22612
-6.22678
-6.22712
-6.22711
-6.22675
-6.22607
-6.22511
-6.22394
-6.22264
-6.22127
-6.21991
-6.21861
-6.21743
-6.2164
-6.21556
-6.21491
-6.21448
-6.21427
-6.31616
-6.31641
-6.31685
-6.31749
-6.31832
-6.3193
-6.32043
-6.32165
-6.32292
-6.32418
-6.32537
-6.32643
-6.32729
-6.32789
-6.3282
-6.3282
-6.32787
-6.32725
-6.32638
-6.32531
-6.3241
-6.32282
-6.32154
-6.32031
-6.31918
-6.31819
-6.31736
-6.31672
-6.31629
-6.31606
-6.41746
-6.41769
-6.41811
-6.4187
-6.41947
-6.42039
-6.42142
-6.42254
-6.42369
-6.42483
-6.42589
-6.42683
-6.42759
-6.42813
-6.4284
-6.42839
-6.42811
-6.42757
-6.4268
-6.42585
-6.42477
-6.42362
-6.42246
-6.42134
-6.4203
-6.41937
-6.4186
-6.41799
-6.41758
-6.41736
-6.51825
-6.51846
-6.51883
-6.51937
-6.52007
-6.52089
-6.52182
-6.52281
-6.52383
-6.52482
-6.52575
-6.52657
-6.52722
-6.52768
-6.52791
-6.52791
-6.52767
-6.5272
-6.52654
-6.52572
-6.52479
-6.52378
-6.52276
-6.52176
-6.52083
-6.52
-6.5193
-6.51874
-6.51836
-6.51816
-6.61858
-6.61875
-6.61908
-6.61957
-6.62018
-6.62091
-6.62172
-6.62258
-6.62346
-6.62432
-6.62511
-6.6258
-6.62635
-6.62674
-6.62693
-6.62693
-6.62673
-6.62634
-6.62578
-6.62509
-6.62429
-6.62343
-6.62255
-6.62168
-6.62087
-6.62014
-6.61952
-6.61903
-6.61868
-6.61851
-6.7185
-6.71865
-6.71894
-6.71936
-6.71989
-6.72052
-6.72122
-6.72196
-6.7227
-6.72343
-6.72409
-6.72467
-6.72513
-6.72545
-6.72561
-6.72561
-6.72545
-6.72512
-6.72466
-6.72408
-6.72341
-6.72269
-6.72194
-6.7212
-6.7205
-6.71987
-6.71933
-6.71891
-6.71861
-6.71845
-6.81809
-6.81822
-6.81846
-6.81882
-6.81928
-6.81982
-6.82041
-6.82103
-6.82166
-6.82226
-6.82281
-6.82329
-6.82367
-6.82393
-6.82407
-6.82406
-6.82393
-6.82366
-6.82328
-6.82281
-6.82225
-6.82165
-6.82102
-6.8204
-6.81981
-6.81927
-6.81881
-6.81845
-6.81819
-6.81806
-6.91739
-6.9175
-6.91771
-6.91801
-6.9184
-6.91885
-6.91935
-6.91986
-6.92039
-6.92088
-6.92134
-6.92173
-6.92204
-6.92226
-6.92237
-6.92237
-6.92226
-6.92204
-6.92173
-6.92134
-6.92089
-6.92039
-6.91987
-6.91935
-6.91885
-6.9184
-6.91801
-6.91771
-6.91749
-6.91738
-7.01645
-7.01655
-7.01672
-7.01698
-7.0173
-7.01767
-7.01809
-7.01852
-7.01894
-7.01935
-7.01973
-7.02005
-7.0203
-7.02047
-7.02056
-7.02056
-7.02048
-7.0203
-7.02005
-7.01974
-7.01936
-7.01896
-7.01853
-7.0181
-7.01768
-7.01731
-7.01698
-7.01673
-7.01655
-7.01646
-7.11532
-7.1154
-7.11554
-7.11575
-7.11602
-7.11633
-7.11667
-7.11702
-7.11737
-7.11771
-7.11801
-7.11827
-7.11848
-7.11862
-7.11869
-7.11869
-7.11862
-7.11849
-7.11828
-7.11802
-7.11772
-7.11739
-7.11704
-7.11668
-7.11634
-7.11603
-7.11577
-7.11556
-7.11541
-7.11533
-7.21401
-7.21408
-7.2142
-7.21437
-7.21459
-7.21484
-7.21512
-7.21541
-7.2157
-7.21597
-7.21622
-7.21643
-7.21659
-7.21671
-7.21677
-7.21677
-7.21672
-7.21661
-7.21644
-7.21623
-7.21599
-7.21572
-7.21543
-7.21514
-7.21487
-7.21461
-7.21439
-7.21422
-7.2141
-7.21404
-7.31257
-7.31262
-7.31272
-7.31286
-7.31304
-7.31325
-7.31347
-7.31371
-7.31394
-7.31416
-7.31436
-7.31453
-7.31467
-7.31476
-7.31481
-7.31482
-7.31477
-7.31468
-7.31455
-7.31438
-7.31419
-7.31397
-7.31373
-7.3135
-7.31327
-7.31307
-7.31289
-7.31275
-7.31265
-7.3126
-7.411
-7.41105
-7.41113
-7.41124
-7.41139
-7.41156
-7.41174
-7.41193
-7.41212
-7.4123
-7.41246
-7.4126
-7.41271
-7.41279
-7.41283
-7.41283
-7.4128
-7.41273
-7.41262
-7.41249
-7.41233
-7.41215
-7.41196
-7.41177
-7.41159
-7.41142
-7.41128
-7.41116
-7.41108
-7.41104
-7.50934
-7.50937
-7.50944
-7.50953
-7.50965
-7.50979
-7.50993
-7.51009
-7.51024
-7.51039
-7.51052
-7.51064
-7.51073
-7.51079
-7.51083
-7.51083
-7.5108
-7.51074
-7.51066
-7.51055
-7.51042
-7.51028
-7.51012
-7.50997
-7.50982
-7.50969
-7.50957
-7.50948
-7.50941
-7.50938
-7.60759
-7.60762
-7.60767
-7.60775
-7.60784
-7.60795
-7.60807
-7.6082
-7.60832
-7.60844
-7.60855
-7.60865
-7.60872
-7.60877
-7.6088
-7.6088
-7.60878
-7.60873
-7.60867
-7.60858
-7.60847
-7.60836
-7.60823
-7.60811
-7.60799
-7.60788
-7.60779
-7.60771
-7.60766
-7.60763
-7.70576
-7.70579
-7.70583
-7.70589
-7.70597
-7.70606
-7.70616
-7.70626
-7.70637
-7.70646
-7.70655
-7.70663
-7.70669
-7.70673
-7.70676
-7.70676
-7.70674
-7.7067
-7.70665
-7.70658
-7.70649
-7.7064
-7.7063
-7.7062
-7.7061
-7.70601
-7.70593
-7.70587
-7.70583
-7.7058
-7.80388
-7.8039
-7.80393
-7.80398
-7.80405
-7.80412
-7.8042
-7.80429
-7.80437
-7.80445
-7.80453
-7.80459
-7.80464
-7.80468
-7.8047
-7.8047
-7.80468
-7.80465
-7.80461
-7.80455
-7.80448
-7.8044
-7.80432
-7.80424
-7.80416
-7.80409
-7.80402
-7.80397
-7.80394
-7.80392
-7.90194
-7.90195
-7.90198
-7.90203
-7.90208
-7.90214
-7.90221
-7.90228
-7.90235
-7.90242
-7.90248
-7.90253
-7.90257
-7.9026
-7.90262
-7.90262
-7.90261
-7.90258
-7.90254
-7.9025
-7.90244
-7.90238
-7.90231
-7.90224
-7.90218
-7.90212
-7.90207
-7.90203
-7.902
-7.90198
-7.99996
-7.99997
-8
-8.00003
-8.00007
-8.00013
-8.00018
-8.00024
-8.0003
-8.00035
-8.0004
-8.00045
-8.00048
-8.00051
-8.00052
-8.00052
-8.00051
-8.00049
-8.00046
-8.00042
-8.00037
-8.00032
-8.00027
-8.00021
-8.00016
-8.00011
-8.00007
-8.00003
-8.00001
-7.99999
-8.09794
-8.09795
-8.09797
-8.098
-8.09804
-8.09808
-8.09812
-8.09817
-8.09822
-8.09827
-8.09831
-8.09834
-8.09837
-8.09839
-8.09841
-8.09841
-8.0984
-8.09838
-8.09836
-8.09833
-8.09829
-8.09824
-8.0982
-8.09815
-8.09811
-8.09807
-8.09803
-8.098
-8.09798
-8.09797
-8.19588
-8.19589
-8.19591
-8.19594
-8.19597
-8.196
-8.19604
-8.19608
-8.19612
-8.19616
-8.19619
-8.19623
-8.19625
-8.19627
-8.19628
-8.19628
-8.19627
-8.19626
-8.19624
-8.19621
-8.19618
-8.19614
-8.1961
-8.19607
-8.19603
-8.19599
-8.19596
-8.19594
-8.19592
-8.19591
-8.2938
-8.29381
-8.29382
-8.29385
-8.29387
-8.2939
-8.29393
-8.29397
-8.294
-8.29403
-8.29406
-8.29409
-8.29411
-8.29413
-8.29413
-8.29414
-8.29413
-8.29412
-8.2941
-8.29408
-8.29405
-8.29402
-8.29399
-8.29396
-8.29393
-8.2939
-8.29387
-8.29385
-8.29383
-8.29383
-8.39169
-8.3917
-8.39171
-8.39173
-8.39175
-8.39178
-8.39181
-8.39184
-8.39187
-8.39189
-8.39192
-8.39194
-8.39196
-8.39197
-8.39198
-8.39198
-8.39198
-8.39197
-8.39195
-8.39193
-8.39191
-8.39188
-8.39186
-8.39183
-8.3918
-8.39178
-8.39175
-8.39174
-8.39172
-8.39172
-8.48957
-8.48957
-8.48958
-8.4896
-8.48962
-8.48964
-8.48967
-8.48969
-8.48972
-8.48974
-8.48976
-8.48978
-8.48979
-8.4898
-8.48981
-8.48981
-8.48981
-8.4898
-8.48979
-8.48977
-8.48975
-8.48973
-8.48971
-8.48968
-8.48966
-8.48964
-8.48962
-8.4896
-8.48959
-8.48958
-8.58742
-8.58743
-8.58744
-8.58745
-8.58747
-8.58749
-8.58751
-8.58753
-8.58755
-8.58757
-8.58759
-8.58761
-8.58762
-8.58763
-8.58763
-8.58763
-8.58763
-8.58762
-8.58761
-8.5876
-8.58758
-8.58756
-8.58754
-8.58752
-8.5875
-8.58748
-8.58746
-8.58745
-8.58744
-8.58744
-8.68526
-8.68527
-8.68528
-8.68529
-8.6853
-8.68532
-8.68534
-8.68536
-8.68538
-8.68539
-8.68541
-8.68542
-8.68543
-8.68544
-8.68545
-8.68545
-8.68544
-8.68544
-8.68543
-8.68541
-8.6854
-8.68538
-8.68536
-8.68535
-8.68533
-8.68531
-8.6853
-8.68529
-8.68528
-8.68527
-8.78309
-8.7831
-8.7831
-8.78311
-8.78313
-8.78314
-8.78316
-8.78317
-8.78319
-8.7832
-8.78322
-8.78323
-8.78324
-8.78325
-8.78325
-8.78325
-8.78325
-8.78324
-8.78323
-8.78322
-8.78321
-8.78319
-8.78318
-8.78316
-8.78315
-8.78313
-8.78312
-8.78311
-8.7831
-8.7831
-8.88091
-8.88091
-8.88092
-8.88093
-8.88094
-8.88095
-8.88096
-8.88098
-8.88099
-8.88101
-8.88102
-8.88103
-8.88104
-8.88104
-8.88105
-8.88105
-8.88104
-8.88104
-8.88103
-8.88102
-8.88101
-8.88099
-8.88098
-8.88097
-8.88095
-8.88094
-8.88093
-8.88092
-8.88092
-8.88091
-8.97872
-8.97872
-8.97872
-8.97873
-8.97874
-8.97875
-8.97876
-8.97878
-8.97879
-8.9788
-8.97881
-8.97882
-8.97883
-8.97883
-8.97884
-8.97884
-8.97883
-8.97883
-8.97882
-8.97881
-8.9788
-8.97879
-8.97878
-8.97876
-8.97875
-8.97874
-8.97873
-8.97873
-8.97872
-8.97872
-9.07652
-9.07652
-9.07652
-9.07653
-9.07654
-9.07655
-9.07656
-9.07657
-9.07658
-9.07659
-9.0766
-9.07661
-9.07662
-9.07662
-9.07662
-9.07662
-9.07662
-9.07662
-9.07661
-9.0766
-9.07659
-9.07658
-9.07657
-9.07656
-9.07655
-9.07654
-9.07653
-9.07652
-9.07652
-9.07652
-9.17431
-9.17431
-9.17432
-9.17432
-9.17433
-9.17434
-9.17435
-9.17436
-9.17437
-9.17438
-9.17439
-9.17439
-9.1744
-9.1744
-9.17441
-9.17441
-9.1744
-9.1744
-9.17439
-9.17439
-9.17438
-9.17437
-9.17436
-9.17435
-9.17434
-9.17433
-9.17432
-9.17432
-9.17431
-9.17431
-9.27211
-9.27211
-9.27211
-9.27211
-9.27212
-9.27213
-9.27213
-9.27214
-9.27215
-9.27216
-9.27217
-9.27218
-9.27218
-9.27219
-9.27219
-9.27219
-9.27219
-9.27218
-9.27218
-9.27217
-9.27216
-9.27215
-9.27214
-9.27213
-9.27213
-9.27212
-9.27211
-9.27211
-9.2721
-9.2721
-9.3699
-9.3699
-9.3699
-9.36991
-9.36991
-9.36992
-9.36992
-9.36993
-9.36994
-9.36995
-9.36995
-9.36996
-9.36997
-9.36997
-9.36997
-9.36997
-9.36997
-9.36996
-9.36996
-9.36995
-9.36995
-9.36994
-9.36993
-9.36992
-9.36992
-9.36991
-9.3699
-9.3699
-9.3699
-9.3699
-9.46769
-9.46769
-9.4677
-9.4677
-9.4677
-9.46771
-9.46771
-9.46772
-9.46773
-9.46773
-9.46774
-9.46774
-9.46775
-9.46775
-9.46775
-9.46775
-9.46775
-9.46775
-9.46774
-9.46774
-9.46773
-9.46773
-9.46772
-9.46771
-9.46771
-9.4677
-9.4677
-9.4677
-9.46769
-9.46769
-9.56549
-9.56549
-9.56549
-9.5655
-9.5655
-9.5655
-9.56551
-9.56551
-9.56552
-9.56552
-9.56553
-9.56553
-9.56553
-9.56554
-9.56554
-9.56554
-9.56553
-9.56553
-9.56553
-9.56553
-9.56552
-9.56552
-9.56551
-9.56551
-9.5655
-9.5655
-9.5655
-9.56549
-9.56549
-9.56549
-9.66329
-9.66329
-9.66329
-9.6633
-9.6633
-9.6633
-9.6633
-9.66331
-9.66331
-9.66331
-9.66332
-9.66332
-9.66332
-9.66332
-9.66332
-9.66332
-9.66332
-9.66332
-9.66332
-9.66331
-9.66331
-9.66331
-9.66331
-9.6633
-9.6633
-9.6633
-9.6633
-9.66329
-9.66329
-9.66329
-9.7611
-9.7611
-9.7611
-9.7611
-9.7611
-9.7611
-9.7611
-9.7611
-9.7611
-9.7611
-9.7611
-9.76111
-9.76111
-9.76111
-9.76111
-9.76111
-9.76111
-9.76111
-9.76111
-9.7611
-9.7611
-9.7611
-9.7611
-9.7611
-9.7611
-9.7611
-9.7611
-9.7611
-9.7611
-9.7611
4851.18
4851.18
4851.18
4851.18
4851.18
4851.18
4851.18
4851.18
4851.18
4851.18
4851.18
4851.18
4851.18
4851.18
4851.18
4851.18
4851.18
4851.18
4851.18
4851.18
4851.18
4851.18
4851.18
4851.18
4851.18
4851.18
4851.18
4851.18
4851.18
4851.18
4753.08
4753.08
4753.08
4753.08
4753.08
4753.08
4753.08
4753.08
4753.08
4753.08
4753.08
4753.08
4753.08
4753.08
4753.08
4753.08
4753.08
4753.08
4753.08
4753.08
4753.08
4753.08
4753.08
4753.08
4753.08
4753.08
4753.08
4753.08
4753.08
4753.08
4654.98
4654.98
4654.98
4654.98
4654.98
4654.98
4654.98
4654.98
4654.98
4654.98
4654.98
4654.98
4654.98
4654.98
4654.98
4654.98
4654.98
4654.98
4654.98
4654.98
4654.98
4654.98
4654.98
4654.98
4654.98
4654.98
4654.98
4654.98
4654.98
4654.98
4556.88
4556.88
4556.88
4556.88
4556.88
4556.88
4556.88
4556.88
4556.88
4556.88
4556.88
4556.88
4556.88
4556.88
4556.88
4556.88
4556.88
4556.88
4556.88
4556.88
4556.88
4556.88
4556.88
4556.88
4556.88
4556.88
4556.88
4556.88
4556.88
4556.88
4458.78
4458.78
4458.78
4458.78
4458.78
4458.78
4458.78
4458.78
4458.78
4458.78
4458.78
4458.78
4458.78
4458.78
4458.78
4458.78
4458.78
4458.78
4458.78
4458.78
4458.78
4458.78
4458.78
4458.78
4458.78
4458.78
4458.78
4458.78
4458.78
4458.78
4360.68
4360.68
4360.68
4360.68
4360.68
4360.68
4360.68
4360.68
4360.68
4360.68
4360.68
4360.68
4360.68
4360.68
4360.68
4360.68
4360.68
4360.68
4360.68
4360.68
4360.68
4360.68
4360.68
4360.68
4360.68
4360.68
4360.68
4360.68
4360.68
4360.68
4262.58
4262.58
4262.58
4262.58
4262.58
4262.58
4262.58
4262.58
4262.58
4262.58
4262.58
4262.58
4262.58
4262.58
4262.58
4262.58
4262.58
4262.58
4262.58
4262.58
4262.58
4262.58
4262.58
4262.58
4262.58
4262.58
4262.58
4262.58
4262.58
4262.58
4164.48
4164.48
4164.48
4164.48
4164.48
4164.48
4164.48
4164.48
4164.48
4164.48
4164.48
4164.48
4164.48
4164.48
4164.48
4164.48
4164.48
4164.48
4164.48
4164.48
4164.48
4164.48
4164.48
4164.48
4164.48
4164.48
4164.48
4164.48
4164.48
4164.48
4066.38
4066.38
4066.38
4066.38
4066.38
4066.38
4066.38
4066.38
4066.38
4066.38
4066.38
4066.38
4066.38
4066.38
4066.38
4066.38
4066.38
4066.38
4066.38
4066.38
4066.38
4066.38
4066.38
4066.38
4066.38
4066.38
4066.38
4066.38
4066.38
4066.38
3968.28
3968.28
3968.28
3968.28
3968.28
3968.28
3968.28
3968.28
3968.28
3968.28
3968.28
3968.28
3968.28
3968.28
3968.28
3968.28
3968.28
3968.28
3968.28
3968.28
3968.28
3968.28
3968.28
3968.28
3968.28
3968.28
3968.28
3968.28
3968.28
3968.28
3870.18
3870.18
3870.18
3870.18
3870.18
3870.18
3870.18
3870.18
3870.18
3870.18
3870.18
3870.18
3870.18
3870.18
3870.18
3870.18
3870.18
3870.18
3870.18
3870.18
3870.18
3870.18
3870.18
3870.18
3870.18
3870.18
3870.18
3870.18
3870.18
3870.18
3772.08
3772.08
3772.08
3772.08
3772.08
3772.08
3772.08
3772.08
3772.08
3772.08
3772.08
3772.08
3772.08
3772.08
3772.08
3772.08
3772.08
3772.08
3772.08
3772.08
3772.08
3772.08
3772.08
3772.08
3772.08
3772.08
3772.08
3772.08
3772.08
3772.08
3673.98
3673.98
3673.98
3673.98
3673.98
3673.98
3673.98
3673.98
3673.98
3673.98
3673.98
3673.98
3673.98
3673.98
3673.98
3673.98
3673.98
3673.98
3673.98
3673.98
3673.98
3673.98
3673.98
3673.98
3673.98
3673.98
3673.98
3673.98
3673.98
3673.98
3575.88
3575.88
3575.88
3575.88
3575.88
3575.88
3575.88
3575.88
3575.88
3575.88
3575.88
3575.88
3575.88
3575.88
3575.88
3575.88
3575.88
3575.88
3575.88
3575.88
3575.88
3575.88
3575.88
3575.88
3575.88
3575.88
3575.88
3575.88
3575.88
3575.88
3477.78
3477.78
3477.78
3477.78
3477.78
3477.78
3477.78
3477.78
3477.78
3477.78
3477.78
3477.78
3477.78
3477.78
3477.78
3477.78
3477.78
3477.78
3477.78
3477.78
3477.78
3477.78
3477.78
3477.78
3477.78
3477.78
3477.78
3477.78
3477.78
3477.78
3379.68
3379.68
3379.68
3379.68
3379.68
3379.68
3379.68
3379.68
3379.68
3379.68
3379.68
3379.68
3379.68
3379.68
3379.68
3379.68
3379.68
3379.68
3379.68
3379.68
3379.68
3379.68
3379.68
3379.68
3379.68
3379.68
3379.68
3379.68