/*--------------------------------*- C++ -*----------------------------------*\
| =========                 |                                                 |
| \\      /  F ield         | OpenFOAM: The Open Source CFD Toolbox           |
|  \\    /   O peration     | Version:  2312                                  |
|   \\  /    A nd           | Website:  www.openfoam.com                      |
|    \\/     M anipulation  |                                                 |
\*---------------------------------------------------------------------------*/
FoamFile
{
    version     2.0;
    format      ascii;
    arch        "LSB;label=32;scalar=64";
    class       volScalarField;
    location    "0.0940323";
    object      p_rgh;
}
// * * * * * * * * * * * * * * * * * * * * * * * * * * * * * * * * * * * * * //

dimensions      [1 -1 -2 0 0 0 0];

internalField   nonuniform List<scalar> 
90000
(
4900.23
4900.23
4900.23
4900.23
4900.23
4900.23
4900.23
4900.23
4900.23
4900.23
4900.23
4900.23
4900.23
4900.23
4900.23
4900.23
4900.23
4900.23
4900.23
4900.23
4900.23
4900.23
4900.23
4900.23
4900.23
4900.23
4900.23
4900.23
4900.23
4900.23
4900.23
4900.23
4900.23
4900.23
4900.23
4900.23
4900.23
4900.23
4900.23
4900.23
4900.23
4900.23
4900.23
4900.23
4900.23
4900.23
4900.23
4900.23
4900.23
4900.23
4900.23
4900.23
4900.23
4900.23
4900.23
4900.23
4900.23
4900.23
4900.23
4900.23
4900.23
4900.23
4900.23
4900.23
4900.23
4900.23
4900.23
4900.23
4900.23
4900.23
4900.23
4900.23
4900.23
4900.23
4900.23
4900.23
4900.23
4900.23
4900.23
4900.23
4900.23
4900.23
4900.23
4900.23
4900.23
4900.23
4900.23
4900.23
4900.23
4900.23
4900.23
4900.23
4900.23
4900.23
4900.23
4900.23
4900.23
4900.23
4900.23
4900.23
4900.23
4900.23
4900.23
4900.23
4900.23
4900.23
4900.23
4900.23
4900.23
4900.23
4900.23
4900.23
4900.23
4900.23
4900.23
4900.23
4900.23
4900.23
4900.23
4900.23
4900.23
4900.23
4900.23
4900.23
4900.23
4900.23
4900.23
4900.23
4900.23
4900.23
4900.23
4900.23
4900.23
4900.23
4900.23
4900.23
4900.23
4900.23
4900.23
4900.23
4900.23
4900.23
4900.23
4900.23
4900.23
4900.23
4900.23
4900.23
4900.23
4900.23
4900.23
4900.23
4900.23
4900.23
4900.23
4900.23
4900.23
4900.23
4900.23
4900.23
4900.23
4900.23
4900.23
4900.23
4900.23
4900.23
4900.23
4900.23
4900.23
4900.23
4900.23
4900.23
4900.23
4900.23
4900.23
4900.23
4900.23
4900.23
4900.23
4900.23
4900.23
4900.23
4900.23
4900.23
4900.23
4900.23
4900.23
4900.23
4900.23
4900.23
4900.23
4900.23
4900.23
4900.23
4900.23
4900.23
4900.23
4900.23
4900.23
4900.23
4900.23
4900.23
4900.23
4900.23
4900.23
4900.23
4900.23
4900.23
4900.23
4900.23
4900.23
4900.23
4900.23
4900.23
4900.23
4900.23
4900.23
4900.23
4900.23
4900.23
4900.23
4900.23
4900.23
4900.23
4900.23
4900.23
4900.23
4900.23
4900.23
4900.23
4900.23
4900.23
4900.23
4900.23
4900.23
4900.23
4900.23
4900.23
4900.23
4900.23
4900.23
4900.23
4900.23
4900.23
4900.23
4900.23
4900.23
4900.23
4900.23
4900.23
4900.23
4900.23
4900.23
4900.23
4900.23
4900.23
4900.23
4900.23
4900.23
4900.23
4900.23
4900.23
4900.23
4900.23
4900.23
4900.23
4900.23
4900.23
4900.23
4900.23
4900.23
4900.23
4900.23
4900.23
4900.23
4900.23
4900.23
4900.23
4900.23
4900.23
4900.23
4900.23
4900.23
4900.23
4900.23
4900.23
4900.23
4900.23
4900.23
4900.23
4900.23
4900.23
4900.23
4900.23
4900.23
4900.23
4900.23
4900.23
4900.23
4900.23
4900.23
4900.23
4900.23
4900.23
4900.23
4900.23
4900.23
4900.23
4900.23
4900.23
4900.23
4900.23
4900.23
4900.23
4900.23
4900.23
4900.23
4900.23
4900.23
4900.23
4900.23
4900.23
4900.23
4900.23
4900.23
4900.23
4900.23
4900.23
4900.23
4900.23
4900.23
4900.23
4900.23
4900.23
4900.23
4900.23
4900.23
4900.23
4900.23
4900.23
4900.23
4900.23
4900.23
4900.23
4900.23
4900.23
4900.23
4900.23
4900.23
4900.23
4900.23
4900.23
4900.23
4900.23
4900.23
4900.23
4900.23
4900.23
4900.23
4900.23
4900.23
4900.23
4900.23
4900.23
4900.23
4900.23
4900.23
4900.23
4900.23
4900.23
4900.23
4900.23
4900.23
4900.23
4900.23
4900.23
4900.23
4900.23
4900.23
4900.23
4900.23
4900.23
4900.23
4900.23
4900.23
4900.23
4900.23
4900.23
4900.23
4900.23
4900.23
4900.23
4900.23
4900.23
4900.23
4900.23
4900.23
4900.23
4900.23
4900.23
4900.23
4900.23
4900.23
4900.23
4900.23
4900.23
4900.23
4900.23
4900.23
4900.23
4900.23
4900.23
4900.23
4900.23
4900.23
4900.23
4900.23
4900.23
4900.23
4900.23
4900.23
4900.23
4900.23
4900.23
4900.23
4900.23
4900.23
4900.23
4900.23
4900.23
4900.23
4900.23
4900.23
4900.23
4900.23
4900.23
4900.23
4900.23
4900.23
4900.23
4900.23
4900.23
4900.23
4900.23
4900.23
4900.23
4900.23
4900.23
4900.23
4900.23
4900.23
4900.23
4900.23
4900.23
4900.23
4900.23
4900.23
4900.23
4900.23
4900.23
4900.23
4900.23
4900.23
4900.23
4900.23
4900.23
4900.23
4900.23
4900.23
4900.23
4900.23
4900.23
4900.23
4900.23
4900.23
4900.23
4900.23
4900.23
4900.23
4900.23
4900.23
4900.23
4900.23
4900.23
4900.23
4900.23
4900.23
4900.23
4900.23
4900.23
4900.23
4900.23
4900.23
4900.23
4900.23
4900.23
4900.23
4900.23
4900.23
4900.23
4900.23
4900.23
4900.23
4900.23
4900.23
4900.23
4900.23
4900.23
4900.23
4900.23
4900.23
4900.23
4900.23
4900.23
4900.23
4900.23
4900.23
4900.23
4900.23
4900.23
4900.23
4900.23
4900.23
4900.23
4900.23
4900.23
4900.23
4900.23
4900.23
4900.23
4900.23
4900.23
4900.23
4900.23
4900.23
4900.23
4900.23
4900.23
4900.23
4900.23
4900.23
4900.23
4900.23
4900.23
4900.23
4900.23
4900.23
4900.23
4900.23
4900.23
4900.23
4900.23
4900.23
4900.23
4900.23
4900.23
4900.23
4900.23
4900.23
4900.23
4900.23
4900.23
4900.23
4900.23
4900.23
4900.23
4900.23
4900.23
4900.23
4900.23
4900.23
4900.23
4900.23
4900.23
4900.23
4900.23
4900.23
4900.23
4900.23
4900.23
4900.23
4900.23
4900.23
4900.23
4900.23
4900.23
4900.23
4900.23
4900.23
4900.23
4900.23
4900.23
4900.23
4900.23
4900.23
4900.23
4900.23
4900.23
4900.23
4900.23
4900.23
4900.23
4900.23
4900.23
4900.23
4900.23
4900.23
4900.23
4900.23
4900.23
4900.23
4900.23
4900.23
4900.23
4900.23
4900.23
4900.23
4900.23
4900.23
4900.23
4900.23
4900.23
4900.23
4900.23
4900.23
4900.23
4900.23
4900.23
4900.23
4900.23
4900.23
4900.23
4900.23
4900.23
4900.23
4900.23
4900.23
4900.23
4900.23
4900.23
4900.23
4900.23
4900.23
4900.23
4900.23
4900.23
4900.23
4900.23
4900.23
4900.23
4900.23
4900.23
4900.23
4900.23
4900.23
4900.23
4900.23
4900.23
4900.23
4900.23
4900.23
4900.23
4900.23
4900.23
4900.23
4900.23
4900.23
4900.23
4900.23
4900.23
4900.23
4900.23
4900.23
4900.23
4900.23
4900.23
4900.23
4900.23
4900.23
4900.23
4900.23
4900.23
4900.23
4900.23
4900.23
4900.23
4900.23
4900.23
4900.23
4900.23
4900.23
4900.23
4900.23
4900.23
4900.23
4900.23
4900.23
4900.23
4900.23
4900.23
4900.23
4900.23
4900.23
4900.23
4900.23
4900.23
4900.23
4900.23
4900.23
4900.23
4900.23
4900.23
4900.23
4900.23
4900.23
4900.23
4900.23
4900.23
4900.23
4900.23
4900.23
4900.23
4900.23
4900.23
4900.23
4900.23
4900.23
4900.23
4900.23
4900.23
4900.23
4900.23
4900.23
4900.23
4900.23
4900.23
4900.23
4900.23
4900.23
4900.23
4900.23
4900.23
4900.23
4900.23
4900.23
4900.23
4900.23
4900.23
4900.23
4900.23
4900.23
4900.23
4900.23
4900.23
4900.23
4900.23
4900.23
4900.23
4900.23
4900.23
4900.23
4900.23
4900.23
4900.23
4900.23
4900.23
4900.23
4900.23
4900.23
4900.23
4900.23
4900.23
4900.23
4900.23
4900.23
4900.23
4900.23
4900.23
4900.23
4900.23
4900.23
4900.23
4900.23
4900.23
4900.23
4900.23
4900.23
4900.23
4900.23
4900.23
4900.23
4900.23
4900.24
4900.24
4900.24
4900.24
4900.24
4900.24
4900.23
4900.23
4900.23
4900.23
4900.23
4900.23
4900.23
4900.23
4900.23
4900.23
4900.23
4900.23
4900.23
4900.23
4900.23
4900.23
4900.23
4900.23
4900.23
4900.23
4900.23
4900.23
4900.24
4900.24
4900.24
4900.24
4900.24
4900.24
4900.24
4900.24
4900.24
4900.24
4900.23
4900.23
4900.23
4900.23
4900.23
4900.23
4900.23
4900.23
4900.23
4900.23
4900.23
4900.23
4900.23
4900.23
4900.23
4900.23
4900.23
4900.23
4900.23
4900.24
4900.24
4900.24
4900.24
4900.24
4900.24
4900.24
4900.24
4900.24
4900.24
4900.24
4900.24
4900.23
4900.23
4900.23
4900.23
4900.23
4900.23
4900.23
4900.23
4900.23
4900.23
4900.23
4900.23
4900.23
4900.23
4900.23
4900.23
4900.23
4900.24
4900.24
4900.24
4900.24
4900.24
4900.24
4900.24
4900.24
4900.24
4900.24
4900.24
4900.24
4900.24
4900.24
4900.23
4900.23
4900.23
4900.23
4900.23
4900.23
4900.23
4900.23
4900.23
4900.23
4900.23
4900.23
4900.23
4900.23
4900.23
4900.24
4900.24
4900.24
4900.24
4900.24
4900.24
4900.24
4900.24
4900.24
4900.24
4900.24
4900.24
4900.24
4900.24
4900.24
4900.24
4900.23
4900.23
4900.23
4900.23
4900.23
4900.23
4900.23
4900.23
4900.23
4900.23
4900.23
4900.23
4900.23
4900.23
4900.24
4900.24
4900.24
4900.24
4900.24
4900.24
4900.24
4900.24
4900.24
4900.24
4900.24
4900.24
4900.24
4900.24
4900.24
4900.24
4900.23
4900.23
4900.23
4900.23
4900.23
4900.23
4900.23
4900.23
4900.23
4900.23
4900.23
4900.23
4900.23
4900.23
4900.24
4900.24
4900.24
4900.24
4900.24
4900.24
4900.24
4900.24
4900.24
4900.24
4900.24
4900.24
4900.24
4900.24
4900.24
4900.24
4900.23
4900.23
4900.23
4900.23
4900.23
4900.23
4900.23
4900.23
4900.23
4900.23
4900.23
4900.23
4900.23
4900.24
4900.24
4900.24
4900.24
4900.24
4900.24
4900.24
4900.24
4900.24
4900.24
4900.24
4900.24
4900.24
4900.24
4900.24
4900.24
4900.24
4900.23
4900.23
4900.23
4900.23
4900.23
4900.23
4900.23
4900.23
4900.23
4900.23
4900.23
4900.23
4900.23
4900.24
4900.24
4900.24
4900.24
4900.24
4900.24
4900.24
4900.24
4900.24
4900.24
4900.24
4900.24
4900.24
4900.24
4900.24
4900.24
4900.24
4900.24
4900.23
4900.23
4900.23
4900.23
4900.23
4900.23
4900.23
4900.23
4900.23
4900.23
4900.23
4900.23
4900.23
4900.24
4900.24
4900.24
4900.24
4900.24
4900.24
4900.24
4900.24
4900.24
4900.24
4900.24
4900.24
4900.24
4900.24
4900.24
4900.24
4900.24
4900.23
4900.23
4900.23
4900.23
4900.23
4900.23
4900.23
4900.23
4900.23
4900.23
4900.23
4900.23
4900.23
4900.24
4900.24
4900.24
4900.24
4900.24
4900.24
4900.24
4900.24
4900.24
4900.24
4900.24
4900.24
4900.24
4900.24
4900.24
4900.24
4900.24
4900.23
4900.23
4900.23
4900.23
4900.23
4900.23
4900.23
4900.23
4900.23
4900.23
4900.23
4900.23
4900.23
4900.23
4900.24
4900.24
4900.24
4900.24
4900.24
4900.24
4900.24
4900.24
4900.24
4900.24
4900.24
4900.24
4900.24
4900.24
4900.24
4900.23
4900.23
4900.23
4900.23
4900.23
4900.23
4900.23
4900.23
4900.23
4900.23
4900.23
4900.23
4900.23
4900.23
4900.23
4900.24
4900.24
4900.24
4900.24
4900.24
4900.24
4900.24
4900.24
4900.24
4900.24
4900.24
4900.24
4900.24
4900.24
4900.23
4900.23
4900.23
4900.23
4900.23
4900.23
4900.23
4900.23
4900.23
4900.23
4900.23
4900.23
4900.23
4900.23
4900.23
4900.24
4900.24
4900.24
4900.24
4900.24
4900.24
4900.24
4900.24
4900.24
4900.24
4900.24
4900.24
4900.24
4900.24
4900.24
4900.24
4900.23
4900.23
4900.23
4900.23
4900.23
4900.23
4900.23
4900.23
4900.23
4900.23
4900.23
4900.23
4900.23
4900.23
4900.24
4900.24
4900.24
4900.24
4900.24
4900.24
4900.24
4900.24
4900.24
4900.24
4900.24
4900.24
4900.24
4900.24
4900.24
4900.24
4900.23
4900.23
4900.23
4900.23
4900.23
4900.23
4900.23
4900.23
4900.23
4900.23
4900.23
4900.23
4900.23
4900.23
4900.23
4900.23
4900.23
4900.24
4900.24
4900.24
4900.24
4900.24
4900.24
4900.24
4900.24
4900.24
4900.24
4900.23
4900.23
4900.23
4900.23
4900.23
4900.23
4900.23
4900.23
4900.23
4900.23
4900.22
4900.22
4900.22
4900.22
4900.23
4900.23
4900.23
4900.23
4900.23
4900.23
4900.23
4900.23
4900.23
4900.24
4900.24
4900.24
4900.24
4900.23
4900.23
4900.23
4900.23
4900.23
4900.23
4900.23
4900.23
4900.23
4900.22
4900.22
4900.22
4900.22
4900.22
4900.22
4900.22
4900.22
4900.22
4900.22
4900.23
4900.23
4900.23
4900.23
4900.23
4900.23
4900.24
4900.24
4900.24
4900.24
4900.24
4900.24
4900.24
4900.23
4900.23
4900.23
4900.23
4900.23
4900.23
4900.23
4900.22
4900.22
4900.22
4900.22
4900.22
4900.22
4900.22
4900.22
4900.22
4900.22
4900.22
4900.22
4900.23
4900.23
4900.23
4900.23
4900.23
4900.23
4900.23
4900.23
4900.23
4900.23
4900.23
4900.23
4900.23
4900.23
4900.23
4900.22
4900.22
4900.22
4900.22
4900.22
4900.21
4900.22
4900.21
4900.21
4900.21
4900.21
4900.21
4900.21
4900.22
4900.22
4900.22
4900.22
4900.23
4900.23
4900.23
4900.23
4900.23
4900.23
4900.23
4900.23
4900.23
4900.23
4900.22
4900.22
4900.22
4900.22
4900.21
4900.21
4900.21
4900.21
4900.21
4900.2
4900.2
4900.2
4900.21
4900.21
4900.21
4900.21
4900.21
4900.21
4900.22
4900.22
4900.23
4900.23
4900.23
4900.23
4900.23
4900.23
4900.23
4900.23
4900.23
4900.23
4900.22
4900.22
4900.22
4900.22
4900.21
4900.21
4900.21
4900.21
4900.21
4900.2
4900.19
4900.2
4900.2
4900.19
4900.2
4900.2
4900.2
4900.21
4900.21
4900.21
4900.21
4900.22
4900.22
4900.22
4900.22
4900.22
4900.22
4900.22
4900.21
4900.22
4900.21
4900.21
4900.21
4900.2
4900.2
4900.2
4900.2
4900.19
4900.19
4900.2
4900.18
4900.2
4900.19
4900.21
4900.19
4900.21
4900.2
4900.21
4900.2
4900.21
4900.21
4900.21
4900.22
4900.22
4900.22
4900.22
4900.22
4900.22
4900.21
4900.21
4900.21
4900.21
4900.21
4900.2
4900.2
4900.2
4900.2
4900.2
4900.2
4900.2
4899.75
4900.22
4900.2
4900.37
4900.44
4900.2
4900.2
4900.23
4900.21
4900.24
4900.32
4900.36
4900.36
4900.3
4900.36
4900.28
4900.37
4900.21
4900.22
4900.33
4900.36
4900.36
4900.19
4900.21
4900.25
4900.18
4900.03
4899.95
4899.84
4899.91
1.43797
1.14796
1.1567
1.0135
0.947666
1.15888
1.15664
1.11545
1.12702
1.08158
0.991232
0.931893
0.920329
0.96953
0.910759
0.983558
0.904775
1.07205
1.07693
0.974057
0.952974
0.971358
1.1567
1.1582
1.10951
1.16262
1.30913
1.35351
1.4365
1.36045
0.0633872
0.0639776
0.0646731
0.0662213
0.0680443
0.0699853
0.0724398
0.075254
0.0782277
0.0813329
0.0842982
0.0869322
0.089068
0.0905396
0.0913573
0.091324
0.0905272
0.0888289
0.0866754
0.0842218
0.0814776
0.0784332
0.0753575
0.0726132
0.0702999
0.0681395
0.066276
0.0648671
0.063865
0.0629967
0.0619206
0.0624335
0.0633604
0.0646516
0.0663845
0.0682375
0.0704598
0.0730697
0.0758761
0.0786914
0.0814188
0.0838273
0.0858981
0.087287
0.0880238
0.0880012
0.0872287
0.0857638
0.0837524
0.0814107
0.0787423
0.0760368
0.073256
0.0707156
0.0684102
0.0664558
0.0647682
0.0636526
0.0629298
0.0614359
0.0597698
0.0601526
0.0608699
0.0620811
0.0634707
0.0651255
0.0671795
0.0694379
0.0718873
0.0743116
0.0765975
0.0787293
0.0804876
0.0817494
0.082421
0.0823257
0.0816907
0.080447
0.0786601
0.0766351
0.0743278
0.0719327
0.069567
0.0674127
0.0653699
0.063591
0.0621563
0.0611248
0.060687
0.0593707
0.056583
0.0567672
0.057421
0.0583466
0.0594818
0.0608929
0.0625662
0.0643606
0.0662432
0.0681611
0.0699974
0.0717009
0.0730925
0.0740785
0.0746263
0.0746098
0.0740946
0.0730972
0.071696
0.0700174
0.0681847
0.0663025
0.0644482
0.0626932
0.0610881
0.0596776
0.0585193
0.0576303
0.0573741
0.0565485
0.0525951
0.0527623
0.0532844
0.053928
0.0547478
0.055777
0.0569472
0.0582016
0.0595095
0.0608304
0.0621056
0.0632798
0.0642694
0.0649818
0.0653398
0.0653254
0.0649612
0.0642499
0.0632744
0.0621187
0.060879
0.0595955
0.0583178
0.0570776
0.0559243
0.0548852
0.0539929
0.0532479
0.0530318
0.0526904
0.047947
0.0482338
0.0485002
0.0488538
0.0493388
0.0499484
0.0506099
0.0512947
0.0520062
0.0527213
0.0534117
0.0540345
0.0545613
0.0549543
0.0551395
0.0551155
0.054919
0.0545541
0.0540483
0.0534531
0.0528246
0.0521621
0.0514669
0.0507639
0.0501044
0.0495312
0.0490572
0.0486201
0.0484251
0.0482563
0.0434037
0.0434697
0.043489
0.0435694
0.0437153
0.0439065
0.0440957
0.0442612
0.0444131
0.0445492
0.0446672
0.0447559
0.0448218
0.0448784
0.0449003
0.0448839
0.0448546
0.0448164
0.044757
0.044681
0.0446083
0.0445264
0.0444057
0.044239
0.0440494
0.0438763
0.0437453
0.0436075
0.0435249
0.0434474
0.0383906
0.038304
0.0381954
0.0380718
0.0379181
0.0377234
0.0374736
0.0371631
0.0368051
0.036415
0.0360148
0.0356285
0.0352935
0.0350554
0.0349331
0.0349316
0.0350571
0.0353002
0.0356263
0.0360029
0.0364134
0.0368347
0.0372292
0.0375654
0.037832
0.0380414
0.0382151
0.038336
0.0384138
0.0384351
0.033216
0.0331127
0.032929
0.0326396
0.0322331
0.0317119
0.0310854
0.0303661
0.0295774
0.0287517
0.0279323
0.0271711
0.0265288
0.0260696
0.0258378
0.02585
0.0261034
0.0265739
0.0272125
0.0279625
0.0287758
0.0296106
0.0304221
0.0311672
0.031814
0.0323503
0.0327811
0.0331031
0.0333157
0.0334131
0.0282534
0.0281497
0.0278814
0.0274423
0.0268325
0.026062
0.0251524
0.0241266
0.0230207
0.0218815
0.020769
0.0197523
0.0189062
0.0183036
0.0179993
0.0180187
0.0183579
0.0189854
0.0198444
0.0208643
0.0219753
0.0231162
0.0242311
0.0252697
0.0261895
0.0269663
0.0275876
0.0280503
0.0283525
0.028494
0.0235699
0.0234231
0.0230635
0.0225045
0.021752
0.0208194
0.0197296
0.0185147
0.0172189
0.0158986
0.0146228
0.0134689
0.012517
0.0118415
0.0114992
0.0115189
0.0118981
0.0126052
0.013582
0.0147529
0.0160381
0.0173635
0.0186641
0.0198834
0.0209744
0.0219032
0.0226504
0.0232072
0.0235689
0.0237389
0.0191321
0.0189226
0.0184981
0.0178666
0.0170364
0.0160228
0.0148508
0.0135564
0.0121877
0.010805
0.00947965
0.00828993
0.00731457
0.00662437
0.00627303
0.00628864
0.0066705
0.00738959
0.00839129
0.00960298
0.0109446
0.0123387
0.0137154
0.0150145
0.0161868
0.0171949
0.0180145
0.018631
0.0190362
0.0192307
0.0149953
0.0147497
0.0143006
0.0136458
0.0127961
0.0117696
0.0105939
0.00930642
0.00795592
0.00660204
0.00531367
0.0041647
0.00322773
0.00256661
0.00222902
0.00224
0.00259941
0.00328216
0.00424019
0.00540875
0.00671434
0.00808274
0.00944487
0.0107406
0.0119206
0.0129466
0.0137912
0.0144355
0.0148669
0.0150816
0.0112851
0.0110385
0.0105976
0.0099582
0.00913387
0.00814578
0.00702282
0.00580271
0.00453274
0.00326927
0.00207553
0.00101771
0.000159486
-0.000444175
-0.000752888
-0.000745592
-0.000422339
0.000195991
0.00106901
0.00214166
0.00334994
0.00462697
0.00590874
0.00713846
0.0082688
0.00926205
0.0100891
0.0107281
0.0111633
0.0113867
0.00808575
0.00785747
0.00744473
0.00684642
0.00607816
0.00516237
0.0041283
0.0030128
0.0018605
0.000722769
-0.000344543
-0.00128449
-0.00204337
-0.00257552
-0.00284778
-0.00284294
-0.00256109
-0.00201916
-0.00125013
-0.000299547
0.000778583
0.00192654
0.00308779
0.00421109
0.00525253
0.00617583
0.00695165
0.00755682
0.00797374
0.00819176
0.00539835
0.00519441
0.00482068
0.00427833
0.00358352
0.00275881
0.00183291
0.000840856
-0.000176465
-0.00117362
-0.00210274
-0.00291621
-0.00356998
-0.00402705
-0.00426076
-0.0042574
-0.00401699
-0.00355309
-0.00289222
-0.0020714
-0.0011351
-0.000131593
0.00089096
0.00188773
0.002819
0.0036507
0.00435432
0.00490659
0.00528952
0.00549113
0.00317285
0.00299556
0.00266517
0.00218465
0.00157022
0.000843889
3.29912e-05
-0.000830235
-0.00170943
-0.00256545
-0.00335812
-0.00404841
-0.00460081
-0.00498587
-0.00518252
-0.00518
-0.00497837
-0.00458845
-0.00403131
-0.00333651
-0.00253985
-0.00168067
-0.000799071
6.64865e-05
0.000880723
0.00161234
0.00223438
0.00272452
0.00306526
0.00324442
0.00134798
0.00119668
0.000908778
0.000490048
-4.37373e-05
-0.000671898
-0.00136942
-0.00210759
-0.00285486
-0.0035781
-0.00424404
-0.00482108
-0.00528098
-0.00560063
-0.00576365
-0.00576179
-0.00559519
-0.00527238
-0.00480983
-0.0042307
-0.00356323
-0.00283899
-0.00209094
-0.0013517
-0.000652103
-2.03241e-05
0.000518889
0.000944794
0.00124105
0.00139597
-0.000137135
-0.000266343
-0.000514418
-0.000873938
-0.00133049
-0.00186548
-0.00245679
-0.00307941
-0.00370641
-0.00431005
-0.00486304
-0.00534001
-0.00571871
-0.00598126
-0.00611514
-0.0061141
-0.00597833
-0.00571434
-0.00533477
-0.00485747
-0.00430453
-0.00370112
-0.00307417
-0.00245106
-0.00185833
-0.00132079
-0.000860585
-0.000496475
-0.000243261
-0.000111622
-0.00133918
-0.00144967
-0.00166028
-0.00196441
-0.00234956
-0.00279951
-0.00329504
-0.00381467
-0.00433563
-0.00483486
-0.0052902
-0.0056814
-0.00599108
-0.00620548
-0.00631507
-0.0063151
-0.00620565
-0.00599159
-0.00568249
-0.00529207
-0.00483761
-0.00433918
-0.00381869
-0.00329887
-0.00280227
-0.00235032
-0.00196243
-0.00165514
-0.00144147
-0.00133087
-0.00230427
-0.00239731
-0.00257332
-0.00282737
-0.00314878
-0.00352353
-0.00393508
-0.00436516
-0.00479471
-0.0052048
-0.00557755
-0.00589691
-0.00614928
-0.00632401
-0.00641376
-0.00641486
-0.00632725
-0.00615452
-0.00590395
-0.00558617
-0.00521475
-0.00480569
-0.00437676
-0.0039467
-0.00353445
-0.00315826
-0.00283478
-0.00257823
-0.00239981
-0.00230766
-0.0030683
-0.00314525
-0.00329093
-0.00350142
-0.00376749
-0.00407713
-0.00441632
-0.00476977
-0.00512174
-0.00545687
-0.00576082
-0.00602083
-0.00622618
-0.00636854
-0.00644215
-0.00644409
-0.00637421
-0.0062352
-0.00603269
-0.00577496
-0.00547275
-0.00513881
-0.00478755
-0.00443437
-0.00409499
-0.00378471
-0.00351751
-0.00330535
-0.0031577
-0.00308148
-0.00366272
-0.00372635
-0.00384656
-0.00401994
-0.00423863
-0.00449257
-0.00477015
-0.00505882
-0.0053458
-0.00561868
-0.00586592
-0.00607735
-0.00624439
-0.00636042
-0.00642086
-0.00642334
-0.00636768
-0.00625599
-0.00609267
-0.00588423
-0.0056392
-0.00536784
-0.00508182
-0.00479374
-0.00451651
-0.00426267
-0.00404374
-0.00386965
-0.00374832
-0.00368556
-0.00411624
-0.00416947
-0.00426832
-0.00441017
-0.00458859
-0.00479541
-0.00502123
-0.00525593
-0.00548918
-0.00571096
-0.00591195
-0.00608389
-0.00621988
-0.00631457
-0.00636429
-0.00636709
-0.00632282
-0.00623315
-0.00610155
-0.00593325
-0.00573509
-0.00551538
-0.00528361
-0.00504996
-0.00482486
-0.00461846
-0.00444013
-0.00429804
-0.00419876
-0.00414711
-0.00445218
-0.00449681
-0.00457744
-0.00469265
-0.00483734
-0.00500502
-0.00518816
-0.00537862
-0.00556806
-0.00574834
-0.00591185
-0.00605186
-0.00616277
-0.00624023
-0.00628127
-0.00628426
-0.00624906
-0.00617701
-0.00607094
-0.00593511
-0.0057751
-0.00559765
-0.0054104
-0.00522152
-0.00503938
-0.00487212
-0.00472734
-0.0046117
-0.00453062
-0.00448803
-0.00468777
-0.00472466
-0.00478994
-0.00488315
-0.00500032
-0.00513624
-0.00528487
-0.00543961
-0.00559371
-0.00574049
-0.00587374
-0.00598798
-0.00607865
-0.00614219
-0.00617613
-0.00617913
-0.00615106
-0.00609307
-0.00600749
-0.00589785
-0.00576869
-0.00562546
-0.00547427
-0.00532169
-0.00517441
-0.00503901
-0.00492162
-0.00482763
-0.00476145
-0.00472627
-0.00483673
-0.00486681
-0.00491967
-0.00499532
-0.00509058
-0.00520122
-0.00532231
-0.00544847
-0.00557418
-0.005694
-0.00580285
-0.00589629
-0.00597058
-0.00602279
-0.00605087
-0.00605372
-0.00603125
-0.00598446
-0.00591531
-0.00582668
-0.00572227
-0.00560647
-0.0054842
-0.00536074
-0.00524151
-0.00513182
-0.00503661
-0.00496021
-0.00490619
-0.0048771
-0.00491189
-0.00493649
-0.00497971
-0.00504165
-0.00511968
-0.00521029
-0.00530945
-0.00541274
-0.00551565
-0.00561374
-0.00570292
-0.00577955
-0.00584058
-0.00588358
-0.00590684
-0.00590947
-0.00589141
-0.00585353
-0.00579746
-0.00572558
-0.00564088
-0.00554694
-0.00544772
-0.00534753
-0.00525074
-0.00516166
-0.00508427
-0.00502205
-0.00497787
-0.00495381
-0.00492537
-0.00494588
-0.00498168
-0.00503287
-0.00509721
-0.00517182
-0.00525336
-0.00533822
-0.00542274
-0.00550332
-0.00557665
-0.00563976
-0.0056901
-0.00572566
-0.00574501
-0.0057474
-0.00573284
-0.00570203
-0.00565635
-0.00559776
-0.00552873
-0.00545217
-0.00537133
-0.00528968
-0.00521078
-0.00513813
-0.00507493
-0.00502403
-0.00498775
-0.00496778
-0.00488735
-0.00490481
-0.00493471
-0.00497721
-0.00503046
-0.00509206
-0.0051593
-0.00522925
-0.00529891
-0.00536539
-0.00542598
-0.00547822
-0.00551997
-0.00554954
-0.00556573
-0.00556793
-0.00555615
-0.005531
-0.00549362
-0.00544564
-0.00538911
-0.00532642
-0.00526021
-0.00519331
-0.00512863
-0.00506901
-0.00501707
-0.00497515
-0.00494517
-0.00492849
-0.00480557
-0.00482054
-0.00484552
-0.0048808
-0.00492488
-0.00497583
-0.00503143
-0.0050893
-0.005147
-0.00520215
-0.00525251
-0.005296
-0.00533081
-0.00535554
-0.00536918
-0.00537124
-0.00536173
-0.00534117
-0.00531049
-0.00527104
-0.00522452
-0.00517288
-0.00511832
-0.00506315
-0.00500975
-0.00496046
-0.00491747
-0.00488269
-0.00485772
-0.00484367
-0.00468585
-0.00469858
-0.00471936
-0.00474861
-0.00478514
-0.00482741
-0.00487361
-0.00492176
-0.00496988
-0.00501595
-0.00505805
-0.00509444
-0.0051236
-0.00514436
-0.00515592
-0.00515787
-0.00515023
-0.0051334
-0.00510814
-0.00507555
-0.00503703
-0.00499421
-0.00494889
-0.00490303
-0.0048586
-0.00481755
-0.00478169
-0.00475262
-0.00473166
-0.00471974
-0.00453294
-0.00454363
-0.00456089
-0.00458521
-0.00461568
-0.00465101
-0.00468971
-0.00473014
-0.00477058
-0.00480933
-0.00484473
-0.00487529
-0.00489978
-0.00491725
-0.00492705
-0.00492887
-0.00492272
-0.00490889
-0.00488798
-0.00486088
-0.00482874
-0.00479292
-0.00475496
-0.0047165
-0.00467921
-0.00464473
-0.00461459
-0.0045901
-0.00457239
-0.00456221
-0.00435122
-0.00436013
-0.00437458
-0.00439504
-0.00442075
-0.00445065
-0.00448345
-0.00451774
-0.00455202
-0.0045848
-0.00461468
-0.00464041
-0.00466099
-0.00467568
-0.00468396
-0.0046856
-0.00468057
-0.0046691
-0.00465164
-0.00462892
-0.00460186
-0.00457163
-0.00453954
-0.00450697
-0.00447538
-0.00444615
-0.00442058
-0.00439978
-0.00438471
-0.00437601
-0.00414488
-0.00415237
-0.00416466
-0.00418216
-0.00420421
-0.00422987
-0.004258
-0.00428734
-0.00431659
-0.00434445
-0.00436973
-0.00439143
-0.00440875
-0.00442109
-0.00442806
-0.00442946
-0.00442526
-0.00441561
-0.00440088
-0.00438163
-0.00435865
-0.0043329
-0.0043055
-0.00427766
-0.00425062
-0.00422559
-0.00420368
-0.00418587
-0.00417297
-0.00416554
-0.00391783
-0.00392423
-0.00393489
-0.00395011
-0.00396928
-0.00399154
-0.00401586
-0.00404111
-0.00406616
-0.00408991
-0.00411137
-0.00412974
-0.00414436
-0.00415476
-0.00416062
-0.00416176
-0.00415816
-0.00414991
-0.00413731
-0.00412082
-0.00410109
-0.00407894
-0.00405533
-0.00403131
-0.00400796
-0.00398634
-0.00396742
-0.00395206
-0.00394097
-0.00393462
-0.00367336
-0.00367893
-0.0036883
-0.00370167
-0.00371845
-0.00373783
-0.0037589
-0.00378068
-0.00380219
-0.0038225
-0.00384082
-0.00385647
-0.00386892
-0.00387776
-0.00388272
-0.00388362
-0.00388043
-0.00387324
-0.00386228
-0.00384796
-0.00383082
-0.00381158
-0.00379107
-0.0037702
-0.00374991
-0.00373113
-0.00371472
-0.00370142
-0.00369186
-0.00368642
-0.00341407
-0.00341895
-0.0034272
-0.00343893
-0.00345356
-0.00347039
-0.00348862
-0.00350739
-0.0035259
-0.00354338
-0.00355917
-0.00357267
-0.00358342
-0.00359105
-0.00359528
-0.00359596
-0.00359305
-0.00358664
-0.00357694
-0.00356431
-0.00354925
-0.00353239
-0.00351445
-0.00349622
-0.00347854
-0.0034622
-0.00344795
-0.00343643
-0.00342816
-0.00342348
-0.003142
-0.00314621
-0.0031534
-0.00316356
-0.0031762
-0.0031907
-0.0032064
-0.0032226
-0.00323862
-0.00325381
-0.0032676
-0.00327944
-0.00328889
-0.00329558
-0.00329925
-0.00329974
-0.00329702
-0.00329118
-0.00328245
-0.00327116
-0.00325779
-0.00324289
-0.00322711
-0.00321114
-0.0031957
-0.00318147
-0.00316909
-0.0031591
-0.00315194
-0.0031479
-0.00285898
-0.00286247
-0.00286857
-0.00287721
-0.00288798
-0.0029004
-0.00291391
-0.00292795
-0.00294195
-0.00295534
-0.00296757
-0.00297814
-0.00298659
-0.00299257
-0.0029958
-0.00299614
-0.00299356
-0.00298817
-0.0029802
-0.00297
-0.002958
-0.00294473
-0.00293076
-0.00291671
-0.00290317
-0.00289075
-0.00287998
-0.00287131
-0.00286512
-0.00286163
-0.00256683
-0.00256953
-0.00257454
-0.00258176
-0.00259086
-0.00260148
-0.00261318
-0.00262548
-0.00263788
-0.00264985
-0.00266087
-0.00267044
-0.00267811
-0.00268352
-0.00268641
-0.00268663
-0.00268417
-0.00267915
-0.00267182
-0.00266251
-0.00265165
-0.00263973
-0.00262726
-0.00261479
-0.00260286
-0.00259196
-0.00258254
-0.00257501
-0.00256967
-0.00256672
-0.00226754
-0.0022694
-0.00227342
-0.0022794
-0.00228713
-0.0022963
-0.00230656
-0.00231749
-0.00232862
-0.00233944
-0.00234947
-0.0023582
-0.00236519
-0.00237011
-0.00237269
-0.00237281
-0.00237046
-0.00236578
-0.00235901
-0.00235047
-0.00234058
-0.00232978
-0.00231856
-0.00230742
-0.00229681
-0.00228718
-0.00227893
-0.0022724
-0.00226785
-0.00226544
-0.00196331
-0.00196439
-0.00196757
-0.00197258
-0.00197924
-0.00198728
-0.00199641
-0.00200622
-0.00201628
-0.00202611
-0.00203522
-0.00204315
-0.0020495
-0.00205393
-0.00205621
-0.00205623
-0.00205401
-0.00204966
-0.00204341
-0.00203559
-0.00202658
-0.00201679
-0.00200667
-0.00199668
-0.00198723
-0.00197872
-0.00197151
-0.00196589
-0.00196209
-0.00196023
-0.00165653
-0.00165696
-0.00165951
-0.00166378
-0.0016696
-0.00167674
-0.00168489
-0.00169369
-0.00170273
-0.00171156
-0.00171973
-0.00172682
-0.00173247
-0.00173637
-0.00173834
-0.00173827
-0.00173618
-0.0017322
-0.00172652
-0.00171945
-0.00171134
-0.00170256
-0.00169353
-0.00168465
-0.00167631
-0.00166887
-0.00166265
-0.00165791
-0.00165485
-0.00165354
-0.00134951
-0.00134951
-0.00135161
-0.00135528
-0.00136036
-0.00136662
-0.00137379
-0.00138152
-0.00138944
-0.00139714
-0.00140425
-0.00141038
-0.00141523
-0.00141856
-0.00142018
-0.00142004
-0.00141814
-0.00141461
-0.00140961
-0.00140341
-0.00139632
-0.00138868
-0.00138084
-0.00137317
-0.00136602
-0.0013597
-0.00135449
-0.00135063
-0.00134827
-0.00134747
-0.00104423
-0.00104406
-0.00104579
-0.00104888
-0.00105316
-0.00105843
-0.00106444
-0.0010709
-0.00107748
-0.00108386
-0.0010897
-0.00109472
-0.00109866
-0.00110133
-0.0011026
-0.00110242
-0.00110079
-0.00109783
-0.00109367
-0.00108853
-0.00108266
-0.00107636
-0.00106992
-0.00106364
-0.00105782
-0.00105272
-0.00104859
-0.00104561
-0.00104391
-0.00104353
-0.000742014
-0.000741877
-0.000743239
-0.000745638
-0.00074894
-0.000752988
-0.000757583
-0.000762494
-0.000767474
-0.000772271
-0.000776645
-0.000780379
-0.000783293
-0.000785246
-0.00078615
-0.000785966
-0.00078471
-0.000782452
-0.000779309
-0.000775437
-0.00077103
-0.000766304
-0.000761485
-0.000756806
-0.00075249
-0.000748742
-0.000745745
-0.000743645
-0.000742546
-0.000742461
-0.000443252
-0.000443259
-0.000444165
-0.00044571
-0.000447817
-0.000450384
-0.000453284
-0.000456369
-0.000459483
-0.00046247
-0.000465181
-0.000467487
-0.000469275
-0.000470464
-0.000471001
-0.000470864
-0.000470064
-0.000468646
-0.00046668
-0.000464267
-0.000461525
-0.000458589
-0.000455602
-0.00045271
-0.000450053
-0.000447761
-0.000445949
-0.000444712
-0.000444122
-0.000444195
-0.000147493
-0.000147549
-0.000147865
-0.000148395
-0.000149114
-0.000149987
-0.000150971
-0.000152016
-0.000153068
-0.000154075
-0.000154988
-0.000155761
-0.00015636
-0.000156756
-0.000156932
-0.000156882
-0.000156609
-0.000156127
-0.000155462
-0.000154647
-0.000153723
-0.000152734
-0.000151729
-0.000150758
-0.000149867
-0.000149102
-0.0001485
-0.000148095
-0.000147914
-0.000147983
4900.23
4900.23
4900.23
4900.23
4900.23
4900.23
4900.23
4900.23
4900.23
4900.23
4900.23
4900.23
4900.23