/*--------------------------------*- C++ -*----------------------------------*\
| =========                 |                                                 |
| \\      /  F ield         | OpenFOAM: The Open Source CFD Toolbox           |
|  \\    /   O peration     | Version:  2312                                  |
|   \\  /    A nd           | Website:  www.openfoam.com                      |
|    \\/     M anipulation  |                                                 |
\*---------------------------------------------------------------------------*/
FoamFile
{
    version     2.0;
    format      ascii;
    arch        "LSB;label=32;scalar=64";
    class       volVectorField;
    location    "0.0940323";
    object      U;
}
// * * * * * * * * * * * * * * * * * * * * * * * * * * * * * * * * * * * * * //

dimensions      [0 1 -1 0 0 0 0];

internalField   nonuniform List<vector> 
90000
(
(1.103e-09 5.1576e-09 1.103e-09)
(1.66729e-09 -1.53871e-08 5.83923e-10)
(9.82341e-10 -1.0512e-08 6.13985e-10)
(2.65402e-10 -1.03559e-08 1.81946e-10)
(-6.74114e-10 -1.02394e-08 2.26261e-10)
(-1.38105e-09 -1.02368e-08 1.86452e-10)
(-1.97271e-09 -1.02709e-08 9.17183e-11)
(-2.31353e-09 -1.02626e-08 6.9353e-11)
(-2.40148e-09 -1.03814e-08 1.72115e-11)
(-2.29119e-09 -1.03726e-08 -2.11051e-11)
(-2.00174e-09 -1.0415e-08 -4.24945e-11)
(-1.57816e-09 -1.04357e-08 -4.9266e-11)
(-1.04242e-09 -1.04459e-08 -4.62383e-11)
(-4.39656e-10 -1.04452e-08 -4.20527e-11)
(1.7982e-10 -1.04497e-08 -2.63465e-11)
(7.87675e-10 -1.0456e-08 -2.74889e-12)
(1.35503e-09 -1.04591e-08 3.31238e-11)
(1.83835e-09 -1.04595e-08 8.11104e-11)
(2.20589e-09 -1.04631e-08 1.44395e-10)
(2.43564e-09 -1.04725e-08 2.21154e-10)
(2.47474e-09 -1.0489e-08 3.06131e-10)
(2.30336e-09 -1.05068e-08 3.99671e-10)
(1.96205e-09 -1.05314e-08 4.94772e-10)
(1.45078e-09 -1.05721e-08 5.88474e-10)
(8.09092e-10 -1.06308e-08 6.67675e-10)
(1.74835e-10 -1.07686e-08 7.08635e-10)
(-2.15374e-10 -1.104e-08 7.04276e-10)
(-1.52106e-10 -1.15265e-08 7.2408e-10)
(1.18986e-09 -1.24331e-08 7.19275e-10)
(1.22875e-09 -1.10243e-08 8.61599e-10)
(5.54449e-09 -1.84029e-08 5.54449e-09)
(5.92526e-09 -5.7019e-08 4.65754e-09)
(1.247e-09 -4.74581e-08 4.69091e-09)
(9.67263e-10 -4.69382e-08 4.39749e-09)
(-2.35172e-10 -4.68002e-08 4.43136e-09)
(-9.77537e-10 -4.68529e-08 4.4147e-09)
(-1.62661e-09 -4.69496e-08 4.39664e-09)
(-2.05072e-09 -4.69485e-08 4.37175e-09)
(-2.24877e-09 -4.71857e-08 4.3401e-09)
(-2.26848e-09 -4.71854e-08 4.32135e-09)
(-2.06989e-09 -4.72817e-08 4.29301e-09)
(-1.71631e-09 -4.73325e-08 4.27301e-09)
(-1.23887e-09 -4.73798e-08 4.25372e-09)
(-6.87456e-10 -4.73923e-08 4.24791e-09)
(-8.76334e-11 -4.73906e-08 4.26223e-09)
(5.36919e-10 -4.73763e-08 4.27703e-09)
(1.12386e-09 -4.73633e-08 4.29751e-09)
(1.60358e-09 -4.73587e-08 4.32648e-09)
(1.92891e-09 -4.73744e-08 4.35784e-09)
(2.07843e-09 -4.74022e-08 4.39117e-09)
(2.01645e-09 -4.74248e-08 4.41729e-09)
(1.73903e-09 -4.74445e-08 4.44018e-09)
(1.29157e-09 -4.74847e-08 4.45583e-09)
(6.8707e-10 -4.75839e-08 4.46389e-09)
(-8.02807e-11 -4.77596e-08 4.4538e-09)
(-9.14092e-10 -4.80341e-08 4.42134e-09)
(-1.68084e-09 -4.84992e-08 4.3666e-09)
(-2.23137e-09 -4.94029e-08 4.38881e-09)
(-2.69182e-09 -5.10501e-08 4.18614e-09)
(-1.43018e-09 -4.43704e-08 3.18985e-09)
(7.02793e-09 -6.99673e-08 7.02793e-09)
(7.80561e-09 -1.06796e-07 5.4825e-09)
(1.76058e-09 -9.77587e-08 5.56433e-09)
(1.34851e-09 -9.70672e-08 5.27913e-09)
(2.1967e-10 -9.70494e-08 5.34073e-09)
(-5.80477e-10 -9.71638e-08 5.35132e-09)
(-1.24758e-09 -9.7345e-08 5.34004e-09)
(-1.76374e-09 -9.742e-08 5.3294e-09)
(-2.08853e-09 -9.77128e-08 5.30533e-09)
(-2.18675e-09 -9.77995e-08 5.29282e-09)
(-2.09556e-09 -9.79861e-08 5.27181e-09)
(-1.86887e-09 -9.80749e-08 5.26669e-09)
(-1.44412e-09 -9.81271e-08 5.2516e-09)
(-8.87608e-10 -9.81466e-08 5.24278e-09)
(-2.79594e-10 -9.81472e-08 5.24169e-09)
(3.12745e-10 -9.81214e-08 5.25743e-09)
(8.37618e-10 -9.80751e-08 5.28345e-09)
(1.23749e-09 -9.80205e-08 5.30702e-09)
(1.47512e-09 -9.79699e-08 5.32135e-09)
(1.54545e-09 -9.79036e-08 5.33556e-09)
(1.39911e-09 -9.78165e-08 5.33697e-09)
(1.02296e-09 -9.77265e-08 5.32232e-09)
(4.63915e-10 -9.76804e-08 5.30641e-09)
(-2.48414e-10 -9.77116e-08 5.27652e-09)
(-1.05512e-09 -9.78573e-08 5.24489e-09)
(-1.89483e-09 -9.81e-08 5.19354e-09)
(-2.75912e-09 -9.85198e-08 5.08815e-09)
(-3.65912e-09 -9.93181e-08 5.05519e-09)
(-5.53316e-09 -1.00626e-07 4.6949e-09)
(-3.42745e-09 -8.92277e-08 3.39715e-09)
(7.18574e-09 -1.15701e-07 7.18574e-09)
(8.33879e-09 -1.53239e-07 5.73204e-09)
(2.3405e-09 -1.44734e-07 5.74196e-09)
(1.72098e-09 -1.44183e-07 5.42011e-09)
(5.68015e-10 -1.44274e-07 5.51804e-09)
(-3.13398e-10 -1.44487e-07 5.52297e-09)
(-1.05448e-09 -1.44778e-07 5.53273e-09)
(-1.59365e-09 -1.45005e-07 5.54119e-09)
(-1.95418e-09 -1.45379e-07 5.54668e-09)
(-2.11815e-09 -1.45646e-07 5.54872e-09)
(-2.06092e-09 -1.45952e-07 5.54903e-09)
(-1.82152e-09 -1.46166e-07 5.53583e-09)
(-1.4469e-09 -1.46321e-07 5.54416e-09)
(-9.58728e-10 -1.46418e-07 5.55676e-09)
(-4.22055e-10 -1.46459e-07 5.56631e-09)
(9.19399e-11 -1.46446e-07 5.57385e-09)
(5.28954e-10 -1.46353e-07 5.58329e-09)
(8.43086e-10 -1.46179e-07 5.59196e-09)
(1.02766e-09 -1.45937e-07 5.57524e-09)
(1.06774e-09 -1.45639e-07 5.5761e-09)
(8.861e-10 -1.45315e-07 5.55003e-09)
(4.66612e-10 -1.44992e-07 5.51228e-09)
(-1.30115e-10 -1.44719e-07 5.47449e-09)
(-8.70181e-10 -1.44522e-07 5.42635e-09)
(-1.71737e-09 -1.44417e-07 5.39459e-09)
(-2.66038e-09 -1.44453e-07 5.35817e-09)
(-3.68538e-09 -1.44692e-07 5.28319e-09)
(-4.74891e-09 -1.45162e-07 5.25903e-09)
(-6.56984e-09 -1.45984e-07 4.94467e-09)
(-3.88335e-09 -1.3334e-07 3.70958e-09)
(7.45264e-09 -1.61912e-07 7.45264e-09)
(8.75361e-09 -1.99413e-07 5.91727e-09)
(2.57092e-09 -1.9131e-07 5.95904e-09)
(1.86345e-09 -1.90959e-07 5.65281e-09)
(6.70783e-10 -1.91228e-07 5.75787e-09)
(-2.12064e-10 -1.91617e-07 5.77893e-09)
(-9.7003e-10 -1.92152e-07 5.80808e-09)
(-1.52091e-09 -1.92629e-07 5.84934e-09)
(-1.86771e-09 -1.93192e-07 5.88606e-09)
(-2.05743e-09 -1.93752e-07 5.92988e-09)
(-2.03406e-09 -1.94277e-07 5.95977e-09)
(-1.83241e-09 -1.94726e-07 5.98113e-09)
(-1.49886e-09 -1.95136e-07 6.00468e-09)
(-1.0715e-09 -1.95418e-07 6.02718e-09)
(-6.1676e-10 -1.95532e-07 6.03516e-09)
(-1.89334e-10 -1.9551e-07 6.01786e-09)
(1.73287e-10 -1.95327e-07 5.99524e-09)
(4.44272e-10 -1.94967e-07 5.96143e-09)
(6.15528e-10 -1.94476e-07 5.93947e-09)
(6.67816e-10 -1.93862e-07 5.91333e-09)
(5.15396e-10 -1.93212e-07 5.87324e-09)
(1.39383e-10 -1.92549e-07 5.82231e-09)
(-4.04482e-10 -1.91891e-07 5.76643e-09)
(-1.086e-09 -1.9129e-07 5.72862e-09)
(-1.90235e-09 -1.90772e-07 5.70037e-09)
(-2.89983e-09 -1.9039e-07 5.66067e-09)
(-4.06355e-09 -1.90203e-07 5.58053e-09)
(-5.32616e-09 -1.90158e-07 5.54677e-09)
(-7.25568e-09 -1.90408e-07 5.1823e-09)
(-4.22862e-09 -1.77307e-07 3.90844e-09)
(7.49048e-09 -2.08389e-07 7.49048e-09)
(8.8282e-09 -2.4517e-07 5.96255e-09)
(2.55837e-09 -2.37548e-07 5.9962e-09)
(1.73959e-09 -2.37389e-07 5.70872e-09)
(4.69695e-10 -2.37934e-07 5.81527e-09)
(-4.98842e-10 -2.38591e-07 5.85063e-09)
(-1.27073e-09 -2.39486e-07 5.88609e-09)
(-1.80556e-09 -2.40398e-07 5.94178e-09)
(-2.13295e-09 -2.41327e-07 5.97972e-09)
(-2.29334e-09 -2.42301e-07 6.01801e-09)
(-2.26532e-09 -2.4324e-07 6.06591e-09)
(-2.06827e-09 -2.44036e-07 6.10713e-09)
(-1.74215e-09 -2.44761e-07 6.14271e-09)
(-1.33332e-09 -2.45278e-07 6.17095e-09)
(-9.03389e-10 -2.45508e-07 6.18333e-09)
(-4.96317e-10 -2.45492e-07 6.1887e-09)
(-1.28489e-10 -2.45216e-07 6.17001e-09)
(1.69917e-10 -2.44641e-07 6.13259e-09)
(4.24553e-10 -2.43864e-07 6.09017e-09)
(5.82331e-10 -2.4288e-07 6.05793e-09)
(5.1911e-10 -2.41826e-07 6.00074e-09)
(2.59678e-10 -2.40662e-07 5.95451e-09)
(-1.65322e-10 -2.39427e-07 5.91772e-09)
(-7.70052e-10 -2.38198e-07 5.90656e-09)
(-1.58424e-09 -2.37093e-07 5.87654e-09)
(-2.67159e-09 -2.36178e-07 5.80315e-09)
(-3.98761e-09 -2.3547e-07 5.70896e-09)
(-5.44782e-09 -2.34942e-07 5.64114e-09)
(-7.53215e-09 -2.34693e-07 5.23833e-09)
(-4.38924e-09 -2.21603e-07 3.98305e-09)
(7.50948e-09 -2.5475e-07 7.50948e-09)
(8.73984e-09 -2.9047e-07 5.98284e-09)
(2.26948e-09 -2.83303e-07 6.00079e-09)
(1.25251e-09 -2.83364e-07 5.72124e-09)
(-2.16688e-10 -2.84249e-07 5.82087e-09)
(-1.30706e-09 -2.85333e-07 5.85987e-09)
(-2.16125e-09 -2.86645e-07 5.886e-09)
(-2.68222e-09 -2.88049e-07 5.98635e-09)
(-2.9399e-09 -2.89565e-07 6.04463e-09)
(-3.06996e-09 -2.91129e-07 6.09662e-09)
(-3.00469e-09 -2.92612e-07 6.15011e-09)
(-2.7576e-09 -2.93885e-07 6.19944e-09)
(-2.37427e-09 -2.95029e-07 6.24028e-09)
(-1.88817e-09 -2.95864e-07 6.26902e-09)
(-1.35355e-09 -2.96269e-07 6.27653e-09)
(-8.22557e-10 -2.96309e-07 6.27159e-09)
(-3.01178e-10 -2.95985e-07 6.2393e-09)
(1.65606e-10 -2.95244e-07 6.19837e-09)
(6.07247e-10 -2.94151e-07 6.14012e-09)
(9.47813e-10 -2.92744e-07 6.07961e-09)
(1.10142e-09 -2.91124e-07 6.04378e-09)
(1.07321e-09 -2.89338e-07 6.01774e-09)
(7.68362e-10 -2.87445e-07 6.00837e-09)
(1.53508e-10 -2.85523e-07 5.9856e-09)
(-8.07575e-10 -2.83749e-07 5.94875e-09)
(-2.06491e-09 -2.82162e-07 5.91309e-09)
(-3.53808e-09 -2.80833e-07 5.80034e-09)
(-5.18773e-09 -2.79836e-07 5.71257e-09)
(-7.35983e-09 -2.79215e-07 5.38654e-09)
(-4.29813e-09 -2.66643e-07 4.06578e-09)
(7.58626e-09 -3.01073e-07 7.58626e-09)
(8.54868e-09 -3.35367e-07 6.03649e-09)
(1.62447e-09 -3.28705e-07 6.01794e-09)
(3.48724e-10 -3.29065e-07 5.75702e-09)
(-1.41594e-09 -3.3038e-07 5.83656e-09)
(-2.73389e-09 -3.32032e-07 5.8647e-09)
(-3.6663e-09 -3.33969e-07 5.93471e-09)
(-4.30374e-09 -3.3608e-07 5.94023e-09)
(-4.6431e-09 -3.38331e-07 6.01402e-09)
(-4.67835e-09 -3.40611e-07 6.07281e-09)
(-4.49836e-09 -3.42753e-07 6.13199e-09)
(-4.11282e-09 -3.44592e-07 6.18111e-09)
(-3.55103e-09 -3.46235e-07 6.21427e-09)
(-2.83592e-09 -3.47475e-07 6.23304e-09)
(-2.00911e-09 -3.48111e-07 6.24137e-09)
(-1.14485e-09 -3.48264e-07 6.22382e-09)
(-2.88357e-10 -3.47924e-07 6.19084e-09)
(5.17551e-10 -3.47048e-07 6.16105e-09)
(1.32592e-09 -3.45592e-07 6.12431e-09)
(2.02079e-09 -3.43704e-07 6.09461e-09)
(2.43099e-09 -3.41431e-07 6.06964e-09)
(2.54194e-09 -3.38964e-07 6.05049e-09)
(2.2863e-09 -3.36395e-07 6.03692e-09)
(1.60343e-09 -3.33794e-07 6.01483e-09)
(5.1396e-10 -3.31322e-07 5.99675e-09)
(-9.26632e-10 -3.29087e-07 5.96069e-09)
(-2.67283e-09 -3.27251e-07 5.86622e-09)
(-4.60089e-09 -3.25932e-07 5.79241e-09)
(-7.07157e-09 -3.25106e-07 5.46815e-09)
(-4.23766e-09 -3.1332e-07 4.12541e-09)
(7.71365e-09 -3.47787e-07 7.71365e-09)
(8.24089e-09 -3.8031e-07 6.12719e-09)
(5.80584e-10 -3.74276e-07 6.05802e-09)
(-1.09123e-09 -3.75026e-07 5.818e-09)
(-3.29591e-09 -3.76946e-07 5.87351e-09)
(-4.97503e-09 -3.79289e-07 5.88057e-09)
(-6.15869e-09 -3.82023e-07 5.91471e-09)
(-6.89906e-09 -3.85063e-07 5.94624e-09)
(-7.2205e-09 -3.88151e-07 6.00294e-09)
(-7.17744e-09 -3.91226e-07 6.04914e-09)
(-6.82987e-09 -3.94132e-07 6.08665e-09)
(-6.19973e-09 -3.96597e-07 6.11379e-09)
(-5.31479e-09 -3.98778e-07 6.12369e-09)
(-4.16806e-09 -4.00448e-07 6.12543e-09)
(-2.83793e-09 -4.01372e-07 6.10706e-09)
(-1.41644e-09 -4.01638e-07 6.10286e-09)
(1.53961e-11 -4.01277e-07 6.0639e-09)
(1.3731e-09 -4.0022e-07 6.05483e-09)
(2.66348e-09 -3.9838e-07 6.0507e-09)
(3.75069e-09 -3.95992e-07 6.05428e-09)
(4.46004e-09 -3.93124e-07 6.05156e-09)
(4.70988e-09 -3.89985e-07 6.04316e-09)
(4.45385e-09 -3.86738e-07 6.03241e-09)
(3.67689e-09 -3.83502e-07 6.03409e-09)
(2.40079e-09 -3.80435e-07 6.03486e-09)
(6.7456e-10 -3.7775e-07 6.02571e-09)
(-1.42219e-09 -3.75599e-07 5.97172e-09)
(-3.6967e-09 -3.74093e-07 5.95125e-09)
(-6.61477e-09 -3.73456e-07 5.60263e-09)
(-4.15246e-09 -3.62405e-07 4.21323e-09)
(7.83796e-09 -3.95314e-07 7.83796e-09)
(7.74729e-09 -4.25904e-07 6.17527e-09)
(-8.74035e-10 -4.20588e-07 6.11107e-09)
(-3.07066e-09 -4.21851e-07 5.88389e-09)
(-5.8487e-09 -4.24509e-07 5.91309e-09)
(-8.00455e-09 -4.27626e-07 5.90459e-09)
(-9.54451e-09 -4.31229e-07 5.91437e-09)
(-1.04861e-08 -4.35187e-07 5.92163e-09)
(-1.08472e-08 -4.39258e-07 5.93825e-09)
(-1.06893e-08 -4.43191e-07 5.96429e-09)
(-1.00771e-08 -4.469e-07 5.97606e-09)
(-9.04885e-09 -4.50002e-07 5.97481e-09)
(-7.63096e-09 -4.52695e-07 5.95599e-09)
(-5.85185e-09 -4.54761e-07 5.93394e-09)
(-3.79179e-09 -4.55947e-07 5.90982e-09)
(-1.57712e-09 -4.56265e-07 5.89357e-09)
(6.48801e-10 -4.55796e-07 5.87622e-09)
(2.74676e-09 -4.54491e-07 5.87328e-09)
(4.61587e-09 -4.52286e-07 5.88325e-09)
(6.12928e-09 -4.49394e-07 5.90925e-09)
(7.13266e-09 -4.45995e-07 5.92883e-09)
(7.5149e-09 -4.42303e-07 5.94435e-09)
(7.24804e-09 -4.38541e-07 5.96794e-09)
(6.33821e-09 -4.34862e-07 6.01178e-09)
(4.82531e-09 -4.31508e-07 6.02825e-09)
(2.75244e-09 -4.28664e-07 6.07283e-09)
(2.15395e-10 -4.26448e-07 6.08121e-09)
(-2.81636e-09 -4.25039e-07 6.01772e-09)
(-6.54153e-09 -4.24451e-07 5.62375e-09)
(-4.25955e-09 -4.13856e-07 4.11817e-09)
(7.9211e-09 -4.43847e-07 7.9211e-09)
(7.0374e-09 -4.72549e-07 6.1843e-09)
(-2.74013e-09 -4.6807e-07 6.11201e-09)
(-5.63399e-09 -4.69938e-07 5.88057e-09)
(-9.1255e-09 -4.73376e-07 5.90698e-09)
(-1.18402e-08 -4.77345e-07 5.87426e-09)
(-1.38211e-08 -4.81836e-07 5.85603e-09)
(-1.50468e-08 -4.86691e-07 5.81478e-09)
(-1.54565e-08 -4.91655e-07 5.79236e-09)
(-1.51052e-08 -4.96364e-07 5.76863e-09)
(-1.41303e-08 -5.00782e-07 5.73344e-09)
(-1.25617e-08 -5.04426e-07 5.68865e-09)
(-1.04272e-08 -5.07516e-07 5.63864e-09)
(-7.79362e-09 -5.09859e-07 5.59276e-09)
(-4.78434e-09 -5.11161e-07 5.56e-09)
(-1.58266e-09 -5.11425e-07 5.5461e-09)
(1.59469e-09 -5.10725e-07 5.54431e-09)
(4.53971e-09 -5.09082e-07 5.5512e-09)
(7.08795e-09 -5.06486e-07 5.56773e-09)
(9.07841e-09 -5.03138e-07 5.60261e-09)
(1.03787e-08 -4.99304e-07 5.64325e-09)
(1.08839e-08 -4.9524e-07 5.68371e-09)
(1.05825e-08 -4.91168e-07 5.74451e-09)
(9.4538e-09 -4.87314e-07 5.8019e-09)
(7.5345e-09 -4.83871e-07 5.86861e-09)
(4.95312e-09 -4.81e-07 5.95714e-09)
(1.72228e-09 -4.78807e-07 5.89268e-09)
(-1.93901e-09 -4.77381e-07 5.78937e-09)
(-6.32536e-09 -4.76398e-07 5.33866e-09)
(-4.37755e-09 -4.6588e-07 3.63892e-09)
(7.86561e-09 -4.92997e-07 7.86561e-09)
(5.97328e-09 -5.19966e-07 6.06042e-09)
(-5.057e-09 -5.16451e-07 5.98752e-09)
(-8.71736e-09 -5.19061e-07 5.73712e-09)
(-1.3081e-08 -5.23302e-07 5.734e-09)
(-1.64911e-08 -5.28035e-07 5.66144e-09)
(-1.89335e-08 -5.33325e-07 5.62722e-09)
(-2.04321e-08 -5.3895e-07 5.53217e-09)
(-2.08724e-08 -5.44619e-07 5.45819e-09)
(-2.02506e-08 -5.49962e-07 5.39034e-09)
(-1.87734e-08 -5.54902e-07 5.3029e-09)
(-1.65062e-08 -5.58914e-07 5.21133e-09)
(-1.34806e-08 -5.62215e-07 5.13332e-09)
(-9.81213e-09 -5.6464e-07 5.06946e-09)
(-5.69086e-09 -5.6589e-07 5.02909e-09)
(-1.37041e-09 -5.65958e-07 5.01762e-09)
(2.86038e-09 -5.64928e-07 5.03187e-09)
(6.73155e-09 -5.62872e-07 5.05729e-09)
(1.00183e-08 -5.59856e-07 5.09915e-09)
(1.25354e-08 -5.56111e-07 5.15437e-09)
(1.41374e-08 -5.51925e-07 5.2221e-09)
(1.47447e-08 -5.47591e-07 5.29358e-09)
(1.43254e-08 -5.43313e-07 5.35751e-09)
(1.28901e-08 -5.39312e-07 5.4122e-09)
(1.05168e-08 -5.3569e-07 5.44321e-09)
(7.28816e-09 -5.32575e-07 5.42456e-09)
(3.36268e-09 -5.30049e-07 5.27959e-09)
(-8.79896e-10 -5.28098e-07 5.09394e-09)
(-5.95367e-09 -5.26588e-07 4.57681e-09)
(-4.4092e-09 -5.16012e-07 2.89273e-09)
(7.50475e-09 -5.41719e-07 7.50475e-09)
(4.36769e-09 -5.67238e-07 5.70738e-09)
(-8.02132e-09 -5.64705e-07 5.58105e-09)
(-1.2587e-08 -5.68132e-07 5.33567e-09)
(-1.76726e-08 -5.73162e-07 5.30381e-09)
(-2.17428e-08 -5.78727e-07 5.14021e-09)
(-2.47374e-08 -5.84666e-07 5.07395e-09)
(-2.64897e-08 -5.90829e-07 4.94701e-09)
(-2.68942e-08 -5.9699e-07 4.83584e-09)
(-2.58902e-08 -6.0284e-07 4.73817e-09)
(-2.37534e-08 -6.08126e-07 4.6093e-09)
(-2.06305e-08 -6.12393e-07 4.48092e-09)
(-1.65744e-08 -6.15755e-07 4.3886e-09)
(-1.17424e-08 -6.18061e-07 4.32725e-09)
(-6.39508e-09 -6.19099e-07 4.2966e-09)
(-8.69622e-10 -6.1885e-07 4.30107e-09)
(4.48464e-09 -6.1741e-07 4.33558e-09)
(9.34494e-09 -6.149e-07 4.39315e-09)
(1.3425e-08 -6.11474e-07 4.47007e-09)
(1.65026e-08 -6.07378e-07 4.5622e-09)
(1.84242e-08 -6.02878e-07 4.651e-09)
(1.91031e-08 -5.98211e-07 4.72387e-09)
(1.85314e-08 -5.93562e-07 4.7671e-09)
(1.67528e-08 -5.89067e-07 4.76272e-09)
(1.38604e-08 -5.84841e-07 4.69609e-09)
(1.00124e-08 -5.80991e-07 4.54859e-09)
(5.46878e-09 -5.77566e-07 4.31217e-09)
(7.11689e-10 -5.74672e-07 4.08481e-09)
(-4.89842e-09 -5.7234e-07 3.66251e-09)
(-4.0435e-09 -5.61626e-07 2.28979e-09)
(6.71312e-09 -5.88385e-07 6.71312e-09)
(2.09277e-09 -6.12846e-07 4.92632e-09)
(-1.16001e-08 -6.11139e-07 4.7739e-09)
(-1.72357e-08 -6.15272e-07 4.5029e-09)
(-2.31589e-08 -6.20872e-07 4.45215e-09)
(-2.77552e-08 -6.27177e-07 4.35738e-09)
(-3.10041e-08 -6.3376e-07 4.30582e-09)
(-3.29169e-08 -6.4049e-07 4.14133e-09)
(-3.32858e-08 -6.47131e-07 4.00896e-09)
(-3.18519e-08 -6.53401e-07 3.90939e-09)
(-2.89396e-08 -6.58972e-07 3.79357e-09)
(-2.48045e-08 -6.6349e-07 3.69652e-09)
(-1.95211e-08 -6.66926e-07 3.63316e-09)
(-1.33978e-08 -6.69137e-07 3.59098e-09)
(-6.76581e-09 -6.70011e-07 3.58006e-09)
(2.17432e-11 -6.6952e-07 3.61114e-09)
(6.56407e-09 -6.67765e-07 3.67829e-09)
(1.24525e-08 -6.6493e-07 3.76783e-09)
(1.73426e-08 -6.61187e-07 3.86012e-09)
(2.10054e-08 -6.56749e-07 3.95313e-09)
(2.32861e-08 -6.51806e-07 4.02221e-09)
(2.41033e-08 -6.46509e-07 4.05375e-09)
(2.34626e-08 -6.41005e-07 4.02828e-09)
(2.14413e-08 -6.35417e-07 3.93797e-09)
(1.81752e-08 -6.29885e-07 3.77957e-09)
(1.38716e-08 -6.24591e-07 3.57361e-09)
(8.86244e-09 -6.19684e-07 3.33403e-09)
(3.60863e-09 -6.15511e-07 3.20745e-09)
(-2.687e-09 -6.12232e-07 2.97393e-09)
(-3.14249e-09 -6.01616e-07 1.92466e-09)
(5.53784e-09 -6.30664e-07 5.53784e-09)
(-7.47725e-10 -6.54443e-07 3.94018e-09)
(-1.56365e-08 -6.53463e-07 3.72236e-09)
(-2.24278e-08 -6.58261e-07 3.50464e-09)
(-2.91646e-08 -6.64454e-07 3.49278e-09)
(-3.43854e-08 -6.71451e-07 3.40474e-09)
(-3.80155e-08 -6.78867e-07 3.36561e-09)
(-4.00065e-08 -6.86456e-07 3.24573e-09)
(-4.00684e-08 -6.93813e-07 3.14954e-09)
(-3.8039e-08 -7.00791e-07 3.0673e-09)
(-3.42977e-08 -7.06899e-07 2.96968e-09)
(-2.90479e-08 -7.11945e-07 2.8895e-09)
(-2.24885e-08 -7.1578e-07 2.86225e-09)
(-1.50206e-08 -7.18191e-07 2.85887e-09)
(-7.02706e-09 -7.19153e-07 2.89088e-09)
(1.08896e-09 -7.18647e-07 2.97629e-09)
(8.86861e-09 -7.16774e-07 3.10026e-09)
(1.58675e-08 -7.13767e-07 3.22753e-09)
(2.17044e-08 -7.09733e-07 3.30218e-09)
(2.61111e-08 -7.04783e-07 3.35212e-09)
(2.89502e-08 -6.9901e-07 3.36365e-09)
(3.01416e-08 -6.92515e-07 3.31437e-09)
(2.96983e-08 -6.85462e-07 3.20894e-09)
(2.77259e-08 -6.78036e-07 3.06917e-09)
(2.43763e-08 -6.70448e-07 2.91822e-09)
(1.98133e-08 -6.63186e-07 2.74685e-09)
(1.42393e-08 -6.56552e-07 2.58624e-09)
(8.1445e-09 -6.51044e-07 2.55904e-09)
(4.3878e-10 -6.469e-07 2.50163e-09)
(-2.04921e-09 -6.36655e-07 1.76649e-09)
(4.19069e-09 -6.663e-07 4.19069e-09)
(-4.07609e-09 -6.89997e-07 2.7683e-09)
(-2.03109e-08 -6.89734e-07 2.51724e-09)
(-2.83848e-08 -6.95371e-07 2.30257e-09)
(-3.61123e-08 -7.02566e-07 2.31375e-09)
(-4.20297e-08 -7.10808e-07 2.24013e-09)
(-4.60468e-08 -7.19557e-07 2.22399e-09)
(-4.80335e-08 -7.28527e-07 2.15345e-09)
(-4.77532e-08 -7.37228e-07 2.06138e-09)
(-4.51035e-08 -7.45641e-07 2.00629e-09)
(-4.04043e-08 -7.52935e-07 1.96158e-09)
(-3.39366e-08 -7.59131e-07 1.95704e-09)
(-2.59568e-08 -7.63936e-07 1.99279e-09)
(-1.69436e-08 -7.66945e-07 2.037e-09)
(-7.41661e-09 -7.68314e-07 2.09229e-09)
(2.18495e-09 -7.68046e-07 2.20037e-09)
(1.13453e-08 -7.66137e-07 2.32738e-09)
(1.96163e-08 -7.62813e-07 2.45424e-09)
(2.66415e-08 -7.58167e-07 2.51018e-09)
(3.21238e-08 -7.52207e-07 2.50026e-09)
(3.59043e-08 -7.44946e-07 2.41907e-09)
(3.79007e-08 -7.36528e-07 2.27202e-09)
(3.81016e-08 -7.27211e-07 2.1072e-09)
(3.65574e-08 -7.17379e-07 1.97329e-09)
(3.32558e-08 -7.07404e-07 1.86957e-09)
(2.82065e-08 -6.97953e-07 1.84055e-09)
(2.16547e-08 -6.89592e-07 1.85301e-09)
(1.41492e-08 -6.82767e-07 1.92219e-09)
(3.999e-09 -6.77921e-07 1.90944e-09)
(-1.08181e-09 -6.67791e-07 1.27755e-09)
(2.67527e-09 -6.93993e-07 2.67527e-09)
(-7.8977e-09 -7.18409e-07 1.25986e-09)
(-2.58439e-08 -7.19028e-07 1.01088e-09)
(-3.5597e-08 -7.2589e-07 8.01952e-10)
(-4.46721e-08 -7.34675e-07 8.16166e-10)
(-5.15267e-08 -7.44751e-07 8.40903e-10)
(-5.60322e-08 -7.55622e-07 8.41452e-10)
(-5.80491e-08 -7.66852e-07 8.18231e-10)
(-5.73874e-08 -7.77869e-07 8.07289e-10)
(-5.39908e-08 -7.88485e-07 8.0538e-10)
(-4.81328e-08 -7.9777e-07 8.07488e-10)
(-4.02403e-08 -8.05857e-07 8.39393e-10)
(-3.05556e-08 -8.12075e-07 9.06388e-10)
(-1.96542e-08 -8.16275e-07 9.50955e-10)
(-8.31075e-09 -8.18516e-07 1.02232e-09)
(3.12544e-09 -8.18679e-07 1.07448e-09)
(1.41038e-08 -8.16764e-07 1.06504e-09)
(2.40734e-08 -8.1285e-07 1.05137e-09)
(3.27114e-08 -8.07009e-07 9.87148e-10)
(3.97584e-08 -7.99262e-07 8.78474e-10)
(4.49932e-08 -7.89734e-07 7.24324e-10)
(4.82496e-08 -7.78688e-07 5.69363e-10)
(4.94052e-08 -7.66481e-07 5.0848e-10)
(4.83219e-08 -7.53752e-07 5.69544e-10)
(4.49246e-08 -7.41197e-07 7.19891e-10)
(3.90345e-08 -7.2957e-07 8.42282e-10)
(3.08708e-08 -7.19454e-07 9.33429e-10)
(2.11169e-08 -7.11369e-07 9.40523e-10)
(7.86228e-09 -7.05762e-07 7.66041e-10)
(-5.0696e-11 -6.95371e-07 -8.18327e-12)
(8.75512e-10 -7.13687e-07 8.75511e-10)
(-1.26436e-08 -7.38921e-07 -4.00804e-10)
(-3.28784e-08 -7.40663e-07 -4.56709e-10)
(-4.48033e-08 -7.4917e-07 -6.87331e-10)
(-5.56024e-08 -7.60134e-07 -6.89467e-10)
(-6.36898e-08 -7.72962e-07 -7.11804e-10)
(-6.89871e-08 -7.8694e-07 -8.02045e-10)
(-7.11138e-08 -8.01419e-07 -8.47708e-10)
(-6.99507e-08 -8.1575e-07 -9.01774e-10)
(-6.56242e-08 -8.29476e-07 -9.72934e-10)
(-5.83818e-08 -8.41685e-07 -1.02372e-09)
(-4.85913e-08 -8.52485e-07 -1.03959e-09)
(-3.68608e-08 -8.60881e-07 -1.04424e-09)
(-2.38259e-08 -8.66792e-07 -1.01853e-09)
(-1.00428e-08 -8.70157e-07 -1.02368e-09)
(3.85633e-09 -8.70758e-07 -1.05083e-09)
(1.72669e-08 -8.68605e-07 -1.09896e-09)
(2.97007e-08 -8.63622e-07 -1.18815e-09)
(4.07188e-08 -8.55896e-07 -1.31012e-09)
(4.99703e-08 -8.45512e-07 -1.46222e-09)
(5.71639e-08 -8.32859e-07 -1.57869e-09)
(6.20723e-08 -8.18414e-07 -1.53628e-09)
(6.4362e-08 -8.02713e-07 -1.365e-09)
(6.35366e-08 -7.86697e-07 -1.09456e-09)
(5.93372e-08 -7.71315e-07 -9.05784e-10)
(5.18471e-08 -7.5734e-07 -7.69207e-10)
(4.14625e-08 -7.4534e-07 -7.03589e-10)
(2.8926e-08 -7.35946e-07 -8.39843e-10)
(1.23621e-08 -7.29331e-07 -1.20736e-09)
(1.29576e-09 -7.18364e-07 -2.26338e-09)
(-7.31598e-10 -7.24786e-07 -7.31598e-10)
(-1.79697e-08 -7.51573e-07 -2.35658e-09)
(-4.18061e-08 -7.54502e-07 -2.37256e-09)
(-5.65244e-08 -7.65144e-07 -2.72537e-09)
(-6.98648e-08 -7.79076e-07 -2.81571e-09)
(-7.98069e-08 -7.95351e-07 -2.93292e-09)
(-8.60586e-08 -8.13357e-07 -3.15624e-09)
(-8.83319e-08 -8.31968e-07 -3.25946e-09)
(-8.65723e-08 -8.50552e-07 -3.40172e-09)
(-8.11048e-08 -8.68307e-07 -3.57242e-09)
(-7.21264e-08 -8.84378e-07 -3.68901e-09)
(-6.00876e-08 -8.98571e-07 -3.76337e-09)
(-4.56716e-08 -9.09845e-07 -3.82727e-09)
(-2.9601e-08 -9.17818e-07 -3.88004e-09)
(-1.25495e-08 -9.22291e-07 -3.94745e-09)
(4.68876e-09 -9.23245e-07 -4.04892e-09)
(2.14991e-08 -9.20372e-07 -4.13363e-09)
(3.73449e-08 -9.13673e-07 -4.24564e-09)
(5.16312e-08 -9.03309e-07 -4.34051e-09)
(6.3842e-08 -8.89546e-07 -4.35613e-09)
(7.35102e-08 -8.7293e-07 -4.253e-09)
(8.02403e-08 -8.5432e-07 -3.96906e-09)
(8.32975e-08 -8.34669e-07 -3.62752e-09)
(8.20698e-08 -8.15048e-07 -3.31456e-09)
(7.65112e-08 -7.96605e-07 -3.14618e-09)
(6.6871e-08 -7.80073e-07 -3.07066e-09)
(5.36603e-08 -7.6606e-07 -3.1791e-09)
(3.78885e-08 -7.55102e-07 -3.42014e-09)
(1.8023e-08 -7.47215e-07 -3.81266e-09)
(3.31145e-09 -7.35292e-07 -5.30604e-09)
(-2.88555e-09 -7.26771e-07 -2.88555e-09)
(-2.47028e-08 -7.56558e-07 -4.83951e-09)
(-5.30136e-08 -7.6087e-07 -4.91094e-09)
(-7.15617e-08 -7.74172e-07 -5.37059e-09)
(-8.79758e-08 -7.91762e-07 -5.55528e-09)
(-1.00192e-07 -8.12041e-07 -5.82575e-09)
(-1.07857e-07 -8.34781e-07 -6.17602e-09)
(-1.10402e-07 -8.58307e-07 -6.35143e-09)
(-1.08016e-07 -8.81911e-07 -6.55698e-09)
(-1.01218e-07 -9.04406e-07 -6.77952e-09)
(-9.00684e-08 -9.24959e-07 -6.9596e-09)
(-7.5107e-08 -9.42957e-07 -7.11169e-09)
(-5.72523e-08 -9.57255e-07 -7.27208e-09)
(-3.71705e-08 -9.67418e-07 -7.40275e-09)
(-1.57927e-08 -9.732e-07 -7.507e-09)
(5.93524e-09 -9.74233e-07 -7.61701e-09)
(2.73784e-08 -9.70189e-07 -7.71143e-09)
(4.77447e-08 -9.61156e-07 -7.74853e-09)
(6.62552e-08 -9.47429e-07 -7.68622e-09)
(8.21686e-08 -9.29595e-07 -7.4831e-09)
(9.46892e-08 -9.08498e-07 -7.15445e-09)
(1.03042e-07 -8.85316e-07 -6.76221e-09)
(1.06395e-07 -8.61329e-07 -6.41153e-09)
(1.04181e-07 -8.37706e-07 -6.16599e-09)
(9.66074e-08 -8.15673e-07 -6.04186e-09)
(8.43002e-08 -7.96088e-07 -5.9868e-09)
(6.79527e-08 -7.79554e-07 -5.97817e-09)
(4.8659e-08 -7.66624e-07 -6.19364e-09)
(2.50687e-08 -7.57199e-07 -6.47975e-09)
(5.90423e-09 -7.4399e-07 -8.02716e-09)
(-5.5371e-09 -7.19711e-07 -5.5371e-09)
(-3.29813e-08 -7.54386e-07 -8.22477e-09)
(-6.68153e-08 -7.60099e-07 -8.25824e-09)
(-9.00875e-08 -7.76351e-07 -8.78369e-09)
(-1.10407e-07 -7.97895e-07 -9.06067e-09)
(-1.25586e-07 -8.23144e-07 -9.4638e-09)
(-1.35037e-07 -8.51227e-07 -9.90596e-09)
(-1.3804e-07 -8.80402e-07 -1.01606e-08)
(-1.34944e-07 -9.09602e-07 -1.0423e-08)
(-1.26423e-07 -9.37511e-07 -1.06964e-08)
(-1.12591e-07 -9.63001e-07 -1.09169e-08)
(-9.3961e-08 -9.85191e-07 -1.1067e-08)
(-7.16022e-08 -1.00285e-06 -1.12753e-08)
(-4.66052e-08 -1.01544e-06 -1.14512e-08)
(-1.97332e-08 -1.02239e-06 -1.15937e-08)
(8.03306e-09 -1.02315e-06 -1.16806e-08)
(3.54632e-08 -1.01753e-06 -1.16907e-08)
(6.15476e-08 -1.00565e-06 -1.15871e-08)
(8.52016e-08 -9.88043e-07 -1.13479e-08)
(1.05317e-07 -9.65631e-07 -1.09756e-08)
(1.20759e-07 -9.39684e-07 -1.05044e-08)
(1.30575e-07 -9.11634e-07 -1.00323e-08)
(1.33939e-07 -8.82771e-07 -9.65588e-09)
(1.30504e-07 -8.54604e-07 -9.43724e-09)
(1.20744e-07 -8.28269e-07 -9.29563e-09)
(1.05431e-07 -8.04554e-07 -9.13312e-09)
(8.52868e-08 -7.84667e-07 -9.01846e-09)
(6.16909e-08 -7.69192e-07 -9.04065e-09)
(3.35589e-08 -7.58036e-07 -9.07085e-09)
(8.99175e-09 -7.42993e-07 -1.03127e-08)
(-9.5229e-09 -7.03395e-07 -9.5229e-09)
(-4.34802e-08 -7.43647e-07 -1.16018e-08)
(-8.3001e-08 -7.51268e-07 -1.17189e-08)
(-1.12133e-07 -7.71387e-07 -1.24328e-08)
(-1.37587e-07 -7.97795e-07 -1.29305e-08)
(-1.56527e-07 -8.28271e-07 -1.33574e-08)
(-1.68005e-07 -8.6217e-07 -1.38504e-08)
(-1.71682e-07 -8.97591e-07 -1.41996e-08)
(-1.67925e-07 -9.33066e-07 -1.45474e-08)
(-1.57326e-07 -9.67127e-07 -1.48629e-08)
(-1.40157e-07 -9.98279e-07 -1.5147e-08)
(-1.17151e-07 -1.02526e-06 -1.54554e-08)
(-8.93161e-08 -1.04659e-06 -1.56797e-08)
(-5.77815e-08 -1.06179e-06 -1.58844e-08)
(-2.38062e-08 -1.0698e-06 -1.60134e-08)
(1.12917e-08 -1.07015e-06 -1.60434e-08)
(4.60608e-08 -1.06266e-06 -1.59386e-08)
(7.90132e-08 -1.04761e-06 -1.5681e-08)
(1.08625e-07 -1.02583e-06 -1.5282e-08)
(1.33416e-07 -9.98585e-07 -1.47847e-08)
(1.51949e-07 -9.67428e-07 -1.42702e-08)
(1.63274e-07 -9.34036e-07 -1.37932e-08)
(1.66704e-07 -8.99788e-07 -1.34306e-08)
(1.62051e-07 -8.66318e-07 -1.31797e-08)
(1.50072e-07 -8.34781e-07 -1.29048e-08)
(1.31105e-07 -8.0622e-07 -1.25941e-08)
(1.06081e-07 -7.81479e-07 -1.1952e-08)
(7.73168e-08 -7.62085e-07 -1.16249e-08)
(4.37403e-08 -7.48598e-07 -1.15476e-08)
(1.26823e-08 -7.31679e-07 -1.35352e-08)
(-1.35501e-08 -6.76602e-07 -1.35501e-08)
(-5.55967e-08 -7.22303e-07 -1.56309e-08)
(-1.02939e-07 -7.32304e-07 -1.57959e-08)
(-1.39038e-07 -7.5693e-07 -1.65661e-08)
(-1.69872e-07 -7.88687e-07 -1.69171e-08)
(-1.92902e-07 -8.25278e-07 -1.75184e-08)
(-2.07207e-07 -8.65638e-07 -1.81416e-08)
(-2.11954e-07 -9.08025e-07 -1.86702e-08)
(-2.07648e-07 -9.5074e-07 -1.9127e-08)
(-1.94734e-07 -9.91793e-07 -1.95895e-08)
(-1.73504e-07 -1.02906e-06 -1.99938e-08)
(-1.44863e-07 -1.06161e-06 -2.04017e-08)
(-1.10251e-07 -1.0876e-06 -2.07628e-08)
(-7.08663e-08 -1.10574e-06 -2.10064e-08)
(-2.82426e-08 -1.11522e-06 -2.11315e-08)
(1.57384e-08 -1.11527e-06 -2.11016e-08)
(5.92142e-08 -1.10582e-06 -2.09053e-08)
(1.00172e-07 -1.08741e-06 -2.05459e-08)
(1.36602e-07 -1.0612e-06 -2.00549e-08)
(1.66663e-07 -1.02876e-06 -1.95023e-08)
(1.88716e-07 -9.91879e-07 -1.89637e-08)
(2.01801e-07 -9.52354e-07 -1.84863e-08)
(2.05481e-07 -9.11738e-07 -1.80661e-08)
(1.99757e-07 -8.7174e-07 -1.76548e-08)
(1.85137e-07 -8.33511e-07 -1.70648e-08)
(1.62563e-07 -7.98401e-07 -1.64219e-08)
(1.32637e-07 -7.67786e-07 -1.59956e-08)
(9.73219e-08 -7.43825e-07 -1.5688e-08)
(5.57463e-08 -7.27914e-07 -1.56638e-08)
(1.64456e-08 -7.08169e-07 -1.77646e-08)
(-1.80889e-08 -6.35759e-07 -1.80889e-08)
(-6.9654e-08 -6.87256e-07 -2.02577e-08)
(-1.26267e-07 -6.9985e-07 -2.04514e-08)
(-1.70309e-07 -7.29295e-07 -2.13033e-08)
(-2.08013e-07 -7.66914e-07 -2.18388e-08)
(-2.36088e-07 -8.10711e-07 -2.25617e-08)
(-2.53562e-07 -8.58967e-07 -2.30632e-08)
(-2.59928e-07 -9.09434e-07 -2.38082e-08)
(-2.55012e-07 -9.60447e-07 -2.44411e-08)
(-2.39064e-07 -1.00975e-06 -2.50989e-08)
(-2.13105e-07 -1.05464e-06 -2.57074e-08)
(-1.7824e-07 -1.09365e-06 -2.62613e-08)
(-1.35459e-07 -1.12501e-06 -2.67006e-08)
(-8.64611e-08 -1.14671e-06 -2.69971e-08)
(-3.34535e-08 -1.15791e-06 -2.71236e-08)
(2.11432e-08 -1.15774e-06 -2.70659e-08)
(7.48507e-08 -1.14636e-06 -2.68125e-08)
(1.25129e-07 -1.1245e-06 -2.63773e-08)
(1.69486e-07 -1.09354e-06 -2.57999e-08)
(2.05711e-07 -1.05528e-06 -2.51572e-08)
(2.32015e-07 -1.01159e-06 -2.4542e-08)
(2.47471e-07 -9.64507e-07 -2.40057e-08)
(2.51772e-07 -9.15793e-07 -2.3456e-08)
(2.45081e-07 -8.67195e-07 -2.2821e-08)
(2.27971e-07 -8.20406e-07 -2.22299e-08)
(2.00873e-07 -7.77486e-07 -2.1429e-08)
(1.64392e-07 -7.40817e-07 -2.08813e-08)
(1.20962e-07 -7.12057e-07 -2.04034e-08)
(7.00277e-08 -6.93363e-07 -2.02738e-08)
(2.11542e-08 -6.69094e-07 -2.17176e-08)
(-2.32877e-08 -5.77481e-07 -2.32877e-08)
(-8.59157e-08 -6.33058e-07 -2.55064e-08)
(-1.53632e-07 -6.4907e-07 -2.57232e-08)
(-2.0724e-07 -6.84024e-07 -2.66648e-08)
(-2.5285e-07 -7.28802e-07 -2.73054e-08)
(-2.87158e-07 -7.80794e-07 -2.80922e-08)
(-3.08731e-07 -8.38382e-07 -2.88292e-08)
(-3.1686e-07 -8.98687e-07 -2.96862e-08)
(-3.11422e-07 -9.59815e-07 -3.06634e-08)
(-2.92476e-07 -1.01889e-06 -3.15354e-08)
(-2.60818e-07 -1.07317e-06 -3.2359e-08)
(-2.17703e-07 -1.11986e-06 -3.30794e-08)
(-1.6494e-07 -1.15708e-06 -3.3719e-08)
(-1.04741e-07 -1.18281e-06 -3.4109e-08)
(-3.95891e-08 -1.19585e-06 -3.42062e-08)
(2.74003e-08 -1.19567e-06 -3.41581e-08)