/*--------------------------------*- C++ -*----------------------------------*\
| =========                 |                                                 |
| \\      /  F ield         | OpenFOAM: The Open Source CFD Toolbox           |
|  \\    /   O peration     | Version:  2312                                  |
|   \\  /    A nd           | Website:  www.openfoam.com                      |
|    \\/     M anipulation  |                                                 |
\*---------------------------------------------------------------------------*/
FoamFile
{
    version     2.0;
    format      ascii;
    arch        "LSB;label=32;scalar=64";
    class       surfaceScalarField;
    location    "0.489491";
    object      alphaPhi0.water;
}
// * * * * * * * * * * * * * * * * * * * * * * * * * * * * * * * * * * * * * //

dimensions      [0 3 -1 0 0 0 0];

oriented        oriented;

internalField   nonuniform List<scalar> 
263100
(
9.26094e-12
-1.85223e-11
9.26094e-12
-3.9171e-10
6.06166e-10
-1.28319e-10
-6.5529e-10
4.67938e-10
-1.36359e-10
-8.14232e-10
3.81904e-10
-1.52468e-10
-8.78691e-10
2.82628e-10
-1.48879e-10
-8.52083e-10
1.65098e-10
-1.29196e-10
-7.50887e-10
5.86875e-11
-1.06737e-10
-6.02502e-10
-1.68241e-11
-8.50602e-11
-4.55402e-10
-3.56385e-11
-6.45834e-11
-3.27863e-10
-1.09759e-13
-7.24099e-11
-2.1854e-10
6.73643e-11
-1.09178e-10
-1.134e-10
1.46684e-10
-1.73693e-10
1.27684e-11
2.02342e-10
-2.48336e-10
1.80273e-10
2.13448e-10
-3.12183e-10
4.02598e-10
1.76715e-10
-3.56463e-10
6.66845e-10
1.02724e-10
-3.62294e-10
9.09033e-10
3.96805e-11
-3.19451e-10
1.05128e-09
1.06232e-11
-2.26974e-10
1.04594e-09
3.56823e-11
-1.2517e-10
8.59804e-10
1.19015e-10
-2.63616e-11
4.84695e-10
2.42469e-10
6.23008e-11
-5.10184e-11
3.95665e-10
1.07e-10
-6.84168e-10
5.31824e-10
1.07132e-10
-1.32165e-09
5.82349e-10
8.81206e-11
-1.789e-09
4.75159e-10
3.07702e-11
-1.93285e-09
1.94855e-10
-3.27184e-11
-1.7163e-09
-1.77095e-10
-6.55344e-11
-1.31003e-09
-4.56061e-10
-3.58487e-11
-7.88128e-10
-6.21545e-10
-4.38294e-11
-1.4932e-09
5.27293e-10
-1.27587e-10
3.21298e-10
-1.27587e-10
-2.5093e-10
9.67263e-10
-1.15414e-10
-3.14779e-10
7.45554e-10
-9.65113e-11
-3.647e-10
6.04517e-10
-5.84706e-11
-4.01747e-10
4.40684e-10
-1.79921e-11
-4.29171e-10
2.67452e-10
1.23036e-11
-4.38161e-10
1.11971e-10
3.03657e-11
-4.28425e-10
1.50292e-11
3.04046e-11
-3.97451e-10
7.21126e-12
6.92742e-12
-3.22275e-10
5.34418e-11
-3.26283e-11
-2.02519e-10
1.31364e-10
-7.49044e-11
-3.98222e-11
2.03651e-10
-1.10486e-10
1.50428e-10
2.33555e-10
-1.31206e-10
3.42501e-10
2.10782e-10
-1.38699e-10
5.09104e-10
1.39373e-10
-1.33711e-10
6.07351e-10
5.56773e-11
-1.15708e-10
6.21536e-10
1.74885e-11
-1.073e-10
5.61906e-10
5.39645e-11
-1.26844e-10
4.29783e-10
1.87613e-10
-1.59211e-10
2.46689e-10
4.01594e-10
-2.04084e-10
6.40667e-11
6.27264e-10
-2.51543e-10
-1.00036e-10
8.19853e-10
-2.5173e-10
-1.86174e-10
8.99095e-10
-2.31944e-10
-1.69639e-10
7.93065e-10
-1.69055e-10
-6.5792e-11
4.45605e-10
-4.66877e-11
1.61262e-10
-1.37556e-10
5.76103e-11
5.54189e-10
-8.66407e-10
9.68128e-11
1.01823e-09
-1.4462e-09
-7.15921e-11
7.85424e-10
-1.65721e-09
-4.65604e-10
-4.45075e-09
-1.16863e-09
-9.439e-11
5.70653e-10
-9.439e-11
1.89149e-11
9.56474e-10
-2.76853e-11
9.51969e-11
7.38112e-10
-7.97012e-13
1.06981e-10
6.14026e-10
3.79015e-11
5.57098e-11
4.70941e-10
6.5588e-11
-4.12449e-11
3.21471e-10
7.13286e-11
-1.61542e-10
1.98017e-10
5.04871e-11
-2.58613e-10
1.15765e-10
7.77749e-12
-3.06072e-10
1.00795e-10
-3.28272e-11
-2.63313e-10
1.04135e-10
-7.57124e-11
-1.3783e-10
1.29986e-10
-1.04382e-10
4.85362e-11
1.34679e-10
-1.01731e-10
2.46855e-10
1.15e-10
-7.50759e-11
4.0288e-10
8.11173e-11
-3.79204e-11
4.63226e-10
4.91765e-11
1.0956e-13
4.02176e-10
5.98606e-11
1.11789e-11
2.47501e-10
1.34179e-10
-1.70494e-11
3.98318e-11
2.79961e-10
-7.23222e-11
-1.46551e-10
4.89572e-10
-1.56224e-10
-2.13665e-10
7.17713e-10
-2.65246e-10
-1.22902e-10
8.98021e-10
-3.47178e-10
1.51379e-10
9.73931e-10
-3.84427e-10
5.62359e-10
9.08748e-10
-3.5464e-10
1.03091e-09
6.44448e-10
-2.41809e-10
1.42764e-09
2.36575e-10
-9.98131e-11
1.60343e-09
-2.77383e-10
1.00511e-10
1.48939e-09
-7.4877e-10
3.78757e-10
1.62418e-09
-8.12693e-10
4.38858e-10
1.97394e-09
6.81845e-10
7.88589e-11
-1.76514e-09
-1.34486e-09
-2.39733e-11
6.54116e-10
-2.39733e-11
2.29292e-10
6.75895e-10
4.99437e-11
3.71363e-10
5.33443e-10
7.61085e-11
4.2392e-10
4.60308e-10
1.03684e-10
3.78469e-10
3.95665e-10
1.11517e-10
2.58629e-10
3.3273e-10
8.93809e-11
9.95987e-11
2.84817e-10
4.61556e-11
-5.38012e-11
2.54028e-10
-1.55662e-11
-1.37791e-10
2.12847e-10
-6.34285e-11
-1.43067e-10
1.59415e-10
-9.1665e-11
-6.51846e-11
1.02334e-10
-9.87502e-11
6.68139e-11
3.42508e-11
-8.37043e-11
1.9398e-10
-1.51626e-11
-4.48372e-11
2.64438e-10
-2.28469e-11
4.34863e-13
2.45954e-10
3.34137e-11
2.48077e-11
1.37414e-10
1.66088e-10
1.98818e-11
-3.33958e-11
3.55279e-10
-9.33201e-12
-2.03536e-10
5.67764e-10
-6.21312e-11
-2.8941e-10
7.72736e-10
-1.3724e-10
-2.10593e-10
9.03461e-10
-2.0723e-10
7.84715e-11
9.2743e-10
-2.65883e-10
5.5234e-10
8.31117e-10
-2.79527e-10
1.13578e-09
6.31157e-10
-2.46877e-10
1.69234e-09
3.55103e-10
-1.90296e-10
2.08956e-09
7.80464e-11
-1.45077e-10
2.13069e-09
-1.50042e-10
-1.2141e-10
1.62349e-09
-4.06487e-10
-2.24576e-11
7.85772e-10
-5.5612e-10
1.7928e-10
1.2322e-09
1.2324e-09
1.40977e-10
3.94369e-10
-7.83966e-10
4.63805e-11
5.65031e-10
4.63805e-11
3.73573e-10
1.9823e-10
1.26522e-10
5.45594e-10
1.87743e-10
1.45097e-10
6.15916e-10
2.12566e-10
1.46991e-10
5.96146e-10
2.67491e-10
1.20079e-10
4.94065e-10
3.39879e-10
7.20578e-11
3.4959e-10
3.92077e-10
1.77942e-11
2.12308e-10
4.05083e-10
-3.56591e-11
9.98571e-11
3.65254e-10
-7.22421e-11
2.1306e-11
2.72429e-10
-8.24133e-11
-1.18292e-11
1.50058e-10
-7.57633e-11
-2.28396e-11
3.96145e-11
-5.63208e-11
-3.11336e-11
-1.61396e-11
-3.36163e-11
-5.16714e-11
1.21437e-11
-1.80335e-11
-9.44553e-11
1.40755e-10
-1.70888e-11
-1.49259e-10
3.47484e-10
-3.10876e-11
-1.89109e-10
5.74092e-10
-5.35443e-11
-1.82572e-10
7.68763e-10
-7.91933e-11
-8.17739e-11
8.66757e-10
-8.93416e-11
1.51789e-10
8.29688e-10
-9.23975e-11
5.07469e-10
6.96039e-10
-9.47761e-11
9.60263e-10
4.75406e-10
-9.04962e-11
1.42228e-09
2.53337e-10
-7.52028e-11
1.74718e-09
1.46849e-10
-7.18681e-11
1.83532e-09
2.21803e-10
-9.92379e-11
1.69942e-09
4.73691e-10
-1.87345e-10
1.19573e-09
8.74784e-10
-3.5087e-10
8.63906e-11
9.72245e-10
-3.45726e-10
1.89016e-10
2.09598e-09
-4.15392e-10
1.71306e-09
-9.08417e-10
1.03009e-10
3.3723e-10
1.03009e-10
4.09212e-10
-3.18403e-10
1.71246e-10
5.7039e-10
-1.7208e-10
1.67225e-10
6.63115e-10
-2.86386e-11
1.3202e-10
6.9006e-10
1.658e-10
7.80873e-11
6.6256e-10
3.69601e-10
1.90759e-11
5.95703e-10
5.28282e-10
-3.91845e-11
4.98354e-10
5.99491e-10
-7.19419e-11
3.64915e-10
5.76448e-10
-7.10085e-11
2.00126e-10
4.79442e-10
-6.00045e-11
1.60084e-11
3.41335e-10
-4.37098e-11
-1.74278e-10
2.25009e-10
-3.27434e-11
-3.37865e-10
1.64674e-10
-3.21256e-11
-4.41934e-10
1.97703e-10
-5.35236e-11
-4.69061e-10
3.22188e-10
-7.67676e-11
-3.92609e-10
4.7635e-10
-8.97324e-11
-2.32401e-10
6.29282e-10
-8.85756e-11
1.2825e-12
6.94837e-10
-5.38524e-11
2.86243e-10
6.51846e-10
-1.01338e-11
6.10079e-10
4.81063e-10
3.00305e-11
9.16672e-10
2.6908e-10
8.10474e-11
1.15503e-09
5.73392e-11
1.20668e-10
1.274e-09
-3.44633e-12
9.00837e-11
1.2389e-09
1.7991e-10
-1.13807e-11
1.00403e-09
5.85247e-10
-1.06644e-10
6.2891e-10
1.19895e-09
-2.73435e-10
2.84779e-10
1.99199e-09
-5.37128e-10
-3.85005e-10
2.50898e-09
-7.28792e-10
-4.07147e-10
3.20883e-09
-8.78886e-10
2.34111e-09
-9.83309e-10
9.83045e-11
1.15035e-10
9.83045e-11
3.165e-10
-6.74608e-10
1.24895e-10
4.54722e-10
-3.93019e-10
8.8532e-11
5.79554e-10
-1.49664e-10
2.68448e-11
6.94294e-10
1.45866e-10
-4.05081e-11
7.8649e-10
4.32561e-10
-8.60839e-11
8.31079e-10
6.57665e-10
-1.04696e-10
7.91639e-10
7.86517e-10
-9.40996e-11
6.50794e-10
8.0699e-10
-6.37878e-11
4.03523e-10
7.49016e-10
-2.65992e-11
7.28782e-11
6.51656e-10
-5.74321e-12
-2.8534e-10
5.48348e-10
3.96274e-12
-5.87521e-10
4.65028e-10
-1.52264e-11
-7.5582e-10
4.20693e-10
-4.55829e-11
-7.43462e-10
4.08426e-10
-6.35348e-11
-5.63179e-10
3.93388e-10
-4.97455e-11
-2.47966e-10
3.65061e-10
-1.20925e-11
1.36606e-10
2.77914e-10
4.29304e-11
5.53195e-10
1.1107e-10
9.67855e-11
8.64635e-10
-6.61932e-11
1.74017e-10
1.03691e-09
-2.38633e-10
2.52804e-10
1.0213e-09
-2.6587e-10
2.52293e-10
8.15748e-10
-5.66808e-11
1.8477e-10
4.8109e-10
4.39663e-10
2.93542e-11
5.81842e-11
1.14237e-09
-1.52493e-10
-3.6887e-10
1.96342e-09
-3.71039e-10
-5.71124e-10
2.80184e-09
-6.22897e-10
-7.30066e-10
3.33811e-09
-7.10506e-10
-5.30174e-10
3.69537e-09
-7.26486e-10
2.43437e-09
-6.93358e-10
-1.49387e-11
1.40179e-10
-1.49387e-11
1.27365e-10
-7.56581e-10
-2.71801e-11
2.60506e-10
-3.82052e-10
-9.38247e-11
4.41639e-10
-1.12429e-10
-1.52411e-10
6.61443e-10
1.95859e-10
-1.97042e-10
8.79833e-10
4.87753e-10
-2.05915e-10
1.03518e-09
7.27159e-10
-1.73903e-10
1.06557e-09
8.95893e-10
-1.13835e-10
9.32391e-10
9.88377e-10
-4.99602e-11
6.34623e-10
1.01341e-09
7.39005e-12
2.11292e-10
9.80716e-10
5.20804e-11
-2.50299e-10
8.90787e-10
7.01659e-11
-6.31286e-10
7.44881e-10
5.24972e-11
-8.55024e-10
5.50144e-10
4.84309e-11
-8.6242e-10
3.18836e-10
5.15926e-11
-6.75068e-10
9.52278e-11
6.14215e-11
-3.24273e-10
-1.3322e-10
9.1443e-11
9.37523e-11
-3.51796e-10
1.51039e-10
4.55931e-10
-5.48737e-10
2.38948e-10
6.96225e-10
-6.72466e-10
3.16768e-10
7.31688e-10
-6.47484e-10
3.37014e-10
5.61777e-10
-4.14662e-10
2.90267e-10
2.14679e-10
6.10637e-11
1.94929e-10
-2.04841e-10
7.44681e-10
6.06496e-11
-5.68819e-10
1.53646e-09
-1.01667e-10
-8.21922e-10
2.3447e-09
-2.30373e-10
-8.38436e-10
3.00245e-09
-3.17682e-10
-6.73314e-10
3.3558e-09
-3.16368e-10
-2.48988e-10
3.4474e-09
-2.80167e-10
2.25055e-09
-1.14584e-10
-2.11572e-10
5.8792e-10
-2.11572e-10
-8.58374e-11
-5.69386e-10
-2.53522e-10
6.15187e-11
-1.62771e-10
-3.06068e-10
3.0939e-10
3.39648e-11
-3.41379e-10
6.15092e-10
2.60619e-10
-3.35303e-10
9.25404e-10
4.78561e-10
-2.8893e-10
1.15467e-09
6.91484e-10
-2.03433e-10
1.23779e-09
8.95752e-10
-1.08903e-10
1.1347e-09
1.07303e-09
-1.57874e-11
8.51125e-10
1.19423e-09
6.60961e-11
4.38552e-10
1.23351e-09
1.21898e-10
-1.0547e-11
1.1383e-09
1.58753e-10
-4.06731e-10
9.03546e-10
1.83596e-10
-6.71848e-10
5.45615e-10
2.0063e-10
-7.82744e-10
1.28798e-10
2.19325e-10
-7.20918e-10
-2.87397e-10
2.37373e-10
-5.26026e-10
-6.68106e-10
2.71449e-10
-2.75772e-10
-9.52331e-10
3.12917e-10
-5.74314e-11
-1.1026e-09
3.37428e-10
6.63077e-11
-1.08807e-09
3.27402e-10
5.83211e-11
-8.6887e-10
2.79577e-10
-8.68901e-11
-4.3439e-10
2.04265e-10
-3.09396e-10
1.7282e-10
1.14741e-10
-5.29113e-10
8.66162e-10
4.84465e-11
-6.92166e-10
1.58224e-09
1.71823e-11
-7.14922e-10
2.21034e-09
3.10584e-11
-5.78273e-10
2.67768e-09
5.20176e-11
-3.12193e-10
2.86521e-09
1.14975e-10
2.42222e-11
2.82498e-09
2.15699e-10
1.92587e-09
3.06861e-10
-3.70664e-10
1.36706e-09
-3.70664e-10
-2.30462e-10
-2.80936e-10
-3.89973e-10
-5.79667e-11
9.01519e-11
-4.02608e-10
1.95538e-10
1.56709e-10
-3.78519e-10
5.06514e-10
2.37282e-10
-3.15974e-10
8.1091e-10
3.55435e-10
-2.2677e-10
1.03196e-09
5.42565e-10
-1.19181e-10
1.1349e-09
7.76968e-10
-1.65497e-11
1.09167e-09
1.06669e-09
4.18039e-11
9.20373e-10
1.26446e-09
1.17011e-10
6.43072e-10
1.36611e-09
1.72497e-10
3.15218e-10
1.26539e-09
2.22782e-10
-1.29027e-11
9.57004e-10
2.76088e-10
-3.03928e-10
4.91441e-10
3.22164e-10
-5.54857e-10
-1.30309e-11
3.56005e-10
-7.34196e-10
-5.09992e-10
3.73324e-10
-8.48013e-10
-9.20997e-10
3.69343e-10
-8.86974e-10
-1.18685e-09
3.19759e-10
-8.65809e-10
-1.27754e-09
2.3752e-10
-8.12657e-10
-1.17004e-09
1.25825e-10
-7.52578e-10
-9.17618e-10
6.58181e-11
-6.86485e-10
-4.91871e-10
2.06701e-11
-6.10395e-10
6.45064e-11
2.65481e-12
-5.27688e-10
6.76968e-10
2.37871e-11
-4.08212e-10
1.26652e-09
7.7697e-11
-2.45649e-10
1.75821e-09
1.66387e-10
-3.07057e-11
2.06649e-09
2.80047e-10
1.61542e-10
2.18151e-09
3.81637e-10
2.55016e-10
2.17923e-09
4.21634e-10
1.62714e-09
3.88577e-10
-3.11331e-10
2.01163e-09
-3.11331e-10
-2.04483e-10
-1.17767e-10
-2.91522e-10
-1.08527e-10
2.0563e-10
-2.51072e-10
4.67648e-11
1.26631e-10
-1.84415e-10
2.23322e-10
9.49591e-11
-1.00092e-10
3.79539e-10
1.61323e-10
-1.40933e-11
5.0547e-10
3.62622e-10
3.67284e-11
5.83433e-10
6.53948e-10
7.56092e-11
6.50827e-10
9.82674e-10
9.46815e-11
6.80797e-10
1.2456e-09
9.99272e-11
6.68543e-10
1.35841e-09
1.40304e-10
5.75847e-10
1.2803e-09
1.84086e-10
3.85696e-10
9.91452e-10
2.34707e-10
7.81212e-11
5.77367e-10
2.75786e-10
-3.18903e-10
1.41294e-10
2.88071e-10
-7.55374e-10
-2.73408e-10
2.56904e-10
-1.16493e-09
-6.06436e-10
1.75941e-10
-1.46613e-09
-8.36819e-10
5.13405e-11
-1.60525e-09
-9.62356e-10
-7.80259e-11
-1.56038e-09
-9.55799e-10
-1.91221e-10
-1.3559e-09
-8.43991e-10
-2.61141e-10
-1.05102e-09
-5.82267e-10
-2.52334e-10
-6.96366e-10
-1.89008e-10
-1.79506e-10
-3.47533e-10
2.93422e-10
-6.00713e-11
-1.67643e-11
7.94992e-10
4.53091e-11
2.55239e-10
1.23732e-09
1.55681e-10
4.35607e-10
1.52346e-09
2.4799e-10
4.63741e-10
1.69023e-09
2.91697e-10
3.36726e-10
1.77639e-09
2.78539e-10
1.45628e-09
2.54088e-10
-1.73018e-13
1.99634e-09
-1.73021e-13
-9.22329e-11
-1.48199e-10
3.33256e-11
-1.93922e-10
1.07644e-10
1.08209e-10
-2.847e-10
-2.95213e-11
1.61572e-10
-3.89067e-10
-9.68122e-11
2.38172e-10
-4.70199e-10
-2.37118e-11
2.55598e-10
-4.75349e-10
2.0012e-10
2.15583e-10
-3.90085e-10
5.29886e-10
1.42793e-10
-1.69906e-10
8.62445e-10
4.43758e-11
1.40764e-10
1.10832e-09
-1.24658e-11
4.52577e-10
1.22645e-09
-2.54855e-11
6.40022e-10
1.20658e-09
1.97505e-11
6.20978e-10
1.08511e-09
3.67162e-11
3.52021e-10
8.9695e-10
4.83032e-11
-1.10348e-10
6.83375e-10
1.9592e-11
-6.9716e-10
4.98107e-10
-7.9107e-11
-1.27068e-09
2.37542e-10
-1.65674e-10
-1.70143e-09
-2.51919e-11
-2.95051e-10
-1.88926e-09
-3.11096e-10
-4.15819e-10
-1.81667e-09
-5.50788e-10
-4.75966e-10
-1.52227e-09
-7.00464e-10
-4.71493e-10
-1.08664e-09
-6.74465e-10
-3.87221e-10
-6.00223e-10
-4.43515e-10
-2.60415e-10
-1.47273e-10
-4.44671e-11
-1.16299e-10
2.32552e-10
4.3066e-10
-3.02431e-12
5.21933e-10
8.64508e-10
7.46476e-11
6.58834e-10
1.19354e-09
1.21094e-10
6.36596e-10
1.41569e-09
1.45355e-10
4.71232e-10
1.57092e-09
1.7642e-10
1.52403e-09
3.05677e-10
4.46207e-10
1.04755e-09
4.46207e-10
-5.43284e-11
-2.61145e-10
4.80025e-10
-4.42954e-10
-1.59272e-10
5.42108e-10
-8.6862e-10
-2.02417e-10
5.17905e-10
-1.26931e-09
-1.87453e-10
4.61046e-10
-1.57331e-09
-4.20695e-11
3.48975e-10
-1.67418e-09
1.78259e-10
1.98692e-10
-1.49267e-09
4.2017e-10
3.46296e-11
-1.0878e-09
6.56609e-10
-8.49e-11
-4.91847e-10
7.86475e-10
-1.70078e-10
1.07528e-10
9.08526e-10
-1.93965e-10
5.38708e-10
1.04067e-09
-1.88694e-10
6.83275e-10
1.18951e-09
-1.70916e-10
5.13227e-10
1.34927e-09
-1.92824e-10
8.88571e-11
1.46126e-09
-2.53285e-10
-4.48415e-10
1.45064e-09
-3.17658e-10
-9.93051e-10
1.25608e-09
-3.99123e-10
-1.35124e-09
8.41208e-10
-4.711e-10
-1.48481e-09
3.16611e-10
-4.92669e-10
-1.40523e-09
-1.92364e-10
-4.50169e-10
-1.14842e-09
-5.88367e-10
-3.61281e-10
-7.95425e-10
-7.25191e-10
-2.46772e-10
-4.26993e-10
-5.70631e-10
-1.31512e-10
-7.14887e-11
-2.08042e-10
-4.80791e-11
2.64024e-10
2.28655e-10
5.01633e-12
5.47164e-10
6.25919e-10
5.10572e-11
7.33671e-10
9.4743e-10
1.03225e-10
7.77438e-10
1.21186e-09
1.88978e-10
6.59505e-10
1.44653e-09
3.20905e-10
1.82303e-09
5.24808e-10
8.30367e-10
-6.97291e-10
8.30367e-10
-1.252e-10
-9.87734e-11
6.57127e-10
-8.58911e-10
-1.24405e-10
5.96745e-10
-1.53199e-09
-8.26394e-11
4.94012e-10
-2.11963e-09
3.76974e-11
3.49747e-10
-2.49379e-09
1.84278e-10
1.69925e-10
-2.57445e-09
3.03023e-10
-9.77372e-12
-2.30548e-09
3.42405e-10
-1.6844e-10
-1.69595e-09
2.97512e-10
-2.53173e-10
-9.26008e-10
2.70198e-10
-2.79694e-10
-1.86361e-10
4.115e-10
-2.75046e-10
3.61011e-10
7.41798e-10
-2.65003e-10
6.32207e-10
1.21523e-09
-2.82165e-10
6.12616e-10
1.72505e-09
-3.10959e-10
3.754e-10
2.08691e-09
-3.30109e-10
5.67594e-11
2.19207e-09
-3.75957e-10
-2.41604e-10
1.96954e-09
-3.96611e-10
-4.48794e-10
1.39371e-09
-3.5229e-10
-5.25586e-10
6.56493e-10
-2.71517e-10
-5.29691e-10
-8.4703e-12
-1.56244e-10
-4.79927e-10
-5.17593e-10
-4.07074e-11
-4.21281e-10
-7.17082e-10
7.05702e-11
-3.34729e-10
-6.17079e-10
1.31734e-10
-1.56466e-10
-3.40834e-10
1.26746e-10
1.11359e-10
-1.52917e-11
1.24312e-10
4.07045e-10
2.93372e-10
1.65293e-10
6.37322e-10
5.91485e-10
2.71368e-10
7.16772e-10
9.05675e-10
4.33066e-10
5.79877e-10
1.27118e-09
5.75521e-10
2.08056e-09
5.20615e-10
7.195e-10
-2.22307e-09
7.195e-10
-4.74872e-10
6.29634e-10
3.80167e-10
-1.33138e-09
4.08849e-10
2.69788e-10
-2.02751e-09
4.86389e-10
1.05744e-10
-2.56056e-09
6.18665e-10
-4.99109e-11
-2.83181e-09
6.18562e-10
-1.70038e-10
-2.78952e-09
4.46942e-10
-2.23343e-10
-2.37207e-09
1.20403e-10
-2.76347e-10
-1.71855e-09
-2.26252e-10
-2.48752e-10
-9.87199e-10
-3.75498e-10
-2.19389e-10
-3.1217e-10
-1.91061e-10
-1.90495e-10
1.82917e-10
3.64543e-10
-1.97391e-10
4.81451e-10
1.11535e-09
-2.35604e-10
6.32147e-10
1.86187e-09
-2.97235e-10
6.77198e-10
2.35262e-09
-3.17924e-10
6.96072e-10
2.4617e-09
-3.11405e-10
6.96227e-10
2.16244e-09
-2.3164e-10
6.71835e-10
1.48926e-09
-1.06833e-10
5.58889e-10
7.13174e-10
4.82428e-11
3.86381e-10
5.48572e-12
1.91679e-10
1.07807e-10
-4.49276e-10
2.76511e-10
-1.80445e-10
-6.2738e-10
2.72956e-10
-3.44708e-10
-6.00141e-10
2.05032e-10
-3.03932e-10
-4.91433e-10
1.44331e-10
-9.01437e-11
-3.55606e-10
1.58514e-10
1.75968e-10
-1.50131e-10
2.46036e-10
3.49805e-10
1.92844e-10
3.5759e-10
3.16847e-10
6.96349e-10
4.14662e-10
8.63653e-11
1.33288e-09
2.98282e-10
2.15147e-09
1.07528e-12
1.65525e-10
-2.6075e-09
1.65525e-10
-8.6057e-10
1.84581e-09
-1.71448e-10
-1.50919e-09
1.36753e-09
-2.7566e-10
-1.99509e-09
1.36452e-09
-3.5084e-10
-2.2809e-09
1.31752e-09
-3.88697e-10
-2.3395e-09
1.01627e-09
-3.57014e-10
-2.11499e-09
4.57082e-10
-3.08759e-10
-1.68326e-09
-2.15358e-10
-2.20939e-10
-1.18271e-09
-7.28498e-10
-1.50473e-10
-7.02853e-10
-8.98443e-10
-1.0472e-10
-3.2903e-10
-5.98009e-10
-8.55461e-11
-4.12909e-11
1.17557e-10
-1.23277e-10
2.26895e-10
1.00139e-09
-2.12179e-10
5.33684e-10
1.78446e-09
-2.82951e-10
8.63553e-10
2.26093e-09
-3.01446e-10
1.17999e-09
2.31879e-09
-2.44757e-10
1.42292e-09
1.97805e-09
-1.22398e-10
1.45933e-09
1.37335e-09
3.84469e-11
1.27325e-09
7.1832e-10
1.63026e-10
8.52848e-10
1.86194e-10
2.25274e-10
3.27623e-10
-1.46761e-10
1.83177e-10
-1.23599e-10
-3.38023e-10
8.01467e-11
-3.60237e-10
-4.7359e-10
-4.11866e-12
-3.61956e-10
-5.90176e-10
-1.17304e-11
-2.43659e-10
-5.98326e-10
5.4023e-11
-1.74428e-10
-3.62899e-10
1.29762e-10
-2.62136e-10
1.62111e-10
1.25698e-10
-4.88576e-10
9.11657e-10
-3.48913e-11
-6.39982e-10
1.6608e-09
-3.18515e-10
1.80039e-09
-4.60633e-10
-4.5244e-10
-1.68462e-09
-4.5244e-10
-9.64558e-10
3.14303e-09
-6.34829e-10
-1.25278e-09
2.40946e-09
-6.15105e-10
-1.39452e-09
2.22863e-09
-6.07227e-10
-1.35408e-09
1.86796e-09
-5.2373e-10
-1.13171e-09
1.20462e-09
-4.04907e-10
-8.2238e-10
3.55992e-10
-2.58092e-10
-5.56539e-10
-4.39375e-10
-1.24387e-10
-3.84472e-10
-9.50302e-10
-3.61108e-11
-3.35117e-10
-1.01011e-09
-5.28363e-12
-3.39998e-10
-5.90415e-10
-4.82762e-11
-2.59883e-10
1.79279e-10
-1.78311e-10
-2.7671e-11
1.00924e-09
-2.85531e-10
3.84242e-10
1.65022e-09
-3.40749e-10
8.91735e-10
1.99883e-09
-3.1777e-10
1.38065e-09
2.01074e-09
-2.43458e-10
1.69591e-09
1.74085e-09
-1.17408e-10
1.68772e-09
1.3575e-09
1.04098e-12
1.3725e-09
9.45233e-10
5.36691e-11
8.4787e-10
6.08685e-10
2.38648e-11
2.93207e-10
3.41997e-10
-6.79994e-11
-1.17614e-10
2.4963e-11
-1.21225e-10
-3.19243e-10
-3.2293e-10
-1.11051e-10
-3.95282e-10
-5.94398e-10
-3.91414e-11
-5.08793e-10
-5.84618e-10
2.38669e-11
-7.44408e-10
-2.03801e-10
5.39425e-14
-1.03686e-09
4.70425e-10
-1.56718e-10
-1.19934e-09
1.23364e-09
-3.84256e-10
-9.85378e-10
1.64035e-09
-4.34237e-10
1.00338e-09
-3.33251e-10
-7.81094e-10
-1.79927e-11
-7.81094e-10
-7.38726e-10
4.0353e-09
-6.85152e-10
-6.23361e-10
3.12166e-09
-6.19439e-10
-4.14542e-10
2.74826e-09
-5.68829e-10
-1.06543e-10
2.08971e-09
-4.31459e-10
2.37521e-10
1.2192e-09
-3.15034e-10
4.87272e-10
3.25387e-10
-2.05917e-10
5.14053e-10
-3.70508e-10
-8.3116e-11
3.22395e-10
-6.92142e-10
-3.55509e-11
-4.32331e-13
-5.72775e-10
-6.67514e-11
-2.84285e-10
-9.28269e-11
-1.68908e-10
-3.43751e-10
5.3977e-10
-2.82402e-10
-1.35117e-10
1.10693e-09
-3.23307e-10
2.8853e-10
1.50084e-09
-3.14495e-10
8.25659e-10
1.69113e-09
-2.67208e-10
1.28194e-09
1.70121e-09
-1.63049e-10
1.48662e-09
1.58843e-09
-5.18021e-11
1.40011e-09
1.42379e-09
9.38096e-12
1.03034e-09
1.27035e-09
-8.46282e-12
5.7907e-10
1.01181e-09
-5.44718e-11
1.56534e-10
7.1932e-10
-7.95944e-11
-1.16875e-10
2.56438e-10
-6.02779e-11
-3.06201e-10
-2.05584e-10
2.02672e-11
-5.60381e-10
-4.424e-10
8.64255e-11
-9.33987e-10
-3.06556e-10
6.22429e-11
-1.3263e-09
1.5906e-10
-7.79587e-11
-1.51705e-09
7.41119e-10
-2.66118e-10
-1.316e-09
1.09635e-09
-2.56789e-10
-7.2552e-10
1.03492e-09
-1.11025e-10
1.57771e-10
6.5828e-11
-6.41172e-10
1.42632e-09
-6.41172e-10
-1.84275e-10
4.29633e-09
-4.58415e-10
1.55392e-10
3.39851e-09
-4.15661e-10
5.62545e-10
2.8588e-09
-3.73188e-10
9.83797e-10
2.05807e-09
-2.96372e-10
1.3286e-09
1.18032e-09
-2.39829e-10
1.44638e-09
4.22476e-10
-1.44638e-10
1.26949e-09
-2.24242e-11
-7.61177e-11
8.42202e-10
-8.24867e-11
-6.51759e-11
3.29076e-10
1.60579e-10
-1.0573e-10
-6.7585e-11
5.49145e-10
-1.64425e-10
-1.87161e-10
8.79073e-10
-1.88586e-10
-6.3139e-11
1.15848e-09
-1.84191e-10
2.57164e-10
1.29159e-09
-1.30614e-10
6.28681e-10
1.36099e-09
-4.60092e-11
8.87357e-10
1.41263e-09
4.32354e-11
9.48593e-10
1.45236e-09
8.49423e-11
7.81716e-10
1.49967e-09
7.32418e-11
4.906e-10
1.48814e-09
2.70154e-11
1.71582e-10
1.29586e-09
-6.93215e-12
-5.4455e-11
9.25402e-10
2.82147e-11
-2.49564e-10
4.37623e-10
9.29024e-11
-5.3792e-10
5.36716e-11
1.5087e-10
-9.61058e-10
-3.8089e-11
1.20699e-10
-1.38758e-09
1.68913e-10
-2.0258e-11
-1.5952e-09
4.67363e-10
-1.42277e-10
-1.42305e-09
6.19823e-10
-9.41146e-11
-8.70419e-10
4.94488e-10
6.80797e-11
-2.53179e-10
1.89091e-10
2.82535e-10
-3.94926e-10
3.70089e-10
-3.47104e-10
2.27746e-09
-3.47104e-10
3.04922e-10
4.05526e-09
-2.35806e-10
7.79615e-10
3.2742e-09
-2.27771e-10
1.29947e-09
2.61796e-09
-2.00404e-10
1.77501e-09
1.78076e-09
-1.45993e-10
2.07224e-09
1.00546e-09
-6.84136e-11
2.07238e-09
4.95817e-10
4.17123e-12
1.76673e-09
3.41017e-10
4.46704e-11
1.26583e-09
4.75571e-10
4.80089e-11
7.27394e-10
7.37886e-10
3.71895e-11
3.10136e-10
9.62649e-10
3.06807e-11
9.05952e-11
1.03663e-09
4.58641e-11
6.98608e-11
1.0632e-09
8.47184e-11
1.70301e-10
1.0356e-09
1.37984e-10
2.60144e-10
1.09325e-09
1.82584e-10
2.69285e-10
1.23967e-09
1.75627e-10
1.69798e-10
1.43118e-09
1.20581e-10
-4.14611e-12
1.62546e-09
4.07959e-11
-1.69491e-10
1.69706e-09
-2.07409e-11
-3.06143e-10
1.55907e-09
-2.61548e-11
-4.40787e-10
1.24146e-09
1.32887e-11
-6.82278e-10
8.97145e-10
3.44486e-11
-1.05457e-09
6.91865e-10
-2.51435e-11
-1.42912e-09
6.61679e-10
-1.48241e-10
-1.60755e-09
6.46667e-10
-1.80087e-10
-1.42246e-09
5.26882e-10
-1.2242e-10
-9.13233e-10
2.4423e-10
4.63557e-11
-3.53843e-10
-1.10549e-10
2.57573e-10
-3.0945e-11
-2.65053e-10
3.26488e-10
-4.71952e-10
2.56992e-10
-1.08484e-10
2.58983e-09
-1.08484e-10
6.65775e-10
3.33109e-09
-5.7479e-12
1.25944e-09
2.68241e-09
1.43395e-11
1.84542e-09
1.95898e-09
6.56722e-11
2.31094e-09
1.16751e-09
1.33854e-10
2.53244e-09
5.77741e-10
2.03359e-10
2.44245e-09
3.4888e-10
2.49539e-10
2.08086e-09
4.56151e-10
2.60841e-10
1.58057e-09
7.24122e-10
2.44668e-10
1.07839e-09
9.68065e-10
2.28725e-10
6.56861e-10
1.08059e-09
2.31665e-10
3.37522e-10
1.04421e-09
2.38523e-10
1.15564e-10
9.82546e-10
2.55818e-10
-5.81287e-11
9.49933e-10
2.45923e-10
-2.14506e-10
1.06034e-09
1.91221e-10
-3.91279e-10
1.30217e-09
1.08804e-10
-5.71286e-10
1.59435e-09
5.81983e-12
-7.07335e-10
1.86145e-09
-7.88977e-11
-7.89865e-10
2.00456e-09
-1.21638e-10
-8.65851e-10
1.9677e-09
-1.27535e-10
-1.0249e-09
1.80689e-09
-1.3606e-10
-1.3024e-09
1.62175e-09
-1.83242e-10
-1.58744e-09
1.43727e-09
-2.55434e-10
-1.69937e-09
1.19537e-09
-2.6887e-10
-1.49775e-09
7.99902e-10
-1.99074e-10
-1.04012e-09
3.00136e-10
-2.73108e-11
-5.49061e-10
-1.77427e-10
1.6211e-10
-2.54774e-10
-4.17042e-10
2.23697e-10
-1.26796e-10
-2.98686e-10
1.25745e-10
-4.81341e-10
4.92614e-11
1.66544e-10
2.27145e-09
1.66544e-10
1.01263e-09
2.13253e-09
2.72257e-10
1.70156e-09
1.57752e-09
3.31505e-10
2.28825e-09
8.64681e-10
4.11895e-10
2.65312e-09
2.2882e-10
4.75069e-10
2.71993e-09
-8.78957e-11
5.01304e-10
2.50802e-09
-3.16294e-11
4.90165e-10
2.12469e-09
2.90178e-10
4.30607e-10
1.68224e-09
6.77289e-10
3.4971e-10
1.24426e-09
9.71677e-10
2.87756e-10
8.34919e-10
1.10611e-09
2.59402e-10
4.48736e-10
1.12046e-09
2.33396e-10
7.16133e-11
1.14032e-09
1.91147e-10
-2.78403e-10
1.15254e-09
1.37921e-10
-5.97443e-10
1.2859e-09
6.45608e-11
-8.66881e-10
1.52622e-09
-1.55494e-11
-1.07133e-09
1.81842e-09
-8.22191e-11
-1.20704e-09
2.10822e-09
-1.21688e-10
-1.30247e-09
2.30775e-09
-1.35227e-10
-1.4304e-09
2.37321e-09
-1.45529e-10
-1.63159e-09
2.31936e-09
-1.83654e-10
-1.83788e-09
2.12693e-09
-2.26794e-10
-1.90454e-09
1.74896e-09
-2.2463e-10
-1.72243e-09
1.16696e-09
-1.35801e-10
-1.34213e-09
4.36874e-10
4.1332e-11
-9.48141e-10
-2.1608e-10
2.09733e-10
-6.8809e-10
-6.0865e-10
2.40994e-10
-5.248e-10
-6.56845e-10
1.47621e-10
-3.0223e-10
-4.83155e-10
4.78702e-11
-8.43416e-10
1.69912e-11
4.58667e-10
1.29923e-09
4.58667e-10
1.39284e-09
4.14792e-10
6.01634e-10
2.1181e-09
-1.26438e-11
6.90111e-10
2.6068e-09
-5.61944e-10
7.55603e-10
2.77342e-09
-8.95699e-10
7.72183e-10
2.64073e-09
-8.77325e-10
7.32854e-10
2.33968e-09
-5.17682e-10
5.90161e-10
1.98569e-09
9.92038e-12
4.30872e-10
1.62967e-09
5.31805e-10
3.07854e-10
1.27684e-09
9.4445e-10
2.25325e-10
8.9857e-10
1.22196e-09
1.70934e-10
4.80172e-10
1.38582e-09
1.2109e-10
6.12988e-11
1.47214e-09
7.47858e-11
-3.65127e-10
1.5118e-09
1.8673e-11
-7.47706e-10
1.58091e-09
-3.06057e-11
-1.07139e-09
1.74257e-09
-6.46185e-11
-1.33268e-09
1.99525e-09
-8.69657e-11
-1.53552e-09
2.28436e-09
-9.6185e-11
-1.71804e-09
2.52277e-09
-1.06434e-10
-1.90529e-09
2.62329e-09
-1.3321e-10
-2.07653e-09
2.52261e-09
-1.43981e-10
-2.13356e-09
2.14221e-09
-1.11943e-10
-2.00157e-09
1.45841e-09
4.08405e-12
-1.72375e-09
5.71272e-10
1.98487e-10
-1.46907e-09
-2.72567e-10
3.69741e-10
-1.32284e-09
-8.59242e-10
4.17511e-10
-1.19753e-09
-1.13012e-09
3.13699e-10
-9.31957e-10
-1.15369e-09
1.80469e-10
-4.45775e-10
-1.21019e-09
1.54435e-10
-1.64187e-09
2.73192e-10
7.78726e-10
-3.69456e-10
7.78726e-10
1.74573e-09
-1.75116e-09
9.33893e-10
2.411e-09
-1.92957e-09
1.00133e-09
2.72684e-09
-2.14587e-09
1.02311e-09
2.69371e-09
-2.04415e-09
9.50198e-10
2.45908e-09
-1.60703e-09
7.4754e-10
2.16082e-09
-9.61079e-10
5.38048e-10
1.87881e-09
-2.5797e-10
3.66684e-10
1.61744e-09
4.08306e-10
2.41922e-10
1.33188e-09
9.95525e-10
1.52284e-10
9.8629e-10
1.46685e-09
7.77923e-11
5.8485e-10
1.77612e-09
9.8629e-12
1.55337e-10
1.90552e-09
-4.50512e-11
-2.8687e-10
1.90944e-09
-8.52367e-11
-7.06478e-10
1.88391e-09
-1.03064e-10
-1.10019e-09
1.99212e-09
-1.17659e-10
-1.45158e-09
2.22465e-09
-1.22958e-10
-1.75446e-09
2.51279e-09
-1.29875e-10
-2.00557e-09
2.72207e-09
-1.35905e-10
-2.19729e-09
2.72146e-09
-1.15612e-10
-2.27768e-09
2.40729e-09
-4.193e-11
-2.21615e-09
1.74212e-09
1.03766e-10
-2.06215e-09
7.98946e-10
3.05697e-10
-1.95032e-09
-1.95294e-10
4.84207e-10
-1.94811e-09
-1.00863e-09
5.66938e-10
-1.9438e-09
-1.5494e-09
5.23661e-10
-1.77155e-09
-1.86181e-09
4.17302e-10
-1.28807e-09
-2.13864e-09
3.56891e-10
-4.71055e-10
-2.60578e-09
4.49557e-10
-2.79463e-09
7.12207e-10
1.07258e-09
-2.67496e-09
1.07258e-09
1.95933e-09
-4.14193e-09
1.19305e-09
2.51371e-09
-3.97289e-09
1.21265e-09
2.703e-09
-3.65981e-09
1.08576e-09
2.62023e-09
-3.03526e-09
8.81601e-10
2.4119e-09
-2.21591e-09
6.65757e-10
2.19589e-09
-1.34123e-09
4.75664e-10
2.00029e-09
-4.79537e-10
3.27179e-10
1.78616e-09
3.64944e-10
2.07439e-10
1.51393e-09
1.16727e-09
9.35055e-11
1.17721e-09
1.83346e-09
-1.5844e-11
7.90544e-10
2.25736e-09
-1.07627e-10
3.66388e-10
2.40107e-09
-1.59967e-10
-8.8438e-11
2.37368e-09
-1.87156e-10
-5.79726e-10
2.34356e-09
-2.01004e-10
-1.06319e-09
2.44175e-09
-1.96899e-10
-1.50528e-09
2.66033e-09
-1.8804e-10
-1.86698e-09
2.87196e-09
-1.66993e-10
-2.13338e-09
2.91673e-09
-1.08173e-10
-2.29015e-09
2.67265e-09
-8.0797e-13
-2.32659e-09
2.06152e-09
1.68663e-10
-2.30299e-09
1.14428e-09
3.8057e-10
-2.32804e-09
6.87705e-11
5.85603e-10
-2.46052e-09
-9.36757e-10
6.99952e-10
-2.60701e-09
-1.75695e-09
6.86955e-10
-2.57446e-09
-2.41711e-09
6.18504e-10
-2.21388e-09
-3.0211e-09
5.91908e-10
-1.45384e-09
-3.76026e-09
6.47821e-10
-4.06619e-10
-4.57124e-09
8.45237e-10
-4.31199e-09
1.06351e-09
1.27296e-09
-5.40745e-09
1.27296e-09
2.01496e-09
-6.45739e-09
1.29745e-09
2.51785e-09
-5.85381e-09
1.16554e-09
2.74391e-09
-5.00807e-09
9.79662e-10
2.78855e-09
-3.93626e-09
7.7927e-10
2.74279e-09
-2.80199e-09
5.96726e-10
2.64463e-09
-1.70711e-09
4.47758e-10
2.476e-09
-6.30524e-10
3.14144e-10
2.22125e-09
4.58507e-10
1.70013e-10
1.90056e-09
1.49429e-09
1.37465e-11
1.53611e-09
2.32141e-09
-1.14884e-10
1.14378e-09
2.80852e-09
-1.94859e-10
7.01232e-10
2.98764e-09
-2.41067e-10
1.79011e-10
3.01705e-09
-2.58767e-10
-4.07523e-10
3.05969e-09
-2.62079e-10
-9.94415e-10
3.18559e-09
-2.51003e-10
-1.50363e-09
3.32754e-09
-2.2212e-10
-1.89775e-09
3.34462e-09
-1.52684e-10
-2.17484e-09
3.09627e-09
-1.62467e-11
-2.33658e-09
2.52e-09
1.70366e-10
-2.45252e-09
1.63489e-09
3.98839e-10
-2.61685e-09
5.50358e-10
6.21257e-10
-2.88264e-09
-5.96657e-10
7.84453e-10
-3.18017e-09
-1.6355e-09
8.19524e-10
-3.33757e-09
-2.59899e-09
7.64225e-10
-3.12853e-09
-3.61528e-09
7.29608e-10
-2.46155e-09
-4.74504e-09
8.32988e-10
-1.48064e-09
-5.93387e-09
1.03409e-09
-5.03821e-10
-6.84264e-09
1.20841e-09
-6.16259e-09
1.15604e-09
1.32455e-09
-8.21589e-09
1.32455e-09
2.06045e-09
-8.57093e-09
1.2325e-09
2.68247e-09
-7.60431e-09
1.05801e-09
3.12762e-09
-6.33999e-09
8.86978e-10
3.41967e-09
-4.91093e-09
7.27589e-10
3.5636e-09
-3.48272e-09
5.90597e-10
3.53197e-09
-2.0912e-09
4.55415e-10
3.31836e-09
-6.86e-10
2.93681e-10
2.97766e-09
7.17668e-10
1.00314e-10
2.58695e-09
1.98024e-09
-8.1873e-11
2.18508e-09
2.92887e-09
-2.11778e-10
1.74187e-09
3.50417e-09
-2.90719e-10
1.18515e-09
3.8188e-09
-3.33814e-10
5.09093e-10
4.01178e-09
-3.63859e-10
-2.38389e-10