/*--------------------------------*- C++ -*----------------------------------*\
| =========                 |                                                 |
| \\      /  F ield         | OpenFOAM: The Open Source CFD Toolbox           |
|  \\    /   O peration     | Version:  2312                                  |
|   \\  /    A nd           | Website:  www.openfoam.com                      |
|    \\/     M anipulation  |                                                 |
\*---------------------------------------------------------------------------*/
FoamFile
{
    version     2.0;
    format      ascii;
    arch        "LSB;label=32;scalar=64";
    class       volScalarField;
    location    "0.489491";
    object      alpha.water;
}
// * * * * * * * * * * * * * * * * * * * * * * * * * * * * * * * * * * * * * //

dimensions      [0 0 0 0 0 0 0];

internalField   nonuniform List<scalar> 
90000
(
1
0.999996
0.999997
0.999998
0.999999
1
1
1
1
1
1
1
1
0.999999
1
1
1
1
1
1
1
0.999997
0.999994
0.999993
0.999995
0.999999
1.00001
1.00001
1.00002
1.00003
0.999996
0.999994
0.999996
0.999998
1
1
1
1
1
1
1
1
1
1
1
1.00001
1.00001
1.00001
1
1
0.999996
0.999992
0.999991
0.999993
1
1.00001
1.00003
1.00005
1.0001
1.00021
0.999997
0.999994
0.999996
0.999997
0.999999
1
1
1
1
1
1
1
1
1
1
1
1
1
1
0.999999
0.999997
0.999996
0.999996
0.999999
1
1.00001
1.00001
0.999982
0.999928
1.00005
0.999996
0.999995
0.999996
0.999997
0.999998
1
1
1
1
1
1
1.00001
1.00001
1.00001
1.00001
1
1
1
0.999999
0.999999
0.999999
1
1
1.00001
1.00001
1.00001
1.00003
1.00004
0.999979
1.00001
0.999997
0.999998
0.999998
0.999998
0.999999
0.999999
1
1
1
1.00001
1.00001
1.00001
1.00001
1.00001
1.00001
1
0.999999
0.999998
0.999998
0.999999
1
1
1.00001
1.00001
1.00001
0.999999
0.999993
1
0.999981
0.999986
0.999999
1
1
1
1
0.999999
1
1
1
1.00001
1.00001
1.00001
1.00001
1.00001
1
1
0.999998
0.999996
0.999997
0.999999
1
1.00001
1.00001
1.00001
1
0.999996
0.999984
0.999981
0.999972
0.999976
1
1
1
1
1
0.999999
0.999999
1
1
1
1.00001
1.00001
1.00001
1.00001
1
1
0.999999
0.999998
0.999998
1
1
1
1
0.999999
0.999994
0.999988
0.99998
0.999974
0.99997
0.999977
1
1.00001
1
1
1
0.999998
0.999998
0.999998
0.999999
1
1
1
1
1
1
1
1
1
1
1
1
1
0.999998
0.999994
0.999989
0.999984
0.99998
0.999977
0.999977
0.999984
1
1.00001
1
1
1
0.999999
0.999998
0.999997
0.999997
0.999997
0.999997
0.999998
1
1
1
1.00001
1.00001
1.00001
1.00001
1
1
0.999997
0.999993
0.999989
0.999986
0.999984
0.999983
0.999984
0.999986
0.999991
1
1.00001
1
1
1
1
1
0.999998
0.999996
0.999994
0.999993
0.999994
0.999997
1
1
1.00001
1.00001
1.00001
1.00001
1
0.999999
0.999994
0.99999
0.999987
0.999986
0.999986
0.999987
0.999989
0.999991
0.999993
1
1.00001
1.00001
1.00001
1.00001
1.00001
1.00001
1
0.999998
0.999994
0.999991
0.999991
0.999993
0.999997
1
1
1.00001
1.00001
1
1
0.999998
0.999994
0.999991
0.99999
0.999989
0.999989
0.99999
0.999991
0.999991
0.999992
1.00001
1.00002
1.00002
1.00002
1.00002
1.00002
1.00001
1.00001
0.999999
0.999994
0.99999
0.999989
0.99999
0.999992
0.999995
0.999998
1
1
1
1
1
1
0.999999
0.999998
0.999997
0.999995
0.999995
0.999994
0.999994
0.999996
1.00001
1.00002
1.00002
1.00002
1.00002
1.00002
1.00001
1.00001
1
0.999995
0.999991
0.999989
0.999989
0.999989
0.99999
0.999992
0.999995
0.999998
1
1.00001
1.00001
1.00001
1.00001
1.00001
1.00001
1.00001
1
1
1
1.00001
1.00001
1.00002
1.00002
1.00002
1.00001
1.00001
1.00001
1
0.999999
0.999998
0.999996
0.999995
0.999993
0.999992
0.999991
0.999992
0.999995
1
1.00001
1.00002
1.00002
1.00002
1.00002
1.00002
1.00002
1.00002
1.00001
1.00001
1.00001
1.00001
1.00001
1
0.999999
0.999997
0.999996
0.999995
0.999996
0.999999
1
1
1.00001
1
1
0.999998
0.999996
0.999996
0.999999
1.00001
1.00001
1.00002
1.00002
1.00003
1.00003
1.00002
1.00002
1.00002
1.00002
1.00002
1.00001
1
0.999998
0.999977
0.999978
0.999978
0.99998
0.999984
0.999991
0.999999
1.00001
1.00001
1.00001
1.00001
1.00001
1
0.999998
0.999997
0.999999
1
1.00001
1.00001
1.00002
1.00002
1.00001
1.00001
1.00001
1.00001
1.00001
1.00001
0.999998
0.999991
0.999984
0.999959
0.999963
0.999966
0.999972
0.99998
0.99999
1
1.00001
1.00001
1.00001
1.00001
1.00001
1
0.999996
0.999994
0.999995
0.999997
0.999999
0.999999
0.999999
1
1
1
1
1
0.999998
0.999991
0.999985
0.999987
0.999974
0.999954
0.999961
0.999965
0.999973
0.999982
0.999991
0.999999
1
1.00001
1.00001
1
0.999999
0.999996
0.999994
0.999993
0.999993
0.999993
0.999991
0.99999
0.99999
0.999991
0.999994
0.999997
0.999996
0.999992
0.999987
0.999983
0.999984
0.999993
0.999973
0.999961
0.999967
0.999972
0.999979
0.999986
0.999992
0.999997
0.999999
1
0.999999
0.999998
0.999998
0.999999
0.999999
0.999998
0.999997
0.999994
0.999991
0.999989
0.999989
0.99999
0.999992
0.999991
0.999987
0.999983
0.999981
0.999984
0.99999
0.999995
0.999979
0.999973
0.999978
0.999982
0.999987
0.999992
0.999995
0.999997
0.999998
0.999998
0.999999
1
1
1.00001
1.00001
1
1
0.999996
0.999992
0.99999
0.999989
0.999989
0.999987
0.999983
0.999979
0.999978
0.999982
0.999989
0.999992
0.99999
0.999987
0.999986
0.999989
0.999993
0.999997
1
1
1
1
1
1
1.00001
1.00001
1.00001
1.00001
1
1
0.999996
0.999993
0.999991
0.999989
0.999986
0.999982
0.999979
0.999979
0.999984
0.999989
0.999992
0.999988
0.999988
0.999993
0.999996
0.999999
1
1.00001
1.00001
1.00001
1.00001
1.00001
1.00001
1.00001
1.00001
1.00001
1.00001
1
1
1
0.999999
0.999997
0.999995
0.999991
0.999987
0.999985
0.999987
0.999991
0.999996
0.999997
0.999993
0.999988
0.999992
0.999999
1
1.00001
1.00001
1.00001
1.00001
1.00001
1.00001
1.00001
1.00001
1
1
1
1
1
1
1
1
1
0.999998
0.999995
0.999993
0.999996
1
1.00001
1.00001
1
0.999996
0.999995
0.999997
1
1.00001
1.00001
1.00001
1.00002
1.00001
1.00001
1.00001
1.00001
1
1
1
1
1
1
1.00001
1.00001
1
1
0.999998
0.999998
1
1.00001
1.00001
1.00001
1.00001
1.00001
1
1.00001
1.00001
1.00001
1.00001
1.00001
1.00001
1.00001
1.00001
1.00001
1
1
1
0.999999
0.999997
0.999998
1
1
1.00001
1
1
1
1
1
1.00001
1.00001
1.00002
1.00001
1.00001
1.00001
1.00001
1.00002
1.00002
1.00001
1.00001
1.00001
1.00001
1
1
1
1
0.999999
0.999997
0.999995
0.999995
0.999997
1
1
1
1
1
1
1
1.00001
1.00001
1.00001
1.00001
1.00001
1.00001
1.00002
1.00002
1.00002
1.00002
1.00001
1.00001
1
1
0.999997
0.999995
0.999995
0.999996
0.999995
0.999994
0.999993
0.999995
0.999999
1
1
1
1
1
1
1.00001
1.00001
1.00001
1.00001
1.00001
1.00001
1.00001
1.00001
1.00001
1.00002
1.00001
1
0.999999
0.999996
0.999993
0.999991
0.999991
0.999992
0.999992
0.999992
0.999992
0.999993
0.999997
1
1
1
0.999998
0.999997
0.999998
1
1
0.999997
0.999995
0.999994
0.999994
0.999994
0.999998
1
1.00001
1.00001
1
0.999999
0.999993
0.999992
0.99999
0.999989
0.999989
0.999989
0.999989
0.999989
0.99999
0.999993
0.999997
0.999998
0.999997
0.999995
0.999994
0.999994
0.999995
0.999994
0.999991
0.999988
0.999985
0.999984
0.999984
0.999986
0.999993
1
0.999999
0.999999
1
0.999996
0.999992
0.999991
0.99999
0.999989
0.999988
0.999986
0.999986
0.999987
0.999989
0.999993
0.999995
0.999995
0.999993
0.999992
0.999992
0.999992
0.999992
0.999989
0.999986
0.999985
0.999982
0.999981
0.999983
0.999988
0.999996
0.999999
0.999996
1
1.00001
0.999996
0.999994
0.999993
0.999992
0.99999
0.999988
0.999985
0.999984
0.999985
0.999988
0.999991
0.999993
0.999992
0.999992
0.999992
0.999993
0.999993
0.999991
0.999989
0.999988
0.999987
0.999983
0.999981
0.999988
0.999994
0.999995
0.999995
0.999998
1
1
0.999997
0.999997
0.999996
0.999995
0.999992
0.999988
0.999985
0.999983
0.999983
0.999986
0.999989
0.999991
0.999992
0.999993
0.999995
0.999996
0.999995
0.999995
0.999994
0.999992
0.999989
0.999986
0.999986
0.999993
0.999994
0.999989
0.999993
1
1
0.999999
0.999999
1
1
0.999998
0.999994
0.999988
0.999983
0.999981
0.999982
0.999985
0.999988
0.999991
0.999993
0.999995
0.999997
0.999998
0.999998
0.999998
0.999997
0.999992
0.999988
0.999987
0.999989
0.999991
0.999987
0.999985
0.999994
0.999997
0.999992
0.999991
1
1
1
0.999999
0.999994
0.999988
0.999983
0.999982
0.999983
0.999986
0.999988
0.999991
0.999994
0.999996
0.999997
0.999998
0.999999
0.999997
0.999995
0.999988
0.999986
0.999989
0.999988
0.999984
0.999983
0.999988
0.999996
0.999994
0.999991
0.999994
1
1.00001
1
0.999999
0.999994
0.99999
0.999987
0.999986
0.999986
0.999987
0.999989
0.999992
0.999995
0.999997
0.999999
1
1
0.999998
0.999995
0.999991
0.999992
0.999997
0.999992
0.99999
0.999997
1
1
0.999997
0.999997
1
1
1
1
0.999999
0.999996
0.999993
0.999992
0.999991
0.99999
0.999991
0.999993
0.999995
0.999998
1
1
1
1
0.999999
0.999999
1
1
1
0.999998
1
1.00001
1
0.999999
0.999998
1
1
1
1
1
0.999999
0.999997
0.999997
0.999995
0.999994
0.999993
0.999993
0.999995
0.999998
1
1
1
1
1
0.999998
1
1.00001
1
1
1
1.00001
1.00001
1
1
1
1.00001
1
1
1
0.999999
0.999999
0.999999
0.999998
0.999996
0.999994
0.999994
0.999996
0.999998
1
1
1
1
1
1
1
1.00001
1.00001
1
1
1
0.999999
0.999996
0.999996
0.999998
0.999999
1
1.00001
0.999999
1
1
1
0.999999
0.999997
0.999996
0.999996
0.999998
1
1
0.999997
0.999997
0.999998
1
1
1
1
1
1
0.999996
1
0.999999
0.999994
0.999995
0.999999
0.999998
0.999999
1
1.00001
1
1
1
1
0.999998
0.999997
0.999998
1
1
1
0.999999
0.999998
1
1
1
1
1
1
1
1
1
1
1
1
1.00001
1.00001
1
1.00001
1.00001
1
1
1
1
1
0.999998
0.999999
1
1
1
1
0.999999
0.999999
1
1
1
1
1
1
1
0.999998
1
1
1
1
1
1
0.999999
1
1.00001
0.999999
1
1
1
1
0.999999
1
1
1
1
0.999998
0.999998
0.999997
1
1
0.999999
0.999995
0.999999
0.999998
1
1
1.00001
1.00001
1
1
1
1
1
1.00001
1
0.999996
1
1
1
1
1
1
1
1
1
0.999999
1
1
1
0.999999
0.999996
1
1.00001
1.00001
1
1
1
0.999997
1
1
0.999997
0.999998
1
1.00001
1
1
1
1
1
1
1
1
1
1
0.999999
1
1
1
0.999997
1
0.999999
1.00001
1
1
0.999999
1
0.999999
0.999994
1
1
0.999997
1
1
1.00001
0.999998
1.00001
0.999999
0.999999
1
1
1
0.999999
0.999999
1
0.999999
1
0.999998
0.999999
0.999998
1
0.999999
1.00001
1
0.999999
0.999999
0.999999
0.999996
1
1
0.999999
0.999995
1
1.00001
1
0.999998
1
0.999999
0.999998
0.999999
0.999999
1
0.999998
0.999998
0.999999
0.999996
0.999998
0.999998
0.999998
0.999996
0.999999
0.999998
0.999998
0.999998
0.999991
0.999999
1
0.999997
1
1
1
1
0.999997
0.999997
1
0.999999
1
0.999996
0.999995
0.999996
0.999996
0.999998
0.999997
0.999997
0.999999
0.999994
0.999997
0.999996
0.999997
0.999999
0.999998
0.999995
0.999998
0.999997
0.999997
0.999997
0.999995
0.999993
0.999995
0.999995
0.999994
0.999998
0.999998
0.999995
0.999997
0.999994
0.999996
0.99994
0.999938
0.999945
0.999951
0.99996
0.999972
0.999983
0.999988
0.99998
0.999989
0.999991
0.99999
0.999989
0.999991
0.999992
0.999998
0.999986
0.999989
0.999995
0.999989
0.999988
0.999982
0.999987
0.999981
0.999971
0.99996
0.999952
0.999946
0.999938
0.99994
0.998961
0.998952
0.999069
0.999203
0.999376
0.999578
0.999756
0.999901
0.999799
0.999988
0.999991
0.999991
0.999993
0.999991
0.999994
0.999997
0.99999
0.999993
0.999997
0.999992
0.999987
0.9998
0.999901
0.999755
0.999576
0.999376
0.999204
0.99907
0.998953
0.998961
0.70263
0.698824
0.69415
0.687039
0.67918
0.671609
0.665747
0.663827
0.664914
0.662585
0.658421
0.654586
0.656947
0.666015
0.669223
0.66911
0.666089
0.656903
0.6546
0.658465
0.662583
0.664914
0.663829
0.665737
0.671614
0.679184
0.687046
0.694146
0.698838
0.702598
0.0138749
0.013116
0.0114597
0.0093611
0.00738498
0.00576896
0.00535239
0.00693439
0.00910427
0.00968799
0.0109255
0.013799
0.0173106
0.020606
0.0220951
0.022067
0.0205925
0.0172975
0.0137936
0.0109158
0.00968863
0.00910628
0.00693254
0.00535125
0.0057768
0.00737389
0.00934974
0.0114558
0.0131172
0.0138806
9.78231e-08
9.57269e-08
1.65184e-07
9.37582e-07
6.41138e-06
6.11903e-05
0.000121022
0.000190375
0.000227955
0.000289132
0.000401212
0.000570392
0.000780931
0.000983685
0.000955148
0.000954865
0.000981997
0.000779074
0.000569926
0.000401064
0.000288083
0.000227024
0.000190081
0.000120933
5.96736e-05
6.3806e-06
9.3297e-07
1.64397e-07
9.53273e-08
9.74929e-08
2.20315e-07
2.92218e-07
1.02354e-06
1.20844e-06
3.66483e-06
1.56463e-05
2.47306e-05
4.21908e-05
5.94837e-05
8.85844e-05
0.000125857
0.000183752
0.000238954
0.000278251
0.000263912
0.000264215
0.000277851
0.000238609
0.000183736
0.000125962
8.84988e-05
5.92855e-05
4.2146e-05
2.47462e-05
1.58178e-05
3.674e-06
1.18007e-06
1.02679e-06
2.96456e-07
2.33917e-07
1.7674e-08
4.37636e-08
1.02291e-07
1.79974e-07
5.31862e-07
1.78248e-06
4.46472e-06
8.6338e-06
1.63355e-05
4.15563e-05
5.82652e-05
6.98565e-05
7.71552e-05
9.07879e-05
8.91085e-05
8.91058e-05
9.09476e-05
7.72122e-05
6.99836e-05
5.86051e-05
4.18758e-05
1.65664e-05
8.66869e-06
4.50389e-06
1.84683e-06
5.41422e-07
1.7975e-07
1.03404e-07
4.40785e-08
1.78704e-08
6.55822e-11
1.73354e-10
7.36301e-10
4.77252e-09
3.28964e-08
1.6903e-07
5.84176e-07
1.37306e-06
2.80966e-06
1.20931e-05
2.53127e-05
3.47331e-05
3.98843e-05
4.26762e-05
4.199e-05
4.19671e-05
4.27624e-05
4.00013e-05
3.49238e-05
2.58683e-05
1.25637e-05
2.84409e-06
1.38812e-06
5.89186e-07
1.70892e-07
3.34759e-08
4.91529e-09
7.6091e-10
1.778e-10
6.63487e-11
2.06087e-11
3.07139e-11
6.47246e-11
4.18075e-10
3.05721e-09
1.70184e-08
6.36489e-08
1.66166e-07
3.83593e-07
9.4535e-07
2.70208e-06
7.05357e-06
1.0574e-05
1.30765e-05
1.26292e-05
1.25337e-05
1.30826e-05
1.0644e-05
7.1818e-06
2.83069e-06
9.59776e-07
3.90929e-07
1.6874e-07
6.44452e-08
1.72181e-08
3.12719e-09
4.32246e-10
6.72946e-11
3.1672e-11
2.07722e-11
6.55495e-12
9.33971e-12
1.08201e-11
3.88056e-11
2.56281e-10
1.49389e-09
5.89654e-09
1.64017e-08
4.07861e-08
1.11126e-07
3.02781e-07
7.49941e-07
1.42309e-06
2.1801e-06
2.5146e-06
2.51355e-06
2.17988e-06
1.42611e-06
7.55921e-07
3.07773e-07
1.13401e-07
4.17591e-08
1.67144e-08
5.98044e-09
1.51577e-09
2.62686e-10
4.2955e-11
1.15253e-11
9.515e-12
6.71067e-12
1.14583e-12
1.90941e-12
2.77549e-12
4.45962e-12
2.13395e-11
1.18542e-10
4.84095e-10
1.40621e-09
3.66582e-09
1.06489e-08
3.16559e-08
8.78426e-08
1.90087e-07
3.35575e-07
4.3744e-07
4.37026e-07
3.35344e-07
1.90694e-07
8.85352e-08
3.22207e-08
1.09005e-08
3.75809e-09
1.4358e-09
4.91631e-10
1.20504e-10
2.20739e-11
4.65964e-12
2.84411e-12
1.92591e-12
1.19369e-12
4.29505e-13
6.68515e-13
8.71389e-13
1.14842e-12
1.85864e-12
9.185e-12
3.58679e-11
1.07227e-10
2.88729e-10
8.77068e-10
2.76462e-09
8.26055e-09
1.94357e-08
3.75045e-08
5.31179e-08
5.30952e-08
3.7494e-08
1.95174e-08
8.34695e-09
2.81819e-09
8.9999e-10
2.96777e-10
1.09653e-10
3.65479e-11
9.3437e-12
1.8709e-12
1.1698e-12
8.83137e-13
6.70749e-13
4.47978e-13
3.90093e-14
6.43807e-14
7.89503e-14
1.14746e-13
2.73453e-13
9.49081e-13
2.68131e-12
7.70742e-12
2.01525e-11
6.3227e-11
2.07041e-10
6.5034e-10
1.61987e-09
3.29327e-09
4.8745e-09
4.87567e-09
3.29402e-09
1.62383e-09
6.5775e-10
2.11585e-10
6.49252e-11
2.07912e-11
7.90066e-12
2.74258e-12
9.60356e-13
2.7937e-13
1.16678e-13
8.00011e-14
6.43834e-14
4.08737e-14
1.08912e-15
2.08588e-15
2.79714e-15
5.02265e-15
1.76469e-14
7.56697e-14
2.66271e-13
6.566e-13
1.35577e-12
4.25517e-12
1.34574e-11
4.34471e-11
1.12137e-10
2.35475e-10
3.58145e-10
3.58035e-10
2.35774e-10
1.1263e-10
4.40065e-11
1.3808e-11
4.37532e-12
1.40006e-12
6.68219e-13
2.7361e-13
7.72836e-14
1.81653e-14
5.12881e-15
2.85944e-15
2.09188e-15
1.1484e-15
3.24272e-17
6.75072e-17
9.48065e-17
1.88022e-16
7.39059e-16
3.82635e-15
1.61807e-14
4.8421e-14
1.28825e-13
3.61585e-13
8.0079e-13
2.62307e-12
6.7572e-12
1.39649e-11
2.15028e-11
2.14731e-11
1.39816e-11
6.80355e-12
2.66066e-12
8.22039e-13
3.69365e-13
1.32786e-13
4.99158e-14
1.65271e-14
3.94288e-15
7.60547e-16
1.94185e-16
9.72537e-17
6.80229e-17
3.43843e-17
1.12071e-18
2.50018e-18
3.53792e-18
7.41331e-18
3.14622e-17
1.71063e-16
7.32438e-16
2.33906e-15
6.86783e-15
2.14324e-14
6.93633e-14
2.14186e-13
4.46885e-13
7.30152e-13
1.13428e-12
1.13233e-12
7.31757e-13
4.52572e-13
2.16969e-13
7.12672e-14
2.21701e-14
7.10345e-15
2.43308e-15
7.4985e-16
1.76209e-16
3.28911e-17
7.65588e-18
3.64285e-18
2.52185e-18
1.19397e-18
3.88511e-20
9.22959e-20
1.31531e-19
2.83999e-19
1.2866e-18
7.08088e-18
2.97061e-17
9.40501e-17
2.66757e-16
8.57955e-16
3.09995e-15
1.04635e-14
2.79029e-14
6.03121e-14
9.32301e-14
9.27772e-14
6.03934e-14
2.83586e-14
1.07e-14
3.19539e-15
8.92928e-16
2.76951e-16
9.67472e-17
3.0691e-17
7.31437e-18
1.35146e-18
2.9621e-19
1.36258e-19
9.37846e-20
4.13829e-20
1.28856e-21
3.27196e-21
4.71795e-21
1.01549e-20
4.78018e-20
2.57291e-19
1.07005e-18
3.34525e-18
9.15923e-18
2.87514e-17
9.84899e-17
3.38697e-16
9.70194e-16
2.25067e-15
3.5752e-15
3.57881e-15
2.26167e-15
9.78042e-16
3.46505e-16
1.02103e-16
2.9914e-17
9.5646e-18
3.42722e-18
1.10819e-18
2.68178e-19
4.98356e-20
1.07757e-20
4.88257e-21
3.35191e-21
1.37974e-21
3.98278e-23
1.08921e-22
1.53014e-22
3.40426e-22
1.53795e-21
8.22248e-21
3.37567e-20
1.00945e-19
2.69677e-19
8.14682e-19
2.68976e-18
9.04355e-18
2.49924e-17
5.61742e-17
9.07147e-17
9.14116e-17
5.6875e-17
2.52705e-17
9.29191e-18
2.81201e-18
8.44882e-19
2.78754e-19
1.04334e-19
3.49305e-20
8.67461e-21
1.63786e-21
3.56971e-22
1.61839e-22
1.11494e-22
4.308e-23
1.14009e-24
3.25398e-24
4.58192e-24
9.89485e-24
4.39024e-23
2.30905e-22
9.07534e-22
2.59687e-21
6.7174e-21
1.927e-20
6.11834e-20
1.9744e-19
5.28217e-19
1.17747e-18
1.89586e-18
1.89217e-18
1.18247e-18
5.38164e-19
2.02668e-19
6.3298e-20
1.99927e-20
6.98152e-21
2.7216e-21
9.39023e-22
2.41219e-22
4.7219e-23
1.0516e-23
4.83347e-24
3.36378e-24
1.22416e-24
2.82375e-26
8.64166e-26
1.22459e-25
2.47938e-25
1.1215e-24
5.5306e-24
2.05349e-23
5.74363e-23
1.40562e-22
3.77881e-22
1.12893e-21
3.44913e-21
9.01844e-21
1.97484e-20
3.12075e-20
3.11083e-20
1.98257e-20
9.22352e-21
3.55589e-21
1.16591e-21
3.90566e-22
1.45047e-22
5.96177e-23
2.16651e-23
5.81876e-24
1.18299e-24
2.71112e-25
1.27439e-25
8.98744e-26
3.09065e-26
6.24628e-28
2.02958e-27
2.71154e-27
5.65409e-27
2.33435e-26
1.10429e-25
4.01168e-25
1.07132e-24
2.42382e-24
6.04752e-24
1.69239e-23
4.91833e-23
1.22718e-22
2.55222e-22
3.95393e-22
3.98943e-22
2.58956e-22
1.23625e-22
4.98816e-23
1.76125e-23
6.35289e-24
2.53289e-24
1.10893e-24
4.25677e-25
1.19785e-25
2.53621e-26
6.02284e-27
2.91226e-27
2.09416e-27
6.83962e-28
1.19225e-29
4.01557e-29
5.33075e-29
1.07052e-28
4.14951e-28
1.93936e-27
6.67249e-27
1.62218e-26
3.39951e-26
7.92704e-26
2.07554e-25
5.58904e-25
1.29726e-24
2.59411e-24
4.03354e-24
4.10354e-24
2.68349e-24
1.32638e-24
5.69161e-25
2.16586e-25
8.39758e-26
3.61743e-26
1.70984e-26
7.00851e-27
2.08106e-27
4.60548e-28
1.14124e-28
5.73124e-29
4.22802e-29
1.30981e-29
1.8737e-31
6.69785e-31
9.13173e-31
1.63635e-30
6.57391e-30
2.82983e-29
8.91537e-29
2.03085e-28
4.02435e-28
8.62311e-28
2.02313e-27
4.84529e-27
1.0493e-26
2.03722e-26
3.10028e-26
3.08814e-26
2.05715e-26
1.09152e-26
5.12201e-27
2.13508e-27
9.05326e-28
4.28961e-28
2.21059e-28
9.68804e-29
3.0307e-29
7.05782e-30
1.84362e-30
9.64935e-31
7.28165e-31
2.13638e-31
2.61513e-33
9.93314e-33
1.21448e-32
2.27609e-32
8.34043e-32
3.28479e-31
9.92194e-31
2.16238e-30
3.93229e-30
7.4596e-30
1.54774e-29
3.37084e-29
6.92822e-29
1.27205e-28
1.83692e-28
1.83256e-28
1.30096e-28
7.48129e-29
3.7493e-29
1.6901e-29
7.94392e-30
4.21496e-30
2.37401e-30
1.10893e-30
3.67059e-31
9.09507e-32
2.51674e-32
1.37012e-32
1.05665e-32
2.9448e-33
2.97792e-35
1.16947e-34
1.42709e-34
2.64099e-34
8.59168e-34
3.39415e-33
9.75525e-33
1.91672e-32
3.04663e-32
5.05686e-32
9.49016e-32
1.91122e-31
3.59021e-31
5.99022e-31
8.27457e-31
8.50097e-31
6.34796e-31
3.82873e-31
2.06788e-31
1.0588e-31
5.72646e-32
3.39918e-32
2.07209e-32
1.03788e-32
3.70975e-33
9.91876e-34
2.91102e-34
1.64216e-34
1.2906e-34
3.42601e-35
2.91036e-37
1.13823e-36
1.50673e-36
2.34429e-36
7.92427e-36
2.97086e-35
7.67998e-35
1.35327e-34
1.94586e-34
2.96383e-34
5.03278e-34
8.70898e-34
1.38463e-33
2.08772e-33
2.86465e-33
3.06219e-33
2.39703e-33
1.5606e-33
9.56497e-34
5.63495e-34
3.41317e-34
2.22491e-34
1.48746e-34
8.23661e-35
3.23295e-35
9.25462e-36
2.84074e-36
1.65061e-36
1.32288e-36
3.37458e-37
2.42853e-39
1.0561e-38
1.20567e-38
1.94073e-38
6.30248e-38
2.0487e-37
4.92546e-37
8.17214e-37
1.10072e-36
1.51905e-36
2.18495e-36
3.13664e-36
4.47067e-36
6.59733e-36
8.90587e-36
9.12502e-36
7.17292e-36
5.1424e-36
3.64817e-36
2.4557e-36
1.66644e-36
1.21995e-36
9.18075e-37
5.64988e-37
2.38489e-37
7.14842e-38
2.28969e-38
1.38623e-38
1.15095e-38
2.83995e-39
1.66787e-41
7.91325e-41
8.44987e-41
1.44144e-40
3.94567e-40
1.25212e-39
2.93914e-39
4.47839e-39
5.31176e-39
6.08616e-39
7.13965e-39
9.09585e-39
1.24648e-38
1.69447e-38
1.96366e-38
1.8343e-38
1.57087e-38
1.37507e-38
1.16659e-38
8.86889e-39
6.72866e-39
5.58941e-39
4.76217e-39
3.23428e-39
1.455e-39
4.59451e-40
1.56273e-40
9.97858e-41
8.60944e-41
2.04013e-41
1.07194e-43
4.56071e-43
5.72493e-43
8.00077e-43
2.13135e-42
6.78425e-42
1.42641e-41
1.91805e-41
1.97078e-41
1.9453e-41
2.08653e-41
2.55027e-41
3.07836e-41
3.3431e-41
3.28909e-41
3.20426e-41
3.27581e-41
3.29173e-41
2.99581e-41
2.47444e-41
2.17499e-41
2.14496e-41
2.12742e-41
1.59611e-41
7.61227e-42
2.53712e-42
9.18235e-43
6.15188e-43
5.45747e-43
1.2368e-43
5.46498e-46
2.57796e-45
2.94568e-45
3.85114e-45
1.06974e-44
2.93106e-44
5.42596e-44
6.73609e-44
6.20335e-44
5.65528e-44
5.70271e-44
6.00759e-44
5.5108e-44
4.79237e-44
4.62141e-44
5.08319e-44
5.5243e-44
5.57217e-44
5.45073e-44
5.48618e-44
6.14205e-44
7.25397e-44
8.1981e-44
6.52395e-44
3.26522e-44
1.16538e-44
4.54271e-45
3.19754e-45
2.89694e-45
6.25535e-46
2.05011e-48
1.22745e-47
1.10957e-47
1.64226e-47
4.03552e-47
9.93621e-47
1.83259e-46
2.10919e-46
1.78297e-46
1.4238e-46
1.2048e-46
9.75708e-47
7.18353e-47
5.77208e-47
5.86798e-47
6.42826e-47
6.52724e-47
6.74081e-47
8.09067e-47
1.06421e-46
1.45556e-46
1.95518e-46
2.31232e-46
2.03831e-46
1.13602e-46
4.56396e-47
1.93018e-47
1.4076e-47
1.26814e-47
2.58242e-48
7.87241e-51
3.65484e-50
3.82164e-50
5.19097e-50
1.10026e-49
2.77433e-49
4.96296e-49
4.84792e-49
3.75582e-49
2.51037e-49
1.80148e-49
1.29476e-49
9.23793e-50
7.37357e-50
6.68276e-50
5.95003e-50
5.56905e-50
6.76176e-50
1.0554e-49
1.70825e-49
2.64349e-49
4.00517e-49
5.08951e-49
5.45171e-49
3.53643e-49
1.56922e-49
6.87012e-50
5.0121e-50
4.40542e-50
8.56247e-51
2.0775e-53
8.58936e-53
1.09681e-52
1.25008e-52
2.73742e-52
6.56043e-52
9.96799e-52
8.83103e-52
5.91059e-52
3.54645e-52
2.41164e-52
1.73108e-52
1.18971e-52
7.90161e-53
5.41625e-53
4.18358e-53
4.55917e-53
7.43453e-53
1.41567e-52
2.5335e-52
4.18454e-52
6.94035e-52
1.04786e-51
1.24595e-51
9.14679e-52
4.1913e-52
1.85132e-52
1.36684e-52
1.21801e-52
2.33706e-53
3.08619e-56
2.32534e-55
2.10911e-55
2.55385e-55
5.60616e-55
1.18734e-54
1.70214e-54
1.48855e-54
9.24165e-55
5.31552e-55
3.55088e-55
2.37479e-55
1.35568e-55
7.17656e-56
4.4355e-56
3.90961e-56
5.2986e-56
9.54774e-56
1.81515e-55
3.20354e-55
5.49182e-55
1.00756e-54
1.7648e-54
2.24038e-54
1.76491e-54
8.23311e-55
3.81592e-55
3.00218e-55
2.84265e-55
5.42581e-56
7.62713e-59
4.68694e-58
3.58171e-58
4.75151e-58
8.71179e-58
1.82357e-57
2.60531e-57
2.19741e-57
1.25425e-57
7.02506e-58
4.42936e-58
2.56268e-58
1.25044e-58
6.45147e-59
4.5581e-59
4.61631e-59
6.1534e-59
9.9342e-59
1.79581e-58
3.32974e-58
6.48741e-58
1.37629e-57
2.71389e-57
3.5228e-57
2.83089e-57
1.34017e-57
6.70405e-58
5.70066e-58
5.72373e-58
1.07115e-58
2.15053e-61
5.44018e-61
7.381e-61
8.92813e-61
1.54493e-60
3.39589e-60
4.08869e-60
3.1264e-60
1.61942e-60
8.59486e-61
4.81885e-61
2.4619e-61
1.17803e-61
6.88619e-62
5.44902e-62
5.37531e-62
6.47062e-62
9.87797e-62
1.95222e-61
4.25988e-61
9.5221e-61
2.15371e-60
4.23074e-60
5.19716e-60
4.01617e-60
1.92878e-60
1.0514e-60
9.51393e-61
9.98211e-61
1.83229e-61
1.64602e-64
1.04555e-63
1.5527e-63
1.66955e-63
3.05623e-63
6.08392e-63
6.07898e-63
4.57465e-63
2.30072e-63
1.15025e-63
5.77217e-64
2.74572e-64
1.34323e-64
8.17102e-65
6.15367e-65
5.53701e-65
6.57946e-65
1.11093e-64
2.54427e-64
6.1146e-64
1.3735e-63
2.91712e-63
5.43243e-63
6.32539e-63
5.05891e-63
2.64841e-63
1.58604e-63
1.5044e-63
1.61014e-63
2.87442e-64
2.79345e-67
3.17564e-66
2.7123e-66
2.72209e-66
4.52332e-66
7.51584e-66
7.16145e-66
5.68682e-66
2.86527e-66
1.32765e-66
6.04695e-67
2.696e-67
1.25094e-67
6.88696e-68
4.60791e-68
4.05374e-68
5.43448e-68
1.09336e-67
2.78123e-67
6.69231e-67
1.42209e-66
2.93002e-66
5.83683e-66
7.29336e-66
6.93989e-66
4.05244e-66
2.51219e-66
2.37536e-66
2.47716e-66
4.23067e-67
9.57003e-70
4.65071e-69
3.52068e-69
3.57305e-69
5.39886e-69
8.3919e-69
8.17001e-69
6.39348e-69
2.97953e-69
1.21196e-69
4.9356e-70
2.04035e-70
8.71061e-71
4.31851e-71
2.79459e-71
2.77757e-71
4.51785e-71
1.03456e-70
2.66542e-70
6.13984e-70
1.29231e-69
2.87614e-69
6.66051e-69
9.70047e-69
1.0218e-68
6.09821e-69
3.65828e-69
3.36794e-69
3.48158e-69
5.85444e-70
9.9838e-73
3.3388e-72
3.91425e-72
4.2092e-72
6.55255e-72
9.97811e-72
9.5621e-72
6.71274e-72
2.75569e-72
9.79368e-73
3.74653e-73
1.56002e-73
6.75472e-74
3.45875e-74
2.4574e-74
2.75971e-74
4.74349e-74
1.04121e-73
2.45301e-73
5.35381e-73
1.17343e-72
2.90153e-72
7.40572e-72
1.14337e-71
1.1764e-71
6.75867e-72
4.14231e-72
3.98824e-72
4.53796e-72
7.94071e-73
5.63083e-76
5.7971e-75
5.7616e-75
5.66411e-75
7.6831e-75
1.00284e-74
9.36701e-75
6.10632e-75
2.31509e-75
7.91674e-76
3.2143e-76
1.46941e-76
6.82828e-77
3.68895e-77
2.71033e-77
2.93156e-77
4.48402e-77
8.43156e-77
1.79396e-76
3.95091e-76
9.44497e-76
2.54474e-75
6.63536e-75
9.73597e-75
9.47176e-75
5.53798e-75
3.95241e-75
4.35986e-75
5.82374e-75
1.05639e-75
1.48035e-78
1.37876e-77
8.77078e-78
7.31468e-78
7.7511e-78
9.31416e-78
9.35348e-78
6.16397e-78
2.30175e-78
8.31385e-79
3.70374e-79
1.76228e-79
8.03438e-80
4.14274e-80
2.81064e-80
2.66427e-80
3.49309e-80
5.90949e-80
1.26192e-79
3.07187e-79
8.11374e-79
2.25585e-78
5.60982e-78
7.55325e-78
7.1171e-78
4.61562e-78
3.71649e-78
4.763e-78
6.95388e-78
1.23283e-78
4.42553e-81
1.36246e-80
9.24479e-81
6.32967e-81
6.88076e-81
1.01888e-80
1.09044e-80
7.09925e-81
2.66659e-81
1.02909e-81
4.65007e-82
2.07357e-82
8.62765e-83
4.13056e-83
2.64363e-83
2.35725e-83
2.98676e-83
5.17532e-83
1.19668e-82
3.16743e-82
8.54458e-82
2.25804e-81
5.14223e-81
6.601e-81
6.15112e-81
4.2984e-81
3.56542e-81
4.67842e-81
6.66052e-81
1.11161e-81
1.86309e-84
6.42219e-84
7.05665e-84
5.66968e-84
7.64726e-84
1.23726e-83
1.15569e-83
6.39349e-84
2.36684e-84
9.01322e-85
3.70424e-85
1.44891e-85
5.63764e-86
2.78086e-86
1.92877e-86
1.87392e-86
2.56249e-86
4.74862e-86
1.14271e-85
3.0308e-85
7.87041e-85
1.97666e-84
4.39806e-84
5.86361e-84
5.67245e-84
4.09367e-84
3.24312e-84
3.92699e-84
4.93076e-84
7.79086e-85
9.91513e-88
1.11282e-86
9.98193e-87
8.34066e-87
1.22537e-86
1.46459e-86
9.80793e-87
4.26767e-87
1.4473e-87
4.64591e-88
1.49687e-88
4.92818e-89
1.94826e-89
1.14589e-89
9.58332e-90
1.05989e-89
1.55385e-89
2.94803e-89
7.04757e-89
1.84228e-88
4.85523e-88
1.30972e-87
3.30611e-87
5.28156e-87
5.70448e-87
4.16702e-87
3.05403e-87
3.16525e-87
3.29894e-87
5.00188e-88
2.37759e-90
2.27721e-89
1.56962e-89
1.35084e-89
1.63491e-89
1.34341e-89
7.84418e-90
3.21345e-90
9.70377e-91
2.44969e-91
6.24851e-92
1.91885e-92
8.00134e-93
5.05474e-93
4.35686e-93
4.74977e-93
6.75281e-93
1.2527e-92
2.9939e-92
8.22748e-92
2.50481e-91
8.40948e-91
2.69829e-90
5.42843e-90
6.51588e-90
4.69707e-90
3.07398e-90
2.73442e-90
2.41422e-90
3.59654e-91
4.89635e-93
1.79329e-92
1.34824e-92
1.07017e-92
1.21367e-92
1.07125e-92
7.50597e-93
3.15382e-93
8.395e-94
1.83525e-94
4.4506e-95
1.37442e-95
5.62925e-96
3.14213e-96
2.23645e-96
2.13672e-96
2.92585e-96
5.6152e-96
1.43501e-95
4.35364e-95
1.51903e-94
6.06239e-94
2.32071e-93
5.44341e-93
6.90308e-93
4.87345e-93
2.95896e-93
2.50716e-93
2.14313e-93
3.31724e-94
1.78547e-96
8.27517e-96
9.84371e-96
8.62139e-96
1.01689e-95
1.10368e-95
7.99637e-96
2.82835e-96
6.21502e-97
1.27536e-97
3.23455e-98
9.9328e-99
3.54068e-99
1.56764e-99
9.21252e-100
8.64164e-100
1.33919e-99
2.98189e-99
8.45048e-99
2.68009e-98
9.52142e-98
3.85968e-97
1.55096e-96
3.95148e-96
5.28089e-96
4.02707e-96
2.6641e-96
2.47421e-96
2.42749e-96
4.04629e-97
1.2415e-99
1.45678e-98
1.40104e-98
1.13487e-98
1.4314e-98
1.44301e-98
7.23438e-99
1.70425e-99
3.00211e-100
6.04962e-101
1.55213e-101
4.30425e-102
1.23143e-102
4.3717e-103
2.59313e-103
2.93272e-103
5.66286e-103
1.50738e-102
4.52414e-102
1.37572e-101
4.47284e-101
1.69425e-100
6.79101e-100
1.95486e-99
3.03791e-99
3.03692e-99
2.4866e-99
2.83613e-99
3.37023e-99
5.88576e-100
2.86781e-102
2.58452e-101
1.83222e-101
1.4862e-101
1.81098e-101
1.49093e-101
4.58846e-102
7.47905e-103
1.25687e-103
2.61619e-104
6.2944e-105
1.48173e-105
3.66737e-106
1.26978e-106
7.92302e-107
1.00328e-106
2.19856e-106
6.11666e-106
1.82595e-105
5.27779e-105
1.63752e-104
6.20775e-104
2.66911e-103
9.21163e-103
1.96653e-102
2.60718e-102
2.61306e-102
3.55575e-102
4.79869e-102
8.29234e-103
4.8188e-105
2.00103e-104
1.3826e-104
1.22626e-104
1.36569e-104
8.57722e-105
2.28561e-105
4.15055e-106
7.93369e-107
1.56874e-107
3.2173e-108
6.29012e-109
1.3564e-109
4.39086e-110
2.5697e-110
3.00861e-110
6.0089e-110
1.62893e-109
5.19023e-109
1.77422e-108
6.77153e-108
3.05452e-107
1.50351e-106
6.28676e-106
1.65657e-105
2.53587e-105
2.75901e-105
3.98225e-105
5.57602e-105
9.23607e-106
1.693e-105
1.693e-105
4.6389e-105
6.84582e-105
4.28324e-105
1.50893e-105
3.25686e-106
5.4244e-107
9.00831e-108
1.53735e-108
2.6065e-109
5.21942e-110
1.49184e-110
6.82501e-111
3.78095e-111
3.36184e-114
4.0937e-114
1.35661e-113
1.85671e-110
1.02654e-109
5.86935e-109
3.23929e-108
1.81173e-107
1.04857e-106
4.76464e-106
1.33712e-105
2.21139e-105
1.62741e-105
7.3229e-106
7.3229e-106
0.999996
0.999995
0.999996
0.999998
1
1
1
1.00001
1
1
1
1
1
1
1
1.00001
1.00001
1.00001
1.00001
1
0.999996
0.999991
0.999989
0.999991
0.999998
1.00001
1.00002
1.00002
0.999989
0.999864
0.999994
0.999993
0.999996
0.999998
1
1
1.00001
1.00001
1.00001
1
1
1
1
1
1.00001
1.00001
1.00001
1.00001
1
0.999999
0.999993
0.999989
0.999989
0.999994
1
1.00002
1.00003
1.00004
1.00005
1.00003
0.999994
0.999993
0.999995
0.999997
0.999999
1
1
1
1
1
1
1
1.00001
1.00001
1.00001
1.00001
1.00001
1
1
0.999999
0.999997
0.999997
0.999999
1
1.00001
1.00002
1.00004
1.00005
0.999993
1.00001
0.999995
0.999995
0.999996
0.999997
0.999998
0.999999
1
1
1
1.00001
1.00001
1.00001
1.00001
1.00001
1.00001
1
1
1
0.999999
1
1
1
1.00001
1.00001
1.00001
0.999999
0.999998
1.00003
0.999987
0.999991
0.999998
0.999998
0.999998
0.999998
0.999998
0.999999
1
1
1
1.00001
1.00001
1.00001
1.00001
1.00001
1.00001
1
0.999997
0.999996
0.999997
1
1
1.00001
1.00001
1.00001
1.00001
0.999998
0.999978
0.999991
0.999971
0.999976
1
1
1
1
0.999999
0.999998
0.999999
1
1
1.00001