/*--------------------------------*- C++ -*----------------------------------*\
| =========                 |                                                 |
| \\      /  F ield         | OpenFOAM: The Open Source CFD Toolbox           |
|  \\    /   O peration     | Version:  2312                                  |
|   \\  /    A nd           | Website:  www.openfoam.com                      |
|    \\/     M anipulation  |                                                 |
\*---------------------------------------------------------------------------*/
FoamFile
{
    version     2.0;
    format      ascii;
    arch        "LSB;label=32;scalar=64";
    class       volScalarField;
    location    "0.489491";
    object      epsilon;
}
// * * * * * * * * * * * * * * * * * * * * * * * * * * * * * * * * * * * * * //

dimensions      [0 2 -3 0 0 0 0];

internalField   nonuniform List<scalar> 
90000
(
1.33376e-05
1.33381e-05
1.33382e-05
1.33382e-05
1.33382e-05
1.33382e-05
1.33382e-05
1.33382e-05
1.33381e-05
1.33381e-05
1.33381e-05
1.33381e-05
1.33381e-05
1.33381e-05
1.33381e-05
1.33381e-05
1.33382e-05
1.33382e-05
1.33382e-05
1.33382e-05
1.33381e-05
1.3338e-05
1.33381e-05
1.33382e-05
1.33383e-05
1.33384e-05
1.33384e-05
1.33382e-05
1.3338e-05
1.33377e-05
1.33381e-05
1.33535e-05
1.3354e-05
1.3354e-05
1.3354e-05
1.3354e-05
1.3354e-05
1.3354e-05
1.3354e-05
1.3354e-05
1.3354e-05
1.3354e-05
1.3354e-05
1.3354e-05
1.3354e-05
1.3354e-05
1.3354e-05
1.33539e-05
1.33538e-05
1.33538e-05
1.33538e-05
1.33538e-05
1.33538e-05
1.33538e-05
1.33537e-05
1.33536e-05
1.33537e-05
1.33538e-05
1.33534e-05
1.33383e-05
1.33382e-05
1.33541e-05
1.33547e-05
1.33547e-05
1.33547e-05
1.33547e-05
1.33547e-05
1.33547e-05
1.33547e-05
1.33547e-05
1.33547e-05
1.33547e-05
1.33547e-05
1.33547e-05
1.33546e-05
1.33546e-05
1.33545e-05
1.33545e-05
1.33546e-05
1.33547e-05
1.33547e-05
1.33547e-05
1.33546e-05
1.33546e-05
1.33547e-05
1.33548e-05
1.33549e-05
1.3355e-05
1.33543e-05
1.33384e-05
1.33383e-05
1.33543e-05
1.33549e-05
1.33549e-05
1.33549e-05
1.33549e-05
1.33549e-05
1.33548e-05
1.33548e-05
1.33548e-05
1.33548e-05
1.33548e-05
1.33547e-05
1.33547e-05
1.33546e-05
1.33545e-05
1.33546e-05
1.33547e-05
1.33548e-05
1.33548e-05
1.33548e-05
1.33548e-05
1.33548e-05
1.33549e-05
1.33551e-05
1.33552e-05
1.33552e-05
1.33551e-05
1.33542e-05
1.33384e-05
1.33384e-05
1.33545e-05
1.33551e-05
1.33551e-05
1.33551e-05
1.33551e-05
1.33551e-05
1.3355e-05
1.33549e-05
1.33549e-05
1.33548e-05
1.33548e-05
1.33547e-05
1.33546e-05
1.33545e-05
1.33545e-05
1.33546e-05
1.33547e-05
1.33548e-05
1.33548e-05
1.33548e-05
1.33548e-05
1.3355e-05
1.33551e-05
1.33552e-05
1.33552e-05
1.33551e-05
1.3355e-05
1.33543e-05
1.33385e-05
1.33387e-05
1.33548e-05
1.33553e-05
1.33553e-05
1.33553e-05
1.33553e-05
1.33552e-05
1.33551e-05
1.3355e-05
1.33549e-05
1.33548e-05
1.33547e-05
1.33546e-05
1.33545e-05
1.33545e-05
1.33545e-05
1.33545e-05
1.33546e-05
1.33546e-05
1.33547e-05
1.33548e-05
1.3355e-05
1.33551e-05
1.33551e-05
1.33551e-05
1.3355e-05
1.3355e-05
1.3355e-05
1.33545e-05
1.33385e-05
1.3339e-05
1.3355e-05
1.33555e-05
1.33555e-05
1.33554e-05
1.33554e-05
1.33553e-05
1.33552e-05
1.33551e-05
1.33549e-05
1.33547e-05
1.33546e-05
1.33545e-05
1.33544e-05
1.33544e-05
1.33544e-05
1.33544e-05
1.33544e-05
1.33545e-05
1.33547e-05
1.33549e-05
1.3355e-05
1.33551e-05
1.33551e-05
1.3355e-05
1.33551e-05
1.33551e-05
1.33551e-05
1.33545e-05
1.33386e-05
1.33392e-05
1.33552e-05
1.33557e-05
1.33556e-05
1.33555e-05
1.33555e-05
1.33554e-05
1.33553e-05
1.33552e-05
1.3355e-05
1.33547e-05
1.33545e-05
1.33544e-05
1.33543e-05
1.33543e-05
1.33544e-05
1.33544e-05
1.33545e-05
1.33547e-05
1.33549e-05
1.33551e-05
1.33552e-05
1.33552e-05
1.33551e-05
1.33552e-05
1.33552e-05
1.33552e-05
1.33552e-05
1.33545e-05
1.33387e-05
1.33393e-05
1.33554e-05
1.33558e-05
1.33557e-05
1.33556e-05
1.33556e-05
1.33555e-05
1.33554e-05
1.33553e-05
1.33551e-05
1.33549e-05
1.33546e-05
1.33544e-05
1.33543e-05
1.33544e-05
1.33545e-05
1.33546e-05
1.33548e-05
1.3355e-05
1.33552e-05
1.33553e-05
1.33554e-05
1.33554e-05
1.33553e-05
1.33553e-05
1.33554e-05
1.33554e-05
1.33553e-05
1.33547e-05
1.3339e-05
1.33393e-05
1.33555e-05
1.33559e-05
1.33558e-05
1.33558e-05
1.33557e-05
1.33556e-05
1.33555e-05
1.33554e-05
1.33552e-05
1.33551e-05
1.33549e-05
1.33547e-05
1.33545e-05
1.33545e-05
1.33547e-05
1.33549e-05
1.33552e-05
1.33554e-05
1.33556e-05
1.33556e-05
1.33556e-05
1.33556e-05
1.33556e-05
1.33555e-05
1.33556e-05
1.33556e-05
1.33556e-05
1.33551e-05
1.33395e-05
1.33394e-05
1.33557e-05
1.33561e-05
1.33561e-05
1.3356e-05
1.33559e-05
1.33558e-05
1.33557e-05
1.33555e-05
1.33554e-05
1.33553e-05
1.33551e-05
1.33549e-05
1.33547e-05
1.33546e-05
1.33548e-05
1.33551e-05
1.33555e-05
1.33557e-05
1.33558e-05
1.33559e-05
1.33559e-05
1.33559e-05
1.33558e-05
1.33558e-05
1.33559e-05
1.3356e-05
1.33561e-05
1.33556e-05
1.33399e-05
1.33398e-05
1.33561e-05
1.33566e-05
1.33565e-05
1.33564e-05
1.33563e-05
1.33561e-05
1.33558e-05
1.33556e-05
1.33555e-05
1.33554e-05
1.33553e-05
1.33552e-05
1.3355e-05
1.33547e-05
1.33548e-05
1.33552e-05
1.33555e-05
1.33557e-05
1.33559e-05
1.3356e-05
1.3356e-05
1.33561e-05
1.33562e-05
1.33562e-05
1.33563e-05
1.33565e-05
1.33566e-05
1.3356e-05
1.33402e-05
1.33404e-05
1.33567e-05
1.33572e-05
1.33571e-05
1.33569e-05
1.33567e-05
1.33565e-05
1.33562e-05
1.33559e-05
1.33557e-05
1.33556e-05
1.33555e-05
1.33554e-05
1.33551e-05
1.33548e-05
1.33547e-05
1.3355e-05
1.33553e-05
1.33556e-05
1.33558e-05
1.3356e-05
1.33562e-05
1.33564e-05
1.33566e-05
1.33567e-05
1.33568e-05
1.33569e-05
1.3357e-05
1.33564e-05
1.33406e-05
1.33415e-05
1.33574e-05
1.33579e-05
1.33577e-05
1.33575e-05
1.33572e-05
1.33569e-05
1.33566e-05
1.33563e-05
1.33561e-05
1.33559e-05
1.33557e-05
1.33555e-05
1.33552e-05
1.33549e-05
1.33548e-05
1.33549e-05
1.33551e-05
1.33554e-05
1.33557e-05
1.33561e-05
1.33565e-05
1.33568e-05
1.33571e-05
1.33573e-05
1.33574e-05
1.33575e-05
1.33575e-05
1.33569e-05
1.33411e-05
1.33428e-05
1.33581e-05
1.33585e-05
1.33583e-05
1.3358e-05
1.33577e-05
1.33574e-05
1.3357e-05
1.33567e-05
1.33565e-05
1.33562e-05
1.33558e-05
1.33555e-05
1.33552e-05
1.33549e-05
1.33548e-05
1.33548e-05
1.3355e-05
1.33553e-05
1.33559e-05
1.33564e-05
1.33569e-05
1.33574e-05
1.33577e-05
1.3358e-05
1.33581e-05
1.33582e-05
1.33582e-05
1.33575e-05
1.33417e-05
1.3344e-05
1.33587e-05
1.33592e-05
1.3359e-05
1.33586e-05
1.33583e-05
1.33579e-05
1.33576e-05
1.33573e-05
1.3357e-05
1.33565e-05
1.3356e-05
1.33555e-05
1.33551e-05
1.33549e-05
1.33547e-05
1.33548e-05
1.33551e-05
1.33556e-05
1.33562e-05
1.33569e-05
1.33575e-05
1.33581e-05
1.33585e-05
1.33587e-05
1.33589e-05
1.3359e-05
1.3359e-05
1.33583e-05
1.33426e-05
1.33451e-05
1.33595e-05
1.336e-05
1.33597e-05
1.33594e-05
1.33591e-05
1.33588e-05
1.33585e-05
1.33581e-05
1.33576e-05
1.33569e-05
1.33562e-05
1.33556e-05
1.33551e-05
1.33548e-05
1.33547e-05
1.33549e-05
1.33553e-05
1.3356e-05
1.33567e-05
1.33576e-05
1.33583e-05
1.33589e-05
1.33593e-05
1.33596e-05
1.33598e-05
1.336e-05
1.336e-05
1.33594e-05
1.33439e-05
1.33461e-05
1.33605e-05
1.33611e-05
1.33609e-05
1.33606e-05
1.33604e-05
1.33601e-05
1.33597e-05
1.33591e-05
1.33584e-05
1.33575e-05
1.33566e-05
1.33559e-05
1.33553e-05
1.33548e-05
1.33547e-05
1.33551e-05
1.33558e-05
1.33566e-05
1.33575e-05
1.33584e-05
1.33592e-05
1.33599e-05
1.33604e-05
1.33608e-05
1.33611e-05
1.33613e-05
1.33614e-05
1.3361e-05
1.33456e-05
1.33474e-05
1.33619e-05
1.33626e-05
1.33624e-05
1.33622e-05
1.3362e-05
1.33616e-05
1.3361e-05
1.33603e-05
1.33593e-05
1.33583e-05
1.33573e-05
1.33564e-05
1.33556e-05
1.3355e-05
1.33549e-05
1.33556e-05
1.33565e-05
1.33575e-05
1.33586e-05
1.33595e-05
1.33604e-05
1.33611e-05
1.33617e-05
1.33623e-05
1.33627e-05
1.3363e-05
1.33633e-05
1.3363e-05
1.33476e-05
1.33491e-05
1.33638e-05
1.33645e-05
1.33643e-05
1.33641e-05
1.33639e-05
1.33634e-05
1.33627e-05
1.33617e-05
1.33607e-05
1.33595e-05
1.33583e-05
1.33572e-05
1.33562e-05
1.33554e-05
1.33554e-05
1.33562e-05
1.33574e-05
1.33586e-05
1.33597e-05
1.33607e-05
1.33617e-05
1.33625e-05
1.33633e-05
1.3364e-05
1.33646e-05
1.33651e-05
1.33655e-05
1.33651e-05
1.33496e-05
1.33514e-05
1.33663e-05
1.33668e-05
1.33667e-05
1.33665e-05
1.33661e-05
1.33655e-05
1.33647e-05
1.33636e-05
1.33623e-05
1.3361e-05
1.33596e-05
1.33582e-05
1.33569e-05
1.33559e-05
1.33559e-05
1.3357e-05
1.33583e-05
1.33597e-05
1.33609e-05
1.33621e-05
1.33632e-05
1.33642e-05
1.33652e-05
1.33661e-05
1.33669e-05
1.33674e-05
1.33678e-05
1.33673e-05
1.33518e-05
1.33543e-05
1.33693e-05
1.33699e-05
1.33698e-05
1.33695e-05
1.3369e-05
1.33682e-05
1.33671e-05
1.33658e-05
1.33643e-05
1.33627e-05
1.3361e-05
1.33592e-05
1.33576e-05
1.33563e-05
1.33565e-05
1.33578e-05
1.33593e-05
1.33609e-05
1.33623e-05
1.33637e-05
1.33651e-05
1.33664e-05
1.33677e-05
1.33688e-05
1.33697e-05
1.33703e-05
1.33706e-05
1.33701e-05
1.33548e-05
1.33581e-05
1.33733e-05
1.33739e-05
1.33737e-05
1.33732e-05
1.33725e-05
1.33714e-05
1.337e-05
1.33684e-05
1.33666e-05
1.33646e-05
1.33625e-05
1.33603e-05
1.33584e-05
1.3357e-05
1.33572e-05
1.33587e-05
1.33606e-05
1.33624e-05
1.33642e-05
1.3366e-05
1.33677e-05
1.33694e-05
1.3371e-05
1.33723e-05
1.33733e-05
1.3374e-05
1.33743e-05
1.33739e-05
1.33589e-05
1.33629e-05
1.33785e-05
1.33789e-05
1.33785e-05
1.33778e-05
1.33767e-05
1.33752e-05
1.33734e-05
1.33714e-05
1.33692e-05
1.33668e-05
1.33643e-05
1.33618e-05
1.33596e-05
1.3358e-05
1.33582e-05
1.336e-05
1.33622e-05
1.33645e-05
1.33667e-05
1.3369e-05
1.33712e-05
1.33733e-05
1.33751e-05
1.33767e-05
1.33777e-05
1.33785e-05
1.33791e-05
1.33791e-05
1.33641e-05
1.33691e-05
1.33848e-05
1.3385e-05
1.33843e-05
1.33832e-05
1.33816e-05
1.33797e-05
1.33775e-05
1.33751e-05
1.33724e-05
1.33696e-05
1.33667e-05
1.33639e-05
1.33613e-05
1.33595e-05
1.33597e-05
1.33618e-05
1.33644e-05
1.33672e-05
1.33699e-05
1.33727e-05
1.33754e-05
1.33779e-05
1.338e-05
1.33816e-05
1.33829e-05
1.33841e-05
1.3385e-05
1.33852e-05
1.33701e-05
1.33766e-05
1.33921e-05
1.3392e-05
1.3391e-05
1.33894e-05
1.33875e-05
1.33853e-05
1.33827e-05
1.33798e-05
1.33767e-05
1.33734e-05
1.337e-05
1.33667e-05
1.33637e-05
1.33614e-05
1.33615e-05
1.33638e-05
1.33669e-05
1.33703e-05
1.33738e-05
1.33772e-05
1.33803e-05
1.33831e-05
1.33855e-05
1.33875e-05
1.33892e-05
1.33908e-05
1.33921e-05
1.33923e-05
1.33771e-05
1.33855e-05
1.34006e-05
1.34002e-05
1.33988e-05
1.3397e-05
1.33948e-05
1.33922e-05
1.33892e-05
1.33858e-05
1.33821e-05
1.33782e-05
1.33742e-05
1.33701e-05
1.33664e-05
1.33636e-05
1.33636e-05
1.33662e-05
1.33699e-05
1.33741e-05
1.33783e-05
1.33824e-05
1.33862e-05
1.33894e-05
1.33922e-05
1.33948e-05
1.33971e-05
1.3399e-05
1.34005e-05
1.34007e-05
1.33856e-05
1.33959e-05
1.34105e-05
1.341e-05
1.34084e-05
1.34063e-05
1.34038e-05
1.34007e-05
1.33971e-05
1.3393e-05
1.33886e-05
1.33839e-05
1.3379e-05
1.33741e-05
1.33695e-05
1.33662e-05
1.33661e-05
1.33692e-05
1.33738e-05
1.33789e-05
1.3384e-05
1.33889e-05
1.33932e-05
1.33971e-05
1.34006e-05
1.34038e-05
1.34066e-05
1.34088e-05
1.34103e-05
1.34107e-05
1.33959e-05
1.34081e-05
1.34225e-05
1.34218e-05
1.342e-05
1.34177e-05
1.34146e-05
1.3411e-05
1.34066e-05
1.34017e-05
1.33964e-05
1.33908e-05
1.3385e-05
1.3379e-05
1.33736e-05
1.33697e-05
1.33696e-05
1.33734e-05
1.33789e-05
1.3385e-05
1.33911e-05
1.33967e-05
1.34019e-05
1.34065e-05
1.34108e-05
1.34147e-05
1.34179e-05
1.34203e-05
1.34221e-05
1.34227e-05
1.34082e-05
1.34228e-05
1.3437e-05
1.34362e-05
1.34341e-05
1.34313e-05
1.34276e-05
1.34232e-05
1.34181e-05
1.34123e-05
1.34061e-05
1.33994e-05
1.33924e-05
1.33853e-05
1.33788e-05
1.33744e-05
1.33744e-05
1.33788e-05
1.33853e-05
1.33924e-05
1.33995e-05
1.34062e-05
1.34124e-05
1.34181e-05
1.34233e-05
1.34277e-05
1.34313e-05
1.34341e-05
1.34363e-05
1.34372e-05
1.34229e-05
1.34404e-05
1.34544e-05
1.34534e-05
1.34509e-05
1.34475e-05
1.34432e-05
1.3438e-05
1.3432e-05
1.34253e-05
1.34179e-05
1.341e-05
1.34016e-05
1.33932e-05
1.33856e-05
1.33806e-05
1.33806e-05
1.33857e-05
1.33932e-05
1.34016e-05
1.34099e-05
1.34179e-05
1.34254e-05
1.34322e-05
1.34383e-05
1.34434e-05
1.34475e-05
1.34509e-05
1.34535e-05
1.34546e-05
1.34406e-05
1.34615e-05
1.34753e-05
1.3474e-05
1.34711e-05
1.34671e-05
1.34621e-05
1.3456e-05
1.3449e-05
1.34412e-05
1.34325e-05
1.3423e-05
1.3413e-05
1.34032e-05
1.33944e-05
1.33887e-05
1.33888e-05
1.33947e-05
1.34034e-05
1.34131e-05
1.34229e-05
1.34324e-05
1.34413e-05
1.34494e-05
1.34564e-05
1.34623e-05
1.34671e-05
1.34711e-05
1.34741e-05
1.34754e-05
1.34616e-05
1.34866e-05
1.35001e-05
1.34985e-05
1.34951e-05
1.34905e-05
1.34847e-05
1.34778e-05
1.34697e-05
1.34605e-05
1.34503e-05
1.34391e-05
1.34274e-05
1.34159e-05
1.34059e-05
1.33993e-05
1.33995e-05
1.34062e-05
1.34161e-05
1.34274e-05
1.3439e-05
1.34503e-05
1.34607e-05
1.347e-05
1.3478e-05
1.34849e-05
1.34906e-05
1.34951e-05
1.34985e-05
1.35002e-05
1.34866e-05
1.35163e-05
1.35296e-05
1.35276e-05
1.35238e-05
1.35186e-05
1.3512e-05
1.3504e-05
1.34947e-05
1.34841e-05
1.34721e-05
1.34591e-05
1.34454e-05
1.34322e-05
1.34207e-05
1.34132e-05
1.34133e-05
1.34208e-05
1.34322e-05
1.34453e-05
1.34589e-05
1.3472e-05
1.34841e-05
1.34948e-05
1.35041e-05
1.35121e-05
1.35186e-05
1.35237e-05
1.35275e-05
1.35294e-05
1.35162e-05
1.35515e-05
1.35645e-05
1.35621e-05
1.35578e-05
1.3552e-05
1.35446e-05
1.35356e-05
1.3525e-05
1.35127e-05
1.34988e-05
1.34837e-05
1.3468e-05
1.34527e-05
1.34396e-05
1.34312e-05
1.34312e-05
1.34397e-05
1.34528e-05
1.3468e-05
1.34836e-05
1.34987e-05
1.35126e-05
1.35249e-05
1.35356e-05
1.35447e-05
1.35519e-05
1.35576e-05
1.35618e-05
1.3564e-05
1.35513e-05
1.35928e-05
1.36055e-05
1.36028e-05
1.35981e-05
1.35916e-05
1.35835e-05
1.35734e-05
1.35614e-05
1.35474e-05
1.35314e-05
1.35141e-05
1.34962e-05
1.34789e-05
1.34641e-05
1.34545e-05
1.34545e-05
1.34641e-05
1.3479e-05
1.34964e-05
1.35143e-05
1.35315e-05
1.35473e-05
1.35614e-05
1.35735e-05
1.35836e-05
1.35917e-05
1.3598e-05
1.36024e-05
1.36049e-05
1.35925e-05
1.36412e-05
1.36535e-05
1.36504e-05
1.36454e-05
1.36386e-05
1.36297e-05
1.36186e-05
1.36051e-05
1.35893e-05
1.35713e-05
1.35518e-05
1.35316e-05
1.35122e-05
1.34955e-05
1.34847e-05
1.34847e-05
1.34955e-05
1.35123e-05
1.3532e-05
1.35522e-05
1.35717e-05
1.35897e-05
1.36055e-05
1.36189e-05
1.363e-05
1.36389e-05
1.36456e-05
1.36502e-05
1.3653e-05
1.36407e-05
1.36973e-05
1.37093e-05
1.37061e-05
1.3701e-05
1.36938e-05
1.36843e-05
1.36723e-05
1.36575e-05
1.364e-05
1.36202e-05
1.35985e-05
1.3576e-05
1.35542e-05
1.35356e-05
1.35236e-05
1.35236e-05
1.35356e-05
1.35544e-05
1.35763e-05
1.35989e-05
1.36208e-05
1.36407e-05
1.36581e-05
1.36727e-05
1.36848e-05
1.36943e-05
1.37012e-05
1.37061e-05
1.37091e-05
1.36971e-05
1.3762e-05
1.37739e-05
1.37706e-05
1.37655e-05
1.37583e-05
1.37485e-05
1.37358e-05
1.37201e-05
1.37013e-05
1.36797e-05
1.36559e-05
1.36311e-05
1.3607e-05
1.35864e-05
1.35732e-05
1.35732e-05
1.35864e-05
1.3607e-05
1.36311e-05
1.3656e-05
1.368e-05
1.37017e-05
1.37205e-05
1.37363e-05
1.37491e-05
1.37588e-05
1.37658e-05
1.37709e-05
1.3774e-05
1.37623e-05
1.3836e-05
1.3848e-05
1.38448e-05
1.38401e-05
1.38331e-05
1.38235e-05
1.38108e-05
1.37946e-05
1.37749e-05
1.37518e-05
1.37261e-05
1.36991e-05
1.36729e-05
1.36505e-05
1.36361e-05
1.3636e-05
1.36503e-05
1.36726e-05
1.36988e-05
1.37258e-05
1.37517e-05
1.37748e-05
1.37946e-05
1.3811e-05
1.38239e-05
1.38334e-05
1.38404e-05
1.38451e-05
1.38484e-05
1.38367e-05
1.39198e-05
1.3932e-05
1.39293e-05
1.39254e-05
1.39195e-05
1.39108e-05
1.38988e-05
1.38828e-05
1.38627e-05
1.38388e-05
1.38118e-05
1.37833e-05
1.37553e-05
1.37312e-05
1.37156e-05
1.37155e-05
1.3731e-05
1.37549e-05
1.37829e-05
1.38114e-05
1.38384e-05
1.38622e-05
1.38824e-05
1.38986e-05
1.39108e-05
1.39195e-05
1.39257e-05
1.39295e-05
1.39326e-05
1.39205e-05
1.40134e-05
1.40263e-05
1.40244e-05
1.40223e-05
1.40183e-05
1.40117e-05
1.40014e-05
1.39867e-05
1.39674e-05
1.39436e-05
1.39163e-05
1.38869e-05
1.38579e-05
1.38326e-05
1.38161e-05
1.38161e-05
1.38324e-05
1.38575e-05
1.38866e-05
1.39159e-05
1.39434e-05
1.3967e-05
1.39861e-05
1.40011e-05
1.40113e-05
1.40182e-05
1.40224e-05
1.40247e-05
1.40269e-05
1.40138e-05
1.41168e-05
1.41308e-05
1.41306e-05
1.41313e-05
1.41305e-05
1.41271e-05
1.41201e-05
1.41083e-05
1.40914e-05
1.40692e-05
1.40428e-05
1.40137e-05
1.39844e-05
1.39586e-05
1.39417e-05
1.39418e-05
1.39587e-05
1.39845e-05
1.40139e-05
1.4043e-05
1.40694e-05
1.40913e-05
1.4108e-05
1.41199e-05
1.41267e-05
1.41303e-05
1.41314e-05
1.41312e-05
1.41313e-05
1.41169e-05
1.42295e-05
1.42455e-05
1.42481e-05
1.4253e-05
1.42569e-05
1.42587e-05
1.42568e-05
1.42504e-05
1.4238e-05
1.42199e-05
1.41962e-05
1.41686e-05
1.41399e-05
1.41144e-05
1.40979e-05
1.40981e-05
1.41148e-05
1.41402e-05
1.41686e-05
1.41963e-05
1.422e-05
1.42379e-05
1.42503e-05
1.42567e-05
1.42583e-05
1.42567e-05
1.4253e-05
1.42488e-05
1.42457e-05
1.42297e-05
1.435e-05
1.43689e-05
1.43755e-05
1.43865e-05
1.43981e-05
1.44076e-05
1.44139e-05
1.44155e-05
1.4411e-05
1.43998e-05
1.43822e-05
1.4359e-05
1.43337e-05
1.43108e-05
1.42962e-05
1.42962e-05
1.43106e-05
1.43338e-05
1.4359e-05
1.43823e-05
1.43998e-05
1.44109e-05
1.44157e-05
1.44138e-05
1.44072e-05
1.43981e-05
1.43868e-05
1.4376e-05
1.43688e-05
1.43501e-05
1.44737e-05
1.44973e-05
1.45103e-05
1.45304e-05
1.45531e-05
1.45756e-05
1.45959e-05
1.4612e-05
1.46229e-05
1.46279e-05
1.46294e-05
1.46295e-05
1.46351e-05
1.46433e-05
1.46608e-05
1.46609e-05
1.46433e-05
1.4635e-05
1.46296e-05
1.46296e-05
1.4628e-05
1.46228e-05
1.46121e-05
1.45956e-05
1.45754e-05
1.45532e-05
1.45308e-05
1.45105e-05
1.44973e-05
1.4474e-05
1.46149e-05
1.46463e-05
1.46711e-05
1.47084e-05
1.47535e-05
1.48065e-05
1.48683e-05
1.49439e-05
1.50391e-05
1.51671e-05
1.5349e-05
1.56104e-05
1.59908e-05
1.64433e-05
1.6929e-05
1.69281e-05
1.64435e-05
1.59913e-05
1.56119e-05
1.5351e-05
1.51685e-05
1.504e-05
1.49444e-05
1.48682e-05
1.48063e-05
1.47533e-05
1.47084e-05
1.46709e-05
1.46461e-05
1.46152e-05
1.48058e-05
1.48532e-05
1.49142e-05
1.50099e-05
1.51482e-05
1.53634e-05
1.57081e-05
1.62662e-05
1.71538e-05
1.85574e-05
2.07648e-05
2.41117e-05
2.86368e-05
3.42678e-05
4.03797e-05
4.03726e-05
3.42709e-05
2.86509e-05
2.41368e-05
2.07905e-05
1.85755e-05
1.71648e-05
1.62722e-05
1.57102e-05
1.5363e-05
1.51468e-05
1.50088e-05
1.49132e-05
1.48519e-05
1.4804e-05
1.50554e-05
1.51655e-05
1.54186e-05
1.58348e-05
1.65454e-05
1.78723e-05
2.03361e-05
2.47295e-05
3.23839e-05
4.55762e-05
6.77554e-05
0.000103001
0.000151082
0.000205034
0.000264446
0.000264424
0.000205062
0.00015133
0.000103344
6.80394e-05
4.57524e-05
3.24807e-05
2.47841e-05
2.03605e-05
1.7876e-05
1.65398e-05
1.58279e-05
1.54123e-05
1.51571e-05
1.50444e-05
1.62099e-05
1.66417e-05
1.79683e-05
2.01794e-05
2.42405e-05
3.24391e-05
4.87976e-05
7.94892e-05
0.000135007
0.000234274
0.000403922
0.000663904
0.000981111
0.00130543
0.00164833
0.00164832
0.00130584
0.000983585
0.000667029
0.000406386
0.000235749
0.000135797
7.99108e-05
4.90048e-05
3.25075e-05
2.42388e-05
2.01581e-05
1.79448e-05
1.65986e-05
1.61598e-05
2.33033e-05
2.5251e-05
3.21645e-05
4.38967e-05
6.6434e-05
0.000113367
0.000206452
0.000371703
0.000643716
0.00111743
0.00203223
0.00348509
0.00536563
0.00716745
0.00861176
0.00861402
0.00717361
0.00537857
0.00350395
0.00204629
0.00112568
0.000648473
0.000374162
0.000207892
0.000114073
6.66189e-05
4.39048e-05
3.2118e-05
2.50689e-05
2.31304e-05
5.30058e-05
6.18518e-05
9.3871e-05
0.000150313
0.000260374
0.000483198
0.0008959
0.00158731
0.00266098
0.00420217
0.00612355
0.00840875
0.010458
0.012242
0.0138585
0.0138617
0.012249
0.0104967
0.00845473
0.00617052
0.00423846
0.00268199
0.00160078
0.000904028
0.000487125
0.000262369
0.000151165
9.39777e-05
6.13835e-05
5.26871e-05
4.90698e-05
5.54734e-05
9.00426e-05
0.000177003
0.000350981
0.000613109
0.000955525
0.00145422
0.00231471
0.00388678
0.00655215
0.0101732
0.0136844
0.0163424
0.0186286
0.0186611
0.0164096
0.0137924
0.0103083
0.00665884
0.00395592
0.00234922
0.00147032
0.000964736
0.00061908
0.000355131
0.000178849
9.05428e-05
5.53821e-05
4.9411e-05
5.0875e-05
5.33988e-05
6.55482e-05
9.93168e-05
0.000198064
0.000446138
0.000921536
0.00162773
0.00253088
0.00363011
0.00513191
0.00711755
0.00928411
0.0110788
0.0124716
0.0124858
0.0111156
0.00933236
0.00716721
0.00518035
0.00366647
0.00255984
0.00164967
0.000934381
0.000453726
0.000200819
9.99561e-05
6.5467e-05
5.27515e-05
5.06539e-05
5.22023e-05
5.36226e-05
5.90964e-05
6.96889e-05
9.36675e-05
0.000160186
0.000354939
0.000839968
0.00171886
0.00291804
0.00439565
0.00604738
0.007575
0.00880742
0.00966827
0.00968204
0.00883728
0.00762099
0.00609326
0.00443472
0.00294955
0.00174207
0.000854737
0.000361653
0.000162762
9.45928e-05
7.00805e-05
5.9363e-05
5.37579e-05
5.16959e-05
5.36804e-05
5.4047e-05
5.75097e-05
6.28771e-05
7.05282e-05
8.41488e-05
0.000116263
0.000216165
0.000524811
0.00125639
0.00251477
0.00416824
0.00585001
0.00724825
0.00829026
0.00829856
0.00725763
0.00586838
0.00419344
0.00253813
0.00127465
0.000535843
0.00022007
0.000117684
8.46383e-05
7.07646e-05
6.28183e-05
5.75691e-05
5.4457e-05
5.34073e-05
5.51079e-05
5.46405e-05
5.72086e-05
6.09606e-05
6.57224e-05
7.17283e-05
7.98134e-05
9.55833e-05
0.000137374
0.000267583
0.000648495
0.00155155
0.00291058
0.00440865
0.00577041
0.00577607
0.00441137
0.0029184
0.00156275
0.000655483
0.000270988
0.00013881
9.60292e-05
8.00704e-05
7.1742e-05
6.57768e-05
6.09566e-05
5.70299e-05
5.48152e-05
5.50365e-05
5.62814e-05
5.51937e-05
5.71629e-05
6.02023e-05
6.38654e-05
6.81959e-05
7.32244e-05
7.92774e-05
8.7827e-05
0.000105317
0.000151919
0.000294349
0.000632809
0.0012763
0.00223412
0.00223442
0.00127598
0.000633847
0.000295913
0.000152929
0.000105616
8.80017e-05
7.9355e-05
7.32403e-05
6.81789e-05
6.39298e-05
6.02671e-05
5.70686e-05
5.52273e-05
5.62438e-05
5.65917e-05
5.51649e-05
5.66302e-05
5.90971e-05
6.22331e-05
6.55761e-05
6.974e-05
7.38703e-05
7.87236e-05
8.42015e-05
9.20219e-05
0.000108346
0.000145231
0.000230865
0.000394541
0.000394277
0.000230699
0.000145439
0.00010845
9.21093e-05
8.4223e-05
7.86597e-05
7.40086e-05
6.9636e-05
6.56043e-05
6.2251e-05
5.91499e-05
5.66756e-05
5.51006e-05
5.65696e-05
5.59709e-05
5.42746e-05
5.55193e-05
5.74399e-05
5.98733e-05
6.27527e-05
6.58479e-05
6.92502e-05
7.27824e-05
7.61855e-05
7.9681e-05
8.33423e-05
8.80632e-05
9.63825e-05
0.000110605
0.000110544
9.64154e-05
8.81748e-05
8.3367e-05
7.96973e-05
7.61791e-05
7.2734e-05
6.92754e-05
6.58737e-05
6.27927e-05
5.99904e-05
5.74756e-05
5.55104e-05
5.42833e-05
5.5876e-05
5.41839e-05
5.24455e-05
5.32882e-05
5.50062e-05
5.68891e-05
5.91651e-05
6.16078e-05
6.41777e-05
6.66203e-05
6.90113e-05
7.11283e-05
7.28345e-05
7.43472e-05
7.56964e-05
7.69154e-05
7.68188e-05
7.56446e-05
7.43835e-05
7.28615e-05
7.11575e-05
6.90676e-05
6.67748e-05
6.42409e-05
6.15654e-05
5.92014e-05
5.6947e-05
5.50031e-05
5.33723e-05
5.25051e-05
5.41919e-05
5.16654e-05
5.00439e-05
5.07179e-05
5.19643e-05
5.33347e-05
5.50678e-05
5.68165e-05
5.85681e-05
6.02679e-05
6.17675e-05
6.29199e-05
6.38224e-05
6.44944e-05
6.48198e-05
6.4895e-05
6.49348e-05
6.48868e-05
6.45485e-05
6.39084e-05
6.29661e-05
6.16969e-05
6.01928e-05
5.85159e-05
5.67694e-05
5.50715e-05
5.33556e-05
5.18817e-05
5.06972e-05
5.00655e-05
5.17604e-05
4.87452e-05
4.69637e-05
4.74647e-05
4.83494e-05
4.93858e-05
5.05263e-05
5.17232e-05
5.29009e-05
5.39384e-05
5.47349e-05
5.53515e-05
5.58143e-05
5.60052e-05
5.59923e-05
5.59092e-05
5.59369e-05
5.59854e-05
5.59331e-05
5.57907e-05
5.54327e-05
5.48323e-05
5.39901e-05
5.293e-05
5.17723e-05
5.05422e-05
4.93857e-05
4.83781e-05
4.7546e-05
4.70956e-05
4.87186e-05
4.53434e-05
4.38161e-05
4.4135e-05
4.4577e-05
4.54232e-05
4.61232e-05
4.69053e-05
4.75598e-05
4.80369e-05
4.83934e-05
4.86084e-05
4.85851e-05
4.83966e-05
4.82263e-05
4.81187e-05
4.81333e-05
4.82846e-05
4.8477e-05
4.86239e-05
4.86377e-05
4.84528e-05
4.8054e-05
4.74847e-05
4.68455e-05
4.61149e-05
4.53658e-05
4.46684e-05
4.4095e-05
4.38285e-05
4.53402e-05
4.18067e-05
4.03753e-05
4.05494e-05
4.10176e-05
4.13774e-05
4.18212e-05
4.22224e-05
4.24972e-05
4.26676e-05
4.26915e-05
4.25088e-05
4.2187e-05
4.18454e-05
4.1539e-05
4.13147e-05
4.12931e-05
4.15099e-05
4.18469e-05
4.22129e-05
4.25276e-05
4.27187e-05
4.27265e-05
4.25544e-05
4.22335e-05
4.18246e-05
4.14004e-05
4.09895e-05
4.06269e-05
4.0484e-05
4.18454e-05
3.83822e-05
3.71218e-05
3.7183e-05
3.74757e-05
3.76531e-05
3.79342e-05
3.80086e-05
3.80017e-05
3.79297e-05
3.76843e-05
3.72752e-05
3.67954e-05
3.63151e-05
3.5884e-05
3.55982e-05
3.559e-05
3.58653e-05
3.63099e-05
3.6828e-05
3.73236e-05
3.77207e-05
3.79567e-05
3.80383e-05
3.79926e-05
3.78595e-05
3.76715e-05
3.74499e-05
3.72421e-05
3.72024e-05
3.84196e-05
3.50909e-05
3.40583e-05
3.41096e-05
3.4108e-05
3.42376e-05
3.42466e-05
3.41785e-05
3.40969e-05
3.38371e-05
3.33642e-05
3.28117e-05
3.22449e-05
3.16823e-05
3.11917e-05
3.08998e-05
3.09126e-05
3.12034e-05
3.16661e-05
3.22249e-05
3.28239e-05
3.33848e-05
3.38257e-05
3.41049e-05
3.42308e-05
3.42488e-05
3.42137e-05
3.41524e-05
3.40828e-05
3.41109e-05
3.51792e-05
3.22321e-05
3.11477e-05
3.11181e-05
3.11393e-05
3.11882e-05
3.106e-05
3.0914e-05
3.06428e-05
3.01965e-05
2.96816e-05
2.9136e-05
2.8526e-05
2.78944e-05
2.73695e-05
2.70787e-05
2.70907e-05
2.73813e-05
2.78737e-05
2.84934e-05
2.91683e-05
2.97908e-05
3.02869e-05
3.06414e-05
3.08856e-05
3.10526e-05
3.11598e-05
3.12044e-05
3.11879e-05
3.12265e-05
3.21631e-05
2.93667e-05
2.86392e-05
2.85378e-05
2.85546e-05
2.84243e-05
2.82533e-05
2.80553e-05
2.77099e-05
2.72653e-05
2.67599e-05
2.61489e-05
2.546e-05
2.48204e-05
2.43399e-05
2.40823e-05
2.40878e-05
2.43561e-05
2.48342e-05
2.54433e-05
2.61027e-05
2.67285e-05
2.72706e-05
2.77108e-05
2.80528e-05
2.82983e-05
2.845e-05
2.85178e-05
2.85353e-05
2.86131e-05
2.94488e-05
2.70299e-05
2.63116e-05
2.6223e-05
2.61514e-05
2.59887e-05
2.58569e-05
2.55959e-05
2.52214e-05
2.47904e-05
2.42604e-05
2.36227e-05
2.29637e-05
2.23868e-05
2.19399e-05
2.16722e-05
2.16522e-05
2.19064e-05
2.23837e-05
2.29932e-05
2.36436e-05
2.42592e-05
2.47988e-05
2.5246e-05
2.55992e-05
2.58602e-05
2.60368e-05
2.61476e-05
2.62222e-05
2.63331e-05
2.70468e-05
2.49665e-05
2.4283e-05
2.42307e-05
2.41293e-05
2.40158e-05
2.38303e-05
2.35161e-05
2.31602e-05
2.27357e-05
2.22014e-05
2.16047e-05
2.10184e-05
2.04916e-05
2.00607e-05
1.97975e-05
1.9786e-05
2.00437e-05
2.05035e-05
2.10669e-05
2.16495e-05
2.22001e-05
2.27007e-05
2.31419e-05
2.35114e-05
2.37985e-05
2.40041e-05
2.4141e-05
2.42314e-05
2.43361e-05
2.49311e-05
2.30007e-05
2.2588e-05
2.24807e-05
2.23968e-05
2.22982e-05
2.20596e-05
2.17754e-05
2.14538e-05
2.10362e-05
2.05389e-05
2.00139e-05
1.94903e-05
1.89917e-05
1.85741e-05
1.83256e-05
1.83198e-05
1.85576e-05
1.89694e-05
1.94698e-05
1.99958e-05
2.0512e-05
2.09996e-05
2.14366e-05
2.17994e-05
2.2075e-05
2.22696e-05
2.24014e-05
2.2492e-05
2.25956e-05
2.31032e-05
2.15286e-05
2.10822e-05
2.1017e-05
2.09428e-05
2.07825e-05
2.0553e-05
2.03159e-05
2.00092e-05
1.96227e-05
1.91909e-05
1.87272e-05
1.8238e-05
1.77622e-05
1.73768e-05
1.71624e-05
1.71719e-05
1.73947e-05
1.77666e-05
1.82185e-05
1.87005e-05
1.91793e-05
1.96272e-05
2.00197e-05
2.034e-05
2.05867e-05
2.07718e-05
2.09115e-05
2.10176e-05
2.11226e-05
2.1544e-05
2.02021e-05
1.98e-05
1.97723e-05
1.96846e-05
1.95144e-05
1.93418e-05
1.91227e-05
1.88275e-05
1.84843e-05
1.8104e-05
1.76803e-05
1.72324e-05
1.68124e-05
1.64871e-05
1.63103e-05
1.63221e-05
1.6514e-05
1.68327e-05
1.72276e-05
1.76555e-05
1.80837e-05
1.84816e-05
1.88288e-05
1.91173e-05
1.93501e-05
1.95358e-05
1.96802e-05
1.97854e-05
1.98729e-05
2.02032e-05
1.89656e-05
1.88e-05
1.87071e-05
1.86071e-05
1.84823e-05
1.83349e-05
1.81179e-05
1.78539e-05
1.75558e-05
1.72141e-05
1.68336e-05
1.64461e-05
1.60915e-05
1.58105e-05
1.56453e-05
1.56413e-05
1.57998e-05
1.60777e-05
1.64312e-05
1.68188e-05
1.72045e-05
1.75594e-05
1.7868e-05
1.81269e-05
1.83391e-05
1.85083e-05
1.86358e-05
1.87227e-05
1.87902e-05
1.90531e-05
1.8117e-05
1.79183e-05
1.78204e-05
1.77261e-05
1.76228e-05
1.74693e-05
1.72751e-05
1.7055e-05
1.67949e-05
1.64903e-05
1.61608e-05
1.58318e-05
1.55238e-05
1.52649e-05
1.51042e-05
1.50959e-05
1.52436e-05
1.55037e-05
1.58269e-05
1.61717e-05
1.65056e-05
1.6808e-05
1.70707e-05
1.72933e-05
1.74774e-05
1.76239e-05
1.77332e-05
1.78084e-05
1.78694e-05
1.80893e-05
1.73586e-05
1.70947e-05
1.7056e-05
1.69785e-05
1.68782e-05
1.67423e-05
1.65886e-05
1.64029e-05
1.61728e-05
1.59095e-05
1.56316e-05
1.53495e-05
1.50755e-05
1.48404e-05
1.46964e-05
1.46954e-05
1.48368e-05
1.5072e-05
1.53521e-05
1.56413e-05
1.59177e-05
1.61705e-05
1.63957e-05
1.65912e-05
1.67548e-05
1.68849e-05
1.69828e-05
1.70526e-05
1.71102e-05
1.72905e-05
1.65841e-05
1.64621e-05
1.64176e-05
1.6355e-05
1.62673e-05
1.61624e-05
1.60322e-05
1.58626e-05
1.56591e-05
1.54364e-05
1.52009e-05
1.49556e-05
1.47154e-05
1.45123e-05
1.43919e-05
1.43957e-05
1.45205e-05
1.47218e-05
1.49568e-05
1.51987e-05
1.54339e-05
1.56548e-05
1.58552e-05
1.60291e-05
1.61723e-05
1.62841e-05
1.6368e-05
1.64293e-05
1.64793e-05
1.66206e-05
1.6037e-05
1.59822e-05
1.59127e-05
1.5858e-05
1.57836e-05
1.56906e-05
1.55658e-05
1.54119e-05
1.524e-05
1.50543e-05
1.48527e-05
1.46405e-05
1.4435e-05
1.42637e-05
1.41619e-05
1.41643e-05
1.427e-05
1.44409e-05
1.46416e-05
1.48516e-05
1.50586e-05
1.52526e-05
1.54252e-05
1.55705e-05
1.56866e-05
1.57766e-05
1.58462e-05
1.59002e-05
1.59449e-05
1.60561e-05
1.56315e-05
1.55215e-05
1.54786e-05
1.54272e-05
1.53611e-05
1.52743e-05
1.51655e-05
1.50415e-05
1.49053e-05
1.4753e-05
1.45835e-05
1.44046e-05
1.42318e-05
1.40854e-05
1.39938e-05
1.39917e-05
1.40804e-05
1.42253e-05
1.43983e-05
1.45808e-05
1.47585e-05
1.49206e-05
1.50603e-05
1.51751e-05
1.52668e-05
1.53411e-05
1.54036e-05
1.54557e-05
1.54986e-05
1.55871e-05
1.52074e-05
1.51169e-05
1.50972e-05
1.50511e-05
1.49954e-05
1.49252e-05
1.4841e-05
1.47444e-05
1.46338e-05
1.45071e-05
1.43664e-05
1.42187e-05
1.4074e-05
1.39474e-05
1.38641e-05
1.38577e-05
1.39313e-05
1.40554e-05
1.42051e-05
1.43606e-05
1.45083e-05
1.464e-05
1.47518e-05
1.48443e-05
1.49214e-05
1.49883e-05
1.50473e-05
1.50961e-05
1.51332e-05
1.51983e-05
1.48492e-05
1.48304e-05
1.47994e-05
1.4763e-05
1.47196e-05
1.46637e-05
1.45933e-05
1.4509e-05
1.44112e-05
1.43016e-05
1.41835e-05
1.40607e-05
1.39391e-05
1.3829e-05
1.37529e-05
1.37468e-05
1.38141e-05
1.39245e-05
1.40541e-05
1.41856e-05
1.43079e-05
1.4416e-05
1.45084e-05
1.45871e-05
1.46552e-05
1.47149e-05
1.47653e-05