/*--------------------------------*- C++ -*----------------------------------*\
| =========                 |                                                 |
| \\      /  F ield         | OpenFOAM: The Open Source CFD Toolbox           |
|  \\    /   O peration     | Version:  2312                                  |
|   \\  /    A nd           | Website:  www.openfoam.com                      |
|    \\/     M anipulation  |                                                 |
\*---------------------------------------------------------------------------*/
FoamFile
{
    version     2.0;
    format      ascii;
    arch        "LSB;label=32;scalar=64";
    class       volScalarField;
    location    "0.489491";
    object      k;
}
// * * * * * * * * * * * * * * * * * * * * * * * * * * * * * * * * * * * * * //

dimensions      [0 2 -2 0 0 0 0];

internalField   nonuniform List<scalar> 
90000
(
2.98981e-05
2.98988e-05
2.98989e-05
2.9899e-05
2.98991e-05
2.98991e-05
2.98991e-05
2.9899e-05
2.9899e-05
2.9899e-05
2.9899e-05
2.98991e-05
2.98991e-05
2.98992e-05
2.98992e-05
2.98992e-05
2.98993e-05
2.98994e-05
2.98994e-05
2.98993e-05
2.98991e-05
2.98989e-05
2.9899e-05
2.98993e-05
2.98995e-05
2.98996e-05
2.98995e-05
2.98993e-05
2.98989e-05
2.98984e-05
2.98988e-05
2.99242e-05
2.99251e-05
2.99251e-05
2.99251e-05
2.99252e-05
2.99252e-05
2.99253e-05
2.99254e-05
2.99255e-05
2.99256e-05
2.99256e-05
2.99257e-05
2.99257e-05
2.99257e-05
2.99257e-05
2.99256e-05
2.99255e-05
2.99254e-05
2.99253e-05
2.99252e-05
2.99252e-05
2.99252e-05
2.99251e-05
2.99249e-05
2.99248e-05
2.99249e-05
2.99252e-05
2.99247e-05
2.99007e-05
2.9899e-05
2.99255e-05
2.99265e-05
2.99265e-05
2.99265e-05
2.99265e-05
2.99265e-05
2.99266e-05
2.99267e-05
2.99267e-05
2.99267e-05
2.99267e-05
2.99267e-05
2.99267e-05
2.99266e-05
2.99265e-05
2.99264e-05
2.99264e-05
2.99265e-05
2.99266e-05
2.99266e-05
2.99266e-05
2.99265e-05
2.99265e-05
2.99266e-05
2.99267e-05
2.99268e-05
2.99267e-05
2.9925e-05
2.98998e-05
2.98993e-05
2.99259e-05
2.9927e-05
2.99271e-05
2.99271e-05
2.99271e-05
2.9927e-05
2.99269e-05
2.99269e-05
2.99269e-05
2.99269e-05
2.99268e-05
2.99267e-05
2.99266e-05
2.99265e-05
2.99263e-05
2.99263e-05
2.99265e-05
2.99267e-05
2.99268e-05
2.99268e-05
2.99268e-05
2.99268e-05
2.9927e-05
2.99273e-05
2.99274e-05
2.99274e-05
2.99272e-05
2.99255e-05
2.98994e-05
2.98996e-05
2.99264e-05
2.99275e-05
2.99276e-05
2.99276e-05
2.99275e-05
2.99274e-05
2.99272e-05
2.99271e-05
2.9927e-05
2.99269e-05
2.99267e-05
2.99266e-05
2.99264e-05
2.99262e-05
2.99262e-05
2.99263e-05
2.99265e-05
2.99266e-05
2.99267e-05
2.99268e-05
2.99268e-05
2.99271e-05
2.99273e-05
2.99274e-05
2.99274e-05
2.99272e-05
2.99269e-05
2.99258e-05
2.98996e-05
2.99001e-05
2.9927e-05
2.99279e-05
2.99279e-05
2.99279e-05
2.99278e-05
2.99276e-05
2.99274e-05
2.99272e-05
2.9927e-05
2.99268e-05
2.99265e-05
2.99263e-05
2.99262e-05
2.99261e-05
2.99261e-05
2.99262e-05
2.99264e-05
2.99265e-05
2.99266e-05
2.99268e-05
2.99271e-05
2.99273e-05
2.99274e-05
2.99273e-05
2.99272e-05
2.99271e-05
2.99273e-05
2.99264e-05
2.98999e-05
2.99005e-05
2.99274e-05
2.99283e-05
2.99282e-05
2.9928e-05
2.99279e-05
2.99278e-05
2.99276e-05
2.99273e-05
2.9927e-05
2.99266e-05
2.99263e-05
2.99261e-05
2.99261e-05
2.99261e-05
2.99261e-05
2.99261e-05
2.99262e-05
2.99264e-05
2.99268e-05
2.99271e-05
2.99274e-05
2.99275e-05
2.99274e-05
2.99273e-05
2.99275e-05
2.99277e-05
2.99278e-05
2.99268e-05
2.99002e-05
2.99009e-05
2.99277e-05
2.99285e-05
2.99283e-05
2.99281e-05
2.9928e-05
2.99278e-05
2.99277e-05
2.99274e-05
2.9927e-05
2.99266e-05
2.99262e-05
2.99261e-05
2.99261e-05
2.99261e-05
2.99262e-05
2.99263e-05
2.99264e-05
2.99268e-05
2.99271e-05
2.99274e-05
2.99276e-05
2.99276e-05
2.99276e-05
2.99277e-05
2.99279e-05
2.99281e-05
2.99282e-05
2.99271e-05
2.99006e-05
2.9901e-05
2.99278e-05
2.99286e-05
2.99284e-05
2.99282e-05
2.99281e-05
2.9928e-05
2.99278e-05
2.99276e-05
2.99273e-05
2.99269e-05
2.99265e-05
2.99263e-05
2.99262e-05
2.99262e-05
2.99264e-05
2.99267e-05
2.9927e-05
2.99274e-05
2.99276e-05
2.99278e-05
2.99279e-05
2.99278e-05
2.99279e-05
2.99281e-05
2.99283e-05
2.99284e-05
2.99285e-05
2.99274e-05
2.99011e-05
2.9901e-05
2.9928e-05
2.99287e-05
2.99286e-05
2.99284e-05
2.99282e-05
2.99281e-05
2.9928e-05
2.99278e-05
2.99275e-05
2.99273e-05
2.9927e-05
2.99267e-05
2.99264e-05
2.99264e-05
2.99268e-05
2.99272e-05
2.99276e-05
2.99279e-05
2.99281e-05
2.99282e-05
2.99282e-05
2.99281e-05
2.99282e-05
2.99283e-05
2.99285e-05
2.99287e-05
2.99288e-05
2.99278e-05
2.99016e-05
2.99012e-05
2.99283e-05
2.9929e-05
2.99289e-05
2.99287e-05
2.99285e-05
2.99283e-05
2.99281e-05
2.99279e-05
2.99278e-05
2.99276e-05
2.99274e-05
2.99272e-05
2.99268e-05
2.99267e-05
2.9927e-05
2.99275e-05
2.99279e-05
2.99282e-05
2.99284e-05
2.99284e-05
2.99284e-05
2.99284e-05
2.99284e-05
2.99285e-05
2.99288e-05
2.9929e-05
2.99292e-05
2.99282e-05
2.9902e-05
2.99017e-05
2.99288e-05
2.99296e-05
2.99295e-05
2.99293e-05
2.99291e-05
2.99287e-05
2.99283e-05
2.9928e-05
2.99279e-05
2.99278e-05
2.99277e-05
2.99275e-05
2.99272e-05
2.99267e-05
2.99269e-05
2.99274e-05
2.99278e-05
2.99282e-05
2.99284e-05
2.99285e-05
2.99286e-05
2.99286e-05
2.99287e-05
2.99289e-05
2.99291e-05
2.99294e-05
2.99295e-05
2.99286e-05
2.99023e-05
2.99027e-05
2.99297e-05
2.99305e-05
2.99303e-05
2.99301e-05
2.99298e-05
2.99294e-05
2.99289e-05
2.99285e-05
2.99282e-05
2.9928e-05
2.9928e-05
2.99278e-05
2.99274e-05
2.99268e-05
2.99267e-05
2.99271e-05
2.99275e-05
2.99279e-05
2.99282e-05
2.99285e-05
2.99288e-05
2.99291e-05
2.99293e-05
2.99295e-05
2.99297e-05
2.99299e-05
2.993e-05
2.9929e-05
2.99027e-05
2.99042e-05
2.99307e-05
2.99314e-05
2.99312e-05
2.99309e-05
2.99305e-05
2.99301e-05
2.99296e-05
2.99291e-05
2.99287e-05
2.99283e-05
2.99281e-05
2.99278e-05
2.99274e-05
2.9927e-05
2.99268e-05
2.99269e-05
2.99272e-05
2.99276e-05
2.99281e-05
2.99287e-05
2.99293e-05
2.99297e-05
2.99301e-05
2.99303e-05
2.99305e-05
2.99306e-05
2.99307e-05
2.99296e-05
2.99034e-05
2.99062e-05
2.99316e-05
2.99324e-05
2.99321e-05
2.99317e-05
2.99312e-05
2.99307e-05
2.99302e-05
2.99297e-05
2.99293e-05
2.99288e-05
2.99283e-05
2.99278e-05
2.99274e-05
2.9927e-05
2.99268e-05
2.99269e-05
2.99271e-05
2.99276e-05
2.99284e-05
2.99292e-05
2.993e-05
2.99306e-05
2.99311e-05
2.99313e-05
2.99315e-05
2.99316e-05
2.99316e-05
2.99306e-05
2.99044e-05
2.9908e-05
2.99325e-05
2.99334e-05
2.9933e-05
2.99326e-05
2.9932e-05
2.99315e-05
2.9931e-05
2.99306e-05
2.993e-05
2.99293e-05
2.99285e-05
2.99278e-05
2.99273e-05
2.9927e-05
2.99268e-05
2.9927e-05
2.99274e-05
2.99281e-05
2.9929e-05
2.993e-05
2.99309e-05
2.99316e-05
2.99321e-05
2.99325e-05
2.99327e-05
2.99328e-05
2.99329e-05
2.99319e-05
2.99058e-05
2.99096e-05
2.99337e-05
2.99346e-05
2.99342e-05
2.99337e-05
2.99332e-05
2.99327e-05
2.99323e-05
2.99317e-05
2.9931e-05
2.993e-05
2.99289e-05
2.9928e-05
2.99273e-05
2.99269e-05
2.99268e-05
2.99272e-05
2.99278e-05
2.99288e-05
2.99299e-05
2.9931e-05
2.9932e-05
2.99328e-05
2.99334e-05
2.99339e-05
2.99342e-05
2.99344e-05
2.99346e-05
2.99337e-05
2.99078e-05
2.9911e-05
2.99352e-05
2.99362e-05
2.99358e-05
2.99354e-05
2.9935e-05
2.99345e-05
2.9934e-05
2.99332e-05
2.99321e-05
2.99308e-05
2.99295e-05
2.99284e-05
2.99276e-05
2.9927e-05
2.99269e-05
2.99275e-05
2.99286e-05
2.99298e-05
2.99311e-05
2.99323e-05
2.99334e-05
2.99343e-05
2.99351e-05
2.99357e-05
2.99362e-05
2.99366e-05
2.99368e-05
2.9936e-05
2.99103e-05
2.99128e-05
2.99373e-05
2.99383e-05
2.9938e-05
2.99377e-05
2.99374e-05
2.99369e-05
2.99361e-05
2.9935e-05
2.99336e-05
2.9932e-05
2.99306e-05
2.99293e-05
2.99281e-05
2.99272e-05
2.99272e-05
2.99281e-05
2.99295e-05
2.9931e-05
2.99325e-05
2.99338e-05
2.9935e-05
2.9936e-05
2.9937e-05
2.99379e-05
2.99386e-05
2.99391e-05
2.99394e-05
2.99386e-05
2.99129e-05
2.99153e-05
2.994e-05
2.9941e-05
2.99408e-05
2.99406e-05
2.99402e-05
2.99396e-05
2.99386e-05
2.99372e-05
2.99356e-05
2.99338e-05
2.99321e-05
2.99304e-05
2.99288e-05
2.99277e-05
2.99276e-05
2.99289e-05
2.99306e-05
2.99323e-05
2.9934e-05
2.99354e-05
2.99368e-05
2.99381e-05
2.99394e-05
2.99404e-05
2.99413e-05
2.9942e-05
2.99424e-05
2.99415e-05
2.99157e-05
2.99187e-05
2.99435e-05
2.99445e-05
2.99444e-05
2.99441e-05
2.99437e-05
2.99428e-05
2.99416e-05
2.994e-05
2.99381e-05
2.9936e-05
2.99339e-05
2.99317e-05
2.99297e-05
2.99282e-05
2.99283e-05
2.99299e-05
2.99319e-05
2.99339e-05
2.99357e-05
2.99374e-05
2.99391e-05
2.99407e-05
2.99422e-05
2.99436e-05
2.99446e-05
2.99453e-05
2.99457e-05
2.99447e-05
2.9919e-05
2.99231e-05
2.9948e-05
2.99491e-05
2.9949e-05
2.99487e-05
2.9948e-05
2.99468e-05
2.99452e-05
2.99432e-05
2.99409e-05
2.99384e-05
2.99358e-05
2.99331e-05
2.99307e-05
2.99289e-05
2.99292e-05
2.99311e-05
2.99334e-05
2.99357e-05
2.99379e-05
2.994e-05
2.99421e-05
2.99442e-05
2.9946e-05
2.99476e-05
2.99488e-05
2.99496e-05
2.99499e-05
2.9949e-05
2.99238e-05
2.99287e-05
2.9954e-05
2.9955e-05
2.99548e-05
2.99543e-05
2.99532e-05
2.99515e-05
2.99494e-05
2.99469e-05
2.99441e-05
2.99411e-05
2.9938e-05
2.99348e-05
2.9932e-05
2.993e-05
2.99304e-05
2.99326e-05
2.99354e-05
2.99382e-05
2.99409e-05
2.99436e-05
2.99463e-05
2.99488e-05
2.9951e-05
2.99529e-05
2.99542e-05
2.99551e-05
2.99556e-05
2.9955e-05
2.99302e-05
2.99359e-05
2.99616e-05
2.99625e-05
2.9962e-05
2.9961e-05
2.99593e-05
2.99571e-05
2.99544e-05
2.99513e-05
2.9948e-05
2.99444e-05
2.99408e-05
2.99372e-05
2.99339e-05
2.99317e-05
2.99321e-05
2.99347e-05
2.9938e-05
2.99414e-05
2.99448e-05
2.99482e-05
2.99515e-05
2.99545e-05
2.99571e-05
2.99591e-05
2.99607e-05
2.99619e-05
2.99629e-05
2.99627e-05
2.99378e-05
2.9945e-05
2.99709e-05
2.99715e-05
2.99705e-05
2.99688e-05
2.99666e-05
2.99637e-05
2.99605e-05
2.99569e-05
2.9953e-05
2.99488e-05
2.99446e-05
2.99405e-05
2.99367e-05
2.9934e-05
2.99342e-05
2.99372e-05
2.99412e-05
2.99453e-05
2.99496e-05
2.99537e-05
2.99576e-05
2.99611e-05
2.9964e-05
2.99665e-05
2.99685e-05
2.99702e-05
2.99717e-05
2.99718e-05
2.99465e-05
2.99562e-05
2.99818e-05
2.99819e-05
2.99804e-05
2.99782e-05
2.99754e-05
2.99721e-05
2.99683e-05
2.9964e-05
2.99594e-05
2.99546e-05
2.99497e-05
2.99448e-05
2.99402e-05
2.99368e-05
2.99369e-05
2.99403e-05
2.99449e-05
2.995e-05
2.99552e-05
2.99602e-05
2.99647e-05
2.99688e-05
2.99723e-05
2.99754e-05
2.99781e-05
2.99804e-05
2.99823e-05
2.99824e-05
2.99571e-05
2.99695e-05
2.99946e-05
2.99943e-05
2.99923e-05
2.99896e-05
2.99864e-05
2.99825e-05
2.9978e-05
2.99729e-05
2.99675e-05
2.99617e-05
2.99558e-05
2.99499e-05
2.99442e-05
2.99401e-05
2.994e-05
2.99439e-05
2.99496e-05
2.99558e-05
2.9962e-05
2.9968e-05
2.99734e-05
2.99782e-05
2.99825e-05
2.99864e-05
2.99899e-05
2.99928e-05
2.99948e-05
2.99951e-05
2.997e-05
2.99852e-05
3.00097e-05
3.0009e-05
3.00067e-05
3.00036e-05
2.99998e-05
2.99952e-05
2.99898e-05
2.99837e-05
2.99772e-05
2.99703e-05
2.99632e-05
2.99559e-05
2.99491e-05
2.99442e-05
2.99441e-05
2.99488e-05
2.99556e-05
2.99631e-05
2.99706e-05
2.99776e-05
2.9984e-05
2.99898e-05
2.99951e-05
2.99998e-05
3.0004e-05
3.00073e-05
3.00096e-05
3.00101e-05
2.99855e-05
3.00038e-05
3.00277e-05
3.00269e-05
3.00241e-05
3.00205e-05
3.00159e-05
3.00104e-05
3.0004e-05
2.99968e-05
2.99891e-05
2.99808e-05
2.99722e-05
2.99635e-05
2.99554e-05
2.99497e-05
2.99496e-05
2.99552e-05
2.99633e-05
2.99722e-05
2.99811e-05
2.99894e-05
2.9997e-05
3.00041e-05
3.00104e-05
3.0016e-05
3.00208e-05
3.00246e-05
3.00273e-05
3.00281e-05
3.00039e-05
3.00259e-05
3.00495e-05
3.00484e-05
3.00451e-05
3.00408e-05
3.00353e-05
3.00287e-05
3.00212e-05
3.00128e-05
3.00036e-05
2.99938e-05
2.99834e-05
2.9973e-05
2.99635e-05
2.9957e-05
2.9957e-05
2.99635e-05
2.9973e-05
2.99835e-05
2.99939e-05
3.00037e-05
3.00129e-05
3.00214e-05
3.0029e-05
3.00355e-05
3.0041e-05
3.00454e-05
3.00486e-05
3.00498e-05
3.00261e-05
3.00525e-05
3.00758e-05
3.00742e-05
3.00704e-05
3.00653e-05
3.00588e-05
3.0051e-05
3.00421e-05
3.00323e-05
3.00215e-05
3.00098e-05
2.99974e-05
2.99851e-05
2.99741e-05
2.99666e-05
2.99667e-05
2.99742e-05
2.99852e-05
2.99973e-05
3.00096e-05
3.00213e-05
3.00323e-05
3.00424e-05
3.00513e-05
3.0059e-05
3.00653e-05
3.00705e-05
3.00744e-05
3.0076e-05
3.00527e-05
3.00842e-05
3.01073e-05
3.01052e-05
3.01007e-05
3.00946e-05
3.0087e-05
3.0078e-05
3.00677e-05
3.00562e-05
3.00435e-05
3.00296e-05
3.0015e-05
3.00005e-05
2.99877e-05
2.99792e-05
2.99793e-05
2.99878e-05
3.00005e-05
3.00148e-05
3.00293e-05
3.00432e-05
3.00562e-05
3.0068e-05
3.00784e-05
3.00872e-05
3.00946e-05
3.01007e-05
3.01052e-05
3.01074e-05
3.00843e-05
3.01221e-05
3.01448e-05
3.01422e-05
3.01369e-05
3.01298e-05
3.0121e-05
3.01106e-05
3.00988e-05
3.00854e-05
3.00704e-05
3.00541e-05
3.00369e-05
3.00201e-05
3.00053e-05
2.99956e-05
2.99957e-05
3.00055e-05
3.00201e-05
3.00367e-05
3.00537e-05
3.00702e-05
3.00853e-05
3.00989e-05
3.0111e-05
3.01213e-05
3.01299e-05
3.01368e-05
3.01421e-05
3.01447e-05
3.01222e-05
3.01672e-05
3.01892e-05
3.01861e-05
3.01801e-05
3.0172e-05
3.0162e-05
3.01502e-05
3.01365e-05
3.01209e-05
3.01034e-05
3.00842e-05
3.00643e-05
3.00449e-05
3.0028e-05
3.0017e-05
3.00171e-05
3.00281e-05
3.0045e-05
3.00642e-05
3.0084e-05
3.01031e-05
3.01206e-05
3.01365e-05
3.01504e-05
3.01623e-05
3.01721e-05
3.01799e-05
3.01859e-05
3.01889e-05
3.01671e-05
3.02204e-05
3.02419e-05
3.02382e-05
3.02315e-05
3.02225e-05
3.02112e-05
3.01977e-05
3.0182e-05
3.01639e-05
3.01436e-05
3.01216e-05
3.00987e-05
3.00765e-05
3.00573e-05
3.00449e-05
3.00449e-05
3.00574e-05
3.00766e-05
3.00988e-05
3.01216e-05
3.01435e-05
3.01637e-05
3.01819e-05
3.01978e-05
3.02114e-05
3.02225e-05
3.02313e-05
3.02378e-05
3.02413e-05
3.02202e-05
3.02833e-05
3.03041e-05
3.02999e-05
3.02925e-05
3.02825e-05
3.027e-05
3.02548e-05
3.02369e-05
3.02162e-05
3.01931e-05
3.0168e-05
3.0142e-05
3.01169e-05
3.00952e-05
3.00811e-05
3.00811e-05
3.00952e-05
3.01171e-05
3.01423e-05
3.01682e-05
3.01932e-05
3.02162e-05
3.0237e-05
3.02549e-05
3.02701e-05
3.02826e-05
3.02924e-05
3.02994e-05
3.03034e-05
3.02828e-05
3.03571e-05
3.03774e-05
3.03725e-05
3.03645e-05
3.03537e-05
3.03399e-05
3.0323e-05
3.03029e-05
3.02797e-05
3.02537e-05
3.02255e-05
3.01963e-05
3.0168e-05
3.01437e-05
3.0128e-05
3.01281e-05
3.01439e-05
3.01683e-05
3.01967e-05
3.02258e-05
3.02542e-05
3.02801e-05
3.03034e-05
3.03234e-05
3.03402e-05
3.03541e-05
3.03648e-05
3.03721e-05
3.03766e-05
3.03566e-05
3.04433e-05
3.0463e-05
3.04576e-05
3.04492e-05
3.04377e-05
3.04228e-05
3.04043e-05
3.03821e-05
3.03565e-05
3.03278e-05
3.02967e-05
3.02643e-05
3.02328e-05
3.02059e-05
3.01884e-05
3.01884e-05
3.02058e-05
3.02329e-05
3.02645e-05
3.0297e-05
3.03287e-05
3.03574e-05
3.03831e-05
3.0405e-05
3.04233e-05
3.04384e-05
3.04497e-05
3.04576e-05
3.04627e-05
3.04431e-05
3.05431e-05
3.05626e-05
3.05568e-05
3.05482e-05
3.05362e-05
3.05204e-05
3.05007e-05
3.0477e-05
3.04495e-05
3.04184e-05
3.03843e-05
3.03488e-05
3.03141e-05
3.02844e-05
3.02651e-05
3.02651e-05
3.02843e-05
3.03139e-05
3.03487e-05
3.03842e-05
3.04189e-05
3.045e-05
3.04779e-05
3.05015e-05
3.05212e-05
3.0537e-05
3.05487e-05
3.05571e-05
3.05627e-05
3.05437e-05
3.06581e-05
3.06776e-05
3.06717e-05
3.06632e-05
3.06511e-05
3.06351e-05
3.06149e-05
3.05904e-05
3.05614e-05
3.05283e-05
3.04915e-05
3.0453e-05
3.04155e-05
3.03834e-05
3.03627e-05
3.03626e-05
3.03832e-05
3.04151e-05
3.04525e-05
3.04907e-05
3.0528e-05
3.0561e-05
3.05907e-05
3.06154e-05
3.06358e-05
3.06517e-05
3.06637e-05
3.06721e-05
3.06784e-05
3.06593e-05
3.07895e-05
3.08095e-05
3.08036e-05
3.07958e-05
3.07845e-05
3.07693e-05
3.07497e-05
3.07251e-05
3.06952e-05
3.06607e-05
3.06224e-05
3.05821e-05
3.05426e-05
3.05084e-05
3.0486e-05
3.04857e-05
3.05077e-05
3.05418e-05
3.05816e-05
3.06217e-05
3.06603e-05
3.06943e-05
3.07243e-05
3.07495e-05
3.07695e-05
3.07848e-05
3.07962e-05
3.08038e-05
3.08105e-05
3.07906e-05
3.09383e-05
3.09591e-05
3.09538e-05
3.09477e-05
3.09386e-05
3.09255e-05
3.09075e-05
3.08839e-05
3.08547e-05
3.08204e-05
3.07821e-05
3.07411e-05
3.07003e-05
3.06645e-05
3.06412e-05
3.06413e-05
3.06646e-05
3.07e-05
3.07407e-05
3.07815e-05
3.08201e-05
3.08539e-05
3.08829e-05
3.0907e-05
3.09249e-05
3.09384e-05
3.09479e-05
3.0954e-05
3.09599e-05
3.09387e-05
3.1105e-05
3.11275e-05
3.11237e-05
3.11208e-05
3.11152e-05
3.11056e-05
3.10909e-05
3.10705e-05
3.10444e-05
3.10124e-05
3.09755e-05
3.09351e-05
3.08947e-05
3.08589e-05
3.08356e-05
3.08355e-05
3.0859e-05
3.08948e-05
3.09353e-05
3.09757e-05
3.10124e-05
3.10442e-05
3.10703e-05
3.10908e-05
3.11049e-05
3.11149e-05
3.1121e-05
3.11248e-05
3.11284e-05
3.11052e-05
3.12906e-05
3.13162e-05
3.13153e-05
3.13172e-05
3.13169e-05
3.13128e-05
3.13041e-05
3.12898e-05
3.12692e-05
3.12423e-05
3.12094e-05
3.11722e-05
3.11336e-05
3.10986e-05
3.10756e-05
3.10758e-05
3.10989e-05
3.11338e-05
3.11722e-05
3.12102e-05
3.12425e-05
3.12687e-05
3.12897e-05
3.13038e-05
3.13121e-05
3.13167e-05
3.13173e-05
3.13162e-05
3.13164e-05
3.1291e-05
3.1494e-05
3.15243e-05
3.15278e-05
3.1537e-05
3.15457e-05
3.15507e-05
3.15511e-05
3.1546e-05
3.15346e-05
3.15172e-05
3.14932e-05
3.14626e-05
3.14293e-05
3.13991e-05
3.138e-05
3.13799e-05
3.1399e-05
3.14293e-05
3.14624e-05
3.14931e-05
3.15171e-05
3.15345e-05
3.15464e-05
3.15508e-05
3.155e-05
3.15459e-05
3.15376e-05
3.15286e-05
3.15241e-05
3.14941e-05
3.17105e-05
3.17486e-05
3.17596e-05
3.17803e-05
3.1803e-05
3.18239e-05
3.18411e-05
3.18534e-05
3.18613e-05
3.18663e-05
3.18693e-05
3.18726e-05
3.18854e-05
3.19019e-05
3.19294e-05
3.19293e-05
3.19018e-05
3.1885e-05
3.18733e-05
3.18699e-05
3.18662e-05
3.18613e-05
3.1854e-05
3.18408e-05
3.18235e-05
3.1803e-05
3.17807e-05
3.17599e-05
3.1749e-05
3.17111e-05
3.19742e-05
3.20258e-05
3.20534e-05
3.20991e-05
3.21537e-05
3.22171e-05
3.22906e-05
3.2379e-05
3.24891e-05
3.26647e-05
3.29205e-05
3.32898e-05
3.38243e-05
3.44549e-05
3.51242e-05
3.51231e-05
3.44556e-05
3.38249e-05
3.32915e-05
3.29233e-05
3.26666e-05
3.24904e-05
3.23795e-05
3.22901e-05
3.2217e-05
3.21533e-05
3.2099e-05
3.20529e-05
3.20252e-05
3.19744e-05
3.2358e-05
3.24412e-05
3.25402e-05
3.26948e-05
3.29127e-05
3.32403e-05
3.37351e-05
3.44747e-05
3.55331e-05
3.7328e-05
4.015e-05
4.42708e-05
4.95415e-05
5.57192e-05
6.2062e-05
6.20562e-05
5.57219e-05
4.95581e-05
4.43016e-05
4.01828e-05
3.73518e-05
3.55489e-05
3.44844e-05
3.37389e-05
3.32401e-05
3.29104e-05
3.26926e-05
3.25382e-05
3.24384e-05
3.2354e-05
3.30028e-05
3.32181e-05
3.37319e-05
3.45173e-05
3.5762e-05
3.78604e-05
4.13684e-05
4.69035e-05
5.51942e-05
6.74092e-05
8.7075e-05
0.000114664
0.000147551
0.000180589
0.000213546
0.000213539
0.00018061
0.000147716
0.000114919
8.7317e-05
6.75818e-05
5.53071e-05
4.69783e-05
4.14076e-05
3.78715e-05
3.57557e-05
3.45066e-05
3.37209e-05
3.32002e-05
3.2981e-05
3.57682e-05
3.65673e-05
3.91389e-05
4.29699e-05
4.92029e-05
5.96131e-05
7.74962e-05
0.000105681
0.000148471
0.000201145
0.000284815
0.000398342
0.000520896
0.000632886
0.00073813
0.000738164
0.000633041
0.000521761
0.000399568
0.000285953
0.000201942
0.000149064
0.00010607
7.77352e-05
5.97353e-05
4.92169e-05
4.29456e-05
3.91073e-05
3.64912e-05
3.56822e-05
4.79426e-05
5.08861e-05
6.13103e-05
7.62462e-05
9.96313e-05
0.000134596
0.00020508
0.000312785
0.000472567
0.000723854
0.0010837
0.00151322
0.00191674
0.00223835
0.00247939
0.00248013
0.00223973
0.00191999
0.00151805
0.00108835
0.000727437
0.000474826
0.000314158
0.000206027
0.000135323
9.98716e-05
7.6268e-05
6.12763e-05
5.06591e-05
4.77171e-05
8.13006e-05
9.19173e-05
0.000125212
0.000177538
0.000262702
0.000392391
0.000563382
0.000793757
0.00107804
0.00136748
0.0016725
0.00203779
0.00237869
0.00269474
0.00291717
0.00291772
0.00269563
0.002383
0.0020456
0.00168156
0.00137548
0.00108427
0.000797831
0.000566139
0.000394629
0.000263937
0.000178161
0.000125408
9.15124e-05
8.09731e-05
7.34859e-05
8.35121e-05
0.000124292
0.000203041
0.000315135
0.000443856
0.000588451
0.000777141
0.00104364
0.00140589
0.0018719
0.00237311
0.00281425
0.0031563
0.00341028
0.00341498
0.00316335
0.00282393
0.00238946
0.00188796
0.00141895
0.00105342
0.000783352
0.000592069
0.000446587
0.000317731
0.000204735
0.000124957
8.34775e-05
7.37761e-05
7.57952e-05
7.96512e-05
9.65568e-05
0.00013874
0.000231086
0.000386922
0.000592908
0.00082616
0.00107506
0.00134518
0.0016707
0.00204018
0.00240379
0.00267499
0.00287307
0.0028761
0.00268068
0.0024123
0.00205185
0.00168266
0.00135452
0.001083
0.000832763
0.000597941
0.000390577
0.000233192
0.000139658
9.66312e-05
7.92878e-05
7.58862e-05
7.82068e-05
8.03211e-05
8.73922e-05
0.000102299
0.000136355
0.000212507
0.00036351
0.000601647
0.000895477
0.00120621
0.00153236
0.00184526
0.00211763
0.0023185
0.00244995
0.0024522
0.00232273
0.00212456
0.00185369
0.00154067
0.0012135
0.000902411
0.000607902
0.000367604
0.000214954
0.000137532
0.000102754
8.75955e-05
8.02182e-05
7.80423e-05
8.00836e-05
8.09309e-05
8.49033e-05
9.14877e-05
0.000102362
0.000124342
0.000173046
0.000281124
0.000483485
0.00078265
0.00114919
0.00152402
0.00184457
0.00208099
0.00222933
0.00223021
0.00208297
0.00184901
0.00153042
0.00115602
0.000788511
0.000489024
0.00028475
0.000174697
0.000125084
0.000102744
9.15585e-05
8.49407e-05
8.10581e-05
7.97311e-05
8.15424e-05
8.1432e-05
8.40912e-05
8.8209e-05
9.36459e-05
0.000101309
0.00011411
0.000141585
0.00020294
0.00033144
0.000568001
0.000917687
0.00128879
0.00160924
0.00184873
0.00184998
0.00161012
0.00129125
0.000921345
0.000571479
0.000334476
0.00020469
0.000142392
0.000114548
0.000101445
9.379e-05
8.83079e-05
8.41771e-05
8.17275e-05
8.15499e-05
8.25057e-05
8.18053e-05
8.38289e-05
8.68793e-05
9.05085e-05
9.51416e-05
0.000100713
0.000108835
0.000122843
0.000153389
0.000222257
0.000365809
0.00058683
0.000861214
0.00114234
0.00114305
0.000861172
0.000587518
0.000367123
0.0002233
0.000154079
0.000123319
0.000108908
0.000100722
9.51827e-05
9.065e-05
8.68878e-05
8.36915e-05
8.1785e-05
8.25678e-05
8.26879e-05
8.15805e-05
8.289e-05
8.54694e-05
8.84651e-05
9.18221e-05
9.58479e-05
0.000100041
0.000105438
0.000113314
0.000127588
0.000159241
0.00021973
0.000320523
0.000454195
0.000454372
0.000320442
0.000219869
0.000159464
0.000127752
0.000113331
0.000105426
0.000100203
9.57659e-05
9.18673e-05
8.85253e-05
8.55526e-05
8.30396e-05
8.15053e-05
8.26486e-05
8.18029e-05
8.04319e-05
8.17583e-05
8.34676e-05
8.59174e-05
8.86066e-05
9.16546e-05
9.49009e-05
9.83513e-05
0.000101877
0.000106208
0.000112821
0.000123864
0.00014347
0.000172943
0.000172931
0.000143513
0.000123912
0.000112842
0.000106298
0.000101882
9.82925e-05
9.48975e-05
9.17037e-05
8.86809e-05
8.60473e-05
8.36053e-05
8.16962e-05
8.04623e-05
8.17903e-05
8.0065e-05
7.83344e-05
7.91883e-05
8.09189e-05
8.26759e-05
8.48882e-05
8.72998e-05
8.97116e-05
9.2075e-05
9.43971e-05
9.66477e-05
9.88182e-05
0.000101259
0.000104566
0.000108831
0.000108666
0.000104519
0.000101348
9.88429e-05
9.66933e-05
9.44009e-05
9.21769e-05
8.97703e-05
8.72505e-05
8.49174e-05
8.28138e-05
8.08686e-05
7.93214e-05
7.84422e-05
7.99263e-05
7.70689e-05
7.58199e-05
7.64278e-05
7.75137e-05
7.89467e-05
8.06525e-05
8.23521e-05
8.40651e-05
8.5755e-05
8.72364e-05
8.84148e-05
8.94171e-05
9.03121e-05
9.10247e-05
9.15579e-05
9.15286e-05
9.10684e-05
9.04252e-05
8.9504e-05
8.84328e-05
8.71496e-05
8.57006e-05
8.40864e-05
8.23196e-05
8.06663e-05
7.90164e-05
7.75531e-05
7.63925e-05
7.57866e-05
7.73037e-05
7.41267e-05
7.23295e-05
7.2775e-05
7.37442e-05
7.47433e-05
7.58783e-05
7.70762e-05
7.82758e-05
7.93103e-05
8.00784e-05
8.0697e-05
8.12259e-05
8.15198e-05
8.16137e-05
8.15843e-05
8.15934e-05
8.16131e-05
8.14848e-05
8.12229e-05
8.07822e-05
8.01652e-05
7.93325e-05
7.8306e-05
7.71145e-05
7.59203e-05
7.48025e-05
7.38273e-05
7.29551e-05
7.25098e-05
7.4027e-05
7.02728e-05
6.89182e-05
6.91397e-05
6.96499e-05
7.03971e-05
7.11532e-05
7.19558e-05
7.26123e-05
7.30638e-05
7.3394e-05
7.36225e-05
7.36386e-05
7.3447e-05
7.32815e-05
7.31955e-05
7.32354e-05
7.33888e-05
7.35113e-05
7.36101e-05
7.36364e-05
7.34832e-05
7.30968e-05
7.25323e-05
7.19126e-05
7.12174e-05
7.04581e-05
6.97304e-05
6.9125e-05
6.88929e-05
7.03622e-05
6.64534e-05
6.49952e-05
6.51729e-05
6.5527e-05
6.59686e-05
6.64374e-05
6.68371e-05
6.7107e-05
6.72497e-05
6.72453e-05
6.7031e-05
6.66452e-05
6.62238e-05
6.59033e-05
6.57e-05
6.56955e-05
6.59248e-05
6.62646e-05
6.66727e-05
6.70626e-05
6.7296e-05
6.73157e-05
6.71456e-05
6.6846e-05
6.64587e-05
6.60412e-05
6.5611e-05
6.52334e-05
6.51328e-05
6.64968e-05
6.25723e-05
6.11924e-05
6.12434e-05
6.15606e-05
6.17637e-05
6.19947e-05
6.20498e-05
6.20288e-05
6.19244e-05
6.16036e-05
6.10849e-05
6.04985e-05
5.99405e-05
5.94721e-05
5.91478e-05
5.91109e-05
5.94171e-05
5.99461e-05
6.05711e-05
6.11598e-05
6.16162e-05
6.19156e-05
6.20868e-05
6.2122e-05
6.2013e-05
6.18042e-05
6.15498e-05
6.13421e-05
6.13577e-05
6.2615e-05
5.86458e-05
5.76819e-05
5.76318e-05
5.76564e-05
5.77212e-05
5.77137e-05
5.76431e-05
5.75216e-05
5.71771e-05
5.65605e-05
5.58569e-05
5.51702e-05
5.45038e-05
5.39148e-05
5.3539e-05
5.35377e-05
5.3912e-05
5.45112e-05
5.52102e-05
5.59371e-05
5.66147e-05
5.71608e-05
5.75309e-05
5.77177e-05
5.77622e-05
5.77369e-05
5.76848e-05
5.76369e-05
5.77125e-05
5.88462e-05
5.53682e-05
5.4084e-05
5.40435e-05
5.40101e-05
5.40424e-05
5.39146e-05
5.37252e-05
5.33694e-05
5.27942e-05
5.21184e-05
5.14249e-05
5.06669e-05
4.98641e-05
4.91791e-05
4.87942e-05
4.88205e-05
4.92205e-05
4.98587e-05
5.06274e-05
5.1459e-05
5.22474e-05
5.28977e-05
5.3374e-05
5.37001e-05
5.3922e-05
5.4072e-05
5.4149e-05
5.41537e-05
5.42259e-05
5.52521e-05
5.18234e-05
5.09393e-05
5.08344e-05
5.08373e-05
5.06962e-05
5.04669e-05
5.01801e-05
4.97247e-05
4.91401e-05
4.84757e-05
4.76929e-05
4.68016e-05
4.59494e-05
4.53063e-05
4.49743e-05
4.50004e-05
4.53701e-05
4.59988e-05
4.67885e-05
4.76541e-05
4.84886e-05
4.92046e-05
4.97648e-05
5.01878e-05
5.05049e-05
5.0726e-05
5.08427e-05
5.08815e-05
5.09881e-05
5.19364e-05
4.88159e-05
4.81029e-05
4.79232e-05
4.78261e-05
4.75979e-05
4.73916e-05
4.70541e-05
4.65801e-05
4.60101e-05
4.5299e-05
4.44442e-05
4.35517e-05
4.27657e-05
4.21686e-05
4.18204e-05
4.18001e-05
4.21421e-05
4.27808e-05
4.35976e-05
4.4473e-05
4.53013e-05
4.60176e-05
4.66009e-05
4.7065e-05
4.74255e-05
4.76842e-05
4.7846e-05
4.79451e-05
4.80915e-05
4.89345e-05
4.63059e-05
4.54029e-05
4.53126e-05
4.51634e-05
4.49936e-05
4.47587e-05
4.43675e-05
4.38959e-05
4.331e-05
4.25722e-05
4.17529e-05
4.09495e-05
4.02274e-05
3.9635e-05
3.92647e-05
3.92363e-05
3.95858e-05
4.02272e-05
4.10196e-05
4.18364e-05
4.25992e-05
4.32805e-05
4.38711e-05
4.43638e-05
4.47526e-05
4.50384e-05
4.52309e-05
4.53575e-05
4.55047e-05
4.62299e-05
4.36819e-05
4.31053e-05
4.29978e-05
4.288e-05
4.27521e-05
4.2447e-05
4.20581e-05
4.15987e-05
4.10075e-05
4.03143e-05
3.95909e-05
3.887e-05
3.8174e-05
3.7578e-05
3.72137e-05
3.72e-05
3.75449e-05
3.81461e-05
3.8869e-05
3.96115e-05
4.03223e-05
4.09834e-05
4.15746e-05
4.207e-05
4.24546e-05
4.27336e-05
4.29245e-05
4.30539e-05
4.31984e-05
4.38324e-05
4.16261e-05
4.11605e-05
4.10303e-05
4.0916e-05
4.07011e-05
4.03806e-05
4.00405e-05
3.96068e-05
3.90682e-05
3.84695e-05
3.78242e-05
3.71319e-05
3.64415e-05
3.58696e-05
3.55476e-05
3.55619e-05
3.58952e-05
3.6445e-05
3.71002e-05
3.77837e-05
3.84537e-05
3.90826e-05
3.96407e-05
4.01e-05
4.04516e-05
4.07104e-05
4.09009e-05
4.10455e-05
4.11955e-05
4.17426e-05
3.9926e-05
3.938e-05
3.92982e-05
3.91675e-05
3.89289e-05
3.86842e-05
3.83787e-05
3.79684e-05
3.74911e-05
3.6957e-05
3.63501e-05
3.56939e-05
3.50686e-05
3.45814e-05
3.43213e-05
3.43477e-05
3.46418e-05
3.51167e-05
3.56928e-05
3.6309e-05
3.69246e-05
3.75007e-05
3.80046e-05
3.84164e-05
3.87377e-05
3.89871e-05
3.91834e-05
3.93354e-05
3.94719e-05
3.99158e-05
3.81953e-05
3.78982e-05
3.77875e-05
3.76534e-05
3.74847e-05
3.72866e-05
3.69815e-05
3.6603e-05
3.61769e-05
3.56837e-05
3.51236e-05
3.45458e-05
3.40167e-05
3.36003e-05
3.33593e-05
3.33594e-05
3.36021e-05
3.40176e-05
3.45385e-05
3.51063e-05
3.56708e-05
3.61893e-05
3.66361e-05
3.70038e-05
3.72999e-05
3.75369e-05
3.77219e-05
3.78551e-05
3.79616e-05
3.83148e-05
3.69013e-05
3.66814e-05
3.65419e-05
3.64102e-05
3.62722e-05
3.60558e-05
3.57657e-05
3.54403e-05
3.50654e-05
3.46233e-05
3.4137e-05
3.36482e-05
3.31909e-05
3.28043e-05
3.25589e-05
3.25411e-05
3.27631e-05
3.31557e-05
3.3642e-05
3.41588e-05
3.46559e-05
3.5102e-05
3.54857e-05
3.58086e-05
3.60759e-05
3.629e-05
3.64507e-05
3.656e-05
3.66462e-05
3.69401e-05
3.58737e-05
3.55391e-05
3.54512e-05
3.5334e-05
3.51917e-05
3.49868e-05
3.47527e-05
3.4484e-05
3.41574e-05
3.3777e-05
3.33674e-05
3.29482e-05
3.25388e-05
3.2181e-05
3.19525e-05
3.19416e-05
3.21558e-05
3.25175e-05
3.29473e-05
3.33875e-05
3.38025e-05
3.41767e-05
3.45074e-05
3.47947e-05
3.50354e-05
3.52257e-05
3.53653e-05
3.54612e-05
3.55394e-05
3.57862e-05
3.47843e-05
3.45606e-05
3.44917e-05
3.44054e-05
3.42844e-05
3.41309e-05
3.39452e-05
3.37081e-05
3.34188e-05
3.30919e-05
3.27375e-05
3.23644e-05
3.19967e-05
3.16817e-05
3.14876e-05
3.14841e-05
3.16769e-05
3.19918e-05
3.23562e-05
3.27259e-05
3.30796e-05
3.34079e-05
3.37049e-05
3.39635e-05
3.41767e-05
3.43414e-05
3.4462e-05
3.45476e-05
3.46179e-05
3.48155e-05
3.39173e-05
3.38231e-05
3.37392e-05
3.36747e-05
3.35753e-05
3.34439e-05
3.32677e-05
3.30473e-05
3.2795e-05
3.2516e-05
3.22086e-05
3.1882e-05
3.15643e-05
3.1298e-05
3.1136e-05
3.11312e-05
3.12925e-05
3.15607e-05
3.1872e-05
3.21937e-05
3.2508e-05
3.28018e-05
3.30635e-05
3.32844e-05
3.34603e-05
3.35946e-05
3.36957e-05
3.37721e-05
3.3835e-05
3.39899e-05
3.33107e-05
3.31769e-05
3.31218e-05
3.3058e-05
3.29607e-05
3.28296e-05
3.2668e-05
3.24835e-05
3.2279e-05
3.205e-05
3.17951e-05
3.15253e-05
3.12635e-05
3.10399e-05
3.08963e-05
3.08837e-05
3.10124e-05
3.12365e-05
3.15037e-05
3.17848e-05
3.20594e-05
3.23108e-05
3.2527e-05
3.27027e-05
3.28401e-05
3.2948e-05
3.30363e-05
3.3109e-05
3.31693e-05
3.32933e-05
3.27169e-05
3.2579e-05
3.25586e-05
3.24954e-05
3.24055e-05
3.22971e-05
3.21757e-05
3.2037e-05
3.18744e-05
3.16862e-05
3.14774e-05
3.12584e-05
3.10424e-05
3.085e-05
3.07182e-05
3.06976e-05
3.07968e-05
3.09805e-05
3.12095e-05
3.14519e-05
3.16847e-05
3.18924e-05
3.20663e-05
3.22054e-05
3.23167e-05
3.24102e-05
3.24923e-05
3.25619e-05
3.2617e-05
3.27122e-05
3.21711e-05
3.21176e-05
3.20943e-05
3.20432e-05
3.19751e-05
3.18981e-05
3.18074e-05
3.16936e-05
3.15527e-05
3.13896e-05
3.12133e-05
3.10303e-05
3.08467e-05
3.06768e-05
3.05545e-05
3.05337e-05
3.06214e-05
3.07769e-05
3.09729e-05
3.11803e-05
3.13762e-05
3.15482e-05
3.16915e-05
3.18083e-05
3.19054e-05
3.19895e-05
3.20619e-05
3.21194e-05
3.21601e-05