/*--------------------------------*- C++ -*----------------------------------*\
| =========                 |                                                 |
| \\      /  F ield         | OpenFOAM: The Open Source CFD Toolbox           |
|  \\    /   O peration     | Version:  2312                                  |
|   \\  /    A nd           | Website:  www.openfoam.com                      |
|    \\/     M anipulation  |                                                 |
\*---------------------------------------------------------------------------*/
FoamFile
{
    version     2.0;
    format      ascii;
    arch        "LSB;label=32;scalar=64";
    class       volScalarField;
    location    "0.489491";
    object      nut;
}
// * * * * * * * * * * * * * * * * * * * * * * * * * * * * * * * * * * * * * //

dimensions      [0 2 -1 0 0 0 0];

internalField   nonuniform List<scalar> 
90000
(
6.03189e-06
6.03191e-06
6.03194e-06
6.03196e-06
6.03197e-06
6.03198e-06
6.03199e-06
6.03199e-06
6.032e-06
6.03201e-06
6.03203e-06
6.03205e-06
6.03206e-06
6.03208e-06
6.03208e-06
6.03209e-06
6.0321e-06
6.03211e-06
6.03211e-06
6.03209e-06
6.03206e-06
6.03202e-06
6.03202e-06
6.03206e-06
6.0321e-06
6.03211e-06
6.0321e-06
6.03206e-06
6.032e-06
6.03194e-06
6.03189e-06
6.03521e-06
6.03535e-06
6.03536e-06
6.03537e-06
6.03539e-06
6.03542e-06
6.03545e-06
6.03548e-06
6.03551e-06
6.03554e-06
6.03557e-06
6.03558e-06
6.03559e-06
6.03559e-06
6.03559e-06
6.03558e-06
6.03555e-06
6.03553e-06
6.0355e-06
6.03549e-06
6.03548e-06
6.03547e-06
6.03545e-06
6.03542e-06
6.03539e-06
6.0354e-06
6.03547e-06
6.03546e-06
6.03263e-06
6.03196e-06
6.03546e-06
6.0356e-06
6.03561e-06
6.03562e-06
6.03562e-06
6.03563e-06
6.03565e-06
6.03567e-06
6.03569e-06
6.0357e-06
6.0357e-06
6.0357e-06
6.0357e-06
6.03569e-06
6.03567e-06
6.03565e-06
6.03563e-06
6.03564e-06
6.03566e-06
6.03566e-06
6.03565e-06
6.03564e-06
6.03563e-06
6.03564e-06
6.03565e-06
6.03563e-06
6.03554e-06
6.03519e-06
6.03217e-06
6.03203e-06
6.03557e-06
6.03572e-06
6.03573e-06
6.03573e-06
6.03573e-06
6.03572e-06
6.03572e-06
6.03572e-06
6.03571e-06
6.0357e-06
6.03569e-06
6.03567e-06
6.03565e-06
6.03563e-06
6.0356e-06
6.03559e-06
6.03562e-06
6.03564e-06
6.03566e-06
6.03566e-06
6.03566e-06
6.03566e-06
6.03569e-06
6.03572e-06
6.03574e-06
6.03575e-06
6.03573e-06
6.03538e-06
6.03201e-06
6.03211e-06
6.03567e-06
6.03582e-06
6.03583e-06
6.03583e-06
6.03581e-06
6.03579e-06
6.03576e-06
6.03574e-06
6.03571e-06
6.03569e-06
6.03566e-06
6.03562e-06
6.03559e-06
6.03555e-06
6.03555e-06
6.03557e-06
6.0356e-06
6.03563e-06
6.03565e-06
6.03566e-06
6.03567e-06
6.0357e-06
6.03573e-06
6.03574e-06
6.03571e-06
6.03568e-06
6.03566e-06
6.0355e-06
6.03207e-06
6.03218e-06
6.03575e-06
6.03589e-06
6.03589e-06
6.03588e-06
6.03586e-06
6.03583e-06
6.03579e-06
6.03574e-06
6.03569e-06
6.03565e-06
6.03561e-06
6.03558e-06
6.03555e-06
6.03554e-06
6.03555e-06
6.03557e-06
6.0356e-06
6.03563e-06
6.03565e-06
6.03569e-06
6.03572e-06
6.03575e-06
6.03575e-06
6.03574e-06
6.03572e-06
6.03572e-06
6.03576e-06
6.03565e-06
6.03217e-06
6.03223e-06
6.03582e-06
6.03593e-06
6.03591e-06
6.03589e-06
6.03586e-06
6.03583e-06
6.0358e-06
6.03574e-06
6.03568e-06
6.03562e-06
6.03558e-06
6.03556e-06
6.03555e-06
6.03556e-06
6.03557e-06
6.03559e-06
6.03561e-06
6.03565e-06
6.03571e-06
6.03576e-06
6.03579e-06
6.03579e-06
6.03578e-06
6.03578e-06
6.03583e-06
6.03588e-06
6.03592e-06
6.03579e-06
6.03227e-06
6.03227e-06
6.03584e-06
6.03594e-06
6.03591e-06
6.03588e-06
6.03585e-06
6.03583e-06
6.0358e-06
6.03575e-06
6.03569e-06
6.03563e-06
6.03559e-06
6.03557e-06
6.03558e-06
6.03559e-06
6.03561e-06
6.03563e-06
6.03565e-06
6.03572e-06
6.03577e-06
6.03581e-06
6.03583e-06
6.03583e-06
6.03584e-06
6.03589e-06
6.03595e-06
6.03601e-06
6.03604e-06
6.0359e-06
6.03238e-06
6.03227e-06
6.03584e-06
6.03594e-06
6.03591e-06
6.03587e-06
6.03584e-06
6.03583e-06
6.0358e-06
6.03577e-06
6.03573e-06
6.03569e-06
6.03565e-06
6.03562e-06
6.03562e-06
6.03564e-06
6.03567e-06
6.03571e-06
6.03575e-06
6.03579e-06
6.03582e-06
6.03584e-06
6.03584e-06
6.03584e-06
6.03589e-06
6.03595e-06
6.03602e-06
6.03607e-06
6.0361e-06
6.03596e-06
6.03244e-06
6.03227e-06
6.03584e-06
6.03593e-06
6.03591e-06
6.03587e-06
6.03585e-06
6.03583e-06
6.03581e-06
6.0358e-06
6.03577e-06
6.03575e-06
6.03572e-06
6.03569e-06
6.03567e-06
6.03568e-06
6.03572e-06
6.03578e-06
6.03582e-06
6.03584e-06
6.03585e-06
6.03585e-06
6.03585e-06
6.03585e-06
6.03588e-06
6.03594e-06
6.03601e-06
6.03606e-06
6.03609e-06
6.03595e-06
6.03244e-06
6.0323e-06
6.03585e-06
6.03595e-06
6.03593e-06
6.0359e-06
6.03586e-06
6.03583e-06
6.03581e-06
6.0358e-06
6.0358e-06
6.03579e-06
6.03578e-06
6.03576e-06
6.03572e-06
6.03569e-06
6.03573e-06
6.03578e-06
6.03582e-06
6.03584e-06
6.03585e-06
6.03584e-06
6.03584e-06
6.03583e-06
6.03585e-06
6.0359e-06
6.03596e-06
6.03601e-06
6.03604e-06
6.0359e-06
6.0324e-06
6.03236e-06
6.03589e-06
6.036e-06
6.03599e-06
6.03596e-06
6.03592e-06
6.03588e-06
6.03583e-06
6.0358e-06
6.0358e-06
6.03581e-06
6.03581e-06
6.03579e-06
6.03574e-06
6.03568e-06
6.03569e-06
6.03574e-06
6.03578e-06
6.0358e-06
6.03582e-06
6.03582e-06
6.03582e-06
6.03583e-06
6.03584e-06
6.03588e-06
6.03592e-06
6.03596e-06
6.03598e-06
6.03584e-06
6.03236e-06
6.03244e-06
6.03597e-06
6.03608e-06
6.03607e-06
6.03604e-06
6.036e-06
6.03596e-06
6.03591e-06
6.03586e-06
6.03582e-06
6.0358e-06
6.03581e-06
6.0358e-06
6.03575e-06
6.03569e-06
6.03566e-06
6.03569e-06
6.03572e-06
6.03575e-06
6.03578e-06
6.03581e-06
6.03584e-06
6.03587e-06
6.03588e-06
6.0359e-06
6.03593e-06
6.03595e-06
6.03597e-06
6.03582e-06
6.03237e-06
6.03258e-06
6.03605e-06
6.03617e-06
6.03615e-06
6.03612e-06
6.03608e-06
6.03603e-06
6.03598e-06
6.03592e-06
6.03586e-06
6.03582e-06
6.03579e-06
6.03578e-06
6.03575e-06
6.03571e-06
6.03568e-06
6.03568e-06
6.03569e-06
6.03571e-06
6.03576e-06
6.03584e-06
6.0359e-06
6.03595e-06
6.03597e-06
6.03596e-06
6.03598e-06
6.03599e-06
6.036e-06
6.03586e-06
6.03244e-06
6.03279e-06
6.0361e-06
6.03624e-06
6.03623e-06
6.03619e-06
6.03615e-06
6.0361e-06
6.03604e-06
6.03598e-06
6.03592e-06
6.03585e-06
6.03579e-06
6.03577e-06
6.03574e-06
6.03572e-06
6.0357e-06
6.0357e-06
6.03571e-06
6.03575e-06
6.03583e-06
6.03592e-06
6.036e-06
6.03605e-06
6.03607e-06
6.03607e-06
6.03607e-06
6.03608e-06
6.03609e-06
6.03595e-06
6.03256e-06
6.03298e-06
6.03619e-06
6.03634e-06
6.03632e-06
6.03627e-06
6.03622e-06
6.03616e-06
6.0361e-06
6.03605e-06
6.03599e-06
6.03591e-06
6.03581e-06
6.03576e-06
6.03574e-06
6.03572e-06
6.03572e-06
6.03574e-06
6.03578e-06
6.03585e-06
6.03594e-06
6.03602e-06
6.03609e-06
6.03615e-06
6.03618e-06
6.0362e-06
6.0362e-06
6.03621e-06
6.03623e-06
6.03612e-06
6.03273e-06
6.03311e-06
6.03634e-06
6.03647e-06
6.03643e-06
6.03637e-06
6.03631e-06
6.03625e-06
6.0362e-06
6.03616e-06
6.03609e-06
6.03598e-06
6.03586e-06
6.03579e-06
6.03575e-06
6.03572e-06
6.03573e-06
6.03578e-06
6.03585e-06
6.03595e-06
6.03604e-06
6.03613e-06
6.03619e-06
6.03626e-06
6.03631e-06
6.03635e-06
6.03638e-06
6.03642e-06
6.03647e-06
6.03635e-06
6.03294e-06
6.03322e-06
6.03649e-06
6.03662e-06
6.03658e-06
6.03652e-06
6.03647e-06
6.03641e-06
6.03637e-06
6.03631e-06
6.03621e-06
6.03607e-06
6.03595e-06
6.03585e-06
6.03578e-06
6.03573e-06
6.03574e-06
6.03582e-06
6.03593e-06
6.03605e-06
6.03616e-06
6.03625e-06
6.03632e-06
6.03639e-06
6.03648e-06
6.03655e-06
6.03661e-06
6.03667e-06
6.03671e-06
6.03657e-06
6.03314e-06
6.03336e-06
6.03667e-06
6.0368e-06
6.03677e-06
6.03673e-06
6.0367e-06
6.03667e-06
6.0366e-06
6.0365e-06
6.03636e-06
6.03619e-06
6.03606e-06
6.03594e-06
6.03583e-06
6.03575e-06
6.03575e-06
6.03585e-06
6.03599e-06
6.03614e-06
6.03626e-06
6.03637e-06
6.03646e-06
6.03655e-06
6.03666e-06
6.03677e-06
6.03686e-06
6.03691e-06
6.03693e-06
6.03676e-06
6.03332e-06
6.03362e-06
6.0369e-06
6.03704e-06
6.03702e-06
6.03701e-06
6.03699e-06
6.03695e-06
6.03687e-06
6.03673e-06
6.03656e-06
6.03638e-06
6.0362e-06
6.03603e-06
6.03587e-06
6.03575e-06
6.03575e-06
6.03588e-06
6.03605e-06
6.03621e-06
6.03635e-06
6.03648e-06
6.0366e-06
6.03674e-06
6.03689e-06
6.03702e-06
6.03711e-06
6.03714e-06
6.03713e-06
6.03694e-06
6.03353e-06
6.03395e-06
6.03722e-06
6.03737e-06
6.03738e-06
6.03738e-06
6.03736e-06
6.0373e-06
6.03718e-06
6.03701e-06
6.03681e-06
6.03658e-06
6.03635e-06
6.03612e-06
6.03591e-06
6.03576e-06
6.03578e-06
6.03594e-06
6.03614e-06
6.03633e-06
6.0365e-06
6.03666e-06
6.03684e-06
6.03703e-06
6.0372e-06
6.03733e-06
6.03741e-06
6.03743e-06
6.03741e-06
6.03723e-06
6.03389e-06
6.03438e-06
6.03767e-06
6.03784e-06
6.03786e-06
6.03785e-06
6.03781e-06
6.0377e-06
6.03753e-06
6.03731e-06
6.03706e-06
6.03679e-06
6.0365e-06
6.03623e-06
6.03598e-06
6.03582e-06
6.03587e-06
6.03607e-06
6.0363e-06
6.03653e-06
6.03676e-06
6.03698e-06
6.03722e-06
6.03744e-06
6.03763e-06
6.03775e-06
6.03783e-06
6.03786e-06
6.03787e-06
6.03773e-06
6.03448e-06
6.03495e-06
6.03826e-06
6.03845e-06
6.03846e-06
6.03842e-06
6.03831e-06
6.03814e-06
6.03791e-06
6.03764e-06
6.03735e-06
6.03704e-06
6.03672e-06
6.03641e-06
6.03614e-06
6.03597e-06
6.03603e-06
6.03627e-06
6.03655e-06
6.03684e-06
6.03713e-06
6.03742e-06
6.0377e-06
6.03794e-06
6.03813e-06
6.03826e-06
6.03836e-06
6.03843e-06
6.03849e-06
6.03842e-06
6.03517e-06
6.03566e-06
6.039e-06
6.03918e-06
6.03916e-06
6.03906e-06
6.03889e-06
6.03866e-06
6.03838e-06
6.03807e-06
6.03774e-06
6.03739e-06
6.03704e-06
6.0367e-06
6.0364e-06
6.03619e-06
6.03624e-06
6.0365e-06
6.03683e-06
6.03719e-06
6.03755e-06
6.0379e-06
6.03822e-06
6.03848e-06
6.03868e-06
6.03885e-06
6.03899e-06
6.03912e-06
6.03924e-06
6.0392e-06
6.03587e-06
6.03655e-06
6.03992e-06
6.04005e-06
6.03997e-06
6.03982e-06
6.03959e-06
6.03931e-06
6.03899e-06
6.03864e-06
6.03827e-06
6.03788e-06
6.03748e-06
6.03708e-06
6.03671e-06
6.03643e-06
6.03645e-06
6.03674e-06
6.03713e-06
6.03757e-06
6.038e-06
6.03841e-06
6.03877e-06
6.03907e-06
6.03932e-06
6.03956e-06
6.03978e-06
6.03997e-06
6.04013e-06
6.04006e-06
6.0367e-06
6.03769e-06
6.04102e-06
6.0411e-06
6.04096e-06
6.04076e-06
6.04049e-06
6.04017e-06
6.0398e-06
6.03938e-06
6.03894e-06
6.03848e-06
6.038e-06
6.03752e-06
6.03705e-06
6.0367e-06
6.03669e-06
6.03703e-06
6.0375e-06
6.03803e-06
6.03855e-06
6.03902e-06
6.03944e-06
6.03981e-06
6.04016e-06
6.04049e-06
6.0408e-06
6.04104e-06
6.04121e-06
6.04114e-06
6.03783e-06
6.03906e-06
6.04234e-06
6.04237e-06
6.04219e-06
6.04194e-06
6.04162e-06
6.04123e-06
6.04078e-06
6.04028e-06
6.03975e-06
6.0392e-06
6.03863e-06
6.03804e-06
6.03747e-06
6.03705e-06
6.03704e-06
6.03744e-06
6.03802e-06
6.03864e-06
6.03925e-06
6.0398e-06
6.04031e-06
6.04078e-06
6.04123e-06
6.04165e-06
6.04202e-06
6.04229e-06
6.04249e-06
6.04248e-06
6.0392e-06
6.0407e-06
6.04393e-06
6.04392e-06
6.04368e-06
6.04336e-06
6.04297e-06
6.0425e-06
6.04195e-06
6.04137e-06
6.04075e-06
6.04009e-06
6.03941e-06
6.03869e-06
6.03802e-06
6.03753e-06
6.03753e-06
6.03801e-06
6.03869e-06
6.03942e-06
6.04012e-06
6.04078e-06
6.0414e-06
6.04199e-06
6.04253e-06
6.04301e-06
6.04341e-06
6.04375e-06
6.044e-06
6.04403e-06
6.04077e-06
6.04265e-06
6.04582e-06
6.04576e-06
6.04546e-06
6.04507e-06
6.04458e-06
6.04402e-06
6.04339e-06
6.04271e-06
6.04198e-06
6.0412e-06
6.04037e-06
6.03951e-06
6.03871e-06
6.03817e-06
6.03817e-06
6.03872e-06
6.03951e-06
6.04036e-06
6.04119e-06
6.04199e-06
6.04275e-06
6.04346e-06
6.04409e-06
6.04463e-06
6.0451e-06
6.04552e-06
6.04582e-06
6.04586e-06
6.04268e-06
6.04496e-06
6.04807e-06
6.04796e-06
6.0476e-06
6.04712e-06
6.04655e-06
6.04589e-06
6.04516e-06
6.04436e-06
6.0435e-06
6.04255e-06
6.04154e-06
6.04053e-06
6.03961e-06
6.03899e-06
6.03901e-06
6.03963e-06
6.04053e-06
6.04152e-06
6.04252e-06
6.04348e-06
6.04439e-06
6.04523e-06
6.04596e-06
6.04659e-06
6.04718e-06
6.04767e-06
6.048e-06
6.04808e-06
6.045e-06
6.0477e-06
6.05078e-06
6.05062e-06
6.05019e-06
6.04963e-06
6.04896e-06
6.04818e-06
6.04731e-06
6.04638e-06
6.04535e-06
6.04422e-06
6.04303e-06
6.04185e-06
6.04081e-06
6.0401e-06
6.04011e-06
6.04081e-06
6.04184e-06
6.04299e-06
6.04417e-06
6.04531e-06
6.04638e-06
6.04733e-06
6.04818e-06
6.04897e-06
6.04966e-06
6.05022e-06
6.05061e-06
6.05078e-06
6.04771e-06
6.051e-06
6.05405e-06
6.05385e-06
6.05334e-06
6.05267e-06
6.05186e-06
6.05094e-06
6.04994e-06
6.04885e-06
6.04764e-06
6.04632e-06
6.04494e-06
6.04356e-06
6.04234e-06
6.04152e-06
6.0415e-06
6.04229e-06
6.04348e-06
6.04484e-06
6.04623e-06
6.04758e-06
6.0488e-06
6.04989e-06
6.05092e-06
6.05187e-06
6.05266e-06
6.0533e-06
6.05381e-06
6.05404e-06
6.05097e-06
6.05498e-06
6.05798e-06
6.0577e-06
6.05709e-06
6.0563e-06
6.05536e-06
6.05431e-06
6.05316e-06
6.05189e-06
6.05048e-06
6.04893e-06
6.04729e-06
6.04568e-06
6.04425e-06
6.0433e-06
6.04328e-06
6.0442e-06
6.04561e-06
6.04721e-06
6.04884e-06
6.0504e-06
6.05181e-06
6.05311e-06
6.05433e-06
6.05542e-06
6.05631e-06
6.05706e-06
6.05768e-06
6.05794e-06
6.05498e-06
6.05973e-06
6.06264e-06
6.06227e-06
6.06157e-06
6.06067e-06
6.05961e-06
6.05841e-06
6.05708e-06
6.05559e-06
6.05392e-06
6.0521e-06
6.0502e-06
6.04835e-06
6.04673e-06
6.04566e-06
6.04567e-06
6.04674e-06
6.04837e-06
6.05022e-06
6.05209e-06
6.05386e-06
6.05551e-06
6.05705e-06
6.05846e-06
6.05968e-06
6.06071e-06
6.06157e-06
6.06225e-06
6.06259e-06
6.05975e-06
6.06538e-06
6.06818e-06
6.06774e-06
6.06696e-06
6.06596e-06
6.06476e-06
6.06337e-06
6.0618e-06
6.06005e-06
6.05813e-06
6.05606e-06
6.05393e-06
6.05184e-06
6.05002e-06
6.04881e-06
6.04881e-06
6.05002e-06
6.05187e-06
6.05396e-06
6.05608e-06
6.05812e-06
6.06002e-06
6.06181e-06
6.06339e-06
6.06478e-06
6.06599e-06
6.06696e-06
6.0677e-06
6.06816e-06
6.06537e-06
6.0721e-06
6.07481e-06
6.0743e-06
6.07345e-06
6.07232e-06
6.07094e-06
6.06933e-06
6.06751e-06
6.06553e-06
6.06338e-06
6.06107e-06
6.05866e-06
6.0563e-06
6.05423e-06
6.05287e-06
6.05289e-06
6.05425e-06
6.05633e-06
6.05868e-06
6.06106e-06
6.06338e-06
6.06553e-06
6.06755e-06
6.06933e-06
6.07092e-06
6.07233e-06
6.07343e-06
6.07426e-06
6.07478e-06
6.07208e-06
6.08011e-06
6.08275e-06
6.08215e-06
6.08119e-06
6.0799e-06
6.07833e-06
6.07651e-06
6.07446e-06
6.07224e-06
6.06984e-06
6.06725e-06
6.06455e-06
6.06191e-06
6.05965e-06
6.05818e-06
6.05822e-06
6.05972e-06
6.06199e-06
6.06458e-06
6.06721e-06
6.06985e-06
6.07223e-06
6.0745e-06
6.07651e-06
6.07832e-06
6.07992e-06
6.0812e-06
6.0821e-06
6.08268e-06
6.08009e-06
6.08961e-06
6.09218e-06
6.09146e-06
6.09037e-06
6.08894e-06
6.08719e-06
6.08515e-06
6.08287e-06
6.08039e-06
6.07774e-06
6.07491e-06
6.07198e-06
6.06911e-06
6.06663e-06
6.065e-06
6.065e-06
6.06659e-06
6.06905e-06
6.07194e-06
6.07487e-06
6.07785e-06
6.08045e-06
6.08298e-06
6.08521e-06
6.0872e-06
6.08902e-06
6.09046e-06
6.09144e-06
6.09215e-06
6.08964e-06
6.10081e-06
6.10331e-06
6.10246e-06
6.10127e-06
6.0997e-06
6.09776e-06
6.0955e-06
6.09299e-06
6.0903e-06
6.08748e-06
6.08445e-06
6.08128e-06
6.07814e-06
6.07539e-06
6.07359e-06
6.07358e-06
6.07535e-06
6.07805e-06
6.08122e-06
6.08436e-06
6.08756e-06
6.09034e-06
6.09314e-06
6.09559e-06
6.09779e-06
6.09981e-06
6.10136e-06
6.10247e-06
6.10334e-06
6.1009e-06
6.11395e-06
6.11646e-06
6.11548e-06
6.11419e-06
6.11246e-06
6.11033e-06
6.10789e-06
6.10524e-06
6.10241e-06
6.09941e-06
6.09614e-06
6.09272e-06
6.08936e-06
6.08649e-06
6.08462e-06
6.08465e-06
6.08652e-06
6.08932e-06
6.09264e-06
6.09591e-06
6.09933e-06
6.10231e-06
6.10535e-06
6.10801e-06
6.1104e-06
6.11257e-06
6.11424e-06
6.1155e-06
6.11658e-06
6.11411e-06
6.12937e-06
6.13194e-06
6.13081e-06
6.12938e-06
6.12752e-06
6.12529e-06
6.12277e-06
6.11999e-06
6.11697e-06
6.11377e-06
6.1104e-06
6.10695e-06
6.10356e-06
6.10058e-06
6.09856e-06
6.0985e-06
6.10044e-06
6.10341e-06
6.10693e-06
6.11033e-06
6.11377e-06
6.1168e-06
6.1199e-06
6.12276e-06
6.12534e-06
6.12761e-06
6.12942e-06
6.13078e-06
6.13206e-06
6.12951e-06
6.14739e-06
6.15004e-06
6.14871e-06
6.14723e-06
6.14535e-06
6.14308e-06
6.14045e-06
6.1375e-06
6.13437e-06
6.1312e-06
6.12797e-06
6.12458e-06
6.12112e-06
6.11802e-06
6.116e-06
6.11605e-06
6.11815e-06
6.12115e-06
6.12453e-06
6.12788e-06
6.13117e-06
6.13425e-06
6.13734e-06
6.14036e-06
6.14301e-06
6.14535e-06
6.14728e-06
6.14871e-06
6.15005e-06
6.14739e-06
6.16835e-06
6.17114e-06
6.16967e-06
6.16824e-06
6.16639e-06
6.16405e-06
6.16131e-06
6.15835e-06
6.1554e-06
6.15238e-06
6.14928e-06
6.146e-06
6.14279e-06
6.13993e-06
6.13805e-06
6.13797e-06
6.13988e-06
6.14279e-06
6.14601e-06
6.14932e-06
6.15233e-06
6.15535e-06
6.15838e-06
6.16134e-06
6.16396e-06
6.16635e-06
6.16831e-06
6.16985e-06
6.17124e-06
6.16834e-06
6.1927e-06
6.19587e-06
6.19437e-06
6.19303e-06
6.19119e-06
6.18883e-06
6.18615e-06
6.18334e-06
6.18053e-06
6.17776e-06
6.17506e-06
6.17235e-06
6.16959e-06
6.16682e-06
6.16495e-06
6.1649e-06
6.1668e-06
6.16953e-06
6.17233e-06
6.1753e-06
6.17779e-06
6.18038e-06
6.1833e-06
6.18609e-06
6.18871e-06
6.19121e-06
6.19304e-06
6.19445e-06
6.19589e-06
6.1928e-06
6.22079e-06
6.2246e-06
6.22311e-06
6.22198e-06
6.2204e-06
6.21825e-06
6.21571e-06
6.213e-06
6.21044e-06
6.2084e-06
6.20655e-06
6.2045e-06
6.20232e-06
6.2003e-06
6.19911e-06
6.19908e-06
6.20034e-06
6.20228e-06
6.20441e-06
6.20649e-06
6.20841e-06
6.21046e-06
6.21307e-06
6.21562e-06
6.21816e-06
6.22049e-06
6.22207e-06
6.2232e-06
6.22455e-06
6.22079e-06
6.25269e-06
6.25756e-06
6.25629e-06
6.25577e-06
6.25492e-06
6.25349e-06
6.25157e-06
6.2495e-06
6.24795e-06
6.24775e-06
6.24826e-06
6.24956e-06
6.2522e-06
6.25514e-06
6.25844e-06
6.25836e-06
6.2551e-06
6.25205e-06
6.24977e-06
6.24845e-06
6.24767e-06
6.24796e-06
6.24965e-06
6.25156e-06
6.25345e-06
6.2549e-06
6.25577e-06
6.25629e-06
6.25768e-06
6.25282e-06
6.2957e-06
6.30251e-06
6.30274e-06
6.3047e-06
6.30677e-06
6.30905e-06
6.31149e-06
6.31401e-06
6.31679e-06
6.33135e-06
6.35469e-06
6.38926e-06
6.43917e-06
6.49761e-06
6.55877e-06
6.55874e-06
6.49781e-06
6.4392e-06
6.3893e-06
6.35496e-06
6.3315e-06
6.31691e-06
6.31398e-06
6.31136e-06
6.30908e-06
6.30674e-06
6.30465e-06
6.30261e-06
6.30235e-06
6.2957e-06
6.36465e-06
6.37701e-06
6.38976e-06
6.40949e-06
6.4359e-06
6.4727e-06
6.52051e-06
6.57595e-06
6.62443e-06
6.75764e-06
6.9869e-06
7.31557e-06
7.71361e-06
8.15391e-06
8.58482e-06
8.5847e-06
8.15397e-06
7.71496e-06
7.31815e-06
6.98967e-06
6.75968e-06
6.62609e-06
6.57722e-06
6.5211e-06
6.47276e-06
6.43556e-06
6.40908e-06
6.38939e-06
6.37643e-06
6.36386e-06
6.51106e-06
6.54838e-06
6.6417e-06
6.77177e-06
6.95677e-06
7.21826e-06
7.57377e-06
8.00642e-06
8.46644e-06
8.97313e-06
1.00713e-05
1.14882e-05
1.29692e-05
1.43153e-05
1.55199e-05
1.55202e-05
1.43166e-05
1.2977e-05
1.15011e-05
1.00851e-05
8.98439e-06
8.47575e-06
8.01428e-06
7.57905e-06
7.22102e-06
6.9567e-06
6.77052e-06
6.64008e-06
6.54496e-06
6.50718e-06
7.10321e-06
7.23156e-06
7.67279e-06
8.23498e-06
8.9884e-06
9.85955e-06
1.10766e-05
1.26452e-05
1.4695e-05
1.55431e-05
1.80746e-05
2.15105e-05
2.48901e-05
2.76147e-05
2.97485e-05
2.97513e-05
2.76194e-05
2.491e-05
2.15417e-05
1.81089e-05
1.55684e-05
1.47265e-05
1.26714e-05
1.10978e-05
9.87919e-06
8.99414e-06
8.23435e-06
7.67043e-06
7.22014e-06
7.091e-06
8.87707e-06
9.22915e-06
1.0518e-05
1.19192e-05
1.34476e-05
1.4382e-05
1.83344e-05
2.36885e-05
3.1223e-05
4.22012e-05
5.20095e-05
5.91331e-05
6.16237e-05
6.29118e-05
6.4245e-05
6.42668e-05
6.29357e-05
6.16841e-05
5.9191e-05
5.20965e-05
4.23074e-05
3.1291e-05
2.374e-05
1.83762e-05
1.44479e-05
1.3475e-05
1.19238e-05
1.05215e-05
9.21346e-06
8.85945e-06
1.12229e-05
1.22938e-05
1.50316e-05
1.88725e-05
2.38546e-05
2.86784e-05
3.18852e-05
3.57236e-05
3.93069e-05
4.00508e-05
4.11123e-05
4.44457e-05
4.8693e-05
5.33856e-05
5.52652e-05
5.52731e-05
5.33903e-05
4.86894e-05
4.45436e-05
4.12423e-05
4.01739e-05
3.94513e-05
3.57876e-05
3.19085e-05
2.87727e-05
2.38964e-05
1.88981e-05
1.50616e-05
1.22787e-05
1.12e-05
9.9046e-06
1.1315e-05
1.54413e-05
2.09618e-05
2.54654e-05
2.89194e-05
3.26153e-05
3.73775e-05
4.23498e-05
4.57675e-05
4.81306e-05
4.98221e-05
5.20886e-05
5.48636e-05
5.61878e-05
5.62446e-05
5.4883e-05
5.20367e-05
4.98487e-05
4.81757e-05
4.58067e-05
4.25131e-05
3.75618e-05
3.27024e-05
2.89939e-05
2.55842e-05
2.10932e-05
1.55206e-05
1.13243e-05
9.91402e-06
1.0163e-05
1.06929e-05
1.28011e-05
1.74431e-05
2.42653e-05
3.02009e-05
3.43324e-05
3.77389e-05
4.10994e-05
4.48625e-05
4.8951e-05
5.26319e-05
5.60138e-05
5.81289e-05
5.95679e-05
5.9626e-05
5.81835e-05
5.61193e-05
5.28667e-05
4.91901e-05
4.50367e-05
4.12369e-05
3.78344e-05
3.44377e-05
3.02595e-05
2.43705e-05
1.75617e-05
1.28367e-05
1.07256e-05
1.02319e-05
1.05449e-05
1.08281e-05
1.16313e-05
1.35151e-05
1.78647e-05
2.53726e-05
3.3506e-05
3.8785e-05
4.19865e-05
4.48741e-05
4.80777e-05
5.06747e-05
5.32797e-05
5.49299e-05
5.58737e-05
5.58966e-05
5.4944e-05
5.33052e-05
5.07535e-05
4.81719e-05
4.49331e-05
4.20712e-05
3.89114e-05
3.36287e-05
2.55494e-05
1.79966e-05
1.35593e-05
1.1633e-05
1.07732e-05
1.06034e-05
1.07526e-05
1.09069e-05
1.12811e-05
1.19805e-05
1.33708e-05
1.65359e-05
2.31805e-05
3.29043e-05
4.00872e-05
4.38787e-05
4.72641e-05
5.01502e-05
5.23453e-05
5.3771e-05
5.39541e-05
5.39424e-05
5.38037e-05
5.24325e-05
5.02683e-05
4.73871e-05
4.39003e-05
4.01666e-05
3.31597e-05
2.33398e-05
1.66371e-05
1.34257e-05
1.20103e-05
1.12794e-05
1.08588e-05
1.07127e-05
1.08592e-05
1.09224e-05
1.11245e-05
1.14873e-05
1.2009e-05
1.2878e-05
1.4683e-05
1.88754e-05
2.69821e-05
3.69483e-05
4.47748e-05
4.88501e-05
5.13603e-05
5.28662e-05
5.33067e-05
5.33263e-05
5.28917e-05
5.14181e-05
4.88876e-05
4.48417e-05
3.71554e-05
2.71655e-05
1.90025e-05
1.47484e-05
1.29101e-05
1.2036e-05
1.15139e-05
1.11822e-05
1.09668e-05
1.08752e-05
1.08854e-05
1.09123e-05
1.10641e-05
1.1284e-05
1.1544e-05
1.19461e-05
1.2467e-05
1.34471e-05
1.54637e-05
2.01064e-05
2.92644e-05
4.09155e-05
4.89772e-05
5.23012e-05
5.25683e-05
5.26269e-05
5.23094e-05
4.90117e-05
4.09923e-05
2.93447e-05
2.023e-05
1.5553e-05
1.34519e-05
1.24665e-05
1.19594e-05
1.15684e-05
1.12741e-05
1.10461e-05
1.09002e-05
1.09091e-05
1.08736e-05
1.08581e-05
1.09194e-05
1.11249e-05
1.13179e-05
1.15716e-05
1.18557e-05
1.21934e-05
1.27097e-05
1.37242e-05
1.59209e-05
2.10639e-05
2.992e-05
4.00499e-05
4.70582e-05
4.71263e-05
4.00586e-05
2.9915e-05
2.11025e-05
1.59469e-05
1.3725e-05
1.2717e-05
1.22103e-05
1.18531e-05
1.1578e-05
1.133e-05
1.11367e-05
1.09501e-05
1.08507e-05
1.08675e-05
1.07601e-05
1.07276e-05
1.08358e-05
1.0916e-05
1.10961e-05
1.12601e-05
1.14818e-05
1.17048e-05
1.19612e-05
1.22609e-05
1.27409e-05
1.37453e-05
1.56798e-05
1.92206e-05
2.43373e-05
2.43475e-05
1.92254e-05
1.56721e-05
1.37465e-05
1.27599e-05
1.22632e-05
1.19549e-05
1.16997e-05
1.14896e-05
1.12718e-05
1.1108e-05
1.09453e-05
1.08211e-05
1.0734e-05
1.07751e-05
1.06478e-05
1.05303e-05
1.05909e-05
1.07135e-05
1.08136e-05
1.09615e-05
1.11335e-05
1.12864e-05
1.1453e-05
1.16209e-05
1.18191e-05
1.20664e-05
1.24121e-05
1.30001e-05
1.38591e-05
1.38344e-05
1.29973e-05
1.24279e-05
1.2068e-05
1.18254e-05
1.16124e-05
1.14518e-05
1.12901e-05
1.11286e-05
1.09623e-05
1.08387e-05
1.07008e-05
1.06098e-05
1.05473e-05
1.06093e-05
1.03467e-05
1.03385e-05
1.03654e-05
1.04063e-05
1.05172e-05
1.06312e-05
1.07428e-05
1.08596e-05
1.09818e-05
1.10886e-05
1.11816e-05
1.12748e-05
1.13818e-05
1.15041e-05
1.16258e-05
1.16112e-05
1.15033e-05
1.14008e-05
1.12816e-05
1.1178e-05
1.10793e-05
1.09816e-05
1.08748e-05
1.07432e-05
1.06341e-05
1.05317e-05
1.04334e-05
1.036e-05
1.0325e-05
1.03907e-05
1.01452e-05
1.00256e-05
1.00424e-05
1.0123e-05
1.01809e-05
1.02556e-05
1.03371e-05
1.0424e-05
1.04955e-05
1.05441e-05
1.05883e-05
1.06386e-05
1.06792e-05
1.07063e-05
1.07145e-05
1.07116e-05
1.07075e-05
1.06838e-05
1.06423e-05
1.05952e-05
1.05482e-05
1.04913e-05
1.04263e-05
1.03375e-05
1.02637e-05
1.0197e-05
1.01398e-05
1.00749e-05
1.00474e-05
1.01234e-05
9.80173e-06
9.75613e-06
9.74798e-06
9.7943e-06
9.81915e-06
9.87898e-06
9.93466e-06
9.97753e-06
1.00017e-05
1.00179e-05
1.00358e-05
1.0045e-05
1.00317e-05
1.00218e-05
1.00207e-05
1.00286e-05
1.00391e-05
1.00327e-05
1.00292e-05
1.00336e-05
1.003e-05
1.00071e-05
9.9713e-06
9.9354e-06
9.89859e-06
9.84864e-06
9.79684e-06
9.75268e-06
9.74617e-06
9.82738e-06
9.50671e-06
9.4165e-06
9.4274e-06
9.42132e-06
9.46573e-06
9.49886e-06
9.52213e-06
9.53713e-06
9.53948e-06
9.53291e-06
9.51295e-06
9.47548e-06
9.43241e-06
9.41024e-06
9.40307e-06
9.40668e-06
9.42298e-06
9.44369e-06
9.47749e-06
9.51771e-06
9.54121e-06
9.54504e-06
9.53526e-06
9.52218e-06
9.50418e-06
9.48132e-06
9.45199e-06
9.4269e-06
9.43102e-06
9.51035e-06
9.1807e-06
9.07837e-06
9.07856e-06
9.10119e-06
9.11819e-06
9.11844e-06
9.11679e-06
9.11227e-06
9.09886e-06
9.06348e-06
9.00929e-06
8.95236e-06
8.90423e-06
8.87092e-06
8.84486e-06
8.83589e-06
8.85913e-06
8.90716e-06
8.96591e-06
9.01967e-06
9.05842e-06
9.0898e-06
9.12053e-06
9.14185e-06
9.14182e-06
9.1257e-06
9.10427e-06
9.09339e-06
9.1077e-06
9.1843e-06
8.82108e-06
8.79222e-06
8.76378e-06
8.77166e-06
8.75808e-06
8.75354e-06
8.7495e-06
8.73353e-06
8.69549e-06
8.62953e-06
8.55792e-06
8.49552e-06
8.43879e-06
8.38725e-06
8.34888e-06
8.345e-06
8.38324e-06
8.44539e-06
8.51313e-06
8.57932e-06
8.64077e-06
8.69343e-06
8.73431e-06
8.75876e-06
8.76767e-06
8.76899e-06
8.76887e-06
8.77221e-06
8.78796e-06
8.8592e-06
8.56003e-06
8.45189e-06
8.44727e-06
8.43109e-06
8.42794e-06
8.42275e-06
8.40318e-06
8.36563e-06
8.30728e-06
8.23638e-06
8.16883e-06
8.09937e-06
8.02236e-06
7.95308e-06
7.91318e-06
7.91822e-06
7.96308e-06
8.02658e-06
8.09599e-06
8.1706e-06
8.24688e-06
8.31497e-06
8.36745e-06
8.40304e-06
8.42707e-06
8.44488e-06
8.45685e-06
8.46279e-06
8.47484e-06
8.54245e-06
8.23076e-06
8.15432e-06
8.14961e-06
8.14576e-06
8.13775e-06
8.11309e-06
8.07773e-06
8.03069e-06
7.97084e-06
7.90327e-06
7.82883e-06
7.74293e-06
7.65582e-06
7.58998e-06
7.55916e-06
7.5662e-06
7.60632e-06
7.66806e-06
7.74368e-06
7.82992e-06
7.91677e-06
7.99025e-06
8.04335e-06
8.08094e-06
8.11238e-06
8.13993e-06
8.15801e-06
8.16546e-06
8.17739e-06
8.24363e-06
7.9345e-06
7.91477e-06
7.88226e-06
7.87187e-06
7.84575e-06
7.81752e-06
7.78517e-06
7.74238e-06
7.68539e-06
7.61241e-06
7.52563e-06
7.43379e-06
7.35261e-06
7.29434e-06
7.26301e-06
7.26265e-06
7.29632e-06
7.35883e-06
7.43991e-06
7.52874e-06
7.61357e-06
7.68529e-06
7.74175e-06
7.78777e-06
7.82773e-06
7.85969e-06
7.87956e-06
7.88971e-06
7.90453e-06
7.96814e-06
7.72961e-06
7.64024e-06
7.6263e-06
7.60799e-06
7.58659e-06
7.56603e-06
7.53367e-06
7.48771e-06
7.42525e-06
7.34706e-06
7.26216e-06
7.18023e-06
7.10739e-06
7.0478e-06
7.00868e-06
7.00263e-06
7.03627e-06
7.1032e-06
7.18826e-06
7.27616e-06
7.35683e-06
7.42657e-06
7.48514e-06
7.53392e-06
7.5741e-06
7.60542e-06
7.62709e-06
7.64124e-06
7.65778e-06
7.7152e-06
7.46629e-06
7.40334e-06
7.40159e-06
7.38868e-06
7.37715e-06
7.35087e-06
7.31096e-06
7.25936e-06
7.19453e-06
7.12172e-06
7.04856e-06
6.97676e-06
6.90583e-06
6.84228e-06
6.80126e-06
6.79842e-06
6.83632e-06
6.90381e-06
6.98372e-06
7.0623e-06
7.13386e-06
7.19861e-06
7.25675e-06
7.30705e-06
7.34837e-06
7.38021e-06
7.4025e-06
7.41718e-06
7.43284e-06
7.48448e-06
7.24366e-06
7.23249e-06
7.20909e-06
7.19441e-06
7.17394e-06
7.14026e-06
7.10239e-06
7.05587e-06
7.00054e-06
6.94033e-06
6.87557e-06
6.8039e-06
6.72882e-06
6.66386e-06
6.6265e-06
6.62819e-06
6.66651e-06
6.72841e-06
6.79955e-06
6.87064e-06
6.93881e-06
7.00408e-06
7.06427e-06
7.11506e-06
7.15367e-06
7.1809e-06
7.19984e-06
7.21425e-06
7.23092e-06
7.27905e-06
7.10161e-06
7.04901e-06
7.02961e-06
7.01405e-06
6.98929e-06
6.96326e-06
6.93224e-06
6.89121e-06
6.84381e-06
6.78987e-06
6.72609e-06
6.65405e-06
6.58337e-06
6.52804e-06
6.49992e-06
6.5052e-06
6.5402e-06
6.59353e-06
6.65544e-06
6.72035e-06
6.78559e-06
6.8483e-06
6.90385e-06
6.94783e-06
6.97952e-06
7.00249e-06
7.0213e-06
7.03825e-06
7.056e-06
7.09762e-06
6.92303e-06
6.87577e-06
6.8696e-06
6.85758e-06
6.84217e-06
6.8245e-06
6.79362e-06
6.75371e-06
6.70943e-06
6.65729e-06
6.59575e-06
6.53088e-06
6.47187e-06
6.42662e-06
6.40163e-06
6.40332e-06
6.43167e-06
6.47777e-06
6.534e-06
6.59504e-06
6.65619e-06
6.71266e-06
6.76062e-06
6.79849e-06
6.82777e-06
6.8516e-06
6.87197e-06
6.8885e-06
6.90241e-06
6.93442e-06
6.76456e-06
6.75828e-06
6.74386e-06
6.73093e-06
6.71915e-06
6.69758e-06
6.66431e-06
6.62806e-06
6.58903e-06
6.54261e-06
6.48979e-06
6.43632e-06
6.38681e-06
6.34469e-06
6.31659e-06
6.31319e-06
6.3376e-06
6.3815e-06
6.43591e-06
6.49367e-06
6.54886e-06
6.59767e-06
6.63893e-06
6.67331e-06
6.70193e-06
6.72535e-06
6.7432e-06
6.75508e-06
6.76378e-06
6.78918e-06
6.67239e-06
6.64957e-06
6.63176e-06
6.61802e-06
6.60383e-06
6.58016e-06
6.55254e-06
6.52463e-06
6.49272e-06
6.45402e-06
6.41038e-06
6.36521e-06
6.32083e-06
6.28052e-06
6.25232e-06
6.24845e-06
6.27222e-06
6.31402e-06
6.36378e-06
6.41412e-06
6.4604e-06
6.50098e-06
6.53639e-06
6.56735e-06
6.59355e-06
6.61398e-06
6.62809e-06
6.63678e-06
6.64366e-06
6.66601e-06
6.56623e-06
6.53009e-06
6.52169e-06
6.51399e-06
6.50309e-06
6.48683e-06
6.46851e-06
6.44671e-06
6.41887e-06
6.3847e-06
6.34549e-06
6.30338e-06
6.26154e-06
6.22475e-06
6.20015e-06
6.19717e-06
6.21938e-06
6.2569e-06
6.29967e-06
6.3419e-06
6.38098e-06
6.41643e-06
6.44848e-06
6.47677e-06
6.50025e-06
6.518e-06
6.53021e-06
6.53824e-06
6.54492e-06
6.56358e-06
6.45601e-06
6.44219e-06
6.43824e-06
6.43578e-06
6.428e-06
6.41557e-06
6.39905e-06
6.37764e-06
6.35145e-06
6.3209e-06
6.28608e-06
6.24851e-06
6.21182e-06
6.18081e-06
6.1609e-06
6.15798e-06
6.17587e-06
6.20786e-06
6.24416e-06
6.28074e-06
6.31595e-06
6.34882e-06
6.37839e-06
6.40358e-06
6.42351e-06
6.43823e-06
6.44861e-06
6.4559e-06
6.46179e-06
6.47593e-06
6.38863e-06
6.38235e-06
6.37882e-06
6.37544e-06
6.36523e-06
6.35055e-06
6.33333e-06
6.3136e-06
6.29132e-06
6.26638e-06
6.23879e-06
6.20953e-06
6.18096e-06
6.15624e-06
6.13934e-06
6.13523e-06
6.1475e-06
6.17314e-06
6.20372e-06
6.23591e-06
6.26775e-06
6.29725e-06
6.32262e-06
6.34277e-06
6.35776e-06
6.3686e-06
6.3768e-06
6.3833e-06
6.38884e-06
6.40017e-06
6.33477e-06
6.31909e-06
6.31939e-06
6.31418e-06
6.3026e-06
6.29e-06
6.2782e-06
6.26496e-06
6.24841e-06
6.22875e-06
6.20714e-06
6.18463e-06
6.16217e-06
6.1413e-06
6.12552e-06
6.12013e-06
6.12721e-06
6.14574e-06
6.17126e-06
6.19959e-06
6.22766e-06
6.25283e-06
6.27329e-06
6.28841e-06
6.29921e-06
6.30743e-06
6.31459e-06
6.32116e-06
6.32702e-06
6.33675e-06
6.27297e-06
6.26002e-06
6.26404e-06
6.25948e-06
6.25128e-06
6.24493e-06
6.23943e-06
6.23087e-06
6.21749e-06
6.20054e-06
6.18216e-06
6.16321e-06
6.14365e-06
6.12453e-06
6.10938e-06
6.10379e-06
6.109e-06
6.12226e-06
6.1433e-06
6.16816e-06