/*--------------------------------*- C++ -*----------------------------------*\
| =========                 |                                                 |
| \\      /  F ield         | OpenFOAM: The Open Source CFD Toolbox           |
|  \\    /   O peration     | Version:  2312                                  |
|   \\  /    A nd           | Website:  www.openfoam.com                      |
|    \\/     M anipulation  |                                                 |
\*---------------------------------------------------------------------------*/
FoamFile
{
    version     2.0;
    format      ascii;
    arch        "LSB;label=32;scalar=64";
    class       volScalarField;
    location    "0.489491";
    object      p;
}
// * * * * * * * * * * * * * * * * * * * * * * * * * * * * * * * * * * * * * //

dimensions      [1 -1 -2 0 0 0 0];

internalField   nonuniform List<scalar> 
90000
(
4849.65
4849.65
4849.65
4849.65
4849.65
4849.65
4849.65
4849.65
4849.65
4849.65
4849.65
4849.65
4849.65
4849.65
4849.65
4849.65
4849.65
4849.65
4849.65
4849.65
4849.65
4849.65
4849.65
4849.65
4849.65
4849.65
4849.65
4849.65
4849.65
4849.65
4751.55
4751.55
4751.55
4751.55
4751.55
4751.55
4751.55
4751.55
4751.55
4751.55
4751.55
4751.55
4751.55
4751.55
4751.55
4751.55
4751.55
4751.55
4751.55
4751.55
4751.55
4751.55
4751.55
4751.55
4751.55
4751.55
4751.55
4751.55
4751.55
4751.55
4653.45
4653.45
4653.45
4653.45
4653.45
4653.45
4653.45
4653.45
4653.45
4653.45
4653.45
4653.45
4653.45
4653.45
4653.45
4653.45
4653.45
4653.45
4653.45
4653.45
4653.45
4653.45
4653.45
4653.45
4653.45
4653.45
4653.45
4653.45
4653.44
4653.44
4555.35
4555.35
4555.35
4555.35
4555.35
4555.35
4555.35
4555.35
4555.35
4555.35
4555.35
4555.35
4555.35
4555.35
4555.35
4555.35
4555.35
4555.35
4555.35
4555.35
4555.35
4555.35
4555.35
4555.35
4555.35
4555.35
4555.35
4555.34
4555.34
4555.34
4457.25
4457.25
4457.25
4457.25
4457.25
4457.25
4457.25
4457.25
4457.25
4457.25
4457.25
4457.25
4457.25
4457.25
4457.25
4457.25
4457.25
4457.25
4457.25
4457.25
4457.25
4457.25
4457.25
4457.25
4457.25
4457.25
4457.24
4457.24
4457.24
4457.24
4359.14
4359.14
4359.14
4359.15
4359.15
4359.15
4359.15
4359.15
4359.15
4359.15
4359.15
4359.15
4359.15
4359.15
4359.15
4359.15
4359.15
4359.15
4359.15
4359.15
4359.15
4359.15
4359.15
4359.15
4359.14
4359.14
4359.14
4359.14
4359.14
4359.14
4261.04
4261.04
4261.04
4261.04
4261.04
4261.04
4261.05
4261.05
4261.05
4261.05
4261.05
4261.05
4261.05
4261.05
4261.05
4261.05
4261.05
4261.05
4261.05
4261.05
4261.05
4261.05
4261.04
4261.04
4261.04
4261.04
4261.04
4261.04
4261.04
4261.04
4162.94
4162.94
4162.94
4162.94
4162.94
4162.94
4162.94
4162.94
4162.95
4162.95
4162.95
4162.95
4162.95
4162.95
4162.95
4162.95
4162.95
4162.95
4162.95
4162.95
4162.95
4162.94
4162.94
4162.94
4162.94
4162.94
4162.94
4162.94
4162.94
4162.94
4064.84
4064.84
4064.84
4064.84
4064.84
4064.84
4064.84
4064.84
4064.84
4064.84
4064.85
4064.85
4064.85
4064.85
4064.85
4064.85
4064.85
4064.85
4064.85
4064.85
4064.85
4064.84
4064.84
4064.84
4064.84
4064.84
4064.84
4064.84
4064.84
4064.84
3966.73
3966.73
3966.74
3966.74
3966.74
3966.74
3966.74
3966.74
3966.74
3966.74
3966.74
3966.75
3966.75
3966.75
3966.75
3966.75
3966.75
3966.75
3966.75
3966.75
3966.75
3966.74
3966.74
3966.74
3966.74
3966.74
3966.74
3966.74
3966.74
3966.74
3868.63
3868.63
3868.63
3868.63
3868.63
3868.64
3868.64
3868.64
3868.64
3868.64
3868.64
3868.64
3868.65
3868.65
3868.65
3868.65
3868.65
3868.65
3868.65
3868.65
3868.64
3868.64
3868.64
3868.64
3868.64
3868.64
3868.64
3868.64
3868.63
3868.63
3770.53
3770.53
3770.53
3770.53
3770.53
3770.53
3770.54
3770.54
3770.54
3770.54
3770.54
3770.54
3770.55
3770.55
3770.55
3770.55
3770.55
3770.55
3770.55
3770.54
3770.54
3770.54
3770.54
3770.54
3770.54
3770.54
3770.53
3770.53
3770.53
3770.53
3672.42
3672.42
3672.42
3672.42
3672.43
3672.43
3672.43
3672.43
3672.44
3672.44
3672.44
3672.44
3672.45
3672.45
3672.45
3672.45
3672.45
3672.45
3672.44
3672.44
3672.44
3672.44
3672.44
3672.44
3672.43
3672.43
3672.43
3672.43
3672.43
3672.43
3574.31
3574.31
3574.32
3574.32
3574.32
3574.32
3574.33
3574.33
3574.33
3574.34
3574.34
3574.34
3574.35
3574.35
3574.35
3574.35
3574.35
3574.34
3574.34
3574.34
3574.34
3574.34
3574.33
3574.33
3574.33
3574.33
3574.32
3574.32
3574.32
3574.32
3476.21
3476.21
3476.21
3476.21
3476.21
3476.22
3476.22
3476.23
3476.23
3476.24
3476.24
3476.24
3476.24
3476.25
3476.25
3476.24
3476.24
3476.24
3476.24
3476.24
3476.23
3476.23
3476.23
3476.22
3476.22
3476.22
3476.21
3476.21
3476.21
3476.21
3378.1
3378.1
3378.1
3378.1
3378.11
3378.11
3378.12
3378.12
3378.13
3378.13
3378.14
3378.14
3378.14
3378.14
3378.14
3378.14
3378.14
3378.14
3378.14
3378.13
3378.13
3378.12
3378.12
3378.12
3378.11
3378.11
3378.11
3378.1
3378.1
3378.1
3279.99
3279.99
3279.99
3280
3280
3280.01
3280.01
3280.02
3280.02
3280.03
3280.03
3280.04
3280.04
3280.04
3280.04
3280.04
3280.04
3280.04
3280.03
3280.03
3280.02
3280.02
3280.01
3280.01
3280
3280
3279.99
3279.99
3279.99
3279.99
3181.88
3181.88
3181.88
3181.89
3181.89
3181.9
3181.9
3181.91
3181.92
3181.92
3181.93
3181.93
3181.94
3181.94
3181.94
3181.94
3181.94
3181.94
3181.93
3181.93
3181.92
3181.91
3181.91
3181.9
3181.89
3181.89
3181.88
3181.88
3181.88
3181.88
3083.77
3083.77
3083.77
3083.78
3083.78
3083.79
3083.79
3083.8
3083.81
3083.82
3083.82
3083.83
3083.83
3083.84
3083.84
3083.84
3083.84
3083.84
3083.83
3083.82
3083.82
3083.81
3083.8
3083.79
3083.78
3083.78
3083.77
3083.77
3083.76
3083.76
2985.65
2985.65
2985.65
2985.66
2985.67
2985.67
2985.68
2985.69
2985.7
2985.71
2985.72
2985.73
2985.73
2985.74
2985.74
2985.74
2985.74
2985.73
2985.73
2985.72
2985.71
2985.7
2985.69
2985.68
2985.67
2985.66
2985.66
2985.65
2985.65
2985.64
2887.52
2887.53
2887.53
2887.54
2887.55
2887.56
2887.57
2887.58
2887.59
2887.6
2887.61
2887.62
2887.63
2887.64
2887.64
2887.64
2887.64
2887.63
2887.62
2887.61
2887.6
2887.59
2887.58
2887.57
2887.56
2887.54
2887.54
2887.53
2887.52
2887.52
2789.39
2789.4
2789.4
2789.41
2789.42
2789.44
2789.45
2789.46
2789.48
2789.49
2789.51
2789.52
2789.53
2789.53
2789.54
2789.54
2789.53
2789.53
2789.52
2789.51
2789.49
2789.48
2789.46
2789.45
2789.44
2789.42
2789.41
2789.4
2789.39
2789.39
2691.26
2691.26
2691.27
2691.28
2691.29
2691.31
2691.33
2691.35
2691.36
2691.38
2691.4
2691.41
2691.42
2691.43
2691.43
2691.44
2691.43
2691.42
2691.41
2691.4
2691.38
2691.36
2691.35
2691.33
2691.31
2691.29
2691.28
2691.27
2691.26
2691.26
2593.11
2593.12
2593.13
2593.14
2593.16
2593.18
2593.2
2593.22
2593.24
2593.27
2593.29
2593.3
2593.32
2593.33
2593.33
2593.33
2593.33
2593.32
2593.3
2593.29
2593.27
2593.25
2593.22
2593.2
2593.18
2593.16
2593.14
2593.13
2593.12
2593.11
2494.96
2494.97
2494.98
2494.99
2495.01
2495.04
2495.06
2495.09
2495.12
2495.15
2495.17
2495.19
2495.21
2495.22
2495.23
2495.23
2495.22
2495.21
2495.19
2495.17
2495.15
2495.12
2495.09
2495.07
2495.04
2495.01
2494.99
2494.98
2494.97
2494.96
2396.79
2396.8
2396.82
2396.83
2396.86
2396.89
2396.92
2396.96
2396.99
2397.03
2397.06
2397.08
2397.1
2397.12
2397.12
2397.12
2397.12
2397.1
2397.08
2397.06
2397.03
2396.99
2396.96
2396.92
2396.89
2396.86
2396.83
2396.82
2396.8
2396.79
2298.61
2298.62
2298.64
2298.66
2298.7
2298.73
2298.77
2298.81
2298.86
2298.9
2298.93
2298.97
2298.99
2299.01
2299.02
2299.02
2299.01
2298.99
2298.97
2298.93
2298.9
2298.86
2298.81
2298.77
2298.73
2298.69
2298.66
2298.64
2298.62
2298.61
2200.42
2200.43
2200.45
2200.48
2200.52
2200.56
2200.61
2200.66
2200.71
2200.76
2200.81
2200.85
2200.88
2200.9
2200.91
2200.91
2200.9
2200.88
2200.85
2200.81
2200.76
2200.71
2200.66
2200.61
2200.56
2200.52
2200.48
2200.45
2200.43
2200.42
2102.2
2102.21
2102.24
2102.27
2102.32
2102.38
2102.44
2102.5
2102.56
2102.62
2102.67
2102.72
2102.76
2102.78
2102.8
2102.8
2102.78
2102.76
2102.72
2102.67
2102.62
2102.56
2102.5
2102.43
2102.37
2102.32
2102.27
2102.24
2102.21
2102.2
2003.96
2003.97
2004
2004.05
2004.1
2004.17
2004.24
2004.32
2004.39
2004.47
2004.53
2004.59
2004.63
2004.67
2004.68
2004.68
2004.66
2004.63
2004.59
2004.53
2004.47
2004.39
2004.32
2004.24
2004.17
2004.1
2004.05
2004
2003.97
2003.95
1905.68
1905.7
1905.74
1905.79
1905.86
1905.94
1906.03
1906.12
1906.21
1906.3
1906.38
1906.45
1906.5
1906.54
1906.56
1906.56
1906.54
1906.5
1906.45
1906.38
1906.3
1906.21
1906.12
1906.03
1905.94
1905.86
1905.79
1905.74
1905.7
1905.68
1807.37
1807.39
1807.44
1807.5
1807.58
1807.68
1807.79
1807.9
1808.01
1808.11
1808.21
1808.29
1808.36
1808.41
1808.43
1808.43
1808.41
1808.36
1808.29
1808.21
1808.11
1808.01
1807.9
1807.79
1807.68
1807.58
1807.5
1807.43
1807.39
1807.36
1709.01
1709.03
1709.09
1709.17
1709.27
1709.38
1709.51
1709.65
1709.78
1709.91
1710.03
1710.13
1710.21
1710.26
1710.29
1710.29
1710.26
1710.21
1710.13
1710.03
1709.91
1709.78
1709.65
1709.51
1709.38
1709.27
1709.17
1709.09
1709.03
1709
1610.59
1610.62
1610.69
1610.78
1610.9
1611.04
1611.2
1611.36
1611.52
1611.68
1611.82
1611.94
1612.03
1612.1
1612.13
1612.13
1612.1
1612.03
1611.94
1611.82
1611.68
1611.52
1611.36
1611.2
1611.04
1610.9
1610.78
1610.69
1610.62
1610.59
1512.11
1512.15
1512.23
1512.34
1512.48
1512.65
1512.84
1513.03
1513.22
1513.41
1513.58
1513.73
1513.84
1513.92
1513.96
1513.96
1513.92
1513.84
1513.72
1513.58
1513.41
1513.22
1513.03
1512.84
1512.65
1512.48
1512.34
1512.23
1512.15
1512.11
1413.54
1413.59
1413.69
1413.82
1413.99
1414.19
1414.41
1414.65
1414.88
1415.1
1415.3
1415.48
1415.62
1415.71
1415.76
1415.76
1415.71
1415.62
1415.48
1415.3
1415.1
1414.88
1414.65
1414.41
1414.19
1413.99
1413.82
1413.68
1413.59
1413.54
1314.88
1314.94
1315.05
1315.21
1315.42
1315.66
1315.92
1316.2
1316.47
1316.74
1316.98
1317.19
1317.36
1317.47
1317.53
1317.53
1317.47
1317.36
1317.19
1316.98
1316.74
1316.47
1316.19
1315.92
1315.66
1315.42
1315.21
1315.05
1314.94
1314.88
1216.11
1216.18
1216.31
1216.5
1216.74
1217.02
1217.33
1217.66
1217.99
1218.31
1218.6
1218.85
1219.04
1219.18
1219.25
1219.25
1219.18
1219.04
1218.85
1218.6
1218.31
1217.99
1217.66
1217.33
1217.02
1216.74
1216.5
1216.31
1216.18
1216.11
1117.2
1117.28
1117.44
1117.66
1117.94
1118.27
1118.64
1119.03
1119.42
1119.79
1120.13
1120.43
1120.67
1120.83
1120.91
1120.91
1120.83
1120.67
1120.43
1120.13
1119.79
1119.41
1119.02
1118.64
1118.27
1117.94
1117.66
1117.44
1117.28
1117.2
1018.14
1018.23
1018.41
1018.67
1019
1019.38
1019.81
1020.26
1020.72
1021.16
1021.57
1021.92
1022.2
1022.39
1022.49
1022.49
1022.39
1022.2
1021.92
1021.57
1021.16
1020.72
1020.26
1019.81
1019.38
1019
1018.67
1018.41
1018.23
1018.14
918.895
918.999
919.202
919.498
919.876
920.322
920.818
921.343
921.877
922.394
922.872
923.286
923.617
923.847
923.965
923.965
923.847
923.616
923.285
922.871
922.394
921.876
921.343
920.817
920.321
919.875
919.497
919.201
918.998
918.893
819.439
819.556
819.785
820.119
820.547
821.054
821.621
822.226
822.843
823.445
824.004
824.49
824.879
825.151
825.291
825.291
825.151
824.879
824.489
824.003
823.445
822.843
822.225
821.62
821.053
820.546
820.118
819.784
819.555
819.438
719.748
719.877
720.128
720.495
720.97
721.535
722.174
722.861
723.567
724.261
724.91
725.478
725.936
726.256
726.421
726.421
726.256
725.936
725.478
724.909
724.261
723.566
722.86
722.173
721.535
720.969
720.495
720.127
719.876
719.747
619.796
619.933
620.198
620.589
621.099
621.714
622.416
623.181
623.978
624.771
625.519
626.18
626.716
627.093
627.288
627.288
627.093
626.716
626.179
625.518
624.77
623.978
623.18
622.415
621.713
621.098
620.588
620.197
619.932
619.795
519.568
519.705
519.968
520.362
520.883
521.524
522.27
523.1
523.981
524.875
525.731
526.496
527.127
527.571
527.799
527.799
527.57
527.127
526.496
525.73
524.874
523.981
523.099
522.27
521.524
520.882
520.361
519.967
519.704
519.568
419.064
419.187
419.421
419.779
420.269
420.892
421.642
422.503
423.448
424.437
425.414
426.303
427.046
427.567
427.836
427.836
427.567
427.046
426.302
425.414
424.436
423.447
422.502
421.641
420.891
420.269
419.779
419.421
419.187
419.064
318.274
318.36
318.522
318.787
319.177
319.71
320.395
321.227
322.189
323.253
324.372
325.467
326.315
326.919
327.236
327.236
326.919
326.315
325.467
324.372
323.253
322.189
321.227
320.395
319.71
319.177
318.787
318.522
318.36
318.273
217.239
217.237
217.254
217.325
217.496
217.815
218.315
219.011
219.89
220.944
222.163
223.452
224.524
225.299
225.701
225.7
225.299
224.524
223.452
222.163
220.944
219.89
219.011
218.315
217.815
217.496
217.325
217.254
217.237
217.239
116.411
116.221
115.953
115.617
115.308
115.125
115.172
115.521
116.122
116.864
117.863
119.089
120.232
121.255
121.785
121.782
121.255
120.23
119.088
117.864
116.864
116.123
115.521
115.173
115.126
115.308
115.617
115.953
116.221
116.411
31.1647
30.9191
30.5359
30.0032
29.4231
28.8893
28.5486
28.5939
28.8676
28.9016
28.9378
29.1173
29.7272
30.5909
30.9737
30.9668
30.5927
29.7242
29.118
28.9394
28.9018
28.8681
28.5943
28.5486
28.8905
29.4229
30.003
30.5359
30.9199
31.1646
-4.17192
-4.20612
-4.28503
-4.38176
-4.47156
-4.53286
-4.53286
-4.44876
-4.32842
-4.21414
-4.07448
-3.91837
-3.72886
-3.55526
-3.47761
-3.47867
-3.55573
-3.72924
-3.91829
-4.07466
-4.21403
-4.32809
-4.4484
-4.53238
-4.53221
-4.47152
-4.38166
-4.28454
-4.20546
-4.17092
-4.95369
-4.95232
-4.95037
-4.94725
-4.94323
-4.93784
-4.93221
-4.92422
-4.9114
-4.89212
-4.87499
-4.86289
-4.8543
-4.84456
-4.83942
-4.83937
-4.8445
-4.85413
-4.86273
-4.87475
-4.89185
-4.91111
-4.9238
-4.93172
-4.93737
-4.94268
-4.94666
-4.94974
-4.95163
-4.95297
-5.05665
-5.05607
-5.05484
-5.0532
-5.05157
-5.04987
-5.04722
-5.04503
-5.04264
-5.03863
-5.03605
-5.0342
-5.0335
-5.03546
-5.03524
-5.03518
-5.03531
-5.03324
-5.03397
-5.03576
-5.03829
-5.04233
-5.04466
-5.04675
-5.04938
-5.05109
-5.05266
-5.05424
-5.05541
-5.05595
-5.1612
-5.16089
-5.16044
-5.15977
-5.15921
-5.15895
-5.15878
-5.15929
-5.16056
-5.16184
-5.16231
-5.1624
-5.16292
-5.16345
-5.16293
-5.16289
-5.16332
-5.16277
-5.16227
-5.16212
-5.16158
-5.16023
-5.15887
-5.15834
-5.15845
-5.15872
-5.15925
-5.15986
-5.16036
-5.1607
-5.26702
-5.26698
-5.26692
-5.26687
-5.26691
-5.26711
-5.26772
-5.26913
-5.2716
-5.27456
-5.27697
-5.27869
-5.27922
-5.2798
-5.27975
-5.27969
-5.27965
-5.27901
-5.27846
-5.27673
-5.27429
-5.27131
-5.26879
-5.2673
-5.26667
-5.26644
-5.26634
-5.26632
-5.26634
-5.26664
-5.37286
-5.37297
-5.37318
-5.37355
-5.37404
-5.37469
-5.37551
-5.37666
-5.37846
-5.38072
-5.38306
-5.38543
-5.38744
-5.38892
-5.38984
-5.38978
-5.38881
-5.3873
-5.38527
-5.38286
-5.38046
-5.37816
-5.37632
-5.37509
-5.37424
-5.37357
-5.37304
-5.37259
-5.37223
-5.37231
-5.47844
-5.4786
-5.47895
-5.47953
-5.48028
-5.4812
-5.48233
-5.48361
-5.48503
-5.48649
-5.48788
-5.48926
-5.49068
-5.49206
-5.49301
-5.49298
-5.49197
-5.49054
-5.48906
-5.48766
-5.48626
-5.48472
-5.48324
-5.48193
-5.48079
-5.47985
-5.47908
-5.47849
-5.47801
-5.47789
-5.58361
-5.58384
-5.58428
-5.58492
-5.58577
-5.58685
-5.5881
-5.58947
-5.59091
-5.59229
-5.59349
-5.5944
-5.59514
-5.59574
-5.59607
-5.59605
-5.59565
-5.595
-5.59421
-5.59325
-5.59207
-5.59062
-5.58912
-5.58772
-5.58646
-5.58537
-5.58444
-5.58376
-5.58324
-5.58306
-5.68834
-5.68858
-5.68903
-5.68975
-5.69066
-5.69182
-5.69309
-5.69451
-5.69595
-5.69739
-5.69862
-5.6996
-5.70034
-5.70075
-5.70089
-5.70088
-5.70067
-5.70018
-5.69942
-5.6984
-5.69711
-5.69565
-5.69417
-5.69274
-5.69145
-5.69028
-5.68932
-5.68856
-5.68803
-5.68779
-5.79252
-5.79278
-5.79329
-5.79399
-5.79496
-5.79612
-5.79744
-5.79888
-5.80033
-5.80173
-5.80299
-5.80409
-5.80493
-5.80545
-5.80568
-5.80566
-5.80536
-5.80477
-5.8039
-5.80279
-5.80147
-5.80002
-5.79855
-5.79711
-5.79577
-5.79459
-5.79361
-5.79282
-5.79228
-5.79202
-5.89628
-5.89649
-5.89699
-5.89772
-5.89867
-5.89982
-5.90117
-5.90259
-5.90404
-5.90543
-5.90671
-5.90783
-5.90869
-5.90928
-5.90958
-5.90954
-5.9092
-5.90857
-5.90766
-5.9065
-5.90515
-5.90373
-5.90227
-5.90084
-5.89949
-5.89832
-5.89733
-5.89657
-5.89602
-5.89575
-5.99942
-5.9997
-6.00018
-6.00084
-6.00181
-6.00295
-6.00426
-6.00567
-6.0071
-6.00847
-6.00974
-6.01084
-6.01172
-6.01234
-6.01265
-6.0126
-6.01225
-6.0116
-6.01066
-6.00951
-6.00821
-6.00683
-6.00538
-6.00395
-6.00263
-6.0015
-6.00053
-5.99978
-5.99924
-5.99898
-6.10214
-6.10237
-6.10281
-6.10351
-6.10442
-6.10552
-6.10678
-6.10815
-6.10952
-6.11086
-6.11209
-6.11317
-6.11403
-6.11463
-6.11492
-6.11489
-6.11456
-6.11392
-6.11299
-6.11187
-6.11061
-6.10925
-6.10785
-6.10648
-6.10523
-6.10414
-6.10321
-6.10247
-6.10196
-6.10171
-6.20434
-6.20457
-6.20498
-6.20565
-6.20648
-6.20754
-6.20874
-6.21004
-6.21135
-6.21262
-6.2138
-6.21483
-6.21566
-6.21622
-6.21651
-6.21648
-6.21616
-6.21552
-6.21464
-6.21358
-6.2124
-6.21111
-6.20979
-6.2085
-6.20732
-6.20627
-6.20538
-6.20467
-6.20419
-6.20396
-6.30609
-6.30629
-6.30669
-6.30726
-6.30808
-6.30908
-6.31021
-6.31143
-6.31266
-6.31384
-6.31494
-6.3159
-6.31665
-6.31719
-6.31747
-6.31745
-6.31714
-6.31655
-6.31574
-6.31476
-6.31364
-6.31242
-6.31118
-6.30999
-6.30889
-6.3079
-6.30706
-6.3064
-6.30596
-6.30575
-6.40739
-6.40756
-6.40793
-6.40848
-6.40923
-6.41012
-6.41118
-6.41231
-6.41344
-6.41453
-6.41554
-6.41641
-6.41711
-6.41761
-6.41787
-6.41784
-6.41755
-6.41702
-6.41628
-6.41537
-6.41434
-6.41323
-6.41212
-6.41104
-6.41002
-6.40909
-6.4083
-6.4077
-6.40731
-6.40712
-6.50826
-6.50845
-6.50876
-6.50929
-6.50995
-6.51079
-6.51176
-6.51278
-6.5138
-6.5148
-6.5157
-6.51649
-6.51714
-6.51759
-6.51781
-6.51778
-6.51753
-6.51707
-6.51641
-6.51559
-6.51464
-6.51364
-6.51263
-6.51164
-6.5107
-6.50985
-6.50913
-6.5086
-6.50824
-6.50806
-6.60881
-6.60896
-6.60926
-6.6097
-6.61029
-6.61107
-6.61194
-6.61286
-6.61379
-6.61467
-6.61548
-6.61619
-6.61677
-6.61717
-6.61736
-6.61734
-6.61714
-6.61672
-6.61612
-6.61537
-6.61453
-6.61365
-6.61275
-6.61186
-6.61101
-6.61024
-6.6096
-6.60912
-6.6088
-6.60864
-6.70901
-6.70911
-6.70938
-6.70977
-6.71034
-6.71102
-6.71178
-6.71259
-6.71341
-6.71418
-6.71491
-6.71556
-6.71607
-6.71641
-6.71659
-6.7166
-6.71642
-6.71605
-6.71552
-6.71487
-6.71414
-6.71336
-6.71255
-6.71173
-6.71098
-6.71031
-6.70976
-6.70933
-6.70904
-6.70888
-6.80885
-6.80901
-6.80923
-6.8096
-6.81009
-6.81067
-6.81134
-6.81206
-6.81277
-6.81346
-6.81411
-6.81468
-6.81511
-6.81542
-6.81559
-6.81561
-6.81545
-6.81513
-6.81466
-6.81409
-6.81345
-6.81275
-6.81203
-6.81133
-6.81068
-6.81011
-6.80963
-6.80924
-6.80896
-6.80882
-6.90851
-6.90862
-6.9088
-6.90912
-6.90953
-6.91005
-6.91065
-6.91128
-6.91189
-6.91249
-6.91307
-6.91356
-6.91395
-6.91422
-6.91438
-6.91438
-6.91424
-6.91396
-6.91357
-6.91309
-6.91254
-6.91194
-6.91131
-6.91069
-6.91013
-6.90963
-6.90921
-6.90888
-6.90864
-6.90851
-7.00792
-7.00795
-7.00815
-7.00842
-7.00879
-7.00926
-7.00977
-7.01028
-7.01081
-7.01133
-7.01184
-7.01227
-7.01263
-7.01287
-7.013
-7.01301
-7.0129
-7.01268
-7.01236
-7.01194
-7.01145
-7.0109
-7.01035
-7.00982
-7.00935
-7.00894
-7.00859
-7.0083
-7.00809
-7.00798
-7.10703
-7.10715
-7.1073
-7.10752
-7.10786
-7.10825
-7.10867
-7.1091
-7.10957
-7.11003
-7.11047
-7.11087
-7.11118
-7.11139
-7.11149
-7.1115
-7.11142
-7.11124
-7.11097
-7.1106
-7.11017
-7.10971
-7.10925
-7.10881
-7.10842
-7.10807
-7.10776
-7.10751
-7.10733
-7.10724
-7.20609
-7.20617
-7.20626
-7.20645
-7.20673
-7.20705
-7.2074
-7.20779
-7.2082
-7.20861
-7.209
-7.20934
-7.20961
-7.20978
-7.20988
-7.20991
-7.20986
-7.20971
-7.20948
-7.20916
-7.20879
-7.20841
-7.20803
-7.20766
-7.20731
-7.207
-7.20673
-7.20653
-7.20639
-7.20633
-7.30497
-7.30495
-7.30505
-7.30523
-7.30547
-7.30574
-7.30605
-7.30639
-7.30674
-7.30709
-7.30743
-7.30771
-7.30794
-7.3081
-7.30821
-7.30825
-7.30822
-7.3081
-7.30789
-7.30761
-7.30731
-7.30699
-7.30666
-7.30635
-7.30605
-7.30579
-7.30557
-7.30541
-7.30531
-7.30526
-7.40357
-7.40362
-7.40373
-7.40388
-7.40408
-7.40432
-7.40459
-7.40487
-7.40517
-7.40547
-7.40576
-7.406
-7.40621
-7.40637
-7.40648
-7.40652
-7.40649
-7.40638
-7.4062
-7.40598
-7.40574
-7.40548
-7.40521
-7.40495
-7.40471
-7.40449
-7.40432
-7.40418
-7.40409
-7.40404
-7.50219
-7.50226
-7.50232
-7.50244
-7.50261
-7.50281
-7.50302
-7.50325
-7.50351
-7.50378
-7.50403
-7.50425
-7.50444
-7.50459
-7.50469
-7.50473
-7.5047
-7.50461
-7.50448
-7.50432
-7.50413
-7.50392
-7.5037
-7.50348
-7.50327
-7.50309
-7.50294
-7.50282
-7.50273
-7.50267
-7.60073
-7.60073
-7.60077
-7.60088
-7.60103
-7.6012
-7.60138
-7.60159
-7.60183
-7.60206
-7.60227
-7.60245
-7.60262
-7.60276
-7.60285
-7.60289
-7.60287
-7.60281
-7.60272
-7.6026
-7.60244
-7.60227
-7.60209
-7.60191
-7.60174
-7.60159
-7.60145
-7.60134
-7.60126
-7.60121
-7.69905
-7.69903
-7.69912
-7.69924
-7.69937
-7.69952
-7.69969
-7.69988
-7.70008
-7.70027
-7.70044
-7.7006
-7.70075
-7.70087
-7.70096
-7.70101
-7.70102
-7.70098
-7.70091
-7.70081
-7.70069
-7.70056
-7.70042
-7.70028
-7.70015
-7.70002
-7.69991
-7.6998
-7.69972
-7.69968
-7.79731
-7.79737
-7.79746
-7.79757
-7.79768
-7.79781
-7.79795
-7.79811
-7.79827
-7.79842
-7.79857
-7.79871
-7.79885
-7.79897
-7.79907
-7.79913
-7.79915
-7.79913
-7.79908
-7.799
-7.79892
-7.79882
-7.79873
-7.79862
-7.79852
-7.79841
-7.7983
-7.79819
-7.79812
-7.79808
-7.89564
-7.89569
-7.89577
-7.89586
-7.89594
-7.89604
-7.89617
-7.8963
-7.89644
-7.89656
-7.89669
-7.89681
-7.89695
-7.89707
-7.89717
-7.89723
-7.89725
-7.89725
-7.89721
-7.89717
-7.89711
-7.89706
-7.89699
-7.89691
-7.89682
-7.89671
-7.89661
-7.89652
-7.89646
-7.89643
-7.9939
-7.99391
-7.99397
-7.99404
-7.99412
-7.99421
-7.99433
-7.99446
-7.99458
-7.99469
-7.9948
-7.99492
-7.99505
-7.99516
-7.99524
-7.9953
-7.99532
-7.99532
-7.99531
-7.99529
-7.99527
-7.99524
-7.99519
-7.99513
-7.99505
-7.99496
-7.99487
-7.99481
-7.99477
-7.99475
-8.09206
-8.09207
-8.09214
-8.09221
-8.09228
-8.09238
-8.09249
-8.0926
-8.09269
-8.09279
-8.09289
-8.09301
-8.09312
-8.09321
-8.09329
-8.09334
-8.09337
-8.09339
-8.09341
-8.09342
-8.09342
-8.0934
-8.09337
-8.09331
-8.09325
-8.09318
-8.09312
-8.09308
-8.09305
-8.09304
-8.19026
-8.1903
-8.19035
-8.19041
-8.19049
-8.19058
-8.19066
-8.19073
-8.19079
-8.19087
-8.19096
-8.19106
-8.19116
-8.19125
-8.19132
-8.19138
-8.19143
-8.19147
-8.19152
-8.19155
-8.19156
-8.19156
-8.19153
-8.19148
-8.19143
-8.19139
-8.19135
-8.19132
-8.1913
-8.19129
-8.2885
-8.28853
-8.28855
-8.2886
-8.28868
-8.28875
-8.28881
-8.28886
-8.28891
-8.28898
-8.28906
-8.28915
-8.28923
-8.2893
-8.28937
-8.28943
-8.2895
-8.28957
-8.28963
-8.28967
-8.2897
-8.28969
-8.28967
-8.28963
-8.28959
-8.28956
-8.28954
-8.28952
-8.2895
-8.28949
-8.38671
-8.38671
-8.38671
-8.38675
-8.38682
-8.38688
-8.38694
-8.38699
-8.38705
-8.38713
-8.38721
-8.38728
-8.38734
-8.38739
-8.38744
-8.38751
-8.38758
-8.38765
-8.38772
-8.38777
-8.38779
-8.3878
-8.38778
-8.38775
-8.38773
-8.38771
-8.38769
-8.38767
-8.38766
-8.38766
-8.48487
-8.48485
-8.48486
-8.48491
-8.48496
-8.485
-8.48506
-8.48512
-8.4852
-8.48529
-8.48536
-8.48541
-8.48544
-8.48548
-8.48552
-8.48558
-8.48565
-8.48572
-8.48579
-8.48584
-8.48587
-8.48588
-8.48588
-8.48587
-8.48586
-8.48584
-8.48583
-8.48582
-8.48581
-8.48581
-8.58301
-8.58301
-8.58304
-8.58308
-8.58312
-8.58315
-8.5832
-8.58327
-8.58335
-8.58342
-8.58347
-8.5835
-8.58352
-8.58354
-8.58358
-8.58364
-8.5837
-8.58378
-8.58384
-8.5839
-8.58394
-8.58397
-8.58399
-8.58399
-8.58399
-8.58399
-8.58398
-8.58398
-8.58397
-8.58397
-8.68119
-8.6812
-8.68124
-8.68127
-8.68129
-8.68132
-8.68136
-8.68142
-8.68148
-8.68152
-8.68155
-8.68156
-8.68158
-8.68161
-8.68165
-8.68171
-8.68177
-8.68184
-8.68191
-8.68197
-8.68203
-8.68207
-8.6821
-8.68213
-8.68214
-8.68215
-8.68215
-8.68214
-8.68214
-8.68214
-8.7794
-8.77942
-8.77943
-8.77944
-8.77945
-8.77947
-8.77951
-8.77955
-8.77959
-8.77962
-8.77963
-8.77965
-8.77967
-8.77971
-8.77975
-8.77981
-8.77987
-8.77993
-8.77999
-8.78005
-8.78011
-8.78017
-8.78021
-8.78025
-8.78028
-8.78029
-8.7803
-8.7803
-8.7803
-8.7803
-8.87761
-8.87762
-8.87761
-8.87759
-8.87759
-8.87761
-8.87765
-8.87768
-8.87771
-8.87773
-8.87775
-8.87777
-8.87781
-8.87785
-8.8779
-8.87795
-8.87799
-8.87804
-8.87809
-8.87814
-8.8782
-8.87825
-8.8783
-8.87835
-8.87838
-8.87841
-8.87843
-8.87844
-8.87845
-8.87845
-8.9758
-8.97579
-8.97577
-8.97575
-8.97576
-8.97578
-8.97581
-8.97583
-8.97585
-8.97588
-8.9759
-8.97594
-8.97598
-8.97602
-8.97606
-8.9761
-8.97613
-8.97616
-8.9762
-8.97624
-8.97628
-8.97633
-8.97638
-8.97643
-8.97648
-8.97651
-8.97654
-8.97657
-8.97658
-8.97659
-9.07394
-9.07393
-9.07392
-9.07392
-9.07394
-9.07397
-9.07399
-9.07401
-9.07402
-9.07404
-9.07407
-9.07411
-9.07414
-9.07418
-9.07421
-9.07424
-9.07426
-9.07428
-9.07431
-9.07434
-9.07437
-9.07441
-9.07446
-9.07451
-9.07456
-9.07461
-9.07465
-9.07468
-9.0747
-9.07471
-9.17206
-9.17205
-9.17206
-9.17209
-9.17212
-9.17215
-9.17217
-9.17218
-9.17219
-9.17221
-9.17224
-9.17227
-9.1723
-9.17232
-9.17235
-9.17237
-9.17238
-9.1724
-9.17242
-9.17244
-9.17247
-9.17251
-9.17255
-9.1726
-9.17265
-9.1727
-9.17275
-9.17279
-9.17281
-9.17282
-9.27018
-9.27018
-9.27021
-9.27025
-9.27028
-9.27031
-9.27032
-9.27033
-9.27035
-9.27036
-9.27039
-9.27041
-9.27043
-9.27046
-9.27047
-9.27049
-9.2705
-9.27052
-9.27053
-9.27055
-9.27058
-9.27062
-9.27066
-9.2707
-9.27075
-9.2708
-9.27084
-9.27088
-9.2709
-9.27091
-9.36834
-9.36835
-9.36838
-9.36841
-9.36843
-9.36844
-9.36845
-9.36847
-9.36848
-9.3685
-9.36853
-9.36855
-9.36857
-9.36859
-9.3686
-9.36861
-9.36862
-9.36863
-9.36865
-9.36867
-9.36869
-9.36872
-9.36876
-9.3688
-9.36884
-9.36888
-9.36892
-9.36895
-9.36897
-9.36898
-9.46654
-9.46656
-9.46657
-9.46658
-9.46658
-9.46658
-9.46658
-9.46659
-9.46661
-9.46664
-9.46666
-9.46668
-9.4667
-9.46672
-9.46673
-9.46673
-9.46674
-9.46675
-9.46676
-9.46677
-9.46679
-9.46682
-9.46685
-9.46688
-9.46691
-9.46695
-9.46698
-9.467
-9.46701
-9.46702
-9.56474
-9.56476
-9.56475
-9.56474
-9.56472
-9.56471
-9.56471
-9.56472
-9.56474
-9.56476
-9.56479
-9.56481
-9.56482
-9.56483
-9.56484
-9.56484
-9.56484
-9.56484
-9.56485
-9.56486
-9.56487
-9.56489
-9.56491
-9.56494
-9.56496
-9.56499
-9.56501
-9.56502
-9.56503
-9.56503
-9.6629
-9.6629
-9.66289
-9.66287
-9.66285
-9.66284
-9.66284
-9.66284
-9.66286
-9.66288
-9.66289
-9.66291
-9.66292
-9.66292
-9.66292
-9.66292
-9.66292
-9.66292
-9.66292
-9.66293
-9.66294
-9.66295
-9.66296
-9.66297
-9.66299
-9.663
-9.66302
-9.66302
-9.66303
-9.66303
-9.76098
-9.76098
-9.76097
-9.76097
-9.76096
-9.76095
-9.76095
-9.76096
-9.76096
-9.76097
-9.76097
-9.76098
-9.76098
-9.76098
-9.76098
-9.76098
-9.76098
-9.76098
-9.76098
-9.76098
-9.76098
-9.76098
-9.76099
-9.76099
-9.761
-9.761
-9.76101
-9.76101
-9.76101
-9.76101
4849.65
4849.65
4849.65
4849.65
4849.65
4849.65
4849.65
4849.65
4849.65
4849.65
4849.65
4849.65
4849.65
4849.65
4849.65
4849.65
4849.65
4849.65
4849.65
4849.65
4849.65
4849.65
4849.65
4849.65
4849.65
4849.65
4849.65
4849.65
4849.65
4849.65
4751.55
4751.55
4751.55
4751.55
4751.55
4751.55
4751.55
4751.55
4751.55
4751.55
4751.55
4751.55
4751.55
4751.55
4751.55
4751.55
4751.55
4751.55
4751.55
4751.55
4751.55
4751.55
4751.55
4751.55
4751.55
4751.55
4751.55
4751.55
4751.55
4751.55
4653.45
4653.45
4653.45
4653.45
4653.45
4653.45
4653.45
4653.45
4653.45
4653.45
4653.45
4653.45
4653.45
4653.45
4653.45
4653.45
4653.45
4653.45
4653.45
4653.45
4653.45
4653.45
4653.45
4653.45
4653.45
4653.45
4653.45
4653.45
4653.44
4653.44
4555.35
4555.35
4555.35
4555.35
4555.35
4555.35
4555.35
4555.35
4555.35
4555.35
4555.35
4555.35
4555.35
4555.35
4555.35
4555.35
4555.35
4555.35
4555.35
4555.35
4555.35
4555.35
4555.35
4555.35
4555.35
4555.35
4555.35
4555.34
4555.34
4555.34
4457.25
4457.25
4457.25
4457.25
4457.25
4457.25
4457.25
4457.25
4457.25
4457.25
4457.25
4457.25
4457.25
4457.25
4457.25
4457.25
4457.25
4457.25
4457.25
4457.25
4457.25
4457.25
4457.25
4457.25
4457.25
4457.25
4457.24
4457.24
4457.24
4457.24
4359.14
4359.14
4359.15
4359.15
4359.15
4359.15
4359.15
4359.15
4359.15
4359.15
4359.15
4359.15
4359.15
4359.15
4359.15
4359.15
4359.15
4359.15
4359.15
4359.15
4359.15
4359.15
4359.15
4359.15
4359.14
4359.14
4359.14
4359.14
4359.14
4359.14
4261.04
4261.04
4261.04
4261.04
4261.04
4261.05
4261.05
4261.05
4261.05
4261.05
4261.05
4261.05
4261.05
4261.05
4261.05
4261.05
4261.05
4261.05
4261.05
4261.05
4261.05
4261.05
4261.04
4261.04
4261.04
4261.04
4261.04
4261.04
4261.04
4261.04
4162.94
4162.94
4162.94
4162.94
4162.94
4162.94
4162.94
4162.95
4162.95
4162.95
4162.95
4162.95
4162.95
4162.95
4162.95
4162.95
4162.95
4162.95
4162.95
4162.95
4162.95
4162.94
4162.94
4162.94
4162.94
4162.94
4162.94
4162.94
4162.94
4162.94
4064.84
4064.84
4064.84
4064.84
4064.84
4064.84
4064.84
4064.84
4064.84
4064.84
4064.85
4064.85
4064.85
4064.85
4064.85
4064.85
4064.85
4064.85
4064.85
4064.85
4064.85
4064.84
4064.84
4064.84
4064.84
4064.84
4064.84
4064.84
4064.84
4064.84
3966.73
3966.73
3966.74
3966.74
3966.74
3966.74
3966.74
3966.74
3966.74
3966.74
3966.74
3966.75
3966.75
3966.75
3966.75
3966.75
3966.75
3966.75
3966.75
3966.75
3966.75
3966.74
3966.74
3966.74
3966.74
3966.74
3966.74
3966.74
3966.74
3966.74
3868.63
3868.63
3868.63
3868.63
3868.64
3868.64
3868.64
3868.64
3868.64
3868.64
3868.64
3868.65
3868.65
3868.65
3868.65
3868.65
3868.65
3868.65
3868.65
3868.65
3868.65
3868.64
3868.64
3868.64
3868.64
3868.64
3868.64
3868.64
3868.63
3868.63
3770.53
3770.53
3770.53
3770.53
3770.53
3770.53
3770.54
3770.54
3770.54
3770.54
3770.54
3770.55
3770.55
3770.55
3770.55
3770.55
3770.55
3770.55
3770.55
3770.55
3770.54
3770.54
3770.54
3770.54
3770.54
3770.54
3770.53
3770.53
3770.53
3770.53
3672.42
3672.42
3672.42
3672.42
3672.43
3672.43
3672.43
3672.44
3672.44
3672.44
3672.44
3672.45
3672.45
3672.45
3672.45
3672.45
3672.45
3672.45
3672.44
3672.44
3672.44
3672.44
3672.44
3672.44
3672.43
3672.43
3672.43
3672.43
3672.43
3672.43
3574.31
3574.31
3574.32
3574.32
3574.32
3574.32
3574.33
3574.33
3574.34
3574.34
3574.34
3574.34
3574.35
3574.35
3574.35
3574.35
3574.35
3574.34
3574.34
3574.34
3574.34
3574.34
3574.33
3574.33
3574.33
3574.33
3574.32
3574.32
3574.32
3574.32
3476.21
3476.21
3476.21
3476.21
3476.22
3476.22
3476.22
3476.23
3476.23
3476.24
3476.24
3476.24
3476.24
3476.25
3476.25
3476.25
3476.24
3476.24
3476.24
3476.24
3476.23
3476.23
3476.23
3476.22
3476.22
3476.22
3476.22
3476.21
3476.21
3476.21
3378.1
3378.1
3378.1
3378.11
3378.11
3378.11
3378.12
3378.12
3378.13
3378.13
3378.14
3378.14
3378.14
3378.14
3378.14
3378.14
3378.14
3378.14
3378.14
3378.13
3378.13
3378.12
3378.12
3378.12
3378.11
3378.11
3378.11
3378.1
3378.1
3378.1
3279.99
3279.99
3280