/*--------------------------------*- C++ -*----------------------------------*\
| =========                 |                                                 |
| \\      /  F ield         | OpenFOAM: The Open Source CFD Toolbox           |
|  \\    /   O peration     | Version:  2312                                  |
|   \\  /    A nd           | Website:  www.openfoam.com                      |
|    \\/     M anipulation  |                                                 |
\*---------------------------------------------------------------------------*/
FoamFile
{
    version     2.0;
    format      ascii;
    arch        "LSB;label=32;scalar=64";
    class       volScalarField;
    location    "0.489491";
    object      p_rgh;
}
// * * * * * * * * * * * * * * * * * * * * * * * * * * * * * * * * * * * * * //

dimensions      [1 -1 -2 0 0 0 0];

internalField   nonuniform List<scalar> 
90000
(
4898.7
4898.7
4898.7
4898.7
4898.7
4898.7
4898.7
4898.7
4898.7
4898.7
4898.7
4898.7
4898.7
4898.7
4898.7
4898.7
4898.7
4898.7
4898.7
4898.7
4898.7
4898.7
4898.7
4898.7
4898.7
4898.7
4898.7
4898.7
4898.7
4898.7
4898.7
4898.7
4898.7
4898.7
4898.7
4898.7
4898.7
4898.7
4898.7
4898.7
4898.7
4898.7
4898.7
4898.7
4898.7
4898.7
4898.7
4898.7
4898.7
4898.7
4898.7
4898.7
4898.7
4898.7
4898.7
4898.7
4898.7
4898.7
4898.71
4898.73
4898.7
4898.7
4898.7
4898.7
4898.7
4898.7
4898.7
4898.7
4898.7
4898.7
4898.7
4898.7
4898.7
4898.7
4898.7
4898.7
4898.7
4898.7
4898.7
4898.7
4898.7
4898.7
4898.7
4898.7
4898.7
4898.7
4898.7
4898.69
4898.68
4898.7
4898.7
4898.7
4898.7
4898.7
4898.7
4898.7
4898.7
4898.7
4898.7
4898.7
4898.7
4898.7
4898.7
4898.7
4898.7
4898.7
4898.7
4898.7
4898.7
4898.7
4898.7
4898.7
4898.7
4898.7
4898.7
4898.7
4898.7
4898.71
4898.69
4898.69
4898.7
4898.7
4898.7
4898.7
4898.7
4898.7
4898.7
4898.7
4898.7
4898.7
4898.7
4898.7
4898.7
4898.7
4898.7
4898.7
4898.7
4898.7
4898.7
4898.7
4898.7
4898.7
4898.7
4898.7
4898.7
4898.69
4898.69
4898.69
4898.68
4898.69
4898.69
4898.7
4898.7
4898.7
4898.7
4898.7
4898.7
4898.7
4898.7
4898.7
4898.7
4898.71
4898.71
4898.7
4898.7
4898.7
4898.7
4898.7
4898.7
4898.7
4898.7
4898.7
4898.7
4898.7
4898.7
4898.69
4898.68
4898.68
4898.68
4898.68
4898.69
4898.7
4898.69
4898.69
4898.69
4898.69
4898.7
4898.7
4898.7
4898.7
4898.7
4898.7
4898.7
4898.7
4898.7
4898.7
4898.7
4898.7
4898.7
4898.7
4898.7
4898.7
4898.7
4898.69
4898.69
4898.68
4898.68
4898.67
4898.67
4898.67
4898.69
4898.69
4898.69
4898.69
4898.69
4898.69
4898.69
4898.69
4898.7
4898.7
4898.7
4898.7
4898.7
4898.7
4898.7
4898.7
4898.7
4898.7
4898.7
4898.7
4898.7
4898.69
4898.69
4898.69
4898.68
4898.68
4898.67
4898.67
4898.67
4898.68
4898.69
4898.69
4898.69
4898.69
4898.69
4898.69
4898.69
4898.69
4898.69
4898.69
4898.69
4898.69
4898.7
4898.7
4898.7
4898.7
4898.7
4898.7
4898.7
4898.7
4898.7
4898.69
4898.69
4898.68
4898.68
4898.68
4898.67
4898.67
4898.68
4898.68
4898.69
4898.69
4898.69
4898.69
4898.69
4898.69
4898.69
4898.69
4898.69
4898.69
4898.69
4898.69
4898.69
4898.7
4898.7
4898.7
4898.71
4898.71
4898.7
4898.7
4898.69
4898.69
4898.68
4898.68
4898.68
4898.67
4898.67
4898.68
4898.68
4898.68
4898.68
4898.69
4898.69
4898.69
4898.7
4898.7
4898.7
4898.69
4898.69
4898.69
4898.68
4898.69
4898.69
4898.69
4898.7
4898.7
4898.7
4898.7
4898.7
4898.7
4898.69
4898.69
4898.68
4898.68
4898.68
4898.68
4898.68
4898.68
4898.68
4898.68
4898.68
4898.7
4898.7
4898.7
4898.7
4898.7
4898.7
4898.69
4898.69
4898.68
4898.68
4898.68
4898.68
4898.69
4898.69
4898.69
4898.7
4898.7
4898.7
4898.7
4898.69
4898.69
4898.69
4898.69
4898.68
4898.68
4898.68
4898.68
4898.67
4898.68
4898.69
4898.7
4898.7
4898.7
4898.7
4898.7
4898.7
4898.69
4898.69
4898.68
4898.68
4898.68
4898.68
4898.68
4898.69
4898.69
4898.69
4898.69
4898.7
4898.7
4898.7
4898.7
4898.7
4898.7
4898.69
4898.69
4898.69
4898.68
4898.68
4898.68
4898.68
4898.69
4898.69
4898.69
4898.69
4898.69
4898.68
4898.68
4898.68
4898.69
4898.69
4898.69
4898.69
4898.69
4898.68
4898.69
4898.69
4898.69
4898.7
4898.71
4898.72
4898.72
4898.72
4898.71
4898.7
4898.7
4898.69
4898.69
4898.69
4898.68
4898.67
4898.66
4898.66
4898.66
4898.66
4898.66
4898.67
4898.68
4898.68
4898.69
4898.7
4898.7
4898.7
4898.69
4898.69
4898.69
4898.69
4898.7
4898.71
4898.71
4898.72
4898.72
4898.71
4898.71
4898.7
4898.7
4898.69
4898.69
4898.68
4898.67
4898.65
4898.62
4898.62
4898.62
4898.63
4898.64
4898.65
4898.67
4898.69
4898.7
4898.71
4898.71
4898.7
4898.7
4898.69
4898.69
4898.69
4898.69
4898.7
4898.7
4898.7
4898.7
4898.69
4898.69
4898.68
4898.68
4898.67
4898.66
4898.65
4898.64
4898.61
4898.58
4898.58
4898.59
4898.61
4898.62
4898.64
4898.67
4898.69
4898.7
4898.7
4898.7
4898.7
4898.69
4898.69
4898.68
4898.68
4898.68
4898.68
4898.68
4898.67
4898.67
4898.67
4898.66
4898.66
4898.65
4898.64
4898.63
4898.62
4898.62
4898.59
4898.55
4898.57
4898.58
4898.6
4898.62
4898.64
4898.66
4898.67
4898.68
4898.69
4898.69
4898.69
4898.68
4898.68
4898.68
4898.68
4898.67
4898.67
4898.66
4898.65
4898.65
4898.65
4898.64
4898.64
4898.62
4898.61
4898.6
4898.6
4898.62
4898.57
4898.55
4898.56
4898.58
4898.59
4898.61
4898.63
4898.65
4898.66
4898.67
4898.67
4898.68
4898.68
4898.69
4898.69
4898.69
4898.68
4898.67
4898.66
4898.65
4898.65
4898.64
4898.63
4898.62
4898.61
4898.6
4898.59
4898.59
4898.6
4898.6
4898.56
4898.55
4898.56
4898.58
4898.59
4898.61
4898.62
4898.64
4898.65
4898.66
4898.67
4898.68
4898.69
4898.7
4898.7
4898.7
4898.69
4898.68
4898.66
4898.65
4898.64
4898.63
4898.61
4898.6
4898.58
4898.57
4898.57
4898.58
4898.58
4898.57
4898.55
4898.55
4898.56
4898.57
4898.59
4898.61
4898.62
4898.63
4898.65
4898.66
4898.67
4898.69
4898.7
4898.7
4898.7
4898.7
4898.69
4898.67
4898.66
4898.65
4898.63
4898.61
4898.59
4898.57
4898.56
4898.56
4898.56
4898.56
4898.55
4898.55
4898.53
4898.54
4898.55
4898.57
4898.59
4898.6
4898.62
4898.63
4898.64
4898.66
4898.67
4898.68
4898.69
4898.7
4898.7
4898.69
4898.69
4898.68
4898.66
4898.65
4898.63
4898.6
4898.58
4898.57
4898.57
4898.56
4898.55
4898.54
4898.52
4898.52
4898.51
4898.52
4898.53
4898.55
4898.57
4898.59
4898.6
4898.62
4898.63
4898.64
4898.66
4898.67
4898.68
4898.69
4898.69
4898.69
4898.69
4898.68
4898.67
4898.64
4898.62
4898.6
4898.59
4898.58
4898.57
4898.56
4898.53
4898.51
4898.5
4898.5
4898.47
4898.49
4898.51
4898.52
4898.54
4898.56
4898.57
4898.59
4898.61
4898.63
4898.64
4898.66
4898.67
4898.68
4898.69
4898.7
4898.69
4898.68
4898.66
4898.63
4898.61
4898.6
4898.59
4898.58
4898.56
4898.53
4898.5
4898.49
4898.48
4898.48
4898.42
4898.45
4898.46
4898.48
4898.49
4898.51
4898.53
4898.55
4898.58
4898.6
4898.62
4898.64
4898.66
4898.67
4898.69
4898.69
4898.68
4898.67
4898.64
4898.62
4898.61
4898.59
4898.58
4898.55
4898.52
4898.49
4898.47
4898.46
4898.45
4898.45
4898.36
4898.38
4898.39
4898.4
4898.42
4898.45
4898.47
4898.51
4898.54
4898.57
4898.59
4898.62
4898.65
4898.67
4898.68
4898.68
4898.67
4898.66
4898.64
4898.62
4898.6
4898.58
4898.55
4898.51
4898.47
4898.45
4898.42
4898.41
4898.4
4898.39
4898.28
4898.29
4898.3
4898.31
4898.34
4898.37
4898.41
4898.45
4898.49
4898.53
4898.57
4898.6
4898.64
4898.66
4898.68
4898.67
4898.66
4898.64
4898.62
4898.6
4898.57
4898.53
4898.48
4898.44
4898.4
4898.37
4898.34
4898.33
4898.32
4898.29
4898.18
4898.17
4898.19
4898.21
4898.24
4898.29
4898.34
4898.39
4898.44
4898.49
4898.54
4898.59
4898.63
4898.65
4898.66
4898.65
4898.64
4898.62
4898.59
4898.56
4898.51
4898.45
4898.39
4898.34
4898.29
4898.26
4898.24
4898.22
4898.19
4898.17
4898.05
4898.04
4898.06
4898.1
4898.14
4898.2
4898.25
4898.32
4898.38
4898.44
4898.51
4898.56
4898.6
4898.63
4898.63
4898.63
4898.62
4898.59
4898.55
4898.5
4898.43
4898.37
4898.3
4898.24
4898.18
4898.15
4898.12
4898.08
4898.06
4898.05
4897.89
4897.9
4897.93
4897.97
4898.02
4898.08
4898.15
4898.23
4898.3
4898.39
4898.46
4898.53
4898.57
4898.6
4898.61
4898.61
4898.59
4898.56
4898.51
4898.44
4898.37
4898.29
4898.21
4898.14
4898.08
4898.04
4897.99
4897.94
4897.93
4897.92
4897.72
4897.73
4897.77
4897.82
4897.88
4897.95
4898.03
4898.12
4898.22
4898.31
4898.4
4898.48
4898.53
4898.56
4898.58
4898.59
4898.57
4898.53
4898.47
4898.39
4898.31
4898.21
4898.11
4898.04
4897.97
4897.89
4897.83
4897.78
4897.76
4897.74
4897.51
4897.53
4897.57
4897.64
4897.71
4897.79
4897.89
4897.99
4898.11
4898.22
4898.33
4898.42
4898.49
4898.54
4898.56
4898.57
4898.54
4898.49
4898.43
4898.34
4898.23
4898.11
4898
4897.91
4897.81
4897.7
4897.63
4897.58
4897.54
4897.51
4897.25
4897.29
4897.34
4897.41
4897.5
4897.6
4897.71
4897.83
4897.97
4898.11
4898.24
4898.35
4898.43
4898.5
4898.53
4898.53
4898.5
4898.45
4898.37
4898.25
4898.12
4897.99
4897.86
4897.73
4897.59
4897.47
4897.4
4897.33
4897.26
4897.23
4896.94
4896.99
4897.05
4897.13
4897.23
4897.35
4897.49
4897.65
4897.82
4897.98
4898.13
4898.26
4898.36
4898.44
4898.48
4898.48
4898.45
4898.37
4898.27
4898.13
4897.98
4897.83
4897.67
4897.5
4897.34
4897.22
4897.12
4897.02
4896.94
4896.92
4896.57
4896.61
4896.68
4896.79
4896.91
4897.07
4897.24
4897.43
4897.63
4897.82
4897.99
4898.15
4898.27
4898.36
4898.41
4898.41
4898.37
4898.28
4898.16
4898
4897.83
4897.66
4897.45
4897.25
4897.09
4896.93
4896.79
4896.66
4896.59
4896.57
4896.11
4896.15
4896.24
4896.37
4896.53
4896.72
4896.94
4897.16
4897.39
4897.62
4897.83
4898.01
4898.16
4898.26
4898.32
4898.32
4898.27
4898.16
4898.02
4897.85
4897.66
4897.44
4897.19
4896.97
4896.77
4896.55
4896.37
4896.23
4896.14
4896.1
4895.54
4895.6
4895.7
4895.86
4896.06
4896.29
4896.55
4896.82
4897.1
4897.36
4897.61
4897.83
4898.01
4898.13
4898.19
4898.19
4898.12
4898
4897.85
4897.65
4897.4
4897.13
4896.85
4896.59
4896.32
4896.07
4895.87
4895.71
4895.62
4895.55
4894.86
4894.93
4895.06
4895.25
4895.49
4895.77
4896.07
4896.39
4896.72
4897.04
4897.34
4897.59
4897.8
4897.93
4898
4898
4897.93
4897.8
4897.62
4897.38
4897.06
4896.75
4896.42
4896.08
4895.76
4895.47
4895.24
4895.05
4894.93
4894.88
4894.05
4894.13
4894.29
4894.51
4894.79
4895.11
4895.47
4895.86
4896.26
4896.64
4896.98
4897.27
4897.51
4897.67
4897.77
4897.77
4897.69
4897.53
4897.3
4896.99
4896.62
4896.26
4895.87
4895.47
4895.11
4894.79
4894.5
4894.28
4894.14
4894.07
4893.09
4893.19
4893.37
4893.62
4893.94
4894.32
4894.75
4895.21
4895.68
4896.11
4896.52
4896.86
4897.15
4897.35
4897.46
4897.45
4897.36
4897.16
4896.88
4896.52
4896.12
4895.69
4895.22
4894.77
4894.35
4893.97
4893.63
4893.38
4893.22
4893.11
4891.95
4892.07
4892.26
4892.55
4892.92
4893.37
4893.87
4894.4
4894.93
4895.44
4895.92
4896.33
4896.68
4896.91
4897.03
4897.02
4896.91
4896.67
4896.34
4895.91
4895.46
4894.94
4894.4
4893.88
4893.38
4892.92
4892.54
4892.26
4892.08
4891.94
4890.6
4890.73
4890.94
4891.27
4891.69
4892.2
4892.78
4893.38
4894
4894.59
4895.14
4895.63
4896.04
4896.31
4896.44
4896.42
4896.3
4896.02
4895.65
4895.17
4894.63
4894.01
4893.38
4892.79
4892.21
4891.69
4891.28
4890.96
4890.73
4890.57
4889.01
4889.14
4889.38
4889.74
4890.22
4890.79
4891.43
4892.12
4892.82
4893.51
4894.16
4894.73
4895.19
4895.5
4895.65
4895.67
4895.53
4895.21
4894.74
4894.17
4893.51
4892.8
4892.11
4891.43
4890.77
4890.21
4889.76
4889.41
4889.13
4889
4887.15
4887.28
4887.55
4887.94
4888.46
4889.07
4889.78
4890.53
4891.32
4892.12
4892.87
4893.53
4894.05
4894.45
4894.63
4894.67
4894.46
4894.08
4893.52
4892.88
4892.12
4891.3
4890.53
4889.78
4889.05
4888.45
4887.96
4887.57
4887.27
4887.17
4885.01
4885.15
4885.42
4885.81
4886.34
4886.97
4887.72
4888.55
4889.43
4890.33
4891.17
4891.94
4892.57
4893.03
4893.24
4893.27
4893.03
4892.57
4891.94
4891.17
4890.3
4889.43
4888.57
4887.71
4886.95
4886.35
4885.83
4885.43
4885.14
4885.02
4882.61
4882.73
4882.97
4883.33
4883.82
4884.43
4885.18
4886.05
4886.98
4887.98
4888.95
4889.84
4890.58
4891.11
4891.38
4891.38
4891.11
4890.56
4889.85
4888.97
4887.97
4887
4886.06
4885.2
4884.44
4883.81
4883.31
4882.97
4882.73
4882.61
4879.91
4879.99
4880.15
4880.42
4880.82
4881.35
4882.03
4882.87
4883.81
4884.89
4886
4887.1
4887.96
4888.56
4888.87
4888.88
4888.55
4887.95
4887.1
4886
4884.87
4883.82
4882.85
4882.02
4881.35
4880.82
4880.41
4880.16
4879.98
4879.91
4876.71
4876.7
4876.75
4876.84
4877.06
4877.43
4877.98
4878.7
4879.55
4880.64
4881.87
4883.15
4884.22
4885.01
4885.41
4885.44
4884.98
4884.22
4883.18
4881.86
4880.64
4879.56
4878.7
4877.98
4877.43
4877.06
4876.85
4876.75
4876.7
4876.71
4869.32
4869.09
4869.38
4869.68
4870.19
4870.97
4871.86
4872.9
4873.02
4874.66
4875.67
4876.9
4878.05
4879.06
4879.61
4879.62
4879.06
4878.05
4876.92
4875.67
4874.65
4873.02
4872.9
4871.86
4870.96
4870.19
4869.68
4869.38
4869.1
4869.32
3444.54
3425.84
3402.78
3367.75
3329.04
3291.78
3263.01
3253.74
3259.28
3248.02
3227.86
3209.43
3221.49
3266.35
3282.3
3281.74
3266.71
3221.28
3209.5
3228.07
3248.01
3259.28
3253.75
3262.96
3291.81
3329.06
3367.79
3402.76
3425.9
3444.39
69.4504
65.6602
57.3844
46.9012
37.0315
28.9724
26.9107
34.8243
45.6835
48.6867
54.9509
69.3282
86.8968
103.38
110.827
110.687
103.313
86.832
69.3018
54.9029
48.69
45.6938
34.8154
26.9055
29.0118
36.9766
46.8452
57.3654
65.6671
69.4793
0.0989549
0.100315
0.102619
0.10963
0.141278
0.423144
0.730747
1.08877
1.29126
1.61931
2.20212
3.06808
4.13928
5.17235
5.03345
5.03208
5.16389
4.13009
3.06589
2.20161
1.61428
1.28685
1.08771
0.730789
0.415961
0.14167
0.110203
0.103238
0.100998
0.0996679
0.0947292
0.0956876
0.100673
0.103266
0.117531
0.180884
0.230274
0.322292
0.413655
0.567396
0.76175
1.06147
1.3462
1.54642
1.47286
1.47448
1.5445
1.34468
1.06162
0.762583
0.567299
0.412952
0.322432
0.230827
0.182257
0.118067
0.103659
0.101291
0.0963702
0.0955074
0.0872448
0.0876913
0.0884494
0.0895191
0.0919246
0.0987497
0.112977
0.134324
0.173443
0.304395
0.391529
0.452212
0.48996
0.560915
0.55262
0.552648
0.561878
0.490411
0.453008
0.393498
0.306332
0.174982
0.134926
0.113626
0.0995816
0.0924733
0.0900406
0.089029
0.0882255
0.0877394
0.0794345
0.0794737
0.0795355
0.0796009
0.0797142
0.0802448
0.0818534
0.0846523
0.0898559
0.136478
0.204681
0.253277
0.280255
0.294586
0.290974
0.290911
0.295196
0.281092
0.254521
0.207886
0.139266
0.0903256
0.085074
0.0822927
0.0806887
0.0801915
0.0801403
0.0801338
0.0801067
0.0798136
0.0716877
0.0715803
0.0713681
0.0710063
0.0705225
0.0699522
0.0693845
0.0687896
0.068173
0.0689754
0.0761906
0.0974806
0.114626
0.126754
0.123406
0.122938
0.126896
0.115147
0.0983435
0.0770824
0.0693122
0.0685168
0.0691458
0.0698155
0.0703999
0.0709969
0.0715086
0.071965
0.0723217
0.0722436
0.0642148
0.0640469
0.0637034
0.0631207
0.0623746
0.0614583
0.0603523
0.0591358
0.0578451
0.056779
0.0564432
0.0575415
0.0598539
0.0626601
0.0635593
0.0635881
0.0627538
0.0600114
0.0577715
0.0566931
0.0570207
0.0581573
0.0594996
0.060755
0.0618648
0.0628019
0.0635692
0.0641649
0.0646385
0.0647648
0.0571395
0.0569132
0.0564735
0.0558286
0.0549834
0.0538991
0.0526546
0.0512832
0.0498646
0.0485186
0.0474405
0.0468448
0.0466831
0.0468995
0.0471408
0.047165
0.0469934
0.0468291
0.047037
0.0476803
0.0487446
0.0501464
0.0516365
0.0530334
0.0542871
0.0553829
0.0563138
0.0569909
0.0575059
0.0576882
0.0505105
0.0502727
0.0498241
0.0491006
0.0481923
0.0470268
0.0457571
0.0443406
0.0428992
0.0414693
0.0402461
0.039293
0.0386262
0.038312
0.03826
0.0382778
0.0383962
0.0387825
0.0394783
0.0404682
0.0417409
0.0432024
0.0446809
0.0461127
0.0474013
0.048569
0.0495334
0.0502936
0.0508161
0.0510649
0.0444328
0.0441682
0.0436615
0.0429601
0.0419936
0.0408341
0.0395069
0.0380733
0.036625
0.0352221
0.0339633
0.0328672
0.0320278
0.0315189
0.031299
0.0313221
0.031608
0.0321859
0.0330516
0.0341642
0.0354796
0.0369254
0.0384009
0.0398425
0.0411803
0.0423614
0.0433448
0.0441251
0.0446685
0.0449302
0.03877
0.0385558
0.0380564
0.0373328
0.0363838
0.0352271
0.0338797
0.0324605
0.0310068
0.02962
0.0283425
0.0272227
0.0263577
0.0257675
0.0254689
0.0255079
0.025854
0.0264846
0.0273934
0.0285522
0.0298974
0.0313219
0.0327829
0.0342102
0.0355585
0.0367276
0.0377211
0.0384805
0.0390344
0.0393027
0.0337251
0.03345
0.0329746
0.0323079
0.0313351
0.0301954
0.0288858
0.0274831
0.0260522
0.0246816
0.0234111
0.0223071
0.0214319
0.0208073
0.0204991
0.0205513
0.0209043
0.0215484
0.0224886
0.0236439
0.0249391
0.0263223
0.0277713
0.0291977
0.0305172
0.0316526
0.0326211
0.033372
0.0339068
0.0341704
0.0291068
0.0288797
0.0284361
0.0277411
0.0268327
0.02573
0.024466
0.0231023
0.0217251
0.0203925
0.0191582
0.0180842
0.0172223
0.0166159
0.0163255
0.0163633
0.0166931
0.0173299
0.0182559
0.0193836
0.0206436
0.0219978
0.0233967
0.0247671
0.0260168
0.0271083
0.0280353
0.0287761
0.0292918
0.0295425
0.0250141
0.0247819
0.0243724
0.0236998
0.0228747
0.0218118
0.0206087
0.0193106
0.0179961
0.0167278
0.0155545
0.0145201
0.0136947
0.013126
0.0128423
0.012865
0.0131935
0.0138285
0.0147128
0.0157683
0.0169522
0.0182378
0.0195605
0.0208503
0.0220314
0.0230812
0.023973
0.0246795
0.0251604
0.0253924
0.0213621
0.0211582
0.0207572
0.02019
0.0193654
0.018372
0.0172415
0.0160214
0.0147918
0.0136058
0.0125062
0.0115504
0.0107954
0.0102611
0.00998246
0.00999792
0.0103109
0.0109008
0.0117109
0.0126909
0.0138119
0.0150298
0.0162691
0.017463
0.0185625
0.0195477
0.0203908
0.0210501
0.0214873
0.0216962
0.0181564
0.0179873
0.0176231
0.0170746
0.0163199
0.0154276
0.0143748
0.0132438
0.0121083
0.0110152
0.010008
0.0091361
0.00843792
0.00793553
0.0076811
0.00770803
0.00799999
0.00853027
0.00926713
0.0101757
0.0112146
0.0123198
0.0134285
0.0145053
0.0155293
0.0164638
0.0172547
0.0178528
0.018243
0.0184347
0.0153852
0.0151962
0.0148851
0.0143566
0.013698
0.0128627
0.011892
0.0108736
0.00984519
0.00885458
0.00794774
0.00715525
0.00651087
0.00605638
0.00583892
0.0058669
0.0061168
0.00657627
0.00723514
0.00806148
0.00900668
0.0100096
0.011021
0.0120117
0.0129538
0.0138048
0.0145169
0.0150543
0.0154088
0.0155857
0.0129437
0.0127879
0.0124894
0.0120542
0.0114583
0.0106825
0.00981407
0.00889467
0.00796466
0.00708314
0.00627378
0.00555697
0.00497944
0.00458422
0.00439398
0.00440565
0.0046136
0.00502541
0.00563136
0.00638385
0.00722346
0.00810434
0.00900064
0.00989209
0.0107444
0.0115111
0.0121472
0.0126262
0.0129461
0.0131102
0.0108361
0.0107436
0.0104699
0.0100761
0.00951359
0.00883142
0.00807287
0.00725717
0.00644419
0.00567114
0.00494024
0.00428974
0.00378051
0.00343749
0.00326116
0.00325492
0.0034299
0.00379533
0.00432913
0.00498147
0.00570989
0.00649135
0.00730497
0.00811538
0.00887425
0.00954069
0.0100908
0.0105163
0.0108141
0.0109727
0.00910042
0.0089374
0.00871547
0.00835247
0.00786152
0.00728333
0.00660758
0.00588511
0.00517765
0.0044939
0.00384235
0.00327464
0.00283511
0.0025281
0.00235577
0.00234109
0.00249732
0.00282464
0.00329372
0.00386363
0.00450485
0.00519814
0.0059166
0.00662008
0.00726856
0.00783927
0.00832301
0.00871131
0.00898802
0.009131
0.00753827
0.00743147
0.00724612
0.00693436
0.00652455
0.0060044
0.00539629
0.00477275
0.00416036
0.00355567
0.00298301
0.00248933
0.00210188
0.00182573
0.00167341
0.00166837
0.00181063
0.00208852
0.00247765
0.00295569
0.00350663
0.0041129
0.00474396
0.00535873
0.00592171
0.00641604
0.00683631
0.00717443
0.00741388
0.00753599
0.00622971
0.00619762
0.00600229
0.00572842
0.00536311
0.0048924
0.00438277
0.00386879
0.00334403
0.00281551
0.00231455
0.00187557
0.00152378
0.00127623
0.00114617
0.00114018
0.00125147
0.00147133
0.00179303
0.00220848
0.00270184
0.00324501
0.00379958
0.00432639
0.00479945
0.00521157
0.00556377
0.00585101
0.00605793
0.00616668
0.00522466
0.00510429
0.00495359
0.00472691
0.00439367
0.00399768
0.00358414
0.00314669
0.0026844
0.00221943
0.00177727
0.00138455
0.0010722
0.000861584
0.000755375
0.000746187
0.000828747
0.00100638
0.00128332
0.00165087
0.00208303
0.00254453
0.00300274
0.00343504
0.00383019
0.00418439
0.00449251
0.00474252
0.00491799
0.00500642
0.00426499
0.00418161
0.00409
0.00389908
0.00361584
0.00329798
0.00294777
0.0025595
0.00214867
0.00173863
0.00134999
0.00100894
0.00074433
0.00056787
0.000470716
0.000444189
0.000494066
0.000635428
0.000873623
0.00119218
0.00155886
0.00194195
0.00232202
0.00268999
0.00303803
0.00335381
0.00362096
0.00382467
0.00395714
0.004019
0.00348064
0.00349604
0.00339623
0.00321622
0.00298124
0.00270949
0.00240106
0.00206432
0.00171068
0.00135631
0.00102313
0.000735249
0.000509785
0.000348366
0.000244625
0.000201511
0.000233068
0.000353866
0.000561869
0.000835459
0.0011442
0.00146458
0.00178545
0.00210067
0.00239929
0.00266413
0.00287868
0.00303511
0.0031356
0.00318621
0.00297517
0.00292545
0.00282221
0.00266689
0.00246576
0.00222525
0.00196417
0.00168466
0.00138444
0.00107912
0.000793963
0.000545831
0.000340385
0.000180495
7.32564e-05
3.15973e-05
6.36941e-05
0.000172115
0.000345884
0.000565779
0.000812325
0.00107188
0.00133629
0.00159735
0.00184273
0.0020582
0.00223354
0.00236617
0.00245853
0.00251149
0.00246458
0.0023877
0.00232829
0.00221095
0.00204048
0.0018423
0.00163182
0.00139674
0.001135
0.000869159
0.00062337
0.000404917
0.000213618
5.82712e-05
-4.37789e-05
-7.96831e-05
-4.95008e-05
3.70422e-05
0.000167412
0.000331871
0.000523214
0.000733826
0.000954007
0.00117215
0.00137651
0.00155788
0.00171106
0.00183384
0.0019238
0.00197556
0.00201753
0.00202301
0.00197533
0.00186687
0.00171714
0.00155265
0.00136967
0.00115606
0.000921818
0.000692167
0.000483599
0.00029646
0.000129037
-9.1129e-06
-0.000101532
-0.000138251
-0.000122804
-6.45101e-05
2.85756e-05
0.000153345
0.000306857
0.00048139
0.000664599
0.000843984
0.00101109
0.00116214
0.0012953
0.00140715
0.00149093
0.00153751
0.0018028
0.00181511
0.00173172
0.00161176
0.00147601
0.00133064
0.00116142
0.000968026
0.000768029
0.000578587
0.000405342
0.000245822
9.98747e-05
-2.42028e-05
-0.000113858
-0.000160952
-0.000165673
-0.000131275
-6.29099e-05
3.53059e-05
0.000157452
0.000293891
0.000433962
0.000570281
0.00070063
0.000825484
0.000943392
0.00104788
0.0011281
0.0011724
0.00164008
0.00158283
0.00148839
0.00137688
0.00126602
0.00114379
0.000997213
0.000836051
0.000677441
0.000527973
0.000384033
0.000242157
0.000104925
-1.82106e-05
-0.000115086
-0.00017564
-0.000195686
-0.000177966
-0.000127589
-5.39499e-05
3.36472e-05
0.000127763
0.000224755
0.000325016
0.000430896
0.000542469
0.000654365
0.000755461
0.000832011
0.000872448
0.00140558
0.00135755
0.00128106
0.00119474
0.00111167
0.00101065
0.000883597
0.000746203
0.000614693
0.000490449
0.000364985
0.000235046
0.000103844
-1.76866e-05
-0.00011561
-0.000178812
-0.000203989
-0.000195037
-0.000162148
-0.000115547
-6.2833e-05
-5.4969e-06
6.00797e-05
0.000138733
0.000232169
0.000336069
0.000439856
0.000529647
0.000592796
0.000621919
0.00125128
0.00124482
0.00117767
0.00110689
0.00103387
0.000936994
0.000816509
0.000690479
0.000572049
0.0004599
0.000346106
0.000225173
0.000103348
-6.81631e-06
-9.28777e-05
-0.000148005
-0.000172609
-0.000174486
-0.000162284
-0.000144146
-0.000121624
-9.05635e-05
-4.43642e-05
2.09294e-05
0.000102614
0.000191666
0.000275509
0.000342256
0.000384412
0.000400459
0.0011911
0.00117849
0.00111041
0.00104425
0.000965221
0.000865144
0.000756365
0.000653595
0.000558582
0.000462423
0.000357404
0.000244431
0.000133487
3.71353e-05
-3.6227e-05
-8.65912e-05
-0.000119631
-0.000142104
-0.000156655
-0.000166189
-0.000166705
-0.000151693
-0.000116998
-6.29049e-05
3.06419e-06
7.0291e-05
0.000128502
0.000171067
0.00019639
0.000206652
0.0010941
0.00105378
0.00100353
0.000944157
0.000860102
0.000767655
0.000686569
0.000620817
0.000557692
0.000482045
0.000389041
0.000285942
0.000186146
0.000100111
3.03049e-05
-2.63783e-05
-7.60542e-05
-0.000123323
-0.000166099
-0.000198697
-0.000213614
-0.00020631
-0.00017763
-0.000134348
-8.39825e-05
-3.68794e-05
9.76033e-07
2.78759e-05
4.56331e-05
5.69712e-05
0.000952174
0.000924233
0.000903641
0.000854011
0.000774917
0.000695433
0.00063569
0.000590137
0.000540521
0.000473182
0.000389123
0.000299832
0.000216995
0.000145063
8.05702e-05
1.69369e-05
-4.99276e-05
-0.000118083
-0.000179589
-0.000224341
-0.000245372
-0.000241607
-0.000217682
-0.000182143
-0.000144994
-0.000112467
-8.71235e-05
-6.83848e-05
-5.39162e-05
-4.22877e-05
0.000838833
0.000843603
0.000839742
0.000795939
0.000730031
0.00066732
0.000614702
0.000562632
0.000499132
0.000422582
0.00034302
0.000271589
0.000212217
0.000160311
0.000106683
4.39701e-05
-2.84962e-05
-0.000103985
-0.000171295
-0.000219942
-0.000244343
-0.000245394
-0.000229296
-0.000204565
-0.00017883
-0.000156166
-0.00013833
-0.00012466
-0.000113912
-0.000106143
0.000783731
0.000802954
0.000787657
0.000743929
0.000693469
0.000645353
0.000592965
0.000526226
0.000445622
0.000363655
0.000294436
0.000244103
0.000208064
0.000174608
0.000131966
7.42525e-05
3.81824e-06
-7.05118e-05
-0.000137658
-0.000188684
-0.000219524
-0.000231346
-0.000229013
-0.000218631
-0.000205262
-0.000191913
-0.000180081
-0.000170241
-0.000163232
-0.000160462
0.000738863
0.000744407
0.000711383
0.000670198
0.000634886
0.000597789
0.000545579
0.000475313
0.000397959
0.000329975
0.000282056
0.000253395
0.000233474
0.000208752
0.000169582
0.000113488
4.50229e-05
-2.73303e-05
-9.47662e-05
-0.000150917
-0.000192885
-0.000220905
-0.000237127
-0.000244282
-0.000244731
-0.000240444
-0.000233519
-0.000226227
-0.000221117
-0.000220656
0.000661266
0.000646987
0.000610884
0.000582633
0.000561592
0.000532528
0.000486048
0.000427378
0.000370196
0.000327253
0.000301749
0.000286815
0.000270799
0.000243584
0.000200526
0.000142915
7.60348e-05
6.28243e-06
-6.09307e-05
-0.000122168
-0.000175341
-0.00021935
-0.000253611
-0.000277752
-0.000291845
-0.000296884
-0.000295527
-0.000291018
-0.000286667
-0.00028591
0.000553807
0.000534363
0.000517582
0.000512177
0.000504814
0.000481595
0.000442072
0.000397169
0.000359344
0.000334104
0.000318158
0.000302878
0.000279768
0.000244258
0.000196612
0.00014028
7.94738e-05
1.7412e-05
-4.4126e-05
-0.000104326
-0.000161869
-0.000215098
-0.000261635
-0.000299006
-0.00032548
-0.000341376
-0.000348417
-0.000349775
-0.000348337
-0.000346976
0.000442882
0.000433975
0.000443623
0.000457159
0.000456247
0.000436239
0.000403707
0.00036968
0.000342189
0.000321205
0.000301202
0.000275879
0.000241908
0.000199839
0.000152693
0.000103927
5.54392e-05
7.22109e-06
-4.18733e-05
-9.31144e-05
-0.000146431
-0.000200215
-0.000251558
-0.000297176
-0.000334448
-0.000362176
-0.000380758
-0.000391672
-0.000396747
-0.000397657
0.000353845
0.000361376
0.000383489
0.000397136
0.000391537
0.000370102
0.000343145
0.000318585
0.000296847
0.00027449
0.000247393
0.000213399
0.00017365
0.000131542
9.07088e-05
5.35953e-05
1.97735e-05
-1.29992e-05
-4.77165e-05
-8.68134e-05
-0.00013115
-0.000179872
-0.000230438
-0.000279824
-0.000325115
-0.000363922
-0.000394637
-0.000416896
-0.000430738
-0.000436199
0.0003054
0.000322906
0.000334401
0.000329501
0.000309148
0.000283888
0.000261199
0.000243147
0.000226084
0.000205044
0.000177079
0.000142875
0.000105552
6.9385e-05
3.77317e-05
1.14224e-05
-1.10677e-05
-3.26885e-05
-5.67851e-05
-8.60765e-05
-0.000122079
-0.00016469
-0.000212517
-0.000262913
-0.000312675
-0.000358899
-0.000399159
-0.000430905
-0.000452218
-0.000461806
0.000287044
0.000302058
0.000290945
0.000262899
0.000229996
0.000200285
0.000180695
0.000167734
0.000155047
0.000137564
0.000113636
8.44788e-05
5.41144e-05
2.62489e-05
2.85838e-06
-1.62972e-05
-3.27861e-05
-4.91938e-05
-6.83032e-05
-9.23353e-05
-0.000122938
-0.000160663
-0.000204836
-0.000253738
-0.000304691
-0.000354209
-0.000399065
-0.000435675
-0.000460724
-0.000472132
0.000267125
0.000269448
0.000239908
0.000201515
0.00016758
0.000143785
0.000128377
0.00011694
0.000103998
8.63335e-05
6.41775e-05
3.97144e-05
1.57229e-05
-5.72814e-06
-2.37961e-05
-3.87421e-05
-5.22489e-05
-6.63255e-05
-8.30891e-05
-0.000104558
-0.000132002
-0.000166067
-0.000206574
-0.000252318
-0.000300777
-0.000348653
-0.000392405
-0.000428049
-0.000452074
-0.000462488
0.000211025
0.000197437
0.000167694
0.000138917
0.000118468
0.000105407
9.56394e-05
8.39485e-05
6.76865e-05
4.69576e-05
2.38569e-05
1.03739e-06
-1.9351e-05
-3.63105e-05
-5.00401e-05
-6.14256e-05
-7.21236e-05
-8.38924e-05
-9.84781e-05
-0.000117381
-0.000141645
-0.000171787
-0.000207619
-0.000248034
-0.000290947
-0.000333212
-0.000371329
-0.00040173
-0.000421358
-0.00042873
0.000114289
9.25411e-05
7.71954e-05
7.10285e-05
7.1943e-05
7.33284e-05
6.9332e-05
5.71157e-05
3.73825e-05
1.32e-05
-1.17145e-05
-3.42052e-05
-5.25005e-05
-6.58945e-05
-7.5505e-05
-8.2576e-05
-8.90148e-05
-9.66987e-05
-0.000107276
-0.000122009
-0.000141661
-0.00016645
-0.000195974
-0.000229113
-0.000263976
-0.000297872
-0.00032773
-0.000350684
-0.00036442
-0.000368472
1.23121e-05
-6.31631e-06
-3.8871e-06
1.015e-05
2.73705e-05
3.88664e-05
3.96002e-05
2.88611e-05
9.476e-06
-1.40837e-05
-3.74678e-05
-5.74399e-05
-7.23983e-05
-8.20339e-05
-8.73031e-05
-8.98422e-05
-9.16346e-05
-9.46094e-05
-0.000100325
-0.000109861
-0.000123716
-0.000141831
-0.000163609
-0.000187928
-0.000213179
-0.000237323
-0.000258093
-0.000273471
-0.000281819
-0.000283346
-4.57296e-05
-5.32696e-05
-4.1604e-05
-2.16973e-05
-2.15996e-06
1.03816e-05
1.27159e-05
5.29977e-06
-8.92407e-06
-2.60995e-05
-4.27528e-05
-5.64559e-05
-6.59761e-05
-7.11706e-05
-7.28118e-05
-7.2262e-05
-7.1062e-05
-7.08001e-05
-7.26371e-05
-7.73607e-05
-8.52249e-05
-9.60543e-05
-0.000109294
-0.000124068
-0.000139257
-0.000153552
-0.00016559
-0.000174187
-0.00017841
-0.000178285
-3.20314e-05
-3.10622e-05
-2.45198e-05
-1.56295e-05
-7.65148e-06
-2.96714e-06
-2.46034e-06
-5.62441e-06
-1.11242e-05
-1.74466e-05
-2.33133e-05
-2.7864e-05
-3.0652e-05
-3.16683e-05
-3.12681e-05
-3.00174e-05
-2.84918e-05
-2.7422e-05
-2.72341e-05
-2.8269e-05
-3.05831e-05
-3.4073e-05
-3.84889e-05
-4.34691e-05
-4.86004e-05
-5.34065e-05
-5.74135e-05
-6.02152e-05
-6.1485e-05
-6.10803e-05
4898.7
4898.7
4898.7
4898.7
4898.7
4898.7
4898.7
4898.7
4898.7
4898.7
4898.7
4898.7
4898.7
4898.7
4898.7
4898.7
4898.7
4898.7
4898.7
4898.7
4898.7
4898.7
4898.7
4898.7
4898.7
4898.7
4898.7
4898.7
4898.7
4898.7
4898.7
4898.7
4898.7
4898.7
4898.7
4898.7
4898.7
4898.7
4898.7
4898.7
4898.7
4898.7
4898.7
4898.7
4898.7
4898.7
4898.7
4898.7
4898.7
4898.7
4898.7
4898.7
4898.7
4898.7
4898.7
4898.7
4898.7
4898.7
4898.7
4898.7
4898.7
4898.7
4898.7
4898.7
4898.7
4898.7
4898.7
4898.7
4898.7
4898.7
4898.7
4898.7
4898.7
4898.7
4898.7
4898.7
4898.7
4898.7
4898.7
4898.7
4898.7
4898.7
4898.7
4898.7
4898.7
4898.7
4898.71
4898.71
4898.69
4898.7
4898.7
4898.7
4898.7
4898.7
4898.7
4898.7
4898.7
4898.7
4898.7
4898.7
4898.7
4898.7
4898.71
4898.7
4898.7
4898.7
4898.7
4898.7
4898.7
4898.7
4898.7