/*--------------------------------*- C++ -*----------------------------------*\
| =========                 |                                                 |
| \\      /  F ield         | OpenFOAM: The Open Source CFD Toolbox           |
|  \\    /   O peration     | Version:  2312                                  |
|   \\  /    A nd           | Website:  www.openfoam.com                      |
|    \\/     M anipulation  |                                                 |
\*---------------------------------------------------------------------------*/
FoamFile
{
    version     2.0;
    format      ascii;
    arch        "LSB;label=32;scalar=64";
    class       surfaceScalarField;
    location    "0.489491";
    object      phi;
}
// * * * * * * * * * * * * * * * * * * * * * * * * * * * * * * * * * * * * * //

dimensions      [0 3 -1 0 0 0 0];

oriented        oriented;

internalField   nonuniform List<scalar> 
263100
(
-3.39603e-11
6.79199e-11
-3.39603e-11
-4.20613e-10
7.65561e-10
-1.65317e-10
-6.89376e-10
6.23695e-10
-1.74459e-10
-8.5388e-10
5.31841e-10
-1.97481e-10
-9.16443e-10
4.17898e-10
-2.00413e-10
-8.74777e-10
2.76428e-10
-1.84082e-10
-7.48611e-10
1.39995e-10
-1.58749e-10
-5.78368e-10
3.27716e-11
-1.27219e-10
-4.28941e-10
-1.73933e-11
-9.17143e-11
-3.28299e-10
-1.03974e-11
-8.74968e-11
-2.7326e-10
3.05698e-11
-1.20214e-10
-2.4463e-10
9.06121e-11
-1.88384e-10
-1.97875e-10
1.30269e-10
-2.75294e-10
-9.17214e-11
1.30393e-10
-3.56441e-10
1.03593e-10
8.86932e-11
-4.16666e-10
3.86405e-10
1.36577e-11
-4.32707e-10
6.91014e-10
-4.56382e-11
-3.90259e-10
9.24888e-10
-6.83378e-11
-2.84851e-10
1.01554e-09
-3.07885e-11
-1.62268e-10
9.05593e-10
7.00554e-11
-4.29098e-11
5.68323e-10
2.14697e-10
5.99929e-11
2.62318e-11
3.92266e-10
1.06614e-10
-6.50226e-10
5.54162e-10
9.68553e-11
-1.35299e-09
6.31573e-10
6.18036e-11
-1.88112e-09
5.48147e-10
-1.48713e-11
-2.05486e-09
2.84552e-10
-9.24934e-11
-1.82782e-09
-8.42932e-11
-1.12732e-10
-1.37884e-09
-4.25189e-10
1.60558e-11
-7.93446e-10
-9.09007e-10
3.7098e-10
-2.53175e-09
1.79063e-09
-1.5808e-10
6.21503e-10
-1.5808e-10
-2.65153e-10
1.31837e-09
-1.35826e-10
-3.37192e-10
1.08578e-09
-1.16717e-10
-4.00962e-10
9.24223e-10
-8.22955e-11
-4.48352e-10
7.22624e-10
-4.67344e-11
-4.78922e-10
4.94414e-10
-2.14741e-11
-4.86044e-10
2.68763e-10
-8.15402e-12
-4.7588e-10
8.9283e-11
-1.14314e-11
-4.51788e-10
-5.79713e-12
-4.15566e-11
-3.94099e-10
-4.56935e-11
-8.84601e-11
-3.0441e-10
-4.21704e-11
-1.3803e-10
-1.7641e-10
-2.96503e-11
-1.74541e-10
-2.00356e-11
-3.13535e-11
-1.94617e-10
1.48982e-10
-5.90546e-11
-1.97843e-10
3.08398e-10
-1.08578e-10
-1.83814e-10
4.20341e-10
-1.54231e-10
-1.55412e-10
4.69542e-10
-1.50921e-10
-1.3392e-10
4.62808e-10
-7.64525e-11
-1.4626e-10
3.91299e-10
8.78964e-11
-1.75562e-10
2.60302e-10
3.2545e-10
-2.19472e-10
1.12989e-10
5.686e-10
-2.69985e-10
-4.18347e-11
7.85631e-10
-2.7286e-10
-1.4036e-10
8.95242e-10
-2.5033e-10
-1.50568e-10
8.47275e-10
-1.88791e-10
-8.14513e-11
5.76753e-10
-5.86126e-11
1.17344e-10
8.6252e-11
5.68348e-11
4.6527e-10
-4.91462e-10
1.20106e-10
7.2649e-10
-7.15763e-10
3.72276e-11
6.7064e-11
-4.26119e-10
-3.4983e-11
-3.36028e-09
-1.1304e-11
-9.10949e-11
9.6179e-10
-9.10949e-11
1.35426e-11
1.37418e-09
-1.8928e-11
7.01851e-11
1.14145e-09
7.9547e-12
5.38996e-11
9.92669e-10
4.68941e-11
-2.94441e-11
8.06873e-10
7.26738e-11
-1.58263e-10
5.93542e-10
7.39275e-11
-3.07463e-10
3.85099e-10
4.48679e-11
-4.27938e-10
1.98218e-10
-9.98985e-12
-4.88833e-10
6.57849e-11
-6.4861e-11
-4.46878e-10
-4.91185e-11
-1.21884e-10
-3.0754e-10
-1.26703e-10
-1.61284e-10
-9.81232e-11
-1.96276e-10
-1.64265e-10
1.27357e-10
-2.48457e-10
-1.35585e-10
3.05261e-10
-2.69991e-10
-9.06705e-11
3.78067e-10
-2.52258e-10
-4.13302e-11
3.20256e-10
-1.71153e-10
-2.00949e-11
1.67731e-10
-2.48718e-11
-4.76943e-11
-3.11943e-11
1.76886e-10
-1.07164e-10
-1.95871e-10
4.18406e-10
-1.98301e-10
-2.27857e-10
6.59574e-10
-3.16371e-10
-9.65953e-11
8.42733e-10
-4.03179e-10
2.16662e-10
9.28692e-10
-4.38267e-10
6.53581e-10
8.97023e-10
-4.03905e-10
1.1374e-09
6.98575e-10
-2.81382e-10
1.53647e-09
3.86689e-10
-1.32711e-10
1.73057e-09
-5.45133e-11
5.55563e-11
1.68791e-09
-5.176e-10
2.49641e-10
1.84316e-09
-6.31718e-10
1.28346e-10
1.24501e-09
1.0347e-09
-1.63878e-10
-1.06981e-09
-1.08951e-09
6.46364e-12
1.01299e-09
6.46364e-12
2.26186e-10
1.03528e-09
7.92032e-11
3.33816e-10
8.81137e-10
1.08936e-10
3.41679e-10
7.86081e-10
1.41256e-10
2.42086e-10
6.8506e-10
1.50534e-10
6.30219e-11
5.64725e-10
1.25084e-10
-1.51969e-10
4.35213e-10
7.25463e-11
-3.46706e-10
3.00049e-10
-5.38382e-12
-4.4627e-10
1.39654e-10
-7.36608e-11
-4.35293e-10
-3.2723e-11
-1.21797e-10
-3.08562e-10
-1.91092e-10
-1.45355e-10
-1.06426e-10
-3.2552e-10
-1.38434e-10
9.27661e-11
-3.92526e-10
-9.86426e-11
2.17372e-10
-3.66962e-10
-4.69329e-11
2.27429e-10
-2.39538e-10
-1.85163e-11
1.20972e-10
-1.58607e-11
-2.44127e-11
-6.32852e-11
2.589e-10
-6.03239e-11
-2.4514e-10
5.31108e-10
-1.24552e-10
-3.29218e-10
7.6446e-10
-2.10892e-10
-2.2731e-10
8.95378e-10
-2.86429e-10
1.02706e-10
9.10193e-10
-3.45794e-10
6.25453e-10
8.18524e-10
-3.56965e-10
1.25175e-09
6.54769e-10
-3.18616e-10
1.83253e-09
4.53178e-10
-2.54102e-10
2.22364e-09
2.86531e-10
-1.92383e-10
2.2002e-09
1.99872e-10
-1.29988e-10
1.68401e-09
8.04725e-11
-2.2845e-11
1.14025e-09
-1.17738e-10
4.4558e-11
9.30372e-10
1.63886e-09
-6.09274e-11
8.20564e-10
-8.57698e-10
9.16896e-11
7.83437e-10
9.16896e-11
3.60922e-10
3.92451e-10
1.67359e-10
4.86179e-10
3.73516e-10
1.91279e-10
4.98238e-10
3.81179e-10
1.99162e-10
4.08219e-10
4.07769e-10
1.75367e-10
2.30385e-10
4.34695e-10
1.2373e-10
1.55189e-11
4.21958e-10
5.86158e-11
-1.7145e-10
3.51955e-10
-1.24197e-11
-2.98258e-10
2.18855e-10
-7.03348e-11
-3.48081e-10
3.72091e-11
-1.01727e-10
-3.12405e-10
-1.5484e-10
-1.12314e-10
-2.30294e-10
-3.01421e-10
-1.03501e-10
-1.45076e-10
-3.5042e-10
-8.36039e-11
-9.19166e-11
-2.72645e-10
-6.90275e-11
-9.16383e-11
-6.35732e-11
-7.30831e-11
-1.3299e-10
2.35584e-10
-9.45931e-11
-1.78131e-10
5.44278e-10
-1.25151e-10
-1.80729e-10
7.95007e-10
-1.57397e-10
-8.01489e-11
9.17448e-10
-1.67457e-10
1.67735e-10
8.81194e-10
-1.66441e-10
5.49569e-10
7.45026e-10
-1.63596e-10
1.03466e-09
5.39541e-10
-1.58107e-10
1.52684e-09
3.60437e-10
-1.43818e-10
1.87799e-09
3.23576e-10
-1.50772e-10
1.9898e-09
4.76714e-10
-2.03401e-10
1.82897e-09
7.96989e-10
-2.96597e-10
1.23011e-09
1.28598e-09
-4.39919e-10
2.4276e-10
1.43417e-09
-4.75574e-10
1.26306e-10
2.51503e-09
-5.74797e-10
2.06049e-09
-1.01338e-09
1.47447e-10
3.49151e-10
1.47447e-10
3.74118e-10
-3.52745e-10
2.0731e-10
4.75216e-10
-2.13695e-10
2.06161e-10
4.99198e-10
-8.70724e-11
1.73941e-10
4.49778e-10
8.45797e-11
1.18569e-10
3.4425e-10
2.57394e-10
5.36693e-11
2.10846e-10
3.77509e-10
-1.74392e-11
7.19354e-11
4.04397e-10
-6.62156e-11
-6.65582e-11
3.37569e-10
-8.27501e-11
-1.9454e-10
2.05417e-10
-8.76004e-11
-3.05675e-10
4.89146e-11
-8.37422e-11
-4.03242e-10
-6.23793e-11
-8.01947e-11
-4.71508e-10
-9.1082e-11
-8.65977e-11
-4.93943e-10
-1.33135e-12
-1.1518e-10
-4.63967e-10
1.95542e-10
-1.43387e-10
-3.52239e-10
4.23356e-10
-1.59764e-10
-1.71922e-10
6.39144e-10
-1.57219e-10
6.99219e-11
7.49353e-10
-1.10815e-10
3.6067e-10
7.29422e-10
-5.37943e-11
6.87825e-10
5.69561e-10
5.77061e-13
9.98602e-10
3.6723e-10
6.02436e-11
1.24078e-09
1.78791e-10
1.02564e-10
1.36582e-09
1.58845e-10
6.48555e-11
1.339e-09
4.00801e-10
-4.91413e-11
1.12264e-09
8.66738e-10
-1.59623e-10
7.70536e-10
1.52166e-09
-3.45268e-10
3.6603e-10
2.34273e-09
-5.93972e-10
-2.68277e-10
2.89459e-09
-7.93012e-10
-3.63958e-10
3.56764e-09
-9.1333e-10
2.67255e-09
-9.82274e-10
1.24897e-10
-9.03188e-11
1.24897e-10
2.41578e-10
-9.44058e-10
1.37546e-10
3.05712e-10
-6.70512e-10
9.64432e-11
3.57201e-10
-4.427e-10
2.72482e-11
4.02458e-10
-1.60444e-10
-5.07219e-11
4.3442e-10
1.17538e-10
-1.07521e-10
4.36051e-10
3.41701e-10
-1.37641e-10
3.79126e-10
4.77205e-10
-1.36768e-10
2.49633e-10
5.14933e-10
-1.12933e-10
4.27575e-11
4.84267e-10
-8.01833e-11
-2.23893e-10
4.2304e-10
-6.28268e-11
-5.03845e-10
3.62251e-10
-5.66891e-11
-7.23669e-10
3.24636e-10
-7.92466e-11
-8.13612e-10
3.2689e-10
-1.11348e-10
-7.30164e-10
3.59205e-10
-1.29539e-10
-4.91353e-10
3.83506e-10
-1.08604e-10
-1.34629e-10
3.87505e-10
-5.49991e-11
2.74611e-10
3.22475e-10
2.14115e-11
6.9902e-10
1.70081e-10
9.41016e-11
1.00298e-09
9.82655e-13
1.87477e-10
1.15513e-09
-1.6453e-10
2.78256e-10
1.12364e-09
-1.78685e-10
2.75708e-10
9.1587e-10
5.16308e-11
1.9945e-10
5.92398e-10
5.72697e-10
3.92555e-11
1.8339e-10
1.30339e-09
-1.38805e-10
-2.17288e-10
2.15059e-09
-3.51167e-10
-4.2873e-10
2.99778e-09
-5.74917e-10
-5.82978e-10
3.55006e-09
-6.52185e-10
-4.37805e-10
3.90374e-09
-6.48702e-10
2.65721e-09
-6.09647e-10
-1.65157e-11
-2.48889e-10
-1.65157e-11
3.91144e-12
-1.21561e-09
-4.98213e-11
5.07436e-11
-8.42769e-10
-1.33139e-10
1.60941e-10
-5.79052e-10
-2.08614e-10
3.30144e-10
-2.64686e-10
-2.69756e-10
5.21689e-10
4.8724e-11
-2.90463e-10
6.72089e-10
3.29449e-10
-2.62667e-10
7.17695e-10
5.58276e-10
-2.03967e-10
6.13905e-10
7.22028e-10
-1.32736e-10
3.56257e-10
8.23391e-10
-6.68242e-11
-1.93305e-11
8.63714e-10
-1.50274e-11
-4.26393e-10
8.3414e-10
7.38577e-12
-7.46258e-10
7.29948e-10
-7.60365e-12
-9.02438e-10
5.56705e-10
-7.80436e-12
-8.39697e-10
3.296e-10
4.72631e-12
-5.87906e-10
1.00852e-10
2.91919e-11
-1.85631e-10
-1.38727e-10
7.75829e-11
2.61684e-10
-3.70222e-10
1.55961e-10
6.27141e-10
-5.79174e-10
2.58458e-10
8.52865e-10
-7.18117e-10
3.41771e-10
8.71359e-10
-7.09777e-10
3.57431e-10
6.90777e-10
-4.87601e-10
3.06519e-10
3.53978e-10
-2.27507e-11
2.12228e-10
-4.00795e-11
6.54034e-10
9.10317e-11
-3.83969e-10
1.44355e-09
-4.69208e-11
-6.28995e-10
2.25824e-09
-1.51155e-10
-6.63179e-10
2.91558e-09
-2.13583e-10
-5.40379e-10
3.26981e-09
-2.07412e-10
-1.93632e-10
3.34323e-09
-1.7725e-10
2.14765e-09
-4.76749e-11
-2.40899e-10
7.18013e-11
-2.40899e-10
-2.53849e-10
-1.13566e-09
-3.09245e-10
-1.96104e-10
-7.20306e-10
-3.85069e-10
-7.88501e-12
-5.09164e-10
-4.40147e-10
2.74411e-10
-2.52449e-10
-4.48522e-10
5.94556e-10
1.59571e-11
-4.08173e-10
8.57547e-10
3.00493e-10
-3.1846e-10
9.83903e-10
5.93494e-10
-2.09532e-10
9.21817e-10
8.69563e-10
-1.00726e-10
6.72611e-10
1.08729e-09
-5.1942e-12
2.889e-10
1.20608e-09
6.41139e-11
-1.3095e-10
1.16545e-09
1.10817e-10
-4.90526e-10
9.53881e-10
1.43533e-10
-7.07825e-10
5.87202e-10
1.68701e-10
-7.65939e-10
1.3745e-10
1.99274e-10
-6.54066e-10
-3.23838e-10
2.28086e-10
-4.22203e-10
-7.52615e-10
2.68618e-10
-1.55957e-10
-1.08251e-09
3.12834e-10
6.50338e-11
-1.2747e-09
3.3064e-10
1.94051e-10
-1.29633e-09
2.99875e-10
2.01306e-10
-1.11169e-09
2.38212e-10
8.64638e-11
-7.08539e-10
1.6267e-10
-9.85262e-11
-1.32392e-10
8.90536e-11
-2.88415e-10
5.3482e-10
5.27847e-11
-4.47807e-10
1.22857e-09
5.46842e-11
-5.00124e-10
1.83379e-09
9.12122e-11
-4.23069e-10
2.27076e-09
1.20447e-10
-2.40467e-10
2.42425e-09
1.70986e-10
5.50501e-12
2.34743e-09
2.33212e-10
1.44317e-09
2.71552e-10
-4.18996e-10
7.84827e-10
-4.18996e-10
-4.17891e-10
-8.70021e-10
-4.64866e-10
-3.30474e-10
-4.78108e-10
-4.97659e-10
-1.17782e-10
-3.82638e-10
-4.87757e-10
1.96528e-10
-2.59848e-10
-4.30788e-10
5.38346e-10
-8.39864e-11
-3.3735e-10
8.12184e-10
1.76849e-10
-2.16766e-10
9.67783e-10
4.94562e-10
-9.78133e-11
9.68432e-10
8.68758e-10
-2.30307e-11
8.23107e-10
1.14794e-09
6.88265e-11
5.60098e-10
1.31465e-09
1.33891e-10
2.43147e-10
1.25241e-09
1.93515e-10
-7.02962e-11
9.51238e-10
2.55966e-10
-3.41491e-10
4.62345e-10
3.10182e-10
-5.71798e-10
-8.81843e-11
3.4898e-10
-7.35544e-10
-6.42427e-10
3.64841e-10
-8.43486e-10
-1.11046e-09
3.51448e-10
-8.73732e-10
-1.4259e-09
2.74801e-10
-8.28945e-10
-1.55457e-09
1.57888e-10
-7.32526e-10
-1.47567e-09
2.34991e-11
-6.0535e-10
-1.2504e-09
-4.51798e-11
-4.63264e-10
-8.51212e-10
-7.70922e-11
-3.32915e-10
-3.21739e-10
-6.58664e-11
-2.37075e-10
2.57283e-10
-1.24967e-11
-1.48352e-10
8.02208e-10
6.23319e-11
-5.76798e-11
1.23663e-09
1.54078e-10
6.3007e-11
1.4833e-09
2.51057e-10
1.64398e-10
1.54565e-09
3.21126e-10
1.96249e-10
1.50849e-09
3.35685e-10
9.83534e-10
2.89806e-10
-3.64793e-10
1.41033e-09
-3.64793e-10
-3.82415e-10
-6.69009e-10
-3.64782e-10
-3.53591e-10
-3.2904e-10
-3.3385e-10
-2.21467e-10
-3.80793e-10
-2.71405e-10
-2.89483e-11
-3.80915e-10
-1.84506e-10
1.68713e-10
-2.77328e-10
-9.01713e-11
3.45781e-10
-3.30569e-11
-2.76804e-11
4.70268e-10
3.06381e-10
2.18852e-11
5.71555e-10
6.858e-10
4.81929e-11
6.2438e-10
9.99355e-10
5.84918e-11
6.23452e-10
1.15664e-09
1.06805e-10
5.348e-10
1.10958e-09
1.57472e-10
3.4304e-10
8.30294e-10
2.1649e-10
2.70485e-11
4.04551e-10
2.62914e-10
-3.86191e-10
-5.82086e-11
2.72359e-10
-8.42194e-10
-5.04824e-10
2.25917e-10
-1.262e-09
-8.64214e-10
1.16771e-10
-1.5459e-09
-1.10945e-09
-4.32686e-11
-1.62866e-09
-1.23624e-09
-2.01306e-10
-1.49003e-09
-1.22631e-09
-3.22977e-10
-1.18005e-09
-1.1071e-09
-3.82862e-10
-7.90534e-10
-8.46557e-10
-3.48827e-10
-3.97017e-10
-4.7372e-10
-2.48572e-10
-6.74283e-11
-3.52933e-11
-1.13027e-10
1.96436e-10
3.99669e-10
-9.42471e-12
3.76934e-10
7.64397e-10
8.20552e-11
4.75144e-10
9.80345e-10
1.50569e-10
4.55463e-10
1.10333e-09
1.83066e-10
3.19571e-10
1.1808e-09
1.79534e-10
9.33991e-10
1.7688e-10
-5.19301e-11
1.4131e-09
-5.19301e-11
-2.38744e-10
-6.31295e-10
-2.72828e-11
-3.85145e-10
-3.81767e-10
4.87962e-11
-4.89781e-10
-5.09579e-10
1.05631e-10
-5.84136e-10
-5.73037e-10
1.87553e-10
-6.40708e-10
-4.9787e-10
2.08587e-10
-6.14036e-10
-2.70546e-10
1.68258e-10
-4.95909e-10
6.89949e-11
9.30477e-11
-2.45031e-10
4.20434e-10
-8.16624e-12
9.34223e-11
6.94181e-10
-6.52824e-11
4.26543e-10
8.46398e-10
-7.37176e-11
6.20634e-10
8.59226e-10
-1.62356e-11
5.90694e-10
7.62887e-10
8.94318e-12
2.92596e-10
5.90547e-10
2.18759e-11
-2.09515e-10
3.86793e-10
-1.53614e-11
-8.28651e-10
2.13784e-10
-1.34173e-10
-1.40542e-09
-2.37771e-11
-2.4612e-10
-1.79201e-09
-2.55533e-10
-3.93764e-10
-1.89053e-09
-4.98323e-10
-5.193e-10
-1.70486e-09
-7.01943e-10
-5.64613e-10
-1.31352e-09
-8.1972e-10
-5.35378e-10
-8.21329e-10
-7.94779e-10
-4.28367e-10
-3.38103e-10
-5.94338e-10
-2.91229e-10
6.11612e-11
-2.55096e-10
-1.5555e-10
3.66612e-10
1.43125e-10
-6.47386e-11
5.92418e-10
5.05176e-10
-9.14167e-12
6.96987e-10
7.8702e-10
3.10121e-11
6.72297e-10
9.9262e-10
7.07483e-11
5.06527e-10
1.15408e-09
1.28246e-10
1.15456e-09
2.6916e-10
3.95853e-10
5.19911e-10
3.95853e-10
-1.58992e-10
-6.60815e-10
4.27843e-10
-5.73839e-10
-5.84643e-10
4.90957e-10
-1.01418e-09
-6.41146e-10
4.74512e-10
-1.42282e-09
-6.46469e-10
4.19502e-10
-1.72775e-09
-5.24749e-10
3.03414e-10
-1.81923e-09
-3.2544e-10
1.44962e-10
-1.61415e-09
-9.50796e-11
-2.75844e-11
-1.17241e-09
1.44737e-10
-1.52043e-10
-5.34854e-10
2.92527e-10
-2.34058e-10
9.79857e-11
4.4283e-10
-2.47094e-10
5.41929e-10
6.07234e-10
-2.29012e-10
6.72211e-10
7.87519e-10
-2.0215e-10
4.64854e-10
9.79543e-10
-2.23204e-10
5.73979e-13
1.12777e-09
-2.94274e-10
-5.55131e-10
1.16464e-09
-3.73592e-10
-1.07558e-09
1.02946e-09
-4.65349e-10
-1.36265e-09
6.76363e-10
-5.36146e-10
-1.40341e-09
2.13343e-10
-5.36252e-10
-1.23744e-09
-2.58016e-10
-4.70383e-10
-9.30808e-10
-6.42768e-10
-3.58731e-10
-5.82739e-10
-8.02354e-10
-2.40998e-10
-2.59722e-10
-6.9937e-10
-1.42495e-10
3.96505e-11
-4.06249e-10
-8.56314e-11
3.36108e-10
-3.46607e-11
-5.54267e-11
6.084e-10
3.19521e-10
-1.43585e-11
8.03155e-10
6.20621e-10
5.307e-11
8.46471e-10
8.76258e-10
1.59074e-10
6.94083e-10
1.09784e-09
2.95567e-10
1.4583e-09
4.77794e-10
7.73555e-10
-1.11547e-09
7.73555e-10
-1.97209e-10
-4.05173e-10
6.05108e-10
-9.4993e-10
-4.64213e-10
5.52886e-10
-1.64443e-09
-4.46811e-10
4.5359e-10
-2.25556e-09
-3.52946e-10
3.07136e-10
-2.64615e-09
-2.32042e-10
1.20436e-10
-2.72673e-09
-1.30669e-10
-6.77208e-11
-2.43357e-09
-1.00332e-10
-2.30426e-10
-1.77796e-09
-1.41254e-10
-3.14734e-10
-9.57808e-10
-1.57386e-10
-3.28665e-10
-1.79582e-10
-2.45295e-12
-3.09438e-10
3.80988e-10
3.42964e-10
-2.88109e-10
6.3848e-10
8.35656e-10
-3.03249e-10
5.92939e-10
1.37459e-09
-3.39773e-10
3.41178e-10
1.77954e-09
-3.70824e-10
3.88514e-11
1.94418e-09
-4.22277e-10
-2.09732e-10
1.79298e-09
-4.36846e-10
-3.49739e-10
1.28e-09
-3.73587e-10
-3.66801e-10
5.85259e-10
-2.68582e-10
-3.48631e-10
-6.87779e-11
-1.38298e-10
-3.20326e-10
-5.99169e-10
-2.43182e-11
-3.12112e-10
-8.43439e-10
6.67541e-11
-2.73121e-10
-7.95055e-10
9.39057e-11
-1.15827e-10
-5.68471e-10
6.35557e-11
1.61586e-10
-2.77715e-10
5.5772e-11
4.79618e-10
9.52813e-12
1.11377e-10
7.15458e-10
2.86726e-10
2.3572e-10
7.62588e-10
5.76229e-10
3.97129e-10
5.73607e-10
9.10596e-10
5.18872e-10
1.69653e-09
4.49023e-10
6.6873e-10
-2.51125e-09
6.6873e-10
-5.18065e-10
3.86673e-10
3.44877e-10
-1.39218e-09
1.43842e-10
2.39668e-10
-2.11742e-09
2.04652e-10
7.53679e-11
-2.68114e-09
3.25372e-10
-8.40267e-11
-2.97184e-09
3.22627e-10
-2.08789e-10
-2.92582e-09
1.57498e-10
-2.63217e-10
-2.47788e-09
-1.59481e-10
-3.12953e-10
-1.77977e-09
-4.95526e-10
-2.73276e-10
-1.00506e-09
-6.42765e-10
-2.30664e-10
-3.04207e-10
-4.65037e-10
-1.92663e-10
1.96806e-10
7.75709e-11
-1.98808e-10
4.90408e-10
8.24396e-10
-2.46526e-10
6.43251e-10
1.58649e-09
-3.2222e-10
7.11434e-10
2.11681e-09
-3.52593e-10
7.7709e-10
2.28056e-09
-3.42088e-10
8.3444e-10
2.03867e-09
-2.46116e-10
8.49429e-10
1.40721e-09
-1.01699e-10
7.35543e-10
6.49016e-10
6.38269e-11
5.1766e-10
-6.32152e-11
1.98503e-10
1.7316e-10
-5.39924e-10
2.56021e-10
-1.6542e-10
-7.44865e-10
2.17388e-10
-3.43622e-10
-7.37682e-10
1.28078e-10
-2.83002e-10
-6.45694e-10
6.7783e-11
-3.84398e-11
-5.24094e-10
9.58464e-11
2.40421e-10
-3.42126e-10
1.95999e-10
3.92456e-10
-3.39123e-11
3.04088e-10
3.20526e-10
4.38242e-10
3.45589e-10
7.17212e-11
1.05791e-09
2.28796e-10
1.89628e-09
-4.38305e-11
1.38728e-10
-2.81314e-09
1.38728e-10
-8.82635e-10
1.59579e-09
-1.85626e-10
-1.55196e-09
1.11392e-09
-2.88602e-10
-2.06602e-09
1.11414e-09
-3.66979e-10
-2.37394e-09
1.084e-09
-4.06395e-10
-2.43735e-09
8.15567e-10
-3.735e-10
-2.19748e-09
2.96829e-10
-3.18081e-10
-1.74107e-09
-3.39993e-10
-2.16646e-10
-1.21531e-09
-8.368e-10
-1.32236e-10
-7.22044e-10
-1.01492e-09
-7.74619e-11
-3.4882e-10
-7.41223e-10
-5.96346e-11
-6.30705e-11
-5.94321e-11
-1.12555e-10
2.17112e-10
8.04117e-10
-2.19897e-10
5.61593e-10
1.59111e-09
-3.0367e-10
9.54981e-10
2.09325e-09
-3.23337e-10
1.33733e-09
2.18864e-09
-2.53486e-10
1.61969e-09
1.8834e-09
-1.13499e-10
1.64762e-09
1.30397e-09
5.46324e-11
1.40729e-09
6.64258e-10
1.68879e-10
9.14877e-10
1.44764e-10
2.05138e-10
3.34571e-10
-1.73096e-10
1.35076e-10
-1.34092e-10
-3.45021e-10
1.84067e-11
-3.5429e-10
-4.60861e-10
-6.03065e-11
-3.30685e-10
-5.69617e-10
-5.43548e-11
-2.03463e-10
-5.90819e-10
2.01635e-11
-1.51073e-10
-3.89121e-10
9.01356e-11
-2.63113e-10
9.93427e-11
7.26208e-11
-4.88014e-10
8.29425e-10
-8.41818e-11
-6.14935e-10
1.58483e-09
-3.39003e-10
1.73972e-09
-4.43679e-10
-4.55688e-10
-1.90115e-09
-4.55688e-10
-9.79368e-10
2.79962e-09
-6.34696e-10
-1.28634e-09
2.08029e-09
-6.17627e-10
-1.4407e-09
1.9305e-09
-6.15807e-10
-1.39762e-09
1.62265e-09
-5.33141e-10
-1.15998e-09
1.02982e-09
-4.05114e-10
-8.34203e-10
2.51936e-10
-2.40789e-10
-5.61366e-10
-4.93975e-10
-8.90217e-11
-3.99012e-10
-9.91211e-10
1.09247e-11
-3.76942e-10
-1.06648e-09
4.01237e-11
-4.07278e-10
-6.83141e-10
-1.99218e-11
-3.27951e-10
4.26457e-11
-1.70665e-10
-5.75798e-11
8.43829e-10
-2.93527e-10
4.26476e-10
1.47859e-09
-3.52061e-10
1.01699e-09
1.83461e-09
-3.1913e-10
1.56449e-09
1.86157e-09
-2.28719e-10
1.89125e-09
1.60849e-09
-9.44595e-11
1.84569e-09
1.24938e-09
1.80632e-11
1.47169e-09
8.7148e-10
5.36665e-11
9.00233e-10
5.86794e-10
7.11008e-12
3.2821e-10
3.84215e-10
-8.87417e-11
-7.60344e-11
1.27654e-10
-1.30345e-10
-2.68762e-10
-1.7794e-10
-1.03472e-10
-3.55016e-10
-4.33407e-10
-2.54752e-11
-4.97156e-10
-4.36137e-10
2.83396e-11
-7.56937e-10
-8.21968e-11
-9.51678e-12
-1.04224e-09
5.71368e-10
-1.63866e-10
-1.16927e-09
1.32031e-09
-3.63038e-10
-9.3342e-10
1.70473e-09
-3.83662e-10
1.02699e-09
-2.72125e-10
-7.81532e-10
-3.15865e-10
-7.81532e-10
-7.56206e-10
3.57447e-09
-6.96435e-10
-6.4414e-10
2.69908e-09
-6.39601e-10
-4.21233e-10
2.38403e-09
-5.89062e-10
-8.58796e-11
1.80669e-09
-4.41954e-10
2.85461e-10
1.02527e-09
-3.0626e-10
5.42702e-10
2.07663e-10
-1.74749e-10
5.42663e-10
-4.44e-10
-3.598e-11
2.97262e-10
-7.66821e-10
1.34295e-11
-8.49604e-11
-6.73575e-10
-3.2821e-11
-4.03893e-10
-2.31472e-10
-1.60103e-10
-4.53308e-10
3.6194e-10
-2.94367e-10
-1.80869e-10
8.94841e-10
-3.41891e-10
3.35552e-10
1.26994e-09
-3.2456e-10
9.55796e-10
1.44804e-09
-2.60269e-10
1.45674e-09
1.45344e-09
-1.43379e-10
1.66018e-09
1.35173e-09
-3.07763e-11
1.54815e-09
1.22105e-09
2.45792e-11
1.15544e-09
1.13369e-09
-1.17702e-12
6.99858e-10
9.61785e-10
-4.19202e-11
2.84366e-10
7.56993e-10
-4.6963e-11
6.78836e-12
3.68055e-10
-8.86281e-12
-2.14804e-10
-4.19515e-11
7.58128e-11
-5.20595e-10
-2.51982e-10
1.30373e-10
-9.36509e-10
-1.09703e-10
9.05581e-11
-1.33516e-09
3.51563e-10
-4.95656e-11
-1.50173e-09
9.19817e-10
-2.12962e-10
-1.27923e-09
1.2371e-09
-1.85167e-10
-6.87953e-10
1.10601e-09
-4.45028e-11
1.92435e-10
1.3027e-10
-6.67998e-10
1.08064e-09
-6.67998e-10
-2.01829e-10
3.79578e-09
-4.94301e-10
1.57296e-10
2.96387e-09
-4.50979e-10
6.02186e-10
2.49688e-09
-3.98347e-10
1.06369e-09
1.78228e-09
-3.03888e-10
1.42865e-09
9.82234e-10
-2.2607e-10
1.5285e-09
2.75195e-10
-1.15134e-10
1.29168e-09
-1.53706e-10
-4.42155e-11
7.76969e-10
-2.29531e-10
-4.8314e-11
1.90371e-10
-2.06379e-11
-1.13469e-10
-2.30497e-10
3.31446e-10
-1.94939e-10
-3.13062e-10
6.27806e-10
-2.29302e-10
-1.07834e-10
8.75463e-10
-2.19799e-10
3.02124e-10
9.8359e-10
-1.49829e-10
7.42506e-10
1.02882e-09
-5.10798e-11
1.03764e-09
1.06813e-09
4.45646e-11
1.11667e-09
1.12103e-09
8.57691e-11
9.66126e-10
1.21645e-09
7.69641e-11
7.01137e-10
1.28131e-09
4.59358e-11
4.02328e-10
1.17675e-09
4.03602e-11
1.72835e-10
8.89987e-10
9.24569e-11
-6.41868e-11
4.74875e-10
1.59423e-10
-4.21761e-10
1.50169e-10
2.06743e-10
-9.0726e-10
1.03353e-10
1.60463e-10
-1.36611e-09
3.42289e-10
1.59388e-11
-1.57722e-09
6.47603e-10
-9.00208e-11
-1.40788e-09
7.74241e-10
-2.60081e-11
-8.74583e-10
5.99008e-10
1.26622e-10
-2.56037e-10
2.45904e-10
3.18027e-10
-2.97197e-10
3.94805e-10
-3.98724e-10
2.00025e-09
-3.98724e-10
2.9687e-10
3.66397e-09
-2.79217e-10
8.11619e-10
2.95858e-09
-2.60441e-10
1.37536e-09
2.36846e-09
-2.17998e-10
1.87967e-09
1.5936e-09
-1.4678e-10
2.16895e-09
8.59021e-10
-5.68258e-11
2.11472e-09
3.60768e-10
1.63661e-11
1.72218e-09
1.90802e-10
4.25022e-11
1.13617e-09
2.94456e-10
2.05838e-11
5.492e-10
5.25426e-10
-1.39529e-11
1.39351e-10
7.26521e-10
-3.15353e-11
-2.47258e-11
7.81767e-10
-1.25505e-11
3.25023e-11
7.85538e-10
3.75616e-11
2.07876e-10
7.29818e-10
1.03489e-10
3.56668e-10
7.5659e-10
1.55585e-10
4.15979e-10
8.87704e-10
1.49919e-10
3.70693e-10
1.09111e-09
1.00653e-10
2.56613e-10
1.32615e-09
3.84281e-11
1.38159e-10
1.45685e-09
3.02463e-12
1.35716e-11
1.38404e-09
1.42443e-11
-1.57526e-10
1.13081e-09
5.76802e-11
-4.70234e-10
8.52597e-10
6.88489e-11
-9.11634e-10
7.1046e-10
-7.33737e-12
-1.33156e-09
7.24741e-10
-1.26629e-10
-1.54048e-09
7.38653e-10
-1.38358e-10
-1.38467e-09
6.19403e-10
-7.31838e-11
-9.19129e-10
3.20533e-10
8.54339e-11
-3.89865e-10
-2.2028e-11
2.68557e-10
-6.04258e-11
-1.21183e-10
3.21562e-10
-2.73713e-10
2.40565e-10
-1.64252e-10
2.50723e-09
-1.64252e-10
6.76446e-10
3.17881e-09
-4.0738e-11
1.30933e-09
2.59076e-09
-7.9021e-12
1.92198e-09
1.90553e-09
5.42296e-11
2.38675e-09
1.13798e-09
1.29507e-10
2.56924e-09
5.50098e-10
1.97512e-10
2.40756e-09
3.03544e-10
2.31827e-10
1.96733e-09
3.82332e-10
2.23416e-10
1.40977e-09
6.30348e-10
1.84877e-10
8.95744e-10
8.6238e-10
1.56188e-10
5.04888e-10
9.71689e-10
1.61567e-10
2.42475e-10
9.24909e-10
1.80252e-10
8.03382e-11
8.3923e-10
2.0847e-10
-3.86103e-11
7.69834e-10
2.01702e-10
-1.35338e-10
8.4141e-10
1.3991e-10
-2.34397e-10
1.05664e-09
5.45018e-11
-3.21423e-10
1.34137e-09
-3.78437e-11
-3.761e-10
1.62303e-09
-1.01604e-10
-4.19311e-10
1.79484e-09
-1.27221e-10
-5.1039e-10
1.79597e-09
-1.30251e-10
-7.25783e-10
1.68198e-09
-1.46345e-10
-1.06514e-09
1.54988e-09
-2.03565e-10
-1.39792e-09
1.4081e-09
-2.67111e-10
-1.54377e-09
1.18301e-09
-2.62353e-10
-1.38476e-09
7.9887e-10
-1.78252e-10
-9.87565e-10
3.11566e-10
-8.03487e-12
-5.50057e-10
-1.17401e-10
1.62521e-10
-2.67495e-10
-2.57692e-10
2.16119e-10
-1.32013e-10
-4.17836e-11
1.26803e-10
-2.36389e-10
7.7891e-11
1.12603e-10
2.46668e-09
1.12603e-10
1.02749e-09
2.28043e-09
2.38521e-10
1.74273e-09
1.75519e-09
3.05539e-10
2.33248e-09
1.05141e-09
3.90348e-10
2.66964e-09
4.13593e-10
4.54302e-10
2.68084e-09
8.31572e-11
4.74613e-10
2.4035e-09
1.24671e-10
4.47298e-10
1.96953e-09
4.32685e-10
3.73628e-10
1.50785e-09
8.16771e-10
2.91507e-10
1.08367e-09
1.11369e-09
2.36174e-10
7.07147e-10
1.24743e-09
2.1879e-10
3.54e-10
1.24438e-09
1.9791e-10
6.54356e-12
1.22917e-09
1.46356e-10
-3.00566e-10
1.19158e-09
7.32902e-11
-5.42577e-10
1.27074e-09
-1.82627e-11
-6.99819e-10
1.46418e-09
-1.02551e-10
-7.87388e-10
1.72416e-09
-1.56925e-10
-8.40794e-10
2.00193e-09
-1.81549e-10
-9.12274e-10
2.20846e-09
-1.89744e-10
-1.06633e-09
2.2976e-09
-2.05329e-10
-1.31308e-09
2.27371e-09
-2.46084e-10
-1.56086e-09
2.10523e-09
-2.77587e-10
-1.66177e-09
1.72975e-09
-2.54209e-10
-1.52377e-09
1.1368e-09
-1.47392e-10
-1.19977e-09
4.18921e-10
3.50689e-11
-8.5882e-10
-1.69192e-10
1.94737e-10
-6.13694e-10
-4.52155e-10
2.26954e-10
-4.34561e-10
-4.04372e-10
1.54247e-10
-2.09775e-10
-1.96103e-10
8.39955e-11
-5.52677e-10
8.84321e-11
3.89371e-10
1.82015e-09
3.89371e-10
1.39552e-09
8.88143e-10
5.48976e-10
2.14166e-09
4.69954e-10
6.45782e-10
2.62141e-09
-8.01525e-11
7.19111e-10
2.74699e-09
-4.14293e-10
7.38923e-10
2.55416e-09
-4.0361e-10
7.00931e-10
2.19786e-09
-5.14813e-11
5.58964e-10
1.81578e-09
4.68362e-10
3.99686e-10
1.46177e-09
9.85436e-10
2.82053e-10
1.12491e-09
1.38967e-09
2.06376e-10
7.55632e-10
1.64893e-09
1.5204e-10
3.36352e-10
1.77529e-09
8.76809e-11
-7.15585e-11
1.80784e-09
1.44041e-11
-4.4492e-10
1.78392e-09
-7.05897e-11
-7.18989e-10
1.78713e-09
-1.36953e-10
-9.02424e-10
1.89204e-09
-1.70607e-10
-1.03678e-09
2.10433e-09
-1.84151e-10
-1.16274e-09
2.37346e-09
-1.85273e-10
-1.32475e-09
2.61489e-09
-1.96052e-10
-1.52451e-09
2.72749e-09
-2.22843e-10
-1.72221e-09
2.63308e-09
-2.21976e-10
-1.81052e-09
2.23687e-09
-1.68029e-10
-1.72418e-09
1.53229e-09
-3.49003e-11
-1.50552e-09
6.56535e-10
1.57175e-10
-1.29722e-09
-1.27934e-10
3.19881e-10
-1.15599e-09
-6.13607e-10
3.67468e-10
-1.00577e-09
-7.86922e-10
2.83072e-10
-7.3458e-10
-7.97244e-10
1.78812e-10
-2.87415e-10
-8.69115e-10
1.69688e-10
-1.22948e-09
2.61902e-10
6.84208e-10
5.25406e-10
6.84208e-10
1.74473e-09
-8.99371e-10
8.64906e-10
2.43859e-09
-1.0653e-09
9.52121e-10
2.74032e-09
-1.28108e-09
9.96183e-10
2.65493e-09
-1.18332e-09
9.40048e-10
2.35503e-09
-7.64879e-10
7.42041e-10
2.00548e-09
-1.46288e-10
5.31273e-10
1.69926e-09
5.206e-10
3.58357e-10
1.43332e-09
1.14561e-09
2.33612e-10
1.14168e-09
1.68708e-09
1.40731e-10
7.78651e-10
2.10724e-09
5.30376e-11
3.61362e-10
2.35971e-09
-4.01405e-11
-4.93662e-11
2.43e-09
-1.24466e-10
-4.09646e-10
2.37314e-09
-1.85774e-10
-6.92468e-10
2.29343e-09
-2.10067e-10
-9.34988e-10
2.36122e-09
-2.19384e-10
-1.16383e-09
2.57029e-09
-2.19603e-10
-1.3906e-09
2.85366e-09
-2.31679e-10
-1.605e-09
3.07046e-09
-2.4398e-10
-1.78823e-09
3.06906e-09
-2.17528e-10
-1.88365e-09
2.73962e-09
-1.31285e-10
-1.8624e-09
2.04774e-09
2.6332e-11
-1.77279e-09
1.12427e-09
2.22805e-10
-1.71813e-09
2.14586e-10
3.88083e-10
-1.72068e-09
-5.02192e-10
4.70447e-10
-1.68567e-09
-9.56437e-10
4.39738e-10
-1.49761e-09
-1.22945e-09
3.54025e-10
-1.04555e-09
-1.53163e-09
3.01018e-10
-3.55894e-10
-1.96935e-09
3.68018e-10
-2.07998e-09
5.45493e-10
9.76114e-10
-1.35234e-09
9.76114e-10
1.98017e-09
-2.83708e-09
1.14186e-09
2.56315e-09
-2.65556e-09
1.19819e-09
2.72288e-09
-2.36263e-09
1.09594e-09
2.5672e-09
-1.78291e-09
9.00924e-10
2.27387e-09
-1.03581e-09
6.78787e-10
1.99402e-09
-2.50592e-10
4.74677e-10
1.76518e-09
5.15242e-10
3.12117e-10
1.53465e-09
1.26818e-09
1.80979e-10
1.2442e-09
1.9898e-09
5.44224e-11
8.8715e-10
2.58824e-09
-7.29226e-11
4.99937e-10
2.9574e-09
-1.84112e-10
1.27934e-10
3.05707e-09
-2.51815e-10
-2.14016e-10
2.99746e-09
-2.8538e-10
-5.57164e-10
2.95115e-09
-2.9796e-10
-8.99451e-10
3.04994e-09
-2.9145e-10
-1.23231e-09
3.28499e-09
-2.9367e-10
-1.51426e-09
3.51327e-09
-2.89081e-10
-1.72408e-09
3.56281e-09
-2.36102e-10
-1.85197e-09
3.30344e-09
-1.22473e-10
-1.90049e-09
2.68127e-09
5.36324e-11
-1.92876e-09
1.78439e-09
2.62825e-10
-2.00917e-09
7.91497e-10
4.64537e-10
-2.1662e-09
-7.1846e-11
5.77296e-10
-2.29036e-09
-7.96175e-10
5.79111e-10
-2.24093e-09
-1.41958e-09
5.38601e-10
-1.91474e-09
-2.00356e-09
5.15414e-10
-1.2576e-09
-2.69591e-09
5.49716e-10
-3.69671e-10
-3.44003e-09
6.86156e-10
-3.14201e-09
8.93686e-10
1.2159e-09
-3.64956e-09
1.2159e-09
2.05648e-09
-4.69132e-09
1.29611e-09
2.55846e-09
-4.11184e-09
1.19364e-09
2.71597e-09
-3.34725e-09
1.01561e-09
2.65469e-09
-2.39804e-09
8.01296e-10
2.50609e-09
-1.41068e-09
5.8962e-10
2.3392e-09
-4.6719e-10
4.09597e-10
2.13894e-09
4.70937e-10
2.52423e-10
1.87193e-09
1.44609e-09
9.31324e-11
1.54414e-09
2.39574e-09
-7.47011e-11
1.18502e-09
3.1622e-09
-2.14749e-10
8.33868e-10
3.60878e-09
-3.0182e-10
4.83321e-10
3.76597e-09
-3.47845e-10
8.9584e-11
3.7951e-09
-3.5807e-10
-3.63783e-10
3.85823e-09
-3.53818e-10
-8.35693e-10
4.021e-09
-3.4863e-10
-1.24562e-09
4.19949e-09
-3.36344e-10
-1.54908e-09
4.23604e-09
-2.8225e-10
-1.7499e-09
3.98262e-09
-1.46846e-10
-1.86878e-09
3.39344e-09
4.53982e-11
-1.99464e-09
2.54235e-09
2.75662e-10
-2.19975e-09
1.5561e-09
4.90919e-10
-2.48372e-09
5.35566e-10
6.53021e-10
-2.77378e-09
-3.72008e-10
7.10504e-10
-2.92173e-09
-1.27315e-09
6.88918e-10
-2.74588e-09
-2.27534e-09
6.77455e-10
-2.18867e-09
-3.33016e-09
7.55928e-10
-1.35605e-09
-4.39888e-09
9.13826e-10
-4.5094e-10
-5.28491e-09
1.0735e-09
-4.59748e-09
1.10592e-09
1.318e-09
-6.10699e-09
1.318e-09
2.07211e-09
-6.45666e-09
1.26095e-09
2.63031e-09
-5.5821e-09
1.08846e-09
2.96148e-09
-4.46835e-09
8.94258e-10
3.12773e-09
-3.22024e-09
6.94467e-10
3.17455e-09
-1.97643e-09
5.15058e-10
3.09334e-09
-7.51871e-10
3.48749e-10
2.86811e-09
5.15866e-10
1.71023e-10
2.53419e-09
1.81258e-09
-2.82243e-11
2.16253e-09
2.993e-09
-2.13875e-10
1.80493e-09
3.87754e-09
-3.4549e-10
1.44554e-09
4.40511e-09
-4.20292e-10