/*--------------------------------*- C++ -*----------------------------------*\
| =========                 |                                                 |
| \\      /  F ield         | OpenFOAM: The Open Source CFD Toolbox           |
|  \\    /   O peration     | Version:  2312                                  |
|   \\  /    A nd           | Website:  www.openfoam.com                      |
|    \\/     M anipulation  |                                                 |
\*---------------------------------------------------------------------------*/
FoamFile
{
    version     2.0;
    format      ascii;
    arch        "LSB;label=32;scalar=64";
    class       volVectorField;
    location    "0.489491";
    object      U;
}
// * * * * * * * * * * * * * * * * * * * * * * * * * * * * * * * * * * * * * //

dimensions      [0 1 -1 0 0 0 0];

internalField   nonuniform List<vector> 
90000
(
(1.07692e-06 -6.003e-07 1.07692e-06)
(-1.60542e-06 4.16034e-06 3.37232e-08)
(-6.10495e-06 3.32927e-06 -2.11881e-07)
(-7.74593e-06 2.81191e-06 -6.37056e-07)
(-8.91166e-06 2.26777e-06 -8.87225e-07)
(-9.01183e-06 1.52369e-06 -1.0381e-06)
(-8.14443e-06 7.31403e-07 -1.12484e-06)
(-6.63799e-06 1.48682e-07 -1.07884e-06)
(-4.99205e-06 -1.09158e-07 -9.20557e-07)
(-3.69639e-06 -3.47645e-08 -8.65142e-07)
(-2.94492e-06 2.72809e-07 -9.80484e-07)
(-2.5795e-06 6.72982e-07 -1.28475e-06)
(-2.2562e-06 9.682e-07 -1.72084e-06)
(-1.55621e-06 1.0335e-06 -2.14709e-06)
(-5.65889e-08 8.27199e-07 -2.45062e-06)
(2.40231e-06 4.09676e-07 -2.49821e-06)
(5.40452e-06 -7.99042e-08 -2.1928e-06)
(8.14024e-06 -4.2172e-07 -1.48687e-06)
(9.82475e-06 -3.87333e-07 -6.49587e-07)
(9.77845e-06 1.16265e-07 1.96553e-07)
(7.58324e-06 9.4178e-07 7.47573e-07)
(3.14831e-06 2.00526e-06 8.41347e-07)
(-3.06715e-06 2.9531e-06 5.73621e-07)
(-1.00644e-05 3.56698e-06 -1.63605e-07)
(-1.63312e-05 3.36326e-06 -1.3201e-06)
(-1.99274e-05 2.20983e-06 -2.48827e-06)
(-1.96476e-05 2.04368e-07 -3.26622e-06)
(-1.6409e-05 -1.98025e-06 -2.67391e-06)
(-9.99153e-06 -5.14344e-06 1.68551e-07)
(-2.81711e-06 -1.34368e-05 9.65497e-06)
(-8.96061e-07 2.82096e-06 -8.96062e-07)
(-2.19263e-06 1.08972e-05 -7.63729e-07)
(-2.9977e-06 8.89642e-06 -6.72364e-07)
(-3.69375e-06 7.56532e-06 -4.89819e-07)
(-4.25412e-06 5.95292e-06 -3.03806e-07)
(-4.64473e-06 3.97869e-06 -1.89427e-07)
(-4.83376e-06 2.02699e-06 -1.3293e-07)
(-4.81555e-06 5.37938e-07 -1.79361e-07)
(-4.64398e-06 -1.99314e-07 -3.88261e-07)
(-4.23874e-06 -2.6293e-07 -6.59418e-07)
(-3.50379e-06 9.56197e-08 -9.18657e-07)
(-2.41515e-06 6.0453e-07 -1.07279e-06)
(-9.91717e-07 8.90249e-07 -1.10832e-06)
(6.44634e-07 7.33272e-07 -1.03783e-06)
(2.30572e-06 2.00428e-07 -8.6099e-07)
(3.67763e-06 -5.17737e-07 -6.28964e-07)
(4.48307e-06 -1.06186e-06 -4.26072e-07)
(4.69286e-06 -9.80835e-07 -5.11939e-07)
(4.3173e-06 -1.61288e-08 -7.26236e-07)
(3.28452e-06 1.75283e-06 -1.09218e-06)
(1.86084e-06 3.9038e-06 -1.47528e-06)
(3.29055e-07 6.13526e-06 -1.57967e-06)
(-9.77122e-07 7.67859e-06 -1.50015e-06)
(-1.51849e-06 8.03129e-06 -1.15895e-06)
(-1.21432e-06 6.32497e-06 -3.83117e-07)
(2.16611e-08 2.51138e-06 4.50787e-07)
(2.80735e-06 -2.60823e-06 9.53706e-07)
(6.45743e-06 -6.08625e-06 6.03548e-07)
(3.90823e-06 -8.06112e-06 4.00533e-07)
(-1.35705e-07 -3.1167e-05 6.87297e-07)
(-8.73664e-07 8.32877e-06 -8.73664e-07)
(-5.6219e-07 1.39493e-05 -4.11267e-07)
(6.6576e-07 1.15393e-05 -1.79068e-07)
(6.65755e-07 9.89586e-06 1.24762e-07)
(1.88765e-07 7.83276e-06 3.36403e-07)
(-8.94307e-07 5.49425e-06 3.95126e-07)
(-2.32316e-06 3.27343e-06 2.7798e-07)
(-3.71115e-06 1.47757e-06 2.40128e-08)
(-4.66335e-06 2.60938e-07 -3.50019e-07)
(-4.79307e-06 -4.12287e-07 -6.95059e-07)
(-3.86574e-06 -7.88392e-07 -9.18326e-07)
(-2.05399e-06 -1.02234e-06 -9.0102e-07)
(1.72045e-07 -1.28485e-06 -6.72117e-07)
(2.23283e-06 -1.60906e-06 -2.99148e-07)
(3.51748e-06 -1.86635e-06 1.07608e-07)
(3.58742e-06 -1.8139e-06 3.24074e-07)
(2.49027e-06 -1.1267e-06 2.08655e-07)
(6.7179e-07 3.16344e-07 -2.33222e-07)
(-1.22122e-06 2.4879e-06 -9.40036e-07)
(-2.26365e-06 5.03657e-06 -1.69315e-06)
(-1.79166e-06 7.34941e-06 -2.26745e-06)
(3.56381e-07 8.98876e-06 -2.48906e-06)
(4.15424e-06 9.42294e-06 -2.23034e-06)
(8.93265e-06 8.13157e-06 -1.39836e-06)
(1.34575e-05 4.94578e-06 -3.15862e-08)
(1.6511e-05 -1.69243e-07 1.7975e-06)
(1.72363e-05 -5.70952e-06 3.17975e-06)
(1.80943e-05 -7.51897e-06 2.61794e-06)
(1.54658e-05 2.3432e-06 9.15959e-07)
(5.92677e-06 -2.29549e-05 -5.18655e-06)
(-4.39544e-07 1.02122e-05 -4.39544e-07)
(8.60261e-07 1.24763e-05 1.64562e-07)
(2.98848e-06 1.04918e-05 4.47338e-07)
(3.43558e-06 9.18677e-06 7.07912e-07)
(2.97787e-06 7.68706e-06 8.24248e-07)
(1.55929e-06 6.01229e-06 7.81919e-07)
(-4.36815e-07 4.27126e-06 5.81092e-07)
(-2.53044e-06 2.61317e-06 2.298e-07)
(-4.05717e-06 1.05335e-06 -1.43794e-07)
(-4.52788e-06 -3.65488e-07 -4.71915e-07)
(-3.80055e-06 -1.61692e-06 -6.40557e-07)
(-2.08561e-06 -2.65291e-06 -6.04893e-07)
(-2.2407e-08 -3.28795e-06 -3.53928e-07)
(1.64117e-06 -3.2999e-06 -2.24223e-08)
(2.34437e-06 -2.56255e-06 1.58901e-07)
(1.87609e-06 -1.0627e-06 1.71601e-07)
(3.45016e-07 1.10743e-06 -7.22814e-08)
(-1.59691e-06 3.61007e-06 -5.29574e-07)
(-3.00075e-06 6.07744e-06 -1.14188e-06)
(-2.97295e-06 8.01774e-06 -1.63137e-06)
(-9.51886e-07 9.05333e-06 -1.9741e-06)
(3.34707e-06 9.07361e-06 -1.99165e-06)
(9.32778e-06 7.95444e-06 -1.63894e-06)
(1.55012e-05 5.82415e-06 -8.8547e-07)
(2.0484e-05 3.2079e-06 1.99526e-07)
(2.24127e-05 1.66521e-07 1.32851e-06)
(1.96389e-05 -2.80826e-06 2.46136e-06)
(1.42678e-05 -4.49459e-06 2.91142e-06)
(9.89018e-06 1.32567e-05 1.63026e-06)
(4.1213e-06 -8.85213e-07 -4.12418e-06)
(2.05839e-07 9.29536e-06 2.05839e-07)
(2.1088e-06 7.28291e-06 7.92564e-07)
(4.37254e-06 6.41965e-06 9.92619e-07)
(4.98061e-06 5.97874e-06 1.09645e-06)
(4.58343e-06 5.63401e-06 1.07287e-06)
(3.2267e-06 5.15784e-06 9.10326e-07)
(1.24211e-06 4.40616e-06 6.73033e-07)
(-8.33118e-07 3.27299e-06 3.97239e-07)
(-2.47368e-06 1.77028e-06 1.19098e-07)
(-3.32522e-06 -4.15681e-08 -1.43177e-07)
(-3.33003e-06 -1.85629e-06 -2.65597e-07)
(-2.71573e-06 -3.32302e-06 -2.83134e-07)
(-1.86174e-06 -3.96112e-06 -2.62262e-07)
(-1.11669e-06 -3.41808e-06 -2.74407e-07)
(-8.56987e-07 -1.64974e-06 -3.8878e-07)
(-1.12376e-06 1.06474e-06 -5.67771e-07)
(-1.58239e-06 4.11592e-06 -8.01319e-07)
(-1.85925e-06 6.88217e-06 -1.00983e-06)
(-1.42257e-06 8.72046e-06 -1.07962e-06)
(2.61682e-07 9.20393e-06 -1.04261e-06)
(3.44361e-06 8.52404e-06 -9.00341e-07)
(7.87766e-06 6.9494e-06 -6.44512e-07)
(1.28441e-05 4.95816e-06 -1.84941e-07)
(1.71313e-05 3.42004e-06 2.09895e-07)
(1.9541e-05 3.21906e-06 1.59932e-07)
(1.93655e-05 4.49109e-06 -3.27767e-07)
(1.55164e-05 6.49025e-06 -1.20324e-06)
(7.32042e-06 6.17769e-06 -1.58895e-06)
(7.94825e-07 2.0686e-05 -2.5182e-06)
(-3.27614e-07 1.49127e-05 -5.24775e-06)
(7.01001e-07 5.76171e-06 7.01001e-07)
(2.60311e-06 1.77559e-07 1.08959e-06)
(4.31619e-06 7.7874e-07 1.13427e-06)
(4.91042e-06 1.45098e-06 1.02952e-06)
(4.77954e-06 2.47935e-06 8.27381e-07)
(3.99663e-06 3.44467e-06 5.88466e-07)
(2.7929e-06 3.97012e-06 3.58812e-07)
(1.42616e-06 3.75133e-06 2.2112e-07)
(3.5238e-08 2.69562e-06 1.28516e-07)
(-1.30018e-06 1.03777e-06 3.22145e-08)
(-2.49992e-06 -7.46961e-07 -6.39916e-08)
(-3.5507e-06 -2.09536e-06 -2.01481e-07)
(-4.3973e-06 -2.44812e-06 -4.38885e-07)
(-4.8689e-06 -1.50355e-06 -7.47408e-07)
(-4.83718e-06 6.34052e-07 -1.07143e-06)
(-4.13098e-06 3.51107e-06 -1.30466e-06)
(-2.67004e-06 6.32053e-06 -1.34676e-06)
(-5.86512e-07 8.17926e-06 -1.05629e-06)
(2.08587e-06 8.60907e-06 -6.13359e-07)
(5.23191e-06 7.60036e-06 -4.68614e-08)
(8.45347e-06 5.70215e-06 4.3714e-07)
(1.12614e-05 3.54945e-06 9.58247e-07)
(1.31475e-05 2.34987e-06 1.14904e-06)
(1.3669e-05 3.07523e-06 8.70668e-07)
(1.24393e-05 6.17596e-06 5.64669e-08)
(9.52429e-06 1.14446e-05 -1.30107e-06)
(5.69532e-06 1.83953e-05 -2.97766e-06)
(3.83845e-07 2.22424e-05 -4.14485e-06)
(-3.86945e-06 3.10111e-05 -4.87593e-06)
(-2.47373e-06 2.44003e-05 -5.44047e-06)
(6.48179e-07 1.18782e-06 6.48179e-07)
(1.85053e-06 -6.57694e-06 7.32671e-07)
(2.75401e-06 -4.50473e-06 5.33316e-07)
(3.32446e-06 -2.71462e-06 1.89726e-07)
(3.80986e-06 -4.24956e-07 -1.61599e-07)
(4.20385e-06 1.84888e-06 -4.09528e-07)
(4.38496e-06 3.57015e-06 -4.99336e-07)
(4.12334e-06 4.38122e-06 -4.31499e-07)
(3.19943e-06 4.19016e-06 -2.10896e-07)
(1.50968e-06 3.29025e-06 3.60355e-09)
(-8.84376e-07 2.18549e-06 4.74585e-08)
(-3.65325e-06 1.32512e-06 -1.48819e-07)
(-6.23561e-06 1.08023e-06 -4.97612e-07)
(-7.83202e-06 1.64391e-06 -9.15516e-07)
(-7.83668e-06 2.89709e-06 -1.24211e-06)
(-6.1997e-06 4.43658e-06 -1.2766e-06)
(-3.18447e-06 5.61467e-06 -1.00529e-06)
(6.86318e-07 5.79538e-06 -4.53934e-07)
(4.91883e-06 4.89418e-06 3.39746e-07)
(8.63426e-06 3.03266e-06 9.93259e-07)
(1.09765e-05 1.01698e-06 1.66892e-06)
(1.15739e-05 -8.12904e-08 1.88175e-06)
(1.03059e-05 9.22572e-07 1.59859e-06)
(7.58436e-06 4.66753e-06 8.40037e-07)
(3.86202e-06 1.08548e-05 -3.88168e-07)
(-2.52976e-07 1.86905e-05 -1.80694e-06)
(-3.34031e-06 2.74382e-05 -3.25733e-06)
(-5.19275e-06 3.33149e-05 -3.74323e-06)
(-5.33254e-06 3.82524e-05 -3.93344e-06)
(-2.38569e-06 2.7171e-05 -3.86369e-06)
(-2.25564e-07 -1.92644e-06 -2.25564e-07)
(-2.06868e-07 -1.09069e-05 -4.52877e-07)
(2.72802e-07 -7.66095e-06 -9.39269e-07)
(1.04936e-06 -5.17155e-06 -1.3884e-06)
(2.45482e-06 -2.15348e-06 -1.69593e-06)
(4.27891e-06 8.38124e-07 -1.73953e-06)
(6.01882e-06 3.38638e-06 -1.4758e-06)
(7.02875e-06 5.21256e-06 -1.02154e-06)
(6.75413e-06 6.24083e-06 -5.31364e-07)
(4.93342e-06 6.59125e-06 -5.13875e-08)
(1.71983e-06 6.45839e-06 1.7276e-07)
(-2.26665e-06 6.02914e-06 1.5315e-07)
(-6.01942e-06 5.38806e-06 -3.66729e-08)
(-8.45788e-06 4.64011e-06 -2.59322e-07)
(-8.87247e-06 3.81132e-06 -3.62926e-07)
(-7.2423e-06 2.78637e-06 -3.06124e-07)
(-3.9127e-06 1.49467e-06 1.10538e-07)
(4.56027e-07 -1.09551e-07 7.1885e-07)
(4.65618e-06 -1.8866e-06 1.36687e-06)
(7.62833e-06 -3.61233e-06 1.89373e-06)
(8.89159e-06 -4.41222e-06 2.08821e-06)
(8.07361e-06 -3.36694e-06 1.86229e-06)
(5.32438e-06 1.32309e-07 1.30361e-06)
(1.55744e-06 6.19801e-06 5.49836e-07)
(-2.18964e-06 1.42684e-05 -3.51696e-07)
(-5.17267e-06 2.27138e-05 -1.22387e-06)
(-6.5819e-06 3.03215e-05 -1.80298e-06)
(-6.15579e-06 3.50461e-05 -1.9378e-06)
(-3.63302e-06 3.69498e-05 -1.82916e-06)
(-8.83823e-07 2.43372e-05 -8.76874e-07)
(-1.74519e-06 -1.11267e-06 -1.74519e-06)
(-2.92983e-06 -1.18164e-05 -2.15953e-06)
(-2.23351e-06 -7.85735e-06 -2.63182e-06)
(-1.08213e-06 -5.45209e-06 -2.96192e-06)
(1.32607e-06 -2.56587e-06 -2.98109e-06)
(4.36958e-06 3.71539e-07 -2.68018e-06)
(7.32451e-06 3.22278e-06 -2.0627e-06)
(9.30347e-06 5.86419e-06 -1.27007e-06)
(9.63034e-06 8.12061e-06 -4.87112e-07)
(8.04888e-06 9.79319e-06 9.93805e-08)
(4.8387e-06 1.05439e-05 5.06776e-07)
(7.2248e-07 1.01941e-05 7.58423e-07)
(-3.28895e-06 8.6259e-06 8.97675e-07)
(-6.19946e-06 5.95545e-06 9.95788e-07)
(-7.50569e-06 2.59298e-06 1.13316e-06)
(-7.16104e-06 -1.0731e-06 1.27883e-06)
(-5.40394e-06 -4.54891e-06 1.49873e-06)
(-2.88757e-06 -7.42365e-06 1.73352e-06)
(-4.251e-07 -9.42831e-06 1.83463e-06)
(1.35015e-06 -1.02106e-05 1.64864e-06)
(2.02832e-06 -9.1623e-06 1.2763e-06)
(1.46451e-06 -5.98654e-06 8.39626e-07)
(-5.83752e-08 -7.07301e-07 3.81367e-07)
(-1.95413e-06 6.25121e-06 3.04834e-08)
(-3.72744e-06 1.3988e-05 -3.06317e-08)
(-4.81185e-06 2.11024e-05 6.81822e-08)
(-4.69291e-06 2.63593e-05 1.45715e-07)
(-3.40708e-06 2.88694e-05 4.62048e-07)
(-6.56592e-07 2.87e-05 8.99994e-07)
(5.91799e-07 1.81078e-05 1.29904e-06)
(-2.90825e-06 4.25351e-06 -2.90825e-06)
(-4.74709e-06 -1.00109e-05 -3.17011e-06)
(-3.7112e-06 -5.96195e-06 -3.41773e-06)
(-2.43829e-06 -4.41602e-06 -3.40207e-06)
(3.93422e-07 -2.51274e-06 -3.05101e-06)
(3.70573e-06 -2.86727e-07 -2.43589e-06)
(6.81338e-06 2.46069e-06 -1.62252e-06)
(8.97544e-06 5.70441e-06 -7.89724e-07)
(9.74745e-06 8.88891e-06 -9.78168e-08)
(9.00522e-06 1.15799e-05 4.64791e-07)
(6.94277e-06 1.29133e-05 8.9217e-07)
(4.02355e-06 1.22992e-05 1.27751e-06)
(8.59952e-07 9.64461e-06 1.68215e-06)
(-2.08467e-06 5.29834e-06 2.02373e-06)
(-4.59157e-06 4.11157e-08 2.26284e-06)
(-6.54948e-06 -5.18647e-06 2.33516e-06)
(-7.91628e-06 -9.71318e-06 2.21963e-06)
(-8.61554e-06 -1.29157e-05 1.6917e-06)
(-8.54536e-06 -1.44402e-05 9.11957e-07)
(-7.83612e-06 -1.40196e-05 8.44802e-08)
(-6.70862e-06 -1.18576e-05 -7.13143e-07)
(-5.35066e-06 -7.80446e-06 -1.1726e-06)
(-3.98236e-06 -2.18518e-06 -1.23114e-06)
(-2.85366e-06 4.20991e-06 -8.69589e-07)
(-1.93963e-06 1.04106e-05 -3.21655e-07)
(-1.05252e-06 1.56706e-05 2.99594e-07)
(8.00535e-09 1.89008e-05 9.55261e-07)
(1.11237e-06 1.98728e-05 1.44395e-06)
(2.28023e-06 1.92246e-05 1.60723e-06)
(1.48902e-06 1.20634e-05 1.45658e-06)
(-2.50486e-06 1.14462e-05 -2.50486e-06)
(-4.26597e-06 -7.62902e-06 -2.51203e-06)
(-3.68019e-06 -3.94943e-06 -2.38616e-06)
(-3.00121e-06 -3.75614e-06 -2.07625e-06)
(-1.23834e-06 -3.16001e-06 -1.5035e-06)
(7.25013e-07 -1.77488e-06 -8.57308e-07)
(2.59849e-06 7.60244e-07 -2.36288e-07)
(4.09733e-06 4.23896e-06 1.16247e-07)
(5.22068e-06 7.93812e-06 2.63841e-07)
(5.99292e-06 1.11032e-05 3.30687e-07)
(6.2674e-06 1.27256e-05 6.63411e-07)
(5.8411e-06 1.20017e-05 1.03776e-06)
(4.46396e-06 8.91757e-06 1.50204e-06)
(1.948e-06 4.16189e-06 1.88725e-06)
(-1.72321e-06 -1.2931e-06 2.02806e-06)
(-6.12753e-06 -6.32121e-06 1.77961e-06)
(-1.05565e-05 -1.04069e-05 1.07151e-06)
(-1.41262e-05 -1.30856e-05 1.72969e-08)
(-1.59839e-05 -1.42033e-05 -1.21619e-06)
(-1.5685e-05 -1.3605e-05 -2.27498e-06)
(-1.34061e-05 -1.18167e-05 -2.94863e-06)
(-9.87602e-06 -8.49185e-06 -3.05839e-06)
(-5.94178e-06 -3.93584e-06 -2.6994e-06)
(-2.31587e-06 1.19746e-06 -2.00282e-06)
(6.62417e-07 6.07807e-06 -1.11225e-06)
(2.91146e-06 9.98012e-06 -2.27675e-07)
(4.32762e-06 1.22868e-05 3.61439e-07)
(4.69852e-06 1.31662e-05 6.84716e-07)
(4.32297e-06 1.3343e-05 7.45421e-07)
(2.05682e-06 9.27301e-06 8.22325e-07)
(-1.93131e-07 1.5502e-05 -1.93131e-07)
(-1.38091e-06 -6.45721e-06 -2.50591e-08)
(-3.10506e-06 -3.47406e-06 4.41699e-07)
(-4.35575e-06 -4.4302e-06 7.32028e-07)
(-5.35419e-06 -4.7796e-06 1.19304e-06)
(-6.14476e-06 -3.89737e-06 1.27276e-06)
(-6.39325e-06 -1.52335e-06 9.84374e-07)
(-5.68924e-06 1.91283e-06 5.0934e-07)
(-3.75905e-06 5.62886e-06 -6.52588e-08)
(-7.65824e-07 8.66623e-06 -4.03707e-07)
(2.64757e-06 1.02745e-05 -4.13447e-07)
(5.35828e-06 9.99854e-06 -2.83477e-08)
(6.24273e-06 7.92739e-06 2.23517e-07)
(4.61594e-06 4.7056e-06 4.69563e-07)
(5.82858e-07 1.10187e-06 4.24385e-07)
(-5.12833e-06 -2.1339e-06 -1.03298e-07)
(-1.12352e-05 -4.78562e-06 -1.03258e-06)
(-1.61183e-05 -7.00193e-06 -2.05152e-06)
(-1.8554e-05 -8.73918e-06 -3.05426e-06)
(-1.80854e-05 -9.6659e-06 -3.63106e-06)
(-1.51597e-05 -9.64398e-06 -3.82733e-06)
(-1.07038e-05 -8.20588e-06 -3.50036e-06)
(-5.80424e-06 -5.33496e-06 -2.85963e-06)
(-1.38116e-06 -1.43476e-06 -2.13715e-06)
(2.19383e-06 2.72967e-06 -1.43192e-06)
(4.86732e-06 6.29585e-06 -8.27154e-07)
(6.58127e-06 8.80596e-06 -3.75998e-07)
(6.9885e-06 1.04376e-05 -1.94927e-09)
(6.36876e-06 1.16371e-05 4.68027e-07)
(3.0122e-06 1.01941e-05 1.39308e-06)
(3.09323e-06 1.09691e-05 3.09323e-06)
(2.03863e-06 -6.4895e-06 3.28238e-06)
(-3.85939e-06 -4.85088e-06 3.63021e-06)
(-7.90925e-06 -5.80579e-06 3.43533e-06)
(-1.22297e-05 -6.17054e-06 3.01001e-06)
(-1.58563e-05 -5.17983e-06 2.16904e-06)
(-1.78863e-05 -3.01498e-06 1.04958e-06)
(-1.74786e-05 -1.2665e-07 -1.18126e-07)
(-1.41703e-05 2.88347e-06 -1.02805e-06)
(-8.54418e-06 5.04412e-06 -1.56615e-06)
(-2.09391e-06 6.54353e-06 -1.61993e-06)
(3.40087e-06 7.40304e-06 -1.38216e-06)
(6.32676e-06 7.73572e-06 -1.02808e-06)
(5.90732e-06 7.74508e-06 -1.08168e-06)
(2.54606e-06 7.44019e-06 -1.42428e-06)
(-2.66905e-06 6.6312e-06 -1.84733e-06)
(-8.24719e-06 5.11194e-06 -2.36019e-06)
(-1.232e-05 2.3255e-06 -2.90132e-06)
(-1.39361e-05 -1.30972e-06 -3.09969e-06)
(-1.32814e-05 -4.75956e-06 -2.95633e-06)
(-1.08862e-05 -7.31348e-06 -2.54695e-06)
(-7.59702e-06 -8.00088e-06 -1.96772e-06)
(-4.24165e-06 -6.48313e-06 -1.44043e-06)
(-1.13164e-06 -3.31018e-06 -1.03633e-06)
(1.8533e-06 5.61767e-07 -7.11047e-07)
(4.72959e-06 4.15605e-06 -3.40001e-07)
(7.14248e-06 7.07285e-06 1.71722e-07)
(8.36299e-06 9.37671e-06 8.51438e-07)
(8.24955e-06 1.1289e-05 1.60574e-06)
(4.0126e-06 1.3108e-05 2.65473e-06)
(6.07642e-06 -2.68642e-06 6.07642e-06)
(4.08995e-06 -5.43467e-06 4.95926e-06)
(-6.65209e-06 -5.35102e-06 4.57788e-06)
(-1.2969e-05 -5.536e-06 3.87603e-06)
(-1.9544e-05 -5.07978e-06 2.79711e-06)
(-2.47481e-05 -3.83636e-06 1.40477e-06)
(-2.73368e-05 -2.29424e-06 1.20463e-08)
(-2.61586e-05 -9.55559e-07 -1.1782e-06)
(-2.11501e-05 5.87214e-08 -1.9479e-06)
(-1.36473e-05 7.08916e-07 -2.20874e-06)
(-5.54637e-06 2.2209e-06 -2.05533e-06)
(1.22754e-06 4.76216e-06 -1.79735e-06)
(5.31938e-06 8.19437e-06 -1.7175e-06)
(6.32257e-06 1.18674e-05 -1.82377e-06)
(4.73685e-06 1.47662e-05 -1.95801e-06)
(1.87718e-06 1.59024e-05 -2.22501e-06)
(-9.18177e-07 1.45243e-05 -2.27965e-06)
(-2.8562e-06 1.03322e-05 -1.96731e-06)
(-3.6207e-06 4.46026e-06 -1.32161e-06)
(-3.60136e-06 -1.58264e-06 -6.01581e-07)
(-3.36906e-06 -6.22778e-06 6.7254e-08)
(-3.20515e-06 -8.2645e-06 6.38316e-07)
(-2.99969e-06 -7.51629e-06 7.74606e-07)
(-2.02558e-06 -4.88986e-06 5.64219e-07)
(1.85592e-07 -1.5604e-06 5.03903e-07)
(3.216e-06 1.65059e-06 8.40068e-07)
(6.04601e-06 4.53811e-06 1.59428e-06)
(7.54208e-06 7.2581e-06 2.55575e-06)
(7.0199e-06 1.00294e-05 3.27044e-06)
(3.1325e-06 1.58621e-05 2.83828e-06)
(5.84346e-06 -1.83132e-05 5.84346e-06)
(2.03558e-06 -2.07126e-07 3.75921e-06)
(-1.07076e-05 -1.70018e-06 3.01892e-06)
(-1.75837e-05 -1.28252e-06 1.90315e-06)
(-2.40741e-05 -1.69116e-07 7.70845e-07)
(-2.84164e-05 4.62389e-07 -3.75469e-07)
(-2.96748e-05 1.72283e-07 -1.21651e-06)
(-2.71607e-05 -1.26759e-06 -1.62637e-06)
(-2.13205e-05 -3.1946e-06 -1.58563e-06)
(-1.38119e-05 -4.03425e-06 -1.5571e-06)
(-6.35916e-06 -2.39357e-06 -1.29336e-06)
(-3.77897e-07 2.05234e-06 -1.2318e-06)
(3.53727e-06 8.39959e-06 -1.39108e-06)
(5.71404e-06 1.49856e-05 -1.73565e-06)
(6.78724e-06 1.98394e-05 -1.85349e-06)
(7.42278e-06 2.16247e-05 -1.74706e-06)
(8.04617e-06 1.95751e-05 -1.18456e-06)
(8.44467e-06 1.3946e-05 -2.35811e-07)
(8.01083e-06 6.54376e-06 7.88586e-07)
(6.34119e-06 -6.65432e-07 1.68994e-06)
(3.43441e-06 -5.74412e-06 2.12686e-06)
(-4.39868e-08 -7.98849e-06 1.97709e-06)
(-2.66971e-06 -7.71276e-06 1.5097e-06)
(-3.2449e-06 -6.10338e-06 1.18224e-06)
(-1.65879e-06 -4.04886e-06 1.32561e-06)
(1.01889e-06 -1.72054e-06 1.8574e-06)
(3.24125e-06 1.18883e-06 2.45258e-06)
(3.73709e-06 4.99524e-06 2.6956e-06)
(1.90009e-06 9.79582e-06 2.01855e-06)
(1.70892e-07 1.81044e-05 3.0954e-07)
(2.4219e-06 -2.69177e-05 2.4219e-06)
(-2.6234e-06 9.89539e-06 5.64205e-07)
(-1.2851e-05 6.28643e-06 -3.36431e-07)
(-1.82385e-05 6.62229e-06 -1.27739e-06)
(-2.24417e-05 7.1288e-06 -1.80575e-06)
(-2.43118e-05 5.79553e-06 -1.78589e-06)
(-2.32579e-05 2.33992e-06 -1.55514e-06)
(-1.96857e-05 -2.49848e-06 -1.14017e-06)
(-1.464e-05 -6.73615e-06 -6.10232e-07)
(-9.50611e-06 -8.41102e-06 -3.04481e-07)
(-5.26293e-06 -6.15663e-06 -2.27525e-07)
(-2.02302e-06 -1.87564e-08 -5.21051e-07)
(7.6279e-07 8.16012e-06 -1.13476e-06)
(3.87913e-06 1.60719e-05 -1.61594e-06)
(7.58116e-06 2.13388e-05 -1.69834e-06)
(1.14843e-05 2.26748e-05 -1.29019e-06)
(1.48732e-05 1.98389e-05 -4.41048e-07)
(1.66148e-05 1.37506e-05 6.29768e-07)
(1.55112e-05 6.50577e-06 1.4672e-06)
(1.16368e-05 3.63299e-07 1.86221e-06)
(6.19988e-06 -3.59777e-06 1.61185e-06)
(8.82899e-07 -5.46729e-06 1.04509e-06)
(-2.57748e-06 -6.00782e-06 6.42435e-07)
(-3.5146e-06 -6.1088e-06 6.52673e-07)
(-2.69949e-06 -5.6303e-06 1.02785e-06)
(-1.76851e-06 -3.73087e-06 1.38703e-06)
(-2.06869e-06 2.55684e-07 1.24875e-06)
(-3.78596e-06 6.30646e-06 3.36655e-07)
(-5.98133e-06 1.32875e-05 -1.30428e-06)
(-3.58549e-06 1.84206e-05 -2.23585e-06)
(-2.12393e-06 -2.37658e-05 -2.12393e-06)
(-7.11477e-06 2.22067e-05 -3.1819e-06)
(-1.14426e-05 1.61622e-05 -3.12264e-06)
(-1.36946e-05 1.54248e-05 -3.2954e-06)
(-1.42728e-05 1.37401e-05 -2.79912e-06)
(-1.28313e-05 9.37927e-06 -2.13188e-06)
(-9.92121e-06 2.79596e-06 -1.25032e-06)
(-6.87378e-06 -4.20512e-06 -3.63058e-07)
(-4.6828e-06 -9.23608e-06 1.90329e-07)
(-3.79335e-06 -1.05559e-05 3.72541e-07)
(-3.90469e-06 -7.25903e-06 2.35386e-08)
(-3.71848e-06 -1.80199e-07 -8.27259e-07)
(-1.99484e-06 8.25671e-06 -1.63027e-06)
(1.79876e-06 1.55714e-05 -2.07119e-06)
(7.22288e-06 1.98145e-05 -1.88139e-06)
(1.29835e-05 2.03895e-05 -1.13663e-06)
(1.74537e-05 1.75909e-05 -3.94461e-07)
(1.89197e-05 1.2794e-05 3.13911e-07)
(1.6715e-05 7.62646e-06 6.50692e-07)
(1.18437e-05 3.67839e-06 5.21124e-07)
(6.06462e-06 1.11256e-06 7.84831e-08)
(1.14831e-06 -1.03186e-06 -1.17595e-07)
(-1.81722e-06 -3.17109e-06 3.12066e-08)
(-3.16821e-06 -5.02494e-06 4.50956e-07)
(-4.28549e-06 -5.1577e-06 7.33563e-07)
(-6.30228e-06 -2.36631e-06 4.56674e-07)
(-9.06335e-06 3.40153e-06 -5.25628e-07)
(-1.11768e-05 1.09426e-05 -1.77677e-06)
(-1.09062e-05 1.68006e-05 -2.17067e-06)
(-5.08991e-06 1.40729e-05 -1.92247e-06)
(-4.87075e-06 -1.10444e-05 -4.87075e-06)
(-8.49649e-06 3.23412e-05 -4.15321e-06)
(-6.86892e-06 2.42213e-05 -3.75223e-06)
(-5.35703e-06 2.18818e-05 -3.6326e-06)
(-2.53349e-06 1.7391e-05 -2.90738e-06)
(1.06566e-06 1.04121e-05 -1.98394e-06)
(4.28207e-06 2.33432e-06 -8.81848e-07)
(5.59859e-06 -4.71542e-06 -1.16586e-07)
(4.33404e-06 -8.85074e-06 1.68802e-07)
(1.11296e-06 -8.76545e-06 -7.44151e-08)
(-2.4755e-06 -4.61672e-06 -7.64875e-07)
(-4.37561e-06 2.02952e-06 -1.52485e-06)
(-3.26485e-06 8.78074e-06 -2.07015e-06)
(7.3122e-07 1.39604e-05 -2.05413e-06)
(6.48199e-06 1.65508e-05 -1.46814e-06)
(1.21896e-05 1.66708e-05 -7.15583e-07)
(1.5956e-05 1.49085e-05 -7.92652e-08)
(1.63591e-05 1.24602e-05 2.53586e-07)
(1.35506e-05 1.01291e-05 1.55686e-07)
(9.23745e-06 8.16765e-06 -2.8008e-08)
(4.85042e-06 5.85851e-06 -2.79212e-08)
(1.38214e-06 2.57361e-06 1.95157e-07)
(-1.09202e-06 -1.05515e-06 6.58899e-07)
(-3.71748e-06 -3.40321e-06 9.53496e-07)
(-7.33953e-06 -2.68806e-06 6.93139e-07)
(-1.14495e-05 1.45202e-06 -1.46519e-07)
(-1.43289e-05 7.69261e-06 -1.08646e-06)
(-1.40676e-05 1.31738e-05 -1.07965e-06)
(-9.96484e-06 1.44678e-05 -3.22719e-07)
(-3.58925e-06 6.21582e-06 6.19083e-07)
(-4.92651e-06 4.07095e-06 -4.92651e-06)
(-5.87192e-06 3.73253e-05 -3.73568e-06)
(-1.47741e-07 2.86447e-05 -3.46531e-06)
(3.80111e-06 2.47063e-05 -3.11332e-06)
(8.38249e-06 1.81701e-05 -2.37322e-06)
(1.25912e-05 1.01747e-05 -1.42145e-06)
(1.49744e-05 2.48101e-06 -6.18384e-07)
(1.42898e-05 -2.95506e-06 -1.81392e-07)
(1.04655e-05 -4.9485e-06 -1.87288e-07)
(4.86696e-06 -3.4101e-06 -5.2065e-07)
(-2.40029e-07 6.05562e-07 -9.65303e-07)
(-2.78806e-06 5.29585e-06 -1.20118e-06)
(-2.16107e-06 8.97489e-06 -1.1743e-06)
(9.5445e-07 1.13753e-05 -7.80735e-07)
(5.25792e-06 1.24424e-05 -2.22353e-07)
(9.08131e-06 1.26423e-05 3.0171e-07)
(1.09796e-05 1.23947e-05 5.27812e-07)
(1.04802e-05 1.2296e-05 4.99386e-07)
(8.32977e-06 1.21966e-05 3.53161e-07)
(5.47964e-06 1.11368e-05 3.3419e-07)
(2.82515e-06 8.34905e-06 6.05531e-07)
(4.95784e-07 4.26811e-06 9.5426e-07)
(-2.47827e-06 5.719e-07 1.19992e-06)
(-6.7128e-06 -6.90066e-07 9.30624e-07)
(-1.14735e-05 1.27389e-06 1.42193e-07)
(-1.48639e-05 5.20193e-06 -4.40685e-07)
(-1.50879e-05 8.77257e-06 -1.36043e-07)
(-1.15228e-05 9.47737e-06 6.43234e-07)
(-5.61449e-06 6.94068e-06 1.6517e-06)
(-1.28365e-06 -5.01804e-07 2.0421e-06)
(-3.51616e-06 1.57563e-05 -3.51616e-06)
(-2.00985e-06 3.76708e-05 -2.28316e-06)
(5.6151e-06 2.99401e-05 -2.08941e-06)
(1.09671e-05 2.46215e-05 -1.71783e-06)
(1.63736e-05 1.71112e-05 -1.12453e-06)
(2.04179e-05 9.37448e-06 -4.52053e-07)
(2.16279e-05 3.30736e-06 6.2037e-08)
(1.93603e-05 3.06469e-07 2.59334e-07)
(1.43931e-05 4.68166e-07 1.71485e-07)
(8.45783e-06 2.70309e-06 4.98684e-09)
(3.43087e-06 5.49413e-06 -7.99675e-08)
(5.48586e-07 7.587e-06 2.41271e-08)
(2.25272e-08 8.37545e-06 2.88768e-07)
(1.2021e-06 8.56755e-06 6.32721e-07)
(2.84447e-06 8.73459e-06 9.00281e-07)
(3.90628e-06 9.57097e-06 8.72996e-07)
(3.9611e-06 1.09989e-05 6.23079e-07)
(3.12966e-06 1.27286e-05 3.06153e-07)
(1.94814e-06 1.37263e-05 1.25125e-07)
(7.21101e-07 1.28436e-05 1.78631e-07)
(-7.6356e-07 1.01163e-05 3.89879e-07)
(-3.1932e-06 6.65825e-06 4.31296e-07)
(-6.98703e-06 4.35768e-06 2.9085e-08)
(-1.1327e-05 4.25005e-06 -6.10763e-07)
(-1.45081e-05 5.58192e-06 -7.10572e-07)
(-1.47863e-05 6.56378e-06 -4.23825e-07)
(-1.16321e-05 5.68185e-06 4.09437e-07)
(-6.57588e-06 3.00824e-06 1.40489e-06)
(-2.1956e-06 6.69988e-07 1.69905e-06)
(-3.13297e-07 -2.83704e-06 1.2761e-06)
(-1.44498e-06 2.29015e-05 -1.44498e-06)
(1.91126e-06 3.45679e-05 -6.05748e-07)
(9.99867e-06 2.8097e-05 -3.94316e-07)
(1.62302e-05 2.16759e-05 1.62659e-08)
(2.16898e-05 1.38982e-05 5.28355e-07)
(2.49822e-05 7.23182e-06 9.92817e-07)
(2.50893e-05 3.48808e-06 1.24205e-06)
(2.20308e-05 3.04401e-06 1.23654e-06)
(1.69796e-05 4.8236e-06 1.06134e-06)
(1.15793e-05 7.1404e-06 9.33869e-07)
(7.03456e-06 8.65767e-06 9.79223e-07)
(3.75884e-06 8.77207e-06 1.08778e-06)
(1.62742e-06 7.99318e-06 1.23533e-06)
(2.11205e-07 7.35884e-06 1.19437e-06)
(-8.75059e-07 7.69474e-06 8.62293e-07)
(-1.85741e-06 9.40567e-06 4.1363e-07)
(-2.79521e-06 1.20723e-05 -6.42218e-08)
(-3.51765e-06 1.47351e-05 -4.00329e-07)
(-4.01949e-06 1.62376e-05 -5.4832e-07)
(-4.69988e-06 1.58852e-05 -5.84082e-07)
(-6.24392e-06 1.41038e-05 -6.9001e-07)
(-9.03918e-06 1.21022e-05 -1.03124e-06)
(-1.24303e-05 1.07498e-05 -1.45424e-06)
(-1.48522e-05 9.75544e-06 -1.54544e-06)
(-1.47955e-05 7.93101e-06 -1.14556e-06)
(-1.19862e-05 4.87373e-06 -1.86038e-07)
(-7.75164e-06 1.17148e-06 8.01298e-07)
(-4.09305e-06 -1.30371e-06 1.14078e-06)
(-1.94274e-06 -7.31376e-07 6.96834e-07)
(-6.92777e-07 -2.44618e-06 4.02279e-07)
(2.73296e-07 2.52613e-05 2.73296e-07)
(5.36506e-06 2.77066e-05 1.02956e-06)
(1.3958e-05 2.21155e-05 1.44406e-06)
(2.05162e-05 1.50934e-05 1.96655e-06)
(2.52114e-05 7.98395e-06 2.37106e-06)
(2.69684e-05 3.34352e-06 2.52846e-06)
(2.56027e-05 2.30636e-06 2.42444e-06)
(2.19961e-05 4.25061e-06 2.07574e-06)
(1.74858e-05 7.41323e-06 1.67514e-06)
(1.30446e-05 1.00259e-05 1.40796e-06)
(9.03294e-06 1.11788e-05 1.33444e-06)
(5.36757e-06 1.08408e-05 1.23008e-06)
(1.83723e-06 9.98059e-06 9.53261e-07)
(-1.46422e-06 9.65638e-06 5.59792e-07)
(-4.22894e-06 1.04361e-05 7.755e-08)
(-6.23416e-06 1.24654e-05 -3.618e-07)
(-7.46826e-06 1.53166e-05 -6.53274e-07)
(-8.19009e-06 1.81525e-05 -8.01814e-07)
(-8.8322e-06 2.00522e-05 -8.74017e-07)
(-9.97482e-06 2.05539e-05 -9.93367e-07)
(-1.19954e-05 1.99457e-05 -1.26213e-06)
(-1.44881e-05 1.85145e-05 -1.51128e-06)
(-1.62511e-05 1.5983e-05 -1.46825e-06)
(-1.60759e-05 1.1909e-05 -9.33039e-07)
(-1.37561e-05 6.36761e-06 6.01699e-08)
(-1.03956e-05 9.32099e-07 9.58112e-07)
(-7.41655e-06 -2.67862e-06 1.16983e-06)
(-5.27164e-06 -3.14297e-06 8.05129e-07)
(-3.22108e-06 -9.49864e-07 3.94596e-07)
(-1.13818e-06 -3.69917e-06 3.74028e-07)
(1.85705e-06 2.19112e-05 1.85705e-06)
(8.79232e-06 1.62949e-05 2.78873e-06)
(1.78711e-05 1.15059e-05 3.35666e-06)
(2.4038e-05 5.13659e-06 3.78484e-06)
(2.70866e-05 1.98329e-07 3.9346e-06)
(2.67107e-05 -1.4389e-06 3.79641e-06)
(2.39094e-05 5.25507e-07 3.08793e-06)
(2.01886e-05 4.67053e-06 2.26789e-06)
(1.65078e-05 9.16653e-06 1.66441e-06)
(1.30625e-05 1.2641e-05 1.28063e-06)
(9.5268e-06 1.45667e-05 1.00503e-06)
(5.55483e-06 1.5124e-05 6.704e-07)
(1.37905e-06 1.50006e-05 2.87484e-07)
(-2.54714e-06 1.48902e-05 -1.5196e-07)
(-5.80051e-06 1.53198e-05 -4.94086e-07)
(-8.12044e-06 1.68103e-05 -6.70232e-07)
(-9.74124e-06 1.92189e-05 -7.52967e-07)
(-1.10746e-05 2.19823e-05 -7.81837e-07)
(-1.25418e-05 2.42685e-05 -8.67474e-07)
(-1.43682e-05 2.53867e-05 -1.04154e-06)
(-1.63663e-05 2.48356e-05 -1.08064e-06)
(-1.78037e-05 2.20517e-05 -8.34034e-07)
(-1.7821e-05 1.66499e-05 -1.56361e-07)
(-1.62997e-05 9.27195e-06 8.44256e-07)
(-1.41521e-05 1.71217e-06 1.69682e-06)
(-1.23737e-05 -3.6979e-06 1.95447e-06)
(-1.08999e-05 -5.9784e-06 1.51681e-06)
(-8.80983e-06 -5.71659e-06 9.26762e-07)
(-5.14801e-06 -4.91971e-06 8.12535e-07)
(-1.54541e-06 -8.56001e-06 1.2946e-06)
(3.50622e-06 1.22699e-05 3.50622e-06)
(1.21925e-05 3.57089e-07 4.53273e-06)
(2.11883e-05 -2.64408e-06 5.04016e-06)
(2.61777e-05 -6.56369e-06 5.34387e-06)
(2.72266e-05 -7.79576e-06 5.12569e-06)
(2.52351e-05 -5.66205e-06 4.09924e-06)
(2.19483e-05 -7.96387e-07 2.98648e-06)
(1.86692e-05 5.14264e-06 2.07827e-06)
(1.58325e-05 1.08383e-05 1.43302e-06)
(1.3059e-05 1.55427e-05 9.60538e-07)
(9.76974e-06 1.89261e-05 5.1647e-07)
(5.82879e-06 2.08113e-05 4.37433e-08)
(1.65007e-06 2.13287e-05 -3.83156e-07)
(-2.224e-06 2.09324e-05 -6.90053e-07)
(-5.4677e-06 2.06621e-05 -8.0828e-07)
(-8.14824e-06 2.14277e-05 -8.58129e-07)
(-1.0562e-05 2.35254e-05 -8.72507e-07)
(-1.28888e-05 2.63172e-05 -9.55771e-07)
(-1.51259e-05 2.86743e-05 -1.04307e-06)
(-1.71254e-05 2.9357e-05 -9.32149e-07)
(-1.85189e-05 2.72109e-05 -5.04685e-07)
(-1.88928e-05 2.17517e-05 2.97041e-07)
(-1.835e-05 1.35833e-05 1.29708e-06)
(-1.76347e-05 4.62406e-06 2.13608e-06)
(-1.73568e-05 -2.90975e-06 2.55788e-06)
(-1.71782e-05 -7.60979e-06 2.40348e-06)
(-1.609e-05 -9.77612e-06 1.93359e-06)
(-1.29103e-05 -1.12232e-05 1.58713e-06)
(-7.02903e-06 -1.37026e-05 1.91218e-06)
(-1.85944e-06 -1.61745e-05 2.823e-06)
(5.09139e-06 -3.61867e-06 5.09139e-06)
(1.49262e-05 -1.83519e-05 6.11304e-06)
(2.3021e-05 -1.83262e-05 6.50572e-06)
(2.67325e-05 -1.79751e-05 6.00905e-06)
(2.67121e-05 -1.45871e-05 4.98686e-06)
(2.4444e-05 -8.73893e-06 3.80271e-06)
(2.16098e-05 -1.7124e-06 2.72274e-06)
(1.91177e-05 5.43248e-06 1.87931e-06)
(1.68373e-05 1.2292e-05 1.21194e-06)
(1.42065e-05 1.85895e-05 5.71983e-07)
(1.09156e-05 2.36868e-05 -6.96505e-08)
(7.13716e-06 2.68282e-05 -6.28368e-07)
(3.2977e-06 2.76607e-05 -9.61509e-07)
(-3.04009e-07 2.70526e-05 -1.12014e-06)
(-3.79827e-06 2.65381e-05 -1.17678e-06)
(-7.31512e-06 2.72782e-05 -1.14967e-06)
(-1.07635e-05 2.94852e-05 -1.17579e-06)
(-1.38974e-05 3.20773e-05 -1.1686e-06)
(-1.63853e-05 3.34801e-05 -9.13046e-07)
(-1.8082e-05 3.22099e-05 -3.42673e-07)
(-1.89761e-05 2.74146e-05 5.48452e-07)
(-1.93899e-05 1.94544e-05 1.6026e-06)
(-1.99644e-05 9.865e-06 2.62283e-06)
(-2.11616e-05 9.88242e-07 3.20499e-06)
(-2.25522e-05 -6.2206e-06 3.22417e-06)