/*--------------------------------*- C++ -*----------------------------------*\
| =========                 |                                                 |
| \\      /  F ield         | OpenFOAM: The Open Source CFD Toolbox           |
|  \\    /   O peration     | Version:  2312                                  |
|   \\  /    A nd           | Website:  www.openfoam.com                      |
|    \\/     M anipulation  |                                                 |
\*---------------------------------------------------------------------------*/
FoamFile
{
    version     2.0;
    format      ascii;
    arch        "LSB;label=32;scalar=64";
    class       surfaceScalarField;
    location    "0.198545";
    object      alphaPhi0.water;
}
// * * * * * * * * * * * * * * * * * * * * * * * * * * * * * * * * * * * * * //

dimensions      [0 3 -1 0 0 0 0];

oriented        oriented;

internalField   nonuniform List<scalar> 
263100
(
-4.41162e-11
8.82329e-11
-4.41162e-11
-8.45959e-11
1.57868e-10
-4.62301e-11
-1.22192e-10
1.3885e-10
-4.32402e-11
-1.56045e-10
1.26071e-10
-4.47586e-11
-1.87631e-10
1.08617e-10
-4.56637e-11
-2.13427e-10
8.55662e-11
-4.80742e-11
-2.30913e-10
6.08631e-11
-5.10503e-11
-2.37815e-10
3.82686e-11
-5.40787e-11
-2.3335e-10
2.05001e-11
-5.56356e-11
-2.17582e-10
7.39559e-12
-5.42592e-11
-1.94852e-10
2.76555e-12
-5.15541e-11
-1.66831e-10
-4.42059e-13
-4.70385e-11
-1.35621e-10
-6.13437e-12
-4.06816e-11
-1.03809e-10
-1.6257e-11
-3.31662e-11
-7.27755e-11
-3.06529e-11
-2.65016e-11
-4.40407e-11
-4.47417e-11
-2.28675e-11
-1.63108e-11
-5.70455e-11
-2.19221e-11
1.25166e-11
-6.01924e-11
-2.62056e-11
4.70269e-11
-5.10458e-11
-3.64932e-11
9.46652e-11
-3.0493e-11
-5.25036e-11
1.59305e-10
5.19404e-13
-7.13577e-11
2.43262e-10
3.26491e-11
-8.82259e-11
3.39384e-10
5.95932e-11
-9.73325e-11
4.32257e-10
7.43601e-11
-9.56221e-11
4.99813e-10
7.24726e-11
-8.33478e-11
5.16683e-10
5.38942e-11
-6.37496e-11
4.64945e-10
2.22966e-11
-4.57903e-11
3.46286e-10
-2.61919e-11
-3.21748e-11
1.87529e-10
-1.21184e-10
3.97915e-12
-1.13499e-10
-4.52729e-11
-6.12724e-11
2.84291e-10
-6.12724e-11
-8.03462e-11
3.32772e-10
-5.25706e-11
-1.1077e-10
2.99461e-10
-4.96579e-11
-1.41493e-10
2.5956e-10
-4.81081e-11
-1.70097e-10
2.06949e-10
-4.69346e-11
-1.95838e-10
1.48445e-10
-4.65438e-11
-2.16324e-10
9.26317e-11
-4.69643e-11
-2.28138e-10
4.71191e-11
-4.86404e-11
-2.30406e-10
1.69804e-11
-5.0379e-11
-2.20967e-10
-4.23505e-12
-5.00155e-11
-1.98019e-10
-2.04473e-11
-4.50955e-11
-1.67689e-10
-3.42505e-11
-3.84741e-11
-1.33137e-10
-5.77645e-11
-2.9426e-11
-1.00215e-10
-8.863e-11
-2.03559e-11
-7.2017e-11
-1.23572e-10
-1.35563e-11
-4.78315e-11
-1.52813e-10
-1.09412e-11
-2.61875e-11
-1.64878e-10
-1.4864e-11
-6.41493e-13
-1.50299e-10
-2.55361e-11
3.53485e-11
-1.04952e-10
-4.1394e-11
8.99125e-11
-3.91377e-11
-5.80618e-11
1.65791e-10
4.02549e-11
-7.42496e-11
2.62071e-10
1.0573e-10
-8.3688e-11
3.68336e-10
1.42113e-10
-8.6203e-11
4.65722e-10
1.34827e-10
-8.21007e-11
5.29093e-10
7.72995e-11
-7.18148e-11
5.37706e-10
-2.43044e-11
-6.18342e-11
4.85854e-10
-1.51695e-10
-6.20284e-11
3.44083e-10
-2.32151e-10
-9.23934e-11
1.33691e-10
-3.53067e-10
-1.09746e-10
-2.83015e-10
-1.73815e-10
-5.4276e-11
4.49369e-10
-5.4276e-11
-8.21491e-11
4.76225e-10
-4.94473e-11
-1.16613e-10
4.31208e-10
-4.79952e-11
-1.49365e-10
3.69548e-10
-4.86518e-11
-1.79859e-10
2.91492e-10
-4.99529e-11
-2.06799e-10
2.07594e-10
-5.23392e-11
-2.2792e-10
1.28522e-10
-5.50317e-11
-2.40439e-10
6.14484e-11
-5.58677e-11
-2.41289e-10
9.94617e-12
-5.36387e-11
-2.33719e-10
-2.46794e-11
-5.19039e-11
-2.13521e-10
-6.06089e-11
-4.70384e-11
-1.84991e-10
-9.38111e-11
-3.98985e-11
-1.53156e-10
-1.33852e-10
-3.33085e-11
-1.2112e-10
-1.7764e-10
-2.85029e-11
-9.15658e-11
-2.17084e-10
-2.72675e-11
-6.26917e-11
-2.41812e-10
-3.04188e-11
-3.03864e-11
-2.39545e-10
-3.76252e-11
1.02297e-11
-2.01927e-10
-4.7419e-11
6.47808e-11
-1.29772e-10
-5.76374e-11
1.32656e-10
-3.3786e-11
-6.68376e-11
2.15948e-10
6.44958e-11
-7.0709e-11
3.04247e-10
1.45874e-10
-7.38475e-11
3.85465e-10
1.87111e-10
-7.48366e-11
4.43741e-10
1.73054e-10
-7.51052e-11
4.60946e-10
1.0166e-10
-7.76475e-11
4.20032e-10
-1.41213e-11
-8.36665e-11
3.12296e-10
-1.42848e-10
-9.95881e-11
1.99531e-10
-2.61766e-10
-1.24514e-10
3.3144e-11
-3.7093e-10
-1.14269e-10
-3.08851e-10
-1.51247e-10
-5.3707e-11
5.9547e-10
-5.3707e-11
-9.90053e-11
5.8742e-10
-5.00878e-11
-1.45891e-10
5.34112e-10
-5.08523e-11
-1.87606e-10
4.55852e-10
-5.38436e-11
-2.22942e-10
3.60198e-10
-5.76932e-11
-2.50795e-10
2.58579e-10
-6.16764e-11
-2.7023e-10
1.61585e-10
-6.48928e-11
-2.81041e-10
7.5974e-11
-6.63706e-11
-2.81859e-10
3.35985e-12
-6.60033e-11
-2.70043e-10
-5.80564e-11
-6.24868e-11
-2.54484e-10
-1.09886e-10
-6.05374e-11
-2.28602e-10
-1.65467e-10
-5.66331e-11
-1.97629e-10
-2.15058e-10
-5.55704e-11
-1.60779e-10
-2.59423e-10
-5.65943e-11
-1.18672e-10
-2.85641e-10
-6.12911e-11
-6.85176e-11
-2.89114e-10
-6.77421e-11
-7.48322e-12
-2.63827e-10
-7.29688e-11
6.43044e-11
-2.0567e-10
-7.53299e-11
1.42767e-10
-1.18339e-10
-7.4389e-11
2.2413e-10
-1.94138e-11
-6.88426e-11
2.95912e-10
8.03117e-11
-6.31868e-11
3.49844e-10
1.59769e-10
-5.87273e-11
3.78425e-10
2.03107e-10
-5.96183e-11
3.77257e-10
2.00574e-10
-6.86946e-11
3.44041e-10
1.54079e-10
-8.59595e-11
2.80892e-10
7.68031e-11
-1.10428e-10
2.02255e-10
-8.78202e-12
-1.40669e-10
1.16235e-10
-7.88729e-11
-1.67718e-10
-1.20889e-12
-1.19964e-10
-1.70474e-10
-1.04121e-10
-1.68533e-10
-5.42478e-11
7.10721e-10
-5.42478e-11
-1.30144e-10
6.6693e-10
-5.61383e-11
-1.97159e-10
6.07776e-10
-5.97809e-11
-2.53023e-10
5.21161e-10
-6.56181e-11
-2.96285e-10
4.19265e-10
-7.19775e-11
-3.2633e-10
3.11237e-10
-7.78502e-11
-3.44433e-10
2.05638e-10
-8.23328e-11
-3.52528e-10
1.07011e-10
-8.49777e-11
-3.49735e-10
1.28228e-11
-8.51065e-11
-3.38126e-10
-7.27004e-11
-8.3949e-11
-3.16186e-10
-1.49697e-10
-8.23215e-11
-2.88683e-10
-2.15704e-10
-8.40725e-11
-2.49132e-10
-2.69351e-10
-8.68554e-11
-1.98359e-10
-2.99075e-10
-9.29662e-11
-1.31597e-10
-3.0304e-10
-9.8389e-11
-4.80987e-11
-2.80295e-10
-1.0157e-10
4.91029e-11
-2.32445e-10
-1.0073e-10
1.53281e-10
-1.64835e-10
-9.31885e-11
2.52322e-10
-8.28935e-11
-7.96493e-11
3.32188e-10
-3.3911e-13
-6.40998e-11
3.81018e-10
7.86503e-11
-5.00634e-11
3.91089e-10
1.4607e-10
-4.3058e-11
3.63409e-10
1.95716e-10
-4.66149e-11
3.06369e-10
2.25597e-10
-6.24078e-11
2.32978e-10
2.37469e-10
-8.69282e-11
1.57724e-10
2.37294e-10
-1.14341e-10
9.59586e-11
2.32996e-10
-1.39083e-10
4.90185e-11
2.40407e-10
-1.54053e-10
1.90422e-11
2.49782e-10
-1.5216e-10
2.57166e-10
-1.28256e-10
-6.6254e-11
8.06066e-10
-6.6254e-11
-1.76844e-10
7.30195e-10
-7.29189e-11
-2.67647e-10
6.72546e-10
-8.03668e-11
-3.40892e-10
5.89845e-10
-8.88948e-11
-3.94797e-10
4.94598e-10
-9.66189e-11
-4.2928e-10
3.91376e-10
-1.0305e-10
-4.4673e-10
2.83822e-10
-1.06752e-10
-4.49544e-10
1.73921e-10
-1.08706e-10
-4.40124e-10
5.88307e-11
-1.08302e-10
-4.20699e-10
-5.16198e-11
-1.06952e-10
-3.90653e-10
-1.51323e-10
-1.06509e-10
-3.47489e-10
-2.3061e-10
-1.08252e-10
-2.89277e-10
-2.81919e-10
-1.12316e-10
-2.11639e-10
-2.97918e-10
-1.16174e-10
-1.13076e-10
-2.80005e-10
-1.18796e-10
3.72953e-12
-2.37058e-10
-1.16284e-10
1.30788e-10
-1.78978e-10
-1.07439e-10
2.53265e-10
-1.14655e-10
-9.25814e-11
3.5614e-10
-5.08716e-11
-7.52001e-11
4.25623e-10
3.62091e-12
-5.81505e-11
4.49884e-10
5.83992e-11
-4.53115e-11
4.27155e-10
1.16819e-10
-4.05038e-11
3.65912e-10
1.83234e-10
-4.61848e-11
2.81969e-10
2.59631e-10
-6.03111e-11
1.95088e-10
3.43781e-10
-7.89228e-11
1.22342e-10
4.30041e-10
-9.49128e-11
7.53786e-11
5.10447e-10
-1.03697e-10
5.93214e-11
5.82998e-10
-1.04059e-10
5.99733e-11
6.32827e-10
-9.34309e-11
6.48209e-10
-6.59643e-11
-9.57191e-11
9.18806e-10
-9.57191e-11
-2.3745e-10
8.21417e-10
-1.07756e-10
-3.52188e-10
7.74786e-10
-1.1614e-10
-4.43499e-10
7.04993e-10
-1.23894e-10
-5.0892e-10
6.22496e-10
-1.29924e-10
-5.49353e-10
5.26424e-10
-1.33385e-10
-5.6657e-10
4.14015e-10
-1.33705e-10
-5.64688e-10
2.86671e-10
-1.30706e-10
-5.46422e-10
1.44893e-10
-1.27091e-10
-5.11723e-10
3.2601e-12
-1.24284e-10
-4.60233e-10
-1.24142e-10
-1.22556e-10
-3.90636e-10
-2.21227e-10
-1.22286e-10
-3.02226e-10
-2.77038e-10
-1.22928e-10
-1.92679e-10
-2.9007e-10
-1.22166e-10
-6.35907e-11
-2.66933e-10
-1.17714e-10
7.4801e-11
-2.17421e-10
-1.09752e-10
2.11203e-10
-1.5797e-10
-1.00073e-10
3.31894e-10
-1.00782e-10
-8.85314e-11
4.26515e-10
-5.39114e-11
-7.66346e-11
4.82223e-10
-1.15297e-11
-6.91105e-11
4.96093e-10
3.8918e-11
-6.63415e-11
4.69368e-10
1.09911e-10
-6.73192e-11
4.10844e-10
2.08462e-10
-7.02992e-11
3.34697e-10
3.34407e-10
-7.25938e-11
2.56814e-10
4.79628e-10
-7.21774e-11
1.90522e-10
6.30477e-10
-6.85828e-11
1.42512e-10
7.70636e-10
-6.23809e-11
1.15098e-10
8.8574e-10
-5.47531e-11
9.65571e-11
9.59217e-10
-4.54729e-11
9.85741e-10
-3.01038e-11
-1.4091e-10
1.10282e-09
-1.4091e-10
-3.05619e-10
9.90957e-10
-1.52665e-10
-4.41097e-10
9.60472e-10
-1.57969e-10
-5.49787e-10
9.02941e-10
-1.61283e-10
-6.30228e-10
8.2702e-10
-1.61385e-10
-6.81307e-10
7.25498e-10
-1.58676e-10
-7.04087e-10
5.93388e-10
-1.53108e-10
-6.98644e-10
4.32991e-10
-1.46654e-10
-6.67885e-10
2.53056e-10
-1.40964e-10
-6.11908e-10
7.2549e-11
-1.37381e-10
-5.28866e-10
-9.23643e-11
-1.3432e-10
-4.20702e-10
-2.18667e-10
-1.31797e-10
-2.92043e-10
-2.94211e-10
-1.28687e-10
-1.49702e-10
-3.19845e-10
-1.23935e-10
-4.11007e-13
-3.08075e-10
-1.16564e-10
1.43203e-10
-2.63747e-10
-1.0948e-10
2.69371e-10
-2.03132e-10
-1.04706e-10
3.76617e-10
-1.44703e-10
-1.03681e-10
4.60023e-10
-8.48595e-11
-1.09339e-10
5.1338e-10
-1.38334e-11
-1.18192e-10
5.39629e-10
7.10023e-11
-1.24628e-10
5.38892e-10
1.84981e-10
-1.26534e-10
5.12906e-10
3.28848e-10
-1.20084e-10
4.6545e-10
4.97617e-10
-1.05567e-10
4.03264e-10
6.79946e-10
-8.68813e-11
3.33569e-10
8.61834e-10
-6.86945e-11
2.62629e-10
1.02711e-09
-5.4893e-11
1.94572e-10
1.16062e-09
-4.76531e-11
1.26625e-10
1.2447e-09
-4.43235e-11
1.27774e-09
-3.94757e-11
-1.86599e-10
1.39203e-09
-1.86599e-10
-3.71351e-10
1.26887e-09
-1.9411e-10
-5.29231e-10
1.2495e-09
-1.93433e-10
-6.61279e-10
1.19011e-09
-1.89117e-10
-7.64494e-10
1.09998e-09
-1.82136e-10
-8.35474e-10
9.70745e-10
-1.74332e-10
-8.71285e-10
7.9977e-10
-1.67059e-10
-8.68423e-10
5.93476e-10
-1.619e-10
-8.24452e-10
3.67029e-10
-1.6032e-10
-7.37881e-10
1.39871e-10
-1.59327e-10
-6.13703e-10
-6.56663e-11
-1.58784e-10
-4.58664e-10
-2.30281e-10
-1.56114e-10
-2.84581e-10
-3.41724e-10
-1.50322e-10
-1.08588e-10
-3.96581e-10
-1.42854e-10
5.48859e-11
-4.04652e-10
-1.37807e-10
1.97212e-10
-3.68539e-10
-1.37181e-10
3.16209e-10
-2.97857e-10
-1.44744e-10
4.15984e-10
-2.07657e-10
-1.6085e-10
4.98436e-10
-9.25387e-11
-1.7978e-10
5.66923e-10
4.85385e-11
-1.9574e-10
6.23719e-10
2.04139e-10
-2.01932e-10
6.60316e-10
3.85447e-10
-1.95698e-10
6.69126e-10
5.81168e-10
-1.77326e-10
6.44427e-10
7.84339e-10
-1.529e-10
5.86885e-10
9.84103e-10
-1.28443e-10
5.03203e-10
1.17239e-09
-1.09788e-10
4.02324e-10
1.33812e-09
-9.71953e-11
2.91468e-10
1.4697e-09
-8.87294e-11
1.70361e-10
1.55446e-09
-8.30634e-11
1.59309e-09
-7.4369e-11
-2.18635e-10
1.78017e-09
-2.18635e-10
-4.31352e-10
1.64007e-09
-2.19047e-10
-6.23031e-10
1.61713e-09
-2.12137e-10
-7.91325e-10
1.53322e-09
-2.029e-10
-9.31614e-10
1.40603e-09
-1.93452e-10
-1.03552e-09
1.23133e-09
-1.87449e-10
-1.09322e-09
1.01254e-09
-1.86812e-10
-1.09484e-09
7.60423e-10
-1.91449e-10
-1.03445e-09
4.92552e-10
-1.99089e-10
-9.1257e-10
2.28471e-10
-2.0757e-10
-7.39044e-10
-1.30407e-11
-2.1221e-10
-5.30937e-10
-2.15487e-10
-2.11999e-10
-3.0931e-10
-3.66981e-10
-2.08173e-10
-9.46997e-11
-4.59927e-10
-2.03926e-10
9.18828e-11
-4.88313e-10
-2.04763e-10
2.4918e-10
-4.56428e-10
-2.12889e-10
3.85185e-10
-3.67152e-10
-2.27829e-10
5.01839e-10
-2.21281e-10
-2.47212e-10
6.068e-10
-2.70527e-11
-2.63304e-10
7.08458e-10
1.96206e-10
-2.68111e-10
7.91947e-10
4.42274e-10
-2.62599e-10
8.46487e-10
6.98413e-10
-2.45928e-10
8.61515e-10
9.48062e-10
-2.24737e-10
8.33658e-10
1.18172e-09
-2.04378e-10
7.68324e-10
1.39228e-09
-1.88855e-10
6.71841e-10
1.58104e-09
-1.76817e-10
5.5306e-10
1.73826e-09
-1.64333e-10
4.11048e-10
1.86009e-09
-1.48546e-10
2.38891e-10
1.93844e-09
-1.31712e-10
1.98831e-09
-1.16201e-10
-2.33806e-10
2.22328e-09
-2.33806e-10
-4.97324e-10
2.06175e-09
-2.31056e-10
-7.41361e-10
2.0149e-09
-2.22167e-10
-9.63362e-10
1.88837e-09
-2.15072e-10
-1.15435e-09
1.71268e-09
-2.11432e-10
-1.29917e-09
1.49204e-09
-2.15727e-10
-1.38074e-09
1.23574e-09
-2.28102e-10
-1.38373e-09
9.56271e-10
-2.46659e-10
-1.30175e-09
6.68568e-10
-2.65734e-10
-1.13997e-09
3.86974e-10
-2.81193e-10
-9.14321e-10
1.23077e-10
-2.9062e-10
-6.50786e-10
-1.0973e-10
-2.93195e-10
-3.78331e-10
-2.9652e-10
-2.9279e-10
-1.19181e-10
-4.24311e-10
-2.94082e-10
1.16936e-10
-4.80389e-10
-2.99358e-10
3.27813e-10
-4.54558e-10
-3.10174e-10
5.15364e-10
-3.40675e-10
-3.23665e-10
6.84214e-10
-1.48141e-10
-3.28815e-10
8.40123e-10
1.04384e-10
-3.24102e-10
9.66809e-10
4.0447e-10
-3.11236e-10
1.05266e-09
7.25355e-10
-2.92488e-10
1.08894e-09
1.0456e-09
-2.73433e-10
1.07586e-09
1.34578e-09
-2.60785e-10
1.02419e-09
1.61586e-09
-2.56793e-10
9.43611e-10
1.85288e-09
-2.55649e-10
8.4301e-10
2.05278e-09
-2.48683e-10
7.14695e-10
2.21141e-09
-2.31144e-10
5.41147e-10
2.32791e-09
-2.05722e-10
3.07548e-10
2.39989e-09
-1.82997e-10
2.456e-09
-1.72896e-10
-2.48574e-10
2.68095e-09
-2.48574e-10
-5.91694e-10
2.50509e-09
-2.47175e-10
-9.04465e-10
2.41544e-09
-2.43569e-10
-1.19143e-09
2.24553e-09
-2.47656e-10
-1.43574e-09
2.02886e-09
-2.57605e-10
-1.61678e-09
1.77993e-09
-2.75971e-10
-1.71255e-09
1.50835e-09
-2.99799e-10
-1.70765e-09
1.22483e-09
-3.25357e-10
-1.59936e-09
9.37693e-10
-3.4698e-10
-1.39923e-09
6.52561e-10
-3.60699e-10
-1.12989e-09
3.75465e-10
-3.67785e-10
-8.2037e-10
1.18793e-10
-3.71146e-10
-4.95979e-10
-1.00574e-10
-3.74984e-10
-1.75621e-10
-2.59894e-10
-3.83025e-10
1.35747e-10
-3.43835e-10
-3.93674e-10
4.34163e-10
-3.33227e-10
-4.00962e-10
7.16625e-10
-2.23068e-10
-3.97674e-10
9.72722e-10
-1.91302e-11
-3.83968e-10
1.17911e-09
2.6187e-10
-3.60006e-10
1.31927e-09
5.96617e-10
-3.32278e-10
1.38266e-09
9.58646e-10
-3.09568e-10
1.37609e-09
1.32568e-09
-3.00629e-10
1.32067e-09
1.67905e-09
-3.07367e-10
1.23874e-09
2.00539e-09
-3.19149e-10
1.14546e-09
2.29253e-09
-3.24509e-10
1.03406e-09
2.53105e-09
-3.15334e-10
8.77167e-10
2.71529e-09
-2.93406e-10
6.47595e-10
2.84097e-09
-2.67558e-10
3.4121e-10
2.91572e-09
-2.58204e-10
2.97181e-09
-2.73508e-10
-2.91414e-10
3.1692e-09
-2.91414e-10
-7.30215e-10
3.01505e-09
-3.04012e-10
-1.11702e-09
2.87652e-09
-3.14085e-10
-1.46368e-09
2.67215e-09
-3.28789e-10
-1.74888e-09
2.42986e-09
-3.48504e-10
-1.94839e-09
2.16595e-09
-3.7116e-10
-2.04317e-09
1.89002e-09
-3.94047e-10
-2.02305e-09
1.6049e-09
-4.12074e-10
-1.8928e-09
1.3126e-09
-4.21801e-10
-1.66894e-09
1.01436e-09
-4.25351e-10
-1.37624e-09
7.16307e-10
-4.26857e-10
-1.03763e-09
4.32201e-10
-4.3168e-10
-6.68045e-10
1.81481e-10
-4.4259e-10
-2.72458e-10
-1.24248e-11
-4.57436e-10
1.41197e-10
-1.27428e-10
-4.69584e-10
5.60519e-10
-1.46248e-10
-4.70486e-10
9.60798e-10
-6.2213e-11
-4.56373e-10
1.30604e-09
1.19922e-10
-4.27586e-10
1.56221e-09
3.86315e-10
-3.94284e-10
1.70846e-09
7.19235e-10
-3.67705e-10
1.749e-09
1.09884e-09
-3.5859e-10
1.71111e-09
1.50667e-09
-3.6785e-10
1.6292e-09
1.9237e-09
-3.85495e-10
1.52903e-09
2.32648e-09
-3.97177e-10
1.41214e-09
2.69284e-09
-3.95639e-10
1.25376e-09
3.00293e-09
-3.81173e-10
1.02169e-09
3.2412e-09
-3.6215e-10
7.0535e-10
3.40538e-09
-3.5871e-10
3.32512e-10
3.50389e-09
-3.75872e-10
3.55702e-09
-4.02419e-10
-3.95312e-10
3.809e-09
-3.95312e-10
-9.13852e-10
3.71172e-09
-4.21962e-10
-1.36388e-09
3.52936e-09
-4.39439e-10
-1.75107e-09
3.29679e-09
-4.57711e-10
-2.05505e-09
3.03008e-09
-4.75146e-10
-2.25574e-09
2.74016e-09
-4.88036e-10
-2.34052e-09
2.43156e-09
-4.93381e-10
-2.31067e-09
2.10654e-09
-4.90712e-10
-2.17712e-09
1.76746e-09
-4.84319e-10
-1.95777e-09
1.41906e-09
-4.78547e-10
-1.66877e-09
1.07246e-09
-4.79031e-10
-1.3156e-09
7.44183e-10
-4.90367e-10
-8.96505e-10
4.56897e-10
-5.12181e-10
-4.12048e-10
2.32223e-10
-5.35111e-10
1.21816e-10
8.8979e-11
-5.46282e-10
6.71339e-10
4.01349e-11
-5.39697e-10
1.18786e-09
9.12343e-11
-5.1789e-10
1.61724e-09
2.40703e-10
-4.87796e-10
1.92057e-09
4.82425e-10
-4.62911e-10
2.08919e-09
8.08811e-10
-4.54714e-10
2.14351e-09
1.20967e-09
-4.64271e-10
2.12019e-09
1.66631e-09
-4.78942e-10
2.04617e-09
2.16336e-09
-4.88661e-10
1.93282e-09
2.66087e-09
-4.8534e-10
1.76004e-09
3.13151e-09
-4.71457e-10
1.50215e-09
3.54064e-09
-4.5763e-10
1.15478e-09
3.86702e-09
-4.62262e-10
7.45467e-10
4.10321e-09
-4.84378e-10
3.29678e-10
4.25357e-09
-5.1027e-10
4.32516e-09
-5.18296e-10
-5.63054e-10
4.78535e-09
-5.63054e-10
-1.12769e-09
4.74786e-09
-5.87803e-10
-1.62271e-09
4.52904e-09
-6.02131e-10
-2.03467e-09
4.25782e-09
-6.12351e-10
-2.34591e-09
3.93488e-09
-6.13548e-10
-2.54322e-09
3.5663e-09
-6.06125e-10
-2.62695e-09
3.15882e-09
-5.89952e-10
-2.60738e-09
2.72232e-09
-5.70706e-10
-2.49938e-09
2.27031e-09
-5.54966e-10
-2.30909e-09
1.81428e-09
-5.48451e-10
-2.03233e-09
1.38072e-09
-5.6014e-10
-1.65561e-09
9.90581e-10
-5.87667e-10
-1.16892e-09
6.64268e-10
-6.19213e-10
-5.78633e-10
4.16489e-10
-6.41678e-10
8.09036e-11
2.59117e-10
-6.45406e-10
7.53494e-10
1.96774e-10
-6.30552e-10
1.3704e-09
2.35351e-10
-6.05466e-10
1.87508e-09
3.769e-10
-5.842e-10
2.24103e-09
6.23006e-10
-5.78098e-10
2.47502e-09
9.7246e-10
-5.86539e-10
2.60031e-09
1.42131e-09
-5.97865e-10
2.63837e-09
1.95384e-09
-6.02298e-10
2.59531e-09
2.54558e-09
-5.92577e-10
2.44964e-09
3.15619e-09
-5.73216e-10
2.18227e-09
3.74446e-09
-5.5724e-10
1.79657e-09
4.27293e-09
-5.617e-10
1.33118e-09
4.71262e-09
-5.84575e-10
8.47805e-10
5.05106e-09
-6.1019e-10
3.97442e-10
5.28579e-09
-6.16587e-10
5.41081e-09
-5.92353e-10
-7.58688e-10
6.24687e-09
-7.58688e-10
-1.34996e-09
6.23636e-09
-7.65562e-10
-1.88897e-09
5.97383e-09
-7.62796e-10
-2.33247e-09
5.6277e-09
-7.56958e-10
-2.66349e-09
5.18921e-09
-7.42846e-10
-2.88051e-09
4.66934e-09
-7.21646e-10
-2.99327e-09
4.08487e-09
-6.97438e-10
-3.01131e-09
3.45819e-09
-6.77642e-10
-2.94097e-09
2.82392e-09
-6.68962e-10
-2.77509e-09
2.21827e-09
-6.83222e-10
-2.4843e-09
1.66402e-09
-7.1317e-10
-2.04695e-09
1.19414e-09
-7.49756e-10
-1.45777e-09
8.22939e-10
-7.78029e-10
-7.41919e-10
5.52481e-10
-7.83297e-10
4.33677e-11
3.92163e-10
-7.69586e-10
8.22929e-10
3.41689e-10
-7.45676e-10
1.52689e-09
4.04262e-10
-7.23367e-10
2.11464e-09
5.83891e-10
-7.15965e-10
2.57709e-09
8.85109e-10
-7.23043e-10
2.92282e-09
1.30918e-09
-7.33015e-10
3.15972e-09
1.85083e-09
-7.3387e-10
3.27754e-09
2.49071e-09
-7.20017e-10
3.24947e-09
3.19518e-09
-6.94131e-10
3.04895e-09
3.92487e-09
-6.73567e-10
2.67853e-09
4.63775e-09
-6.72403e-10
2.18208e-09
5.29417e-09
-6.88985e-10
1.62784e-09
5.86604e-09
-7.08485e-10
1.07744e-09
6.33204e-09
-7.11538e-10
5.53169e-10
6.67306e-09
-6.91455e-10
6.85675e-09
-6.54991e-10
-9.32079e-10
8.21915e-09
-9.32079e-10
-1.5816e-09
8.18757e-09
-9.08768e-10
-2.19647e-09
7.8595e-09
-8.97142e-10
-2.70928e-09
7.39291e-09
-8.8567e-10
-3.10502e-09
6.78149e-09
-8.70299e-10
-3.38494e-09
6.04803e-09
-8.539e-10
-3.55683e-09
5.22648e-09
-8.42049e-10
-3.6252e-09
4.36197e-09
-8.41822e-10
-3.5787e-09
3.5098e-09
-8.59477e-10
-3.3868e-09
2.71627e-09
-8.91749e-10
-3.02174e-09
2.02026e-09
-9.30393e-10
-2.46401e-09
1.44493e-09
-9.57738e-10
-1.7306e-09
1.00436e-09
-9.6168e-10
-8.73892e-10
7.00967e-10
-9.46677e-10
3.04627e-11
5.36576e-10
-9.18318e-10
9.07677e-10
5.10255e-10
-8.92768e-10
1.70643e-09
6.23429e-10
-8.80414e-10
2.40559e-09
8.81859e-10
-8.83769e-10
3.00101e-09
1.28871e-09
-8.91578e-10
3.4863e-09
1.83885e-09
-8.90308e-10
3.8378e-09
2.51768e-09
-8.74758e-10
4.01342e-09
3.29605e-09
-8.48656e-10
3.97662e-09
4.13487e-09
-8.27939e-10
3.7196e-09
4.99667e-09
-8.23892e-10
3.27797e-09
5.84159e-09
-8.32892e-10
2.71371e-09
6.63962e-09
-8.41839e-10
2.08965e-09
7.35832e-09
-8.35449e-10
1.44006e-09
7.96134e-09
-8.12568e-10
7.61791e-10
8.40414e-09
-7.86314e-10
8.60648e-09
-7.68279e-10
-1.07008e-09
1.06233e-08
-1.07008e-09
-1.85157e-09
1.05371e-08
-1.03614e-09
-2.6087e-09
1.01177e-08
-1.02605e-09
-3.25491e-09
9.49253e-09
-1.02253e-09
-3.77063e-09
8.67298e-09
-1.02273e-09
-4.15119e-09
7.69732e-09
-1.02782e-09
-4.39607e-09
6.61988e-09
-1.04095e-09
-4.49499e-09
5.50568e-09
-1.0667e-09
-4.41975e-09
4.42102e-09
-1.10342e-09
-4.13779e-09
3.42279e-09
-1.14223e-09
-3.6286e-09
2.55342e-09
-1.16931e-09
-2.90056e-09
1.83702e-09
-1.17494e-09
-1.99986e-09
1.29241e-09
-1.16065e-09
-9.98652e-10
9.20949e-10
-1.13364e-09
2.71469e-11
7.26505e-10
-1.10797e-09
1.02075e-09
7.12485e-10
-1.0964e-09
1.95365e-09
8.82305e-10
-1.10019e-09
2.80873e-09
1.24508e-09
-1.10793e-09
3.56875e-09
1.7934e-09
-1.10622e-09
4.19593e-09
2.51172e-09
-1.08991e-09
4.63478e-09
3.37084e-09
-1.0646e-09
4.83716e-09
4.32777e-09
-1.04537e-09
4.78569e-09
5.33613e-09
-1.04069e-09
4.5008e-09
6.36261e-09
-1.04617e-09
4.0299e-09
7.37095e-09
-1.04459e-09
3.42004e-09
8.33558e-09
-1.02604e-09
2.70119e-09
9.21355e-09
-9.95945e-10
1.88529e-09
9.94306e-09
-9.6908e-10
9.83534e-10
1.04546e-08
-9.59419e-10
1.06393e-08
-9.61036e-10
-1.21231e-09
1.33742e-08
-1.21231e-09
-2.22245e-09
1.32156e-08
-1.18858e-09
-3.18902e-09
1.2681e-08
-1.1923e-09
-4.02451e-09
1.18819e-08
-1.20694e-09
-4.70093e-09
1.08487e-08
-1.22773e-09
-5.20239e-09
9.63484e-09
-1.25433e-09
-5.5131e-09
8.31024e-09
-1.28815e-09
-5.60662e-09
6.94991e-09
-1.32927e-09
-5.4521e-09
5.62707e-09
-1.37063e-09
-5.02703e-09
4.40178e-09
-1.40185e-09
-4.33461e-09
3.32037e-09
-1.41498e-09
-3.41518e-09
2.41494e-09
-1.40936e-09
-2.33884e-09
1.71247e-09
-1.39173e-09
-1.1824e-09
1.22437e-09
-1.37646e-09
-2.81131e-12
9.64455e-10
-1.37841e-09
1.16579e-09
9.43542e-10
-1.39482e-09
2.29789e-09
1.17252e-09
-1.41198e-09
3.36358e-09
1.65337e-09
-1.41366e-09
4.3093e-09
2.37497e-09
-1.39872e-09
5.06576e-09
3.30253e-09
-1.37268e-09
5.57143e-09
4.3879e-09
-1.34982e-09
5.79833e-09
5.57417e-09
-1.33992e-09
5.75449e-09
6.81124e-09
-1.33631e-09
5.47179e-09
8.06282e-09
-1.32264e-09
4.97832e-09
9.29358e-09
-1.29233e-09
4.2887e-09
1.04626e-08
-1.25198e-09
3.4147e-09
1.14996e-08
-1.21767e-09
2.3789e-09
1.23279e-08
-1.20174e-09
1.22412e-09
1.28892e-08
-1.20444e-09
1.30904e-08
-1.20773e-09
-1.41734e-09
1.6473e-08
-1.41734e-09
-2.73042e-09
1.62356e-08
-1.41776e-09
-3.95534e-09
1.55722e-08
-1.43624e-09
-5.01683e-09
1.45973e-08
-1.46277e-09
-5.87797e-09
1.33555e-08
-1.49416e-09
-6.50896e-09
1.19119e-08
-1.53155e-09
-6.87699e-09
1.03438e-08
-1.57563e-09
-6.94606e-09
8.73001e-09
-1.62319e-09
-6.68681e-09
7.14338e-09
-1.66549e-09
-6.0969e-09
5.64906e-09
-1.69351e-09
-5.21076e-09
4.30188e-09
-1.7037e-09
-4.09734e-09
3.15261e-09
-1.70382e-09
-2.83253e-09
2.24299e-09
-1.70788e-09
-1.47681e-09
1.6032e-09
-1.73033e-09
-6.96046e-11
1.25901e-09
-1.76602e-09
1.36105e-09
1.22885e-09
-1.79946e-09
2.77186e-09
1.52918e-09
-1.81324e-09
4.09477e-09
2.15741e-09
-1.80389e-09
5.2415e-09
3.08651e-09
-1.7772e-09
6.13183e-09
4.26226e-09
-1.74842e-09
6.72087e-09
5.62004e-09
-1.72678e-09
7.00149e-09
7.09602e-09
-1.7055e-09
6.9915e-09
8.6364e-09
-1.67476e-09
6.70214e-09
1.01964e-08
-1.62748e-09
6.13462e-09
1.17123e-08
-1.57193e-09
5.29668e-09
1.31078e-08
-1.52714e-09
4.215e-09
1.43002e-08
-1.50447e-09
2.93776e-09
1.52305e-08
-1.4968e-09
1.52191e-09
1.5876e-08
-1.49034e-09
1.6164e-08
-1.47086e-09
-1.72743e-09
2.00569e-08
-1.72743e-09
-3.37676e-09
1.97285e-08
-1.74427e-09
-4.8896e-09
1.8927e-08
-1.76417e-09
-6.20464e-09
1.77679e-08
-1.78814e-09
-7.2756e-09
1.63059e-08
-1.81974e-09
-8.05517e-09
1.46135e-08
-1.86328e-09
-8.49122e-09
1.2769e-08
-1.91664e-09
-8.53719e-09
1.08537e-08
-1.97485e-09
-8.17319e-09
8.94607e-09
-2.02758e-09
-7.42105e-09
7.12175e-09
-2.06618e-09
-6.34295e-09
5.45677e-09
-2.09442e-09
-5.01782e-09
4.02372e-09
-2.12386e-09
-3.51341e-09
2.88455e-09
-2.16581e-09
-1.87503e-09
2.08567e-09
-2.21846e-09
-1.36676e-10
1.66451e-09
-2.26653e-09
1.65053e-09
1.65039e-09
-2.29336e-09
3.40464e-09
2.05716e-09
-2.29207e-09
5.01901e-09
2.8667e-09
-2.26816e-09
6.39226e-09
4.02966e-09
-2.23508e-09
7.45501e-09
5.47947e-09
-2.20283e-09
8.17648e-09
7.14916e-09
-2.16601e-09
8.55179e-09
8.97509e-09
-2.11564e-09
8.57295e-09
1.08904e-08
-2.04428e-09
8.22687e-09
1.28159e-08
-1.9642e-09
7.51244e-09
1.46491e-08
-1.90011e-09
6.46411e-09
1.62894e-08
-1.86549e-09
5.14175e-09
1.76666e-08
-1.84837e-09
3.60017e-09
1.87586e-08
-1.82758e-09
1.88163e-09
1.95518e-08
-1.7988e-09
1.99349e-08
-1.76735e-09
-2.14033e-09
2.43559e-08
-2.14033e-09
-4.14168e-09
2.39091e-08
-2.15079e-09
-5.98208e-09
2.29571e-08
-2.15844e-09
-7.59667e-09
2.15832e-08
-2.17684e-09
-8.92355e-09
1.98559e-08
-2.21459e-09
-9.88956e-09
1.78507e-08
-2.27236e-09
-1.04167e-08
1.56562e-08
-2.35338e-09
-1.04524e-08
1.33615e-08
-2.44067e-09
-9.99086e-09
1.10584e-08
-2.51824e-09
-9.07585e-09
8.84493e-09
-2.5832e-09
-7.78302e-09
6.82107e-09
-2.64159e-09
-6.18966e-09
5.08158e-09
-2.70233e-09
-4.3538e-09
3.70622e-09
-2.76684e-09
-2.32008e-09
2.75597e-09
-2.82421e-09
-1.47743e-10
2.28158e-09
-2.85897e-09
2.06983e-09
2.31541e-09
-2.86461e-09
4.21028e-09
2.8541e-09
-2.84367e-09
6.15056e-09
3.85844e-09
-2.81101e-09
7.79805e-09
5.26645e-09
-2.77904e-09
9.09616e-09
7.00966e-09
-2.7387e-09
1.0009e-08
9.02734e-09
-2.67575e-09
1.0499e-08
1.12481e-08
-2.58329e-09
1.0521e-08
1.35794e-08
-2.47684e-09
1.00571e-08
1.58972e-08
-2.38665e-09
9.14164e-09
1.80712e-08
-2.33134e-09
7.85163e-09
2.00021e-08
-2.29836e-09
6.25583e-09
2.16473e-08
-2.26165e-09
4.38622e-09
2.2987e-08
-2.21219e-09
2.27894e-09
2.39585e-08
-2.17904e-09
2.4388e-08
-2.17568e-09
-2.62269e-09
2.96017e-08
-2.62269e-09
-5.03355e-09
2.90161e-08
-2.61461e-09
-7.28021e-09
2.78884e-08
-2.61646e-09
-9.27293e-09
2.62469e-08
-2.64642e-09
-1.09185e-08
2.41778e-08
-2.70938e-09
-1.21066e-08
2.17754e-08
-2.81262e-09
-1.27423e-08
1.91404e-08
-2.93487e-09
-1.27723e-08
1.63786e-08
-3.05573e-09
-1.22053e-08
1.36074e-08
-3.16213e-09
-1.1101e-08
1.09513e-08
-3.25376e-09
-9.53802e-09
8.53228e-09
-3.33904e-09
-7.5864e-09
6.4598e-09
-3.41997e-09
-5.30643e-09
4.82996e-09
-3.48889e-09
-2.76968e-09
3.72179e-09
-3.53461e-09
-8.21624e-11
3.19466e-09
-3.54851e-09
2.61825e-09
3.27131e-09
-3.53351e-09
5.18617e-09
3.93462e-09
-3.50624e-09
7.5072e-09
5.1301e-09
-3.48058e-09
9.50214e-09
6.79326e-09
-3.44722e-09
1.11084e-08
8.86239e-09
-3.38587e-09
1.22531e-08
1.12755e-08
-3.28585e-09
1.28479e-08
1.39405e-08
-3.15987e-09
1.28335e-08
1.6723e-08
-3.0424e-09
1.22226e-08
1.94668e-08
-2.95897e-09
1.10963e-08
2.2039e-08
-2.90068e-09
9.5439e-09
2.43599e-08
-2.83934e-09
7.60061e-09
2.63867e-08
-2.76184e-09
5.28856e-09
2.80365e-08
-2.70047e-09
2.68898e-09
2.91765e-08
-2.69104e-09
2.96081e-08
-2.70352e-09
-3.16353e-09
3.59886e-08
-3.16353e-09
-6.11074e-09
3.52681e-08
-3.15203e-09
-8.88513e-09
3.39235e-08
-3.16838e-09
-1.13486e-08
3.19513e-08
-3.23905e-09
-1.33642e-08
2.94675e-08
-3.35979e-09
-1.47962e-08
2.65834e-08
-3.51028e-09
-1.55387e-08
2.34204e-08
-3.66816e-09
-1.55501e-08
2.01119e-08
-3.81332e-09
-1.4856e-08
1.68046e-08
-3.9403e-09
-1.35215e-08
1.36472e-08
-4.05686e-09
-1.16173e-08
1.07739e-08
-4.16728e-09
-9.21085e-09
8.30859e-09
-4.26669e-09
-6.38306e-09
6.36699e-09
-4.34147e-09
-3.25423e-09
5.0488e-09
-4.38002e-09
1.63574e-11
4.42105e-09
-4.38479e-09
3.25999e-09
4.50071e-09
-4.37247e-09
6.33154e-09
5.26529e-09
-4.35712e-09
9.12819e-09
6.65703e-09
-4.33298e-09
1.15657e-08
8.61836e-09
-4.27815e-09
1.35433e-08
1.10896e-08
-4.17884e-09
1.49302e-08
1.39847e-08
-4.0399e-09
1.56127e-08
1.71667e-08
-3.89517e-09
1.55566e-08
2.0463e-08
-3.77751e-09
1.48165e-08
2.37124e-08
-3.68253e-09
1.34833e-08
2.68004e-08
-3.58545e-09
1.16031e-08
2.96464e-08
-3.46884e-09
9.19255e-09
3.21402e-08
-3.36178e-09
6.32535e-09
3.41106e-08
-3.3107e-09
3.17076e-09
3.54079e-08
-3.3026e-09
3.5899e-08
-3.28317e-09
-3.79717e-09
4.36969e-08
-3.79717e-09
-7.46267e-09
4.28679e-08
-3.80921e-09
-1.08879e-08
4.12574e-08
-3.878e-09
-1.38984e-08
3.89066e-08
-4.01007e-09
-1.63206e-08
3.59446e-08
-4.17924e-09
-1.80019e-08
3.25059e-08
-4.36336e-09
-1.88481e-08
2.87373e-08
-4.53913e-09
-1.88383e-08
2.48046e-08
-4.70019e-09
-1.80068e-08
2.08819e-08
-4.85413e-09
-1.64038e-08
1.71265e-08
-5.00652e-09
-1.4087e-08
1.36922e-08
-5.15584e-09
-1.11349e-08
1.07277e-08
-5.28525e-09
-7.66849e-09
8.37795e-09
-5.37852e-09
-3.86341e-09
6.76759e-09
-5.42974e-09
7.76787e-11
5.9761e-09
-5.45075e-09
3.97296e-09
6.02149e-09
-5.45753e-09
7.68196e-09
6.88569e-09
-5.44637e-09
1.10906e-08
8.52405e-09
-5.39933e-09
1.4073e-08
1.08813e-08
-5.29933e-09
1.64642e-08
1.38718e-08
-5.14661e-09
1.80971e-08
1.73555e-08
-4.96944e-09
1.88777e-08
2.11481e-08
-4.81058e-09
1.88134e-08
2.50595e-08
-4.67057e-09
1.79701e-08
2.89448e-08
-4.52505e-09
1.63864e-08
3.2694e-08
-4.35648e-09
1.40665e-08
3.61665e-08
-4.19085e-09
1.10734e-08
3.91529e-08
-4.08066e-09
7.57212e-09
4.14472e-08
-4.01982e-09
3.81753e-09
4.29566e-08
-3.97694e-09
4.36097e-08
-3.89568e-09
-4.58828e-09
5.29612e-08
-4.58828e-09
-9.13497e-09
5.20534e-08
-4.6584e-09
-1.33213e-08
5.01382e-08
-4.78679e-09
-1.69415e-08
4.73607e-08
-4.96232e-09
-1.98027e-08
4.38633e-08
-5.16108e-09
-2.1761e-08
3.97972e-08
-5.36023e-09
-2.27442e-08
3.53376e-08
-5.55399e-09
-2.27417e-08
3.06764e-08
-5.7477e-09
-2.17711e-08
2.60072e-08
-5.95124e-09
-1.98589e-08
2.15119e-08
-6.16722e-09
-1.70556e-08
1.73761e-08
-6.37522e-09
-1.3465e-08
1.37895e-08
-6.54881e-09
-9.26032e-09
1.09379e-08
-6.67538e-09
-4.66945e-09
8.97218e-09
-6.75597e-09
8.03347e-11
7.97986e-09
-6.80346e-09
4.79561e-09
7.99212e-09
-6.8212e-09
9.32048e-09
9.00149e-09
-6.792e-09
1.34919e-08
1.09763e-08
-6.69678e-09
1.71084e-08
1.38408e-08
-6.53202e-09
1.99512e-08
1.74546e-08
-6.32198e-09
2.18599e-08
2.16223e-08
-6.11469e-09
2.27827e-08
2.6129e-08
-5.92438e-09
2.27493e-08
3.07864e-08
-5.7261e-09
2.17784e-08
3.54574e-08
-5.49774e-09
1.98442e-08
3.99836e-08
-5.26174e-09
1.69706e-08
4.41251e-08
-5.07704e-09
1.33117e-08
4.76149e-08
-4.95095e-09
9.12758e-09
5.02925e-08
-4.84581e-09
4.65567e-09
5.21225e-08
-4.73833e-09
5.29695e-08
-4.64257e-09
-5.59855e-09
6.41402e-08
-5.59855e-09
-1.11423e-08
6.31404e-08
-5.72291e-09
-1.6178e-08
6.08815e-08
-5.88382e-09
-2.04799e-08
5.76265e-08
-6.0826e-09
-2.38528e-08
5.35181e-08
-6.29738e-09
-2.61676e-08
4.87251e-08
-6.52271e-09