/*--------------------------------*- C++ -*----------------------------------*\
| =========                 |                                                 |
| \\      /  F ield         | OpenFOAM: The Open Source CFD Toolbox           |
|  \\    /   O peration     | Version:  2312                                  |
|   \\  /    A nd           | Website:  www.openfoam.com                      |
|    \\/     M anipulation  |                                                 |
\*---------------------------------------------------------------------------*/
FoamFile
{
    version     2.0;
    format      ascii;
    arch        "LSB;label=32;scalar=64";
    class       volScalarField;
    location    "0.198545";
    object      alpha.water;
}
// * * * * * * * * * * * * * * * * * * * * * * * * * * * * * * * * * * * * * //

dimensions      [0 0 0 0 0 0 0];

internalField   nonuniform List<scalar> 
90000
(
1
0.999993
0.999995
0.999995
0.999996
0.999998
0.999999
1
1
1
1
1
1
1
1
1
1
1
1
1
1
1
0.999999
0.999998
0.999999
1
1
1.00001
1.00001
1.00001
0.999993
0.999991
0.999992
0.999994
0.999996
0.999998
1
1
1
1
1
1
1
1
1
1.00001
1.00001
1
1
1
0.999999
0.999998
0.999997
0.999998
1
1
1.00001
1.00001
1.00002
1.00002
0.999995
0.999994
0.999996
0.999997
0.999998
1
1
1
1
1
1
1
1
1
1
1
1
1
1
1
0.999999
0.999998
0.999998
0.999999
1
1
1
1
0.999999
1
0.999997
0.999998
0.999999
1
1
1
1
1
1
1
1
1
1
1
1
0.999999
0.999999
0.999998
0.999998
0.999999
0.999999
0.999999
1
1
1
1
1
1
0.999995
0.999996
0.999999
1
1
1
1
1
1
1
1
1
1
1
1
0.999999
0.999998
0.999997
0.999997
0.999997
0.999998
0.999999
1
1
1
1
1
0.999998
0.999995
0.999994
0.999992
0.999993
1
1
1
1
1
1
1
1
1
1
1
1
1
0.999999
0.999999
0.999998
0.999998
0.999999
1
1
1
1
1
1
1
0.999997
0.999995
0.999993
0.999992
0.999993
1
1
1
1
1
0.999999
0.999999
0.999999
0.999999
1
1
1
1
1
1
1
1
1
1
1
1
1
1
1
1
0.999998
0.999996
0.999995
0.999994
0.999996
1
1
1
1
0.999999
0.999998
0.999998
0.999998
0.999999
0.999999
1
1
1
1
1
1
1
1
1
1
1
1
1
1
0.999999
0.999998
0.999997
0.999997
0.999997
0.999998
1
1
1
1
0.999999
0.999999
0.999998
0.999998
0.999998
0.999999
1
1
1
1
1.00001
1.00001
1.00001
1
1
1
1
0.999999
0.999999
0.999998
0.999998
0.999997
0.999998
0.999998
0.999999
1
1
1
1
1
1
1
1
0.999999
0.999998
0.999998
0.999998
0.999999
1
1
1
1
1
1
1
1
0.999999
0.999999
0.999998
0.999997
0.999997
0.999998
0.999998
1
1
1
1
1.00001
1.00001
1.00001
1
1
1
0.999999
0.999998
0.999997
0.999996
0.999997
0.999999
1
1
1
1
1
1
1
1
1
0.999999
0.999999
0.999999
0.999999
1
1
1
1
1
1.00001
1.00001
1.00001
1.00001
1
1
1
0.999998
0.999996
0.999996
0.999997
0.999997
0.999998
0.999998
0.999999
0.999999
1
1
1
1
1
1
1
1
1
1
1
1.00001
1
1.00001
1.00001
1.00001
1.00001
1.00001
1
1
1
0.999999
0.999998
0.999998
0.999998
0.999998
0.999997
0.999997
0.999997
0.999998
1
1
1
1
1
1
1
1
1
1.00001
1.00001
1
1
1.00001
1.00001
1.00001
1
1
1
1
1
1
1
1
1
0.999999
0.999998
0.999997
0.999997
0.999998
1
1
1
1
1.00001
1.00001
1.00001
1.00001
1.00001
1.00001
1
1
1
1
1
1
0.999999
0.999999
0.999999
1
1
1
1
1
1
1
0.999998
0.999997
0.999997
0.999998
1
1
1
1
1
1
1.00001
1.00001
1.00001
1
1
1
0.999999
1
0.999994
0.999994
0.999994
0.999995
0.999997
0.999999
1
1
1.00001
1
1
1
0.999998
0.999997
0.999997
0.999998
0.999999
1
1
1
1
1
1
1
1
1
0.999999
0.999998
0.999998
0.999996
0.99999
0.999991
0.999992
0.999994
0.999996
0.999999
1
1
1
1
1
0.999999
0.999998
0.999997
0.999998
0.999998
0.999999
0.999999
1
1
1
1
1
1
0.999999
0.999997
0.999996
0.999996
0.999996
0.999994
0.99999
0.999991
0.999993
0.999995
0.999997
0.999999
1
1
1
1
0.999999
0.999999
0.999999
0.999999
0.999999
0.999999
0.999999
0.999998
0.999999
0.999999
0.999999
0.999999
0.999998
0.999997
0.999995
0.999994
0.999994
0.999994
0.999995
0.999994
0.999992
0.999994
0.999995
0.999997
0.999998
1
1
1
1
0.999999
1
1
1
1
1
0.999999
0.999998
0.999998
0.999998
0.999998
0.999997
0.999996
0.999995
0.999994
0.999994
0.999993
0.999993
0.999994
0.999995
0.999996
0.999994
0.999996
0.999997
0.999999
1
1
1
1
1
1
1
1
1
1
1
0.999999
0.999998
0.999998
0.999997
0.999996
0.999995
0.999995
0.999994
0.999994
0.999994
0.999994
0.999994
0.999995
0.999997
0.999997
0.999996
0.999997
0.999999
1
1
1
1
1
1
1
1
1
1
1
1
0.999999
0.999999
0.999998
0.999997
0.999996
0.999995
0.999996
0.999996
0.999997
0.999997
0.999997
0.999997
0.999998
0.999998
0.999998
0.999997
0.999998
1
1
1
1
1
1
1
1
1
1
1
1
1
1
1
0.999998
0.999997
0.999997
0.999997
0.999998
0.999999
0.999999
1
1
1
1
0.999999
0.999998
0.999999
1
1
1.00001
1.00001
1
1
1
1
1
0.999999
0.999999
1
1
1
1
1
0.999999
0.999998
0.999999
0.999999
1
1
1
1
1
1
1
0.999999
0.999999
1
1
1.00001
1.00001
1
1
1
1
0.999999
0.999998
0.999998
0.999999
1
1
1
1
1
1
1
1
1
1
1
1
1
1
1
1
1
1
1.00001
1.00001
1.00001
1
1
1
1
0.999999
0.999999
0.999998
0.999998
0.999999
1
1
1
1
1
1
1
1
1
1
1
1
1
1
1
1
1
1
1.00001
1.00001
1
1
1
1
1
1
0.999999
0.999999
0.999999
1
1
1
1
1
0.999999
1
1
1
1
1
1
1
1
1
1
1
1
1
1.00001
1
1
0.999999
0.999999
1
1
1
1
1
1
1
1
1
0.999999
0.999999
0.999999
1
1
1
1
1
1
1
1
1
1
1
1
1
1
1
0.999998
0.999998
0.999999
0.999999
1
1
1
1
1
1
1
1
0.999999
0.999999
0.999999
1
1
1
1
1
1
0.999999
1
1
1
1
1
1
0.999999
0.999998
0.999998
0.999998
0.999998
0.999998
0.999998
0.999998
0.999999
1
1
1
1
0.999999
0.999999
0.999999
0.999999
0.999999
0.999999
0.999999
0.999999
0.999999
0.999998
0.999998
1
1
1
1
1
0.999999
0.999999
0.999998
0.999998
0.999998
0.999997
0.999997
0.999997
0.999998
0.999999
1
1
1
1
0.999999
0.999999
0.999999
1
0.999999
0.999999
0.999999
0.999998
0.999997
0.999997
0.999998
0.999999
0.999998
0.999998
1
1
0.999999
1
0.999999
0.999999
0.999998
0.999997
0.999996
0.999996
0.999998
1
1
1
1
1
1
1
1
1
1
0.999999
0.999999
0.999998
0.999997
0.999998
0.999999
0.999998
0.999997
0.999999
1
1
1
1
1
0.999999
0.999999
0.999998
0.999997
0.999997
0.999998
1
1
1
1
1
1
1
1
1
1
0.999999
0.999999
0.999998
0.999998
0.999999
0.999999
0.999998
0.999999
1
1
1
1
1
1
1
1
0.999999
0.999998
0.999998
0.999999
1
1
1
1
1
1
1
1
1
1
1
0.999999
0.999999
1
1
0.999998
0.999999
1
1
1
1
1
1
1
1
1
1
0.999999
0.999999
0.999999
1
1
1
1
1
1
1
1
1
1
1
0.999999
1
1
0.999998
0.999998
0.999999
1
1
1
1
1
1
1
1
1
1
0.999999
1
1
1
1
1
1
1
1
1
1
1
1
1
1
1
0.999999
0.999997
0.999999
1
1
1
1
1
0.999999
1
1
1
1
1
1
1
1
1
1
1
1
1
1
1
1
1
1
1
1
1
0.999998
0.999999
1
1
1
1
1
1
1
1
1
1
1
1
1
1
1
0.999999
0.999999
1
1
1
1
1
1
0.999999
1
1
1
0.999999
0.999999
1
1
1
1
1
1
1
1
1
1
1
1
1
1
1
0.999999
0.999998
0.999998
0.999999
0.999999
0.999999
0.999999
0.999999
0.999999
0.999999
1
1
1
0.999999
1
1
1
1
1
1
1
1
1
1
1
0.999999
1
1
1
0.999999
0.999998
0.999998
0.999998
0.999997
0.999997
0.999998
0.999998
0.999998
0.999999
0.999999
1
1
0.999999
0.999999
0.999999
0.999998
0.999999
1
1
1
1
1
1
1
0.999999
0.999999
1
1
0.999999
0.999999
0.999998
0.999998
0.999997
0.999997
0.999997
0.999998
0.999999
0.999999
0.999999
0.999999
1
0.999999
0.999998
0.999999
0.999998
0.999998
1
1
1
1
1
1
1
1
1
0.999999
0.999999
0.999999
0.999999
0.999999
0.999998
0.999997
0.999996
0.999996
0.999997
0.999998
0.999999
0.999998
0.999999
0.999999
0.999999
0.999998
0.999998
0.999999
0.999998
0.999999
1
1
1
1
1
1
1
1
0.999999
0.999999
0.999999
0.999999
0.999998
0.999998
0.999997
0.999996
0.999996
0.999996
0.999997
0.999998
0.999998
0.999997
0.999998
0.999998
0.999998
0.999998
0.999999
0.999998
0.999997
0.999999
0.999999
0.999999
1
0.999998
1
0.999997
1
0.999999
0.999999
0.999998
0.999998
0.999998
0.999997
0.999997
0.999996
0.999996
0.999996
0.999997
0.999997
0.999997
0.999997
0.999997
0.999999
0.999999
0.999998
0.999997
0.999998
0.999997
0.999997
1
0.999998
0.999999
0.999999
0.999998
1
0.999997
1
0.999999
0.999998
0.999998
0.999998
0.999998
0.999997
0.999997
0.999998
0.999998
0.999998
0.999998
0.999997
0.999998
0.999998
1
1
0.999999
0.999998
0.999998
0.999998
0.999998
0.999999
1
0.999997
1
0.999996
1
0.999998
1
0.999999
0.999998
0.999999
0.999999
0.999998
0.999997
0.999997
0.999998
0.999999
0.999999
0.999998
0.999998
0.999997
0.999999
0.999999
1
0.999999
0.999998
0.999998
0.999999
0.999998
0.999998
1
0.999998
0.999996
1
0.999996
1
0.999997
1
0.999999
0.999998
0.999999
0.999998
0.999998
0.999997
0.999997
0.999998
0.999999
0.999997
0.999997
0.999997
0.999998
0.999999
0.999999
0.999998
0.999998
0.999998
0.999999
1
0.999997
0.999997
1
0.999997
0.999999
0.999998
0.999999
0.999998
0.999997
0.999998
0.999999
0.999999
0.999999
0.999998
0.999998
0.999998
0.999999
0.999998
0.999998
0.999998
0.999999
1
1
0.999999
0.999999
1
1
1
1
0.999999
0.999998
1
1
0.999998
1
0.999997
1
0.999998
0.999998
0.999997
0.999999
0.999999
0.999999
0.999997
0.999997
0.999998
0.999999
0.999999
0.999998
0.999999
0.999999
0.999999
0.999998
0.999997
0.999999
1
0.999999
1
0.999999
0.999998
0.999999
1
0.999998
0.999996
0.999998
1
0.999999
0.999999
0.999998
0.999999
0.999999
1
0.999999
1
1
1
1
1
0.999999
1
1
1
1
1
1
1
0.999999
1
1
0.999999
1
1
0.999999
1
1
1
0.999999
1
1
1
1
1.00001
1
1.00003
1.00004
1
1
1.00001
1
1.00001
1.00002
1.00003
1.00003
1.00002
1.00003
1.00001
1.00003
1
1
1.00002
1.00003
1.00003
1
1
1.00001
1
1
1
1
1
0.1453
0.146404
0.14866
0.152056
0.156478
0.161876
0.168245
0.175439
0.1833
0.191422
0.199139
0.206125
0.212183
0.216536
0.218587
0.218591
0.216542
0.212176
0.206092
0.199119
0.191433
0.183324
0.175431
0.168234
0.161902
0.156465
0.152041
0.148662
0.146395
0.14529
7.33199e-05
7.90472e-05
8.91801e-05
0.000110378
0.000144297
0.000201068
0.000284359
0.000415563
0.000668756
0.00102371
0.00133905
0.00150017
0.00149086
0.00152427
0.0014064
0.00140661
0.00152606
0.00148931
0.00149776
0.00134026
0.00102892
0.000673856
0.000416587
0.000284766
0.000202995
0.000143451
0.00010924
8.94402e-05
7.78461e-05
7.50434e-05
3.6077e-06
4.15186e-06
5.03897e-06
7.09968e-06
1.09074e-05
1.83099e-05
3.14186e-05
5.54779e-05
0.000110057
0.000208319
0.000303095
0.000387223
0.000340552
0.000357326
0.000263325
0.000263768
0.000357836
0.000340102
0.000386748
0.000303979
0.000210152
0.000111351
5.58034e-05
3.15489e-05
1.85569e-05
1.0857e-05
7.01888e-06
5.06109e-06
4.08536e-06
3.73943e-06
1.94039e-07
2.35686e-07
3.0802e-07
4.76577e-07
8.21191e-07
1.56566e-06
3.06894e-06
6.17546e-06
1.39891e-05
3.09659e-05
5.65409e-05
8.18742e-05
0.000100176
0.000107334
7.66581e-05
7.68079e-05
0.000107534
0.000100306
8.19697e-05
5.69397e-05
3.14046e-05
1.42355e-05
6.24229e-06
3.09292e-06
1.59137e-06
8.18825e-07
4.71638e-07
3.09481e-07
2.31301e-07
2.01698e-07
1.08046e-08
1.37981e-08
1.88432e-08
3.10371e-08
5.76887e-08
1.19568e-07
2.55339e-07
5.59104e-07
1.37537e-06
3.33867e-06
6.80683e-06
1.10729e-05
1.59046e-05
2.32044e-05
3.21838e-05
3.21604e-05
2.32877e-05
1.59307e-05
1.11052e-05
6.87602e-06
3.39773e-06
1.4045e-06
5.66986e-07
2.5807e-07
1.21799e-07
5.76657e-08
3.07919e-08
1.89905e-08
1.3565e-08
1.12456e-08
5.88657e-10
7.87491e-10
1.10449e-09
1.89076e-09
3.68467e-09
8.04361e-09
1.81372e-08
4.18951e-08
1.08438e-07
2.78368e-07
6.04096e-07
1.05126e-06
1.6167e-06
2.4056e-06
4.26989e-06
4.26046e-06
2.41107e-06
1.62095e-06
1.05598e-06
6.11505e-07
2.83954e-07
1.10988e-07
4.25876e-08
1.83653e-08
8.2096e-09
3.6886e-09
1.87822e-09
1.11515e-09
7.75667e-10
6.13628e-10
3.80386e-11
5.11037e-11
6.79842e-11
1.06636e-10
2.11277e-10
4.74084e-10
1.10098e-09
2.62192e-09
6.98517e-09
1.85449e-08
4.18946e-08
7.6061e-08
1.21769e-07
1.88645e-07
2.80337e-07
2.80196e-07
1.8913e-07
1.22204e-07
7.65255e-08
4.24739e-08
1.89549e-08
7.16368e-09
2.67006e-09
1.1171e-09
4.84861e-10
2.11889e-10
1.06038e-10
6.86125e-11
5.04297e-11
3.95789e-11
2.17085e-12
3.14208e-12
4.38467e-12
7.46052e-12
1.42055e-11
2.92817e-11
6.00819e-11
1.38224e-10
3.71747e-10
1.00118e-09
2.31124e-09
4.30773e-09
7.07581e-09
1.12236e-08
1.69973e-08
1.69838e-08
1.1254e-08
7.10685e-09
4.33962e-09
2.34752e-09
1.02531e-09
3.82047e-10
1.40972e-10
6.08641e-11
2.99062e-11
1.4234e-11
7.42565e-12
4.43516e-12
3.09903e-12
2.27311e-12
2.35197e-13
3.33646e-13
4.3016e-13
5.84156e-13
7.51699e-13
1.56272e-12
3.5994e-12
8.49793e-12
2.06878e-11
4.91331e-11
1.09423e-10
2.07156e-10
3.38122e-10
5.16933e-10
7.88729e-10
7.88004e-10
5.18526e-10
3.396e-10
2.08584e-10
1.11087e-10
5.02124e-11
2.12118e-11
8.66124e-12
3.65837e-12
1.60148e-12
7.54015e-13
5.85274e-13
4.33594e-13
3.30379e-13
2.45764e-13
1.20204e-14
1.84506e-14
2.49955e-14
3.98709e-14
7.12445e-14
1.4188e-13
2.7917e-13
3.8997e-13
9.20838e-13
2.42891e-12
5.79924e-12
1.1237e-11
1.8412e-11
2.76836e-11
3.88076e-11
3.87939e-11
2.77674e-11
1.84917e-11
1.13214e-11
5.89529e-12
2.49134e-12
9.47247e-13
3.96823e-13
2.82996e-13
1.45109e-13
7.13392e-14
3.98024e-14
2.52802e-14
1.82506e-14
1.26401e-14
4.08084e-16
6.69097e-16
9.15858e-16
1.51759e-15
2.9165e-15
6.02795e-15
1.3388e-14
3.0047e-14
7.1489e-14
1.59135e-13
2.17255e-13
3.89178e-13
6.58043e-13
1.04785e-12
1.55932e-12
1.55873e-12
1.05145e-12
6.61221e-13
3.92429e-13
2.16153e-13
1.62163e-13
7.33123e-14
3.06247e-14
1.36553e-14
6.18205e-15
2.91866e-15
1.51389e-15
9.2837e-16
6.61891e-16
4.30471e-16
1.24886e-17
2.16261e-17
2.91032e-17
4.64328e-17
8.48649e-17
1.72356e-16
3.86827e-16
9.42564e-16
2.32977e-15
6.04929e-15
1.47699e-14
3.15984e-14
5.65105e-14
8.8475e-14
1.22458e-13
1.22487e-13
8.87271e-14
5.67341e-14
3.19359e-14
1.50436e-14
6.21744e-15
2.40121e-15
9.61451e-16
3.95978e-16
1.76991e-16
8.49173e-17
4.65462e-17
2.95018e-17
2.14314e-17
1.31987e-17
3.35579e-19
6.18957e-19
8.15141e-19
1.2712e-18
2.23403e-18
4.3675e-18
9.36224e-18
2.10161e-17
5.00194e-17
1.30359e-16
3.45384e-16
7.73631e-16
1.44513e-15
2.3837e-15
3.58743e-15
3.58353e-15
2.39106e-15
1.45133e-15
7.82615e-16
3.53611e-16
1.34153e-16
5.16369e-17
2.14655e-17
9.56767e-18
4.48849e-18
2.24528e-18
1.27149e-18
8.27203e-19
6.12719e-19
3.54929e-19
7.77512e-21
1.53367e-20
1.97652e-20
3.00056e-20
5.08306e-20
9.52659e-20
1.94453e-19
4.12899e-19
9.29388e-19
2.26378e-18
5.49754e-18
1.1787e-17
2.14756e-17
3.52923e-17
5.39495e-17
5.38764e-17
3.548e-17
2.1635e-17
1.192e-17
5.61649e-18
2.33044e-18
9.57976e-19
4.23871e-19
1.99159e-19
9.804e-20
5.11601e-20
3.00007e-20
2.01058e-20
1.52318e-20
8.24444e-21
1.55557e-22
3.29597e-22
4.14737e-22
6.02872e-22
9.97627e-22
1.769e-21
3.41492e-21
6.87895e-21
1.44627e-20
3.27323e-20
7.51026e-20
1.532e-19
2.6819e-19
4.28591e-19
6.42143e-19
6.40121e-19
4.29653e-19
2.70007e-19
1.54778e-19
7.67433e-20
3.38481e-20
1.49038e-20
7.04752e-21
3.50972e-21
1.82125e-21
9.97195e-22
6.08909e-22
4.2135e-22
3.26699e-22
1.64466e-22
2.64201e-24
6.05048e-24
7.42454e-24
1.04984e-23
1.64745e-23
2.78754e-23
5.08515e-23
9.59263e-23
1.86055e-22
3.91316e-22
8.3809e-22
1.60424e-21
2.67634e-21
4.12339e-21
6.05374e-21
6.04769e-21
4.14557e-21
2.69958e-21
1.62406e-21
8.55865e-22
4.05041e-22
1.92816e-22
9.80799e-23
5.21616e-23
2.87517e-23
1.66092e-23
1.0572e-23
7.55665e-24
6.01558e-24
2.81028e-24
3.87116e-26
9.57563e-26
1.1314e-25
1.56175e-25
2.3169e-25
3.74936e-25
6.38067e-25
1.11603e-24
2.00259e-24
3.86772e-24
7.57739e-24
1.35248e-23
2.13483e-23
3.13927e-23
4.49188e-23
4.48494e-23
3.14307e-23
2.14219e-23
1.37434e-23
7.78779e-24
3.99101e-24
2.07127e-24
1.14471e-24
6.55333e-25
3.84963e-25
2.3479e-25
1.56141e-25
1.15755e-25
9.4932e-26
4.09934e-26
4.74562e-28
1.28245e-27
1.48022e-27
1.93117e-27
2.79479e-27
4.21001e-27
6.68931e-27
1.091e-26
1.79666e-26
3.13123e-26
5.59169e-26
9.22972e-26
1.35097e-25
1.87131e-25
2.6031e-25
2.60889e-25
1.88719e-25
1.3587e-25
9.35286e-26
5.75246e-26
3.2397e-26
1.85513e-26
1.12076e-26
6.91865e-27
4.34262e-27
2.81001e-27
1.96191e-27
1.51095e-27
1.27603e-27
5.07902e-28
5.02661e-30
1.45938e-29
1.63702e-29
2.05583e-29
2.83873e-29
3.96731e-29
5.93368e-29
8.90451e-29
1.3264e-28
2.08678e-28
3.38636e-28
5.06146e-28
6.76776e-28
8.81248e-28
1.19071e-27
1.19111e-27
8.87942e-28
6.81667e-28
5.12539e-28
3.48058e-28
2.17294e-28
1.37745e-28
9.13143e-29
6.1195e-29
4.13196e-29
2.84582e-29
2.08578e-29
1.66784e-29
1.4531e-29
5.33383e-30
4.42218e-32
1.41039e-31
1.51675e-31
1.86553e-31
2.38435e-31
3.19035e-31
4.42349e-31
6.02207e-31
8.14736e-31
1.15545e-30
1.66973e-30
2.22556e-30
2.70621e-30
3.28134e-30
4.24075e-30
4.22774e-30
3.29406e-30
2.73837e-30
2.26761e-30
1.71137e-30
1.19477e-30
8.47077e-31
6.21676e-31
4.54587e-31
3.30569e-31
2.42343e-31
1.86793e-31
1.55518e-31
1.40136e-31
4.73953e-32
3.29912e-34
1.14874e-33
1.19234e-33
1.38803e-33
1.70377e-33
2.15405e-33
2.70381e-33
3.37739e-33
4.15806e-33
5.22791e-33
6.64455e-33
7.91982e-33
8.67155e-33
9.67788e-33
1.18119e-32
1.17578e-32
9.63718e-33
8.71349e-33
8.04325e-33
6.85476e-33
5.43264e-33
4.33123e-33
3.52488e-33
2.81657e-33
2.21338e-33
1.73527e-33
1.4119e-33
1.22454e-33
1.13971e-33
3.54775e-34
2.09446e-36
7.78781e-36
7.95189e-36
8.77473e-36
1.04107e-35
1.19458e-35
1.38608e-35
1.60723e-35
1.77249e-35
1.95973e-35
2.21724e-35
2.30514e-35
2.28431e-35
2.29533e-35
2.63519e-35
2.64149e-35
2.28092e-35
2.29548e-35
2.33052e-35
2.27243e-35
2.03253e-35
1.82834e-35
1.65989e-35
1.45807e-35
1.24366e-35
1.04438e-35
8.96721e-36
8.08788e-36
7.77493e-36
2.23327e-36
1.09212e-38
4.48588e-38
4.38873e-38
4.7213e-38
5.19671e-38
5.56052e-38
6.1103e-38
6.42064e-38
6.32016e-38
6.30572e-38
6.30763e-38
6.00032e-38
5.334e-38
5.13184e-38
5.51888e-38
5.49966e-38
4.83837e-38
5.38561e-38
5.98495e-38
6.26708e-38
6.40553e-38
6.47997e-38
6.60621e-38
6.35208e-38
5.86152e-38
5.26191e-38
4.77338e-38
4.47729e-38
4.45031e-38
1.18473e-38
4.73788e-41
2.19323e-40
2.03324e-40
2.11985e-40
2.19291e-40
2.25709e-40
2.2826e-40
2.17308e-40
2.03872e-40
1.92904e-40
1.79993e-40
1.62042e-40
1.46362e-40
1.4603e-40
1.45356e-40
1.41874e-40
1.20541e-40
1.46341e-40
1.56595e-40
1.65905e-40
1.80393e-40
2.01461e-40
2.27281e-40
2.36322e-40
2.3324e-40
2.23709e-40
2.15468e-40
2.08517e-40
2.13348e-40
5.31358e-41
1.77722e-43
8.87835e-43
8.1845e-43
8.14279e-43
8.18634e-43
7.92624e-43
7.52918e-43
7.15331e-43
6.87387e-43
6.60696e-43
6.12677e-43
5.69043e-43
5.42596e-43
5.65297e-43
5.38853e-43
5.224e-43
4.24738e-43
5.30336e-43
5.17339e-43
4.85619e-43
5.14729e-43
5.94991e-43
7.40693e-43
7.88506e-43
8.08439e-43
8.18867e-43
8.38816e-43
8.18028e-43
8.53961e-43
2.04226e-43
5.39134e-46
3.21419e-45
2.85982e-45
2.80085e-45
2.74777e-45
2.60728e-45
2.56382e-45
2.59569e-45
2.67102e-45
2.68556e-45
2.49663e-45
2.31438e-45
2.17812e-45
2.21949e-45
2.05184e-45
1.97502e-45
1.58985e-45
2.04389e-45
1.97768e-45
1.71986e-45
1.72068e-45
1.93618e-45
2.56789e-45
2.62706e-45
2.60671e-45
2.69892e-45
2.93291e-45
2.74041e-45
2.8613e-45
7.04353e-46
1.29828e-48
1.13741e-47
9.33888e-48
9.43004e-48
9.31366e-48
9.301e-48
9.83193e-48
1.05112e-47
1.13188e-47
1.12804e-47
9.9701e-48
8.62715e-48
7.56698e-48
7.25882e-48
6.47891e-48
6.17464e-48
5.02816e-48
6.74884e-48
7.02801e-48
6.26073e-48
6.38004e-48
7.05709e-48
9.89431e-48
9.62599e-48
8.73548e-48
8.83341e-48
1.01346e-47
8.17768e-48
8.1436e-48
2.41164e-48
2.78251e-51
4.11146e-50
3.27882e-50
3.44822e-50
3.51651e-50
3.68915e-50
4.03085e-50
4.33971e-50
4.57618e-50
4.15741e-50
3.44645e-50
2.64659e-50
2.09547e-50
1.86674e-50
1.58836e-50
1.49388e-50
1.21479e-50
1.80448e-50
1.99705e-50
1.96894e-50
2.20381e-50
2.54631e-50
3.85392e-50
3.82747e-50
3.25302e-50
3.15283e-50
3.80722e-50
2.36915e-50
2.05411e-50
9.2158e-51
4.64655e-54
1.63748e-52
1.26892e-52
1.36966e-52
1.40755e-52
1.47895e-52
1.58664e-52
1.6225e-52
1.55536e-52
1.31781e-52
9.46367e-53
6.4317e-53
4.52935e-53
3.66384e-53
2.94493e-53
2.72746e-53
2.19991e-53
3.70491e-53
4.46193e-53
4.89597e-53
6.23194e-53
8.2757e-53
1.34513e-52
1.46503e-52
1.25264e-52
1.20375e-52
1.53771e-52
7.43796e-53
5.06399e-53
3.92396e-53
5.81659e-57
6.72346e-55
4.9796e-55
5.37567e-55
5.34928e-55
5.40435e-55
5.47049e-55
5.0957e-55
4.41511e-55
3.34092e-55
2.07493e-55
1.22439e-55
7.53336e-56
5.44233e-56
4.09708e-56
3.7129e-56
2.92953e-56
5.54163e-56
7.65513e-56
9.62447e-56
1.39932e-55
2.22162e-55
3.97067e-55
4.90349e-55
4.45885e-55
4.43213e-55
6.03444e-55
2.56353e-55
1.37448e-55
1.65244e-55
7.60068e-60
2.50212e-57
1.79538e-57
1.88937e-57
1.78034e-57
1.69784e-57
1.56344e-57
1.33949e-57
1.0263e-57
6.74406e-58
3.61637e-58
1.82293e-58
9.62953e-59
6.10293e-59
4.25766e-59
3.71298e-59
2.83566e-59
6.1226e-59
9.84681e-59
1.44235e-58
2.46291e-58
4.56764e-58
1.01371e-57
1.34694e-57
1.36826e-57
1.44251e-57
2.10315e-57
8.72507e-58
4.12311e-58
6.21833e-58
9.775e-63
7.98271e-60
5.57878e-60
5.61723e-60
5.00391e-60
4.42999e-60
3.76958e-60
2.86086e-60
1.93155e-60
1.09605e-60
5.00219e-61
2.12273e-61
9.47487e-62
5.17523e-62
3.30929e-62
2.73433e-62
1.92556e-62
4.85497e-62
9.29e-62
1.61284e-61
3.33259e-61
7.41498e-61
2.11182e-60
3.04267e-60
3.5157e-60
3.97312e-60
6.22237e-60
2.65179e-60
1.21573e-60
1.99368e-60
1.37606e-65
2.14386e-62
1.45477e-62
1.3944e-62
1.1801e-62
9.57135e-63
7.39372e-63
5.00257e-63
2.95045e-63
1.43214e-63
5.49782e-64
1.94165e-64
7.23875e-65
3.35887e-65
1.95369e-65
1.49479e-65
8.69468e-66
2.61728e-65
6.12544e-65
1.28451e-64
3.36105e-64
9.29343e-64
3.44447e-63
5.75768e-63
7.37047e-63
9.21451e-63
1.5353e-62
6.84969e-63
3.17866e-63
5.34861e-63
2.5231e-68
4.79395e-65
3.15188e-65
2.8741e-65
2.3043e-65
1.70817e-65
1.19412e-65
7.16232e-66
3.66316e-66
1.50902e-66
4.83555e-67
1.41277e-67
4.38972e-68
1.7265e-68
9.18876e-69
6.25893e-69
3.8575e-69
1.27251e-68
3.77401e-68
1.01955e-67
2.99024e-67
8.66934e-67
4.4975e-66
8.91266e-66
1.26648e-65
1.77277e-65
3.13864e-65
1.47602e-65
7.03312e-66
1.19321e-65
4.91339e-71
8.87302e-68
5.68372e-68
4.91332e-68
3.69667e-68
2.51574e-68
1.58687e-68
8.40159e-69
3.70882e-69
1.29152e-69
3.4513e-70
8.41751e-71
2.23513e-71
7.71863e-72
3.96482e-72
2.25717e-72
1.32639e-72
5.26435e-72
1.91596e-71
6.42913e-71
2.31754e-70
7.64878e-70
4.71737e-69
1.12428e-68
1.7921e-68
2.81266e-68
5.30593e-68
2.63852e-68
1.29643e-68
2.21008e-68
6.72589e-74
1.36309e-70
8.51279e-71
6.97213e-71
4.91666e-71
3.06466e-71
1.74031e-71
8.12584e-72
3.09296e-72
9.13514e-73
2.07396e-73
4.43447e-74
1.10837e-74
3.86375e-75
2.1744e-75
1.47681e-75
3.96509e-76
1.68813e-75
7.6919e-75
3.24501e-74
1.45338e-73
5.78277e-73
3.96849e-72
1.15994e-71
2.0915e-71
3.68821e-71
7.42006e-71
3.90886e-71
1.98207e-71
3.40114e-71
8.40161e-77
1.74891e-73
1.06164e-73
8.26337e-74
5.47078e-74
3.11381e-74
1.59214e-74
6.58499e-75
2.18143e-75
5.59815e-76
1.15351e-76
2.47741e-77
6.95318e-78
2.68947e-78
1.65862e-78
1.38021e-78
1.10424e-78
5.58613e-79
2.49974e-78
1.3293e-77
7.46735e-77
3.57964e-76
2.69149e-75
9.86906e-75
2.02537e-74
4.01149e-74
8.60045e-74
4.80374e-74
2.51163e-74
4.35819e-74
8.95115e-80
1.88041e-76
1.10748e-76
8.24536e-77
5.14702e-77
2.67261e-77
1.2393e-77
4.61893e-78
1.37365e-78
3.28106e-79
7.04176e-80
1.76585e-80
5.59501e-81
2.30939e-81
1.47928e-81
1.32046e-81
1.6427e-81
2.2188e-81
1.68625e-81
4.50565e-81
3.13921e-80
1.82577e-79
1.52828e-78
7.06258e-78
1.64543e-77
3.64183e-77
8.29212e-77
4.90666e-77
2.63908e-77
4.66783e-77
9.51778e-83
1.70551e-79
9.73507e-80
7.01154e-80
4.16672e-80
1.98101e-80
8.48722e-81
2.96469e-81
8.47654e-82
2.09405e-82
5.19148e-83
1.46093e-83
4.85628e-84
2.02378e-84
1.29821e-84
1.18309e-84
1.62371e-84
3.0221e-84
5.87036e-84
6.43119e-84
1.09453e-83
7.70195e-83
8.00651e-82
4.40487e-81
1.14988e-80
2.79253e-80
6.68725e-80
4.18112e-80
2.30203e-80
4.20832e-80
7.03141e-86
1.32386e-82
7.31597e-83
5.18757e-83
2.98667e-83
1.31226e-83
5.37829e-84
1.87655e-84
5.55683e-85
1.51047e-85
4.10324e-86
1.19657e-86
3.95876e-87
1.62722e-87
1.0345e-87
9.49364e-88
1.34564e-87
2.72034e-87
6.65842e-87
1.74632e-86
3.66508e-86
3.90176e-86
4.76126e-85
2.57001e-84
7.1651e-84
1.83827e-83
4.55675e-83
2.99093e-83
1.67134e-83
3.23452e-83
4.05695e-89
9.00185e-86
4.80807e-86
3.44515e-86
1.96802e-86
8.17042e-87
3.33638e-87
1.22173e-87
3.87877e-88
1.1081e-88
3.08427e-89
8.89174e-90
2.874e-90
1.1586e-90
7.28667e-91
6.70555e-91
9.67273e-91
2.02619e-90
5.34521e-90
1.67962e-89
5.26177e-89
1.08352e-88
3.36923e-88
1.53967e-87
4.26196e-87
1.07481e-86
2.72289e-86
1.87426e-86
1.0135e-86
2.16869e-86
2.51613e-92
5.5425e-89
2.86759e-89
2.14488e-89
1.24533e-89
4.99682e-90
2.09801e-90
8.16419e-91
2.65923e-91
7.64691e-92
2.09574e-92
5.86892e-93
1.84465e-93
7.28801e-94
4.53545e-94
4.18153e-94
6.11946e-94
1.3144e-93
3.61048e-93
1.22207e-92
4.37792e-92
1.33925e-91
4.1584e-91
1.424e-90
3.42562e-90
6.25131e-90
1.61197e-89
1.0551e-89
5.17396e-90
1.31582e-89
1.91362e-95
3.25553e-92
1.63492e-92
1.31313e-92
7.82767e-93
3.10939e-93
1.3412e-93
5.31038e-94
1.72185e-94
4.84647e-95
1.28611e-95
3.48124e-96
1.06357e-96
4.12113e-97
2.53853e-97
2.34828e-97
3.48809e-97
7.67678e-97
2.1801e-96
7.73547e-96
2.97658e-95
1.0532e-94
3.50068e-94
1.1453e-93
2.67472e-93
4.42292e-93
9.19783e-93
5.6096e-93
2.23853e-93
7.6223e-93
9.08958e-99
1.92653e-95
9.45451e-96
8.22879e-96
5.01232e-96
1.95035e-96
8.4396e-97
3.31526e-97
1.04779e-97
2.84939e-98
7.28513e-99
1.90588e-99
5.66768e-100
2.15709e-100
1.31657e-100
1.22418e-100
1.84887e-100
4.1779e-100
1.22743e-99
4.52927e-99
1.83086e-98
6.99926e-98
2.45965e-97
8.1298e-97
1.93357e-96
3.12802e-96
5.50416e-96
3.03472e-96
8.43347e-97
4.46154e-96
5.45832e-102
1.20126e-98
5.76382e-99
5.26144e-99
3.19675e-99
1.21339e-99
5.198e-100
1.99017e-100
6.06926e-101
1.58864e-101
3.91477e-102
9.91935e-103
2.87803e-103
1.07806e-103
6.53215e-104
6.11012e-104
9.39962e-104
2.18542e-103
6.65468e-103
2.54756e-102
1.07038e-101
4.2999e-101
1.57842e-100
5.34466e-100
1.30629e-99
2.11902e-99
3.43215e-99
1.77803e-99
3.2268e-100
2.76428e-99
3.05662e-105
7.66763e-102
3.60173e-102
3.37419e-102
2.01926e-102
7.45344e-103
3.13296e-103
1.15919e-103
3.40152e-104
8.57663e-105
2.04203e-105
5.02566e-106
1.42641e-106
5.26953e-107
3.17329e-107
2.98848e-107
4.68678e-107
1.12281e-106
3.54824e-106
1.40737e-105
6.11015e-105
2.54465e-104
9.66402e-104
3.35465e-103
8.43931e-103
1.38805e-102
2.16988e-102
1.08295e-102
1.25817e-103
1.7556e-102
2.44203e-108
4.9553e-105
2.28268e-105
2.15679e-105
1.26002e-105
4.51592e-106
1.85557e-106
6.61723e-107
1.8694e-107
4.5506e-108
1.04974e-108
2.51627e-109
7.00311e-110
2.55611e-110
1.53073e-110
1.45171e-110
2.32298e-110
5.73454e-110
1.88133e-109
7.72365e-109
3.45277e-108
1.48039e-107
5.7782e-107
2.04981e-106
5.29966e-106
8.879e-106
1.3791e-105
6.80132e-106
5.3083e-107
1.12874e-105
1.519e-111
3.21599e-108
1.45309e-108
1.3707e-108
7.77344e-109
2.70658e-109
1.08629e-109
3.73321e-110
1.01674e-110
2.39446e-111
5.36471e-112
1.2549e-112
3.43151e-113
1.23881e-113
7.39119e-114
7.06033e-114
1.15017e-113
2.92942e-113
9.97355e-113
4.23365e-112
1.94502e-111
8.55504e-111
3.41782e-110
1.23492e-109
3.27319e-109
5.59133e-109
8.75396e-109
4.33756e-109
2.59612e-110
7.27691e-109
1.03173e-114
2.08802e-111
9.26207e-112
8.68213e-112
4.76863e-112
1.61272e-112
6.32253e-113
2.09434e-113
5.50427e-114
1.25583e-114
2.73766e-115
6.25991e-116
1.68443e-116
6.04532e-117
3.60505e-117
3.46926e-117
5.74335e-117
1.50072e-116
5.30141e-116
2.32531e-115
1.09693e-114
4.94112e-114
2.01624e-113
7.40276e-113
2.00751e-112
3.49601e-112
5.54945e-112
2.77357e-112
1.57884e-113
4.67832e-112
7.36709e-115
1.06882e-114
4.26861e-112
3.07576e-112
1.08007e-112
4.06919e-113
1.27023e-113
3.23816e-114
7.34514e-115
1.62381e-115
3.86406e-116
1.08455e-116
3.36362e-117
1.61374e-117
9.41343e-118
9.14504e-118
1.50536e-117
3.3542e-117
1.05853e-116
3.81613e-116
1.64414e-115
7.64792e-115
3.41504e-114
1.38441e-113
5.00343e-113
1.41882e-112
1.44496e-112
1.5204e-113
1.52196e-113
1.51999e-113
0.999993
0.99999
0.999992
0.999993
0.999995
0.999997
0.999999
1
1
1
1
1
1
1
1.00001
1.00001
1.00001
1.00001
1
1
1
0.999998
0.999997
0.999998
1
1
1.00001
1.00001
1.00001
1
0.999991
0.99999
0.999992
0.999994
0.999996
0.999999
1
1
1
1
1
1
1
1.00001
1.00001
1.00001
1.00001
1
1
1
0.999998
0.999997
0.999997
0.999998
1
1.00001
1.00001
1.00001
1.00001
1.00001
0.999994
0.999995
0.999996
0.999998
0.999999
1
1
1
1
1
1
1
1
1
1
1
1
1
1
0.999999
0.999998
0.999998
0.999998
0.999999
1
1
1
1
1
0.999998
0.999998
0.999999
1
1
1
1
1
1
1
1
1
1
1
0.999999
0.999998
0.999998
0.999997
0.999997
0.999998
0.999999
1
1
1
1
0.999999
0.999997
0.999995
0.999996
0.999992
0.999993
1
1
1
1
1
1
1
1
1
1
1
1
1
0.999998
0.999997
0.999996
0.999996
0.999997
0.999999
1
1
1
1
1
0.999999
0.999996
0.999992
0.999991
0.999989
0.999992
1
1
1
1
1
1
1
1
1
1
1
1
1
1
0.999999
0.999999
0.999999
1
1
1
1
1
1
1
1
0.999997
0.999994
0.999992
0.999991
0.999994
1
1
1
1
0.999999
0.999998
0.999998
0.999998
0.999999
1
1
1
1
1
1
1
1
1
1
1
1
1
1
1
0.999999
0.999998
0.999996
0.999995
0.999995
0.999997
1
1
1
0.999999
0.999998
0.999997
0.999997
0.999997
0.999998
0.999999
1
1
1
1.00001
1.00001
1.00001
1.00001
1.00001
1
1
1
1
1
0.999999
0.999998
0.999998
0.999997
0.999998
0.999998
1
1
1
1
1
0.999999
0.999998
0.999998
0.999997
0.999997
0.999998
0.999999
1
1
1.00001
1.00001
1.00001
1.00001
1.00001
1
1
0.999999
0.999998
0.999997
0.999997
0.999997
0.999997
0.999998
0.999999
1
1
1
1
1
1
1
1
1
0.999998
0.999997
0.999996
0.999997
0.999999
1
1
1
1
1
1
1
1
0.999998
0.999998
0.999997
0.999996
0.999996
0.999997
0.999999
1
1
1
1.00001
1.00001
1.00001
1.00001
1.00001
1
1
0.999998
0.999996
0.999995
0.999995
0.999996
0.999998
0.999999
1
1
1
1
1
1
1
1
0.999999
0.999999
0.999998
0.999999
1
1
1.00001
1
1.00001
1.00001
1.00001
1.00001
1.00001
1.00001
1
0.999999
0.999997
0.999995
0.999995
0.999996
0.999996
0.999997
0.999997
0.999997
0.999999
1
1
1
1
1
1
1
1
1
1
1.00001
1.00001
1
1.00001
1.00001
1.00001
1.00001
1.00001
1
1
1
0.999999
0.999999
0.999999
0.999998
0.999997
0.999996
0.999996
0.999996
0.999998
1
1
1.00001
1.00001
1.00001
1.00001
1.00001
1.00001
1.00001
1.00001
1.00001
1
1
1.00001
1.00001
1.00001
1
1
1
1
1
1
1
1
1
0.999999
0.999996
0.999995
0.999996
0.999998
1
1
1.00001
1.00001
1.00001
1.00001
1.00001
1.00001
1.00001
1.00001
1
1
1
1
0.999998
0.999997
0.999996
0.999997
0.999998
1
1
1.00001
1.00001
1.00001
1
0.999999
0.999997
0.999996
0.999996
0.999998
1
1
1
1
1.00001
1.00001
1.00001
1.00001
1.00001
1
1
0.999999
0.999998
0.999994
0.99999
0.99999
0.999991
0.999993
0.999996
1
1
1.00001
1.00001
1
1
0.999998
0.999997
0.999996
0.999997
0.999998
0.999999
1
1
1
1
1
1
1
1
0.999999
0.999997
0.999997
0.999997
0.99999
0.999987
0.999988
0.99999
0.999993
0.999996
1
1
1
1
1
0.999999
0.999998
0.999997
0.999998
0.999998
0.999998
0.999999
0.999999
1
1
1
1
1
0.999999
0.999997
0.999995
0.999995
0.999994
0.999995
0.99999
0.999988
0.99999
0.999992
0.999994
0.999997
0.999999
1
1
1
0.999999
0.999999
0.999999
1
1
0.999999
0.999999
0.999998
0.999998
0.999998
0.999998
0.999998
0.999997
0.999996
0.999994
0.999993
0.999993
0.999992
0.999993
0.999995
0.999992