/*--------------------------------*- C++ -*----------------------------------*\
| =========                 |                                                 |
| \\      /  F ield         | OpenFOAM: The Open Source CFD Toolbox           |
|  \\    /   O peration     | Version:  2312                                  |
|   \\  /    A nd           | Website:  www.openfoam.com                      |
|    \\/     M anipulation  |                                                 |
\*---------------------------------------------------------------------------*/
FoamFile
{
    version     2.0;
    format      ascii;
    arch        "LSB;label=32;scalar=64";
    class       volScalarField;
    location    "0.198545";
    object      epsilon;
}
// * * * * * * * * * * * * * * * * * * * * * * * * * * * * * * * * * * * * * //

dimensions      [0 2 -3 0 0 0 0];

internalField   nonuniform List<scalar> 
90000
(
1.60906e-05
1.60908e-05
1.60908e-05
1.60908e-05
1.60908e-05
1.60908e-05
1.60908e-05
1.60908e-05
1.60908e-05
1.60908e-05
1.60908e-05
1.60908e-05
1.60907e-05
1.60907e-05
1.60907e-05
1.60906e-05
1.60907e-05
1.60907e-05
1.60907e-05
1.60907e-05
1.60908e-05
1.60908e-05
1.60908e-05
1.60908e-05
1.60908e-05
1.60908e-05
1.60908e-05
1.60908e-05
1.60908e-05
1.60907e-05
1.60909e-05
1.60943e-05
1.60943e-05
1.60943e-05
1.60943e-05
1.60943e-05
1.60943e-05
1.60943e-05
1.60942e-05
1.60942e-05
1.60942e-05
1.60942e-05
1.60941e-05
1.60941e-05
1.6094e-05
1.6094e-05
1.6094e-05
1.60941e-05
1.60941e-05
1.60941e-05
1.60942e-05
1.60942e-05
1.60942e-05
1.60942e-05
1.60942e-05
1.60943e-05
1.60943e-05
1.60943e-05
1.60944e-05
1.60917e-05
1.60908e-05
1.60943e-05
1.60943e-05
1.60943e-05
1.60943e-05
1.60943e-05
1.60943e-05
1.60943e-05
1.60943e-05
1.60942e-05
1.60942e-05
1.60942e-05
1.60942e-05
1.60941e-05
1.60941e-05
1.60941e-05
1.60941e-05
1.60941e-05
1.60942e-05
1.60942e-05
1.60942e-05
1.60942e-05
1.60942e-05
1.60942e-05
1.60943e-05
1.60942e-05
1.60942e-05
1.6094e-05
1.60937e-05
1.60909e-05
1.60908e-05
1.60943e-05
1.60943e-05
1.60943e-05
1.60943e-05
1.60943e-05
1.60943e-05
1.60942e-05
1.60942e-05
1.60942e-05
1.60942e-05
1.60942e-05
1.60942e-05
1.60941e-05
1.60941e-05
1.60941e-05
1.60941e-05
1.60941e-05
1.60942e-05
1.60942e-05
1.60942e-05
1.60942e-05
1.60942e-05
1.60942e-05
1.60942e-05
1.60943e-05
1.60943e-05
1.60944e-05
1.6094e-05
1.60908e-05
1.60908e-05
1.60942e-05
1.60943e-05
1.60943e-05
1.60942e-05
1.60942e-05
1.60942e-05
1.60942e-05
1.60942e-05
1.60942e-05
1.60942e-05
1.60942e-05
1.60942e-05
1.60941e-05
1.60941e-05
1.60941e-05
1.60941e-05
1.60942e-05
1.60942e-05
1.60942e-05
1.60942e-05
1.60942e-05
1.60942e-05
1.60942e-05
1.60942e-05
1.60942e-05
1.60942e-05
1.60943e-05
1.60942e-05
1.60908e-05
1.60908e-05
1.60942e-05
1.60942e-05
1.60942e-05
1.60942e-05
1.60942e-05
1.60942e-05
1.60942e-05
1.60942e-05
1.60942e-05
1.60942e-05
1.60942e-05
1.60942e-05
1.60942e-05
1.60941e-05
1.60941e-05
1.60942e-05
1.60942e-05
1.60942e-05
1.60942e-05
1.60942e-05
1.60942e-05
1.60942e-05
1.60942e-05
1.60942e-05
1.60942e-05
1.60942e-05
1.60943e-05
1.60942e-05
1.60909e-05
1.60909e-05
1.60942e-05
1.60942e-05
1.60943e-05
1.60943e-05
1.60943e-05
1.60942e-05
1.60942e-05
1.60942e-05
1.60942e-05
1.60942e-05
1.60942e-05
1.60942e-05
1.60942e-05
1.60941e-05
1.60941e-05
1.60942e-05
1.60942e-05
1.60942e-05
1.60942e-05
1.60942e-05
1.60942e-05
1.60943e-05
1.60943e-05
1.60943e-05
1.60943e-05
1.60943e-05
1.60943e-05
1.60942e-05
1.60909e-05
1.60909e-05
1.60942e-05
1.60943e-05
1.60943e-05
1.60943e-05
1.60943e-05
1.60943e-05
1.60943e-05
1.60943e-05
1.60943e-05
1.60942e-05
1.60942e-05
1.60942e-05
1.60942e-05
1.60941e-05
1.60941e-05
1.60941e-05
1.60942e-05
1.60942e-05
1.60942e-05
1.60943e-05
1.60943e-05
1.60943e-05
1.60943e-05
1.60943e-05
1.60943e-05
1.60944e-05
1.60944e-05
1.60943e-05
1.60909e-05
1.6091e-05
1.60944e-05
1.60944e-05
1.60944e-05
1.60944e-05
1.60944e-05
1.60944e-05
1.60944e-05
1.60943e-05
1.60943e-05
1.60943e-05
1.60942e-05
1.60942e-05
1.60941e-05
1.60941e-05
1.60941e-05
1.60941e-05
1.60942e-05
1.60942e-05
1.60942e-05
1.60943e-05
1.60943e-05
1.60944e-05
1.60944e-05
1.60944e-05
1.60944e-05
1.60944e-05
1.60944e-05
1.60943e-05
1.6091e-05
1.60911e-05
1.60945e-05
1.60945e-05
1.60945e-05
1.60945e-05
1.60945e-05
1.60945e-05
1.60945e-05
1.60944e-05
1.60944e-05
1.60943e-05
1.60943e-05
1.60942e-05
1.60941e-05
1.60941e-05
1.60941e-05
1.60941e-05
1.60941e-05
1.60942e-05
1.60943e-05
1.60943e-05
1.60944e-05
1.60944e-05
1.60945e-05
1.60945e-05
1.60945e-05
1.60945e-05
1.60945e-05
1.60944e-05
1.60911e-05
1.60913e-05
1.60946e-05
1.60947e-05
1.60947e-05
1.60946e-05
1.60946e-05
1.60946e-05
1.60946e-05
1.60945e-05
1.60944e-05
1.60944e-05
1.60943e-05
1.60942e-05
1.60941e-05
1.60941e-05
1.6094e-05
1.60941e-05
1.60942e-05
1.60942e-05
1.60943e-05
1.60944e-05
1.60945e-05
1.60945e-05
1.60946e-05
1.60946e-05
1.60946e-05
1.60946e-05
1.60946e-05
1.60946e-05
1.60913e-05
1.60914e-05
1.60948e-05
1.60948e-05
1.60948e-05
1.60948e-05
1.60947e-05
1.60947e-05
1.60947e-05
1.60946e-05
1.60945e-05
1.60944e-05
1.60944e-05
1.60943e-05
1.60942e-05
1.60941e-05
1.60941e-05
1.60941e-05
1.60942e-05
1.60943e-05
1.60944e-05
1.60945e-05
1.60946e-05
1.60947e-05
1.60947e-05
1.60948e-05
1.60948e-05
1.60948e-05
1.60948e-05
1.60948e-05
1.60915e-05
1.60916e-05
1.60949e-05
1.6095e-05
1.6095e-05
1.60949e-05
1.60949e-05
1.60949e-05
1.60948e-05
1.60947e-05
1.60946e-05
1.60945e-05
1.60944e-05
1.60943e-05
1.60942e-05
1.60941e-05
1.60941e-05
1.60942e-05
1.60943e-05
1.60944e-05
1.60946e-05
1.60946e-05
1.60947e-05
1.60948e-05
1.60949e-05
1.60949e-05
1.6095e-05
1.6095e-05
1.60951e-05
1.60951e-05
1.60917e-05
1.60918e-05
1.60952e-05
1.60952e-05
1.60952e-05
1.60952e-05
1.60951e-05
1.6095e-05
1.6095e-05
1.60949e-05
1.60948e-05
1.60947e-05
1.60945e-05
1.60944e-05
1.60943e-05
1.60942e-05
1.60942e-05
1.60943e-05
1.60944e-05
1.60946e-05
1.60947e-05
1.60948e-05
1.60949e-05
1.60949e-05
1.6095e-05
1.60951e-05
1.60952e-05
1.60953e-05
1.60954e-05
1.60953e-05
1.6092e-05
1.60921e-05
1.60955e-05
1.60955e-05
1.60955e-05
1.60954e-05
1.60954e-05
1.60953e-05
1.60952e-05
1.6095e-05
1.60949e-05
1.60948e-05
1.60946e-05
1.60945e-05
1.60944e-05
1.60942e-05
1.60942e-05
1.60944e-05
1.60945e-05
1.60947e-05
1.60948e-05
1.60949e-05
1.6095e-05
1.60951e-05
1.60953e-05
1.60954e-05
1.60955e-05
1.60956e-05
1.60956e-05
1.60956e-05
1.60923e-05
1.60925e-05
1.60959e-05
1.60959e-05
1.60959e-05
1.60958e-05
1.60957e-05
1.60956e-05
1.60954e-05
1.60953e-05
1.60951e-05
1.60949e-05
1.60948e-05
1.60946e-05
1.60944e-05
1.60943e-05
1.60943e-05
1.60944e-05
1.60946e-05
1.60948e-05
1.60949e-05
1.60951e-05
1.60952e-05
1.60954e-05
1.60955e-05
1.60957e-05
1.60958e-05
1.60959e-05
1.60959e-05
1.60959e-05
1.60926e-05
1.6093e-05
1.60964e-05
1.60964e-05
1.60963e-05
1.60962e-05
1.60961e-05
1.60959e-05
1.60957e-05
1.60956e-05
1.60953e-05
1.60951e-05
1.60949e-05
1.60947e-05
1.60945e-05
1.60943e-05
1.60943e-05
1.60945e-05
1.60947e-05
1.60949e-05
1.60951e-05
1.60953e-05
1.60956e-05
1.60957e-05
1.60959e-05
1.60961e-05
1.60962e-05
1.60963e-05
1.60963e-05
1.60964e-05
1.6093e-05
1.60935e-05
1.6097e-05
1.6097e-05
1.60969e-05
1.60967e-05
1.60965e-05
1.60963e-05
1.60961e-05
1.60959e-05
1.60956e-05
1.60954e-05
1.60951e-05
1.60948e-05
1.60946e-05
1.60944e-05
1.60944e-05
1.60946e-05
1.60949e-05
1.60951e-05
1.60954e-05
1.60957e-05
1.6096e-05
1.60962e-05
1.60964e-05
1.60965e-05
1.60967e-05
1.60968e-05
1.60969e-05
1.60969e-05
1.60936e-05
1.60942e-05
1.60976e-05
1.60976e-05
1.60975e-05
1.60973e-05
1.60971e-05
1.60969e-05
1.60966e-05
1.60963e-05
1.6096e-05
1.60957e-05
1.60954e-05
1.60951e-05
1.60947e-05
1.60945e-05
1.60945e-05
1.60947e-05
1.60951e-05
1.60954e-05
1.60958e-05
1.60961e-05
1.60964e-05
1.60967e-05
1.60969e-05
1.60971e-05
1.60973e-05
1.60974e-05
1.60976e-05
1.60976e-05
1.60942e-05
1.6095e-05
1.60984e-05
1.60983e-05
1.60982e-05
1.6098e-05
1.60977e-05
1.60975e-05
1.60972e-05
1.60969e-05
1.60966e-05
1.60962e-05
1.60958e-05
1.60954e-05
1.6095e-05
1.60947e-05
1.60946e-05
1.60949e-05
1.60954e-05
1.60958e-05
1.60962e-05
1.60966e-05
1.6097e-05
1.60973e-05
1.60975e-05
1.60978e-05
1.6098e-05
1.60982e-05
1.60983e-05
1.60984e-05
1.6095e-05
1.60959e-05
1.60993e-05
1.60992e-05
1.6099e-05
1.60988e-05
1.60985e-05
1.60983e-05
1.60979e-05
1.60976e-05
1.60972e-05
1.60967e-05
1.60962e-05
1.60957e-05
1.60952e-05
1.60948e-05
1.60948e-05
1.60952e-05
1.60957e-05
1.60962e-05
1.60967e-05
1.60971e-05
1.60976e-05
1.60979e-05
1.60983e-05
1.60986e-05
1.60989e-05
1.60991e-05
1.60992e-05
1.60992e-05
1.60958e-05
1.6097e-05
1.61004e-05
1.61003e-05
1.61001e-05
1.60999e-05
1.60996e-05
1.60992e-05
1.60988e-05
1.60984e-05
1.60979e-05
1.60973e-05
1.60967e-05
1.60961e-05
1.60955e-05
1.60951e-05
1.60951e-05
1.60955e-05
1.60961e-05
1.60967e-05
1.60972e-05
1.60978e-05
1.60983e-05
1.60988e-05
1.60992e-05
1.60996e-05
1.61e-05
1.61002e-05
1.61003e-05
1.61004e-05
1.6097e-05
1.60984e-05
1.61018e-05
1.61017e-05
1.61015e-05
1.61012e-05
1.61008e-05
1.61004e-05
1.60999e-05
1.60993e-05
1.60987e-05
1.6098e-05
1.60973e-05
1.60965e-05
1.60958e-05
1.60954e-05
1.60954e-05
1.60959e-05
1.60966e-05
1.60973e-05
1.6098e-05
1.60986e-05
1.60993e-05
1.60999e-05
1.61004e-05
1.61009e-05
1.61012e-05
1.61015e-05
1.61017e-05
1.61018e-05
1.60985e-05
1.61001e-05
1.61035e-05
1.61034e-05
1.61031e-05
1.61028e-05
1.61023e-05
1.61018e-05
1.61012e-05
1.61004e-05
1.60997e-05
1.60988e-05
1.6098e-05
1.60971e-05
1.60963e-05
1.60958e-05
1.60958e-05
1.60964e-05
1.60972e-05
1.60981e-05
1.60989e-05
1.60997e-05
1.61005e-05
1.61012e-05
1.61018e-05
1.61024e-05
1.61028e-05
1.61031e-05
1.61034e-05
1.61035e-05
1.61002e-05
1.61021e-05
1.61055e-05
1.61054e-05
1.61051e-05
1.61047e-05
1.61041e-05
1.61035e-05
1.61027e-05
1.61018e-05
1.61009e-05
1.60999e-05
1.60989e-05
1.60979e-05
1.6097e-05
1.60964e-05
1.60964e-05
1.60971e-05
1.6098e-05
1.60991e-05
1.61001e-05
1.61011e-05
1.6102e-05
1.61028e-05
1.61035e-05
1.61041e-05
1.61046e-05
1.61051e-05
1.61054e-05
1.61056e-05
1.61021e-05
1.61046e-05
1.6108e-05
1.61078e-05
1.61074e-05
1.61069e-05
1.61063e-05
1.61055e-05
1.61046e-05
1.61036e-05
1.61025e-05
1.61013e-05
1.61001e-05
1.60989e-05
1.60978e-05
1.60971e-05
1.6097e-05
1.60978e-05
1.6099e-05
1.61002e-05
1.61015e-05
1.61027e-05
1.61037e-05
1.61047e-05
1.61055e-05
1.61062e-05
1.61069e-05
1.61074e-05
1.61078e-05
1.61079e-05
1.61045e-05
1.61075e-05
1.61108e-05
1.61106e-05
1.61102e-05
1.61096e-05
1.61089e-05
1.61081e-05
1.6107e-05
1.61058e-05
1.61045e-05
1.61031e-05
1.61016e-05
1.61002e-05
1.60988e-05
1.60979e-05
1.60979e-05
1.60988e-05
1.61001e-05
1.61016e-05
1.61032e-05
1.61046e-05
1.61058e-05
1.6107e-05
1.6108e-05
1.61089e-05
1.61096e-05
1.61102e-05
1.61106e-05
1.61108e-05
1.61074e-05
1.6111e-05
1.61143e-05
1.6114e-05
1.61136e-05
1.61129e-05
1.61121e-05
1.61111e-05
1.61099e-05
1.61085e-05
1.61069e-05
1.61052e-05
1.61035e-05
1.61017e-05
1.61001e-05
1.6099e-05
1.6099e-05
1.61e-05
1.61016e-05
1.61035e-05
1.61053e-05
1.6107e-05
1.61085e-05
1.61099e-05
1.61111e-05
1.61121e-05
1.6113e-05
1.61136e-05
1.6114e-05
1.61143e-05
1.6111e-05
1.61151e-05
1.61184e-05
1.61181e-05
1.61176e-05
1.61169e-05
1.6116e-05
1.61148e-05
1.61134e-05
1.61117e-05
1.61098e-05
1.61078e-05
1.61057e-05
1.61036e-05
1.61017e-05
1.61005e-05
1.61006e-05
1.61018e-05
1.61037e-05
1.61058e-05
1.61079e-05
1.61099e-05
1.61117e-05
1.61134e-05
1.61148e-05
1.6116e-05
1.61169e-05
1.61176e-05
1.61182e-05
1.61185e-05
1.61152e-05
1.612e-05
1.61234e-05
1.61231e-05
1.61225e-05
1.61217e-05
1.61206e-05
1.61191e-05
1.61174e-05
1.61155e-05
1.61133e-05
1.6111e-05
1.61085e-05
1.61061e-05
1.61039e-05
1.61026e-05
1.61027e-05
1.6104e-05
1.61062e-05
1.61086e-05
1.61111e-05
1.61134e-05
1.61156e-05
1.61176e-05
1.61192e-05
1.61206e-05
1.61216e-05
1.61224e-05
1.61231e-05
1.61235e-05
1.61201e-05
1.6126e-05
1.61294e-05
1.6129e-05
1.61283e-05
1.61273e-05
1.6126e-05
1.61243e-05
1.61224e-05
1.61201e-05
1.61176e-05
1.61149e-05
1.6112e-05
1.61092e-05
1.61068e-05
1.61053e-05
1.61054e-05
1.61069e-05
1.61093e-05
1.61121e-05
1.61149e-05
1.61177e-05
1.61203e-05
1.61226e-05
1.61245e-05
1.6126e-05
1.61272e-05
1.61283e-05
1.6129e-05
1.61294e-05
1.61259e-05
1.6133e-05
1.61364e-05
1.6136e-05
1.61351e-05
1.6134e-05
1.61325e-05
1.61306e-05
1.61284e-05
1.61259e-05
1.6123e-05
1.61198e-05
1.61165e-05
1.61132e-05
1.61104e-05
1.61088e-05
1.61088e-05
1.61104e-05
1.61132e-05
1.61164e-05
1.61197e-05
1.6123e-05
1.6126e-05
1.61286e-05
1.61307e-05
1.61325e-05
1.6134e-05
1.61352e-05
1.6136e-05
1.61364e-05
1.6133e-05
1.61411e-05
1.61446e-05
1.61441e-05
1.61431e-05
1.61418e-05
1.61402e-05
1.61381e-05
1.61357e-05
1.61328e-05
1.61294e-05
1.61257e-05
1.61219e-05
1.61181e-05
1.6115e-05
1.61131e-05
1.61131e-05
1.6115e-05
1.61181e-05
1.61217e-05
1.61256e-05
1.61294e-05
1.61328e-05
1.61357e-05
1.61382e-05
1.61403e-05
1.6142e-05
1.61432e-05
1.61441e-05
1.61446e-05
1.61412e-05
1.61506e-05
1.61541e-05
1.61535e-05
1.61525e-05
1.61511e-05
1.61493e-05
1.61471e-05
1.61443e-05
1.6141e-05
1.61372e-05
1.61329e-05
1.61285e-05
1.61243e-05
1.61208e-05
1.61188e-05
1.61188e-05
1.61208e-05
1.61243e-05
1.61285e-05
1.61329e-05
1.61371e-05
1.61409e-05
1.61442e-05
1.61471e-05
1.61494e-05
1.61513e-05
1.61526e-05
1.61535e-05
1.61541e-05
1.61506e-05
1.61616e-05
1.61651e-05
1.61645e-05
1.61635e-05
1.6162e-05
1.61601e-05
1.61576e-05
1.61546e-05
1.61508e-05
1.61465e-05
1.61417e-05
1.61367e-05
1.61321e-05
1.61283e-05
1.61261e-05
1.61261e-05
1.61282e-05
1.6132e-05
1.61368e-05
1.61417e-05
1.61464e-05
1.61506e-05
1.61543e-05
1.61575e-05
1.61601e-05
1.6162e-05
1.61634e-05
1.61645e-05
1.61651e-05
1.61615e-05
1.61741e-05
1.61777e-05
1.61771e-05
1.61761e-05
1.61746e-05
1.61726e-05
1.61699e-05
1.61665e-05
1.61624e-05
1.61576e-05
1.61524e-05
1.6147e-05
1.61419e-05
1.61377e-05
1.61353e-05
1.61353e-05
1.61376e-05
1.61418e-05
1.6147e-05
1.61524e-05
1.61576e-05
1.61623e-05
1.61664e-05
1.61698e-05
1.61725e-05
1.61745e-05
1.61761e-05
1.61772e-05
1.61777e-05
1.61741e-05
1.61884e-05
1.61921e-05
1.61916e-05
1.61906e-05
1.61891e-05
1.6187e-05
1.61842e-05
1.61806e-05
1.61762e-05
1.61711e-05
1.61654e-05
1.61596e-05
1.61541e-05
1.61496e-05
1.61471e-05
1.6147e-05
1.61495e-05
1.6154e-05
1.61596e-05
1.61654e-05
1.61711e-05
1.61762e-05
1.61806e-05
1.61842e-05
1.6187e-05
1.61891e-05
1.61906e-05
1.61916e-05
1.61921e-05
1.61884e-05
1.62045e-05
1.62084e-05
1.62079e-05
1.6207e-05
1.62055e-05
1.62035e-05
1.62007e-05
1.6197e-05
1.61925e-05
1.61871e-05
1.61812e-05
1.6175e-05
1.61691e-05
1.61644e-05
1.61617e-05
1.61617e-05
1.61644e-05
1.61691e-05
1.6175e-05
1.61812e-05
1.61872e-05
1.61926e-05
1.61972e-05
1.62008e-05
1.62035e-05
1.62056e-05
1.6207e-05
1.62078e-05
1.62082e-05
1.62044e-05
1.62225e-05
1.62265e-05
1.62261e-05
1.62253e-05
1.62241e-05
1.62222e-05
1.62196e-05
1.6216e-05
1.62115e-05
1.62061e-05
1.61999e-05
1.61936e-05
1.61875e-05
1.61828e-05
1.61801e-05
1.61801e-05
1.61828e-05
1.61876e-05
1.61936e-05
1.62e-05
1.62061e-05
1.62116e-05
1.62161e-05
1.62196e-05
1.62223e-05
1.62241e-05
1.62253e-05
1.6226e-05
1.62263e-05
1.62224e-05
1.62423e-05
1.62463e-05
1.62461e-05
1.62456e-05
1.62447e-05
1.62433e-05
1.6241e-05
1.62378e-05
1.62335e-05
1.62282e-05
1.62222e-05
1.62159e-05
1.62099e-05
1.62052e-05
1.62025e-05
1.62025e-05
1.62052e-05
1.62099e-05
1.62158e-05
1.62221e-05
1.62282e-05
1.62335e-05
1.62378e-05
1.6241e-05
1.62433e-05
1.62448e-05
1.62456e-05
1.62461e-05
1.62462e-05
1.62422e-05
1.62636e-05
1.62677e-05
1.62679e-05
1.62678e-05
1.62675e-05
1.62666e-05
1.62649e-05
1.62623e-05
1.62586e-05
1.62538e-05
1.62482e-05
1.62423e-05
1.62367e-05
1.62321e-05
1.62296e-05
1.62295e-05
1.6232e-05
1.62365e-05
1.62421e-05
1.62482e-05
1.62538e-05
1.62586e-05
1.62623e-05
1.62649e-05
1.62666e-05
1.62675e-05
1.62678e-05
1.62678e-05
1.62677e-05
1.62636e-05
1.62863e-05
1.62905e-05
1.62911e-05
1.62916e-05
1.6292e-05
1.6292e-05
1.62912e-05
1.62895e-05
1.62867e-05
1.62829e-05
1.62783e-05
1.62731e-05
1.6268e-05
1.62639e-05
1.62616e-05
1.62616e-05
1.62639e-05
1.62679e-05
1.6273e-05
1.62782e-05
1.6283e-05
1.62868e-05
1.62895e-05
1.62912e-05
1.62919e-05
1.6292e-05
1.62916e-05
1.6291e-05
1.62905e-05
1.62862e-05
1.63099e-05
1.63143e-05
1.63154e-05
1.63167e-05
1.6318e-05
1.6319e-05
1.63195e-05
1.63192e-05
1.63179e-05
1.63155e-05
1.63121e-05
1.63082e-05
1.63041e-05
1.63008e-05
1.6299e-05
1.62991e-05
1.63009e-05
1.63042e-05
1.63081e-05
1.63121e-05
1.63155e-05
1.63179e-05
1.63192e-05
1.63195e-05
1.6319e-05
1.63179e-05
1.63166e-05
1.63154e-05
1.63144e-05
1.63098e-05
1.63339e-05
1.63385e-05
1.63402e-05
1.63423e-05
1.63448e-05
1.63472e-05
1.63493e-05
1.63508e-05
1.63514e-05
1.63509e-05
1.63495e-05
1.63472e-05
1.63447e-05
1.63426e-05
1.63414e-05
1.63415e-05
1.63427e-05
1.63448e-05
1.63473e-05
1.63495e-05
1.63509e-05
1.63514e-05
1.63508e-05
1.63493e-05
1.63472e-05
1.63447e-05
1.63424e-05
1.63403e-05
1.63387e-05
1.63339e-05
1.63576e-05
1.63625e-05
1.63648e-05
1.6368e-05
1.63717e-05
1.63757e-05
1.63798e-05
1.63835e-05
1.63864e-05
1.63884e-05
1.63894e-05
1.63896e-05
1.63891e-05
1.63884e-05
1.6388e-05
1.6388e-05
1.63884e-05
1.6389e-05
1.63896e-05
1.63895e-05
1.63885e-05
1.63864e-05
1.63835e-05
1.63798e-05
1.63758e-05
1.63716e-05
1.6368e-05
1.6365e-05
1.63626e-05
1.63577e-05
1.63803e-05
1.63854e-05
1.63884e-05
1.63926e-05
1.63978e-05
1.64037e-05
1.641e-05
1.64162e-05
1.64219e-05
1.64268e-05
1.64308e-05
1.64336e-05
1.64355e-05
1.64366e-05
1.6437e-05
1.6437e-05
1.64365e-05
1.64354e-05
1.64336e-05
1.64308e-05
1.64268e-05
1.64219e-05
1.64161e-05
1.641e-05
1.64037e-05
1.63978e-05
1.63926e-05
1.63885e-05
1.63855e-05
1.63804e-05
1.64011e-05
1.64064e-05
1.64101e-05
1.64154e-05
1.64221e-05
1.64299e-05
1.64385e-05
1.64474e-05
1.64562e-05
1.64644e-05
1.64716e-05
1.64775e-05
1.64819e-05
1.64849e-05
1.64863e-05
1.64863e-05
1.64848e-05
1.64819e-05
1.64774e-05
1.64715e-05
1.64644e-05
1.64562e-05
1.64474e-05
1.64385e-05
1.64299e-05
1.64221e-05
1.64154e-05
1.64101e-05
1.64065e-05
1.64012e-05
1.6418e-05
1.64233e-05
1.64277e-05
1.64339e-05
1.64421e-05
1.64517e-05
1.64625e-05
1.64741e-05
1.64859e-05
1.64973e-05
1.65078e-05
1.65167e-05
1.65238e-05
1.65287e-05
1.65312e-05
1.65312e-05
1.65287e-05
1.65238e-05
1.65167e-05
1.65077e-05
1.64973e-05
1.64859e-05
1.64741e-05
1.64625e-05
1.64517e-05
1.64421e-05
1.6434e-05
1.64277e-05
1.64235e-05
1.6418e-05
1.64554e-05
1.64606e-05
1.64661e-05
1.64735e-05
1.64837e-05
1.64959e-05
1.65096e-05
1.65245e-05
1.65402e-05
1.65555e-05
1.65698e-05
1.65823e-05
1.65925e-05
1.65995e-05
1.6603e-05
1.66031e-05
1.65995e-05
1.65926e-05
1.65824e-05
1.65697e-05
1.65554e-05
1.65401e-05
1.65247e-05
1.65095e-05
1.64958e-05
1.64839e-05
1.64739e-05
1.64661e-05
1.6461e-05
1.6455e-05
1.63251e-05
1.63278e-05
1.63333e-05
1.63389e-05
1.63539e-05
1.63608e-05
1.6375e-05
1.63854e-05
1.63973e-05
1.64097e-05
1.64224e-05
1.64379e-05
1.6463e-05
1.64946e-05
1.65533e-05
1.65535e-05
1.64944e-05
1.6463e-05
1.64377e-05
1.64228e-05
1.641e-05
1.63971e-05
1.63836e-05
1.63703e-05
1.63587e-05
1.63468e-05
1.63368e-05
1.63304e-05
1.63274e-05
1.63246e-05
1.68457e-05
1.67214e-05
1.67682e-05
1.70149e-05
1.73117e-05
1.7535e-05
1.76231e-05
1.77455e-05
1.78869e-05
1.82485e-05
1.99987e-05
2.5895e-05
3.86076e-05
5.39508e-05
8.28932e-05
8.28895e-05
5.39174e-05
3.86034e-05
2.59439e-05
2.00539e-05
1.82881e-05
1.78629e-05
1.76777e-05
1.75081e-05
1.73051e-05
1.70686e-05
1.68473e-05
1.6685e-05
1.66549e-05
1.66523e-05
2.35757e-05
2.49276e-05
2.56399e-05
2.75834e-05
2.94467e-05
3.16313e-05
3.581e-05
4.55276e-05
7.47746e-05
0.000201739
0.000712661
0.00216614
0.00470921
0.00765363
0.0119851
0.0119808
0.00764939
0.00471556
0.00217559
0.000718366
0.000203448
7.52484e-05
4.55884e-05
3.58514e-05
3.18961e-05
2.91931e-05
2.717e-05
2.54995e-05
2.39233e-05
2.34137e-05
2.67599e-05
2.76787e-05
2.89095e-05
3.10862e-05
3.36055e-05
3.69514e-05
4.18361e-05
4.92921e-05
6.59741e-05
0.00011846
0.000293994
0.000779789
0.00171074
0.00299451
0.00514802
0.00514558
0.00299274
0.00171185
0.000781527
0.000295216
0.000119007
6.62275e-05
4.93409e-05
4.18937e-05
3.71259e-05
3.35549e-05
3.0904e-05
2.89178e-05
2.75406e-05
2.68843e-05
3.04628e-05
3.11804e-05
3.24924e-05
3.45064e-05
3.714e-05
4.05699e-05
4.50794e-05
5.10683e-05
6.03849e-05
8.13315e-05
0.000141235
0.000301911
0.000634871
0.00116446
0.00206947
0.00206819
0.00116386
0.000634905
0.000302239
0.0001416
8.15484e-05
6.05178e-05
5.11446e-05
4.51298e-05
4.06429e-05
3.71528e-05
3.44428e-05
3.23822e-05
3.10954e-05
3.05888e-05
3.40213e-05
3.46792e-05
3.59189e-05
3.77938e-05
4.026e-05
4.34011e-05
4.73179e-05
5.21393e-05
5.82685e-05
6.72729e-05
8.49727e-05
0.000126215
0.000212146
0.000366182
0.000654814
0.000654397
0.00036614
0.000212135
0.000126276
8.50962e-05
6.73885e-05
5.83673e-05
5.22236e-05
4.73699e-05
4.3443e-05
4.02762e-05
3.77781e-05
3.58393e-05
3.45508e-05
3.41235e-05
3.70293e-05
3.75698e-05
3.86895e-05
4.0379e-05
4.25996e-05
4.53886e-05
4.87538e-05
5.27155e-05
5.72998e-05
6.26978e-05
6.9615e-05
8.02195e-05
9.81019e-05
0.000128592
0.000186217
0.000186148
0.000128617
9.81307e-05
8.02586e-05
6.96814e-05
6.27837e-05
5.73704e-05
5.27622e-05
4.87873e-05
4.54177e-05
4.26158e-05
4.03757e-05
3.86792e-05
3.74821e-05
3.70104e-05
3.91949e-05
3.96868e-05
4.0696e-05
4.21832e-05
4.41518e-05
4.65879e-05
4.947e-05
5.27763e-05
5.64542e-05
6.04512e-05
6.47419e-05
6.94006e-05
7.47001e-05
8.12093e-05
9.04678e-05
9.04687e-05
8.1239e-05
7.47477e-05
6.94422e-05
6.47899e-05
6.05049e-05
5.6487e-05
5.2802e-05
4.94961e-05
4.66071e-05
4.41657e-05
4.21843e-05
4.07009e-05
3.96667e-05
3.91631e-05
4.05124e-05
4.10578e-05
4.19303e-05
4.32313e-05
4.49338e-05
4.70316e-05
4.94779e-05
5.22338e-05
5.52371e-05
5.84067e-05
6.16087e-05
6.47174e-05
6.75868e-05
7.01038e-05
7.21866e-05
7.21971e-05
7.01541e-05
6.76291e-05
6.47524e-05
6.16573e-05
5.84483e-05
5.52731e-05
5.22662e-05
4.95004e-05
4.70411e-05
4.49448e-05
4.3223e-05
4.19328e-05
4.10609e-05
4.05329e-05
4.11219e-05
4.16797e-05
4.24153e-05
4.35262e-05
4.49818e-05
4.67546e-05
4.88006e-05
5.10752e-05
5.35158e-05
5.60453e-05
5.85203e-05
6.08324e-05
6.28372e-05
6.4387e-05
6.53009e-05
6.53102e-05
6.44066e-05
6.28518e-05
6.08502e-05
5.855e-05
5.60781e-05
5.35622e-05
5.1111e-05
4.88155e-05
4.67613e-05
4.49862e-05
4.35205e-05
4.2414e-05
4.16784e-05
4.11249e-05
4.10131e-05
4.15705e-05
4.21797e-05
4.30894e-05
4.42986e-05
4.57567e-05
4.7431e-05
4.92564e-05
5.11936e-05
5.31689e-05
5.50667e-05
5.68088e-05
5.82737e-05
5.935e-05
5.99166e-05
5.99369e-05
5.93615e-05
5.82819e-05
5.68416e-05
5.5111e-05
5.32072e-05
5.12285e-05
4.92815e-05
4.74473e-05
4.57777e-05
4.43109e-05
4.30963e-05
4.21728e-05
4.156e-05
4.10005e-05
4.02595e-05
4.08195e-05
4.12907e-05
4.20377e-05
4.30101e-05
4.41802e-05
4.5503e-05
4.69201e-05
4.84142e-05
4.98909e-05
5.12856e-05
5.25334e-05
5.35612e-05
5.42817e-05
5.46654e-05
5.46801e-05
5.42862e-05
5.35547e-05
5.25284e-05
5.1285e-05
4.98872e-05
4.84188e-05
4.69487e-05
4.55276e-05
4.42005e-05
4.30243e-05
4.20502e-05
4.12971e-05
4.08117e-05
4.0267e-05
3.90515e-05
3.95823e-05
3.99266e-05
4.05041e-05
4.12649e-05
4.21724e-05
4.3181e-05
4.42308e-05
4.53138e-05
4.63424e-05
4.72833e-05
4.8104e-05
4.87438e-05
4.91722e-05
4.94176e-05
4.94211e-05
4.91755e-05
4.87284e-05
4.80902e-05
4.72927e-05
4.63564e-05
4.53327e-05
4.42655e-05
4.31982e-05
4.21847e-05
4.1284e-05
4.05266e-05
3.99361e-05
3.95781e-05
3.90493e-05
3.74627e-05
3.79548e-05
3.82016e-05
3.86474e-05
3.92215e-05
3.98907e-05
4.06053e-05
4.13346e-05
4.20365e-05
4.26668e-05
4.32262e-05
4.369e-05
4.40146e-05
4.42221e-05
4.4324e-05
4.4318e-05
4.42235e-05
4.40288e-05
4.37234e-05
4.32834e-05
4.27251e-05
4.20746e-05
4.13582e-05
4.06145e-05
3.98952e-05
3.92417e-05
3.86817e-05
3.82408e-05
3.79822e-05
3.7477e-05
3.56739e-05
3.61115e-05
3.62752e-05
3.65994e-05
3.70083e-05
3.74823e-05
3.79556e-05
3.84091e-05
3.88075e-05
3.91334e-05
3.93769e-05
3.9521e-05
3.95774e-05
3.9601e-05
3.96091e-05
3.96123e-05
3.96221e-05
3.96092e-05
3.95391e-05
3.93843e-05
3.91411e-05
3.88148e-05
3.84127e-05
3.79582e-05
3.74876e-05
3.70424e-05
3.66459e-05
3.6321e-05
3.61485e-05
3.56867e-05
3.37633e-05
3.41745e-05
3.42771e-05
3.44892e-05
3.47518e-05
3.50439e-05
3.53127e-05
3.5545e-05
3.57083e-05
3.57922e-05
3.57884e-05
3.56992e-05
3.55759e-05
3.54581e-05
3.53759e-05
3.53723e-05
3.54484e-05
3.55708e-05
3.56952e-05
3.57836e-05
3.58025e-05
3.57311e-05
3.55678e-05
3.53354e-05
3.50685e-05
3.47884e-05
3.45196e-05
3.42979e-05
3.42043e-05
3.37935e-05
3.18564e-05
3.22161e-05
3.22523e-05
3.23866e-05
3.25294e-05
3.26876e-05
3.27862e-05
3.28399e-05
3.28349e-05
3.27369e-05
3.25474e-05
3.23018e-05
3.20449e-05
3.18192e-05
3.16825e-05
3.16874e-05
3.18288e-05
3.20612e-05
3.23274e-05
3.25721e-05
3.27575e-05
3.28614e-05
3.28815e-05
3.28272e-05
3.27124e-05
3.25617e-05
3.24068e-05
3.22777e-05
3.2244e-05
3.18824e-05
2.99998e-05
3.03041e-05
3.03231e-05
3.03755e-05
3.04511e-05
3.04834e-05
3.04673e-05
3.04067e-05
3.02665e-05
3.00312e-05
2.97289e-05
2.93846e-05
2.90406e-05
2.87533e-05
2.85924e-05
2.86013e-05
2.87674e-05
2.90476e-05
2.93908e-05
2.9739e-05
3.00435e-05
3.02756e-05
3.04207e-05
3.04848e-05
3.04864e-05
3.04468e-05
3.0386e-05
3.03258e-05
3.03301e-05
3.00198e-05
2.82377e-05
2.85014e-05
2.84787e-05
2.84698e-05
2.84984e-05
2.84468e-05
2.8367e-05
2.82251e-05
2.79891e-05
2.76787e-05
2.73113e-05
2.69076e-05
2.65138e-05
2.61929e-05
2.60135e-05
2.60152e-05
2.61943e-05
2.65117e-05
2.6906e-05
2.7314e-05
2.76847e-05
2.79885e-05
2.82161e-05
2.83709e-05
2.84615e-05
2.84981e-05
2.84976e-05
2.84843e-05
2.85159e-05
2.82599e-05
2.66122e-05
2.68316e-05
2.6778e-05
2.67633e-05
2.67041e-05
2.66135e-05
2.64923e-05
2.62881e-05
2.60037e-05
2.56612e-05
2.52596e-05
2.48276e-05
2.44176e-05
2.40942e-05
2.39162e-05
2.39193e-05
2.41032e-05
2.44283e-05
2.48348e-05
2.52635e-05
2.56685e-05
2.60196e-05
2.63016e-05
2.65096e-05
2.66475e-05
2.67282e-05
2.67702e-05
2.67941e-05
2.68445e-05
2.66363e-05
2.51803e-05
2.53474e-05
2.52695e-05
2.52296e-05
2.51323e-05
2.50363e-05
2.48708e-05
2.46309e-05
2.43365e-05
2.39782e-05
2.35645e-05
2.31335e-05
2.27344e-05
2.24188e-05
2.2238e-05
2.2235e-05
2.24148e-05
2.2736e-05
2.31403e-05
2.35707e-05
2.39819e-05
2.43444e-05
2.46427e-05
2.48728e-05
2.50394e-05
2.51534e-05
2.52275e-05
2.5275e-05
2.53319e-05
2.51642e-05
2.38369e-05
2.39882e-05
2.39166e-05
2.38529e-05
2.37735e-05
2.36511e-05
2.34562e-05
2.32153e-05
2.29189e-05
2.25592e-05
2.21584e-05
2.17501e-05
2.13724e-05
2.10687e-05
2.08934e-05
2.08928e-05
2.10687e-05
2.13781e-05
2.1763e-05
2.21709e-05
2.25633e-05
2.29166e-05
2.32172e-05
2.3459e-05
2.36427e-05
2.37749e-05
2.38643e-05
2.39228e-05
2.39818e-05
2.38522e-05
2.27084e-05
2.27801e-05
2.27386e-05
2.26666e-05
2.25834e-05
2.24353e-05
2.22465e-05
2.20172e-05
2.17271e-05
2.13867e-05
2.10161e-05
2.06395e-05
2.02852e-05
1.99965e-05
1.98306e-05
1.98305e-05
1.9995e-05
2.02821e-05
2.06381e-05
2.10172e-05
2.1387e-05
2.17254e-05
2.20169e-05
2.22541e-05
2.24377e-05
2.25737e-05
2.26701e-05
2.27368e-05
2.27979e-05
2.27001e-05
2.16884e-05
2.17519e-05
2.17043e-05
2.16402e-05
2.15413e-05
2.14017e-05
2.12328e-05
2.10103e-05
2.07359e-05
2.04239e-05
2.00868e-05
1.97396e-05
1.94094e-05
1.91426e-05
1.89914e-05
1.89932e-05
1.91461e-05
1.94101e-05
1.97364e-05
2.00849e-05
2.04257e-05
2.07371e-05
2.1006e-05
2.1228e-05
2.14048e-05
2.15409e-05
2.16413e-05
2.17122e-05
2.17709e-05
2.16948e-05
2.07974e-05
2.08808e-05
2.0815e-05
2.07539e-05
2.06568e-05
2.05327e-05
2.03671e-05
2.01534e-05
1.9905e-05
1.96279e-05
1.93265e-05
1.90127e-05
1.87165e-05
1.84792e-05
1.83445e-05
1.83468e-05
1.84856e-05
1.87235e-05
1.90168e-05
1.93294e-05
1.96347e-05
1.99143e-05
2.01585e-05
2.03644e-05
2.0532e-05
2.06631e-05
2.07605e-05
2.08285e-05
2.08811e-05
2.08211e-05
2.00766e-05
2.01155e-05
2.00685e-05
2.00056e-05
1.99142e-05
1.97953e-05
1.9636e-05
1.9447e-05
1.92322e-05
1.89899e-05
1.87218e-05
1.8443e-05
1.81803e-05
1.7967e-05
1.78424e-05
1.78413e-05
1.79642e-05
1.81765e-05
1.84381e-05
1.87167e-05
1.89881e-05
1.92375e-05
1.94571e-05
1.96434e-05
1.97957e-05
1.99151e-05
2.00042e-05
2.00671e-05
2.01143e-05
2.00693e-05
1.94353e-05
1.94586e-05
1.94254e-05
1.93596e-05
1.92772e-05
1.91678e-05
1.90309e-05
1.88701e-05
1.8682e-05
1.84654e-05
1.82274e-05
1.79825e-05
1.77502e-05
1.75584e-05
1.74444e-05
1.74427e-05
1.75542e-05
1.77458e-05
1.79798e-05
1.82261e-05
1.84642e-05
1.86824e-05
1.88744e-05
1.90378e-05
1.91722e-05
1.9279e-05
1.93602e-05
1.94187e-05
1.94621e-05
1.94292e-05
1.88765e-05
1.89202e-05
1.88727e-05
1.88135e-05
1.87434e-05
1.86486e-05
1.8532e-05
1.83894e-05
1.82199e-05
1.80279e-05
1.7822e-05
1.76109e-05
1.74088e-05
1.724e-05
1.71391e-05
1.71391e-05
1.72405e-05
1.74112e-05
1.76157e-05
1.78282e-05
1.80327e-05
1.82204e-05
1.83868e-05
1.85298e-05
1.86492e-05
1.87453e-05
1.88193e-05
1.8873e-05
1.89117e-05
1.88865e-05
1.84327e-05
1.84543e-05
1.84071e-05
1.83633e-05
1.8301e-05
1.82183e-05
1.81137e-05
1.79864e-05
1.78383e-05
1.76748e-05
1.74998e-05
1.73188e-05
1.71438e-05
1.69955e-05
1.69054e-05
1.69051e-05
1.69945e-05
1.71424e-05
1.73174e-05
1.74988e-05
1.76745e-05
1.78375e-05
1.79833e-05
1.81096e-05
1.82154e-05
1.83006e-05
1.8366e-05
1.84133e-05
1.84465e-05
1.84262e-05
1.80458e-05
1.80448e-05
1.8019e-05
1.7983e-05
1.79253e-05
1.78501e-05
1.7758e-05
1.76503e-05
1.75273e-05
1.73899e-05
1.724e-05
1.70833e-05
1.69304e-05
1.67996e-05
1.67197e-05
1.67196e-05
1.6798e-05
1.69258e-05
1.70763e-05
1.72328e-05
1.73854e-05
1.75272e-05
1.76541e-05
1.77635e-05
1.78546e-05
1.79277e-05
1.79839e-05
1.80249e-05
1.80535e-05
1.8038e-05
1.77048e-05
1.77186e-05
1.77016e-05
1.76636e-05
1.76104e-05
1.75438e-05
1.74676e-05
1.73791e-05
1.72757e-05
1.71575e-05
1.70274e-05
1.68914e-05
1.67593e-05
1.66473e-05
1.6579e-05
1.65799e-05
1.66489e-05
1.67599e-05
1.68898e-05
1.70245e-05
1.71549e-05
1.72754e-05
1.73826e-05
1.7475e-05
1.7552e-05
1.76143e-05
1.76631e-05
1.76995e-05
1.77252e-05
1.77136e-05
1.74367e-05
1.74587e-05
1.74353e-05
1.74001e-05
1.73536e-05
1.72993e-05
1.72357e-05
1.71588e-05
1.70686e-05
1.69664e-05
1.68552e-05
1.674e-05
1.66296e-05
1.65355e-05
1.64767e-05
1.6477e-05
1.65371e-05
1.66326e-05
1.6743e-05
1.68561e-05
1.6965e-05
1.70656e-05
1.71556e-05
1.72337e-05
1.72997e-05
1.73541e-05
1.73974e-05
1.74302e-05
1.74529e-05
1.74428e-05
1.72178e-05
1.72258e-05
1.72049e-05
1.71781e-05
1.71413e-05
1.70965e-05
1.7039e-05
1.69706e-05
1.68932e-05
1.68075e-05
1.67152e-05
1.66208e-05
1.65296e-05
1.64492e-05
1.63962e-05
1.63953e-05