/*--------------------------------*- C++ -*----------------------------------*\
| =========                 |                                                 |
| \\      /  F ield         | OpenFOAM: The Open Source CFD Toolbox           |
|  \\    /   O peration     | Version:  2312                                  |
|   \\  /    A nd           | Website:  www.openfoam.com                      |
|    \\/     M anipulation  |                                                 |
\*---------------------------------------------------------------------------*/
FoamFile
{
    version     2.0;
    format      ascii;
    arch        "LSB;label=32;scalar=64";
    class       volScalarField;
    location    "0.198545";
    object      k;
}
// * * * * * * * * * * * * * * * * * * * * * * * * * * * * * * * * * * * * * //

dimensions      [0 2 -2 0 0 0 0];

internalField   nonuniform List<scalar> 
90000
(
3.40994e-05
3.40998e-05
3.40998e-05
3.40998e-05
3.40998e-05
3.40998e-05
3.40998e-05
3.40998e-05
3.40998e-05
3.40998e-05
3.40997e-05
3.40997e-05
3.40996e-05
3.40996e-05
3.40996e-05
3.40995e-05
3.40995e-05
3.40996e-05
3.40996e-05
3.40997e-05
3.40997e-05
3.40997e-05
3.40997e-05
3.40997e-05
3.40997e-05
3.40997e-05
3.40997e-05
3.40997e-05
3.40997e-05
3.40997e-05
3.40998e-05
3.41052e-05
3.41053e-05
3.41053e-05
3.41053e-05
3.41053e-05
3.41053e-05
3.41052e-05
3.41052e-05
3.41052e-05
3.41051e-05
3.41051e-05
3.4105e-05
3.4105e-05
3.41049e-05
3.41049e-05
3.41049e-05
3.4105e-05
3.4105e-05
3.41051e-05
3.41051e-05
3.41052e-05
3.41052e-05
3.41052e-05
3.41052e-05
3.41052e-05
3.41052e-05
3.41053e-05
3.41055e-05
3.4101e-05
3.40998e-05
3.41053e-05
3.41053e-05
3.41053e-05
3.41053e-05
3.41053e-05
3.41053e-05
3.41053e-05
3.41052e-05
3.41052e-05
3.41052e-05
3.41051e-05
3.41051e-05
3.4105e-05
3.4105e-05
3.4105e-05
3.4105e-05
3.41051e-05
3.41051e-05
3.41051e-05
3.41052e-05
3.41052e-05
3.41052e-05
3.41052e-05
3.41052e-05
3.41052e-05
3.41052e-05
3.41049e-05
3.41044e-05
3.41e-05
3.40998e-05
3.41052e-05
3.41053e-05
3.41053e-05
3.41053e-05
3.41053e-05
3.41053e-05
3.41052e-05
3.41052e-05
3.41052e-05
3.41052e-05
3.41051e-05
3.41051e-05
3.41051e-05
3.4105e-05
3.4105e-05
3.4105e-05
3.41051e-05
3.41051e-05
3.41051e-05
3.41052e-05
3.41052e-05
3.41052e-05
3.41052e-05
3.41052e-05
3.41052e-05
3.41053e-05
3.41054e-05
3.41049e-05
3.40998e-05
3.40998e-05
3.41052e-05
3.41052e-05
3.41052e-05
3.41052e-05
3.41052e-05
3.41052e-05
3.41052e-05
3.41052e-05
3.41052e-05
3.41051e-05
3.41051e-05
3.41051e-05
3.41051e-05
3.4105e-05
3.4105e-05
3.41051e-05
3.41051e-05
3.41051e-05
3.41051e-05
3.41052e-05
3.41052e-05
3.41052e-05
3.41052e-05
3.41052e-05
3.41052e-05
3.41052e-05
3.41053e-05
3.41051e-05
3.40998e-05
3.40998e-05
3.41051e-05
3.41052e-05
3.41052e-05
3.41052e-05
3.41052e-05
3.41052e-05
3.41052e-05
3.41052e-05
3.41052e-05
3.41052e-05
3.41051e-05
3.41051e-05
3.41051e-05
3.41051e-05
3.41051e-05
3.41051e-05
3.41051e-05
3.41051e-05
3.41052e-05
3.41052e-05
3.41052e-05
3.41052e-05
3.41052e-05
3.41052e-05
3.41052e-05
3.41052e-05
3.41053e-05
3.41052e-05
3.40999e-05
3.40999e-05
3.41052e-05
3.41052e-05
3.41053e-05
3.41053e-05
3.41053e-05
3.41052e-05
3.41052e-05
3.41052e-05
3.41052e-05
3.41052e-05
3.41052e-05
3.41051e-05
3.41051e-05
3.41051e-05
3.41051e-05
3.41051e-05
3.41051e-05
3.41052e-05
3.41052e-05
3.41052e-05
3.41052e-05
3.41052e-05
3.41053e-05
3.41053e-05
3.41053e-05
3.41053e-05
3.41053e-05
3.41052e-05
3.40999e-05
3.41e-05
3.41052e-05
3.41053e-05
3.41054e-05
3.41054e-05
3.41053e-05
3.41053e-05
3.41053e-05
3.41053e-05
3.41053e-05
3.41052e-05
3.41052e-05
3.41051e-05
3.41051e-05
3.41051e-05
3.4105e-05
3.41051e-05
3.41051e-05
3.41052e-05
3.41052e-05
3.41052e-05
3.41053e-05
3.41053e-05
3.41054e-05
3.41054e-05
3.41054e-05
3.41054e-05
3.41054e-05
3.41053e-05
3.41e-05
3.41001e-05
3.41054e-05
3.41055e-05
3.41055e-05
3.41055e-05
3.41055e-05
3.41055e-05
3.41054e-05
3.41054e-05
3.41053e-05
3.41053e-05
3.41052e-05
3.41051e-05
3.41051e-05
3.4105e-05
3.4105e-05
3.4105e-05
3.41051e-05
3.41052e-05
3.41052e-05
3.41053e-05
3.41054e-05
3.41054e-05
3.41055e-05
3.41055e-05
3.41055e-05
3.41055e-05
3.41055e-05
3.41054e-05
3.41001e-05
3.41003e-05
3.41056e-05
3.41057e-05
3.41057e-05
3.41057e-05
3.41056e-05
3.41056e-05
3.41056e-05
3.41055e-05
3.41054e-05
3.41053e-05
3.41052e-05
3.41051e-05
3.41051e-05
3.4105e-05
3.4105e-05
3.4105e-05
3.41051e-05
3.41052e-05
3.41053e-05
3.41054e-05
3.41055e-05
3.41055e-05
3.41056e-05
3.41056e-05
3.41057e-05
3.41057e-05
3.41057e-05
3.41055e-05
3.41002e-05
3.41005e-05
3.41058e-05
3.41059e-05
3.41059e-05
3.41059e-05
3.41058e-05
3.41058e-05
3.41057e-05
3.41056e-05
3.41055e-05
3.41054e-05
3.41053e-05
3.41052e-05
3.41051e-05
3.41049e-05
3.41049e-05
3.4105e-05
3.41051e-05
3.41052e-05
3.41054e-05
3.41055e-05
3.41056e-05
3.41057e-05
3.41058e-05
3.41058e-05
3.41058e-05
3.41059e-05
3.41059e-05
3.41058e-05
3.41005e-05
3.41008e-05
3.41061e-05
3.41061e-05
3.41061e-05
3.41061e-05
3.4106e-05
3.4106e-05
3.41059e-05
3.41058e-05
3.41057e-05
3.41055e-05
3.41054e-05
3.41052e-05
3.41051e-05
3.4105e-05
3.4105e-05
3.41051e-05
3.41052e-05
3.41054e-05
3.41055e-05
3.41057e-05
3.41058e-05
3.41059e-05
3.4106e-05
3.4106e-05
3.41061e-05
3.41061e-05
3.41062e-05
3.41061e-05
3.41008e-05
3.41011e-05
3.41063e-05
3.41064e-05
3.41064e-05
3.41063e-05
3.41063e-05
3.41062e-05
3.41061e-05
3.4106e-05
3.41058e-05
3.41057e-05
3.41055e-05
3.41054e-05
3.41052e-05
3.4105e-05
3.4105e-05
3.41052e-05
3.41054e-05
3.41055e-05
3.41057e-05
3.41058e-05
3.4106e-05
3.41061e-05
3.41062e-05
3.41063e-05
3.41064e-05
3.41065e-05
3.41065e-05
3.41065e-05
3.41012e-05
3.41014e-05
3.41067e-05
3.41067e-05
3.41067e-05
3.41067e-05
3.41066e-05
3.41065e-05
3.41064e-05
3.41062e-05
3.4106e-05
3.41059e-05
3.41057e-05
3.41055e-05
3.41053e-05
3.41051e-05
3.41051e-05
3.41053e-05
3.41055e-05
3.41057e-05
3.41059e-05
3.4106e-05
3.41062e-05
3.41063e-05
3.41065e-05
3.41066e-05
3.41067e-05
3.41069e-05
3.41069e-05
3.41069e-05
3.41016e-05
3.41018e-05
3.41072e-05
3.41072e-05
3.41072e-05
3.41071e-05
3.4107e-05
3.41068e-05
3.41067e-05
3.41065e-05
3.41063e-05
3.41061e-05
3.41059e-05
3.41056e-05
3.41054e-05
3.41052e-05
3.41052e-05
3.41054e-05
3.41057e-05
3.41059e-05
3.41061e-05
3.41063e-05
3.41064e-05
3.41066e-05
3.41068e-05
3.4107e-05
3.41072e-05
3.41073e-05
3.41074e-05
3.41074e-05
3.4102e-05
3.41024e-05
3.41078e-05
3.41079e-05
3.41078e-05
3.41077e-05
3.41075e-05
3.41073e-05
3.41071e-05
3.41068e-05
3.41066e-05
3.41063e-05
3.41061e-05
3.41058e-05
3.41055e-05
3.41052e-05
3.41053e-05
3.41055e-05
3.41058e-05
3.4106e-05
3.41063e-05
3.41065e-05
3.41068e-05
3.4107e-05
3.41073e-05
3.41075e-05
3.41076e-05
3.41078e-05
3.41079e-05
3.41079e-05
3.41025e-05
3.41032e-05
3.41086e-05
3.41086e-05
3.41085e-05
3.41083e-05
3.41081e-05
3.41078e-05
3.41076e-05
3.41073e-05
3.4107e-05
3.41066e-05
3.41063e-05
3.41059e-05
3.41056e-05
3.41053e-05
3.41053e-05
3.41056e-05
3.41059e-05
3.41063e-05
3.41066e-05
3.4107e-05
3.41073e-05
3.41076e-05
3.41078e-05
3.41081e-05
3.41082e-05
3.41084e-05
3.41085e-05
3.41085e-05
3.41032e-05
3.41041e-05
3.41095e-05
3.41095e-05
3.41093e-05
3.41091e-05
3.41088e-05
3.41085e-05
3.41082e-05
3.41078e-05
3.41074e-05
3.4107e-05
3.41066e-05
3.41062e-05
3.41057e-05
3.41054e-05
3.41054e-05
3.41058e-05
3.41062e-05
3.41066e-05
3.41071e-05
3.41075e-05
3.41079e-05
3.41083e-05
3.41086e-05
3.41088e-05
3.4109e-05
3.41092e-05
3.41093e-05
3.41094e-05
3.41041e-05
3.41051e-05
3.41105e-05
3.41104e-05
3.41102e-05
3.411e-05
3.41097e-05
3.41093e-05
3.41089e-05
3.41085e-05
3.4108e-05
3.41076e-05
3.4107e-05
3.41065e-05
3.4106e-05
3.41056e-05
3.41056e-05
3.4106e-05
3.41065e-05
3.41071e-05
3.41076e-05
3.41082e-05
3.41086e-05
3.4109e-05
3.41094e-05
3.41097e-05
3.411e-05
3.41102e-05
3.41104e-05
3.41105e-05
3.41051e-05
3.41063e-05
3.41117e-05
3.41116e-05
3.41113e-05
3.4111e-05
3.41107e-05
3.41103e-05
3.41099e-05
3.41094e-05
3.41088e-05
3.41083e-05
3.41076e-05
3.4107e-05
3.41064e-05
3.41058e-05
3.41058e-05
3.41063e-05
3.4107e-05
3.41076e-05
3.41083e-05
3.41089e-05
3.41095e-05
3.41099e-05
3.41104e-05
3.41108e-05
3.41111e-05
3.41114e-05
3.41116e-05
3.41117e-05
3.41063e-05
3.41078e-05
3.41131e-05
3.4113e-05
3.41127e-05
3.41124e-05
3.4112e-05
3.41115e-05
3.4111e-05
3.41104e-05
3.41098e-05
3.41091e-05
3.41083e-05
3.41075e-05
3.41067e-05
3.41061e-05
3.41061e-05
3.41067e-05
3.41075e-05
3.41083e-05
3.4109e-05
3.41097e-05
3.41104e-05
3.4111e-05
3.41116e-05
3.41121e-05
3.41125e-05
3.41128e-05
3.4113e-05
3.41131e-05
3.41077e-05
3.41095e-05
3.41148e-05
3.41147e-05
3.41144e-05
3.4114e-05
3.41136e-05
3.4113e-05
3.41124e-05
3.41117e-05
3.41109e-05
3.411e-05
3.41091e-05
3.41081e-05
3.41072e-05
3.41065e-05
3.41065e-05
3.41072e-05
3.41081e-05
3.4109e-05
3.41099e-05
3.41108e-05
3.41116e-05
3.41123e-05
3.4113e-05
3.41137e-05
3.41142e-05
3.41145e-05
3.41148e-05
3.41148e-05
3.41095e-05
3.41117e-05
3.4117e-05
3.41169e-05
3.41165e-05
3.41161e-05
3.41155e-05
3.41149e-05
3.41141e-05
3.41132e-05
3.41122e-05
3.41111e-05
3.41099e-05
3.41088e-05
3.41077e-05
3.41069e-05
3.4107e-05
3.41078e-05
3.41089e-05
3.411e-05
3.41111e-05
3.41121e-05
3.41131e-05
3.41141e-05
3.41149e-05
3.41156e-05
3.41162e-05
3.41166e-05
3.41169e-05
3.4117e-05
3.41118e-05
3.41143e-05
3.41197e-05
3.41195e-05
3.41191e-05
3.41186e-05
3.41179e-05
3.4117e-05
3.41161e-05
3.41149e-05
3.41137e-05
3.41124e-05
3.41111e-05
3.41097e-05
3.41085e-05
3.41076e-05
3.41077e-05
3.41086e-05
3.41099e-05
3.41112e-05
3.41125e-05
3.41138e-05
3.4115e-05
3.41162e-05
3.41171e-05
3.4118e-05
3.41186e-05
3.41191e-05
3.41196e-05
3.41198e-05
3.41145e-05
3.41176e-05
3.41229e-05
3.41227e-05
3.41222e-05
3.41215e-05
3.41207e-05
3.41197e-05
3.41185e-05
3.41172e-05
3.41157e-05
3.41141e-05
3.41125e-05
3.41109e-05
3.41095e-05
3.41085e-05
3.41085e-05
3.41096e-05
3.41111e-05
3.41127e-05
3.41144e-05
3.41159e-05
3.41174e-05
3.41186e-05
3.41198e-05
3.41207e-05
3.41215e-05
3.41222e-05
3.41227e-05
3.4123e-05
3.41176e-05
3.41214e-05
3.41267e-05
3.41265e-05
3.41259e-05
3.41251e-05
3.41241e-05
3.41229e-05
3.41215e-05
3.41199e-05
3.41182e-05
3.41164e-05
3.41144e-05
3.41125e-05
3.41108e-05
3.41095e-05
3.41095e-05
3.41108e-05
3.41126e-05
3.41145e-05
3.41165e-05
3.41184e-05
3.41201e-05
3.41216e-05
3.41229e-05
3.4124e-05
3.4125e-05
3.41259e-05
3.41264e-05
3.41267e-05
3.41213e-05
3.4126e-05
3.41313e-05
3.41309e-05
3.41303e-05
3.41294e-05
3.41283e-05
3.41269e-05
3.41253e-05
3.41234e-05
3.41213e-05
3.41191e-05
3.41168e-05
3.41144e-05
3.41123e-05
3.41109e-05
3.41108e-05
3.41122e-05
3.41144e-05
3.41168e-05
3.41192e-05
3.41214e-05
3.41234e-05
3.41252e-05
3.41268e-05
3.41282e-05
3.41294e-05
3.41303e-05
3.41309e-05
3.41312e-05
3.41259e-05
3.41314e-05
3.41367e-05
3.41363e-05
3.41356e-05
3.41346e-05
3.41333e-05
3.41317e-05
3.41298e-05
3.41276e-05
3.41251e-05
3.41224e-05
3.41196e-05
3.41168e-05
3.41143e-05
3.41126e-05
3.41126e-05
3.41142e-05
3.41168e-05
3.41196e-05
3.41225e-05
3.41251e-05
3.41275e-05
3.41297e-05
3.41316e-05
3.41333e-05
3.41346e-05
3.41356e-05
3.41363e-05
3.41367e-05
3.41315e-05
3.4138e-05
3.41432e-05
3.41428e-05
3.4142e-05
3.41408e-05
3.41393e-05
3.41375e-05
3.41352e-05
3.41325e-05
3.41296e-05
3.41264e-05
3.41231e-05
3.41198e-05
3.41168e-05
3.41149e-05
3.4115e-05
3.41169e-05
3.41199e-05
3.41232e-05
3.41266e-05
3.41297e-05
3.41326e-05
3.41352e-05
3.41375e-05
3.41394e-05
3.41409e-05
3.4142e-05
3.41428e-05
3.41434e-05
3.41381e-05
3.41458e-05
3.41511e-05
3.41506e-05
3.41496e-05
3.41483e-05
3.41465e-05
3.41443e-05
3.41416e-05
3.41385e-05
3.41351e-05
3.41314e-05
3.41275e-05
3.41236e-05
3.41202e-05
3.41182e-05
3.41182e-05
3.41204e-05
3.41238e-05
3.41276e-05
3.41315e-05
3.41352e-05
3.41387e-05
3.41418e-05
3.41444e-05
3.41465e-05
3.41482e-05
3.41496e-05
3.41506e-05
3.41512e-05
3.41458e-05
3.41551e-05
3.41605e-05
3.41599e-05
3.41588e-05
3.41572e-05
3.41551e-05
3.41525e-05
3.41494e-05
3.41458e-05
3.41419e-05
3.41375e-05
3.4133e-05
3.41285e-05
3.41247e-05
3.41223e-05
3.41224e-05
3.41248e-05
3.41286e-05
3.4133e-05
3.41375e-05
3.41419e-05
3.4146e-05
3.41496e-05
3.41526e-05
3.4155e-05
3.4157e-05
3.41587e-05
3.41599e-05
3.41605e-05
3.4155e-05
3.41661e-05
3.41716e-05
3.41709e-05
3.41695e-05
3.41677e-05
3.41653e-05
3.41623e-05
3.41588e-05
3.41548e-05
3.41502e-05
3.41451e-05
3.41398e-05
3.41347e-05
3.41303e-05
3.41276e-05
3.41276e-05
3.41303e-05
3.41346e-05
3.41397e-05
3.4145e-05
3.41501e-05
3.41549e-05
3.4159e-05
3.41624e-05
3.41653e-05
3.41677e-05
3.41696e-05
3.41708e-05
3.41715e-05
3.41661e-05
3.41791e-05
3.41845e-05
3.41837e-05
3.41822e-05
3.41801e-05
3.41774e-05
3.41741e-05
3.41702e-05
3.41656e-05
3.41603e-05
3.41544e-05
3.41483e-05
3.41423e-05
3.41373e-05
3.41344e-05
3.41344e-05
3.41373e-05
3.41422e-05
3.41481e-05
3.41542e-05
3.41602e-05
3.41656e-05
3.41703e-05
3.41742e-05
3.41775e-05
3.41803e-05
3.41823e-05
3.41836e-05
3.41845e-05
3.41791e-05
3.41941e-05
3.41995e-05
3.41986e-05
3.4197e-05
3.41947e-05
3.41918e-05
3.41882e-05
3.41838e-05
3.41785e-05
3.41724e-05
3.41657e-05
3.41586e-05
3.41519e-05
3.41463e-05
3.41431e-05
3.41431e-05
3.41464e-05
3.41519e-05
3.41585e-05
3.41656e-05
3.41723e-05
3.41784e-05
3.41836e-05
3.41881e-05
3.41919e-05
3.41949e-05
3.4197e-05
3.41985e-05
3.41995e-05
3.4194e-05
3.42114e-05
3.42169e-05
3.42159e-05
3.42142e-05
3.42119e-05
3.42088e-05
3.42048e-05
3.41999e-05
3.41939e-05
3.4187e-05
3.41794e-05
3.41715e-05
3.4164e-05
3.41579e-05
3.41544e-05
3.41544e-05
3.41579e-05
3.4164e-05
3.41715e-05
3.41794e-05
3.41869e-05
3.41936e-05
3.41996e-05
3.42046e-05
3.42087e-05
3.42118e-05
3.42141e-05
3.42159e-05
3.42168e-05
3.42112e-05
3.42313e-05
3.42369e-05
3.42359e-05
3.42343e-05
3.42318e-05
3.42285e-05
3.42242e-05
3.42187e-05
3.42121e-05
3.42045e-05
3.41961e-05
3.41874e-05
3.41793e-05
3.41726e-05
3.41688e-05
3.41687e-05
3.41725e-05
3.41792e-05
3.41875e-05
3.41962e-05
3.42044e-05
3.42119e-05
3.42185e-05
3.4224e-05
3.42284e-05
3.42317e-05
3.42342e-05
3.42359e-05
3.42368e-05
3.42311e-05
3.4254e-05
3.42597e-05
3.42589e-05
3.42572e-05
3.42547e-05
3.42513e-05
3.42467e-05
3.42409e-05
3.42338e-05
3.42256e-05
3.42165e-05
3.42071e-05
3.41983e-05
3.41911e-05
3.41869e-05
3.41868e-05
3.41909e-05
3.41982e-05
3.42072e-05
3.42166e-05
3.42256e-05
3.42338e-05
3.4241e-05
3.42468e-05
3.42513e-05
3.42547e-05
3.42572e-05
3.42588e-05
3.42596e-05
3.42539e-05
3.42797e-05
3.42856e-05
3.42848e-05
3.42832e-05
3.42808e-05
3.42774e-05
3.42728e-05
3.42668e-05
3.42595e-05
3.42508e-05
3.42412e-05
3.42311e-05
3.42217e-05
3.42141e-05
3.42097e-05
3.42097e-05
3.4214e-05
3.42217e-05
3.42313e-05
3.42413e-05
3.42509e-05
3.42597e-05
3.42671e-05
3.4273e-05
3.42775e-05
3.42809e-05
3.42832e-05
3.42847e-05
3.42854e-05
3.42795e-05
3.43085e-05
3.43145e-05
3.43139e-05
3.43125e-05
3.43103e-05
3.43072e-05
3.43028e-05
3.42969e-05
3.42895e-05
3.42806e-05
3.42706e-05
3.42602e-05
3.42504e-05
3.42425e-05
3.42381e-05
3.42381e-05
3.42426e-05
3.42505e-05
3.42603e-05
3.42707e-05
3.42807e-05
3.42897e-05
3.42971e-05
3.43029e-05
3.43073e-05
3.43105e-05
3.43125e-05
3.43137e-05
3.43142e-05
3.43082e-05
3.43401e-05
3.43463e-05
3.43459e-05
3.4345e-05
3.43433e-05
3.43407e-05
3.43368e-05
3.43313e-05
3.43242e-05
3.43154e-05
3.43054e-05
3.4295e-05
3.42852e-05
3.42773e-05
3.42729e-05
3.42729e-05
3.42774e-05
3.42852e-05
3.4295e-05
3.43055e-05
3.43155e-05
3.43243e-05
3.43315e-05
3.4337e-05
3.43409e-05
3.43435e-05
3.4345e-05
3.43459e-05
3.43461e-05
3.434e-05
3.43745e-05
3.43808e-05
3.43809e-05
3.43806e-05
3.43797e-05
3.4378e-05
3.4375e-05
3.43703e-05
3.43638e-05
3.43557e-05
3.43463e-05
3.43363e-05
3.43268e-05
3.43192e-05
3.43149e-05
3.43148e-05
3.43191e-05
3.43267e-05
3.43362e-05
3.43463e-05
3.43559e-05
3.4364e-05
3.43704e-05
3.43751e-05
3.43782e-05
3.438e-05
3.43807e-05
3.43809e-05
3.43807e-05
3.43745e-05
3.44112e-05
3.44178e-05
3.44184e-05
3.4419e-05
3.44193e-05
3.44187e-05
3.4417e-05
3.44136e-05
3.44086e-05
3.44018e-05
3.43935e-05
3.43845e-05
3.43758e-05
3.43687e-05
3.43647e-05
3.43647e-05
3.43686e-05
3.43756e-05
3.43843e-05
3.43935e-05
3.44018e-05
3.44087e-05
3.44138e-05
3.44171e-05
3.44189e-05
3.44194e-05
3.44191e-05
3.44185e-05
3.44178e-05
3.44112e-05
3.44498e-05
3.44565e-05
3.4458e-05
3.44597e-05
3.44613e-05
3.44624e-05
3.44625e-05
3.44612e-05
3.44582e-05
3.44534e-05
3.4447e-05
3.44396e-05
3.44323e-05
3.44263e-05
3.4423e-05
3.4423e-05
3.44264e-05
3.44322e-05
3.44395e-05
3.44468e-05
3.44532e-05
3.44581e-05
3.44612e-05
3.44626e-05
3.44625e-05
3.44614e-05
3.44598e-05
3.44582e-05
3.44568e-05
3.44498e-05
3.44893e-05
3.44964e-05
3.44988e-05
3.45018e-05
3.45051e-05
3.45083e-05
3.45108e-05
3.45121e-05
3.45119e-05
3.45099e-05
3.45063e-05
3.45014e-05
3.44962e-05
3.44919e-05
3.44895e-05
3.44895e-05
3.44919e-05
3.44962e-05
3.45013e-05
3.45061e-05
3.45097e-05
3.45117e-05
3.4512e-05
3.45108e-05
3.45084e-05
3.45052e-05
3.4502e-05
3.44991e-05
3.44968e-05
3.44895e-05
3.45289e-05
3.45363e-05
3.45397e-05
3.45442e-05
3.45496e-05
3.45553e-05
3.45607e-05
3.45654e-05
3.45687e-05
3.45704e-05
3.45703e-05
3.45689e-05
3.45666e-05
3.45645e-05
3.45632e-05
3.45631e-05
3.45644e-05
3.45665e-05
3.45687e-05
3.45702e-05
3.45701e-05
3.45685e-05
3.45652e-05
3.45606e-05
3.45552e-05
3.45495e-05
3.45443e-05
3.454e-05
3.45366e-05
3.45292e-05
3.45672e-05
3.45749e-05
3.45794e-05
3.45856e-05
3.45933e-05
3.46019e-05
3.46108e-05
3.46193e-05
3.46269e-05
3.4633e-05
3.46374e-05
3.46401e-05
3.46414e-05
3.46419e-05
3.46419e-05
3.46419e-05
3.46418e-05
3.46413e-05
3.464e-05
3.46373e-05
3.46329e-05
3.46266e-05
3.4619e-05
3.46105e-05
3.46016e-05
3.45931e-05
3.45857e-05
3.45796e-05
3.45752e-05
3.45675e-05
3.4603e-05
3.46109e-05
3.46167e-05
3.46247e-05
3.46349e-05
3.46466e-05
3.46592e-05
3.4672e-05
3.46844e-05
3.46956e-05
3.47051e-05
3.47126e-05
3.47179e-05
3.47213e-05
3.47229e-05
3.47229e-05
3.47213e-05
3.4718e-05
3.47126e-05
3.47051e-05
3.46956e-05
3.46843e-05
3.46719e-05
3.4659e-05
3.46463e-05
3.46346e-05
3.46247e-05
3.46167e-05
3.46112e-05
3.46033e-05
3.46324e-05
3.46405e-05
3.46474e-05
3.46569e-05
3.46696e-05
3.46843e-05
3.47007e-05
3.4718e-05
3.47353e-05
3.47518e-05
3.47666e-05
3.4779e-05
3.47887e-05
3.47954e-05
3.47986e-05
3.47987e-05
3.47954e-05
3.47889e-05
3.47792e-05
3.47666e-05
3.47518e-05
3.47352e-05
3.47179e-05
3.47006e-05
3.46842e-05
3.46695e-05
3.4657e-05
3.46474e-05
3.46409e-05
3.46324e-05
3.47008e-05
3.47088e-05
3.47176e-05
3.47293e-05
3.47454e-05
3.47647e-05
3.47862e-05
3.48093e-05
3.48333e-05
3.48565e-05
3.48779e-05
3.48966e-05
3.49115e-05
3.49219e-05
3.4927e-05
3.49272e-05
3.49218e-05
3.49118e-05
3.48967e-05
3.4878e-05
3.48565e-05
3.48332e-05
3.48096e-05
3.4786e-05
3.47644e-05
3.47456e-05
3.47298e-05
3.47175e-05
3.47094e-05
3.47002e-05
3.44952e-05
3.44999e-05
3.45087e-05
3.45184e-05
3.45415e-05
3.4554e-05
3.45766e-05
3.45943e-05
3.46145e-05
3.46362e-05
3.46622e-05
3.47006e-05
3.47644e-05
3.48389e-05
3.49763e-05
3.49765e-05
3.48386e-05
3.47645e-05
3.47007e-05
3.46629e-05
3.46366e-05
3.46142e-05
3.45919e-05
3.457e-05
3.45509e-05
3.45316e-05
3.45154e-05
3.45046e-05
3.44993e-05
3.44943e-05
3.52424e-05
3.50815e-05
3.5153e-05
3.54986e-05
3.59115e-05
3.62309e-05
3.6393e-05
3.6655e-05
3.71896e-05
3.88188e-05
4.42456e-05
5.62862e-05
7.56693e-05
9.52609e-05
0.000127767
0.000127743
9.52359e-05
7.56745e-05
5.63711e-05
4.43634e-05
3.88936e-05
3.71654e-05
3.65679e-05
3.62411e-05
3.59266e-05
3.55851e-05
3.52709e-05
3.50389e-05
3.49889e-05
3.49808e-05
4.55883e-05
4.71911e-05
4.83155e-05
5.10574e-05
5.39864e-05
5.84068e-05
6.77504e-05
8.95514e-05
0.000151378
0.000319451
0.000670723
0.00124113
0.00194947
0.00258307
0.0033292
0.00332841
0.00258227
0.00195187
0.00124502
0.000674364
0.000321613
0.000152309
8.98249e-05
6.78565e-05
5.86975e-05
5.37296e-05
5.05745e-05
4.81411e-05
4.5986e-05
4.53928e-05
5.01413e-05
5.13225e-05
5.31204e-05
5.62687e-05
6.00941e-05
6.52934e-05
7.32432e-05
8.7743e-05
0.00012296
0.000211191
0.000396354
0.000705528
0.0011285
0.00156949
0.00218625
0.00218551
0.00156889
0.00112973
0.000707085
0.000397719
0.000212147
0.000123481
8.79041e-05
7.33406e-05
6.551e-05
6.00329e-05
5.60413e-05
5.31245e-05
5.11167e-05
5.03003e-05
5.48928e-05
5.5827e-05
5.76461e-05
6.04554e-05
6.41086e-05
6.88839e-05
7.52151e-05
8.42767e-05
0.000101365
0.000142552
0.000235967
0.000405436
0.000650441
0.000935269
0.00132211
0.00132153
0.000934847
0.000650772
0.000406045
0.00023666
0.000143043
0.000101626
8.4394e-05
7.5296e-05
6.89898e-05
6.4126e-05
6.03819e-05
5.75358e-05
5.5728e-05
5.50455e-05
5.92198e-05
6.0074e-05
6.16831e-05
6.41008e-05
6.7259e-05
7.1243e-05
7.61636e-05
8.22704e-05
9.06919e-05
0.000105734
0.000138788
0.000206225
0.000316652
0.000467559
0.000688861
0.000688403
0.000467335
0.000316695
0.000206418
0.00013907
0.000105952
9.08439e-05
8.23841e-05
7.62467e-05
7.13101e-05
6.7286e-05
6.40851e-05
6.16045e-05
5.99441e-05
5.93463e-05
6.26194e-05
6.33111e-05
6.46836e-05
6.67384e-05
6.9403e-05
7.26933e-05
7.65813e-05
8.10909e-05
8.63516e-05
9.30146e-05
0.000103237
0.000121633
0.000153345
0.000203488
0.000287479
0.000287328
0.000203464
0.000153408
0.000121719
0.000103342
9.31308e-05
8.644e-05
8.1153e-05
7.66284e-05
7.27308e-05
6.9421e-05
6.67331e-05
6.46758e-05
6.32298e-05
6.26194e-05
6.48852e-05
6.54984e-05
6.66705e-05
6.83865e-05
7.06264e-05
7.33517e-05
7.65042e-05
8.00456e-05
8.3927e-05
8.81842e-05
9.30139e-05
9.89551e-05
0.000106874
0.000118216
0.00013674
0.000136721
0.000118232
0.000106897
9.89844e-05
9.30791e-05
8.82663e-05
8.39761e-05
8.00814e-05
7.65408e-05
7.33785e-05
7.06458e-05
6.83937e-05
6.66847e-05
6.54887e-05
6.4864e-05
6.61057e-05
6.67604e-05
6.77385e-05
6.9183e-05
7.10465e-05
7.32945e-05
7.58592e-05
7.86948e-05
8.1739e-05
8.49329e-05
8.81696e-05
9.1411e-05
9.46168e-05
9.78473e-05
0.000101341
0.000101357
9.79253e-05
9.46974e-05
9.14758e-05
8.8232e-05
8.49831e-05
8.17858e-05
7.87359e-05
7.58876e-05
7.33031e-05
7.10546e-05
6.91789e-05
6.77512e-05
6.67767e-05
6.61326e-05
6.65047e-05
6.71559e-05
6.7958e-05
6.91614e-05
7.07155e-05
7.25688e-05
7.46636e-05
7.69502e-05
7.93611e-05
8.18351e-05
8.42412e-05
8.6492e-05
8.84725e-05
9.00711e-05
9.11417e-05
9.1147e-05
9.00866e-05
8.84761e-05
8.6488e-05
8.42454e-05
8.18484e-05
7.9395e-05
7.69774e-05
7.46769e-05
7.2576e-05
7.07232e-05
6.91646e-05
6.79696e-05
6.71722e-05
6.65089e-05
6.61165e-05
6.67674e-05
6.74214e-05
6.83888e-05
6.96505e-05
7.11431e-05
7.28238e-05
7.46255e-05
7.65088e-05
7.8407e-05
8.02173e-05
8.18736e-05
8.32689e-05
8.43066e-05
8.48713e-05
8.48892e-05
8.43181e-05
8.32795e-05
8.19095e-05
8.0272e-05
7.84644e-05
7.65672e-05
7.46733e-05
7.28577e-05
7.11732e-05
6.9664e-05
6.83908e-05
6.74109e-05
6.67663e-05
6.61055e-05
6.50326e-05
6.5703e-05
6.61982e-05
6.69813e-05
6.79869e-05
6.91769e-05
7.0499e-05
7.18913e-05
7.33344e-05
7.47394e-05
7.6051e-05
7.72147e-05
7.8171e-05
7.88446e-05
7.92064e-05
7.92211e-05
7.88524e-05
7.81725e-05
7.72209e-05
7.60636e-05
7.47505e-05
7.33513e-05
7.19277e-05
7.05283e-05
6.91991e-05
6.79996e-05
6.69896e-05
6.62016e-05
6.57023e-05
6.50571e-05
6.34879e-05
6.41326e-05
6.44784e-05
6.50756e-05
6.58607e-05
6.67837e-05
6.77931e-05
6.88256e-05
6.98682e-05
7.08392e-05
7.17092e-05
7.24545e-05
7.30288e-05
7.34098e-05
7.36295e-05
7.36341e-05
7.34154e-05
7.30176e-05
7.24448e-05
7.17193e-05
7.0851e-05
6.98831e-05
6.88542e-05
6.78068e-05
6.67956e-05
6.58826e-05
6.51042e-05
6.44925e-05
6.41311e-05
6.34979e-05
6.15469e-05
6.21443e-05
6.23799e-05
6.28363e-05
6.3424e-05
6.41035e-05
6.48182e-05
6.55302e-05
6.61979e-05
6.6778e-05
6.72735e-05
6.76691e-05
6.79301e-05
6.8088e-05
6.81639e-05
6.81583e-05
6.80903e-05
6.79447e-05
6.77022e-05
6.73293e-05
6.68329e-05
6.62324e-05
6.55504e-05
6.48253e-05
6.41107e-05
6.34522e-05
6.28807e-05
6.24274e-05
6.21732e-05
6.1561e-05
5.93766e-05
5.99128e-05
6.00628e-05
6.0394e-05
6.0809e-05
6.1286e-05
6.17517e-05
6.21826e-05
6.25439e-05
6.28159e-05
6.2994e-05
6.30672e-05
6.30543e-05
6.30229e-05
6.30006e-05
6.30038e-05
6.30451e-05
6.30879e-05
6.30869e-05
6.30032e-05
6.28253e-05
6.25521e-05
6.21877e-05
6.17558e-05
6.12953e-05
6.08511e-05
6.04493e-05
6.0118e-05
5.99557e-05
5.93871e-05
5.70627e-05
5.75745e-05
5.76629e-05
5.78749e-05
5.81394e-05
5.84253e-05
5.86768e-05
5.88782e-05
5.89946e-05
5.90152e-05
5.89358e-05
5.87628e-05
5.85583e-05
5.83749e-05
5.82546e-05
5.82507e-05
5.83652e-05
5.85541e-05
5.87602e-05
5.8933e-05
5.90292e-05
5.90216e-05
5.89057e-05
5.87046e-05
5.84554e-05
5.81821e-05
5.79128e-05
5.76892e-05
5.76101e-05
5.70953e-05
5.47422e-05
5.52023e-05
5.52217e-05
5.53526e-05
5.54887e-05
5.56327e-05
5.57031e-05
5.5714e-05
5.565e-05
5.54757e-05
5.51945e-05
5.48487e-05
5.44947e-05
5.41887e-05
5.40051e-05
5.40109e-05
5.41999e-05
5.45136e-05
5.48782e-05
5.52236e-05
5.55014e-05
5.56829e-05
5.57631e-05
5.57512e-05
5.5663e-05
5.55263e-05
5.53768e-05
5.52506e-05
5.52347e-05
5.47741e-05
5.24697e-05
5.28669e-05
5.28676e-05
5.29118e-05
5.2974e-05
5.2983e-05
5.29273e-05
5.28126e-05
5.26003e-05
5.22728e-05
5.18627e-05
5.1402e-05
5.09447e-05
5.05633e-05
5.03484e-05
5.03587e-05
5.05796e-05
5.09532e-05
5.14103e-05
5.18759e-05
5.22887e-05
5.2613e-05
5.28311e-05
5.2949e-05
5.29874e-05
5.2971e-05
5.29231e-05
5.28712e-05
5.28961e-05
5.24931e-05
5.02862e-05
5.0636e-05
5.05924e-05
5.05668e-05
5.05796e-05
5.04934e-05
5.03665e-05
5.01612e-05
4.98394e-05
4.94233e-05
4.89348e-05
4.84005e-05
4.78791e-05
4.74525e-05
4.72125e-05
4.72147e-05
4.74545e-05
4.78769e-05
4.8399e-05
4.89385e-05
4.9431e-05
4.98394e-05
5.01519e-05
5.03722e-05
5.05104e-05
5.0579e-05
5.05984e-05
5.05984e-05
5.06526e-05
5.03127e-05
4.82459e-05
4.8542e-05
4.84636e-05
4.8431e-05
4.83439e-05
4.82121e-05
4.80388e-05
4.77607e-05
4.73801e-05
4.69236e-05
4.63908e-05
4.58173e-05
4.52703e-05
4.48354e-05
4.4594e-05
4.45977e-05
4.48464e-05
4.52832e-05
4.58259e-05
4.63954e-05
4.69326e-05
4.73992e-05
4.77766e-05
4.80594e-05
4.82525e-05
4.83717e-05
4.84394e-05
4.84816e-05
4.85563e-05
4.82743e-05
4.64192e-05
4.66512e-05
4.6544e-05
4.64836e-05
4.63499e-05
4.62127e-05
4.59869e-05
4.56649e-05
4.52704e-05
4.47923e-05
4.42406e-05
4.36631e-05
4.31245e-05
4.26951e-05
4.24475e-05
4.24438e-05
4.26901e-05
4.31266e-05
4.36715e-05
4.4248e-05
4.47967e-05
4.52801e-05
4.56791e-05
4.59893e-05
4.62168e-05
4.63753e-05
4.64806e-05
4.65502e-05
4.66317e-05
4.64002e-05
4.46885e-05
4.48982e-05
4.47988e-05
4.47097e-05
4.45976e-05
4.44294e-05
4.41668e-05
4.38421e-05
4.34435e-05
4.29607e-05
4.2421e-05
4.18679e-05
4.13522e-05
4.09343e-05
4.06916e-05
4.06908e-05
4.09342e-05
4.13592e-05
4.18839e-05
4.24365e-05
4.29656e-05
4.34406e-05
4.38444e-05
4.417e-05
4.44189e-05
4.45996e-05
4.47235e-05
4.48061e-05
4.48894e-05
4.47066e-05
4.32096e-05
4.33183e-05
4.32571e-05
4.3158e-05
4.30421e-05
4.28413e-05
4.25852e-05
4.2274e-05
4.18814e-05
4.14202e-05
4.09158e-05
4.04001e-05
3.99115e-05
3.95106e-05
3.92785e-05
3.92784e-05
3.95086e-05
3.99075e-05
4.03983e-05
4.09171e-05
4.14205e-05
4.1879e-05
4.22734e-05
4.25946e-05
4.28441e-05
4.30299e-05
4.31626e-05
4.32551e-05
4.33403e-05
4.31993e-05
4.18597e-05
4.1955e-05
4.18874e-05
4.17983e-05
4.16624e-05
4.14716e-05
4.12402e-05
4.09366e-05
4.05625e-05
4.01358e-05
3.96726e-05
3.91928e-05
3.87338e-05
3.836e-05
3.81464e-05
3.81488e-05
3.83647e-05
3.87347e-05
3.91887e-05
3.967e-05
4.01379e-05
4.05639e-05
4.0931e-05
4.12339e-05
4.14755e-05
4.16619e-05
4.17997e-05
4.18975e-05
4.19793e-05
4.18678e-05
4.06669e-05
4.07859e-05
4.06956e-05
4.06104e-05
4.04765e-05
4.03053e-05
4.00777e-05
3.97844e-05
3.94428e-05
3.90603e-05
3.86424e-05
3.82054e-05
3.77901e-05
3.74548e-05
3.72627e-05
3.72658e-05
3.74632e-05
3.77995e-05
3.82107e-05
3.86462e-05
3.9069e-05
3.94548e-05
3.97911e-05
4.0074e-05
4.03044e-05
4.04847e-05
4.06188e-05
4.0713e-05
4.07865e-05
4.06975e-05
3.96893e-05
3.97496e-05
3.96837e-05
3.9596e-05
3.94695e-05
3.93048e-05
3.9085e-05
3.88234e-05
3.85253e-05
3.81879e-05
3.78135e-05
3.74226e-05
3.70519e-05
3.67486e-05
3.65701e-05
3.65686e-05
3.67448e-05
3.70467e-05
3.74161e-05
3.78067e-05
3.81855e-05
3.85322e-05
3.88366e-05
3.90946e-05
3.93054e-05
3.94706e-05
3.95942e-05
3.96817e-05
3.97479e-05
3.96798e-05
3.88132e-05
3.88517e-05
3.8804e-05
3.87126e-05
3.85978e-05
3.84455e-05
3.82549e-05
3.80304e-05
3.77674e-05
3.74641e-05
3.71299e-05
3.67844e-05
3.64549e-05
3.6181e-05
3.60172e-05
3.60148e-05
3.61752e-05
3.64488e-05
3.67807e-05
3.7128e-05
3.74625e-05
3.77678e-05
3.8036e-05
3.82639e-05
3.84512e-05
3.86e-05
3.87133e-05
3.87951e-05
3.8856e-05
3.88051e-05
3.8044e-05
3.81083e-05
3.8042e-05
3.79594e-05
3.78608e-05
3.7728e-05
3.75643e-05
3.73642e-05
3.71261e-05
3.68559e-05
3.65651e-05
3.62657e-05
3.59777e-05
3.57358e-05
3.55903e-05
3.55902e-05
3.57364e-05
3.59809e-05
3.62722e-05
3.65734e-05
3.68623e-05
3.71266e-05
3.73605e-05
3.75612e-05
3.77285e-05
3.78632e-05
3.79669e-05
3.80422e-05
3.80967e-05
3.80571e-05
3.74269e-05
3.74609e-05
3.73953e-05
3.73332e-05
3.72452e-05
3.71286e-05
3.69813e-05
3.68018e-05
3.65928e-05
3.63614e-05
3.6113e-05
3.58553e-05
3.56049e-05
3.53918e-05
3.52617e-05
3.52613e-05
3.53905e-05
3.5603e-05
3.58533e-05
3.61116e-05
3.6361e-05
3.65916e-05
3.67976e-05
3.69756e-05
3.71246e-05
3.72445e-05
3.73366e-05
3.74032e-05
3.74502e-05
3.7418e-05
3.68862e-05
3.68892e-05
3.68524e-05
3.6801e-05
3.67194e-05
3.6613e-05
3.64827e-05
3.63301e-05
3.61555e-05
3.59601e-05
3.57465e-05
3.55226e-05
3.53034e-05
3.51153e-05
3.49998e-05
3.49996e-05
3.51131e-05
3.52972e-05
3.5513e-05
3.57366e-05
3.59539e-05
3.61553e-05
3.6335e-05
3.649e-05
3.66189e-05
3.67223e-05
3.68019e-05
3.686e-05
3.69006e-05
3.68754e-05
3.64077e-05
3.64303e-05
3.64055e-05
3.63516e-05
3.62762e-05
3.61817e-05
3.60733e-05
3.59471e-05
3.57997e-05
3.56311e-05
3.54453e-05
3.52505e-05
3.5061e-05
3.48995e-05
3.48006e-05
3.48018e-05
3.49018e-05
3.50618e-05
3.52484e-05
3.54412e-05
3.56274e-05
3.57991e-05
3.59518e-05
3.60831e-05
3.61927e-05
3.62813e-05
3.63505e-05
3.64023e-05
3.64387e-05
3.64195e-05
3.60289e-05
3.6062e-05
3.60288e-05
3.59788e-05
3.59128e-05
3.58353e-05
3.57443e-05
3.56344e-05
3.55056e-05
3.53596e-05
3.52003e-05
3.50351e-05
3.48762e-05
3.47404e-05
3.46551e-05
3.46556e-05
3.47426e-05
3.48804e-05
3.50392e-05
3.52016e-05
3.53576e-05
3.55014e-05
3.56299e-05
3.57415e-05
3.58356e-05
3.59131e-05
3.59748e-05
3.60215e-05
3.60537e-05
3.60368e-05
3.57178e-05
3.57316e-05
3.57019e-05
3.56635e-05
3.5611e-05
3.55467e-05
3.54646e-05
3.53666e-05
3.52558e-05
3.5133e-05
3.50005e-05
3.48647e-05
3.47331e-05
3.4617e-05
3.45404e-05
3.45392e-05
3.46146e-05
3.4732e-05