/*--------------------------------*- C++ -*----------------------------------*\
| =========                 |                                                 |
| \\      /  F ield         | OpenFOAM: The Open Source CFD Toolbox           |
|  \\    /   O peration     | Version:  2312                                  |
|   \\  /    A nd           | Website:  www.openfoam.com                      |
|    \\/     M anipulation  |                                                 |
\*---------------------------------------------------------------------------*/
FoamFile
{
    version     2.0;
    format      ascii;
    arch        "LSB;label=32;scalar=64";
    class       volScalarField;
    location    "0.198545";
    object      nut;
}
// * * * * * * * * * * * * * * * * * * * * * * * * * * * * * * * * * * * * * //

dimensions      [0 2 -1 0 0 0 0];

internalField   nonuniform List<scalar> 
90000
(
6.50376e-06
6.50381e-06
6.50381e-06
6.50381e-06
6.50381e-06
6.50381e-06
6.50381e-06
6.50381e-06
6.50381e-06
6.5038e-06
6.5038e-06
6.5038e-06
6.50379e-06
6.50379e-06
6.50378e-06
6.50378e-06
6.50378e-06
6.50379e-06
6.50379e-06
6.50379e-06
6.5038e-06
6.5038e-06
6.5038e-06
6.5038e-06
6.5038e-06
6.5038e-06
6.5038e-06
6.5038e-06
6.5038e-06
6.50379e-06
6.50381e-06
6.50449e-06
6.5045e-06
6.5045e-06
6.5045e-06
6.5045e-06
6.5045e-06
6.5045e-06
6.50449e-06
6.50449e-06
6.50448e-06
6.50448e-06
6.50447e-06
6.50447e-06
6.50446e-06
6.50446e-06
6.50446e-06
6.50447e-06
6.50447e-06
6.50448e-06
6.50448e-06
6.50449e-06
6.50449e-06
6.50449e-06
6.50449e-06
6.50449e-06
6.50449e-06
6.5045e-06
6.50451e-06
6.50392e-06
6.50381e-06
6.5045e-06
6.50451e-06
6.50451e-06
6.50451e-06
6.50451e-06
6.5045e-06
6.5045e-06
6.5045e-06
6.5045e-06
6.50449e-06
6.50449e-06
6.50448e-06
6.50448e-06
6.50447e-06
6.50447e-06
6.50448e-06
6.50448e-06
6.50448e-06
6.50449e-06
6.50449e-06
6.50449e-06
6.5045e-06
6.5045e-06
6.5045e-06
6.5045e-06
6.50449e-06
6.50447e-06
6.50442e-06
6.50382e-06
6.50381e-06
6.50449e-06
6.50451e-06
6.5045e-06
6.5045e-06
6.5045e-06
6.5045e-06
6.5045e-06
6.5045e-06
6.50449e-06
6.50449e-06
6.50449e-06
6.50448e-06
6.50448e-06
6.50448e-06
6.50448e-06
6.50448e-06
6.50448e-06
6.50448e-06
6.50449e-06
6.50449e-06
6.50449e-06
6.5045e-06
6.5045e-06
6.5045e-06
6.5045e-06
6.50451e-06
6.50451e-06
6.50447e-06
6.50381e-06
6.50381e-06
6.50449e-06
6.5045e-06
6.5045e-06
6.5045e-06
6.5045e-06
6.5045e-06
6.5045e-06
6.5045e-06
6.50449e-06
6.50449e-06
6.50449e-06
6.50449e-06
6.50448e-06
6.50448e-06
6.50448e-06
6.50448e-06
6.50448e-06
6.50449e-06
6.50449e-06
6.50449e-06
6.50449e-06
6.50449e-06
6.5045e-06
6.5045e-06
6.50449e-06
6.50449e-06
6.50451e-06
6.50448e-06
6.50381e-06
6.50382e-06
6.50449e-06
6.5045e-06
6.5045e-06
6.5045e-06
6.5045e-06
6.5045e-06
6.5045e-06
6.5045e-06
6.50449e-06
6.50449e-06
6.50449e-06
6.50449e-06
6.50448e-06
6.50448e-06
6.50448e-06
6.50448e-06
6.50449e-06
6.50449e-06
6.50449e-06
6.50449e-06
6.5045e-06
6.5045e-06
6.5045e-06
6.5045e-06
6.5045e-06
6.5045e-06
6.50451e-06
6.50449e-06
6.50382e-06
6.50382e-06
6.50449e-06
6.5045e-06
6.50451e-06
6.50451e-06
6.50451e-06
6.5045e-06
6.5045e-06
6.5045e-06
6.5045e-06
6.5045e-06
6.50449e-06
6.50449e-06
6.50449e-06
6.50448e-06
6.50448e-06
6.50448e-06
6.50449e-06
6.50449e-06
6.50449e-06
6.5045e-06
6.5045e-06
6.5045e-06
6.5045e-06
6.50451e-06
6.50451e-06
6.50451e-06
6.50451e-06
6.5045e-06
6.50383e-06
6.50383e-06
6.5045e-06
6.50452e-06
6.50452e-06
6.50452e-06
6.50452e-06
6.50451e-06
6.50451e-06
6.50451e-06
6.5045e-06
6.5045e-06
6.5045e-06
6.50449e-06
6.50448e-06
6.50448e-06
6.50448e-06
6.50448e-06
6.50449e-06
6.50449e-06
6.5045e-06
6.5045e-06
6.50451e-06
6.50451e-06
6.50452e-06
6.50452e-06
6.50452e-06
6.50452e-06
6.50452e-06
6.50451e-06
6.50383e-06
6.50385e-06
6.50452e-06
6.50454e-06
6.50453e-06
6.50453e-06
6.50453e-06
6.50453e-06
6.50453e-06
6.50452e-06
6.50451e-06
6.50451e-06
6.5045e-06
6.50449e-06
6.50448e-06
6.50448e-06
6.50447e-06
6.50448e-06
6.50449e-06
6.50449e-06
6.5045e-06
6.50451e-06
6.50452e-06
6.50452e-06
6.50453e-06
6.50453e-06
6.50454e-06
6.50454e-06
6.50454e-06
6.50452e-06
6.50385e-06
6.50387e-06
6.50455e-06
6.50456e-06
6.50456e-06
6.50455e-06
6.50455e-06
6.50455e-06
6.50454e-06
6.50453e-06
6.50452e-06
6.50451e-06
6.5045e-06
6.50449e-06
6.50448e-06
6.50447e-06
6.50447e-06
6.50448e-06
6.50449e-06
6.5045e-06
6.50451e-06
6.50452e-06
6.50453e-06
6.50454e-06
6.50455e-06
6.50455e-06
6.50455e-06
6.50455e-06
6.50455e-06
6.50454e-06
6.50387e-06
6.5039e-06
6.50457e-06
6.50458e-06
6.50458e-06
6.50458e-06
6.50457e-06
6.50457e-06
6.50456e-06
6.50455e-06
6.50454e-06
6.50452e-06
6.50451e-06
6.5045e-06
6.50448e-06
6.50447e-06
6.50447e-06
6.50448e-06
6.50449e-06
6.5045e-06
6.50452e-06
6.50453e-06
6.50455e-06
6.50456e-06
6.50456e-06
6.50457e-06
6.50458e-06
6.50458e-06
6.50458e-06
6.50457e-06
6.5039e-06
6.50393e-06
6.5046e-06
6.50461e-06
6.50461e-06
6.5046e-06
6.5046e-06
6.50459e-06
6.50458e-06
6.50457e-06
6.50455e-06
6.50454e-06
6.50452e-06
6.5045e-06
6.50449e-06
6.50447e-06
6.50447e-06
6.50448e-06
6.5045e-06
6.50452e-06
6.50454e-06
6.50455e-06
6.50457e-06
6.50458e-06
6.50459e-06
6.5046e-06
6.5046e-06
6.50461e-06
6.50461e-06
6.5046e-06
6.50393e-06
6.50397e-06
6.50463e-06
6.50464e-06
6.50464e-06
6.50463e-06
6.50463e-06
6.50462e-06
6.50461e-06
6.50459e-06
6.50457e-06
6.50456e-06
6.50454e-06
6.50452e-06
6.50449e-06
6.50448e-06
6.50448e-06
6.5045e-06
6.50452e-06
6.50454e-06
6.50456e-06
6.50457e-06
6.50459e-06
6.5046e-06
6.50462e-06
6.50463e-06
6.50464e-06
6.50465e-06
6.50466e-06
6.50465e-06
6.50398e-06
6.50401e-06
6.50468e-06
6.50469e-06
6.50468e-06
6.50468e-06
6.50467e-06
6.50465e-06
6.50464e-06
6.50462e-06
6.5046e-06
6.50458e-06
6.50455e-06
6.50453e-06
6.50451e-06
6.50449e-06
6.50449e-06
6.50451e-06
6.50453e-06
6.50456e-06
6.50458e-06
6.5046e-06
6.50462e-06
6.50463e-06
6.50465e-06
6.50467e-06
6.50468e-06
6.5047e-06
6.50471e-06
6.5047e-06
6.50403e-06
6.50406e-06
6.50474e-06
6.50475e-06
6.50474e-06
6.50473e-06
6.50472e-06
6.5047e-06
6.50468e-06
6.50465e-06
6.50463e-06
6.5046e-06
6.50458e-06
6.50455e-06
6.50452e-06
6.50449e-06
6.5045e-06
6.50452e-06
6.50455e-06
6.50458e-06
6.5046e-06
6.50463e-06
6.50465e-06
6.50467e-06
6.5047e-06
6.50472e-06
6.50473e-06
6.50475e-06
6.50476e-06
6.50476e-06
6.50408e-06
6.50413e-06
6.50481e-06
6.50482e-06
6.50481e-06
6.5048e-06
6.50478e-06
6.50475e-06
6.50472e-06
6.5047e-06
6.50467e-06
6.50463e-06
6.5046e-06
6.50457e-06
6.50453e-06
6.5045e-06
6.5045e-06
6.50453e-06
6.50457e-06
6.5046e-06
6.50463e-06
6.50466e-06
6.50469e-06
6.50472e-06
6.50475e-06
6.50477e-06
6.50479e-06
6.50481e-06
6.50482e-06
6.50482e-06
6.50415e-06
6.50422e-06
6.50491e-06
6.50491e-06
6.5049e-06
6.50488e-06
6.50485e-06
6.50482e-06
6.50479e-06
6.50475e-06
6.50471e-06
6.50467e-06
6.50463e-06
6.50459e-06
6.50454e-06
6.50451e-06
6.50451e-06
6.50454e-06
6.50459e-06
6.50463e-06
6.50467e-06
6.50471e-06
6.50475e-06
6.50479e-06
6.50482e-06
6.50485e-06
6.50487e-06
6.50489e-06
6.5049e-06
6.5049e-06
6.50423e-06
6.50433e-06
6.50501e-06
6.50501e-06
6.505e-06
6.50497e-06
6.50494e-06
6.5049e-06
6.50486e-06
6.50482e-06
6.50477e-06
6.50472e-06
6.50467e-06
6.50461e-06
6.50456e-06
6.50452e-06
6.50452e-06
6.50456e-06
6.50462e-06
6.50467e-06
6.50473e-06
6.50478e-06
6.50483e-06
6.50487e-06
6.50491e-06
6.50494e-06
6.50496e-06
6.50499e-06
6.50501e-06
6.50501e-06
6.50434e-06
6.50446e-06
6.50514e-06
6.50514e-06
6.50511e-06
6.50508e-06
6.50504e-06
6.505e-06
6.50495e-06
6.5049e-06
6.50485e-06
6.50479e-06
6.50472e-06
6.50466e-06
6.50459e-06
6.50454e-06
6.50454e-06
6.50459e-06
6.50466e-06
6.50473e-06
6.50479e-06
6.50486e-06
6.50492e-06
6.50497e-06
6.50501e-06
6.50505e-06
6.50508e-06
6.50511e-06
6.50513e-06
6.50514e-06
6.50446e-06
6.50461e-06
6.50529e-06
6.50528e-06
6.50525e-06
6.50521e-06
6.50517e-06
6.50512e-06
6.50507e-06
6.50501e-06
6.50494e-06
6.50487e-06
6.50479e-06
6.50471e-06
6.50463e-06
6.50457e-06
6.50457e-06
6.50463e-06
6.50471e-06
6.50479e-06
6.50487e-06
6.50495e-06
6.50502e-06
6.50508e-06
6.50513e-06
6.50518e-06
6.50522e-06
6.50526e-06
6.50528e-06
6.50529e-06
6.50461e-06
6.50479e-06
6.50546e-06
6.50545e-06
6.50542e-06
6.50538e-06
6.50533e-06
6.50527e-06
6.50521e-06
6.50514e-06
6.50506e-06
6.50497e-06
6.50488e-06
6.50478e-06
6.50468e-06
6.5046e-06
6.5046e-06
6.50468e-06
6.50477e-06
6.50487e-06
6.50496e-06
6.50505e-06
6.50514e-06
6.50521e-06
6.50528e-06
6.50534e-06
6.50539e-06
6.50543e-06
6.50546e-06
6.50546e-06
6.50479e-06
6.50501e-06
6.50568e-06
6.50567e-06
6.50563e-06
6.50558e-06
6.50553e-06
6.50546e-06
6.50538e-06
6.50529e-06
6.50519e-06
6.50509e-06
6.50497e-06
6.50485e-06
6.50473e-06
6.50465e-06
6.50465e-06
6.50473e-06
6.50485e-06
6.50496e-06
6.50508e-06
6.50518e-06
6.50528e-06
6.50538e-06
6.50546e-06
6.50554e-06
6.5056e-06
6.50565e-06
6.50568e-06
6.50568e-06
6.50501e-06
6.50528e-06
6.50595e-06
6.50594e-06
6.50589e-06
6.50584e-06
6.50577e-06
6.50569e-06
6.50559e-06
6.50548e-06
6.50535e-06
6.50522e-06
6.50508e-06
6.50493e-06
6.5048e-06
6.5047e-06
6.50471e-06
6.50481e-06
6.50494e-06
6.50508e-06
6.50522e-06
6.50535e-06
6.50547e-06
6.50559e-06
6.50569e-06
6.50578e-06
6.50585e-06
6.5059e-06
6.50594e-06
6.50596e-06
6.50529e-06
6.50561e-06
6.50628e-06
6.50626e-06
6.50621e-06
6.50615e-06
6.50606e-06
6.50596e-06
6.50584e-06
6.5057e-06
6.50555e-06
6.50539e-06
6.50522e-06
6.50505e-06
6.50489e-06
6.50478e-06
6.50479e-06
6.5049e-06
6.50506e-06
6.50523e-06
6.5054e-06
6.50556e-06
6.50571e-06
6.50585e-06
6.50597e-06
6.50607e-06
6.50615e-06
6.50622e-06
6.50627e-06
6.5063e-06
6.50562e-06
6.50601e-06
6.50668e-06
6.50666e-06
6.5066e-06
6.50652e-06
6.50641e-06
6.50629e-06
6.50614e-06
6.50597e-06
6.50579e-06
6.5056e-06
6.5054e-06
6.5052e-06
6.50501e-06
6.50488e-06
6.50489e-06
6.50502e-06
6.50521e-06
6.50542e-06
6.50562e-06
6.50581e-06
6.50599e-06
6.50615e-06
6.50629e-06
6.50641e-06
6.50651e-06
6.5066e-06
6.50666e-06
6.50669e-06
6.50601e-06
6.50649e-06
6.50716e-06
6.50713e-06
6.50705e-06
6.50696e-06
6.50684e-06
6.50669e-06
6.50651e-06
6.50632e-06
6.5061e-06
6.50587e-06
6.50563e-06
6.50539e-06
6.50517e-06
6.50501e-06
6.50501e-06
6.50517e-06
6.50539e-06
6.50564e-06
6.50589e-06
6.50612e-06
6.50633e-06
6.50652e-06
6.50669e-06
6.50683e-06
6.50695e-06
6.50706e-06
6.50713e-06
6.50716e-06
6.50648e-06
6.50706e-06
6.50772e-06
6.50768e-06
6.5076e-06
6.50749e-06
6.50735e-06
6.50718e-06
6.50698e-06
6.50674e-06
6.50649e-06
6.50621e-06
6.50591e-06
6.50562e-06
6.50535e-06
6.50517e-06
6.50517e-06
6.50535e-06
6.50562e-06
6.50592e-06
6.50621e-06
6.50649e-06
6.50675e-06
6.50697e-06
6.50717e-06
6.50734e-06
6.50749e-06
6.50761e-06
6.50768e-06
6.50772e-06
6.50705e-06
6.50774e-06
6.5084e-06
6.50836e-06
6.50826e-06
6.50814e-06
6.50797e-06
6.50777e-06
6.50753e-06
6.50726e-06
6.50695e-06
6.50661e-06
6.50626e-06
6.50591e-06
6.50559e-06
6.50538e-06
6.50538e-06
6.50559e-06
6.50591e-06
6.50626e-06
6.50662e-06
6.50695e-06
6.50725e-06
6.50753e-06
6.50777e-06
6.50798e-06
6.50815e-06
6.50827e-06
6.50836e-06
6.50841e-06
6.50775e-06
6.50856e-06
6.50922e-06
6.50917e-06
6.50906e-06
6.50891e-06
6.50872e-06
6.50849e-06
6.5082e-06
6.50787e-06
6.5075e-06
6.5071e-06
6.50668e-06
6.50627e-06
6.5059e-06
6.50566e-06
6.50566e-06
6.5059e-06
6.50628e-06
6.5067e-06
6.50712e-06
6.50751e-06
6.50787e-06
6.5082e-06
6.50849e-06
6.50873e-06
6.50892e-06
6.50906e-06
6.50917e-06
6.50924e-06
6.50857e-06
6.50954e-06
6.5102e-06
6.51014e-06
6.51002e-06
6.50984e-06
6.50962e-06
6.50934e-06
6.509e-06
6.50861e-06
6.50818e-06
6.50771e-06
6.50722e-06
6.50673e-06
6.50631e-06
6.50604e-06
6.50605e-06
6.50632e-06
6.50675e-06
6.50724e-06
6.50772e-06
6.50819e-06
6.50862e-06
6.50901e-06
6.50935e-06
6.50962e-06
6.50984e-06
6.51001e-06
6.51015e-06
6.51022e-06
6.50954e-06
6.51071e-06
6.51138e-06
6.5113e-06
6.51116e-06
6.51095e-06
6.51068e-06
6.51035e-06
6.50996e-06
6.50951e-06
6.50901e-06
6.50847e-06
6.50789e-06
6.50733e-06
6.50684e-06
6.50654e-06
6.50654e-06
6.50685e-06
6.50733e-06
6.50789e-06
6.50846e-06
6.50902e-06
6.50953e-06
6.50998e-06
6.51037e-06
6.51068e-06
6.51094e-06
6.51115e-06
6.5113e-06
6.51138e-06
6.5107e-06
6.51209e-06
6.51276e-06
6.51267e-06
6.5125e-06
6.51226e-06
6.51196e-06
6.51158e-06
6.51113e-06
6.51062e-06
6.51004e-06
6.5094e-06
6.50873e-06
6.50807e-06
6.50751e-06
6.50717e-06
6.50717e-06
6.50751e-06
6.50806e-06
6.50871e-06
6.50938e-06
6.51003e-06
6.51062e-06
6.51115e-06
6.51159e-06
6.51195e-06
6.51226e-06
6.5125e-06
6.51267e-06
6.51275e-06
6.51208e-06
6.51371e-06
6.51438e-06
6.51428e-06
6.51408e-06
6.51382e-06
6.51347e-06
6.51305e-06
6.51255e-06
6.51195e-06
6.51128e-06
6.51054e-06
6.50975e-06
6.509e-06
6.50836e-06
6.50798e-06
6.50798e-06
6.50836e-06
6.50899e-06
6.50973e-06
6.51051e-06
6.51126e-06
6.51195e-06
6.51254e-06
6.51305e-06
6.51348e-06
6.51383e-06
6.51409e-06
6.51427e-06
6.51438e-06
6.5137e-06
6.5156e-06
6.51627e-06
6.51615e-06
6.51594e-06
6.51565e-06
6.51527e-06
6.5148e-06
6.51423e-06
6.51356e-06
6.51278e-06
6.51192e-06
6.51102e-06
6.51016e-06
6.50945e-06
6.50903e-06
6.50903e-06
6.50945e-06
6.51016e-06
6.51101e-06
6.51191e-06
6.51276e-06
6.51353e-06
6.51421e-06
6.51479e-06
6.51527e-06
6.51566e-06
6.51594e-06
6.51614e-06
6.51627e-06
6.51558e-06
6.51779e-06
6.51846e-06
6.51834e-06
6.51811e-06
6.5178e-06
6.5174e-06
6.51687e-06
6.51623e-06
6.51546e-06
6.51458e-06
6.51361e-06
6.5126e-06
6.51164e-06
6.51085e-06
6.51039e-06
6.51039e-06
6.51085e-06
6.51164e-06
6.5126e-06
6.51361e-06
6.51457e-06
6.51543e-06
6.51619e-06
6.51685e-06
6.51738e-06
6.51779e-06
6.51809e-06
6.51832e-06
6.51845e-06
6.51775e-06
6.52031e-06
6.52099e-06
6.52087e-06
6.52064e-06
6.52031e-06
6.51987e-06
6.5193e-06
6.51859e-06
6.51773e-06
6.51675e-06
6.51567e-06
6.51455e-06
6.51349e-06
6.51263e-06
6.51212e-06
6.51212e-06
6.51262e-06
6.51349e-06
6.51456e-06
6.51568e-06
6.51675e-06
6.51771e-06
6.51856e-06
6.51928e-06
6.51985e-06
6.52029e-06
6.52062e-06
6.52085e-06
6.52097e-06
6.52028e-06
6.52321e-06
6.5239e-06
6.52378e-06
6.52355e-06
6.52321e-06
6.52274e-06
6.52213e-06
6.52136e-06
6.52044e-06
6.51937e-06
6.51819e-06
6.51697e-06
6.51581e-06
6.51486e-06
6.51432e-06
6.51431e-06
6.51485e-06
6.51581e-06
6.51698e-06
6.51821e-06
6.51938e-06
6.52045e-06
6.52138e-06
6.52214e-06
6.52274e-06
6.52319e-06
6.52353e-06
6.52376e-06
6.52387e-06
6.52317e-06
6.5265e-06
6.52721e-06
6.52709e-06
6.52686e-06
6.52652e-06
6.52605e-06
6.52542e-06
6.52462e-06
6.52364e-06
6.5225e-06
6.52123e-06
6.51991e-06
6.51866e-06
6.51765e-06
6.51708e-06
6.51708e-06
6.51766e-06
6.51868e-06
6.51994e-06
6.52126e-06
6.52253e-06
6.52368e-06
6.52467e-06
6.52546e-06
6.52607e-06
6.52653e-06
6.52685e-06
6.52706e-06
6.52716e-06
6.52644e-06
6.5302e-06
6.53092e-06
6.53082e-06
6.53061e-06
6.53029e-06
6.52984e-06
6.52922e-06
6.52841e-06
6.5274e-06
6.52621e-06
6.52487e-06
6.52348e-06
6.52216e-06
6.52111e-06
6.52051e-06
6.52052e-06
6.52113e-06
6.5222e-06
6.52352e-06
6.52491e-06
6.52625e-06
6.52746e-06
6.52847e-06
6.52927e-06
6.52987e-06
6.53032e-06
6.53061e-06
6.53079e-06
6.53087e-06
6.53014e-06
6.53431e-06
6.53504e-06
6.53497e-06
6.5348e-06
6.53453e-06
6.53413e-06
6.53355e-06
6.53277e-06
6.53177e-06
6.53056e-06
6.52919e-06
6.52776e-06
6.52641e-06
6.52534e-06
6.52473e-06
6.52473e-06
6.52535e-06
6.52643e-06
6.52779e-06
6.52923e-06
6.53061e-06
6.53183e-06
6.53283e-06
6.53361e-06
6.53419e-06
6.53458e-06
6.53482e-06
6.53496e-06
6.535e-06
6.53426e-06
6.53881e-06
6.53956e-06
6.53953e-06
6.53943e-06
6.53925e-06
6.53893e-06
6.53844e-06
6.53773e-06
6.53678e-06
6.53561e-06
6.53427e-06
6.53285e-06
6.53151e-06
6.53043e-06
6.52981e-06
6.52981e-06
6.53042e-06
6.5315e-06
6.53285e-06
6.53429e-06
6.53565e-06
6.53684e-06
6.53779e-06
6.53851e-06
6.53901e-06
6.53932e-06
6.53948e-06
6.53955e-06
6.53954e-06
6.53879e-06
6.54367e-06
6.54444e-06
6.54448e-06
6.54448e-06
6.54442e-06
6.54423e-06
6.54387e-06
6.54329e-06
6.54246e-06
6.54141e-06
6.54016e-06
6.53881e-06
6.53752e-06
6.53647e-06
6.53588e-06
6.53588e-06
6.53646e-06
6.53749e-06
6.53878e-06
6.54015e-06
6.54142e-06
6.54249e-06
6.54333e-06
6.54393e-06
6.5443e-06
6.54449e-06
6.54454e-06
6.54453e-06
6.54447e-06
6.54367e-06
6.54885e-06
6.54964e-06
6.54977e-06
6.5499e-06
6.54999e-06
6.54998e-06
6.54982e-06
6.54944e-06
6.54883e-06
6.54796e-06
6.54688e-06
6.54568e-06
6.5445e-06
6.54355e-06
6.54302e-06
6.54302e-06
6.54354e-06
6.54447e-06
6.54563e-06
6.54683e-06
6.54792e-06
6.5488e-06
6.54944e-06
6.54984e-06
6.55002e-06
6.55004e-06
6.54997e-06
6.54984e-06
6.54971e-06
6.54888e-06
6.55424e-06
6.55507e-06
6.55531e-06
6.55559e-06
6.55588e-06
6.55611e-06
6.55622e-06
6.55613e-06
6.55581e-06
6.55524e-06
6.55443e-06
6.55347e-06
6.55251e-06
6.55172e-06
6.55127e-06
6.55127e-06
6.5517e-06
6.55246e-06
6.55341e-06
6.55435e-06
6.55515e-06
6.55574e-06
6.55608e-06
6.55619e-06
6.55611e-06
6.5559e-06
6.55564e-06
6.55539e-06
6.55515e-06
6.55431e-06
6.55974e-06
6.5606e-06
6.56097e-06
6.56144e-06
6.56198e-06
6.56251e-06
6.56296e-06
6.56326e-06
6.56333e-06
6.56315e-06
6.56273e-06
6.56214e-06
6.56149e-06
6.56093e-06
6.5606e-06
6.56059e-06
6.5609e-06
6.56145e-06
6.56209e-06
6.56266e-06
6.56306e-06
6.56323e-06
6.56317e-06
6.56289e-06
6.56246e-06
6.56195e-06
6.56146e-06
6.56103e-06
6.56068e-06
6.55983e-06
6.56519e-06
6.56609e-06
6.5666e-06
6.56729e-06
6.56812e-06
6.56902e-06
6.56989e-06
6.57065e-06
6.57123e-06
6.57157e-06
6.57166e-06
6.57155e-06
6.5713e-06
6.57104e-06
6.57087e-06
6.57087e-06
6.57103e-06
6.57129e-06
6.57152e-06
6.57162e-06
6.57151e-06
6.57114e-06
6.57056e-06
6.5698e-06
6.56893e-06
6.56807e-06
6.56728e-06
6.56663e-06
6.56616e-06
6.56529e-06
6.57046e-06
6.57138e-06
6.57206e-06
6.573e-06
6.57416e-06
6.57547e-06
6.57683e-06
6.57815e-06
6.57933e-06
6.58031e-06
6.58104e-06
6.5815e-06
6.58176e-06
6.58186e-06
6.58189e-06
6.58189e-06
6.58188e-06
6.58178e-06
6.58153e-06
6.58105e-06
6.58031e-06
6.57931e-06
6.5781e-06
6.57677e-06
6.57539e-06
6.57409e-06
6.57297e-06
6.57206e-06
6.57145e-06
6.57054e-06
6.57486e-06
6.57583e-06
6.57667e-06
6.57783e-06
6.57934e-06
6.58108e-06
6.58296e-06
6.58489e-06
6.58676e-06
6.58846e-06
6.5899e-06
6.59104e-06
6.59188e-06
6.59244e-06
6.5927e-06
6.59271e-06
6.59245e-06
6.59194e-06
6.5911e-06
6.58994e-06
6.58848e-06
6.58676e-06
6.58488e-06
6.58293e-06
6.58104e-06
6.57929e-06
6.57781e-06
6.57666e-06
6.57589e-06
6.5749e-06
6.58585e-06
6.58682e-06
6.58795e-06
6.58945e-06
6.59149e-06
6.59392e-06
6.59658e-06
6.5994e-06
6.60226e-06
6.60495e-06
6.60735e-06
6.60941e-06
6.61103e-06
6.61214e-06
6.6127e-06
6.61273e-06
6.61214e-06
6.61108e-06
6.60945e-06
6.60737e-06
6.60495e-06
6.60226e-06
6.59944e-06
6.59656e-06
6.59387e-06
6.59149e-06
6.58948e-06
6.58793e-06
6.58691e-06
6.5858e-06
6.56001e-06
6.56069e-06
6.56185e-06
6.56326e-06
6.56602e-06
6.56803e-06
6.57091e-06
6.57348e-06
6.57637e-06
6.57964e-06
6.58442e-06
6.59283e-06
6.60699e-06
6.62262e-06
6.6513e-06
6.6513e-06
6.62257e-06
6.60703e-06
6.59291e-06
6.58453e-06
6.57969e-06
6.57631e-06
6.57326e-06
6.57031e-06
6.56765e-06
6.56511e-06
6.56295e-06
6.56145e-06
6.56065e-06
6.55984e-06
6.63563e-06
6.62409e-06
6.63257e-06
6.66555e-06
6.70454e-06
6.73745e-06
6.76385e-06
6.81426e-06
6.95906e-06
7.43192e-06
8.8101e-06
1.10111e-05
1.33478e-05
1.51382e-05
1.77241e-05
1.77181e-05
1.51396e-05
1.33511e-05
1.10235e-05
8.83269e-06
7.44439e-06
6.95933e-06
6.80792e-06
6.75157e-06
6.71274e-06
6.67698e-06
6.64577e-06
6.62245e-06
6.61548e-06
6.61343e-06
7.93385e-06
8.04047e-06
8.19406e-06
8.50576e-06
8.9079e-06
9.70628e-06
1.15362e-05
1.58531e-05
2.75811e-05
4.55262e-05
5.68128e-05
6.40017e-05
7.26318e-05
7.84601e-05
8.32304e-05
8.32209e-05
7.84547e-05
7.27126e-05
6.41236e-05
5.69751e-05
4.57568e-05
2.77459e-05
1.59287e-05
1.1559e-05
9.72174e-06
8.89998e-06
8.47261e-06
8.17983e-06
7.95559e-06
7.92038e-06
8.45569e-06
8.56472e-06
8.78465e-06
9.1666e-06
9.67153e-06
1.03836e-05
1.15405e-05
1.40569e-05
2.0625e-05
3.3886e-05
4.80916e-05
5.74504e-05
6.69983e-05
7.40349e-05
8.35605e-05
8.35435e-05
7.40216e-05
6.70999e-05
5.75761e-05
4.82232e-05
3.40364e-05
2.07208e-05
1.40946e-05
1.15553e-05
1.04035e-05
9.6664e-06
9.14627e-06
8.78349e-06
8.53873e-06
8.47001e-06
8.90234e-06
8.99598e-06
9.20451e-06
9.53262e-06
9.95939e-06
1.05263e-05
1.12947e-05
1.25172e-05
1.5314e-05
2.24869e-05
3.54816e-05
4.90015e-05
5.99754e-05
6.7607e-05
7.60186e-05
7.59981e-05
6.75809e-05
6.00332e-05
4.90955e-05
3.55982e-05
2.25819e-05
1.53592e-05
1.25333e-05
1.13064e-05
1.05397e-05
9.96135e-06
9.52703e-06
9.20052e-06
8.98862e-06
8.91505e-06
9.27737e-06
9.36585e-06
9.53351e-06
9.78474e-06
1.01128e-05
1.05251e-05
1.10335e-05
1.16833e-05
1.27041e-05
1.49565e-05
2.04016e-05
3.03259e-05
4.25375e-05
5.37302e-05
6.5221e-05
6.51759e-05
5.36848e-05
4.25514e-05
3.0368e-05
2.0455e-05
1.49926e-05
1.27252e-05
1.16967e-05
1.10454e-05
1.05348e-05
1.01168e-05
9.784e-06
9.53035e-06
9.36002e-06
9.28916e-06
9.53048e-06
9.60203e-06
9.73281e-06
9.92748e-06
1.01764e-05
1.04782e-05
1.08263e-05
1.12266e-05
1.1712e-05
1.24192e-05
1.37788e-05
1.65982e-05
2.15726e-05
2.89803e-05
3.99425e-05
3.99154e-05
2.89682e-05
2.15842e-05
1.66139e-05
1.37935e-05
1.24332e-05
1.17215e-05
1.12339e-05
1.08322e-05
1.04823e-05
1.01778e-05
9.9267e-06
9.73304e-06
9.5998e-06
9.53535e-06
9.66727e-06
9.72878e-06
9.83011e-06
9.978e-06
1.01678e-05
1.03942e-05
1.06481e-05
1.09264e-05
1.12292e-05
1.15776e-05
1.20269e-05
1.26986e-05
1.37615e-05
1.54877e-05
1.86011e-05
1.85958e-05
1.54863e-05
1.37586e-05
1.26985e-05
1.20348e-05
1.15889e-05
1.12358e-05
1.09309e-05
1.06526e-05
1.03975e-05
1.01702e-05
9.97985e-06
9.8331e-06
9.73082e-06
9.66881e-06
9.70807e-06
9.76976e-06
9.84886e-06
9.96419e-06
1.01101e-05
1.028e-05
1.04676e-05
1.06705e-05
1.0886e-05
1.11156e-05
1.13563e-05
1.16203e-05
1.19211e-05
1.22913e-05
1.28044e-05
1.28064e-05
1.23021e-05
1.1934e-05
1.16305e-05
1.13634e-05
1.11208e-05
1.08914e-05
1.0675e-05
1.04707e-05
1.02804e-05
1.01099e-05
9.96495e-06
9.85194e-06
9.77382e-06
9.71107e-06
9.67996e-06
9.73836e-06
9.79945e-06
9.89053e-06
1.00054e-05
1.01372e-05
1.0281e-05
1.0434e-05
1.05919e-05
1.07543e-05
1.0914e-05
1.10678e-05
1.12109e-05
1.13401e-05
1.14487e-05
1.14484e-05
1.13405e-05
1.12092e-05
1.10635e-05
1.09096e-05
1.07515e-05
1.05918e-05
1.04341e-05
1.02815e-05
1.01377e-05
1.00066e-05
9.89276e-06
9.80309e-06
9.7434e-06
9.68049e-06
9.59267e-06
9.65132e-06
9.69917e-06
9.76881e-06
9.85601e-06
9.95525e-06
1.0063e-05
1.01755e-05
1.02908e-05
1.04062e-05
1.05169e-05
1.06197e-05
1.07087e-05
1.07782e-05
1.08198e-05
1.08206e-05
1.0779e-05
1.07099e-05
1.06229e-05
1.05228e-05
1.0414e-05
1.02995e-05
1.01833e-05
1.00689e-05
9.95915e-06
9.85708e-06
9.76783e-06
9.69772e-06
9.65342e-06
9.59242e-06
9.45444e-06
9.518e-06
9.55174e-06
9.60532e-06
9.67213e-06
9.74849e-06
9.83035e-06
9.91371e-06
9.99735e-06
1.00768e-05
1.01498e-05
1.02143e-05
1.0268e-05
1.0307e-05
1.03288e-05
1.03299e-05
1.03082e-05
1.02696e-05
1.02169e-05
1.01533e-05
1.00805e-05
1.0001e-05
9.9177e-06
9.83321e-06
9.75026e-06
9.67257e-06
9.60483e-06
9.55124e-06
9.5196e-06
9.45982e-06
9.28937e-06
9.35189e-06
9.37149e-06
9.40979e-06
9.4605e-06
9.5182e-06
9.57901e-06
9.63867e-06
9.69553e-06
9.74566e-06
9.7878e-06
9.82184e-06
9.84717e-06
9.8635e-06
9.87334e-06
9.87387e-06
9.86434e-06
9.84725e-06
9.82201e-06
9.78858e-06
9.74597e-06
9.6956e-06
9.63913e-06
9.57908e-06
9.51882e-06
9.46241e-06
9.41284e-06
9.37334e-06
9.35243e-06
9.29283e-06
9.1003e-06
9.15754e-06
9.1675e-06
9.19482e-06
9.2305e-06
9.27116e-06
9.31222e-06
9.35001e-06
9.3822e-06
9.40631e-06
9.42287e-06
9.43281e-06
9.4356e-06
9.43505e-06
9.43435e-06
9.43409e-06
9.43539e-06
9.43661e-06
9.43484e-06
9.42604e-06
9.40893e-06
9.38347e-06
9.35042e-06
9.31214e-06
9.27219e-06
9.23395e-06
9.19966e-06
9.17205e-06
9.15946e-06
9.10101e-06
8.8945e-06
8.94615e-06
8.95044e-06
8.96924e-06
8.99247e-06
9.0186e-06
9.042e-06
9.06039e-06
9.07187e-06
9.07475e-06
9.06984e-06
9.05777e-06
9.04118e-06
9.0268e-06
9.01856e-06
9.01876e-06
9.02833e-06
9.04354e-06
9.05927e-06
9.07078e-06
9.07567e-06
9.07254e-06
9.06101e-06
9.04258e-06
9.02005e-06
8.99663e-06
8.97426e-06
8.95557e-06
8.94979e-06
8.89447e-06
8.67965e-06
8.72971e-06
8.73033e-06
8.74058e-06
8.75398e-06
8.76662e-06
8.77493e-06
8.77756e-06
8.77198e-06
8.75754e-06
8.73492e-06
8.70542e-06
8.6749e-06
8.64928e-06
8.63366e-06
8.63341e-06
8.64874e-06
8.6749e-06
8.7056e-06
8.73524e-06
8.75919e-06
8.77443e-06
8.78012e-06
8.77764e-06
8.76949e-06
8.75762e-06
8.74432e-06
8.73302e-06
8.73289e-06
8.6818e-06
8.46623e-06
8.51302e-06
8.50944e-06
8.5144e-06
8.51876e-06
8.52156e-06
8.51746e-06
8.50686e-06
8.48863e-06
8.46079e-06
8.42401e-06
8.38202e-06
8.3405e-06
8.30559e-06
8.28502e-06
8.28549e-06
8.30651e-06
8.34205e-06
8.3844e-06
8.42649e-06
8.46331e-06
8.49182e-06
8.51107e-06
8.52152e-06
8.5244e-06
8.52183e-06
8.51651e-06
8.51164e-06
8.51565e-06
8.46917e-06
8.25928e-06
8.30058e-06
8.29562e-06
8.29515e-06
8.29403e-06
8.28805e-06
8.27498e-06
8.25559e-06
8.22728e-06
8.18882e-06
8.14279e-06
8.09251e-06
8.0433e-06
8.0025e-06
7.97929e-06
7.98005e-06
8.00373e-06
8.04407e-06
8.09342e-06
8.14417e-06
8.19044e-06
8.22879e-06
8.25757e-06
8.27702e-06
8.28862e-06
8.29422e-06
8.2958e-06
8.296e-06
8.30262e-06
8.26113e-06
8.05955e-06
8.09647e-06
8.08895e-06
8.08332e-06
8.07928e-06
8.06639e-06
8.04845e-06
8.02313e-06
7.98728e-06
7.94255e-06
7.89106e-06
7.83551e-06
7.78148e-06
7.73708e-06
7.71183e-06
7.71203e-06
7.73731e-06
7.78139e-06
7.8355e-06
7.89148e-06
7.94329e-06
7.98745e-06
8.0227e-06
8.04918e-06
8.06764e-06
8.07918e-06
8.0855e-06
8.08929e-06
8.09764e-06
8.06172e-06
7.87193e-06
7.90372e-06
7.89398e-06
7.8877e-06
7.87678e-06
7.86054e-06
7.83985e-06
7.80953e-06
7.76962e-06
7.72234e-06
7.66794e-06
7.60968e-06
7.55382e-06
7.50883e-06
7.48345e-06
7.48375e-06
7.5097e-06
7.55483e-06
7.61034e-06
7.66832e-06
7.72309e-06
7.77111e-06
7.81072e-06
7.84143e-06
7.86367e-06
7.87872e-06
7.88841e-06
7.8951e-06
7.90458e-06
7.87407e-06
7.70154e-06
7.72743e-06
7.71567e-06
7.70781e-06
7.69321e-06
7.67707e-06
7.65282e-06
7.61949e-06
7.57905e-06
7.53066e-06
7.47524e-06
7.41706e-06
7.3622e-06
7.31788e-06
7.29209e-06
7.29178e-06
7.31748e-06
7.36238e-06
7.41772e-06
7.47578e-06
7.53095e-06
7.57979e-06
7.62061e-06
7.65299e-06
7.67746e-06
7.69517e-06
7.70747e-06
7.71604e-06
7.72569e-06
7.70014e-06
7.54021e-06
7.56315e-06
7.55225e-06
7.54231e-06
7.52962e-06
7.51159e-06
7.48472e-06
7.45164e-06
7.41139e-06
7.3631e-06
7.30914e-06
7.25343e-06
7.20089e-06
7.15782e-06
7.13253e-06
7.13245e-06
7.15776e-06
7.20141e-06
7.25469e-06
7.31035e-06
7.36344e-06
7.4111e-06
7.4518e-06
7.48494e-06
7.51071e-06
7.52985e-06
7.54338e-06
7.55276e-06
7.5622e-06
7.54149e-06
7.39976e-06
7.41361e-06
7.4062e-06
7.39568e-06
7.38311e-06
7.36267e-06
7.33666e-06
7.30512e-06
7.26581e-06
7.21976e-06
7.16924e-06
7.11718e-06
7.0674e-06
7.02612e-06
7.00192e-06
7.00192e-06
7.02595e-06
7.06706e-06
7.11701e-06
7.16933e-06
7.21975e-06
7.26554e-06
7.305e-06
7.33738e-06
7.36285e-06
7.38211e-06
7.39611e-06
7.40608e-06
7.41536e-06
7.39891e-06
7.27123e-06
7.28303e-06
7.27549e-06
7.26603e-06
7.25202e-06
7.23261e-06
7.20901e-06
7.1785e-06
7.14116e-06
7.09851e-06
7.05199e-06
7.00355e-06
6.95683e-06
6.9183e-06
6.89593e-06
6.89614e-06
6.91871e-06
6.9569e-06
7.00318e-06
7.05175e-06
7.09865e-06
7.14124e-06
7.178e-06
7.20848e-06
7.23295e-06
7.25198e-06
7.26617e-06
7.27638e-06
7.28511e-06
7.27188e-06
7.15676e-06
7.16995e-06
7.16077e-06
7.15181e-06
7.13814e-06
7.12068e-06
7.09771e-06
7.06841e-06
7.03423e-06
6.99583e-06
6.95373e-06
6.90953e-06
6.86714e-06
6.8324e-06
6.81218e-06
6.81244e-06
6.83313e-06
6.86793e-06
6.90996e-06
6.95403e-06
6.99655e-06
7.03524e-06
7.06895e-06
7.09737e-06
7.12058e-06
7.13884e-06
7.15252e-06
7.16226e-06
7.17006e-06
7.15936e-06
7.06152e-06
7.06928e-06
7.06236e-06
7.05333e-06
7.04049e-06
7.02381e-06
7.00178e-06
6.97553e-06
6.94552e-06
6.91148e-06
6.87369e-06
6.83405e-06
6.79613e-06
6.76469e-06
6.74595e-06
6.7458e-06
6.76434e-06
6.79566e-06
6.83347e-06
6.87307e-06
6.91125e-06
6.94609e-06
6.97666e-06
7.0026e-06
7.02383e-06
7.04057e-06
7.05317e-06
7.06218e-06
7.06915e-06
7.06074e-06
6.97606e-06
6.98151e-06
6.9763e-06
6.9671e-06
6.95543e-06
6.94002e-06
6.92079e-06
6.8981e-06
6.87152e-06
6.84091e-06
6.80714e-06
6.77204e-06
6.7383e-06
6.70994e-06
6.69278e-06
6.69256e-06
6.70942e-06
6.73775e-06
6.7717e-06
6.80696e-06
6.84075e-06
6.87154e-06
6.89857e-06
6.92156e-06
6.94049e-06
6.95558e-06
6.96712e-06
6.9755e-06
6.98182e-06
6.97533e-06
6.90071e-06
6.90806e-06
6.90136e-06
6.89306e-06
6.88296e-06
6.86947e-06
6.85284e-06
6.83259e-06
6.80855e-06
6.78127e-06
6.7518e-06
6.7213e-06
6.69176e-06
6.66671e-06
6.65147e-06
6.65146e-06
6.66676e-06
6.69204e-06
6.72187e-06
6.75253e-06
6.78182e-06
6.80858e-06
6.83223e-06
6.85253e-06
6.86946e-06
6.88312e-06
6.89365e-06
6.90133e-06
6.90696e-06
6.90178e-06
6.83948e-06
6.84385e-06
6.83739e-06
6.83098e-06
6.82197e-06
6.81009e-06
6.79514e-06
6.77698e-06
6.75586e-06
6.7324e-06
6.70714e-06
6.68082e-06
6.65512e-06
6.63308e-06
6.61949e-06
6.61946e-06
6.63296e-06
6.65494e-06
6.68062e-06
6.70699e-06
6.73235e-06
6.75573e-06
6.77658e-06
6.79459e-06
6.80967e-06
6.82184e-06
6.8312e-06
6.83801e-06
6.84285e-06
6.83859e-06
6.78569e-06
6.78716e-06
6.78334e-06
6.77797e-06
6.76966e-06
6.75886e-06
6.74563e-06
6.73013e-06
6.71237e-06
6.69247e-06
6.67071e-06
6.64784e-06
6.62537e-06
6.60595e-06
6.59394e-06
6.59393e-06
6.60577e-06
6.62481e-06
6.64696e-06
6.6698e-06
6.69189e-06
6.71232e-06
6.73054e-06
6.74624e-06
6.75933e-06
6.76985e-06
6.77797e-06
6.78391e-06
6.78809e-06
6.78467e-06
6.7381e-06
6.74122e-06
6.7385e-06
6.73302e-06
6.72537e-06
6.71579e-06
6.70472e-06
6.69181e-06
6.67676e-06
6.65957e-06
6.64064e-06
6.62077e-06
6.60136e-06
6.5847e-06
6.57443e-06
6.57455e-06
6.58494e-06
6.60146e-06
6.6206e-06
6.64028e-06
6.65923e-06
6.67668e-06
6.69219e-06
6.70555e-06
6.71671e-06
6.72576e-06
6.73284e-06
6.73812e-06
6.74184e-06
6.73911e-06
6.70006e-06
6.70396e-06
6.70057e-06
6.69552e-06
6.68883e-06
6.68092e-06
6.67158e-06
6.66034e-06
6.64719e-06
6.63232e-06
6.61609e-06
6.59923e-06
6.58292e-06
6.56891e-06
6.56006e-06
6.56011e-06
6.56913e-06
6.58333e-06
6.59962e-06
6.61622e-06
6.63213e-06
6.64679e-06
6.65989e-06
6.67126e-06
6.68087e-06
6.68878e-06
6.69508e-06
6.69982e-06
6.70309e-06
6.70069e-06
6.66859e-06
6.67063e-06
6.66766e-06
6.66372e-06
6.65834e-06
6.65173e-06
6.64334e-06
6.63336e-06
6.62206e-06
6.60952e-06
6.59599e-06
6.58207e-06
6.56855e-06
6.55658e-06
6.54869e-06
6.54859e-06
6.55638e-06
6.56847e-06
6.58216e-06