/*--------------------------------*- C++ -*----------------------------------*\
| =========                 |                                                 |
| \\      /  F ield         | OpenFOAM: The Open Source CFD Toolbox           |
|  \\    /   O peration     | Version:  2312                                  |
|   \\  /    A nd           | Website:  www.openfoam.com                      |
|    \\/     M anipulation  |                                                 |
\*---------------------------------------------------------------------------*/
FoamFile
{
    version     2.0;
    format      ascii;
    arch        "LSB;label=32;scalar=64";
    class       volScalarField;
    location    "0.198545";
    object      p;
}
// * * * * * * * * * * * * * * * * * * * * * * * * * * * * * * * * * * * * * //

dimensions      [1 -1 -2 0 0 0 0];

internalField   nonuniform List<scalar> 
90000
(
4828.16
4828.16
4828.16
4828.16
4828.16
4828.16
4828.16
4828.16
4828.16
4828.16
4828.15
4828.15
4828.15
4828.15
4828.15
4828.15
4828.15
4828.15
4828.16
4828.16
4828.16
4828.16
4828.16
4828.16
4828.16
4828.16
4828.16
4828.16
4828.17
4828.17
4730.06
4730.06
4730.06
4730.06
4730.06
4730.06
4730.06
4730.06
4730.06
4730.06
4730.05
4730.05
4730.05
4730.05
4730.05
4730.05
4730.05
4730.05
4730.05
4730.06
4730.06
4730.06
4730.06
4730.06
4730.06
4730.06
4730.06
4730.06
4730.07
4730.07
4631.96
4631.96
4631.96
4631.96
4631.96
4631.96
4631.96
4631.96
4631.96
4631.96
4631.96
4631.95
4631.95
4631.95
4631.95
4631.95
4631.95
4631.95
4631.96
4631.96
4631.96
4631.96
4631.96
4631.96
4631.96
4631.96
4631.96
4631.96
4631.97
4631.97
4533.87
4533.87
4533.87
4533.86
4533.86
4533.86
4533.86
4533.86
4533.86
4533.86
4533.86
4533.85
4533.85
4533.85
4533.85
4533.85
4533.85
4533.85
4533.86
4533.86
4533.86
4533.86
4533.86
4533.86
4533.86
4533.86
4533.87
4533.87
4533.87
4533.87
4435.77
4435.77
4435.77
4435.77
4435.77
4435.76
4435.76
4435.76
4435.76
4435.76
4435.76
4435.76
4435.75
4435.75
4435.75
4435.75
4435.75
4435.76
4435.76
4435.76
4435.76
4435.76
4435.76
4435.76
4435.77
4435.77
4435.77
4435.77
4435.77
4435.77
4337.67
4337.67
4337.67
4337.67
4337.67
4337.67
4337.66
4337.66
4337.66
4337.66
4337.66
4337.66
4337.66
4337.65
4337.65
4337.65
4337.66
4337.66
4337.66
4337.66
4337.66
4337.66
4337.66
4337.67
4337.67
4337.67
4337.67
4337.67
4337.67
4337.67
4239.58
4239.58
4239.57
4239.57
4239.57
4239.57
4239.57
4239.56
4239.56
4239.56
4239.56
4239.56
4239.56
4239.56
4239.56
4239.56
4239.56
4239.56
4239.56
4239.56
4239.56
4239.56
4239.57
4239.57
4239.57
4239.57
4239.57
4239.58
4239.58
4239.58
4141.48
4141.48
4141.48
4141.48
4141.48
4141.47
4141.47
4141.47
4141.47
4141.46
4141.46
4141.46
4141.46
4141.46
4141.46
4141.46
4141.46
4141.46
4141.46
4141.46
4141.46
4141.47
4141.47
4141.47
4141.47
4141.48
4141.48
4141.48
4141.48
4141.48
4043.39
4043.39
4043.39
4043.38
4043.38
4043.38
4043.37
4043.37
4043.37
4043.37
4043.36
4043.36
4043.36
4043.36
4043.36
4043.36
4043.36
4043.36
4043.36
4043.36
4043.37
4043.37
4043.37
4043.38
4043.38
4043.38
4043.38
4043.39
4043.39
4043.39
3945.29
3945.29
3945.29
3945.29
3945.29
3945.28
3945.28
3945.28
3945.27
3945.27
3945.26
3945.26
3945.26
3945.26
3945.26
3945.26
3945.26
3945.26
3945.26
3945.27
3945.27
3945.27
3945.28
3945.28
3945.28
3945.29
3945.29
3945.29
3945.3
3945.3
3847.2
3847.2
3847.2
3847.2
3847.19
3847.19
3847.19
3847.18
3847.18
3847.17
3847.17
3847.16
3847.16
3847.16
3847.16
3847.16
3847.16
3847.16
3847.16
3847.17
3847.17
3847.18
3847.18
3847.19
3847.19
3847.2
3847.2
3847.2
3847.2
3847.2
3749.11
3749.11
3749.11
3749.11
3749.1
3749.1
3749.09
3749.09
3749.08
3749.08
3749.07
3749.07
3749.06
3749.06
3749.06
3749.06
3749.06
3749.06
3749.07
3749.07
3749.08
3749.08
3749.09
3749.09
3749.1
3749.1
3749.11
3749.11
3749.11
3749.12
3651.03
3651.03
3651.02
3651.02
3651.01
3651.01
3651
3651
3650.99
3650.98
3650.98
3650.97
3650.97
3650.96
3650.96
3650.96
3650.96
3650.97
3650.97
3650.98
3650.98
3650.99
3651
3651
3651.01
3651.02
3651.02
3651.02
3651.03
3651.03
3552.94
3552.94
3552.94
3552.93
3552.93
3552.92
3552.91
3552.91
3552.9
3552.89
3552.88
3552.88
3552.87
3552.87
3552.87
3552.87
3552.87
3552.87
3552.88
3552.88
3552.89
3552.9
3552.91
3552.91
3552.92
3552.93
3552.94
3552.94
3552.94
3552.95
3454.86
3454.86
3454.86
3454.85
3454.85
3454.84
3454.83
3454.82
3454.81
3454.8
3454.79
3454.78
3454.77
3454.77
3454.77
3454.77
3454.77
3454.77
3454.78
3454.79
3454.8
3454.81
3454.82
3454.83
3454.84
3454.85
3454.85
3454.86
3454.86
3454.87
3356.79
3356.79
3356.78
3356.78
3356.77
3356.76
3356.74
3356.73
3356.72
3356.71
3356.7
3356.69
3356.68
3356.67
3356.67
3356.67
3356.67
3356.68
3356.69
3356.7
3356.71
3356.72
3356.73
3356.74
3356.75
3356.77
3356.78
3356.78
3356.79
3356.79
3258.72
3258.72
3258.71
3258.7
3258.69
3258.68
3258.66
3258.65
3258.63
3258.62
3258.61
3258.59
3258.59
3258.58
3258.58
3258.58
3258.58
3258.59
3258.59
3258.61
3258.62
3258.63
3258.65
3258.66
3258.68
3258.69
3258.7
3258.71
3258.72
3258.72
3160.66
3160.65
3160.65
3160.64
3160.62
3160.61
3160.59
3160.57
3160.55
3160.53
3160.52
3160.5
3160.49
3160.49
3160.48
3160.48
3160.49
3160.49
3160.5
3160.52
3160.53
3160.55
3160.57
3160.59
3160.61
3160.62
3160.64
3160.65
3160.65
3160.66
3062.6
3062.6
3062.59
3062.58
3062.56
3062.54
3062.52
3062.5
3062.47
3062.45
3062.43
3062.41
3062.4
3062.39
3062.39
3062.39
3062.39
3062.4
3062.41
3062.43
3062.45
3062.47
3062.49
3062.52
3062.54
3062.56
3062.58
3062.59
3062.6
3062.6
2964.56
2964.55
2964.54
2964.52
2964.5
2964.48
2964.45
2964.43
2964.4
2964.37
2964.35
2964.33
2964.31
2964.3
2964.29
2964.29
2964.3
2964.31
2964.33
2964.35
2964.37
2964.4
2964.43
2964.45
2964.48
2964.5
2964.52
2964.54
2964.55
2964.56
2866.52
2866.52
2866.5
2866.48
2866.46
2866.43
2866.4
2866.36
2866.33
2866.3
2866.27
2866.24
2866.22
2866.21
2866.2
2866.2
2866.21
2866.22
2866.24
2866.27
2866.3
2866.33
2866.36
2866.4
2866.43
2866.46
2866.48
2866.5
2866.52
2866.52
2768.5
2768.49
2768.48
2768.45
2768.42
2768.39
2768.35
2768.31
2768.27
2768.23
2768.19
2768.16
2768.14
2768.12
2768.11
2768.11
2768.12
2768.14
2768.16
2768.19
2768.23
2768.27
2768.31
2768.35
2768.39
2768.42
2768.45
2768.48
2768.49
2768.5
2670.49
2670.48
2670.46
2670.44
2670.4
2670.36
2670.31
2670.26
2670.21
2670.16
2670.12
2670.08
2670.05
2670.03
2670.02
2670.02
2670.03
2670.05
2670.08
2670.12
2670.16
2670.21
2670.26
2670.31
2670.36
2670.4
2670.44
2670.47
2670.49
2670.5
2572.51
2572.5
2572.47
2572.44
2572.39
2572.34
2572.28
2572.22
2572.16
2572.11
2572.05
2572.01
2571.97
2571.95
2571.94
2571.94
2571.95
2571.97
2572.01
2572.05
2572.11
2572.16
2572.22
2572.28
2572.34
2572.39
2572.44
2572.47
2572.5
2572.51
2474.54
2474.53
2474.5
2474.46
2474.41
2474.34
2474.27
2474.2
2474.13
2474.06
2474
2473.94
2473.9
2473.87
2473.86
2473.86
2473.87
2473.9
2473.94
2474
2474.06
2474.13
2474.2
2474.27
2474.34
2474.4
2474.46
2474.5
2474.53
2474.54
2376.61
2376.59
2376.56
2376.51
2376.44
2376.37
2376.29
2376.2
2376.11
2376.03
2375.95
2375.89
2375.84
2375.8
2375.78
2375.78
2375.8
2375.84
2375.89
2375.95
2376.03
2376.11
2376.2
2376.28
2376.36
2376.44
2376.5
2376.55
2376.59
2376.6
2278.71
2278.69
2278.65
2278.59
2278.51
2278.42
2278.32
2278.22
2278.11
2278.02
2277.92
2277.85
2277.78
2277.74
2277.72
2277.72
2277.74
2277.78
2277.85
2277.92
2278.01
2278.11
2278.22
2278.32
2278.42
2278.5
2278.58
2278.64
2278.68
2278.7
2180.85
2180.82
2180.77
2180.7
2180.61
2180.5
2180.39
2180.26
2180.14
2180.02
2179.91
2179.82
2179.75
2179.7
2179.67
2179.67
2179.7
2179.75
2179.82
2179.91
2180.02
2180.14
2180.26
2180.38
2180.5
2180.61
2180.7
2180.77
2180.81
2180.84
2083.03
2083.01
2082.95
2082.86
2082.76
2082.63
2082.49
2082.35
2082.2
2082.06
2081.93
2081.82
2081.73
2081.67
2081.64
2081.64
2081.67
2081.73
2081.82
2081.93
2082.06
2082.2
2082.34
2082.49
2082.63
2082.75
2082.86
2082.94
2083
2083.03
1985.28
1985.25
1985.18
1985.08
1984.95
1984.8
1984.64
1984.47
1984.3
1984.13
1983.98
1983.85
1983.74
1983.67
1983.63
1983.63
1983.67
1983.74
1983.85
1983.98
1984.13
1984.3
1984.47
1984.64
1984.8
1984.95
1985.07
1985.17
1985.24
1985.27
1887.6
1887.55
1887.47
1887.36
1887.21
1887.04
1886.85
1886.64
1886.44
1886.24
1886.06
1885.91
1885.78
1885.7
1885.65
1885.65
1885.7
1885.78
1885.91
1886.06
1886.24
1886.44
1886.64
1886.84
1887.03
1887.21
1887.35
1887.47
1887.55
1887.59
1789.99
1789.94
1789.85
1789.71
1789.54
1789.34
1789.12
1788.88
1788.64
1788.41
1788.2
1788.02
1787.87
1787.77
1787.72
1787.72
1787.77
1787.87
1788.02
1788.2
1788.41
1788.64
1788.88
1789.12
1789.34
1789.54
1789.71
1789.85
1789.94
1789.99
1692.48
1692.43
1692.32
1692.16
1691.96
1691.73
1691.47
1691.19
1690.92
1690.65
1690.4
1690.19
1690.02
1689.9
1689.84
1689.84
1689.9
1690.01
1690.19
1690.4
1690.65
1690.91
1691.19
1691.47
1691.73
1691.96
1692.16
1692.32
1692.42
1692.48
1595.08
1595.02
1594.89
1594.71
1594.49
1594.22
1593.92
1593.6
1593.28
1592.97
1592.68
1592.43
1592.23
1592.09
1592.02
1592.02
1592.09
1592.23
1592.43
1592.68
1592.96
1593.27
1593.6
1593.91
1594.21
1594.48
1594.71
1594.89
1595.02
1595.08
1497.8
1497.73
1497.59
1497.39
1497.13
1496.82
1496.48
1496.12
1495.75
1495.39
1495.06
1494.77
1494.54
1494.38
1494.3
1494.3
1494.38
1494.54
1494.77
1495.06
1495.39
1495.74
1496.11
1496.47
1496.82
1497.13
1497.39
1497.59
1497.73
1497.8
1400.67
1400.59
1400.43
1400.2
1399.91
1399.56
1399.18
1398.77
1398.35
1397.94
1397.56
1397.24
1396.97
1396.79
1396.69
1396.69
1396.79
1396.97
1397.23
1397.56
1397.94
1398.34
1398.76
1399.17
1399.56
1399.91
1400.2
1400.43
1400.59
1400.67
1303.7
1303.61
1303.43
1303.18
1302.85
1302.47
1302.04
1301.58
1301.11
1300.65
1300.22
1299.85
1299.56
1299.35
1299.24
1299.24
1299.35
1299.55
1299.85
1300.22
1300.64
1301.1
1301.57
1302.03
1302.46
1302.85
1303.18
1303.43
1303.6
1303.69
1206.9
1206.8
1206.61
1206.33
1205.98
1205.55
1205.08
1204.57
1204.05
1203.55
1203.07
1202.66
1202.33
1202.1
1201.98
1201.98
1202.1
1202.33
1202.66
1203.07
1203.54
1204.05
1204.57
1205.07
1205.55
1205.97
1206.33
1206.61
1206.79
1206.89
1110.29
1110.18
1109.98
1109.69
1109.3
1108.85
1108.34
1107.79
1107.23
1106.67
1106.16
1105.71
1105.34
1105.08
1104.95
1104.95
1105.08
1105.34
1105.7
1106.15
1106.67
1107.22
1107.78
1108.33
1108.84
1109.3
1109.68
1109.98
1110.18
1110.28
1013.88
1013.77
1013.56
1013.25
1012.85
1012.38
1011.84
1011.26
1010.66
1010.07
1009.52
1009.03
1008.64
1008.36
1008.22
1008.22
1008.36
1008.64
1009.03
1009.51
1010.07
1010.66
1011.25
1011.83
1012.37
1012.85
1013.25
1013.55
1013.77
1013.87
917.681
917.574
917.362
917.05
916.646
916.161
915.612
915.016
914.398
913.786
913.209
912.699
912.285
911.993
911.842
911.842
911.992
912.283
912.695
913.204
913.78
914.392
915.009
915.605
916.154
916.637
917.04
917.352
917.565
917.672
821.694
821.59
821.385
821.082
820.689
820.215
819.674
819.084
818.468
817.855
817.273
816.757
816.336
816.039
815.885
815.885
816.038
816.335
816.755
817.271
817.851
818.464
819.079
819.668
820.207
820.68
821.073
821.375
821.58
821.683
725.91
725.816
725.628
725.35
724.987
724.546
724.041
723.485
722.902
722.316
721.757
721.258
720.85
720.561
720.411
720.411
720.561
720.851
721.259
721.758
722.316
722.901
723.483
724.037
724.541
724.979
725.341
725.618
725.805
725.899
630.313
630.233
630.075
629.839
629.529
629.151
628.713
628.228
627.713
627.193
626.693
626.243
625.873
625.61
625.473
625.473
625.61
625.874
626.244
626.694
627.194
627.715
628.228
628.712
629.148
629.524
629.832
630.067
630.224
630.302
534.873
534.814
534.697
534.523
534.291
534.006
533.672
533.298
532.897
532.486
532.088
531.726
531.426
531.212
531.1
531.1
531.212
531.427
531.727
532.089
532.488
532.898
533.299
533.672
534.005
534.289
534.518
534.691
534.806
534.863
439.546
439.515
439.452
439.357
439.229
439.068
438.876
438.655
438.415
438.163
437.915
437.686
437.495
437.356
437.283
437.283
437.355
437.493
437.685
437.914
438.163
438.415
438.656
438.876
439.068
439.228
439.355
439.447
439.508
439.538
344.279
344.28
344.282
344.282
344.279
344.27
344.253
344.226
344.191
344.147
344.098
344.048
344.004
343.971
343.953
343.952
343.969
344.002
344.046
344.096
344.146
344.19
344.226
344.253
344.27
344.279
344.281
344.278
344.275
344.273
249.003
249.039
249.111
249.216
249.351
249.512
249.694
249.89
250.095
250.298
250.488
250.657
250.796
250.895
250.946
250.945
250.893
250.793
250.654
250.486
250.296
250.094
249.889
249.693
249.512
249.351
249.215
249.108
249.035
248.998
153.705
153.777
153.922
154.136
154.415
154.753
155.143
155.576
156.042
156.517
156.971
157.381
157.722
157.97
158.098
158.098
157.969
157.72
157.378
156.969
156.516
156.041
155.575
155.142
154.753
154.414
154.135
153.92
153.774
153.701
58.0063
58.108
58.3164
58.6274
59.0331
59.5267
60.1001
60.7445
61.4576
62.1993
62.902
63.5335
64.0568
64.4433
64.6427
64.6426
64.443
64.0556
63.5312
62.9009
62.2004
61.4589
60.7439
60.0995
59.5274
59.0318
58.6255
58.3151
58.1063
58.0043
2.13583
2.19005
2.30218
2.47146
2.69297
2.96227
3.27134
3.61557
4.01279
4.43286
4.81541
5.16082
5.43024
5.64423
5.75867
5.75887
5.64464
5.42925
5.15904
4.81472
4.43402
4.01431
3.61417
3.271
2.96366
2.6919
2.47063
2.30216
2.18924
2.13502
-5.0807
-5.08031
-5.0783
-5.07472
-5.06805
-5.05866
-5.0518
-5.03534
-4.99087
-4.94393
-4.93584
-4.95462
-4.9743
-4.97356
-4.96614
-4.96612
-4.97356
-4.97431
-4.95449
-4.9353
-4.94303
-4.99015
-5.03511
-5.05176
-5.05867
-5.06815
-5.07485
-5.07851
-5.08062
-5.08101
-5.1831
-5.18313
-5.18282
-5.18232
-5.18165
-5.18156
-5.18391
-5.18788
-5.19366
-5.20625
-5.22025
-5.21993
-5.21871
-5.21378
-5.20048
-5.20047
-5.21375
-5.21865
-5.2199
-5.22025
-5.20632
-5.19376
-5.18798
-5.18405
-5.18171
-5.18176
-5.18246
-5.18305
-5.18343
-5.18347
-5.28225
-5.28258
-5.2832
-5.28422
-5.28594
-5.28894
-5.29382
-5.30018
-5.30826
-5.32031
-5.3348
-5.34504
-5.3487
-5.35002
-5.34573
-5.34571
-5.34999
-5.34874
-5.34522
-5.3351
-5.3206
-5.30846
-5.30037
-5.29404
-5.28915
-5.28611
-5.28439
-5.28342
-5.28289
-5.2826
-5.38091
-5.38139
-5.38236
-5.38388
-5.38608
-5.38916
-5.39322
-5.3979
-5.40243
-5.40647
-5.41069
-5.41497
-5.41778
-5.41971
-5.42038
-5.42035
-5.41967
-5.41781
-5.41511
-5.41089
-5.40667
-5.40262
-5.39811
-5.39346
-5.38939
-5.38628
-5.38408
-5.38262
-5.38172
-5.38125
-5.47868
-5.47916
-5.48013
-5.48158
-5.48351
-5.48593
-5.48874
-5.49171
-5.49448
-5.49644
-5.4973
-5.49717
-5.4963
-5.49489
-5.49324
-5.49323
-5.49488
-5.49635
-5.49728
-5.49744
-5.49661
-5.49467
-5.49191
-5.48897
-5.48615
-5.4837
-5.48177
-5.48039
-5.47949
-5.47902
-5.57555
-5.57595
-5.57675
-5.57789
-5.57933
-5.58102
-5.58285
-5.58466
-5.58623
-5.5874
-5.58802
-5.58794
-5.58718
-5.58586
-5.58424
-5.58425
-5.58586
-5.5872
-5.58801
-5.58816
-5.58759
-5.58642
-5.58485
-5.58307
-5.58123
-5.57952
-5.57809
-5.577
-5.57626
-5.57588
-5.6717
-5.672
-5.67259
-5.67339
-5.67434
-5.67537
-5.67642
-5.6774
-5.67817
-5.67867
-5.67887
-5.67877
-5.67842
-5.67791
-5.67738
-5.67739
-5.67794
-5.67849
-5.67887
-5.67898
-5.67881
-5.67833
-5.67757
-5.67662
-5.67557
-5.67452
-5.67359
-5.67283
-5.67229
-5.67201
-5.76738
-5.76756
-5.76795
-5.76844
-5.76898
-5.76952
-5.77
-5.77038
-5.77058
-5.77061
-5.77045
-5.77013
-5.76971
-5.76929
-5.76899
-5.769
-5.76931
-5.76974
-5.77017
-5.77049
-5.77068
-5.77069
-5.77052
-5.77018
-5.76972
-5.76917
-5.76863
-5.76816
-5.76783
-5.76766
-5.86279
-5.86288
-5.86311
-5.86335
-5.86354
-5.86369
-5.86376
-5.86372
-5.86356
-5.86328
-5.86291
-5.86246
-5.86199
-5.86158
-5.86133
-5.86134
-5.8616
-5.862
-5.86248
-5.86295
-5.86338
-5.86371
-5.86392
-5.86398
-5.8639
-5.8637
-5.86347
-5.86327
-5.86312
-5.86305
-5.95811
-5.95815
-5.95823
-5.95826
-5.95823
-5.95812
-5.95793
-5.95764
-5.95725
-5.95678
-5.95625
-5.95569
-5.95519
-5.95479
-5.95458
-5.95459
-5.95482
-5.95524
-5.95576
-5.95633
-5.95689
-5.95738
-5.95778
-5.95809
-5.95828
-5.95837
-5.95839
-5.95838
-5.95836
-5.95836
-6.0535
-6.05349
-6.05345
-6.05333
-6.05313
-6.05286
-6.0525
-6.05208
-6.05158
-6.05101
-6.05039
-6.04978
-6.04924
-6.04886
-6.04867
-6.04869
-6.04892
-6.04932
-6.04985
-6.05043
-6.05103
-6.0516
-6.05214
-6.05261
-6.053
-6.05329
-6.05348
-6.0536
-6.05367
-6.05372
-6.14907
-6.149
-6.14886
-6.14863
-6.14832
-6.14793
-6.14748
-6.14698
-6.14644
-6.14583
-6.14518
-6.14455
-6.14401
-6.14363
-6.14344
-6.14345
-6.14365
-6.14402
-6.14453
-6.14512
-6.14575
-6.14639
-6.14701
-6.14757
-6.14807
-6.14847
-6.14877
-6.14899
-6.14914
-6.14923
-6.2448
-6.2447
-6.2445
-6.2442
-6.24382
-6.24335
-6.24283
-6.24228
-6.24169
-6.24105
-6.24039
-6.23978
-6.23927
-6.23892
-6.23874
-6.23875
-6.23894
-6.2393
-6.2398
-6.2404
-6.24105
-6.2417
-6.24233
-6.24293
-6.24347
-6.24394
-6.24433
-6.24463
-6.24484
-6.24496
-6.34076
-6.34065
-6.34042
-6.3401
-6.33969
-6.3392
-6.33865
-6.33807
-6.33744
-6.33678
-6.33614
-6.33556
-6.33509
-6.33478
-6.33462
-6.33463
-6.33481
-6.33514
-6.33561
-6.33617
-6.3368
-6.33743
-6.33807
-6.33868
-6.33925
-6.33977
-6.34021
-6.34056
-6.34079
-6.34091
-6.43697
-6.43686
-6.43661
-6.43628
-6.43587
-6.4354
-6.43487
-6.43427
-6.43363
-6.43298
-6.43236
-6.43182
-6.4314
-6.43112
-6.43098
-6.43098
-6.43113
-6.43142
-6.43184
-6.43237
-6.43296
-6.4336
-6.43423
-6.43485
-6.43543
-6.43595
-6.43639
-6.43674
-6.43697
-6.43708
-6.53344
-6.53332
-6.53305
-6.53272
-6.53233
-6.53189
-6.53136
-6.53078
-6.53015
-6.52953
-6.52896
-6.52847
-6.52809
-6.52784
-6.52771
-6.52771
-6.52784
-6.5281
-6.52849
-6.52898
-6.52955
-6.53016
-6.53078
-6.53137
-6.53193
-6.53242
-6.53283
-6.53315
-6.53338
-6.53349
-6.63013
-6.62999
-6.62977
-6.62948
-6.62913
-6.6287
-6.62819
-6.62762
-6.62703
-6.62645
-6.62593
-6.62549
-6.62516
-6.62493
-6.62481
-6.62481
-6.62493
-6.62517
-6.62551
-6.62596
-6.62648
-6.62704
-6.62761
-6.62816
-6.62867
-6.62912
-6.6295
-6.6298
-6.63001
-6.63013
-6.72695
-6.72683
-6.72668
-6.72646
-6.72614
-6.72573
-6.72525
-6.72471
-6.72417
-6.72365
-6.72319
-6.7228
-6.72249
-6.72228
-6.72217
-6.72217
-6.72228
-6.72248
-6.72278
-6.72317
-6.72362
-6.72412
-6.72463
-6.72514
-6.72561
-6.72603
-6.72639
-6.72667
-6.72687
-6.72697
-6.82391
-6.82384
-6.82373
-6.82353
-6.82323
-6.82285
-6.8224
-6.82193
-6.82145
-6.821
-6.82059
-6.82024
-6.81997
-6.81977
-6.81967
-6.81967
-6.81976
-6.81994
-6.8202
-6.82053
-6.82093
-6.82137
-6.82183
-6.82229
-6.82273
-6.82312
-6.82345
-6.82371
-6.82389
-6.82398
-6.92107
-6.92104
-6.92092
-6.92071
-6.92041
-6.92006
-6.91966
-6.91925
-6.91885
-6.91846
-6.91811
-6.9178
-6.91755
-6.91738
-6.91728
-6.91728
-6.91736
-6.91752
-6.91775
-6.91805
-6.9184
-6.91879
-6.9192
-6.91961
-6.92
-6.92036
-6.92066
-6.92089
-6.92104
-6.92112
-7.01845
-7.01841
-7.01827
-7.01804
-7.01776
-7.01743
-7.01709
-7.01674
-7.01639
-7.01606
-7.01575
-7.01548
-7.01526
-7.0151
-7.01501
-7.01501
-7.01508
-7.01523
-7.01544
-7.01571
-7.01602
-7.01636
-7.01672
-7.01707
-7.01741
-7.01771
-7.01797
-7.01817
-7.0183
-7.01837
-7.11593
-7.11587
-7.11571
-7.1155
-7.11525
-7.11497
-7.11467
-7.11437
-7.11407
-7.11378
-7.11351
-7.11326
-7.11306
-7.11292
-7.11284
-7.11283
-7.11289
-7.11302
-7.11322
-7.11345
-7.11373
-7.11402
-7.11433
-7.11463
-7.11491
-7.11517
-7.11539
-7.11555
-7.11567
-7.11572
-7.21343
-7.21336
-7.21322
-7.21305
-7.21284
-7.2126
-7.21235
-7.21209
-7.21182
-7.21156
-7.21131
-7.21109
-7.21091
-7.21077
-7.2107
-7.21069
-7.21075
-7.21086
-7.21103
-7.21124
-7.21149
-7.21174
-7.212
-7.21226
-7.2125
-7.21272
-7.2129
-7.21305
-7.21314
-7.2132
-7.31096
-7.31089
-7.31079
-7.31066
-7.31049
-7.3103
-7.31008
-7.30985
-7.30961
-7.30936
-7.30914
-7.30894
-7.30877
-7.30865
-7.30859
-7.30858
-7.30863
-7.30873
-7.30888
-7.30907
-7.30928
-7.30951
-7.30974
-7.30996
-7.31017
-7.31036
-7.31052
-7.31065
-7.31073
-7.31078
-7.40857
-7.40853
-7.40846
-7.40835
-7.40821
-7.40804
-7.40785
-7.40764
-7.40742
-7.4072
-7.40699
-7.40681
-7.40667
-7.40656
-7.40651
-7.4065
-7.40655
-7.40664
-7.40678
-7.40694
-7.40713
-7.40733
-7.40754
-7.40774
-7.40792
-7.40809
-7.40823
-7.40834
-7.40842
-7.40846
-7.50629
-7.50626
-7.50621
-7.50612
-7.506
-7.50584
-7.50567
-7.50548
-7.50528
-7.50508
-7.5049
-7.50475
-7.50462
-7.50453
-7.50449
-7.50448
-7.50453
-7.50461
-7.50472
-7.50487
-7.50503
-7.50521
-7.50539
-7.50557
-7.50574
-7.50588
-7.50601
-7.5061
-7.50617
-7.5062
-7.60409
-7.60408
-7.60403
-7.60394
-7.60383
-7.60369
-7.60353
-7.60336
-7.60319
-7.60302
-7.60287
-7.60274
-7.60263
-7.60256
-7.60252
-7.60252
-7.60255
-7.60262
-7.60272
-7.60284
-7.60298
-7.60313
-7.60329
-7.60344
-7.60359
-7.60371
-7.60382
-7.6039
-7.60396
-7.60398
-7.70192
-7.70191
-7.70186
-7.70179
-7.70168
-7.70156
-7.70143
-7.70128
-7.70114
-7.701
-7.70087
-7.70076
-7.70067
-7.70061
-7.70058
-7.70058
-7.7006
-7.70066
-7.70074
-7.70084
-7.70095
-7.70108
-7.70121
-7.70134
-7.70146
-7.70156
-7.70165
-7.70172
-7.70176
-7.70178
-7.79976
-7.79975
-7.7997
-7.79963
-7.79954
-7.79944
-7.79933
-7.79921
-7.79909
-7.79898
-7.79888
-7.79879
-7.79872
-7.79867
-7.79864
-7.79864
-7.79866
-7.7987
-7.79876
-7.79884
-7.79893
-7.79903
-7.79913
-7.79923
-7.79933
-7.79942
-7.79949
-7.79954
-7.79958
-7.79959
-7.89759
-7.89757
-7.89753
-7.89747
-7.8974
-7.89732
-7.89723
-7.89713
-7.89704
-7.89696
-7.89688
-7.89681
-7.89675
-7.89671
-7.89669
-7.89668
-7.8967
-7.89673
-7.89677
-7.89683
-7.8969
-7.89697
-7.89705
-7.89713
-7.89721
-7.89728
-7.89734
-7.89738
-7.89741
-7.89743
-7.99542
-7.9954
-7.99536
-7.99532
-7.99526
-7.9952
-7.99513
-7.99506
-7.99499
-7.99492
-7.99486
-7.99481
-7.99477
-7.99474
-7.99472
-7.99471
-7.99472
-7.99474
-7.99477
-7.99482
-7.99487
-7.99492
-7.99499
-7.99505
-7.99511
-7.99516
-7.99521
-7.99525
-7.99527
-7.99528
-8.09328
-8.09326
-8.09323
-8.09319
-8.09315
-8.0931
-8.09305
-8.093
-8.09295
-8.0929
-8.09285
-8.09281
-8.09278
-8.09276
-8.09274
-8.09274
-8.09274
-8.09275
-8.09278
-8.09281
-8.09285
-8.09289
-8.09294
-8.09298
-8.09303
-8.09307
-8.09311
-8.09314
-8.09317
-8.09318
-8.19118
-8.19116
-8.19114
-8.19111
-8.19108
-8.19105
-8.19101
-8.19097
-8.19093
-8.19089
-8.19086
-8.19083
-8.1908
-8.19078
-8.19077
-8.19076
-8.19077
-8.19078
-8.19079
-8.19082
-8.19085
-8.19088
-8.19092
-8.19095
-8.19099
-8.19103
-8.19106
-8.19108
-8.1911
-8.19111
-8.28914
-8.28912
-8.2891
-8.28908
-8.28906
-8.28903
-8.289
-8.28897
-8.28894
-8.28891
-8.28888
-8.28886
-8.28884
-8.28883
-8.28882
-8.28881
-8.28881
-8.28882
-8.28884
-8.28885
-8.28888
-8.2889
-8.28893
-8.28896
-8.28899
-8.28902
-8.28904
-8.28907
-8.28908
-8.28909
-8.38714
-8.38713
-8.38712
-8.3871
-8.38708
-8.38706
-8.38704
-8.38701
-8.38699
-8.38697
-8.38694
-8.38692
-8.38691
-8.3869
-8.38689
-8.38688
-8.38689
-8.38689
-8.3869
-8.38692
-8.38694
-8.38696
-8.38698
-8.38701
-8.38703
-8.38705
-8.38707
-8.38709
-8.38711
-8.38712
-8.48519
-8.48519
-8.48518
-8.48516
-8.48515
-8.48513
-8.48511
-8.48509
-8.48507
-8.48505
-8.48503
-8.48502
-8.485
-8.48499
-8.48499
-8.48498
-8.48498
-8.48499
-8.485
-8.48501
-8.48503
-8.48504
-8.48506
-8.48508
-8.4851
-8.48512
-8.48514
-8.48515
-8.48517
-8.48517
-8.58328
-8.58328
-8.58327
-8.58326
-8.58324
-8.58323
-8.58321
-8.5832
-8.58318
-8.58316
-8.58315
-8.58313
-8.58312
-8.58311
-8.58311
-8.5831
-8.5831
-8.58311
-8.58312
-8.58313
-8.58314
-8.58315
-8.58317
-8.58319
-8.5832
-8.58322
-8.58323
-8.58324
-8.58325
-8.58326
-8.68139
-8.68139
-8.68138
-8.68137
-8.68136
-8.68135
-8.68134
-8.68132
-8.68131
-8.68129
-8.68128
-8.68127
-8.68126
-8.68125
-8.68124
-8.68124
-8.68124
-8.68125
-8.68125
-8.68126
-8.68127
-8.68128
-8.6813
-8.68131
-8.68132
-8.68134
-8.68135
-8.68136
-8.68137
-8.68137
-8.77952
-8.77952
-8.77951
-8.77951
-8.7795
-8.77948
-8.77947
-8.77946
-8.77945
-8.77943
-8.77942
-8.77941
-8.7794
-8.7794
-8.77939
-8.77939
-8.77939
-8.77939
-8.7794
-8.77941
-8.77942
-8.77943
-8.77944
-8.77945
-8.77946
-8.77947
-8.77948
-8.77949
-8.77949
-8.7795
-8.87766
-8.87766
-8.87765
-8.87765
-8.87764
-8.87763
-8.87762
-8.87761
-8.8776
-8.87759
-8.87758
-8.87757
-8.87756
-8.87755
-8.87755
-8.87755
-8.87755
-8.87755
-8.87755
-8.87756
-8.87757
-8.87757
-8.87758
-8.87759
-8.8776
-8.87761
-8.87762
-8.87762
-8.87763
-8.87763
-8.9758
-8.9758
-8.9758
-8.97579
-8.97578
-8.97578
-8.97577
-8.97576
-8.97575
-8.97574
-8.97573
-8.97572
-8.97572
-8.97571
-8.97571
-8.97571
-8.97571
-8.97571
-8.97571
-8.97572
-8.97572
-8.97573
-8.97573
-8.97574
-8.97575
-8.97576
-8.97576
-8.97577
-8.97577
-8.97577
-9.07394
-9.07394
-9.07394
-9.07394
-9.07393
-9.07393
-9.07392
-9.07391
-9.0739
-9.0739
-9.07389
-9.07388
-9.07388
-9.07387
-9.07387
-9.07387
-9.07387
-9.07387
-9.07387
-9.07387
-9.07388
-9.07388
-9.07389
-9.07389
-9.0739
-9.0739
-9.07391
-9.07391
-9.07391
-9.07392
-9.17209
-9.17209
-9.17209
-9.17208
-9.17208
-9.17207
-9.17207
-9.17206
-9.17206
-9.17205
-9.17204
-9.17204
-9.17203
-9.17203
-9.17203
-9.17202
-9.17202
-9.17202
-9.17203
-9.17203
-9.17203
-9.17204
-9.17204
-9.17204
-9.17205
-9.17205
-9.17206
-9.17206
-9.17206
-9.17206
-9.27023
-9.27023
-9.27023
-9.27023
-9.27022
-9.27022
-9.27022
-9.27021
-9.27021
-9.2702
-9.2702
-9.27019
-9.27019
-9.27018
-9.27018
-9.27018
-9.27018
-9.27018
-9.27018
-9.27018
-9.27019
-9.27019
-9.27019
-9.2702
-9.2702
-9.2702
-9.2702
-9.27021
-9.27021
-9.27021
-9.36838
-9.36837
-9.36837
-9.36837
-9.36837
-9.36837
-9.36836
-9.36836
-9.36835
-9.36835
-9.36835
-9.36834
-9.36834
-9.36834
-9.36833
-9.36833
-9.36833
-9.36833
-9.36833
-9.36834
-9.36834
-9.36834
-9.36834
-9.36834
-9.36835
-9.36835
-9.36835
-9.36835
-9.36835
-9.36835
-9.46652
-9.46652
-9.46651
-9.46651
-9.46651
-9.46651
-9.46651
-9.4665
-9.4665
-9.4665
-9.46649
-9.46649
-9.46649
-9.46649
-9.46649
-9.46648
-9.46648
-9.46648
-9.46648
-9.46649
-9.46649
-9.46649
-9.46649
-9.46649
-9.46649
-9.4665
-9.4665
-9.4665
-9.4665
-9.4665
-9.56465
-9.56465
-9.56465
-9.56465
-9.56465
-9.56465
-9.56465
-9.56465
-9.56465
-9.56464
-9.56464
-9.56464
-9.56464
-9.56464
-9.56463
-9.56463
-9.56463
-9.56463
-9.56463
-9.56463
-9.56463
-9.56464
-9.56464
-9.56464
-9.56464
-9.56464
-9.56464
-9.56464
-9.56464
-9.56464
-9.66279
-9.66279
-9.66279
-9.66279
-9.66279
-9.66279
-9.66279
-9.66279
-9.66279
-9.66279
-9.66279
-9.66278
-9.66278
-9.66278
-9.66278
-9.66278
-9.66278
-9.66278
-9.66278
-9.66278
-9.66278
-9.66278
-9.66278
-9.66278
-9.66278
-9.66278
-9.66278
-9.66278
-9.66278
-9.66278
-9.76093
-9.76093
-9.76093
-9.76093
-9.76093
-9.76093
-9.76093
-9.76093
-9.76093
-9.76093
-9.76093
-9.76093
-9.76093
-9.76093
-9.76093
-9.76093
-9.76093
-9.76093
-9.76093
-9.76092
-9.76092
-9.76092
-9.76093
-9.76093
-9.76093
-9.76093
-9.76093
-9.76093
-9.76093
-9.76093
4828.16
4828.16
4828.16
4828.16
4828.16
4828.16
4828.16
4828.16
4828.16
4828.16
4828.15
4828.15
4828.15
4828.15
4828.15
4828.15
4828.15
4828.15
4828.15
4828.16
4828.16
4828.16
4828.16
4828.16
4828.16
4828.16
4828.16
4828.16
4828.16
4828.16
4730.06
4730.06
4730.06
4730.06
4730.06
4730.06
4730.06
4730.06
4730.06
4730.06
4730.05
4730.05
4730.05
4730.05
4730.05
4730.05
4730.05
4730.05
4730.05
4730.06
4730.06
4730.06
4730.06
4730.06
4730.06
4730.06
4730.06
4730.06
4730.06
4730.06
4631.96
4631.96
4631.96
4631.96
4631.96
4631.96
4631.96
4631.96
4631.96
4631.96
4631.95
4631.95
4631.95
4631.95
4631.95
4631.95
4631.95
4631.95
4631.95
4631.96
4631.96
4631.96
4631.96
4631.96
4631.96
4631.96
4631.96
4631.96
4631.97
4631.97
4533.87
4533.87
4533.87
4533.86
4533.86
4533.86
4533.86
4533.86
4533.86
4533.86
4533.86
4533.85
4533.85
4533.85
4533.85
4533.85
4533.85
4533.85
4533.86
4533.86
4533.86
4533.86
4533.86
4533.86
4533.86
4533.86
4533.87
4533.87
4533.87
4533.87
4435.77
4435.77
4435.77
4435.77
4435.76
4435.76
4435.76
4435.76
4435.76
4435.76
4435.76
4435.75
4435.75
4435.75
4435.75
4435.75
4435.75
4435.75
4435.76
4435.76
4435.76
4435.76
4435.76
4435.76
4435.77
4435.77
4435.77
4435.77
4435.77
4435.77
4337.67
4337.67
4337.67
4337.67
4337.67
4337.67
4337.66
4337.66
4337.66
4337.66
4337.66
4337.66
4337.65
4337.65
4337.65
4337.65
4337.65
4337.66
4337.66
4337.66
4337.66
4337.66
4337.66
4337.67
4337.67
4337.67
4337.67
4337.67
4337.67
4337.67
4239.58
4239.57
4239.57
4239.57
4239.57
4239.57
4239.57
4239.56
4239.56
4239.56
4239.56
4239.56
4239.56
4239.55
4239.55
4239.55
4239.56
4239.56
4239.56
4239.56
4239.56
4239.56
4239.57
4239.57
4239.57
4239.57
4239.57
4239.58
4239.58
4239.58
4141.48
4141.48
4141.48
4141.48
4141.48
4141.47
4141.47
4141.47
4141.46
4141.46
4141.46
4141.46
4141.46
4141.46
4141.46
4141.46
4141.46
4141.46
4141.46
4141.46
4141.46
4141.47
4141.47
4141.47
4141.47
4141.48
4141.48
4141.48
4141.48
4141.48
4043.39
4043.39
4043.38
4043.38
4043.38
4043.38
4043.37
4043.37
4043.37
4043.36
4043.36
4043.36
4043.36
4043.36
4043.36
4043.36
4043.36
4043.36
4043.36
4043.36
4043.37
4043.37
4043.37
4043.38
4043.38
4043.38
4043.38
4043.39
4043.39
4043.39
3945.29
3945.29
3945.29
3945.29
3945.29
3945.28
3945.28
3945.28
3945.27
3945.27
3945.26
3945.26
3945.26
3945.26
3945.26
3945.26
3945.26
3945.26
3945.26
3945.26
3945.27
3945.27
3945.28
3945.28
3945.28
3945.29
3945.29
3945.29
3945.29
3945.3
3847.2
3847.2
3847.2
3847.2
3847.19
3847.19
3847.19
3847.18
3847.18
3847.17
3847.17
3847.16
3847.16
3847.16
3847.16
3847.16
3847.16
3847.16
3847.16
3847.17
3847.17
3847.18
3847.18
3847.19
3847.19
3847.19
3847.2
3847.2
3847.2
3847.2
3749.11
3749.11
3749.11
3749.11
3749.1
3749.1
3749.09
3749.09
3749.08
3749.08
3749.07
3749.07
3749.06
3749.06
3749.06
3749.06
3749.06
3749.06
3749.07
3749.07
3749.08
3749.08
3749.09
3749.09
3749.1
3749.1
3749.11
3749.11
3749.11
3749.11
3651.03
3651.03
3651.02
3651.02
3651.01
3651.01
3651
3650.99
3650.99
3650.98
3650.97
3650.97
3650.97
3650.96
3650.96
3650.96
3650.96
3650.97
3650.97
3650.97
3650.98
3650.99
3650.99
3651
3651.01
3651.01
3651.02
3651.02
3651.03
3651.03
3552.94
3552.94
3552.94
3552.93
3552.93
3552.92
3552.91
3552.9
3552.9
3552.89
3552.88
3552.87
3552.87
3552.86
3552.86
3552.86
3552.86
3552.87
3552.87
3552.88
3552.89
3552.9
3552.9
3552.91
3552.92
3552.93
3552.93
3552.94
3552.94
3552.94
3454.86
3454.86
3454.86
3454.85
3454.84
3454.83
3454.82
3454.81
3454.8
3454.8
3454.79
3454.78
3454.77
3454.77
3454.77
3454.77
3454.77
3454.77
3454.78
3454.79
3454.79
3454.8
3454.81
3454.82
3454.83
3454.84
3454.85
3454.86
3454.86
3454.86
3356.79
3356.78
3356.78
3356.77
3356.76
3356.75
3356.74
3356.73
3356.72
3356.7
3356.69
3356.68
3356.68
3356.67
3356.67
3356.67
3356.67
3356.68
3356.68
3356.69
3356.7
3356.72
3356.73
3356.74
3356.75
3356.76
3356.77
3356.78
3356.78
3356.79
3258.72
3258.71
3258.71
3258.7
3258.69
3258.68
3258.66
3258.65
3258.63
3258.62
3258.6
3258.59
3258.58
3258.58
3258.57