/*--------------------------------*- C++ -*----------------------------------*\
| =========                 |                                                 |
| \\      /  F ield         | OpenFOAM: The Open Source CFD Toolbox           |
|  \\    /   O peration     | Version:  2312                                  |
|   \\  /    A nd           | Website:  www.openfoam.com                      |
|    \\/     M anipulation  |                                                 |
\*---------------------------------------------------------------------------*/
FoamFile
{
    version     2.0;
    format      ascii;
    arch        "LSB;label=32;scalar=64";
    class       volScalarField;
    location    "0.198545";
    object      p_rgh;
}
// * * * * * * * * * * * * * * * * * * * * * * * * * * * * * * * * * * * * * //

dimensions      [1 -1 -2 0 0 0 0];

internalField   nonuniform List<scalar> 
90000
(
4877.21
4877.21
4877.21
4877.21
4877.21
4877.21
4877.21
4877.21
4877.21
4877.21
4877.21
4877.2
4877.2
4877.2
4877.2
4877.2
4877.2
4877.2
4877.21
4877.21
4877.21
4877.21
4877.21
4877.21
4877.21
4877.21
4877.21
4877.22
4877.22
4877.22
4877.21
4877.21
4877.21
4877.21
4877.21
4877.21
4877.21
4877.21
4877.21
4877.21
4877.21
4877.2
4877.2
4877.2
4877.2
4877.2
4877.2
4877.2
4877.21
4877.21
4877.21
4877.21
4877.21
4877.21
4877.21
4877.21
4877.22
4877.22
4877.22
4877.22
4877.21
4877.21
4877.21
4877.21
4877.21
4877.21
4877.21
4877.21
4877.21
4877.21
4877.21
4877.2
4877.2
4877.2
4877.2
4877.2
4877.2
4877.2
4877.21
4877.21
4877.21
4877.21
4877.21
4877.21
4877.21
4877.21
4877.22
4877.22
4877.21
4877.22
4877.22
4877.22
4877.22
4877.21
4877.21
4877.21
4877.21
4877.21
4877.21
4877.21
4877.21
4877.21
4877.2
4877.2
4877.2
4877.2
4877.2
4877.2
4877.21
4877.21
4877.21
4877.21
4877.21
4877.21
4877.21
4877.21
4877.22
4877.22
4877.22
4877.22
4877.22
4877.22
4877.22
4877.22
4877.22
4877.21
4877.21
4877.21
4877.21
4877.21
4877.21
4877.21
4877.2
4877.2
4877.2
4877.2
4877.2
4877.2
4877.21
4877.21
4877.21
4877.21
4877.21
4877.21
4877.22
4877.22
4877.22
4877.22
4877.22
4877.22
4877.22
4877.22
4877.22
4877.22
4877.22
4877.22
4877.21
4877.21
4877.21
4877.21
4877.21
4877.21
4877.21
4877.2
4877.2
4877.2
4877.2
4877.21
4877.21
4877.21
4877.21
4877.21
4877.22
4877.22
4877.22
4877.22
4877.22
4877.22
4877.22
4877.22
4877.23
4877.23
4877.23
4877.22
4877.22
4877.22
4877.22
4877.21
4877.21
4877.21
4877.21
4877.21
4877.21
4877.21
4877.21
4877.21
4877.21
4877.21
4877.21
4877.21
4877.21
4877.22
4877.22
4877.22
4877.22
4877.22
4877.22
4877.22
4877.22
4877.23
4877.23
4877.23
4877.23
4877.23
4877.22
4877.22
4877.22
4877.22
4877.21
4877.21
4877.21
4877.21
4877.21
4877.21
4877.21
4877.21
4877.21
4877.21
4877.21
4877.21
4877.22
4877.22
4877.22
4877.22
4877.22
4877.23
4877.23
4877.23
4877.23
4877.23
4877.24
4877.24
4877.24
4877.23
4877.23
4877.23
4877.22
4877.22
4877.22
4877.21
4877.21
4877.21
4877.21
4877.21
4877.21
4877.21
4877.21
4877.21
4877.21
4877.21
4877.22
4877.22
4877.22
4877.22
4877.23
4877.23
4877.23
4877.24
4877.24
4877.24
4877.25
4877.25
4877.24
4877.24
4877.24
4877.23
4877.23
4877.22
4877.22
4877.22
4877.21
4877.21
4877.21
4877.21
4877.21
4877.21
4877.21
4877.21
4877.21
4877.22
4877.22
4877.22
4877.23
4877.23
4877.23
4877.24
4877.24
4877.24
4877.25
4877.25
4877.26
4877.26
4877.26
4877.25
4877.25
4877.24
4877.24
4877.23
4877.22
4877.22
4877.21
4877.21
4877.21
4877.21
4877.21
4877.21
4877.21
4877.21
4877.22
4877.22
4877.22
4877.23
4877.23
4877.24
4877.24
4877.24
4877.25
4877.25
4877.26
4877.26
4877.27
4877.27
4877.27
4877.27
4877.26
4877.25
4877.25
4877.24
4877.23
4877.22
4877.22
4877.21
4877.21
4877.21
4877.21
4877.21
4877.21
4877.21
4877.22
4877.22
4877.23
4877.24
4877.24
4877.25
4877.25
4877.26
4877.26
4877.27
4877.27
4877.27
4877.29
4877.29
4877.29
4877.28
4877.27
4877.26
4877.25
4877.25
4877.24
4877.23
4877.22
4877.22
4877.21
4877.21
4877.21
4877.21
4877.21
4877.22
4877.22
4877.23
4877.24
4877.25
4877.25
4877.26
4877.26
4877.27
4877.28
4877.28
4877.28
4877.28
4877.3
4877.3
4877.3
4877.29
4877.28
4877.27
4877.26
4877.26
4877.25
4877.24
4877.23
4877.23
4877.22
4877.21
4877.21
4877.21
4877.21
4877.22
4877.23
4877.24
4877.25
4877.25
4877.26
4877.27
4877.28
4877.29
4877.29
4877.3
4877.3
4877.3
4877.32
4877.31
4877.31
4877.3
4877.29
4877.29
4877.28
4877.27
4877.26
4877.25
4877.24
4877.23
4877.23
4877.22
4877.21
4877.21
4877.22
4877.22
4877.23
4877.24
4877.25
4877.26
4877.27
4877.29
4877.3
4877.3
4877.31
4877.31
4877.31
4877.31
4877.34
4877.33
4877.32
4877.32
4877.31
4877.3
4877.29
4877.28
4877.28
4877.27
4877.25
4877.24
4877.23
4877.22
4877.22
4877.22
4877.22
4877.23
4877.24
4877.25
4877.26
4877.27
4877.29
4877.3
4877.31
4877.32
4877.33
4877.33
4877.33
4877.34
4877.36
4877.35
4877.35
4877.34
4877.33
4877.32
4877.31
4877.3
4877.29
4877.27
4877.26
4877.24
4877.23
4877.23
4877.22
4877.22
4877.23
4877.23
4877.24
4877.25
4877.27
4877.28
4877.3
4877.32
4877.33
4877.34
4877.35
4877.35
4877.36
4877.36
4877.4
4877.39
4877.38
4877.37
4877.36
4877.35
4877.34
4877.32
4877.3
4877.28
4877.27
4877.25
4877.24
4877.23
4877.23
4877.23
4877.23
4877.24
4877.25
4877.26
4877.28
4877.3
4877.32
4877.33
4877.35
4877.36
4877.38
4877.39
4877.39
4877.4
4877.44
4877.43
4877.43
4877.42
4877.4
4877.39
4877.37
4877.35
4877.32
4877.3
4877.28
4877.26
4877.25
4877.24
4877.24
4877.24
4877.24
4877.25
4877.26
4877.28
4877.3
4877.32
4877.34
4877.36
4877.38
4877.4
4877.41
4877.43
4877.44
4877.44
4877.5
4877.49
4877.48
4877.47
4877.45
4877.43
4877.41
4877.38
4877.35
4877.32
4877.3
4877.28
4877.26
4877.25
4877.25
4877.24
4877.25
4877.26
4877.27
4877.29
4877.31
4877.34
4877.37
4877.39
4877.42
4877.44
4877.46
4877.48
4877.49
4877.5
4877.57
4877.56
4877.55
4877.53
4877.51
4877.48
4877.45
4877.42
4877.38
4877.35
4877.32
4877.3
4877.28
4877.26
4877.25
4877.25
4877.26
4877.27
4877.29
4877.31
4877.34
4877.37
4877.4
4877.44
4877.47
4877.5
4877.53
4877.55
4877.56
4877.57
4877.65
4877.64
4877.62
4877.6
4877.58
4877.55
4877.51
4877.46
4877.42
4877.38
4877.34
4877.31
4877.29
4877.27
4877.26
4877.26
4877.27
4877.28
4877.31
4877.33
4877.37
4877.41
4877.45
4877.5
4877.54
4877.57
4877.6
4877.63
4877.64
4877.65
4877.74
4877.73
4877.72
4877.69
4877.66
4877.62
4877.57
4877.52
4877.46
4877.41
4877.37
4877.33
4877.3
4877.28
4877.27
4877.27
4877.28
4877.3
4877.33
4877.37
4877.41
4877.46
4877.51
4877.56
4877.61
4877.65
4877.69
4877.72
4877.74
4877.74
4877.86
4877.85
4877.83
4877.8
4877.75
4877.7
4877.64
4877.58
4877.51
4877.45
4877.4
4877.35
4877.32
4877.3
4877.29
4877.29
4877.3
4877.32
4877.36
4877.4
4877.46
4877.52
4877.58
4877.64
4877.7
4877.75
4877.8
4877.83
4877.85
4877.86
4878
4878
4877.97
4877.92
4877.87
4877.8
4877.73
4877.65
4877.58
4877.51
4877.44
4877.39
4877.35
4877.32
4877.31
4877.31
4877.32
4877.35
4877.39
4877.45
4877.51
4877.58
4877.66
4877.73
4877.8
4877.86
4877.92
4877.96
4877.98
4878
4878.17
4878.16
4878.12
4878.07
4878
4877.92
4877.84
4877.75
4877.66
4877.58
4877.5
4877.44
4877.39
4877.35
4877.33
4877.33
4877.35
4877.38
4877.44
4877.5
4877.58
4877.66
4877.75
4877.84
4877.92
4878
4878.06
4878.11
4878.15
4878.16
4878.37
4878.35
4878.3
4878.24
4878.16
4878.07
4877.97
4877.87
4877.77
4877.67
4877.57
4877.5
4877.44
4877.39
4877.37
4877.37
4877.39
4877.43
4877.49
4877.57
4877.66
4877.76
4877.87
4877.97
4878.07
4878.16
4878.23
4878.3
4878.34
4878.36
4878.6
4878.58
4878.52
4878.45
4878.36
4878.25
4878.14
4878.01
4877.89
4877.77
4877.67
4877.57
4877.5
4877.45
4877.42
4877.42
4877.44
4877.49
4877.57
4877.66
4877.77
4877.89
4878.01
4878.13
4878.25
4878.35
4878.45
4878.52
4878.57
4878.59
4878.89
4878.85
4878.79
4878.71
4878.6
4878.47
4878.34
4878.19
4878.04
4877.91
4877.78
4877.67
4877.58
4877.52
4877.49
4877.48
4877.52
4877.58
4877.67
4877.78
4877.91
4878.05
4878.19
4878.33
4878.47
4878.6
4878.71
4878.79
4878.85
4878.88
4879.23
4879.19
4879.12
4879.02
4878.9
4878.75
4878.58
4878.41
4878.24
4878.08
4877.93
4877.8
4877.69
4877.62
4877.58
4877.58
4877.62
4877.69
4877.79
4877.92
4878.08
4878.24
4878.41
4878.58
4878.75
4878.89
4879.02
4879.12
4879.19
4879.22
4879.64
4879.6
4879.52
4879.4
4879.25
4879.08
4878.88
4878.68
4878.48
4878.29
4878.12
4877.96
4877.84
4877.75
4877.7
4877.7
4877.75
4877.83
4877.96
4878.11
4878.29
4878.48
4878.68
4878.89
4879.08
4879.25
4879.4
4879.52
4879.6
4879.64
4880.14
4880.1
4880
4879.86
4879.69
4879.48
4879.26
4879.02
4878.79
4878.56
4878.35
4878.17
4878.02
4877.92
4877.87
4877.87
4877.92
4878.02
4878.17
4878.35
4878.56
4878.78
4879.02
4879.26
4879.49
4879.68
4879.86
4880
4880.09
4880.14
4880.73
4880.68
4880.57
4880.41
4880.21
4879.97
4879.71
4879.44
4879.16
4878.9
4878.65
4878.44
4878.27
4878.15
4878.09
4878.09
4878.15
4878.27
4878.44
4878.65
4878.89
4879.16
4879.44
4879.72
4879.97
4880.21
4880.41
4880.57
4880.68
4880.73
4881.43
4881.37
4881.24
4881.07
4880.84
4880.57
4880.26
4879.95
4879.63
4879.32
4879.03
4878.79
4878.59
4878.45
4878.38
4878.37
4878.45
4878.58
4878.78
4879.03
4879.31
4879.62
4879.95
4880.26
4880.56
4880.83
4881.06
4881.24
4881.37
4881.43
4882.25
4882.18
4882.05
4881.84
4881.58
4881.27
4880.93
4880.56
4880.2
4879.84
4879.51
4879.23
4879
4878.84
4878.75
4878.75
4878.84
4878.99
4879.22
4879.51
4879.84
4880.19
4880.56
4880.92
4881.26
4881.58
4881.84
4882.05
4882.19
4882.26
4883.22
4883.14
4882.99
4882.76
4882.46
4882.11
4881.73
4881.32
4880.9
4880.49
4880.11
4879.79
4879.53
4879.34
4879.25
4879.25
4879.34
4879.52
4879.78
4880.11
4880.49
4880.89
4881.3
4881.72
4882.11
4882.46
4882.76
4882.99
4883.15
4883.23
4884.35
4884.26
4884.09
4883.83
4883.5
4883.12
4882.69
4882.23
4881.76
4881.3
4880.87
4880.5
4880.21
4880
4879.89
4879.89
4880
4880.2
4880.5
4880.87
4881.3
4881.75
4882.22
4882.68
4883.11
4883.5
4883.83
4884.09
4884.26
4884.35
4885.65
4885.55
4885.36
4885.08
4884.73
4884.31
4883.83
4883.32
4882.8
4882.29
4881.82
4881.41
4881.08
4880.84
4880.72
4880.72
4880.84
4881.07
4881.41
4881.82
4882.29
4882.8
4883.32
4883.83
4884.3
4884.73
4885.08
4885.36
4885.55
4885.65
4887.14
4887.04
4886.83
4886.53
4886.15
4885.7
4885.19
4884.64
4884.07
4883.52
4883
4882.55
4882.18
4881.93
4881.8
4881.8
4881.93
4882.18
4882.55
4883
4883.51
4884.07
4884.63
4885.18
4885.69
4886.15
4886.53
4886.83
4887.03
4887.14
4888.83
4888.72
4888.51
4888.2
4887.8
4887.33
4886.79
4886.21
4885.61
4885.01
4884.46
4883.97
4883.58
4883.3
4883.16
4883.16
4883.31
4883.58
4883.98
4884.46
4885.01
4885.6
4886.2
4886.77
4887.32
4887.8
4888.2
4888.51
4888.72
4888.83
4890.73
4890.62
4890.41
4890.1
4889.69
4889.21
4888.66
4888.06
4887.44
4886.82
4886.24
4885.73
4885.32
4885.04
4884.89
4884.89
4885.04
4885.33
4885.74
4886.25
4886.82
4887.44
4888.05
4888.65
4889.21
4889.69
4890.1
4890.4
4890.63
4890.73
4892.84
4892.74
4892.53
4892.23
4891.83
4891.36
4890.82
4890.22
4889.6
4888.99
4888.41
4887.89
4887.48
4887.18
4887.03
4887.02
4887.18
4887.48
4887.9
4888.41
4889
4889.61
4890.22
4890.81
4891.35
4891.83
4892.23
4892.52
4892.74
4892.82
4895.16
4895.06
4894.87
4894.59
4894.23
4893.79
4893.28
4892.72
4892.14
4891.55
4890.99
4890.5
4890.09
4889.8
4889.65
4889.65
4889.81
4890.1
4890.5
4891
4891.56
4892.14
4892.72
4893.29
4893.78
4894.22
4894.59
4894.86
4895.06
4895.14
4897.66
4897.58
4897.42
4897.18
4896.87
4896.49
4896.05
4895.56
4895.05
4894.53
4894.03
4893.58
4893.21
4892.95
4892.81
4892.82
4892.96
4893.22
4893.58
4894.04
4894.54
4895.06
4895.57
4896.06
4896.48
4896.87
4897.17
4897.42
4897.57
4897.65
4900.32
4900.26
4900.14
4899.97
4899.73
4899.44
4899.11
4898.74
4898.34
4897.93
4897.53
4897.17
4896.86
4896.66
4896.55
4896.55
4896.66
4896.87
4897.17
4897.54
4897.93
4898.34
4898.75
4899.11
4899.44
4899.74
4899.95
4900.15
4900.24
4900.32
4903.09
4903.06
4903
4902.9
4902.77
4902.6
4902.41
4902.2
4901.96
4901.7
4901.45
4901.22
4901.04
4900.9
4900.83
4900.83
4900.89
4901.03
4901.23
4901.46
4901.7
4901.95
4902.21
4902.41
4902.61
4902.77
4902.9
4902.99
4903.05
4903.08
4905.93
4905.92
4905.93
4905.92
4905.92
4905.91
4905.9
4905.87
4905.83
4905.79
4905.74
4905.7
4905.65
4905.62
4905.6
4905.6
4905.62
4905.65
4905.7
4905.74
4905.79
4905.84
4905.89
4905.9
4905.93
4905.91
4905.93
4905.92
4905.92
4905.91
4908.75
4908.78
4908.85
4908.95
4909.09
4909.25
4909.44
4909.64
4909.84
4910.04
4910.23
4910.4
4910.54
4910.63
4910.69
4910.7
4910.64
4910.54
4910.4
4910.23
4910.04
4909.85
4909.63
4909.43
4909.25
4909.1
4908.96
4908.85
4908.77
4908.74
4911.55
4911.63
4911.77
4911.99
4912.26
4912.61
4912.99
4913.43
4913.89
4914.37
4914.82
4915.23
4915.57
4915.82
4915.95
4915.95
4915.82
4915.57
4915.23
4914.82
4914.37
4913.9
4913.42
4913
4912.61
4912.27
4911.98
4911.78
4911.63
4911.55
4913.96
4914.1
4914.28
4914.74
4915.19
4915.48
4916.06
4916.73
4917.42
4918.19
4918.94
4919.61
4920.13
4920.47
4920.72
4920.66
4920.53
4920.02
4919.49
4918.96
4918.29
4917.54
4916.7
4916.06
4915.53
4914.98
4914.58
4914.27
4914.06
4913.96
726.195
731.714
742.988
759.965
782.07
809.056
840.887
876.836
916.136
956.751
995.326
1030.25
1060.5
1082.26
1092.52
1092.54
1082.29
1060.46
1030.08
995.23
956.809
916.255
876.794
840.833
809.185
782.005
759.891
743.001
731.664
726.141
0.341498
0.370797
0.423954
0.534521
0.712378
1.0083
1.43554
2.1142
3.43656
5.27499
6.87462
7.66903
7.60237
7.7717
7.18423
7.18535
7.78076
7.59456
7.657
6.88126
5.3022
3.46302
2.11959
1.43764
1.01802
0.708007
0.528644
0.425053
0.364429
0.349889
-0.0142897
-0.0115223
-0.00664652
0.00446009
0.0247234
0.0628976
0.127991
0.247811
0.522846
1.01582
1.48945
1.92261
1.68371
1.77495
1.3046
1.30689
1.7776
1.68146
1.9202
1.494
1.02518
0.529405
0.249383
0.128521
0.0640181
0.0243515
0.00389935
-0.00675673
-0.0121577
-0.013985
-0.0328803
-0.0329952
-0.0332316
-0.0333672
-0.033288
-0.032386
-0.0293763
-0.019456
0.0134336
0.0903925
0.209997
0.332589
0.424885
0.46109
0.304546
0.305353
0.462176
0.425524
0.33291
0.21179
0.0924079
0.0145235
-0.0192897
-0.0294697
-0.0324564
-0.0334624
-0.0335677
-0.033451
-0.0333231
-0.0331943
-0.0344047
-0.0348706
-0.0358103
-0.0372616
-0.0393251
-0.0420703
-0.0454012
-0.0484676
-0.0486329
-0.0421927
-0.0278811
-0.00937457
0.0136156
0.0506765
0.097964
0.0978739
0.0511647
0.0137243
-0.00934115
-0.0277101
-0.0420742
-0.0486661
-0.0486276
-0.0456319
-0.0422911
-0.0395256
-0.0374633
-0.0360637
-0.035193
-0.0347359
-0.0341228
-0.0346042
-0.035572
-0.0370195
-0.0389429
-0.0413367
-0.0440958
-0.0469287
-0.0493387
-0.0503719
-0.0494665
-0.0468982
-0.0429574
-0.0372553
-0.0254674
-0.025511
-0.0372149
-0.0429836
-0.0469834
-0.0495686
-0.0505183
-0.0495135
-0.04713
-0.044321
-0.0415532
-0.0391261
-0.0372097
-0.0358308
-0.0349387
-0.0344655
-0.0328958
-0.0332958
-0.0340971
-0.0352415
-0.0366798
-0.0383624
-0.0401969
-0.0419942
-0.0435462
-0.0446445
-0.0451349
-0.044873
-0.043859
-0.0421643
-0.04004
-0.0400447
-0.0421674
-0.0438705
-0.0449357
-0.045275
-0.0448347
-0.0437315
-0.0421821
-0.0404114
-0.0385785
-0.0368704
-0.0354422
-0.0343495
-0.0336105
-0.0332256
-0.0309529
-0.0312469
-0.031841
-0.032643
-0.0335914
-0.0346231
-0.0356744
-0.0366447
-0.0374182
-0.0379188
-0.038103
-0.0379918
-0.0376274
-0.0370992
-0.036538
-0.0365411
-0.0371308
-0.0377013
-0.0380963
-0.0382208
-0.0380543
-0.0375748
-0.0368199
-0.0358726
-0.0348189
-0.0337724
-0.0328388
-0.0320774
-0.0315352
-0.0312555
-0.028531
-0.0287116
-0.0290999
-0.0295938
-0.0301291
-0.0306671
-0.0311546
-0.0315282
-0.0317313
-0.0317635
-0.0316033
-0.0312828
-0.0308608
-0.0304347
-0.0301386
-0.0301428
-0.0304534
-0.0308875
-0.0313158
-0.0316434
-0.0318308
-0.031837
-0.0316662
-0.0313344
-0.0308664
-0.0303179
-0.0297755
-0.0293126
-0.0289778
-0.028807
-0.0258375
-0.0259329
-0.0261574
-0.0263971
-0.0265901
-0.0267361
-0.0268072
-0.0267729
-0.0266086
-0.0263305
-0.0259561
-0.02551
-0.0250409
-0.0246295
-0.0243817
-0.0243882
-0.0246449
-0.0250523
-0.0255265
-0.0260024
-0.02643
-0.0267603
-0.0269656
-0.0270294
-0.0269479
-0.0267548
-0.026524
-0.0263188
-0.026171
-0.0260976
-0.0230554
-0.0230961
-0.0231798
-0.0232137
-0.0231771
-0.0230724
-0.0228785
-0.0225879
-0.0222017
-0.0217293
-0.0211955
-0.0206438
-0.0201376
-0.0197425
-0.0195266
-0.0195368
-0.0197743
-0.0201892
-0.0207142
-0.0212831
-0.0218353
-0.0223265
-0.022733
-0.0230398
-0.0232326
-0.0233202
-0.0233391
-0.023328
-0.0233109
-0.0233057
-0.0203461
-0.0203412
-0.0203001
-0.0201777
-0.0199799
-0.0197064
-0.0193523
-0.0189257
-0.0184301
-0.0178623
-0.0172417
-0.0166271
-0.0160945
-0.0157088
-0.0155168
-0.0155391
-0.0157698
-0.0161734
-0.0166953
-0.0172792
-0.0178753
-0.0184503
-0.0189862
-0.0194634
-0.0198546
-0.0201415
-0.0203302
-0.020447
-0.0205192
-0.020566
-0.0178233
-0.0177482
-0.0176086
-0.0173791
-0.0170714
-0.0166836
-0.0162311
-0.0157343
-0.0151876
-0.0145775
-0.013926
-0.0132969
-0.0127635
-0.0123844
-0.0121928
-0.0121993
-0.0123988
-0.0127703
-0.0132767
-0.013871
-0.0145049
-0.0151411
-0.0157554
-0.0163242
-0.0168203
-0.0172215
-0.0175236
-0.0177408
-0.0178902
-0.0179801
-0.0154524
-0.0153456
-0.0151484
-0.014854
-0.0144716
-0.0140005
-0.0134781
-0.0129266
-0.0123361
-0.0116981
-0.011043
-0.0104297
-0.00992212
-0.009568
-0.00939132
-0.00939946
-0.00959021
-0.00995047
-0.0104517
-0.0110501
-0.0116956
-0.012347
-0.0129793
-0.013576
-0.0141203
-0.0145941
-0.0149839
-0.0152838
-0.0154919
-0.0156055
-0.0133053
-0.0131975
-0.0129713
-0.0126534
-0.012243
-0.0117503
-0.0112048
-0.0106177
-0.00998925
-0.00933307
-0.00868783
-0.00810706
-0.0076421
-0.00732593
-0.007172
-0.00718344
-0.00735872
-0.00768975
-0.00815633
-0.00872308
-0.00934546
-0.00998476
-0.0106169
-0.0112277
-0.0118028
-0.0123221
-0.0127631
-0.0131061
-0.0133387
-0.0134567
-0.0114228
-0.0113112
-0.0110591
-0.0107281
-0.0103207
-0.00984969
-0.00931501
-0.00872064
-0.00808198
-0.00743109
-0.00681299
-0.0062749
-0.00585343
-0.00556827
-0.00542641
-0.00542893
-0.00557664
-0.00586657
-0.00628794
-0.00681611
-0.00741448
-0.00804535
-0.00867949
-0.00929631
-0.00987702
-0.0104004
-0.0108436
-0.0111867
-0.0114176
-0.011533
-0.00978946
-0.0096662
-0.00940228
-0.00907166
-0.00868435
-0.00823526
-0.00771459
-0.00712917
-0.00650475
-0.00588306
-0.00530964
-0.00482205
-0.0044444
-0.00418917
-0.00406149
-0.00406161
-0.00419265
-0.00445358
-0.00483914
-0.00533225
-0.00590257
-0.006513
-0.00712918
-0.00772414
-0.00827668
-0.00876844
-0.00918261
-0.00950489
-0.00972538
-0.00983921
-0.00837926
-0.00824347
-0.00802032
-0.00773344
-0.00737948
-0.00694742
-0.00643972
-0.00587248
-0.0052794
-0.00470325
-0.00418227
-0.00374384
-0.00340522
-0.00317654
-0.00306276
-0.00306438
-0.00318341
-0.00341792
-0.00376354
-0.00420767
-0.00472664
-0.00528822
-0.00585874
-0.00640954
-0.00691905
-0.00737131
-0.00775348
-0.00805428
-0.00826415
-0.0083756
-0.00710124
-0.00698318
-0.00683301
-0.00660687
-0.00628821
-0.00587949
-0.00539592
-0.00486435
-0.00432197
-0.00380432
-0.00333899
-0.00294598
-0.00263968
-0.00243019
-0.00232369
-0.00232225
-0.00242562
-0.0026301
-0.00293001
-0.00331545
-0.00376957
-0.00426804
-0.00478264
-0.00528651
-0.00575756
-0.00617876
-0.00653655
-0.00681924
-0.00701652
-0.00711987
-0.00595538
-0.00588518
-0.00577763
-0.00557766
-0.00527912
-0.00489609
-0.00445112
-0.00397565
-0.00350057
-0.00305004
-0.00264281
-0.0022943
-0.0020177
-0.00182434
-0.00172277
-0.00171715
-0.00180663
-0.00198603
-0.00224797
-0.00258333
-0.00297968
-0.00341951
-0.00388091
-0.0043403
-0.00477555
-0.00516765
-0.00550084
-0.00576211
-0.00594109
-0.00603051
-0.0050245
-0.00498906
-0.00487163
-0.00465908
-0.00436457
-0.00400711
-0.00361102
-0.00320097
-0.00279592
-0.00241069
-0.00205852
-0.00175209
-0.00150422
-0.0013276
-0.00123284
-0.00122583
-0.00130633
-0.00146874
-0.00170438
-0.00200325
-0.002354
-0.00274267
-0.00315206
-0.00356249
-0.00395376
-0.00430706
-0.00460623
-0.00483836
-0.00499428
-0.00506879
-0.00430061
-0.00426411
-0.00411711
-0.00389014
-0.00360519
-0.00328173
-0.00293834
-0.00258871
-0.00224323
-0.00191186
-0.0016049
-0.00133376
-0.00111135
-0.00095091
-0.000863643
-0.00085613
-0.000928999
-0.00107702
-0.00129092
-0.00155944
-0.00187046
-0.00221106
-0.00256685
-0.00292194
-0.00325971
-0.00356417
-0.00382133
-0.00402015
-0.0041531
-0.0042163
-0.00367798
-0.00362086
-0.00346473
-0.00325053
-0.00299666
-0.0027178
-0.00242437
-0.00212384
-0.00182363
-0.00153196
-0.00125834
-0.00101433
-0.000812899
-0.000666756
-0.00058626
-0.000577576
-0.000641705
-0.000774031
-0.000965518
-0.00120444
-0.00147807
-0.00177361
-0.00207826
-0.00237915
-0.00266347
-0.00291906
-0.00313524
-0.00330339
-0.00341743
-0.00347372
-0.0030784
-0.00300707
-0.00287231
-0.00269573
-0.00248734
-0.00225495
-0.0020044
-0.0017419
-0.0014747
-0.00121141
-0.000962553
-0.000740324
-0.00055725
-0.000424629
-0.000351182
-0.000341962
-0.000397699
-0.000514347
-0.000683719
-0.000894741
-0.00113503
-0.00139218
-0.00165445
-0.00191098
-0.00215178
-0.0023678
-0.00255112
-0.00269514
-0.00279479
-0.00284642
-0.00250881
-0.00244425
-0.00234415
-0.00220944
-0.00204325
-0.00184902
-0.00163155
-0.00139746
-0.00115501
-0.000914298
-0.000687021
-0.000485328
-0.000320573
-0.000202291
-0.000137421
-0.000129704
-0.000179309
-0.000282633
-0.000432608
-0.000619518
-0.000832165
-0.00105909
-0.00128949
-0.00151369
-0.00172325
-0.00191083
-0.00207017
-0.00219593
-0.00228382
-0.00233041
-0.00202074
-0.00197696
-0.00190535
-0.00180051
-0.00166256
-0.00149398
-0.00129993
-0.00108777
-0.000866869
-0.000648192
-0.000443284
-0.000263211
-0.00011775
-1.47377e-05
4.04616e-05
4.5267e-05
-4.00761e-09
-9.21353e-05
-0.000225205
-0.00039106
-0.000580086
-0.000782148
-0.000987449
-0.0011871
-0.00137337
-0.00153965
-0.00168038
-0.00179091
-0.00186753
-0.00190738
-0.00163911
-0.00161474
-0.00155876
-0.00146917
-0.00134659
-0.00119444
-0.00101854
-0.000826704
-0.000628404
-0.000433906
-0.000253384
-9.62673e-05
2.93257e-05
0.000117118
0.000163048
0.000165385
0.000124689
4.37194e-05
-7.2682e-05
-0.00021787
-0.000383874
-0.000562057
-0.00074377
-0.000920888
-0.00108613
-0.00123322
-0.00135687
-0.0014528
-0.00151776
-0.00154961
-0.00133906
-0.00132525
-0.00127511
-0.00119229
-0.00107951
-0.000941309
-0.000783746
-0.000614291
-0.000441307
-0.000273403
-0.000118931
1.44648e-05
0.000120342
0.000193873
0.00023204
0.000233629
0.000199162
0.000130847
3.25112e-05
-9.05787e-05
-0.000232019
-0.000384694
-0.000541229
-0.000694422
-0.000837582
-0.000964783
-0.00107102
-0.00115231
-0.0012058
-0.00122996
-0.00107446
-0.00106266
-0.00101416
-0.000936856
-0.000834849
-0.000712869
-0.000576547
-0.000432268
-0.000286786
-0.000146888
-1.90815e-05
9.0777e-05
0.00017786
0.000238588
0.000270687
0.000273192
0.000246402
0.00019196
0.000112762
1.28472e-05
-0.000102811
-0.00022856
-0.000358364
-0.000486115
-0.000605948
-0.000712527
-0.000801285
-0.000868602
-0.000911958
-0.000930162
-0.000810696
-0.000795299
-0.000749117
-0.000680121
-0.000592193
-0.000489498
-0.000376754
-0.00025902
-0.000141473
-2.92175e-05
7.29419e-05
0.000160761
0.000230755
0.000280273
0.000307525
0.000311641
0.0002927
0.000251828
0.000191122
0.000113556
2.28528e-05
-7.667e-05
-0.000180272
-0.000283012
-0.00038001
-0.000466716
-0.000539166
-0.000594173
-0.000629501
-0.000644054
-0.000538273
-0.000518524
-0.000477307
-0.000419342
-0.000347556
-0.000265261
-0.000176102
-8.38634e-05
7.66279e-06
9.47967e-05
0.000174119
0.000242617
0.000297764
0.000337552
0.000360535
0.000365914
0.000353636
0.000324419
0.000279707
0.000221601
0.000152783
7.64438e-05
-3.825e-06
-8.41872e-05
-0.000160766
-0.000229875
-0.000288229
-0.000333127
-0.000362597
-0.000375492
-0.000270474
-0.000248695
-0.000214203
-0.000167949
-0.000111946
-4.86192e-05
1.94284e-05
8.95142e-05
0.000158947
0.000225104
0.000285535
0.000338061
0.00038081
0.000412241
0.000431209
0.000437016
0.000429569
0.000409268
0.000377054
0.000334359
0.000283068
0.000225491
0.000164287
0.000102347
4.26379e-05
-1.19689e-05
-5.8862e-05
-9.58262e-05
-0.000121148
-0.000133597
-2.89337e-05
-7.8417e-06
1.97657e-05
5.5374e-05
9.77657e-05
0.000145342
0.000196342
0.000248895
0.000301061
0.00035091
0.000396636
0.000436625
0.000469468
0.00049398
0.000509277
0.000514797
0.000510402
0.000496282
0.000473018
0.00044158
0.000403294
0.000359837
0.000313165
0.000265421
0.000218827
0.000175559
0.000137636
0.000106832
8.46108e-05
7.22249e-05
0.000168745
0.000187404
0.000208769
0.000235645
0.000267448
0.000303165
0.000341564
0.000381262
0.000420777
0.000458647
0.00049352
0.000524177
0.000549532
0.000568657
0.000580844
0.000585677
0.000582919
0.000572686
0.000555361
0.000531624
0.000502448
0.000469074
0.000432956
0.000395686
0.000358915
0.000324276
0.000293316
0.00026743
0.000247843
0.000235756
0.000314059
0.00032923
0.00034539
0.000365733
0.00038999
0.000417418
0.00044706
0.000477798
0.000508466
0.000537943
0.000565193
0.000589247
0.00060922
0.000624344
0.000634057
0.000638045
0.000636026
0.000628101
0.000614557
0.000595935
0.00057299
0.000546675
0.000518093
0.000488445
0.000458973
0.000430915
0.000405455
0.000383689
0.000366619
0.000355336
0.000407401
0.000418756
0.000431052
0.000446879
0.000466006
0.000487808
0.000511469
0.000536072
0.000560695
0.000584459
0.000606498
0.000625979
0.000642139
0.000654371
0.000662195
0.000665429
0.000663732
0.00065723
0.000646213
0.000631111
0.000612542
0.000591267
0.000568154
0.000544136
0.000520177
0.000497238
0.000476244
0.00045806
0.000443491
0.000433482
0.000455879
0.000463848
0.000473488
0.000486236
0.000501824
0.000519701
0.000539179
0.000559525
0.000579993
0.000599815
0.000618202
0.000634426
0.000647816
0.000657887
0.000664389
0.000667064
0.000665592
0.000660199
0.000651063
0.000638573
0.00062326
0.000605748
0.000586746
0.000567017
0.00054734
0.000528488
0.000511207
0.000496184
0.000484062
0.000475616
0.000469346
0.000474961
0.000482669
0.000493165
0.000506147
0.000521144
0.0005376
0.000554905
0.000572396
0.000589338
0.000604967
0.000618715
0.000629934
0.000638285
0.00064405
0.000646431
0.000645184
0.000640754
0.000633143
0.000622724
0.000609972
0.000595412
0.000579646
0.000563319
0.000547085
0.000531596
0.000517458
0.000505225
0.000495407
0.000488616
0.000457893
0.00046171
0.0004679
0.000476631
0.000487611
0.000500424
0.000514603
0.000529621
0.000544849
0.000559566
0.000572877
0.000584742
0.000594773
0.000602483
0.000606992
0.000608889
0.000607946
0.000604136
0.000597789
0.000589104
0.000578474
0.000566358
0.000553277
0.000539788
0.000526445
0.000513796
0.000502342
0.000492542
0.0004848
0.000479584
0.000429853
0.000432317
0.000437297
0.000444621
0.00045399
0.000465027
0.000477335
0.000490469
0.000503841
0.000516926
0.000527696
0.000537807
0.000546419
0.000553054
0.000557312
0.000559118
0.00055856
0.000555584
0.000550407
0.000543309
0.000534539
0.000524547
0.00051379
0.000502752
0.000491896
0.000481673
0.000472501
0.000464767
0.0004588
0.000454962
0.000392096
0.000393602
0.000397674
0.00040383
0.000411794
0.000421213
0.000431746
0.000443149
0.000453746
0.000463466
0.000474239
0.000483389
0.000491013
0.0004969
0.00050086
0.000502554
0.00050237
0.000500117
0.000495997
0.000490263
0.000483209
0.00047513
0.00046639
0.000457499
0.000448758
0.000440573
0.000433301
0.000427273
0.000422757
0.000420035
0.000349578
0.000350544
0.000353851
0.000358989
0.000365653
0.000373448
0.000382054
0.00039068
0.000399971
0.000409344
0.000418287
0.000426209
0.000432861
0.000438038
0.000441576
0.000443321
0.00044337
0.000441731
0.000438539
0.00043402
0.000428417
0.000422016
0.000415125
0.000407948
0.000400929
0.000394428
0.000388696
0.000384061
0.000380704
0.000378839
0.000305172
0.000305874
0.000308573
0.000312781
0.000318317
0.000324818
0.000331884
0.000339349
0.00034711
0.0003549
0.000362308
0.000369028
0.000374721
0.000379179
0.000382247
0.000383992
0.000384184
0.00038303
0.000380635
0.000377135
0.000372754
0.000367712
0.000362253
0.000356626
0.000351121
0.000345955
0.000341405
0.000337963
0.000335538
0.000334317
0.000261073
0.000261422
0.000263616
0.000266952
0.000271241
0.000276422
0.000282245
0.000288492
0.000294994
0.000301604
0.000307834
0.000313375
0.000318086
0.000321804
0.000324416
0.000325946
0.000326265
0.000325496
0.000323726
0.00032107
0.000317682
0.000313747
0.000309471
0.000305083
0.000300821
0.000296923
0.000293667
0.00029097
0.000289239
0.000288528
0.000217245
0.000217645
0.000219206
0.000221729
0.000225101
0.000229208
0.000233906
0.000239018
0.00024438
0.000249668
0.000254722
0.000259292
0.000263207
0.000266329
0.000268577
0.000269966
0.000270388
0.000269929
0.000268656
0.000266661
0.000264072
0.000261046
0.000257762
0.000254418
0.000251211
0.000248322
0.000245913
0.000244068
0.000242929
0.000242559
0.000174992
0.000175253
0.000176342
0.000178205
0.000180743
0.00018387
0.000187463
0.000191406
0.00019555
0.000199704
0.000203712
0.000207403
0.000210626
0.000213241
0.000215189
0.000216427
0.000216926
0.000216714
0.000215835
0.000214372
0.00021244
0.000210181
0.000207747
0.000205288
0.000202974
0.000200926
0.000199249
0.000198019
0.000197302
0.000197152
0.000134454
0.000134553
0.000135356
0.000136657
0.000138432
0.000140608
0.000143133
0.000145952
0.000148966
0.000152045
0.000155071
0.000157935
0.000160503
0.000162654
0.00016431
0.000165418
0.000165955
0.000165923
0.000165363
0.000164345
0.000162975
0.000161376
0.000159672
0.000157969
0.000156367
0.00015497
0.000153846
0.000153045
0.000152601
0.000152569
9.54129e-05
9.56437e-05
9.61203e-05
9.69046e-05
9.7947e-05
9.92205e-05
0.00010073
0.000102482
0.000104434
0.000106509
0.000108617
0.000110679
0.000112589
0.000114279
0.000115647
0.000116627
0.000117182
0.000117309
0.000117037
0.000116421
0.000115551
0.000114519
0.000113415
0.000112315
0.000111289
0.000110389
0.000109642
0.00010912
0.000108845
0.000108833
5.76834e-05
5.81846e-05
5.82856e-05
5.85487e-05
5.88913e-05
5.93152e-05
5.9868e-05
6.05896e-05
6.15084e-05
6.26112e-05
6.38158e-05
6.50802e-05
6.63647e-05
6.75864e-05
6.86598e-05
6.95195e-05
7.01123e-05
7.04156e-05
7.04497e-05
7.02424e-05
6.98456e-05
6.93138e-05
6.8712e-05
6.80802e-05
6.74773e-05
6.69329e-05
6.64612e-05
6.61104e-05
6.59088e-05
6.58476e-05
2.11883e-05
2.13976e-05
2.12747e-05
2.10537e-05
2.07434e-05
2.03575e-05
1.99881e-05
1.97169e-05
1.96195e-05
1.97206e-05
2.00092e-05
2.04768e-05
2.10977e-05
2.18232e-05
2.25896e-05
2.3336e-05
2.40071e-05
2.45371e-05
2.49259e-05
2.51461e-05
2.52065e-05
2.51231e-05
2.49226e-05
2.46629e-05
2.43629e-05
2.4053e-05
2.3765e-05
2.35095e-05
2.32932e-05
2.31094e-05
4877.21
4877.21