/*--------------------------------*- C++ -*----------------------------------*\
| =========                 |                                                 |
| \\      /  F ield         | OpenFOAM: The Open Source CFD Toolbox           |
|  \\    /   O peration     | Version:  2312                                  |
|   \\  /    A nd           | Website:  www.openfoam.com                      |
|    \\/     M anipulation  |                                                 |
\*---------------------------------------------------------------------------*/
FoamFile
{
    version     2.0;
    format      ascii;
    arch        "LSB;label=32;scalar=64";
    class       surfaceScalarField;
    location    "0.198545";
    object      phi;
}
// * * * * * * * * * * * * * * * * * * * * * * * * * * * * * * * * * * * * * //

dimensions      [0 3 -1 0 0 0 0];

oriented        oriented;

internalField   nonuniform List<scalar> 
263100
(
-3.82775e-11
7.65542e-11
-3.82775e-11
-1.33283e-10
1.2947e-10
-5.23405e-11
-2.01016e-10
1.07204e-10
-5.41585e-11
-2.5451e-10
9.75414e-11
-5.85297e-11
-2.94767e-10
8.63943e-11
-6.06541e-11
-3.18222e-10
7.13614e-11
-6.238e-11
-3.24499e-10
5.4618e-11
-6.28302e-11
-3.15219e-10
3.85707e-11
-6.23402e-11
-2.93909e-10
2.50878e-11
-6.09559e-11
-2.63356e-10
1.37831e-11
-5.89671e-11
-2.28572e-10
9.55326e-12
-5.90646e-11
-1.89174e-10
6.81408e-12
-6.10415e-11
-1.43058e-10
2.98622e-12
-6.40241e-11
-8.82282e-11
-2.94792e-12
-6.6875e-11
-2.39931e-11
-1.04769e-11
-6.87882e-11
4.61012e-11
-1.58743e-11
-6.92369e-11
1.17394e-10
-2.07959e-11
-6.54351e-11
1.81446e-10
-1.9677e-11
-5.91552e-11
2.31471e-10
-1.18798e-11
-5.26751e-11
2.63418e-10
1.56551e-12
-4.76955e-11
2.73525e-10
2.17003e-11
-4.55624e-11
2.64898e-10
4.20916e-11
-4.67603e-11
2.41583e-10
6.08079e-11
-5.03628e-11
2.09325e-10
7.45982e-11
-5.48927e-11
1.76427e-10
8.11201e-11
-6.06187e-11
1.47748e-10
8.18556e-11
-6.55938e-11
1.24719e-10
8.08196e-11
-7.03911e-11
1.06898e-10
7.16283e-11
-6.67037e-11
9.27134e-11
2.25406e-11
-2.15833e-11
1.03932e-10
-2.47304e-11
-7.29043e-11
2.04386e-10
-7.29043e-11
-1.30359e-10
2.26163e-10
-6.84177e-11
-1.85688e-10
2.04278e-10
-6.81958e-11
-2.33283e-10
1.84834e-10
-6.5998e-11
-2.69155e-10
1.58808e-10
-6.28706e-11
-2.92205e-10
1.2736e-10
-5.91997e-11
-3.01894e-10
9.37604e-11
-5.57554e-11
-2.9829e-10
6.24885e-11
-5.39372e-11
-2.84103e-10
3.83646e-11
-5.4018e-11
-2.59825e-10
1.7018e-11
-5.42536e-11
-2.23931e-10
-6.80076e-13
-5.26295e-11
-1.80181e-10
-1.20977e-11
-5.20128e-11
-1.2836e-10
-2.56985e-11
-5.04551e-11
-7.13687e-11
-3.8661e-11
-4.86581e-11
-1.16777e-11
-5.06091e-11
-4.68958e-11
4.93107e-11
-5.85466e-11
-4.54823e-11
1.07287e-10
-5.87494e-11
-4.68703e-11
1.59591e-10
-4.83117e-11
-5.00393e-11
2.02867e-10
-2.64993e-11
-5.43965e-11
2.36346e-10
9.96079e-13
-5.79083e-11
2.57599e-10
3.79188e-11
-6.16918e-11
2.68567e-10
6.96122e-11
-6.1995e-11
2.69342e-10
9.66552e-11
-5.95845e-11
2.61941e-10
1.15975e-10
-5.66318e-11
2.46554e-10
1.24284e-10
-5.03844e-11
2.27949e-10
1.22482e-10
-4.4822e-11
2.14084e-10
1.16557e-10
-4.50509e-11
1.7284e-10
1.56151e-10
-6.69057e-11
1.02982e-10
1.32113e-10
-6.36936e-11
2.75749e-10
-8.89049e-11
-6.96083e-11
3.29062e-10
-6.96083e-11
-1.20363e-10
3.18569e-10
-6.7415e-11
-1.71849e-10
2.96743e-10
-6.42486e-11
-2.17465e-10
2.69219e-10
-6.18121e-11
-2.55246e-10
2.33181e-10
-5.95973e-11
-2.83225e-10
1.90655e-10
-5.83005e-11
-2.99587e-10
1.4532e-10
-5.82403e-11
-3.02692e-10
1.00275e-10
-5.78899e-11
-2.9072e-10
5.93688e-11
-5.64307e-11
-2.68065e-10
2.83423e-11
-5.77312e-11
-2.30557e-10
-4.49861e-12
-5.77475e-11
-1.81911e-10
-2.89157e-11
-5.61149e-11
-1.26558e-10
-5.09711e-11
-5.44745e-11
-6.80315e-11
-6.84146e-11
-5.31445e-11
-1.07608e-11
-7.89494e-11
-5.31411e-11
4.341e-11
-8.16019e-11
-5.50263e-11
9.40001e-11
-7.41819e-11
-5.86372e-11
1.41282e-10
-5.49656e-11
-6.35699e-11
1.86378e-10
-2.47646e-11
-6.91698e-11
2.26998e-10
1.35439e-11
-7.48827e-11
2.66458e-10
5.31257e-11
-7.57877e-11
2.97971e-10
9.40232e-11
-7.65147e-11
3.17632e-10
1.3141e-10
-7.45646e-11
3.21525e-10
1.6177e-10
-6.94948e-11
3.04625e-10
1.85447e-10
-6.38475e-11
2.60079e-10
2.05112e-10
-5.75821e-11
1.8464e-10
2.30455e-10
-5.80103e-11
1.34524e-10
2.52804e-10
-6.6195e-11
4.11927e-11
2.43476e-10
-3.76356e-11
3.54375e-10
-5.37364e-11
-6.87147e-11
4.52521e-10
-6.87147e-11
-1.20125e-10
4.09401e-10
-6.40434e-11
-1.74105e-10
3.89639e-10
-6.11253e-11
-2.23154e-10
3.55902e-10
-5.95876e-11
-2.65991e-10
3.13247e-10
-5.90802e-11
-3.00012e-10
2.62108e-10
-5.9309e-11
-3.22738e-10
2.06794e-10
-6.07758e-11
-3.32289e-10
1.50754e-10
-6.3243e-11
-3.25718e-10
9.62631e-11
-6.61668e-11
-2.99404e-10
4.64405e-11
-6.75064e-11
-2.62253e-10
5.47665e-12
-7.05641e-11
-2.09195e-10
-3.51651e-11
-7.0457e-11
-1.48377e-10
-6.43315e-11
-7.11348e-11
-8.32144e-11
-8.56884e-11
-7.14091e-11
-1.93887e-11
-9.25924e-11
-7.33735e-11
4.13603e-11
-8.86167e-11
-7.64532e-11
9.88704e-11
-7.429e-11
-7.95605e-11
1.54063e-10
-4.95421e-11
-8.21954e-11
2.06429e-10
-1.32221e-11
-8.4948e-11
2.58694e-10
2.68177e-11
-8.61062e-11
3.04567e-10
7.42055e-11
-8.70919e-11
3.40841e-10
1.24274e-10
-8.62302e-11
3.62279e-10
1.74813e-10
-8.40679e-11
3.6295e-10
2.24117e-10
-8.1724e-11
3.38824e-10
2.71463e-10
-8.00956e-11
2.89095e-10
3.18388e-10
-8.13656e-11
2.25182e-10
3.64955e-10
-8.81878e-11
1.49707e-10
4.08159e-10
-9.73616e-11
3.50337e-11
4.33276e-10
-9.22729e-11
4.6874e-10
-9.31792e-11
-6.7996e-11
5.75143e-10
-6.7996e-11
-1.31119e-10
5.14353e-10
-6.50475e-11
-1.93658e-10
4.94687e-10
-6.3423e-11
-2.50632e-10
4.55339e-10
-6.3117e-11
-3.00418e-10
4.06256e-10
-6.37922e-11
-3.40906e-10
3.48075e-10
-6.61709e-11
-3.69838e-10
2.84967e-10
-7.02245e-11
-3.84629e-10
2.19485e-10
-7.52979e-11
-3.80691e-10
1.50446e-10
-7.99657e-11
-3.57535e-10
8.5083e-11
-8.40783e-11
-3.13528e-10
2.56267e-11
-8.67787e-11
-2.56468e-10
-2.42772e-11
-9.07399e-11
-1.85344e-10
-6.53467e-11
-9.28483e-11
-1.08559e-10
-8.91524e-11
-9.57833e-11
-2.87053e-11
-9.7377e-11
-9.70689e-11
5.02586e-11
-9.14633e-11
-9.75372e-11
1.25836e-10
-7.33644e-11
-9.73216e-11
1.9649e-10
-4.38385e-11
-9.6644e-11
2.61662e-10
-3.91882e-12
-9.43372e-11
3.18295e-10
4.28541e-11
-9.21868e-11
3.64046e-10
9.92298e-11
-8.99335e-11
3.94606e-10
1.63413e-10
-8.83981e-11
4.05153e-10
2.34086e-10
-8.79182e-11
3.92957e-10
3.08468e-10
-8.95565e-11
3.56273e-10
3.8455e-10
-9.3116e-11
2.96991e-10
4.59195e-10
-9.76653e-11
2.25059e-10
5.25676e-10
-1.04491e-10
1.40893e-10
5.86688e-10
-1.09728e-10
5.26466e-11
6.16967e-10
-1.10299e-10
6.145e-10
-1.04617e-10
-7.61193e-11
7.14769e-10
-7.61193e-11
-1.57209e-10
6.48326e-10
-7.43063e-11
-2.32449e-10
6.2519e-10
-7.45784e-11
-2.99864e-10
5.80495e-10
-7.68761e-11
-3.57946e-10
5.25086e-10
-7.99048e-11
-4.04558e-10
4.59668e-10
-8.43538e-11
-4.37189e-10
3.86592e-10
-8.87523e-11
-4.52912e-10
3.09039e-10
-9.40014e-11
-4.48913e-10
2.24334e-10
-9.85766e-11
-4.24193e-10
1.41916e-10
-1.02674e-10
-3.78152e-10
6.45276e-11
-1.06375e-10
-3.11631e-10
-2.57095e-12
-1.09792e-10
-2.28923e-10
-5.66212e-11
-1.12897e-10
-1.33464e-10
-9.1553e-11
-1.14196e-10
-3.09679e-11
-1.05906e-10
-1.1462e-10
7.27426e-11
-1.02777e-10
-1.12505e-10
1.71855e-10
-8.3571e-11
-1.08505e-10
2.60354e-10
-4.86985e-11
-1.02815e-10
3.34993e-10
7.0891e-13
-9.80808e-11
3.95678e-10
5.71819e-11
-9.34444e-11
4.3756e-10
1.29862e-10
-9.04465e-11
4.58135e-10
2.13895e-10
-8.83375e-11
4.55393e-10
3.09343e-10
-8.90332e-11
4.29419e-10
4.12142e-10
-9.34274e-11
3.81756e-10
5.1696e-10
-9.9735e-11
3.16518e-10
6.15339e-10
-1.05232e-10
2.40198e-10
6.96672e-10
-1.08348e-10
1.62177e-10
7.60916e-10
-1.09275e-10
7.86053e-11
7.95342e-10
-1.07315e-10
7.85227e-10
-1.0145e-10
-9.71606e-11
8.97448e-10
-9.71606e-11
-1.9813e-10
8.2833e-10
-9.82934e-11
-2.89324e-10
8.00017e-10
-1.01097e-10
-3.69431e-10
7.47887e-10
-1.04697e-10
-4.35605e-10
6.82365e-10
-1.08684e-10
-4.85994e-10
6.04805e-10
-1.12624e-10
-5.18744e-10
5.16768e-10
-1.15754e-10
-5.32562e-10
4.21391e-10
-1.17318e-10
-5.25939e-10
3.17878e-10
-1.19482e-10
-4.96282e-10
2.14213e-10
-1.21678e-10
-4.42309e-10
1.14391e-10
-1.23822e-10
-3.6478e-10
2.52941e-11
-1.25466e-10
-2.67059e-10
-4.68623e-11
-1.2743e-10
-1.5188e-10
-9.87509e-11
-1.27631e-10
-2.47435e-11
-1.27502e-10
-1.24798e-10
1.0282e-10
-1.2913e-10
-1.20066e-10
2.22183e-10
-1.06184e-10
-1.15232e-10
3.26496e-10
-6.18244e-11
-1.09286e-10
4.13704e-10
-6.69794e-13
-1.03462e-10
4.78392e-10
7.52658e-11
-9.97863e-11
5.19478e-10
1.69297e-10
-9.67723e-11
5.35122e-10
2.79571e-10
-9.67433e-11
5.24768e-10
4.03706e-10
-9.86396e-11
4.89757e-10
5.34679e-10
-1.0143e-10
4.34089e-10
6.6394e-10
-1.04512e-10
3.62701e-10
7.81353e-10
-1.07061e-10
2.80215e-10
8.75716e-10
-1.08112e-10
1.93824e-10
9.44502e-10
-1.07906e-10
1.02555e-10
9.83124e-10
-1.06808e-10
9.82802e-10
-1.0266e-10
-1.32558e-10
1.15211e-09
-1.32558e-10
-2.52447e-10
1.06588e-09
-1.34469e-10
-3.62091e-10
1.03142e-09
-1.37134e-10
-4.55771e-10
9.66519e-10
-1.40408e-10
-5.30845e-10
8.84584e-10
-1.42915e-10
-5.85277e-10
7.87336e-10
-1.44269e-10
-6.18119e-10
6.76868e-10
-1.43946e-10
-6.26724e-10
5.56373e-10
-1.43583e-10
-6.12677e-10
4.28098e-10
-1.41975e-10
-5.73829e-10
2.99014e-10
-1.41688e-10
-5.06934e-10
1.70623e-10
-1.41312e-10
-4.12908e-10
5.44325e-11
-1.41347e-10
-2.95593e-10
-4.08944e-11
-1.41338e-10
-1.60928e-10
-1.10475e-10
-1.40805e-10
-1.47786e-11
-1.53394e-10
-1.37934e-10
1.30821e-10
-1.58063e-10
-1.34163e-10
2.6452e-10
-1.27258e-10
-1.29872e-10
3.85116e-10
-7.3545e-11
-1.25693e-10
4.87016e-10
5.21263e-12
-1.23928e-10
5.62818e-10
1.08672e-10
-1.24484e-10
6.12658e-10
2.29105e-10
-1.23999e-10
6.33336e-10
3.69485e-10
-1.24112e-10
6.24355e-10
5.23521e-10
-1.23656e-10
5.8685e-10
6.82523e-10
-1.22502e-10
5.24765e-10
8.35627e-10
-1.20995e-10
4.42987e-10
9.72103e-10
-1.19417e-10
3.45536e-10
1.08233e-09
-1.18588e-10
2.3882e-10
1.16113e-09
-1.18482e-10
1.25538e-10
1.20724e-09
-1.19253e-10
1.22126e-09
-1.19407e-10
-1.74195e-10
1.49144e-09
-1.74195e-10
-3.17743e-10
1.37106e-09
-1.75774e-10
-4.5016e-10
1.32763e-09
-1.76852e-10
-5.62126e-10
1.24312e-09
-1.77939e-10
-6.50325e-10
1.13681e-09
-1.77788e-10
-7.12009e-10
1.01135e-09
-1.76636e-10
-7.458e-10
8.70394e-10
-1.74624e-10
-7.51062e-10
7.17559e-10
-1.71343e-10
-7.26119e-10
5.57807e-10
-1.70434e-10
-6.69475e-10
3.95024e-10
-1.68576e-10
-5.82919e-10
2.35829e-10
-1.67624e-10
-4.67113e-10
8.93482e-11
-1.66462e-10
-3.26274e-10
-3.3039e-11
-1.64359e-10
-1.70272e-10
-1.20472e-10
-1.61693e-10
-8.47969e-12
-1.70726e-10
-1.60243e-10
1.5136e-10
-1.74616e-10
-1.59117e-10
3.03492e-10
-1.34618e-10
-1.60432e-10
4.43946e-10
-6.46698e-11
-1.64494e-10
5.64538e-10
3.8566e-11
-1.68332e-10
6.59713e-10
1.70879e-10
-1.70881e-10
7.27632e-10
3.19464e-10
-1.70972e-10
7.62166e-10
4.91771e-10
-1.68854e-10
7.60774e-10
6.78022e-10
-1.64521e-10
7.23643e-10
8.681e-10
-1.59094e-10
6.53552e-10
1.04981e-09
-1.53748e-10
5.55875e-10
1.21135e-09
-1.50119e-10
4.36667e-10
1.34275e-09
-1.48798e-10
3.02289e-10
1.43738e-09
-1.488e-10
1.57816e-10
1.49441e-09
-1.49529e-10
1.522e-09
-1.48281e-10
-2.14252e-10
1.91242e-09
-2.14252e-10
-3.90453e-10
1.74971e-09
-2.13754e-10
-5.55468e-10
1.69511e-09
-2.1309e-10
-6.95137e-10
1.58434e-09
-2.12605e-10
-8.05617e-10
1.44636e-09
-2.10711e-10
-8.82811e-10
1.28527e-09
-2.08999e-10
-9.23313e-10
1.10623e-09
-2.08166e-10
-9.23937e-10
9.1382e-10
-2.08868e-10
-8.84204e-10
7.13834e-10
-2.09064e-10
-8.04174e-10
5.12871e-10
-2.11056e-10
-6.87781e-10
3.17654e-10
-2.1116e-10
-5.41691e-10
1.40174e-10
-2.0974e-10
-3.73452e-10
-6.30842e-12
-2.07928e-10
-1.91113e-10
-1.09414e-10
-2.06709e-10
-8.3324e-12
-1.58839e-10
-2.08379e-10
1.73199e-10
-1.57814e-10
-2.1226e-10
3.53015e-10
-1.10786e-10
-2.17441e-10
5.19297e-10
-2.0362e-11
-2.23899e-10
6.65945e-10
1.07408e-10
-2.28131e-10
7.92154e-10
2.60188e-10
-2.27508e-10
8.82535e-10
4.43166e-10
-2.25512e-10
9.31586e-10
6.51964e-10
-2.20109e-10
9.35896e-10
8.77036e-10
-2.13434e-10
8.95746e-10
1.10586e-09
-2.06691e-10
8.15541e-10
1.32344e-09
-2.01347e-10
6.99639e-10
1.51841e-09
-1.98018e-10
5.55875e-10
1.6753e-09
-1.94914e-10
3.89783e-10
1.78944e-09
-1.91543e-10
2.0641e-10
1.86119e-09
-1.88572e-10
1.9093e-09
-1.84617e-10
-2.50895e-10
2.40829e-09
-2.50895e-10
-4.75308e-10
2.21587e-09
-2.50152e-10
-6.85949e-10
2.1456e-09
-2.48007e-10
-8.66853e-10
2.00406e-09
-2.47542e-10
-1.01166e-09
1.8282e-09
-2.46381e-10
-1.11299e-09
1.62437e-09
-2.47733e-10
-1.16414e-09
1.39903e-09
-2.51974e-10
-1.16019e-09
1.15801e-09
-2.58634e-10
-1.09992e-09
9.08768e-10
-2.65459e-10
-9.88662e-10
6.60425e-10
-2.68809e-10
-8.33967e-10
4.2427e-10
-2.71127e-10
-6.47901e-10
2.15383e-10
-2.71226e-10
-4.4319e-10
4.91897e-11
-2.70652e-10
-2.28503e-10
-6.33358e-11
-2.71867e-10
-7.97102e-12
-1.1616e-10
-2.74851e-10
2.13846e-10
-1.11064e-10
-2.80411e-10
4.30018e-10
-5.08899e-11
-2.87749e-10
6.33502e-10
5.52355e-11
-2.90377e-10
8.21605e-10
1.97622e-10
-2.89192e-10
9.76084e-10
3.81671e-10
-2.86447e-10
1.08588e-09
6.03871e-10
-2.80533e-10
1.14452e-09
8.57693e-10
-2.73716e-10
1.14992e-09
1.13095e-09
-2.67656e-10
1.10474e-09
1.40664e-09
-2.62788e-10
1.01078e-09
1.66982e-09
-2.58563e-10
8.76766e-10
1.9007e-09
-2.53626e-10
7.06142e-10
2.0885e-09
-2.47282e-10
5.00873e-10
2.23088e-09
-2.40195e-10
2.65474e-10
2.3274e-09
-2.34056e-10
2.40148e-09
-2.28604e-10
-2.89113e-10
2.9822e-09
-2.89113e-10
-5.82612e-10
2.79146e-09
-2.87457e-10
-8.53326e-10
2.69581e-09
-2.84975e-10
-1.089e-09
2.52219e-09
-2.88529e-10
-1.27725e-09
2.3031e-09
-2.93313e-10
-1.4073e-09
2.04927e-09
-3.01987e-10
-1.46927e-09
1.76623e-09
-3.12501e-10
-1.45735e-09
1.46277e-09
-3.23924e-10
-1.37244e-09
1.15012e-09
-3.33197e-10
-1.2238e-09
8.4335e-10
-3.38414e-10
-1.02541e-09
5.58913e-10
-3.40083e-10
-7.93221e-10
3.15896e-10
-3.40286e-10
-5.4012e-10
1.29397e-10
-3.41667e-10
-2.75573e-10
9.29037e-12
-3.46233e-10
-2.21861e-12
-4.72865e-11
-3.51662e-10
2.73353e-10
-4.01801e-11
-3.55894e-10
5.45925e-10
2.37564e-11
-3.56441e-10
8.06014e-10
1.41503e-10
-3.55333e-10
1.0341e-09
3.11901e-10
-3.5112e-10
1.21663e-09
5.35709e-10
-3.45029e-10
1.34309e-09
8.07945e-10
-3.3844e-10
1.4082e-09
1.11871e-09
-3.33172e-10
1.41219e-09
1.45067e-09
-3.29734e-10
1.35754e-09
1.78273e-09
-3.26545e-10
1.25022e-09
2.0946e-09
-3.21866e-10
1.09224e-09
2.36996e-09
-3.15071e-10
8.83364e-10
2.60032e-09
-3.05936e-10
6.24532e-10
2.78337e-09
-2.95691e-10
3.24204e-10
2.91706e-09
-2.90563e-10
3.01728e-09
-2.91934e-10
-3.37977e-10
3.65553e-09
-3.37977e-10
-7.21171e-10
3.51565e-09
-3.42838e-10
-1.064e-09
3.38388e-09
-3.47525e-10
-1.36136e-09
3.17183e-09
-3.55069e-10
-1.59744e-09
2.90091e-09
-3.6502e-10
-1.75648e-09
2.58186e-09
-3.77209e-10
-1.82724e-09
2.22381e-09
-3.90528e-10
-1.80484e-09
1.83872e-09
-4.02128e-10
-1.69426e-09
1.44501e-09
-4.09211e-10
-1.5082e-09
1.06569e-09
-4.1251e-10
-1.26536e-09
7.25122e-10
-4.13801e-10
-9.83037e-10
4.43506e-10
-4.15498e-10
-6.72384e-10
2.3221e-10
-4.19744e-10
-3.39732e-10
9.51681e-11
-4.25201e-10
7.18908e-12
2.99746e-11
-4.30873e-10
3.60278e-10
3.34081e-11
-4.33188e-10
7.06105e-10
1.03651e-10
-4.32067e-10
1.02588e-09
2.42459e-10
-4.26985e-10
1.3001e-09
4.51932e-10
-4.20373e-10
1.51363e-09
7.30246e-10
-4.13821e-10
1.65798e-09
1.06771e-09
-4.09231e-10
1.73139e-09
1.4482e-09
-4.07216e-10
1.73516e-09
1.84822e-09
-4.04956e-10
1.67187e-09
2.24315e-09
-4.00253e-10
1.54286e-09
2.61398e-09
-3.92998e-10
1.3452e-09
2.94871e-09
-3.83006e-10
1.07833e-09
3.23841e-09
-3.72119e-10
7.50134e-10
3.47794e-09
-3.66241e-10
3.79419e-10
3.65606e-09
-3.67463e-10
3.76926e-09
-3.71497e-10
-4.17387e-10
4.48968e-09
-4.17387e-10
-8.95713e-10
4.42822e-09
-4.31833e-10
-1.31858e-09
4.24885e-09
-4.40469e-10
-1.67979e-09
3.98467e-09
-4.50453e-10
-1.9622e-09
3.64609e-09
-4.62063e-10
-2.14896e-09
3.24242e-09
-4.7352e-10
-2.22765e-09
2.78578e-09
-4.8322e-10
-2.19746e-09
2.29746e-09
-4.8923e-10
-2.06594e-09
1.80649e-09
-4.93739e-10
-1.84926e-09
1.34347e-09
-4.96015e-10
-1.56565e-09
9.37148e-10
-4.98083e-10
-1.22808e-09
6.06209e-10
-5.03403e-10
-8.45151e-10
3.58216e-10
-5.12422e-10
-4.25531e-10
1.93506e-10
-5.21435e-10
1.66652e-11
1.09521e-10
-5.25046e-10
4.64568e-10
1.06918e-10
-5.24613e-10
8.96071e-10
1.90131e-10
-5.21221e-10
1.28629e-09
3.63831e-10
-5.1487e-10
1.61473e-09
6.28873e-10
-5.08493e-10
1.86813e-09
9.785e-10
-5.04363e-10
2.04065e-09
1.39515e-09
-5.02142e-10
2.13118e-09
1.85505e-09
-4.99119e-10
2.13734e-09
2.33471e-09
-4.94058e-10
2.06091e-09
2.80402e-09
-4.85475e-10
1.89431e-09
3.25344e-09
-4.7327e-10
1.63616e-09
3.66988e-09
-4.62513e-10
1.29413e-09
4.04046e-09
-4.58535e-10
8.86476e-10
4.34695e-09
-4.58987e-10
4.42153e-10
4.56504e-09
-4.61583e-10
4.67409e-09
-4.5976e-10
-5.36605e-10
5.56477e-09
-5.36605e-10
-1.10839e-09
5.56063e-09
-5.53443e-10
-1.61414e-09
5.32371e-09
-5.63158e-10
-2.04181e-09
4.99074e-09
-5.72997e-10
-2.37214e-09
4.56204e-09
-5.80695e-10
-2.58733e-09
4.04854e-09
-5.86587e-10
-2.67801e-09
3.47113e-09
-5.90801e-10
-2.64708e-09
2.86266e-09
-5.92938e-10
-2.50588e-09
2.26351e-09
-5.95857e-10
-2.26614e-09
1.70436e-09
-5.993e-10
-1.93941e-09
1.21917e-09
-6.08211e-10
-1.53414e-09
8.22525e-10
-6.21398e-10
-1.06041e-09
5.19494e-10
-6.34844e-10
-5.33287e-10
3.1088e-10
-6.44223e-10
2.36564e-11
1.99002e-10
-6.4617e-10
5.82753e-10
1.90896e-10
-6.43008e-10
1.11259e-09
2.95972e-10
-6.35812e-10
1.58614e-09
5.18668e-10
-6.28532e-10
1.98379e-09
8.54605e-10
-6.23297e-10
2.29392e-09
1.28818e-09
-6.19391e-10
2.50916e-09
1.79519e-09
-6.14624e-10
2.62452e-09
2.34763e-09
-6.07092e-10
2.63584e-09
2.9208e-09
-5.96277e-10
2.53172e-09
3.49316e-09
-5.83324e-10
2.30979e-09
4.05024e-09
-5.72362e-10
1.97623e-09
4.57404e-09
-5.67172e-10
1.55003e-09
5.03676e-09
-5.65909e-10
1.05946e-09
5.40764e-09
-5.65252e-10
5.33089e-10
5.65806e-09
-5.61149e-10
5.76437e-09
-5.52077e-10
-6.86464e-10
6.94229e-09
-6.86464e-10
-1.35424e-09
6.94034e-09
-7.0015e-10
-1.95245e-09
6.63711e-09
-7.05216e-10
-2.45655e-09
6.21539e-09
-7.11159e-10
-2.8432e-09
5.67264e-09
-7.14998e-10
-3.09693e-09
5.02864e-09
-7.18031e-10
-3.21352e-09
4.31574e-09
-7.20316e-10
-3.19467e-09
3.57451e-09
-7.2385e-10
-3.04701e-09
2.85144e-09
-7.29755e-10
-2.78184e-09
2.18747e-09
-7.43474e-10
-2.39721e-09
1.60048e-09
-7.61715e-10
-1.90321e-09
1.11289e-09
-7.80318e-10
-1.31492e-09
7.28791e-10
-7.93586e-10
-6.57907e-10
4.55396e-10
-7.9769e-10
3.2057e-11
3.07158e-10
-7.94617e-10
7.17475e-10
2.96767e-10
-7.88095e-10
1.36237e-09
4.33788e-10
-7.79587e-10
1.93922e-09
7.17568e-10
-7.72425e-10
2.42804e-09
1.13527e-09
-7.65899e-10
2.81409e-09
1.66401e-09
-7.58148e-10
3.08509e-09
2.27562e-09
-7.47645e-10
3.2286e-09
2.94238e-09
-7.34299e-10
3.23228e-09
3.64039e-09
-7.18866e-10
3.08892e-09
4.3486e-09
-7.06985e-10
2.8018e-09
5.04287e-09
-6.99689e-10
2.38877e-09
5.68917e-09
-6.95581e-10
1.87589e-09
6.24787e-09
-6.91072e-10
1.29073e-09
6.68277e-09
-6.82402e-10
6.56755e-10
6.97212e-09
-6.72481e-10
7.09395e-09
-6.65897e-10
-8.50823e-10
8.65097e-09
-8.50823e-10
-1.63756e-09
8.59709e-09
-8.54371e-10
-2.3495e-09
8.21974e-09
-8.57283e-10
-2.95071e-09
7.69391e-09
-8.64356e-10
-3.41511e-09
7.0203e-09
-8.70528e-10
-3.72816e-09
6.23063e-09
-8.76726e-10
-3.8848e-09
5.36816e-09
-8.84227e-10
-3.88512e-09
4.48093e-09
-8.95573e-10
-3.72887e-09
3.61744e-09
-9.12823e-10
-3.41378e-09
2.81507e-09
-9.34209e-10
-2.94568e-09
2.09708e-09
-9.56744e-10
-2.33396e-09
1.48258e-09
-9.73717e-10
-1.60446e-09
9.87315e-10
-9.80636e-10
-7.97218e-10
6.356e-10
-9.80472e-10
4.31749e-11
4.48523e-10
-9.75129e-10
8.74028e-10
4.40798e-10
-9.68283e-10
1.65809e-09
6.17595e-10
-9.6099e-10
2.36479e-09
9.7111e-10
-9.53037e-10
2.96884e-09
1.48145e-09
-9.42916e-10
3.44754e-09
2.12159e-09
-9.28995e-10
3.78e-09
2.86305e-09
-9.1257e-10
3.94737e-09
3.67792e-09
-8.95326e-10
3.93759e-09
4.53949e-09
-8.81272e-10
3.75017e-09
5.41579e-09
-8.71256e-10
3.39838e-09
6.26726e-09
-8.63576e-10
2.9041e-09
7.04715e-09
-8.54134e-10
2.2921e-09
7.71014e-09
-8.40206e-10
1.58483e-09
8.22581e-09
-8.25666e-10
8.05183e-10
8.57954e-09
-8.18355e-10
8.72844e-09
-8.20901e-10
-1.02515e-09
1.07102e-08
-1.02515e-09
-1.97066e-09
1.05876e-08
-1.02612e-09
-2.8327e-09
1.01318e-08
-1.03343e-09
-3.56427e-09
9.48665e-09
-1.04476e-09
-4.13558e-09
8.6658e-09
-1.05778e-09
-4.52878e-09
7.71236e-09
-1.07263e-09
-4.73466e-09
6.67898e-09
-1.08985e-09
-4.74825e-09
5.61968e-09
-1.11126e-09
-4.56261e-09
4.58127e-09
-1.13671e-09
-4.17434e-09
3.60061e-09
-1.16188e-09
-3.59054e-09
2.70655e-09
-1.18188e-09
-2.83415e-09
1.93111e-09
-1.19396e-09
-1.94375e-09
1.30688e-09
-1.19945e-09
-9.66354e-10
8.6863e-10
-1.20024e-09
4.79601e-11
6.42741e-10
-1.19833e-09
1.05338e-09
6.41989e-10
-1.19607e-09
2.01034e-09
8.63081e-10
-1.19153e-09
2.87813e-09
1.29671e-09
-1.18239e-09
3.62199e-09
1.91608e-09
-1.16763e-09
4.20787e-09
2.69528e-09
-1.14882e-09
4.60686e-09
3.60363e-09
-1.12867e-09
4.79921e-09
4.60759e-09
-1.11084e-09
4.7787e-09
5.66769e-09
-1.09627e-09
4.55125e-09
6.73862e-09
-1.08368e-09
4.1338e-09
7.76445e-09
-1.06762e-09
3.54523e-09
8.69489e-09
-1.04659e-09
2.80491e-09
9.48978e-09
-1.0266e-09
1.93692e-09
1.01205e-08
-1.01424e-09
9.79214e-10
1.05622e-08
-1.0133e-09
1.07308e-08
-1.01274e-09
-1.22894e-09
1.31785e-08
-1.22894e-09
-2.38169e-09
1.29973e-08
-1.23456e-09
-3.43465e-09
1.24523e-08
-1.24763e-09
-4.33117e-09
1.16696e-08
-1.26647e-09
-5.03578e-09
1.06783e-08
-1.28796e-09
-5.52573e-09
9.53292e-09
-1.31146e-09
-5.78562e-09
8.29447e-09
-1.33747e-09
-5.80252e-09
7.01983e-09
-1.36636e-09
-5.56762e-09
5.75811e-09
-1.39584e-09
-5.08182e-09
4.55169e-09
-1.42157e-09
-4.36137e-09
3.44278e-09
-1.44181e-09
-3.43974e-09
2.48015e-09
-1.45625e-09
-2.36483e-09
1.71272e-09
-1.4667e-09
-1.18961e-09
1.18303e-09
-1.47562e-09
3.50684e-11
9.16494e-10
-1.48415e-09
1.25934e-09
9.21282e-10
-1.48901e-09
2.42973e-09
1.19337e-09
-1.48618e-09
3.49545e-09
1.71884e-09
-1.47369e-09
4.40554e-09
2.47485e-09
-1.45498e-09
5.11654e-09
3.43092e-09
-1.43268e-09
5.59618e-09
4.54827e-09
-1.41003e-09
5.82663e-09
5.78043e-09
-1.38884e-09
5.80508e-09
7.07037e-09
-1.36654e-09
5.53947e-09
8.3581e-09
-1.33896e-09
5.04264e-09
9.58485e-09
-1.30821e-09
4.32865e-09
1.07033e-08
-1.27891e-09
3.42163e-09
1.16696e-08
-1.25761e-09
2.36152e-09
1.24408e-08
-1.24538e-09
1.20064e-09
1.29756e-08
-1.23784e-09
1.31687e-08
-1.22441e-09
-1.48426e-09
1.61592e-08
-1.48426e-09
-2.89319e-09
1.59296e-08
-1.49706e-09
-4.17647e-09
1.52751e-08
-1.51577e-09
-5.27135e-09
1.4328e-08
-1.53999e-09
-6.13559e-09
1.31329e-08
-1.56724e-09
-6.73913e-09
1.17561e-08
-1.59771e-09
-7.05836e-09
1.02662e-08
-1.63162e-09
-7.0752e-09
8.72479e-09
-1.66815e-09
-6.78014e-09
7.18683e-09
-1.70431e-09
-6.18024e-09
5.70773e-09
-1.73675e-09
-5.30254e-09
4.34762e-09
-1.7637e-09
-4.19115e-09
3.17487e-09
-1.78767e-09
-2.89839e-09
2.24862e-09
-1.81045e-09
-1.47853e-09
1.61472e-09
-1.83328e-09
1.08437e-11
1.29638e-09
-1.8509e-09
1.50632e-09
1.30167e-09
-1.85777e-09
2.93939e-09
1.62981e-09
-1.85201e-09
4.24083e-09
2.27027e-09
-1.83588e-09
5.3484e-09
3.19759e-09
-1.81337e-09
6.21246e-09
4.37173e-09
-1.78763e-09
6.79849e-09
5.73827e-09
-1.75857e-09
7.08738e-09
7.23246e-09
-1.72336e-09
7.07345e-09
8.78452e-09
-1.68246e-09
6.75841e-09
1.03298e-08
-1.63855e-09
6.1511e-09
1.18066e-08
-1.59613e-09
5.2748e-09
1.31596e-08
-1.562e-09
4.17056e-09
1.43283e-08
-1.53689e-09
2.89108e-09
1.52523e-08
-1.51452e-09
1.49046e-09
1.58851e-08
-1.49128e-09
1.61408e-08
-1.46654e-09
-1.80696e-09
1.97877e-08
-1.80696e-09
-3.51665e-09
1.94929e-08
-1.82317e-09
-5.071e-09
1.87001e-08
-1.84356e-09
-6.40276e-09
1.75555e-08
-1.8694e-09
-7.46079e-09
1.61182e-08
-1.9017e-09
-8.20401e-09
1.44654e-08
-1.94167e-09
-8.59784e-09
1.26718e-08
-1.98781e-09
-8.61701e-09
1.08053e-08
-2.03756e-09
-8.25406e-09
8.9351e-09
-2.08752e-09
-7.52387e-09
7.13498e-09
-2.13389e-09
-6.46343e-09
5.48785e-09
-2.17749e-09
-5.12217e-09
4.07526e-09
-2.21887e-09
-3.55683e-09
2.96408e-09
-2.25818e-09
-1.8287e-09
2.19957e-09
-2.29042e-09
-9.10133e-12
1.80783e-09
-2.30882e-09
1.81763e-09
1.80756e-09
-2.31109e-09
3.56315e-09
2.20554e-09
-2.30038e-09
5.14438e-09
2.98974e-09
-2.28009e-09
6.49107e-09
4.12449e-09
-2.25281e-09
7.54792e-09
5.55366e-09
-2.21789e-09
8.27291e-09
7.20705e-09
-2.17301e-09
8.6392e-09
9.00679e-09
-2.11997e-09
8.63014e-09
1.08744e-08
-2.06003e-09
8.24322e-09
1.27378e-08
-2.0001e-09
7.49486e-09
1.45236e-08
-1.94798e-09
6.42556e-09
1.61548e-08
-1.90576e-09
5.0903e-09
1.7551e-08
-1.86744e-09
3.54169e-09
1.86492e-08
-1.8282e-09
1.82959e-09
1.94133e-08
-1.79619e-09
1.97638e-08
-1.77693e-09
-2.2009e-09
2.42064e-08
-2.2009e-09
-4.25894e-09
2.3798e-08
-2.21343e-09
-6.14001e-09
2.28425e-08
-2.2317e-09
-7.76291e-09
2.14687e-08
-2.26188e-09
-9.06265e-09
1.9752e-08
-2.30619e-09
-9.98192e-09
1.77738e-08
-2.36173e-09
-1.047e-08
1.56171e-08
-2.4297e-09
-1.04949e-08
1.33628e-08
-2.5047e-09
-1.00531e-08
1.10989e-08
-2.57748e-09
-9.1684e-09
8.92411e-09
-2.64616e-09
-7.88399e-09
6.94164e-09
-2.71087e-09
-6.25435e-09
5.2432e-09
-2.77043e-09
-4.34434e-09
3.90127e-09
-2.82004e-09
-2.2315e-09
2.96709e-09
-2.8533e-09
-1.08215e-11
2.48188e-09
-2.86814e-09
2.2104e-09
2.47857e-09
-2.86625e-09
4.32628e-09
2.96609e-09
-2.85081e-09
6.24339e-09
3.92364e-09
-2.82544e-09
7.88273e-09
5.30083e-09
-2.79029e-09
9.17791e-09
7.02384e-09
-2.74056e-09
1.00734e-08
9.01248e-09
-2.67685e-09
1.05277e-08
1.11774e-08
-2.60123e-09
1.05148e-08
1.34331e-08
-2.52233e-09
1.00354e-08
1.56892e-08
-2.44896e-09
9.12103e-09
1.78464e-08
-2.3859e-09
7.82578e-09
1.97996e-08
-2.32716e-09
6.20537e-09
2.14621e-08
-2.26832e-09
4.30872e-09
2.27845e-08
-2.2165e-09
2.20592e-09
2.37311e-08
-2.19339e-09
2.41775e-08
-2.19019e-09
-2.66215e-09
2.95492e-08
-2.66215e-09
-5.14516e-09
2.89873e-08
-2.67042e-09
-7.43157e-09
2.7853e-08
-2.6927e-09
-9.41757e-09
2.6223e-08
-2.7378e-09
-1.1017e-08
2.41839e-08
-2.80195e-09
-1.21473e-08
2.18245e-08
-2.88942e-09
-1.27442e-08
1.92358e-08
-2.99022e-09
-1.27743e-08
1.65168e-08
-3.09201e-09
-1.22377e-08
1.37848e-08
-3.19076e-09
-1.11635e-08
1.11658e-08
-3.28431e-09
-9.59995e-09
8.78117e-09
-3.37149e-09
-7.60993e-09
6.73249e-09
-3.44725e-09
-5.2743e-09
5.10279e-09
-3.50467e-09
-2.6958e-09
3.96236e-09
-3.54127e-09
2.4486e-12
3.37286e-09
-3.55703e-09
2.69218e-09
3.37452e-09
-3.55378e-09
5.25296e-09
3.97351e-09
-3.53644e-09
7.57957e-09
5.13352e-09
-3.50514e-09
9.57729e-09
6.78823e-09
-3.45475e-09
1.116e-08
8.85395e-09
-3.38382e-09
1.2254e-08
1.12413e-08
-3.29503e-09
1.28018e-08
1.38539e-08
-3.19733e-09
1.27768e-08
1.65855e-08
-3.10106e-09
1.21913e-08
1.93121e-08
-3.0118e-09
1.10881e-08
2.18993e-08
-2.9245e-09
9.51969e-09
2.42302e-08
-2.83733e-09
7.53223e-09
2.62319e-08
-2.75787e-09
5.19729e-09
2.7852e-08
-2.70874e-09
2.63598e-09
2.90122e-08
-2.69672e-09
2.95085e-08
-2.67616e-09
-3.20335e-09
3.59755e-08
-3.20335e-09
-6.22077e-09
3.52598e-08
-3.21723e-09
-9.0136e-09
3.39325e-08
-3.25304e-09
-1.14447e-08
3.20105e-08
-3.32305e-09
-1.33975e-08
2.9596e-08
-3.42551e-09
-1.47703e-08
2.67802e-08
-3.54835e-09
-1.54895e-08
2.36687e-08
-3.67862e-09
-1.55199e-08
2.03917e-08
-3.80914e-09
-1.48663e-08
1.71031e-08
-3.93627e-09
-1.35614e-08
1.39556e-08
-4.05862e-09
-1.16573e-08
1.10866e-08
-4.17233e-09
-9.22977e-09
8.61297e-09
-4.26954e-09
-6.38315e-09
6.63907e-09
-4.34373e-09
-3.25182e-09
5.26179e-09
-4.39149e-09
1.46423e-11
4.56054e-09
-4.41497e-09
3.2699e-09
4.5749e-09
-4.41655e-09
6.37527e-09
5.30347e-09
-4.39658e-09
9.20407e-09
6.69307e-09
-4.3506e-09
1.16352e-08
8.66861e-09
-4.27541e-09
1.35575e-08
1.11414e-08
-4.17542e-09
1.4876e-08
1.40141e-08
-4.0584e-09
1.55279e-08
1.71695e-08
-3.93594e-09
1.54943e-08
2.04641e-08
-3.81492e-09
1.47945e-08
2.37322e-08
-3.69114e-09
1.34656e-08
2.68214e-08
-3.56489e-09
1.15456e-08
2.96229e-08
-3.44532e-09
9.10073e-09
3.20584e-08
-3.35544e-09
6.26059e-09
3.4024e-08
-3.30678e-09
3.18222e-09
3.53817e-08
-3.26679e-09
3.59234e-08
-3.21266e-09
-3.85423e-09
4.37047e-08
-3.85423e-09
-7.54433e-09
4.28735e-08
-3.88273e-09
-1.09483e-08
4.13194e-08
-3.94619e-09
-1.39025e-08
3.90579e-08
-4.0561e-09
-1.62642e-08
3.61888e-08
-4.19354e-09
-1.7914e-08
3.28164e-08
-4.34786e-09
-1.87728e-08
2.90761e-08
-4.50941e-09
-1.88068e-08
2.51391e-08
-4.67371e-09
-1.80196e-08
2.11963e-08
-4.83943e-09
-1.64408e-08
1.74229e-08
-5.00319e-09
-1.41288e-08
1.39746e-08
-5.15492e-09
-1.11794e-08
1.09943e-08
-5.28405e-09
-7.72736e-09
8.61764e-09
-5.38318e-09
-3.93764e-09
6.97001e-09
-5.45026e-09
1.50263e-11
6.14256e-09
-5.48687e-09
3.96102e-09
6.16971e-09
-5.49299e-09
7.73454e-09
7.03856e-09
-5.46143e-09
1.11739e-08
8.69013e-09
-5.39065e-09
1.41233e-08
1.1046e-08
-5.28307e-09
1.64424e-08
1.40121e-08
-5.14802e-09
1.80229e-08
1.74694e-08
-4.99615e-09
1.88053e-08
2.12628e-08
-4.83821e-09
1.87729e-08
2.52033e-08
-4.67127e-09
1.79357e-08
2.91e-08
-4.49714e-09
1.63133e-08
3.28014e-08
-4.32596e-09
1.39551e-08
3.61915e-08
-4.18079e-09
1.09856e-08
3.91368e-08
-4.08093e-09
7.57055e-09
4.14612e-08
-3.99569e-09
3.87815e-09
4.30182e-08
-3.9184e-09
4.36679e-08
-3.84496e-09
-4.64907e-09
5.30256e-08
-4.64907e-09
-9.14897e-09
5.21241e-08
-4.70597e-09
-1.32752e-08
5.02925e-08
-4.80628e-09
-1.68397e-08
4.76105e-08
-4.94703e-09
-1.96755e-08
4.4184e-08
-5.11733e-09
-2.16532e-08
4.01439e-08
-5.30654e-09
-2.26886e-08
3.56663e-08
-5.51015e-09
-2.27409e-08
3.09641e-08
-5.72623e-09
-2.18018e-08
2.62564e-08
-5.94974e-09
-1.98977e-08
2.17416e-08
-6.1704e-09
-1.70997e-08
1.76035e-08
-6.37175e-09
-1.353e-08
1.4023e-08
-6.54141e-09
-9.35784e-09
1.11768e-08
-6.67339e-09
-4.77763e-09
9.21469e-09
-6.76623e-09
8.90721e-12
8.23236e-09
-6.81706e-09
4.79647e-09
8.2622e-09
-6.82074e-09
9.37957e-09
9.28522e-09
-6.7714e-09
1.35501e-08
1.1246e-08
-6.66988e-09
1.71123e-08
1.40632e-08
-6.52505e-09
1.99008e-08
1.76226e-08
-6.34741e-09
2.18003e-08
2.17696e-08
-6.15111e-09
2.27473e-08
2.62994e-08
-5.93826e-09
2.27138e-08
3.09872e-08
-5.7084e-09
2.16883e-08
3.56389e-08
-5.4746e-09
1.96932e-08
4.0095e-08
-5.26307e-09
1.68295e-08
4.41831e-08
-5.09538e-09
1.32639e-08
4.76829e-08
-4.95052e-09
9.17256e-09
5.03914e-08
-4.81056e-09
4.70269e-09
5.22208e-08
-4.70533e-09
5.30407e-08
-4.64754e-09
-5.62424e-09
6.42992e-08
-5.62424e-09
-1.10648e-08
6.33247e-08
-5.71103e-09
-1.60337e-08
6.11411e-08
-5.83534e-09
-2.03126e-08
5.79431e-08
-6.00819e-09
-2.37155e-08
5.38516e-08
-6.21713e-09
-2.60982e-08
4.90345e-08
-6.45807e-09
-2.73618e-08
4.37104e-08
-6.72762e-09
-2.74467e-08
3.81244e-08