/*--------------------------------*- C++ -*----------------------------------*\
| =========                 |                                                 |
| \\      /  F ield         | OpenFOAM: The Open Source CFD Toolbox           |
|  \\    /   O peration     | Version:  2312                                  |
|   \\  /    A nd           | Website:  www.openfoam.com                      |
|    \\/     M anipulation  |                                                 |
\*---------------------------------------------------------------------------*/
FoamFile
{
    version     2.0;
    format      ascii;
    arch        "LSB;label=32;scalar=64";
    class       volVectorField;
    location    "0.198545";
    object      U;
}
// * * * * * * * * * * * * * * * * * * * * * * * * * * * * * * * * * * * * * //

dimensions      [0 1 -1 0 0 0 0];

internalField   nonuniform List<vector> 
90000
(
(-1.07343e-07 4.53172e-07 -1.07343e-07)
(-7.83729e-07 6.91024e-07 -2.14948e-07)
(-1.68532e-06 5.78294e-07 -2.32706e-07)
(-2.28216e-06 5.28025e-07 -2.6405e-07)
(-2.75154e-06 4.71206e-07 -2.83387e-07)
(-3.07043e-06 3.94805e-07 -3.00233e-07)
(-3.2192e-06 3.10573e-07 -3.08467e-07)
(-3.20399e-06 2.32559e-07 -3.09477e-07)
(-3.05095e-06 1.74555e-07 -3.03881e-07)
(-2.79115e-06 1.3522e-07 -2.9442e-07)
(-2.46365e-06 1.00874e-07 -2.9618e-07)
(-2.0928e-06 7.72161e-08 -3.08868e-07)
(-1.66538e-06 5.15512e-08 -3.27768e-07)
(-1.16017e-06 2.0446e-08 -3.47483e-07)
(-5.6417e-07 -1.70688e-08 -3.60879e-07)
(1.10373e-07 -5.52644e-08 -3.63039e-07)
(8.21409e-07 -7.75084e-08 -3.39885e-07)
(1.50044e-06 -6.51238e-08 -3.03508e-07)
(2.07119e-06 -1.72543e-08 -2.6715e-07)
(2.48051e-06 6.23729e-08 -2.38294e-07)
(2.69032e-06 1.62677e-07 -2.25501e-07)
(2.69711e-06 2.62921e-07 -2.30312e-07)
(2.53735e-06 3.52666e-07 -2.47219e-07)
(2.25969e-06 4.1714e-07 -2.69361e-07)
(1.93404e-06 4.46383e-07 -2.98268e-07)
(1.6249e-06 4.52241e-07 -3.27466e-07)
(1.3651e-06 4.82562e-07 -3.70162e-07)
(1.16046e-06 6.33429e-07 -5.22077e-07)
(1.01806e-06 8.70073e-07 -7.54456e-07)
(4.90002e-07 1.52704e-06 -1.19819e-06)
(-3.2989e-07 1.43236e-06 -3.2989e-07)
(-9.89971e-07 1.78018e-06 -3.22058e-07)
(-1.59074e-06 1.55688e-06 -3.24433e-07)
(-2.09911e-06 1.40868e-06 -3.16823e-07)
(-2.51744e-06 1.22028e-06 -3.03894e-07)
(-2.81232e-06 9.84414e-07 -2.87898e-07)
(-2.97629e-06 7.28298e-07 -2.72371e-07)
(-3.00636e-06 4.88166e-07 -2.64672e-07)
(-2.91702e-06 2.92822e-07 -2.66392e-07)
(-2.72517e-06 1.59731e-07 -2.69781e-07)
(-2.42418e-06 5.8997e-08 -2.62661e-07)
(-2.02521e-06 -1.96516e-08 -2.6016e-07)
(-1.54691e-06 -9.68235e-08 -2.53086e-07)
(-1.00208e-06 -1.84741e-07 -2.44582e-07)
(-4.17007e-07 -2.78121e-07 -2.36e-07)
(1.89331e-07 -3.57758e-07 -2.28408e-07)
(7.87283e-07 -3.86125e-07 -2.34555e-07)
(1.34046e-06 -3.33609e-07 -2.50221e-07)
(1.81852e-06 -2.00008e-07 -2.71232e-07)
(2.20162e-06 1.74109e-08 -2.88269e-07)
(2.47466e-06 2.79953e-07 -3.06009e-07)
(2.63561e-06 5.443e-07 -3.0545e-07)
(2.69491e-06 7.80628e-07 -2.91089e-07)
(2.66258e-06 9.48432e-07 -2.74359e-07)
(2.54901e-06 1.01989e-06 -2.41564e-07)
(2.37826e-06 1.00244e-06 -2.08403e-07)
(2.21387e-06 9.15705e-07 -2.05673e-07)
(1.93656e-06 7.28784e-07 -3.37676e-07)
(1.50423e-06 4.12326e-07 -5.26727e-07)
(6.51228e-07 1.76508e-06 -8.67401e-07)
(-3.26598e-07 2.61756e-06 -3.26598e-07)
(-9.35352e-07 2.67399e-06 -3.26603e-07)
(-1.4705e-06 2.45326e-06 -3.12263e-07)
(-1.95072e-06 2.21641e-06 -3.01794e-07)
(-2.36865e-06 1.90332e-06 -2.91913e-07)
(-2.69789e-06 1.52994e-06 -2.86613e-07)
(-2.91994e-06 1.13037e-06 -2.87416e-07)
(-3.01784e-06 7.42283e-07 -2.86463e-07)
(-2.97302e-06 3.97478e-07 -2.7975e-07)
(-2.79943e-06 1.18443e-07 -2.86995e-07)
(-2.49854e-06 -7.89289e-08 -2.87462e-07)
(-2.06705e-06 -2.54155e-07 -2.79143e-07)
(-1.54612e-06 -4.04601e-07 -2.70942e-07)
(-9.75516e-07 -5.40153e-07 -2.64269e-07)
(-3.94384e-07 -6.44512e-07 -2.64128e-07)
(1.64949e-07 -6.97063e-07 -2.73482e-07)
(6.90628e-07 -6.69877e-07 -2.9141e-07)
(1.18158e-06 -5.453e-07 -3.15973e-07)
(1.64372e-06 -3.16276e-07 -3.43732e-07)
(2.07163e-06 -6.17527e-09 -3.72379e-07)
(2.47215e-06 3.66689e-07 -3.75969e-07)
(2.8282e-06 7.38644e-07 -3.79103e-07)
(3.08479e-06 1.07266e-06 -3.67662e-07)
(3.20351e-06 1.32763e-06 -3.39589e-07)
(3.13995e-06 1.49148e-06 -3.06916e-07)
(2.83674e-06 1.57905e-06 -2.65599e-07)
(2.23654e-06 1.60188e-06 -1.92887e-07)
(1.3124e-06 1.46773e-06 -2.54249e-08)
(8.36782e-07 9.33695e-07 2.99175e-08)
(4.57999e-07 2.10934e-06 -1.8431e-07)
(-3.23461e-07 3.87814e-06 -3.23461e-07)
(-9.28483e-07 3.60746e-06 -3.11508e-07)
(-1.47922e-06 3.39862e-06 -2.98454e-07)
(-1.99051e-06 3.09202e-06 -2.92393e-07)
(-2.45102e-06 2.69856e-06 -2.90872e-07)
(-2.83601e-06 2.23055e-06 -2.93214e-07)
(-3.12028e-06 1.72824e-06 -3.01679e-07)
(-3.28214e-06 1.22452e-06 -3.14771e-07)
(-3.29741e-06 7.45726e-07 -3.2962e-07)
(-3.1317e-06 3.11051e-07 -3.36001e-07)
(-2.81363e-06 -5.53563e-08 -3.50895e-07)
(-2.36209e-06 -3.4879e-07 -3.4886e-07)
(-1.79118e-06 -5.87466e-07 -3.51205e-07)
(-1.16036e-06 -7.50462e-07 -3.52238e-07)
(-5.13733e-07 -8.36228e-07 -3.62358e-07)
(1.10046e-07 -8.2791e-07 -3.78118e-07)
(7.02812e-07 -7.22873e-07 -3.94075e-07)
(1.26871e-06 -5.17916e-07 -4.07907e-07)
(1.80719e-06 -2.08671e-07 -4.22412e-07)
(2.33106e-06 1.67578e-07 -4.28498e-07)
(2.82261e-06 6.1332e-07 -4.33629e-07)
(3.23377e-06 1.06881e-06 -4.28693e-07)
(3.52286e-06 1.50627e-06 -4.17096e-07)
(3.63369e-06 1.90233e-06 -4.04572e-07)
(3.51622e-06 2.25819e-06 -3.97294e-07)
(3.14717e-06 2.59701e-06 -4.10273e-07)
(2.60432e-06 2.95727e-06 -4.45915e-07)
(1.71978e-06 3.38172e-06 -4.74741e-07)
(7.77667e-07 3.54245e-06 -4.39748e-07)
(2.13522e-07 4.18745e-06 -4.58065e-07)
(-3.29471e-07 5.11124e-06 -3.29471e-07)
(-9.86806e-07 4.58831e-06 -3.23837e-07)
(-1.63096e-06 4.39184e-06 -3.15403e-07)
(-2.22616e-06 4.02747e-06 -3.13979e-07)
(-2.76151e-06 3.57012e-06 -3.17284e-07)
(-3.21377e-06 3.02502e-06 -3.29501e-07)
(-3.56111e-06 2.43465e-06 -3.5034e-07)
(-3.78038e-06 1.82169e-06 -3.76257e-07)
(-3.83466e-06 1.21306e-06 -3.99299e-07)
(-3.69861e-06 6.37899e-07 -4.18884e-07)
(-3.36144e-06 1.06805e-07 -4.30978e-07)
(-2.85478e-06 -3.26655e-07 -4.49791e-07)
(-2.21284e-06 -6.57928e-07 -4.5908e-07)
(-1.47186e-06 -8.63219e-07 -4.73512e-07)
(-6.87761e-07 -9.39634e-07 -4.80209e-07)
(1.06471e-07 -8.91363e-07 -4.82758e-07)
(8.79848e-07 -7.29991e-07 -4.82794e-07)
(1.61317e-06 -4.6106e-07 -4.80642e-07)
(2.29504e-06 -9.84036e-08 -4.69536e-07)
(2.90632e-06 3.42044e-07 -4.59205e-07)
(3.41929e-06 8.58579e-07 -4.48459e-07)
(3.80131e-06 1.42708e-06 -4.40745e-07)
(4.00716e-06 2.03024e-06 -4.37544e-07)
(3.99901e-06 2.64595e-06 -4.44876e-07)
(3.75368e-06 3.25966e-06 -4.61472e-07)
(3.27144e-06 3.85905e-06 -4.83068e-07)
(2.63021e-06 4.40934e-06 -5.20767e-07)
(1.82752e-06 4.93398e-06 -5.40232e-07)
(9.52362e-07 5.22962e-06 -5.4222e-07)
(2.69576e-07 5.3869e-06 -5.18431e-07)
(-3.85633e-07 6.42253e-06 -3.85633e-07)
(-1.17085e-06 5.78372e-06 -3.78298e-07)
(-1.95456e-06 5.57087e-06 -3.7669e-07)
(-2.667e-06 5.15211e-06 -3.86786e-07)
(-3.296e-06 4.63125e-06 -4.0106e-07)
(-3.82048e-06 4.0147e-06 -4.2289e-07)
(-4.21752e-06 3.33321e-06 -4.44557e-07)
(-4.45993e-06 2.60419e-06 -4.70889e-07)
(-4.51831e-06 1.85852e-06 -4.92494e-07)
(-4.37385e-06 1.12336e-06 -5.12058e-07)
(-4.01896e-06 4.42196e-07 -5.29505e-07)
(-3.45478e-06 -1.53717e-07 -5.4583e-07)
(-2.70712e-06 -6.0825e-07 -5.61341e-07)
(-1.81461e-06 -9.04221e-07 -5.67535e-07)
(-8.23546e-07 -1.02431e-06 -5.6957e-07)
(2.0539e-07 -9.75577e-07 -5.58339e-07)
(1.22194e-06 -7.84063e-07 -5.40435e-07)
(2.16503e-06 -4.6798e-07 -5.15423e-07)
(2.98212e-06 -4.39184e-08 -4.92882e-07)
(3.66113e-06 4.93164e-07 -4.68924e-07)
(4.17551e-06 1.13624e-06 -4.53426e-07)
(4.48822e-06 1.87565e-06 -4.42701e-07)
(4.57708e-06 2.70445e-06 -4.46115e-07)
(4.43295e-06 3.58834e-06 -4.67133e-07)
(4.06432e-06 4.49083e-06 -4.98688e-07)
(3.49795e-06 5.35376e-06 -5.26773e-07)
(2.79162e-06 6.08981e-06 -5.44269e-07)
(2.02016e-06 6.71261e-06 -5.48939e-07)
(1.20017e-06 7.03573e-06 -5.39319e-07)
(3.88841e-07 6.97047e-06 -5.07427e-07)
(-4.95939e-07 8.03403e-06 -4.95939e-07)
(-1.48376e-06 7.35335e-06 -4.99354e-07)
(-2.44317e-06 7.09695e-06 -5.10613e-07)
(-3.30018e-06 6.61364e-06 -5.27905e-07)
(-4.03332e-06 6.01006e-06 -5.46652e-07)
(-4.61744e-06 5.29602e-06 -5.65944e-07)
(-5.03411e-06 4.48854e-06 -5.81709e-07)
(-5.26724e-06 3.60756e-06 -5.8926e-07)
(-5.30296e-06 2.69234e-06 -5.99995e-07)
(-5.12081e-06 1.77101e-06 -6.09141e-07)
(-4.70142e-06 8.86288e-07 -6.19311e-07)
(-4.04212e-06 1.02365e-07 -6.27241e-07)
(-3.16415e-06 -5.28688e-07 -6.37117e-07)
(-2.09813e-06 -9.60934e-07 -6.40024e-07)
(-8.83823e-07 -1.17681e-06 -6.27083e-07)
(3.88516e-07 -1.16351e-06 -6.03437e-07)
(1.62454e-06 -9.46815e-07 -5.7997e-07)
(2.74787e-06 -5.72428e-07 -5.50883e-07)
(3.70778e-06 -4.13799e-08 -5.22179e-07)
(4.46978e-06 6.49685e-07 -5.03433e-07)
(5.00012e-06 1.48341e-06 -4.87954e-07)
(5.28449e-06 2.45448e-06 -4.87359e-07)
(5.31054e-06 3.55152e-06 -4.96274e-07)
(5.08268e-06 4.71901e-06 -5.10058e-07)
(4.6285e-06 5.88741e-06 -5.26275e-07)
(3.99195e-06 6.96421e-06 -5.3991e-07)
(3.22118e-06 7.84023e-06 -5.45554e-07)
(2.37592e-06 8.50157e-06 -5.43298e-07)
(1.47991e-06 8.86447e-06 -5.37331e-07)
(5.12296e-07 8.81119e-06 -5.15867e-07)
(-6.69139e-07 1.02231e-05 -6.69139e-07)
(-1.92826e-06 9.44432e-06 -6.78905e-07)
(-3.08005e-06 9.13042e-06 -6.91117e-07)
(-4.09711e-06 8.54495e-06 -7.06884e-07)
(-4.94286e-06 7.80858e-06 -7.18752e-07)
(-5.59192e-06 6.93593e-06 -7.25396e-07)
(-6.02954e-06 5.94415e-06 -7.23907e-07)
(-6.23695e-06 4.85663e-06 -7.22142e-07)
(-6.20928e-06 3.70934e-06 -7.14016e-07)
(-5.94456e-06 2.54486e-06 -7.13341e-07)
(-5.41456e-06 1.4164e-06 -7.12134e-07)
(-4.6077e-06 3.86939e-07 -7.12687e-07)
(-3.54838e-06 -4.74691e-07 -7.12573e-07)
(-2.28633e-06 -1.09175e-06 -7.10029e-07)
(-8.77532e-07 -1.42137e-06 -6.95875e-07)
(5.83514e-07 -1.45737e-06 -6.77726e-07)
(1.9796e-06 -1.20914e-06 -6.56888e-07)
(3.25372e-06 -7.18197e-07 -6.36564e-07)
(4.36917e-06 -7.38962e-09 -6.28024e-07)
(5.2599e-06 8.90788e-07 -6.30717e-07)
(5.88971e-06 1.97544e-06 -6.27706e-07)
(6.24343e-06 3.22972e-06 -6.27958e-07)
(6.30167e-06 4.62055e-06 -6.25532e-07)
(6.06829e-06 6.06952e-06 -6.19597e-07)
(5.56919e-06 7.47921e-06 -6.11878e-07)
(4.84864e-06 8.74526e-06 -6.03708e-07)
(3.95058e-06 9.76451e-06 -5.99584e-07)
(2.92762e-06 1.04983e-05 -5.99709e-07)
(1.82266e-06 1.09198e-05 -6.0629e-07)
(6.32202e-07 1.09888e-05 -6.08592e-07)
(-8.71768e-07 1.31929e-05 -8.71768e-07)
(-2.4579e-06 1.21591e-05 -8.84516e-07)
(-3.84932e-06 1.17698e-05 -8.89779e-07)
(-5.07093e-06 1.10229e-05 -8.95853e-07)
(-6.0742e-06 1.00831e-05 -8.94959e-07)
(-6.82533e-06 8.97159e-06 -8.88961e-07)
(-7.30382e-06 7.71678e-06 -8.7868e-07)
(-7.49957e-06 6.35225e-06 -8.62399e-07)
(-7.40125e-06 4.91322e-06 -8.58362e-07)
(-6.9924e-06 3.447e-06 -8.49542e-07)
(-6.27458e-06 2.02122e-06 -8.45802e-07)
(-5.26038e-06 7.06035e-07 -8.40911e-07)
(-3.97388e-06 -4.11301e-07 -8.30988e-07)
(-2.48673e-06 -1.2308e-06 -8.18258e-07)
(-8.94387e-07 -1.6652e-06 -8.11664e-07)
(7.16635e-07 -1.71757e-06 -8.06411e-07)
(2.27819e-06 -1.40035e-06 -8.13009e-07)
(3.74392e-06 -7.36658e-07 -8.3337e-07)
(5.05243e-06 1.91941e-07 -8.52078e-07)
(6.13371e-06 1.33703e-06 -8.63954e-07)
(6.95126e-06 2.71851e-06 -8.6364e-07)
(7.46489e-06 4.28554e-06 -8.52967e-07)
(7.6307e-06 5.98755e-06 -8.32052e-07)
(7.43737e-06 7.73194e-06 -8.06096e-07)
(6.89984e-06 9.40319e-06 -7.80705e-07)
(6.05903e-06 1.089e-05 -7.64283e-07)
(4.97212e-06 1.20947e-05 -7.60091e-07)
(3.70176e-06 1.29593e-05 -7.62641e-07)
(2.30301e-06 1.34737e-05 -7.6904e-07)
(7.96898e-07 1.36887e-05 -7.61878e-07)
(-1.07489e-06 1.69899e-05 -1.07489e-06)
(-3.02421e-06 1.55718e-05 -1.07711e-06)
(-4.74191e-06 1.50827e-05 -1.07382e-06)
(-6.26489e-06 1.41078e-05 -1.07165e-06)
(-7.51837e-06 1.28886e-05 -1.06186e-06)
(-8.45873e-06 1.14586e-05 -1.05295e-06)
(-9.04857e-06 9.86156e-06 -1.04847e-06)
(-9.25487e-06 8.13791e-06 -1.052e-06)
(-9.0593e-06 6.34144e-06 -1.05353e-06)
(-8.45943e-06 4.52444e-06 -1.06442e-06)
(-7.47499e-06 2.75292e-06 -1.06598e-06)
(-6.15928e-06 1.13142e-06 -1.05995e-06)
(-4.58453e-06 -2.2813e-07 -1.05189e-06)
(-2.82775e-06 -1.21e-06 -1.0463e-06)
(-9.98448e-07 -1.72382e-06 -1.05535e-06)
(8.2524e-07 -1.73989e-06 -1.07485e-06)
(2.63587e-06 -1.29073e-06 -1.09984e-06)
(4.37092e-06 -4.56645e-07 -1.13205e-06)
(5.93773e-06 6.7599e-07 -1.15301e-06)
(7.30537e-06 2.10229e-06 -1.14826e-06)
(8.39166e-06 3.78829e-06 -1.13739e-06)
(9.08956e-06 5.69647e-06 -1.10996e-06)
(9.35655e-06 7.75246e-06 -1.07638e-06)
(9.17654e-06 9.8457e-06 -1.04419e-06)
(8.57341e-06 1.18497e-05 -1.01986e-06)
(7.59067e-06 1.36203e-05 -1.00584e-06)
(6.28931e-06 1.50587e-05 -9.93488e-07)
(4.73695e-06 1.61014e-05 -9.79865e-07)
(2.98593e-06 1.67451e-05 -9.63741e-07)
(1.04428e-06 1.71305e-05 -9.30602e-07)
(-1.25975e-06 2.15613e-05 -1.25975e-06)
(-3.63239e-06 1.97686e-05 -1.26133e-06)
(-5.82133e-06 1.91493e-05 -1.25083e-06)
(-7.77864e-06 1.78969e-05 -1.24862e-06)
(-9.41044e-06 1.63345e-05 -1.24242e-06)
(-1.06436e-05 1.45155e-05 -1.24925e-06)
(-1.14077e-05 1.24982e-05 -1.27049e-06)
(-1.16447e-05 1.0335e-05 -1.30394e-06)
(-1.13233e-05 8.09222e-06 -1.33858e-06)
(-1.04641e-05 5.84847e-06 -1.35598e-06)
(-9.13136e-06 3.69354e-06 -1.36833e-06)
(-7.42368e-06 1.76173e-06 -1.36962e-06)
(-5.46578e-06 1.92827e-07 -1.3674e-06)
(-3.36523e-06 -8.92022e-07 -1.37426e-06)
(-1.18624e-06 -1.4232e-06 -1.38923e-06)
(1.03021e-06 -1.38346e-06 -1.4175e-06)
(3.22632e-06 -8.3148e-07 -1.45525e-06)
(5.32824e-06 1.32818e-07 -1.46692e-06)
(7.29036e-06 1.47959e-06 -1.45779e-06)
(9.00782e-06 3.18984e-06 -1.44257e-06)
(1.03312e-05 5.21748e-06 -1.41326e-06)
(1.11745e-05 7.52844e-06 -1.37989e-06)
(1.14946e-05 1.00176e-05 -1.34981e-06)
(1.12955e-05 1.25465e-05 -1.32533e-06)
(1.05981e-05 1.49489e-05 -1.30421e-06)
(9.4553e-06 1.7066e-05 -1.27972e-06)
(7.92932e-06 1.87871e-05 -1.24798e-06)
(6.04652e-06 2.0069e-05 -1.21105e-06)
(3.83808e-06 2.09101e-05 -1.17835e-06)
(1.34222e-06 2.15222e-05 -1.14408e-06)
(-1.45387e-06 2.6896e-05 -1.45387e-06)
(-4.36109e-06 2.49587e-05 -1.45129e-06)
(-7.19726e-06 2.41349e-05 -1.43898e-06)
(-9.72944e-06 2.25691e-05 -1.45664e-06)
(-1.18532e-05 2.0602e-05 -1.48024e-06)
(-1.3448e-05 1.83172e-05 -1.52403e-06)
(-1.44103e-05 1.57898e-05 -1.57711e-06)
(-1.46614e-05 1.30734e-05 -1.6349e-06)
(-1.41766e-05 1.0269e-05 -1.68188e-06)
(-1.30065e-05 7.49823e-06 -1.70832e-06)
(-1.12678e-05 4.89931e-06 -1.71691e-06)
(-9.11069e-06 2.64264e-06 -1.71819e-06)
(-6.67975e-06 8.78641e-07 -1.72565e-06)
(-4.08708e-06 -2.92113e-07 -1.74921e-06)
(-1.39566e-06 -8.25838e-07 -1.77668e-06)
(1.35508e-06 -7.5826e-07 -1.79762e-06)
(4.1047e-06 -1.47075e-07 -1.79915e-06)
(6.77416e-06 9.52771e-07 -1.79245e-06)
(9.22036e-06 2.53781e-06 -1.77102e-06)
(1.12767e-05 4.57455e-06 -1.74062e-06)
(1.28239e-05 7.04209e-06 -1.70766e-06)
(1.37828e-05 9.85967e-06 -1.68128e-06)
(1.41288e-05 1.28814e-05 -1.66389e-06)
(1.38747e-05 1.59248e-05 -1.64705e-06)
(1.30631e-05 1.8788e-05 -1.62143e-06)
(1.17345e-05 2.13166e-05 -1.5789e-06)
(9.89716e-06 2.34055e-05 -1.52964e-06)
(7.5547e-06 2.50312e-05 -1.47579e-06)
(4.74833e-06 2.61807e-05 -1.44998e-06)
(1.63489e-06 2.70539e-05 -1.45559e-06)
(-1.70255e-06 3.3123e-05 -1.70255e-06)
(-5.29966e-06 3.14614e-05 -1.73296e-06)
(-8.94594e-06 3.03274e-05 -1.75618e-06)
(-1.21488e-05 2.84032e-05 -1.7936e-06)
(-1.48213e-05 2.59583e-05 -1.84308e-06)
(-1.68008e-05 2.30966e-05 -1.90428e-06)
(-1.79524e-05 1.9906e-05 -1.97191e-06)
(-1.8195e-05 1.64702e-05 -2.03085e-06)
(-1.75286e-05 1.29442e-05 -2.06674e-06)
(-1.60423e-05 9.51962e-06 -2.08318e-06)
(-1.38938e-05 6.40025e-06 -2.08941e-06)
(-1.12635e-05 3.78209e-06 -2.09787e-06)
(-8.29406e-06 1.79654e-06 -2.11926e-06)
(-5.07191e-06 5.04378e-07 -2.14665e-06)
(-1.66929e-06 -9.82645e-08 -2.17508e-06)
(1.83867e-06 -4.56384e-08 -2.18647e-06)
(5.34344e-06 6.29948e-07 -2.18089e-06)
(8.67847e-06 1.91247e-06 -2.1555e-06)
(1.16539e-05 3.80672e-06 -2.12244e-06)
(1.40962e-05 6.31076e-06 -2.08953e-06)
(1.58878e-05 9.35227e-06 -2.06638e-06)
(1.6978e-05 1.28017e-05 -2.0564e-06)
(1.73647e-05 1.64546e-05 -2.04505e-06)
(1.70667e-05 2.00825e-05 -2.02029e-06)
(1.61041e-05 2.34982e-05 -1.9814e-06)
(1.44685e-05 2.65456e-05 -1.92677e-06)
(1.21419e-05 2.91423e-05 -1.8696e-06)
(9.16122e-06 3.12518e-05 -1.84216e-06)
(5.65039e-06 3.2808e-05 -1.85145e-06)
(1.90981e-06 3.38769e-05 -1.8686e-06)
(-2.1024e-06 4.06495e-05 -2.1024e-06)
(-6.56965e-06 3.96404e-05 -2.18197e-06)
(-1.10951e-05 3.80882e-05 -2.22509e-06)
(-1.50192e-05 3.5712e-05 -2.27473e-06)
(-1.82437e-05 3.26706e-05 -2.33278e-06)
(-2.05944e-05 2.90635e-05 -2.39087e-06)
(-2.19244e-05 2.49966e-05 -2.44067e-06)
(-2.2167e-05 2.0636e-05 -2.47152e-06)
(-2.13565e-05 1.62189e-05 -2.49436e-06)
(-1.9612e-05 1.20132e-05 -2.5053e-06)
(-1.71063e-05 8.28484e-06 -2.51532e-06)
(-1.39957e-05 5.22763e-06 -2.54203e-06)
(-1.03877e-05 2.93579e-06 -2.58749e-06)
(-6.36777e-06 1.42992e-06 -2.63306e-06)
(-2.05036e-06 6.84498e-07 -2.65127e-06)
(2.41033e-06 6.88714e-07 -2.64891e-06)
(6.81783e-06 1.45432e-06 -2.6317e-06)
(1.09345e-05 3.01225e-06 -2.5996e-06)
(1.45337e-05 5.37819e-06 -2.56804e-06)
(1.74469e-05 8.51038e-06 -2.54811e-06)
(1.95794e-05 1.22733e-05 -2.53758e-06)
(2.08972e-05 1.64661e-05 -2.52232e-06)
(2.13817e-05 2.08367e-05 -2.49619e-06)
(2.10305e-05 2.51717e-05 -2.45194e-06)
(1.98146e-05 2.92759e-05 -2.38906e-06)
(1.76873e-05 3.30263e-05 -2.33395e-06)
(1.46807e-05 3.63214e-05 -2.31369e-06)
(1.09251e-05 3.90462e-05 -2.31562e-06)
(6.64454e-06 4.10238e-05 -2.32849e-06)
(2.2238e-06 4.21381e-05 -2.31401e-06)
(-2.70069e-06 5.0183e-05 -2.70069e-06)
(-8.2293e-06 4.98554e-05 -2.79371e-06)
(-1.3641e-05 4.77775e-05 -2.8424e-06)
(-1.83135e-05 4.47968e-05 -2.89195e-06)
(-2.21112e-05 4.09666e-05 -2.93083e-06)
(-2.48444e-05 3.63873e-05 -2.96137e-06)
(-2.63764e-05 3.12231e-05 -2.98367e-06)
(-2.66745e-05 2.5744e-05 -2.99519e-06)
(-2.58118e-05 2.02827e-05 -3.01e-06)
(-2.39041e-05 1.51938e-05 -3.02728e-06)
(-2.10673e-05 1.07428e-05 -3.07237e-06)
(-1.74018e-05 7.1105e-06 -3.13906e-06)
(-1.29995e-05 4.35983e-06 -3.20699e-06)
(-7.98561e-06 2.49504e-06 -3.25432e-06)
(-2.55367e-06 1.5142e-06 -3.26398e-06)
(3.03866e-06 1.45837e-06 -3.24781e-06)
(8.49427e-06 2.39853e-06 -3.21172e-06)
(1.35202e-05 4.37749e-06 -3.176e-06)
(1.78832e-05 7.37774e-06 -3.15091e-06)
(2.14278e-05 1.12881e-05 -3.13209e-06)
(2.40592e-05 1.58977e-05 -3.10797e-06)
(2.57151e-05 2.09526e-05 -3.06887e-06)
(2.63509e-05 2.61929e-05 -3.01267e-06)
(2.58875e-05 3.14149e-05 -2.94623e-06)
(2.42544e-05 3.64411e-05 -2.89003e-06)
(2.14718e-05 4.11335e-05 -2.86343e-06)
(1.76654e-05 4.52922e-05 -2.85711e-06)
(1.30731e-05 4.86738e-05 -2.85399e-06)
(7.96727e-06 5.1014e-05 -2.83338e-06)
(2.6841e-06 5.20958e-05 -2.77979e-06)
(-3.45231e-06 6.24322e-05 -3.45231e-06)
(-1.02082e-05 6.2402e-05 -3.53329e-06)
(-1.65675e-05 5.97048e-05 -3.55899e-06)
(-2.20864e-05 5.59365e-05 -3.58964e-06)
(-2.65492e-05 5.10853e-05 -3.60959e-06)
(-2.97569e-05 4.53041e-05 -3.6259e-06)
(-3.16113e-05 3.88583e-05 -3.63848e-06)
(-3.21004e-05 3.21135e-05 -3.65727e-06)
(-3.12654e-05 2.54866e-05 -3.68782e-06)
(-2.91984e-05 1.93698e-05 -3.75847e-06)
(-2.59453e-05 1.40408e-05 -3.85094e-06)
(-2.15445e-05 9.62926e-06 -3.94512e-06)
(-1.6123e-05 6.19908e-06 -4.01208e-06)
(-9.88374e-06 3.79017e-06 -4.03255e-06)
(-3.13506e-06 2.48658e-06 -4.01681e-06)
(3.75545e-06 2.39242e-06 -3.984e-06)
(1.04194e-05 3.60497e-06 -3.94163e-06)
(1.65387e-05 6.1382e-06 -3.9063e-06)
(2.18763e-05 9.90509e-06 -3.87378e-06)
(2.62587e-05 1.47133e-05 -3.83426e-06)
(2.95505e-05 2.02986e-05 -3.78007e-06)
(3.16276e-05 2.63887e-05 -3.71145e-06)
(3.23655e-05 3.27387e-05 -3.63249e-06)
(3.16661e-05 3.91309e-05 -3.57191e-06)
(2.95094e-05 4.53767e-05 -3.53489e-06)
(2.60018e-05 5.12175e-05 -3.51431e-06)
(2.13636e-05 5.63173e-05 -3.49157e-06)
(1.58644e-05 6.03412e-05 -3.44703e-06)
(9.745e-06 6.3037e-05 -3.39559e-06)
(3.30832e-06 6.41835e-05 -3.35242e-06)
(-4.27983e-06 7.78457e-05 -4.27983e-06)
(-1.24495e-05 7.75635e-05 -4.31331e-06)
(-1.99762e-05 7.4164e-05 -4.32859e-06)
(-2.65513e-05 6.94315e-05 -4.36554e-06)
(-3.18898e-05 6.3356e-05 -4.39753e-06)
(-3.57839e-05 5.61947e-05 -4.43009e-06)
(-3.81359e-05 4.83248e-05 -4.46962e-06)
(-3.89218e-05 4.01888e-05 -4.52878e-06)
(-3.81416e-05 3.22594e-05 -4.61761e-06)
(-3.5781e-05 2.49128e-05 -4.72646e-06)
(-3.18585e-05 1.84168e-05 -4.84103e-06)
(-2.64501e-05 1.29182e-05 -4.92718e-06)
(-1.97303e-05 8.53225e-06 -4.9618e-06)
(-1.20308e-05 5.40855e-06 -4.96042e-06)
(-3.77673e-06 3.7297e-06 -4.93317e-06)
(4.5947e-06 3.63829e-06 -4.89851e-06)
(1.26836e-05 5.21e-06 -4.86158e-06)
(2.01508e-05 8.40142e-06 -4.8213e-06)
(2.67171e-05 1.3041e-05 -4.76952e-06)
(3.21418e-05 1.888e-05 -4.6982e-06)
(3.62059e-05 2.56371e-05 -4.61435e-06)
(3.87101e-05 3.3034e-05 -4.52646e-06)
(3.94993e-05 4.08192e-05 -4.45487e-06)
(3.85107e-05 4.87299e-05 -4.40392e-06)
(3.5809e-05 5.6448e-05 -4.3651e-06)
(3.15707e-05 6.35696e-05 -4.31725e-06)
(2.60301e-05 6.96701e-05 -4.24591e-06)
(1.94238e-05 7.44166e-05 -4.1708e-06)
(1.1962e-05 7.76282e-05 -4.13294e-06)
(4.05798e-06 7.89893e-05 -4.13364e-06)
(-5.15964e-06 9.66602e-05 -5.15964e-06)
(-1.49903e-05 9.57712e-05 -5.1835e-06)
(-2.40657e-05 9.16087e-05 -5.2214e-06)
(-3.20459e-05 8.57599e-05 -5.27992e-06)
(-3.85724e-05 7.82954e-05 -5.34695e-06)
(-4.34032e-05 6.95888e-05 -5.4236e-06)
(-4.64037e-05 6.012e-05 -5.51246e-06)
(-4.75034e-05 5.03992e-05 -5.62247e-06)
(-4.66427e-05 4.09026e-05 -5.75239e-06)
(-4.37688e-05 3.20003e-05 -5.88048e-06)
(-3.88994e-05 2.39475e-05 -5.98216e-06)
(-3.21849e-05 1.7008e-05 -6.04289e-06)
(-2.39344e-05 1.14212e-05 -6.07028e-06)
(-1.45773e-05 7.47456e-06 -6.07375e-06)
(-4.60387e-06 5.40695e-06 -6.06395e-06)
(5.51253e-06 5.36509e-06 -6.05236e-06)
(1.53457e-05 7.36796e-06 -6.02908e-06)
(2.4487e-05 1.12952e-05 -5.98256e-06)
(3.25612e-05 1.69388e-05 -5.90718e-06)
(3.92235e-05 2.40259e-05 -5.8108e-06)
(4.41577e-05 3.22627e-05 -5.70793e-06)
(4.71197e-05 4.13429e-05 -5.6173e-06)
(4.79795e-05 5.09377e-05 -5.54343e-06)
(4.67362e-05 6.06614e-05 -5.47954e-06)
(4.35051e-05 7.00368e-05 -5.39827e-06)
(3.84665e-05 7.85781e-05 -5.29125e-06)
(3.18118e-05 8.58584e-05 -5.18903e-06)
(2.37575e-05 9.15833e-05 -5.12513e-06)
(1.45944e-05 9.55575e-05 -5.11947e-06)
(4.93439e-06 9.71515e-05 -5.1027e-06)
(-6.18934e-06 0.000119264 -6.18934e-06)
(-1.80689e-05 0.000117736 -6.23945e-06)
(-2.91404e-05 0.000112736 -6.30681e-06)
(-3.89034e-05 0.000105605 -6.40374e-06)
(-4.69235e-05 9.65544e-05 -6.51396e-06)
(-5.29065e-05 8.60726e-05 -6.63416e-06)
(-5.66626e-05 7.47285e-05 -6.76679e-06)
(-5.805e-05 6.30753e-05 -6.91373e-06)
(-5.69591e-05 5.15918e-05 -7.06342e-06)
(-5.33495e-05 4.06727e-05 -7.19398e-06)
(-4.73063e-05 3.0672e-05 -7.29657e-06)
(-3.90792e-05 2.19917e-05 -7.36947e-06)
(-2.9077e-05 1.5039e-05 -7.42221e-06)
(-1.78058e-05 1.02014e-05 -7.46764e-06)
(-5.78707e-06 7.73685e-06 -7.51113e-06)
(6.48041e-06 7.7568e-06 -7.53582e-06)
(1.84785e-05 1.02341e-05 -7.52144e-06)
(2.96808e-05 1.5016e-05 -7.45754e-06)
(3.95799e-05 2.18848e-05 -7.36187e-06)
(4.77013e-05 3.05499e-05 -7.24804e-06)
(5.36658e-05 4.06645e-05 -7.13284e-06)
(5.72224e-05 5.18304e-05 -7.02518e-06)
(5.82677e-05 6.35669e-05 -6.91196e-06)
(5.68281e-05 7.53472e-05 -6.77237e-06)
(5.30089e-05 8.65975e-05 -6.6164e-06)
(4.69448e-05 9.68303e-05 -6.46725e-06)
(3.8826e-05 0.000105626 -6.35858e-06)
(2.89726e-05 0.000112629 -6.29638e-06)
(1.78269e-05 0.000117506 -6.25907e-06)
(6.05106e-06 0.000119318 -6.17457e-06)
(-7.4792e-06 0.000146469 -7.4792e-06)
(-2.19082e-05 0.000144405 -7.56954e-06)
(-3.54189e-05 0.000138414 -7.66593e-06)
(-4.7329e-05 0.000129775 -7.79013e-06)
(-5.71422e-05 0.000118856 -7.92918e-06)
(-6.44941e-05 0.00010626 -8.08385e-06)
(-6.91169e-05 9.26368e-05 -8.25563e-06)
(-7.08015e-05 7.85755e-05 -8.44065e-06)
(-6.94088e-05 6.45959e-05 -8.62393e-06)
(-6.49257e-05 5.11853e-05 -8.78829e-06)
(-5.75228e-05 3.88538e-05 -8.9249e-06)
(-4.75579e-05 2.81859e-05 -9.04661e-06)
(-3.55148e-05 1.97217e-05 -9.16245e-06)
(-2.19271e-05 1.39042e-05 -9.27861e-06)
(-7.35988e-06 1.09789e-05 -9.36825e-06)
(7.59298e-06 1.10286e-05 -9.40301e-06)
(2.227e-05 1.40281e-05 -9.37353e-06)
(3.5969e-05 1.98539e-05 -9.29151e-06)
(4.80372e-05 2.82618e-05 -9.177e-06)
(5.79142e-05 3.89004e-05 -9.04608e-06)
(6.51784e-05 5.13056e-05 -8.89839e-06)
(6.9561e-05 6.49229e-05 -8.71994e-06)
(7.09377e-05 7.91188e-05 -8.51276e-06)
(6.92893e-05 9.32699e-05 -8.28992e-06)
(6.46692e-05 0.000106774 -8.0741e-06)
(5.72375e-05 0.000119118 -7.90035e-06)
(4.73156e-05 0.000129782 -7.77305e-06)
(3.5374e-05 0.000138248 -7.6609e-06)
(2.19276e-05 0.000144077 -7.54452e-06)
(7.51368e-06 0.000146325 -7.39808e-06)
(-9.11019e-06 0.000179472 -9.11019e-06)
(-2.66466e-05 0.000176839 -9.22264e-06)
(-4.30225e-05 0.000169611 -9.32712e-06)
(-5.74768e-05 0.000159164 -9.45893e-06)
(-6.94474e-05 0.000146017 -9.62286e-06)
(-7.84704e-05 0.000130886 -9.82511e-06)
(-8.41674e-05 0.000114487 -1.00588e-05)
(-8.62376e-05 9.74668e-05 -1.03108e-05)
(-8.4516e-05 8.04448e-05 -1.05638e-05)
(-7.90397e-05 6.40647e-05 -1.07989e-05)
(-7.00691e-05 4.90409e-05 -1.10201e-05)
(-5.80381e-05 3.61226e-05 -1.12303e-05)
(-4.34784e-05 2.59398e-05 -1.143e-05)
(-2.69802e-05 1.89493e-05 -1.15939e-05)
(-9.21079e-06 1.53992e-05 -1.16871e-05)
(9.05664e-06 1.54254e-05 -1.16982e-05)
(2.69556e-05 1.90556e-05 -1.16435e-05)
(4.36203e-05 2.61743e-05 -1.15405e-05)
(5.8287e-05 3.64755e-05 -1.14025e-05)
(7.03275e-05 4.94799e-05 -1.12258e-05)
(7.92541e-05 6.45661e-05 -1.09984e-05)
(8.47213e-05 8.10213e-05 -1.07293e-05)
(8.65109e-05 9.81043e-05 -1.04246e-05)
(8.45271e-05 0.000115132 -1.01197e-05)
(7.88393e-05 0.000131429 -9.85448e-06)
(6.97322e-05 0.000146336 -9.64014e-06)
(5.76847e-05 0.000159146 -9.44693e-06)
(4.32383e-05 0.000169244 -9.24987e-06)
(2.68829e-05 0.000176217 -9.08809e-06)
(9.22607e-06 0.00017926 -8.96155e-06)
(-1.11e-05 0.000219662 -1.11e-05)
(-3.23355e-05 0.000216135 -1.11984e-05)
(-5.20939e-05 0.000207402 -1.12917e-05)
(-6.96435e-05 0.000194821 -1.14449e-05)
(-8.42843e-05 0.000179066 -1.16695e-05)
(-9.54015e-05 0.000160928 -1.1951e-05)
(-0.000102453 0.000141195 -1.22958e-05)
(-0.000105024 0.000120609 -1.26761e-05)
(-0.000102936 9.9957e-05 -1.30452e-05)
(-9.62906e-05 8.0098e-05 -1.33934e-05)
(-8.54244e-05 6.19628e-05 -1.37215e-05)
(-7.08273e-05 4.64178e-05 -1.40235e-05)
(-5.30957e-05 3.41597e-05 -1.4275e-05)
(-3.29422e-05 2.56709e-05 -1.44432e-05)
(-1.12289e-05 2.12891e-05 -1.45176e-05)
(1.10237e-05 2.12736e-05 -1.45073e-05)
(3.27464e-05 2.57018e-05 -1.4429e-05)
(5.29479e-05 3.44075e-05 -1.4301e-05)
(7.0763e-05 4.69598e-05 -1.41234e-05)
(8.5464e-05 6.27095e-05 -1.38717e-05)
(9.64394e-05 8.09054e-05 -1.35485e-05)
(0.000103202 0.000100712 -1.31642e-05)
(0.000105414 0.000121309 -1.2763e-05)
(0.000102947 0.000141887 -1.23899e-05)
(9.59626e-05 0.000161585 -1.20695e-05)
(8.48906e-05 0.000179489 -1.1772e-05)
(7.02832e-05 0.000194765 -1.14747e-05)
(5.26666e-05 0.000206853 -1.12124e-05)
(3.26061e-05 0.000215399 -1.10936e-05)
(1.11244e-05 0.000219405 -1.10429e-05)
(-1.34261e-05 0.000268418 -1.34261e-05)
(-3.90777e-05 0.000263551 -1.35095e-05)
(-6.30003e-05 0.00025311 -1.36229e-05)
(-8.44005e-05 0.000238101 -1.38517e-05)
(-0.000102363 0.000219336 -1.41773e-05)
(-0.00011604 0.000197666 -1.46214e-05)
(-0.000124694 0.000173958 -1.51333e-05)
(-0.000127836 0.000149111 -1.56499e-05)
(-0.000125299 0.00012415 -1.61507e-05)
(-0.00011723 0.000100198 -1.66248e-05)
(-0.000104016 7.83791e-05 -1.70665e-05)
(-8.62151e-05 5.96572e-05 -1.745e-05)
(-6.45447e-05 4.48096e-05 -1.77401e-05)
(-3.99253e-05 3.44432e-05 -1.79242e-05)
(-1.34797e-05 2.9073e-05 -1.80029e-05)
(1.3511e-05 2.9067e-05 -1.79859e-05)
(3.98011e-05 3.4501e-05 -1.78985e-05)
(6.42831e-05 4.50877e-05 -1.77404e-05)
(8.59459e-05 6.0241e-05 -1.74853e-05)
(0.000103883 7.91727e-05 -1.71258e-05)
(0.000117294 0.000101036 -1.66754e-05)
(0.000125519 0.000124902 -1.61795e-05)
(0.000128138 0.000149816 -1.56909e-05)
(0.000125077 0.000174708 -1.52377e-05)
(0.000116614 0.000198408 -1.4795e-05)
(0.00010323 0.000219807 -1.43535e-05)
(8.54167e-05 0.000238109 -1.39507e-05)
(6.37653e-05 0.000252809 -1.37007e-05)
(3.92034e-05 0.00026334 -1.36388e-05)
(1.32917e-05 0.000268075 -1.34961e-05)
(-1.61543e-05 0.000327201 -1.61543e-05)
(-4.71666e-05 0.000320789 -1.62741e-05)
(-7.6311e-05 0.000308488 -1.64562e-05)
(-0.000102479 0.000290739 -1.68116e-05)
(-0.000124443 0.000268486 -1.73319e-05)
(-0.000141105 0.000242629 -1.79558e-05)
(-0.000151587 0.00021415 -1.86173e-05)
(-0.000155343 0.000184192 -1.92796e-05)
(-0.000152221 0.000154111 -1.99241e-05)
(-0.000142411 0.0001253 -2.05439e-05)
(-0.000126337 9.90513e-05 -2.11195e-05)
(-0.000104637 7.64561e-05 -2.16109e-05)
(-7.82134e-05 5.84483e-05 -2.19851e-05)
(-4.82648e-05 4.58632e-05 -2.22258e-05)
(-1.62035e-05 3.94088e-05 -2.23442e-05)
(1.64659e-05 3.94885e-05 -2.23525e-05)
(4.83169e-05 4.61285e-05 -2.22518e-05)
(7.80446e-05 5.88771e-05 -2.20188e-05)
(0.000104396 7.70228e-05 -2.16377e-05)
(0.000126205 9.97025e-05 -2.11309e-05)
(0.00014244 0.000125984 -2.0538e-05)
(0.00015231 0.000154801 -1.99177e-05)
(0.000155405 0.000184907 -1.93044e-05)
(0.000151729 0.000214855 -1.86773e-05)
(0.000141565 0.000243211 -1.80374e-05)
(0.00012529 0.000268849 -1.74309e-05)
(0.000103423 0.000291018 -1.69743e-05)
(7.69473e-05 0.000308938 -1.67272e-05)
(4.72558e-05 0.000321523 -1.65249e-05)
(1.60451e-05 0.00032673 -1.62042e-05)
(-1.94365e-05 0.0003979 -1.94365e-05)
(-5.7047e-05 0.000390132 -1.96396e-05)
(-9.26322e-05 0.000375733 -1.99621e-05)
(-0.000124483 0.000354828 -2.05196e-05)
(-0.000151115 0.000328429 -2.1217e-05)
(-0.000171213 0.00029751 -2.20001e-05)
(-0.000183782 0.000263276 -2.28197e-05)
(-0.000188256 0.000227231 -2.36527e-05)
(-0.000184485 0.0001911 -2.44925e-05)
(-0.000172634 0.000156519 -2.5322e-05)
(-0.000153144 0.000124953 -2.60901e-05)
(-0.000126786 9.76979e-05 -2.67432e-05)
(-9.47148e-05 7.59498e-05 -2.72447e-05)
(-5.84358e-05 6.0822e-05 -2.75847e-05)
(-1.96522e-05 5.31728e-05 -2.77708e-05)
(1.99161e-05 5.33784e-05 -2.78024e-05)
(5.85896e-05 6.13686e-05 -2.76425e-05)
(9.47251e-05 7.65768e-05 -2.72834e-05)
(0.000126732 9.82299e-05 -2.67379e-05)
(0.000153125 0.000125413 -2.60537e-05)