/*--------------------------------*- C++ -*----------------------------------*\
| =========                 |                                                 |
| \\      /  F ield         | OpenFOAM: The Open Source CFD Toolbox           |
|  \\    /   O peration     | Version:  2312                                  |
|   \\  /    A nd           | Website:  www.openfoam.com                      |
|    \\/     M anipulation  |                                                 |
\*---------------------------------------------------------------------------*/
FoamFile
{
    version     2.0;
    format      ascii;
    arch        "LSB;label=32;scalar=64";
    class       volScalarField;
    location    "1.338907018";
    object      alpha.water;
}
// * * * * * * * * * * * * * * * * * * * * * * * * * * * * * * * * * * * * * //

dimensions      [0 0 0 0 0 0 0];

internalField   nonuniform List<scalar> 
90000
(
1
1.00006
1.00005
1.00004
1.00004
1.00003
1.00002
1.00001
1.00001
0.999999
0.999992
0.999988
0.999987
0.999988
0.999991
0.999997
1
1.00001
1.00001
1.00002
1.00002
1.00001
1.00001
1.00001
1.00001
1.00002
1.00002
1.00002
1.00002
1.00002
1.00006
1.00008
1.00007
1.00006
1.00005
1.00004
1.00003
1.00001
0.999999
0.999989
0.999981
0.999977
0.999977
0.999981
0.999989
0.999998
1.00001
1.00001
1.00002
1.00002
1.00002
1.00002
1.00002
1.00002
1.00002
1.00003
1.00003
1.00001
0.999962
0.999796
1.00004
1.00006
1.00005
1.00004
1.00003
1.00002
1.00002
1.00001
0.999997
0.999989
0.999982
0.999977
0.999974
0.999973
0.999975
0.999978
0.999982
0.999987
0.99999
0.999993
0.999995
0.999997
0.999999
1
1.00001
1.00002
1.00004
1.00008
1.00016
0.999988
1.00003
1.00003
1.00002
1.00002
1.00002
1.00001
1.00001
1
0.999998
0.999992
0.999986
0.999979
0.999973
0.999968
0.999964
0.999963
0.999963
0.999966
0.99997
0.999975
0.99998
0.999984
0.999988
0.999993
0.999998
1
0.999994
0.999988
1.00007
1.00002
1.00001
0.999996
0.999996
0.999997
0.999998
1
1
1
1.00001
1
0.999999
0.999993
0.999986
0.999978
0.999971
0.999965
0.999963
0.999963
0.999967
0.999972
0.999978
0.999983
0.999987
0.999991
0.999997
1.00001
1.00002
1
1.00003
1.00001
0.999994
0.999969
0.999974
0.999978
0.999984
0.999992
1
1.00001
1.00001
1.00002
1.00002
1.00001
1.00001
1
0.999993
0.999986
0.999981
0.999979
0.999981
0.999984
0.999989
0.999993
0.999998
1
1
1.00001
1.00001
1.00001
1.00001
0.999997
0.999978
0.999951
0.999958
0.999965
0.999975
0.999986
0.999998
1.00001
1.00002
1.00002
1.00003
1.00003
1.00003
1.00002
1.00002
1.00001
1
0.999999
0.999997
0.999999
1
1.00001
1.00001
1.00002
1.00002
1.00002
1.00002
1.00001
1
0.999998
0.999968
0.999947
0.999955
0.999962
0.999972
0.999982
0.999992
1
1.00001
1.00002
1.00002
1.00003
1.00003
1.00003
1.00003
1.00002
1.00001
1.00001
1.00001
1
1.00001
1.00001
1.00002
1.00002
1.00002
1.00002
1.00001
1.00001
1
1.00001
0.999967
0.99996
0.999966
0.999972
0.999977
0.999983
0.999988
0.999993
0.999998
1
1.00001
1.00001
1.00002
1.00002
1.00002
1.00002
1.00001
1.00001
1
1
1
1.00001
1.00001
1.00001
1.00001
1
0.999997
0.999998
1
1.00001
0.999977
0.99999
0.999993
0.999995
0.999995
0.999994
0.999991
0.99999
0.999989
0.999991
0.999995
1
1.00001
1.00001
1.00001
1.00001
1.00001
1
0.999998
0.999996
0.999995
0.999993
0.99999
0.999985
0.999979
0.999974
0.999975
0.999983
0.999991
0.999989
0.999998
1.00003
1.00003
1.00002
1.00002
1.00001
1
0.999994
0.999988
0.999986
0.999988
0.999991
0.999996
1
1
1
1
1
0.999997
0.999994
0.999989
0.999983
0.999974
0.999965
0.999959
0.999959
0.999965
0.999972
0.999974
0.999971
1.00002
1.00006
1.00005
1.00005
1.00003
1.00002
1.00001
0.999997
0.999989
0.999984
0.999983
0.999984
0.999986
0.999988
0.999991
0.999993
0.999996
0.999998
0.999999
0.999996
0.99999
0.999981
0.999972
0.999965
0.999963
0.999967
0.999973
0.999974
0.999969
0.999973
1.00004
1.00006
1.00005
1.00004
1.00002
1.00001
0.999998
0.999988
0.999982
0.999978
0.999976
0.999975
0.999974
0.999975
0.999979
0.999984
0.999991
0.999997
1
0.999999
0.999994
0.999987
0.99998
0.999978
0.999979
0.999982
0.999982
0.999976
0.999971
0.999979
1.00004
1.00003
1.00001
1
0.999992
0.999983
0.999978
0.999975
0.999974
0.999974
0.999972
0.99997
0.999969
0.99997
0.999974
0.999982
0.999991
0.999998
1
1
0.999997
0.999993
0.999989
0.999988
0.999988
0.999984
0.999975
0.999966
0.999963
0.999967
1.00001
0.999972
0.999967
0.999961
0.999959
0.999962
0.999967
0.999974
0.999979
0.999981
0.99998
0.999978
0.999976
0.999978
0.999983
0.99999
0.999998
1
1
1
1
0.999998
0.999996
0.999994
0.999988
0.999977
0.999964
0.999956
0.999953
0.999956
0.999976
0.999932
0.999938
0.999943
0.999952
0.999965
0.999978
0.999989
0.999995
0.999996
0.999993
0.99999
0.999989
0.99999
0.999995
1
1
1
1
1
1
1
1.00001
1
0.999996
0.999986
0.999978
0.999976
0.999977
0.999991
0.999956
0.999927
0.999941
0.999955
0.99997
0.999984
0.999996
1
1
1
0.999996
0.999993
0.999994
0.999997
1
1
1
0.999998
0.999997
0.999998
1
1.00001
1.00001
1.00001
1.00001
1.00001
1.00001
1.00002
1.00003
1.00005
0.999959
0.999949
0.999964
0.999976
0.999986
0.999994
0.999998
0.999996
0.999993
0.999989
0.999989
0.999992
0.999998
1
1
1
0.999995
0.99999
0.999989
0.999993
1
1.00001
1.00001
1.00001
1.00001
1.00002
1.00003
1.00004
1.00005
1.00004
0.999975
0.999971
0.999978
0.999983
0.999986
0.999987
0.999985
0.999983
0.999982
0.999986
0.999995
1.00001
1.00001
1.00002
1.00001
1
0.999993
0.999987
0.999988
0.999992
0.999997
0.999998
0.999995
0.99999
0.99999
0.999997
1.00001
1.00001
1
0.999972
0.999985
0.999978
0.999979
0.99998
0.999982
0.999983
0.999985
0.999989
0.999996
1.00001
1.00002
1.00003
1.00003
1.00002
1.00001
0.999998
0.999989
0.999987
0.999989
0.999992
0.99999
0.999983
0.999974
0.99997
0.999974
0.999982
0.999983
0.999972
0.99995
0.999937
0.999986
0.999983
0.999986
0.99999
0.999996
1
1.00001
1.00001
1.00002
1.00003
1.00004
1.00003
1.00002
1.00001
0.99999
0.999982
0.999982
0.999987
0.999992
0.999992
0.999984
0.999975
0.999971
0.999977
0.999989
0.999996
0.999988
0.999971
0.999958
0.999982
0.99999
1
1.00001
1.00002
1.00002
1.00003
1.00003
1.00003
1.00003
1.00003
1.00002
1.00001
0.999989
0.999974
0.99997
0.999977
0.999989
1
1
0.999996
0.999986
0.999981
0.999989
1
1.00001
1.00001
0.999998
0.99999
0.999998
1.00002
1
1.00003
1.00003
1.00003
1.00004
1.00003
1.00003
1.00003
1.00002
1.00001
0.999997
0.999981
0.99997
0.999969
0.99998
0.999998
1.00001
1.00002
1.00001
0.999998
0.999993
1
1.00002
1.00003
1.00002
1
0.999994
0.999997
1
0.999994
1.00002
1.00004
1.00003
1.00003
1.00002
1.00002
1.00002
1.00002
1.00001
1
0.999991
0.999981
0.999979
0.999987
1
1.00001
1.00002
1.00001
0.999993
0.999989
1
1.00002
1.00003
1.00003
1.00001
0.999996
0.999993
0.999994
0.999984
0.999982
1.00002
1.00002
1.00001
1.00001
1.00001
1.00001
1.00001
1.00001
1.00001
1
0.999993
0.999986
0.999988
0.999995
1
0.999997
0.999984
0.999971
0.999969
0.999985
1.00001
1.00003
1.00003
1.00002
1
0.999998
0.999998
0.999992
0.999987
1
1.00001
0.999991
0.99999
0.99999
0.999993
0.999999
1.00001
1.00001
1.00001
0.999997
0.99999
0.999988
0.999993
0.999997
0.999994
0.999982
0.999969
0.999969
0.999985
1.00001
1.00003
1.00003
1.00002
1
0.999997
1
0.999993
0.999989
1
0.999988
0.999992
0.999969
0.999972
0.999975
0.999981
0.999989
0.999996
0.999998
0.999995
0.999993
0.999996
1.00001
1.00002
1.00002
1.00001
1
1
1.00001
1.00003
1.00005
1.00004
1.00003
1.00001
0.999999
1
1
0.999994
0.999996
0.999993
0.999969
0.99998
0.999956
0.999961
0.999966
0.999974
0.999982
0.999988
0.999991
0.999995
1
1.00002
1.00003
1.00004
1.00003
1.00003
1.00002
1.00003
1.00004
1.00005
1.00004
1.00002
1.00001
1.00001
1.00001
1.00001
1.00001
1.00001
0.999999
0.99998
1
0.999973
0.999955
0.999962
0.999969
0.999976
0.999981
0.999984
0.999987
0.999994
1.00001
1.00002
1.00003
1.00003
1.00002
1.00001
1.00001
1.00002
1.00003
1.00002
0.999999
0.999983
0.999985
1
1.00001
1
1
1
0.999984
0.999995
1.00002
0.999975
0.999966
0.999972
0.999975
0.999976
0.999975
0.999975
0.999979
0.999989
1
1.00001
1.00002
1.00001
1
1
1.00001
1.00002
1.00001
0.99999
0.999979
0.999976
0.999978
0.999987
0.999986
0.999978
0.999983
0.999988
0.999985
1.00002
1
0.999983
0.999976
0.999976
0.999974
0.999972
0.999972
0.999977
0.999986
0.999999
1.00001
1.00002
1.00001
1.00001
1.00001
1.00002
1.00002
1.00002
1.00001
0.999994
0.999994
0.999997
0.999983
0.999974
0.999977
0.999975
0.999975
0.999992
1.00001
1.00001
0.999989
0.999987
0.999977
0.999977
0.999979
0.999983
0.999987
0.999993
0.999999
1
1
1
0.999997
0.999998
1
1.00001
1.00002
1.00001
1.00001
1.00001
1.00001
1.00001
0.999982
0.99997
0.999983
0.999983
0.999974
1
1.00001
0.999979
0.999996
0.999987
0.999986
0.999991
0.999996
0.999999
0.999997
0.999992
0.999984
0.999976
0.999971
0.99997
0.999976
0.999988
1
1.00001
1.00001
1
1.00001
1.00001
0.999987
0.999978
0.999968
0.999966
0.999977
0.999976
0.999974
0.999999
0.99999
0.999987
0.999996
0.999993
1
1.00001
1.00001
0.999998
0.999986
0.999973
0.999963
0.99996
0.999964
0.999977
0.999995
1.00001
1.00002
1.00001
1.00001
0.999991
0.999988
0.999977
0.999949
0.999951
0.999972
0.999967
0.999959
0.999973
0.999987
0.999998
0.999996
0.999998
1
1
1.00001
1.00001
1
0.999995
0.999985
0.999976
0.999974
0.999978
0.999989
1
1.00002
1.00002
1.00001
0.999993
0.999998
0.999985
0.999978
0.999975
0.999967
0.999981
1.00001
0.999985
0.999968
1
1.00001
1
1
0.999998
1.00001
1.00001
1.00002
1.00002
1.00001
1
0.999992
0.999985
0.999984
0.999988
0.999994
0.999998
0.999997
0.999993
0.999991
0.999984
1.00001
1.00001
0.999995
1
1.00001
1.00002
1.00002
0.999999
1
1.00004
1.00002
1
1
1.00002
1.00002
1.00001
1.00002
1.00002
1.00001
0.999992
0.999983
0.999981
0.999983
0.999985
0.999986
0.999984
0.999981
0.999982
1.00001
1.00001
1.00002
1.00002
1
1.00001
1.00003
1.00001
1.00001
1.00001
1.00002
1.00004
1
1
1.00002
1.00003
1.00002
1.00002
1.00001
1
0.99999
0.999989
0.999994
0.999998
0.999995
0.999991
0.999986
0.999987
0.999996
0.999988
1.00002
1.00002
1.00001
1.00001
1.00001
1.00002
1.00003
0.999992
1
1.00002
1.00002
1
0.99999
1.00001
1.00002
1.00001
1.00002
1.00001
0.999995
0.999995
1
1.00001
1.00001
1.00001
1
1
0.999996
0.999996
1.00002
0.99999
1.00001
1.00002
0.999999
0.999996
1.00002
1.00001
1.00001
0.999977
1
1.00002
0.999993
0.999985
1.00001
1.00001
0.999997
1.00002
1.00005
0.999997
1
1.00001
1.00001
1.00002
1.00001
1.00001
1
1.00001
1
0.999984
1.00001
1
0.999986
1.00002
0.999992
0.999974
0.999995
0.999991
0.999986
0.999981
1
1
0.999985
0.999988
1.00001
0.999991
1
1.00005
1.00005
1
1
1
1.00001
1.00001
1
0.999997
0.999989
0.999991
1
0.999986
0.999983
1.00002
0.999969
0.999992
1
0.999992
0.999993
1.00001
0.999992
0.999997
1.00001
0.999996
1
0.999985
1
1.00001
1.00003
1.00003
1
0.999998
1
1.00001
1.00001
0.999998
0.999983
0.99999
0.999995
0.999991
1
1.00001
0.999982
1.00003
1
0.999988
0.999994
1.00001
0.999994
1.00002
0.999999
1.00001
1.00002
1.00001
1.00002
0.999995
0.999993
1.00003
1.00003
0.999988
0.999957
1
1.00002
1.00001
0.999995
0.999991
0.99999
1.00001
1.00001
1.00002
1.00002
1.00001
0.999996
1.00001
1.00001
0.999993
0.999986
1.00002
0.999993
1
1
1.00002
1.00001
0.999987
0.999977
1.00002
1.00001
0.999988
0.999998
1.00003
0.999976
1.00001
1.00001
0.999987
0.999998
1.00002
0.999997
1
1
0.999998
1
0.999969
1.00001
1.00002
0.999963
0.999987
0.999992
0.999998
0.999999
1
0.999995
0.999998
0.999999
1.00001
0.99997
1
1.00003
0.999988
0.999994
1.00002
0.999974
1
0.999994
1.00002
1
0.999986
0.999993
1.00002
0.999999
0.999987
1.00006
1.00001
0.999954
1.00003
0.999997
0.999986
1.00001
0.999993
1.00002
1.00001
0.999996
1.00001
0.999998
1
1.00002
0.99997
0.999986
1.00003
1.00003
0.999966
0.99988
0.999987
1
1.00002
0.999962
0.999992
1.00002
1
1.00002
0.99997
0.999974
1.00004
1
0.999981
1.00001
0.99995
0.999998
1.00003
0.999981
0.999976
1.00001
0.999985
0.999992
0.999978
1.00001
0.999995
0.999985
1.00001
1
1.00003
0.999873
0.999994
0.999991
0.999992
0.999982
0.999997
0.999993
0.99998
1.00003
0.99999
1
0.999956
0.999999
0.999998
0.999951
1.00001
1.00001
0.999964
0.999996
1.00002
0.999996
0.999987
1.00001
0.999998
0.999986
1.00001
0.999977
0.999997
0.999996
0.999984
0.99992
0.999994
0.999988
0.999991
0.999978
0.999997
0.999994
0.999997
1
0.999997
1
0.999998
0.999998
0.999997
0.999981
0.999994
0.999999
0.999988
0.999994
1
0.999997
0.999993
0.999999
0.999998
0.999988
1
0.999981
0.999992
0.999995
0.999986
0.999914
0.999893
0.999906
0.999974
0.999877
0.999968
0.999947
0.999954
0.999999
0.999924
0.999986
0.999997
0.999976
0.999979
0.999971
0.99998
0.999987
0.999976
0.999974
0.999976
0.999989
0.999981
0.999933
0.999989
0.999952
0.999944
0.999954
0.999898
0.999974
0.999904
0.999811
0.767704
0.744918
0.801937
0.748863
0.812216
0.790232
0.81097
0.840245
0.797684
0.846067
0.842737
0.842159
0.833233
0.841771
0.84889
0.85213
0.837408
0.837899
0.838077
0.842983
0.84704
0.799197
0.836891
0.813186
0.791487
0.808785
0.751012
0.800447
0.744292
0.76804
0.121992
0.0881041
0.156124
0.078274
0.156505
0.0994058
0.116064
0.169951
0.092603
0.165448
0.144953
0.148841
0.131103
0.151786
0.151937
0.165891
0.138143
0.144212
0.137134
0.14736
0.166794
0.0938279
0.16607
0.119893
0.10115
0.151718
0.0790555
0.155671
0.0890908
0.121038
4.89739e-05
9.9038e-05
0.00084927
0.000295117
0.0014391
5.14682e-05
0.000212249
0.00144484
0.000225602
0.000490786
8.70376e-06
2.84113e-06
5.11329e-06
1.46316e-06
8.83919e-07
2.28337e-05
5.47617e-06
8.95574e-06
2.54445e-06
1.3043e-05
0.000618358
0.000229735
0.00084197
0.000248888
6.42054e-05
0.000972928
0.000214652
0.000254831
0.000109412
6.00548e-05
3.00661e-06
2.45972e-05
1.86506e-05
1.73949e-05
3.34121e-05
3.81879e-05
0.000202297
0.000101335
1.70828e-05
8.69584e-06
2.84075e-06
2.68103e-06
1.70327e-06
1.50945e-06
5.80314e-07
3.86499e-07
4.74604e-06
9.12355e-06
1.83331e-06
2.75464e-06
1.30423e-05
1.90598e-05
9.20566e-05
0.000132172
3.89748e-05
4.53319e-05
6.48409e-06
2.03289e-05
2.75798e-05
2.94422e-06
1.26817e-06
3.46028e-05
5.25379e-06
6.65117e-06
6.88723e-06
3.86432e-05
3.90344e-05
4.22936e-06
1.35113e-05
2.71334e-05
2.25329e-05
2.23317e-06
1.26229e-05
1.84276e-06
5.31279e-07
3.20363e-07
8.79408e-06
2.02702e-05
7.66022e-06
2.42255e-05
2.92204e-05
1.71131e-05
5.04441e-06
4.16897e-05
4.15885e-05
9.03262e-06
1.69171e-06
1.92097e-05
4.13389e-05
8.51884e-07
1.222e-07
7.73293e-08
1.35882e-07
1.42151e-07
1.46938e-08
2.59257e-09
7.79389e-07
7.91684e-07
2.20345e-06
3.2882e-06
2.09338e-06
2.41019e-06
5.88203e-06
7.51125e-06
2.5821e-06
2.50784e-06
8.78229e-06
7.18647e-06
4.9889e-06
1.8468e-06
1.98226e-06
1.6467e-06
5.14333e-07
1.01369e-06
2.49814e-09
1.94418e-08
1.60649e-07
1.62058e-07
1.28739e-07
1.2795e-07
1.08775e-07
1.91349e-07
2.41173e-07
1.36593e-07
1.72598e-08
7.15142e-10
4.90686e-11
4.24694e-07
8.29449e-07
2.94139e-07
1.01347e-07
2.75104e-06
5.28693e-06
6.3814e-06
4.19734e-06
4.14009e-06
5.02115e-06
4.27766e-06
3.66816e-06
7.22224e-07
3.23545e-07
7.86874e-07
3.85631e-07
2.88312e-10
3.29574e-10
2.79716e-08
1.69796e-07
4.00507e-07
1.56136e-07
1.16446e-07
5.60974e-10
2.44318e-09
7.25606e-08
2.25376e-07
1.15612e-07
5.22515e-10
4.29512e-11
2.76113e-11
2.95278e-11
1.54366e-10
1.73676e-07
8.36969e-07
8.77247e-07
1.86789e-06
4.51558e-06
4.51557e-06
1.54498e-06
1.30457e-07
3.55434e-07
1.21183e-07
2.97277e-08
2.45333e-11
2.40288e-11
1.21246e-10
1.32577e-10
1.58511e-07
2.72754e-07
8.33219e-08
7.12744e-09
5.10934e-10
5.519e-10
2.10577e-09
2.19325e-10
2.42594e-08
2.40733e-08
2.22342e-09
2.1441e-10
2.69129e-11
2.48898e-11
8.8069e-11
3.97557e-09
3.33983e-10
1.03879e-09
3.54957e-09
1.64534e-06
2.24033e-06
7.45211e-08
4.1946e-10
1.50896e-10
1.81109e-11
2.45333e-11
2.24384e-11
2.34923e-11
1.72544e-10
2.34566e-09
2.80378e-08
2.7606e-08
2.10134e-10
1.70155e-09
5.0231e-10
3.23547e-10
6.28909e-10
2.16805e-10
4.50137e-11
4.42037e-11
2.0835e-10
8.92477e-11
3.49827e-11
2.48281e-11
4.09514e-11
7.54056e-12
6.2141e-12
2.47747e-11
1.34862e-10
1.69902e-09
3.3858e-09
1.75623e-10
2.55298e-11
9.78915e-12
1.08936e-11
2.93777e-11
2.24093e-11
3.35026e-11
7.80666e-11
1.79671e-10
3.05278e-11
3.09874e-11
2.07494e-10
5.85708e-10
3.20743e-10
1.7139e-10
2.34748e-10
1.00438e-10
5.51059e-11
4.40028e-11
3.46719e-11
1.94973e-11
8.25805e-12
6.24677e-12
8.26562e-12
7.8947e-12
5.39214e-12
1.09554e-11
1.64993e-11
2.59828e-11
3.0111e-11
1.84519e-11
2.72226e-11
9.57603e-12
8.15404e-12
7.95395e-12
6.10504e-12
7.91701e-12
1.74109e-11
2.99136e-11
3.03846e-11
5.83397e-11
1.01295e-10
2.3223e-10
1.73513e-10
3.14358e-11
5.61565e-11
2.89061e-11
1.37331e-11
1.06106e-11
4.26234e-12
1.99796e-12
1.10581e-12
8.90286e-13
1.42799e-12
2.51063e-12
5.34731e-12
1.15985e-11
1.53549e-11
6.82211e-12
6.43256e-12
1.80209e-11
1.18564e-11
5.11599e-12
2.54931e-12
1.42483e-12
9.05794e-13
1.05446e-12
1.75762e-12
3.77818e-12
1.02198e-11
1.40608e-11
2.84451e-11
5.66782e-11
3.17575e-11
3.19678e-12
7.00674e-12
4.30643e-12
1.66563e-12
1.07275e-12
4.6312e-13
2.05766e-13
1.48892e-13
1.84572e-13
3.80492e-13
8.44821e-13
1.93032e-12
3.89749e-12
4.6111e-12
6.94407e-12
6.38443e-12
4.25986e-12
3.91316e-12
1.96042e-12
8.59136e-13
3.86829e-13
1.87359e-13
1.46203e-13
1.89405e-13
4.15598e-13
1.02999e-12
1.55798e-12
4.30133e-12
7.13135e-12
3.22558e-12
2.41455e-13
5.06708e-13
4.06386e-13
1.74708e-13
6.73248e-14
2.51768e-14
1.05347e-14
8.44158e-15
1.36624e-14
3.31968e-14
8.87068e-14
2.34249e-13
5.09354e-13
8.5235e-13
1.27646e-12
1.26142e-12
8.40371e-13
5.15009e-13
2.37628e-13
9.03645e-14
3.41473e-14
1.39211e-14
8.4692e-15
9.90167e-15
2.26699e-14
6.37487e-14
1.74086e-13
4.11618e-13
5.14357e-13
2.43812e-13
1.13621e-14
2.87701e-14
1.97121e-14
7.64293e-15
2.15434e-15
6.32117e-16
2.5115e-16
2.24876e-16
3.99251e-16
1.0571e-15
3.36012e-15
1.091e-14
2.75395e-14
6.01587e-14
9.35032e-14
9.37621e-14
6.12108e-14
2.79359e-14
1.11117e-14
3.44128e-15
1.09282e-15
4.11375e-16
2.26141e-16
2.35955e-16
5.69055e-16
2.05162e-15
7.80542e-15
2.02213e-14
2.94813e-14
1.15165e-14
2.79363e-16
8.86212e-16
4.77977e-16
1.58669e-16
4.38709e-17
1.21729e-17
5.20674e-18
5.73116e-18
1.10351e-17
2.96394e-17
9.50309e-17
3.17276e-16
8.85472e-16
2.05274e-15
3.3422e-15
3.33851e-15
2.07112e-15
8.9775e-16
3.24861e-16
9.81969e-17
3.07356e-17
1.14261e-17
5.75251e-18
4.86628e-18
1.08612e-17
4.16589e-17
1.62451e-16
4.92221e-16
9.14095e-16
2.84816e-16
4.84056e-18
1.66832e-17
8.66397e-18
2.79259e-18
7.68516e-19
2.14319e-19
1.06611e-19
1.46436e-19
3.04823e-19
8.12185e-19
2.48539e-18
7.93451e-18
2.16972e-17
4.88158e-17
7.96385e-17
8.00254e-17
4.92787e-17
2.19315e-17
8.11662e-18
2.57687e-18
8.40588e-19
3.15267e-19
1.48457e-19
1.00887e-19
1.91864e-19
7.36971e-19
2.88145e-18
8.96343e-18
1.73154e-17
4.96028e-18
7.11208e-20
2.66821e-19
1.36982e-19
4.38978e-20
1.16723e-20
3.30819e-21
2.01591e-21
3.35804e-21
7.29355e-21
1.89516e-20
5.60465e-20
1.71963e-19
4.51094e-19
9.8749e-19
1.59222e-18
1.5931e-18
9.93013e-19
4.58962e-19
1.76886e-19
5.81998e-20
1.97156e-20
7.59367e-21
3.47029e-21
1.9578e-21
2.98507e-21
1.14037e-20
4.59611e-20
1.44242e-19
2.7817e-19
7.39161e-20
8.72395e-22
3.61379e-21
1.86232e-21
5.81091e-22
1.52327e-22
4.42622e-23
3.50906e-23
6.82853e-23
1.4852e-22
3.6994e-22
1.0438e-21
3.0549e-21
7.77548e-21
1.66523e-20
2.63044e-20
2.62671e-20
1.67289e-20
7.9352e-21
3.14444e-21
1.07859e-21
3.8343e-22
1.54287e-22
7.09853e-23
3.53162e-23
4.05978e-23
1.49278e-22
6.21896e-22
1.97245e-21
3.84324e-21
9.23559e-22
8.88883e-24
4.03447e-23
2.12165e-23
6.56487e-24
1.665e-24
5.14685e-25
5.69832e-25
1.2059e-24
2.53525e-24
5.9465e-24
1.58255e-23
4.41289e-23
1.07475e-22
2.20144e-22
3.40633e-22
3.42988e-22
2.22812e-22
1.08703e-22
4.49954e-23
1.64395e-23
6.2169e-24
2.64595e-24
1.25541e-24
5.90234e-25
4.91297e-25
1.65677e-24
7.10013e-24
2.26414e-23
4.41905e-23
9.52595e-24
7.37308e-26
3.94654e-25
1.9887e-25
6.20113e-26
1.51663e-26
5.53125e-27
8.46397e-27
1.79369e-26
3.55621e-26
7.82117e-26
1.95457e-25
5.09811e-25
1.16482e-24
2.29031e-24
3.52866e-24
3.58007e-24
2.35618e-24
1.19002e-24
5.20861e-25
2.03719e-25
8.23841e-26
3.75778e-26
1.88627e-26
8.80524e-27
5.4872e-27
1.57152e-26
6.83862e-26
2.17444e-25
4.2169e-25
8.13073e-26
5.20185e-28
3.01572e-27
1.54119e-27
4.73086e-28
1.17079e-28
5.60559e-29
1.07257e-28
2.21833e-28
4.16832e-28
8.50438e-28
1.93254e-27
4.54333e-27
9.68661e-27
1.84018e-26
2.77511e-26
2.77243e-26
1.86244e-26
1.00325e-26
4.77305e-27
2.03672e-27
8.96042e-28
4.44431e-28
2.39061e-28
1.14333e-28
5.72892e-29
1.26271e-28
5.47531e-28
1.73779e-27
3.34721e-27
5.77769e-28
3.01383e-30
1.83797e-29
1.01166e-29
3.06014e-30
7.88627e-31
5.20748e-31
1.1492e-30
2.31556e-30
4.04433e-30
7.41836e-30
1.50432e-29
3.21402e-29
6.46804e-29
1.16592e-28
1.68048e-28
1.68243e-28
1.19695e-28
6.95624e-29
3.54174e-29
1.63489e-29
7.92026e-30
4.3448e-30
2.52612e-30
1.25917e-30
5.51317e-31
8.46048e-31
3.5855e-30
1.15042e-29
2.2176e-29
3.44104e-30
1.38018e-32
1.06647e-31
5.68605e-32
1.76757e-32
4.84389e-33
4.59668e-33
1.08674e-32
2.03006e-32
3.14885e-32
5.09865e-32
9.34351e-32
1.83855e-31
3.39397e-31
5.60406e-31
7.73663e-31
7.93528e-31
5.91945e-31
3.61636e-31
1.98765e-31
1.0367e-31
5.72805e-32
3.49204e-32
2.19095e-32
1.15353e-32
4.83802e-33
4.9309e-33
1.95401e-32
6.39588e-32
1.23103e-31
1.72122e-32
6.27273e-35
5.13736e-34
2.68752e-34
8.51129e-35
2.59827e-35
3.62934e-35
8.41268e-35
1.43212e-34
2.01583e-34
2.9899e-34
4.9566e-34
8.44741e-34
1.33391e-33
1.99619e-33
2.72165e-33
2.89058e-33
2.26264e-33
1.49405e-33
9.29259e-34
5.54871e-34
3.42117e-34
2.28375e-34
1.56562e-34
8.9927e-35
3.87507e-35
2.685e-35
9.13803e-35
2.98528e-34
5.63698e-34
7.16491e-35
2.33854e-37
1.75114e-36
1.02468e-36
3.16495e-37
1.25513e-37
2.37308e-37
5.33049e-37
8.57437e-37
1.12962e-36
1.52203e-36
2.15397e-36
3.0696e-36
4.34768e-36
6.33378e-36
8.47338e-36
8.67377e-36
6.86323e-36
4.98578e-36
3.57083e-36
2.4231e-36
1.6673e-36
1.24538e-36
9.57314e-37
6.0637e-37
2.72003e-37
1.39339e-37
3.55462e-37
1.12616e-36
2.0828e-36
2.47517e-37
5.96017e-40
5.63219e-39
3.35629e-39
1.03655e-39
5.95967e-40
1.40239e-39
3.10974e-39
4.62404e-39
5.40074e-39
6.10038e-39
7.0941e-39
8.97657e-39
1.21698e-38
1.6327e-38
1.88758e-38
1.77006e-38
1.52313e-38
1.34028e-38
1.14042e-38
8.73181e-39
6.7181e-39
5.68753e-39
4.93577e-39
3.43142e-39
1.60889e-39
6.71261e-40
1.11829e-39
3.39907e-39
6.35519e-39
7.27864e-40
1.7077e-42
1.93575e-41
9.9289e-42
3.337e-42
2.78242e-42
7.36243e-42
1.49388e-41
1.97316e-41
2.00303e-41
1.95539e-41
2.07525e-41
2.50967e-41
3.00034e-41
3.23888e-41
3.19085e-41
3.11516e-41
3.18356e-41
3.20586e-41
2.93446e-41
2.4476e-41
2.17662e-41
2.17513e-41
2.18018e-41
1.66708e-41
8.19149e-42
3.09692e-42
3.16744e-42
8.82523e-42
1.70265e-41
1.91553e-42
5.39723e-45
4.84592e-44
2.47086e-44
9.89816e-45
1.24008e-44
3.11206e-44
5.64484e-44
6.88196e-44
6.27916e-44
5.66115e-44
5.64317e-44
5.89728e-44
5.39384e-44
4.68292e-44
4.5149e-44
4.96524e-44
5.39309e-44
5.46337e-44
5.379e-44
5.44631e-44
6.12763e-44
7.29935e-44
8.29387e-44
6.72814e-44
3.46304e-44
1.31737e-44
9.3071e-45
2.1586e-44
4.12346e-44
4.55005e-45
1.04558e-47
8.6882e-47
5.29117e-47
2.77939e-47
4.44393e-47
1.05164e-46
1.88659e-46
2.13214e-46
1.78813e-46
1.41606e-46
1.19184e-46
9.6339e-47
7.08962e-47
5.68107e-47
5.76261e-47
6.30342e-47
6.40775e-47
6.65592e-47
8.0093e-47
1.05602e-46
1.45029e-46
1.96423e-46
2.34274e-46
2.09658e-46
1.19693e-46
4.97056e-47
2.85523e-47
4.91906e-47
8.4213e-47
9.36377e-48
1.85635e-50
1.68615e-49
1.15508e-49
7.1597e-50
1.20345e-49
2.92967e-49
5.05998e-49
4.90231e-49
3.76096e-49
2.50687e-49
1.79292e-49
1.28592e-49
9.15022e-50
7.26514e-50
6.57526e-50
5.86207e-50
5.50491e-50
6.71256e-50
1.0489e-49
1.70007e-49
2.64262e-49
4.02614e-49
5.17317e-49
5.5645e-49
3.67953e-49
1.66332e-49
8.29357e-50
9.82126e-50
1.37124e-49
1.71328e-50
3.97459e-53
3.48411e-52
2.36611e-52
1.56407e-52
2.9204e-52
6.79339e-52
1.01265e-51
8.94052e-52
5.95956e-52
3.56362e-52
2.40914e-52
1.72085e-52
1.17804e-52
7.80517e-53
5.36163e-53
4.15173e-53
4.53063e-53
7.39069e-53
1.40721e-52
2.52017e-52
4.17812e-52
6.96561e-52
1.05897e-51
1.26458e-51
9.41097e-52
4.38483e-52
2.03298e-52
1.84268e-52
2.11699e-52
3.23613e-53
6.53998e-56
5.83572e-55
3.63039e-55
2.96244e-55
5.87073e-55
1.22694e-54
1.73522e-54
1.5133e-54
9.33727e-55
5.33171e-55
3.53428e-55
2.35427e-55
1.34363e-55
7.12203e-56
4.41159e-56
3.8876e-56
5.25884e-56
9.47707e-56
1.80287e-55
3.18709e-55
5.48479e-55
1.01117e-54
1.78173e-54
2.2698e-54
1.80809e-54
8.56417e-55
4.05043e-55
3.45495e-55
3.69549e-55
6.39681e-56
1.10268e-58
7.69527e-58
5.03376e-58
5.2581e-58
9.21598e-58
1.90348e-57
2.6709e-57
2.23579e-57
1.26345e-57
7.00894e-58
4.39457e-58
2.54192e-58
1.24349e-58
6.42222e-59
4.53895e-59
4.59066e-59
6.11197e-59
9.87911e-59
1.78793e-58
3.31782e-58
6.47818e-58
1.37918e-57
2.73132e-57
3.55771e-57
2.88639e-57
1.3847e-57
7.00965e-58
6.18656e-58
6.62318e-58
1.18346e-58
2.39209e-61
8.55288e-61
9.0962e-61
9.63803e-61
1.62328e-60
3.48639e-60
4.14833e-60
3.14276e-60
1.6169e-60
8.53814e-61
4.78035e-61
2.44611e-61
1.17261e-61
6.84877e-62
5.41815e-62
5.3439e-62
6.43171e-62
9.82536e-62
1.94103e-61
4.23182e-61
9.46729e-61
2.1479e-60
4.23791e-60
5.235e-60
4.08541e-60
1.98505e-60
1.09152e-60
1.00802e-60
1.09237e-60
1.95772e-61
2.03332e-64
1.50891e-63
1.8413e-63
1.75321e-63
3.1234e-63
6.11518e-63
6.09021e-63
4.55803e-63
2.29006e-63
1.14293e-63
5.73546e-64
2.73052e-64
1.3366e-64
8.12523e-65
6.12379e-65
5.51694e-65
6.55579e-65
1.10599e-64
2.52892e-64
6.07228e-64
1.36549e-63
2.91093e-63
5.44584e-63
6.3858e-63
5.14551e-63
2.716e-63
1.6345e-63
1.56422e-63
1.69148e-63
2.99245e-64
3.33166e-67
3.926e-66
3.04179e-66
2.79897e-66
4.58302e-66
7.55825e-66
7.19699e-66
5.69467e-66
2.8675e-66
1.32467e-66
6.02274e-67
2.68518e-67
1.24705e-67
6.87543e-68
4.61199e-68
4.06276e-68
5.43511e-68
1.09067e-67
2.76941e-67
6.66116e-67
1.41708e-66
2.9279e-66
5.84375e-66
7.34398e-66
7.00101e-66
4.11653e-66
2.55764e-66
2.42528e-66
2.53368e-66
4.33141e-67
9.8914e-70
5.17565e-69
3.74852e-69
3.65564e-69
5.48853e-69
8.48365e-69
8.25838e-69
6.42294e-69
2.98127e-69
1.20817e-69
4.91442e-70
2.03333e-70
8.69626e-71
4.31975e-71
2.79974e-71
2.77751e-71
4.49808e-71
1.02803e-70
2.64644e-70
6.09707e-70
1.28411e-69
2.8616e-69
6.62931e-69
9.69001e-69
1.02194e-68
6.14121e-69
3.69115e-69
3.40569e-69
3.52349e-69
5.95435e-70
1.02971e-72
3.68397e-72
4.0419e-72
4.27758e-72
6.62982e-72
1.00511e-71
9.6156e-72
6.70447e-72
2.7458e-72
9.75257e-73
3.7353e-73
1.55722e-73
6.7526e-74
3.46111e-74
2.46026e-74
2.7558e-74
4.71799e-74
1.03405e-73
2.43539e-73
5.31886e-73
1.16593e-72
2.884e-72
7.36023e-72
1.13991e-71
1.17522e-71
6.80555e-72
4.17482e-72
4.02812e-72
4.5794e-72
8.05033e-73
5.89367e-76
5.85804e-75
5.79327e-75
5.66298e-75
7.67937e-75
1.00167e-74
9.346e-75
6.07505e-75
2.30755e-75
7.90914e-76
3.21824e-76
1.47233e-76
6.84818e-77
3.70317e-77
2.72236e-77
2.93999e-77
4.48668e-77
8.4334e-77
1.79486e-76
3.95205e-76
9.43057e-76
2.5379e-75
6.61283e-75
9.73482e-75
9.48957e-75
5.58707e-75
3.98061e-75
4.39577e-75
5.8575e-75
1.06546e-75
1.49506e-78
1.37296e-77
8.72842e-78
7.26219e-78
7.72234e-78
9.28325e-78
9.31715e-78
6.13806e-78
2.30184e-78
8.33846e-79
3.71858e-79
1.76991e-79
8.08292e-80
4.17803e-80
2.84182e-80
2.6962e-80
3.53233e-80
5.97284e-80
1.2724e-79
3.0826e-79
8.10222e-79
2.24862e-78
5.58572e-78
7.54468e-78
7.11717e-78
4.63229e-78
3.72316e-78
4.77179e-78
6.96112e-78
1.23803e-78
4.39031e-81
1.36123e-80
9.2134e-81
6.33504e-81
6.90232e-81
1.01864e-80
1.08962e-80
7.10087e-81
2.67601e-81
1.03302e-81
4.66895e-82
2.08591e-82
8.71545e-83
4.1927e-83
2.69417e-83
2.40539e-83
3.04279e-83
5.25618e-83
1.20846e-82
3.17669e-82
8.52646e-82
2.24943e-81
5.11564e-81
6.58065e-81
6.13556e-81
4.2949e-81
3.55855e-81
4.67351e-81
6.65335e-81
1.11355e-81
1.91732e-84
6.50474e-84
7.10051e-84
5.70247e-84
7.68653e-84
1.23957e-83
1.16087e-83
6.44791e-84
2.39173e-84
9.11924e-85
3.76241e-85
1.48314e-85
5.82684e-86
2.89258e-86
2.00912e-86
1.94498e-86
2.64312e-86
4.86596e-86
1.16182e-85
3.05701e-85
7.89568e-85
1.97878e-84
4.39688e-84
5.86879e-84
5.67335e-84
4.09387e-84
3.23833e-84
3.92186e-84
4.92518e-84
7.80092e-85
1.01842e-87
1.11198e-86
9.99897e-87
8.3521e-87
1.22311e-86
1.46546e-86
9.8938e-87
4.34616e-87
1.4844e-87
4.82708e-88
1.59651e-88
5.46321e-89
2.22218e-89
1.30256e-89
1.07025e-89
1.1618e-89
1.67609e-89
3.13984e-89
7.40453e-89
1.90883e-88
4.97641e-88
1.33312e-87
3.34801e-87
5.3259e-87
5.72631e-87
4.17323e-87
3.05281e-87
3.16657e-87
3.30377e-87
5.02513e-88
2.39206e-90
2.27594e-89
1.57313e-89
1.34849e-89
1.6306e-89
1.34981e-89
7.94894e-90
3.29488e-90
1.01059e-90
2.64738e-91
7.29752e-92
2.47157e-92
1.08798e-92
6.7835e-93
5.66386e-93
6.00184e-93
8.31445e-93
1.50416e-92
3.4722e-92
9.14557e-92
2.67872e-91
8.75571e-91
2.76079e-90
5.48551e-90
6.53904e-90
4.70178e-90
3.07669e-90
2.74174e-90
2.42842e-90
3.63316e-91
4.91184e-93
1.82115e-92
1.36234e-92
1.08118e-92
1.22608e-92
1.08734e-92
7.64873e-93
3.25605e-93
8.87414e-94
2.0492e-94
5.51808e-95
1.94701e-95
8.78774e-96
5.13812e-96
3.78735e-96
3.63762e-96
4.80412e-96
8.6379e-96
2.00598e-95
5.42998e-95
1.71835e-94
6.45114e-94
2.39039e-93
5.50588e-93
6.93433e-93
4.8872e-93
2.96991e-93
2.52166e-93
2.16528e-93
3.37079e-94
1.8816e-96
8.55667e-96
1.00079e-95
8.76073e-96
1.03514e-95
1.12568e-95
8.20289e-96
2.97304e-96
6.82473e-97
1.5271e-97
4.49804e-98
1.69722e-98
7.50215e-99
4.08358e-99
2.87397e-99
2.74715e-99
3.69032e-99
6.74834e-99
1.55236e-98
3.99946e-98
1.19422e-97
4.33618e-97
1.64239e-96
4.05479e-96
5.36158e-96
4.07094e-96
2.69197e-96
2.50319e-96
2.46137e-96
4.12413e-97
1.30233e-99
1.46929e-98
1.41336e-98
1.14934e-98
1.44819e-98
1.46561e-98
7.49611e-99
1.88352e-99
3.75295e-100
9.26043e-101
3.21512e-101
1.36263e-101
6.46654e-102
3.75241e-102
2.82043e-102
2.7488e-102
3.6205e-102
6.38094e-102
1.36549e-101
3.07777e-101
7.61403e-101
2.32376e-100
8.05523e-100
2.11521e-99
3.17945e-99
3.11473e-99
2.53526e-99
2.88101e-99
3.41553e-99
5.98741e-100
2.92608e-102
2.60436e-101
1.86007e-101
1.50991e-101
1.83658e-101
1.52262e-101
4.9278e-102
9.61274e-103
2.18932e-103
6.8406e-104
2.86634e-104
1.40456e-104
7.39852e-105
4.55713e-105
3.47929e-105
3.34063e-105
4.23311e-105
7.00307e-105
1.37816e-104
2.75335e-104
5.74169e-104
1.44208e-103
4.31783e-103
1.1333e-102
2.15536e-102
2.71613e-102
2.68093e-102
3.61998e-102
4.86399e-102
8.42815e-103
4.82511e-105
2.06346e-104
1.45048e-104
1.28245e-104
1.42431e-104
9.16485e-105
2.73648e-105
6.55789e-106
1.70536e-106
5.98917e-107
2.93127e-107
1.60192e-107
8.93938e-108
5.65663e-108
4.36425e-108