/*--------------------------------*- C++ -*----------------------------------*\
| =========                 |                                                 |
| \\      /  F ield         | OpenFOAM: The Open Source CFD Toolbox           |
|  \\    /   O peration     | Version:  2312                                  |
|   \\  /    A nd           | Website:  www.openfoam.com                      |
|    \\/     M anipulation  |                                                 |
\*---------------------------------------------------------------------------*/
FoamFile
{
    version     2.0;
    format      ascii;
    arch        "LSB;label=32;scalar=64";
    class       surfaceScalarField;
    location    "1.338907018";
    object      alphaPhi0.water;
}
// * * * * * * * * * * * * * * * * * * * * * * * * * * * * * * * * * * * * * //

dimensions      [0 3 -1 0 0 0 0];

oriented        oriented;

internalField   nonuniform List<scalar> 
263100
(
-2.8265e-09
5.6527e-09
-2.8265e-09
9.40762e-10
-2.1002e-09
-1.68351e-09
2.51113e-09
-2.80395e-10
-1.30405e-09
3.56181e-09
-1.76455e-10
-8.90321e-10
4.33358e-09
-4.51553e-10
-3.39989e-10
4.97425e-09
-8.6838e-10
2.03339e-10
5.5558e-09
-1.25136e-09
6.40632e-10
5.89445e-09
-1.4396e-09
1.06751e-09
5.77127e-09
-1.30541e-09
1.39185e-09
5.08513e-09
-8.15201e-10
1.46236e-09
3.89226e-09
-1.37266e-10
1.29002e-09
2.29828e-09
6.19161e-10
9.34473e-10
6.09215e-10
1.19532e-09
4.53777e-10
-7.79911e-10
1.39379e-09
-4.40204e-11
-1.58237e-09
1.12405e-09
-3.61057e-10
-1.56626e-09
5.14816e-10
-5.72328e-10
-8.32032e-10
-2.63393e-10
-5.17423e-10
1.93297e-10
-8.82293e-10
-1.99201e-10
9.32533e-10
-1.18622e-09
3.76457e-10
8.41136e-10
-9.13903e-10
9.16354e-10
-4.29782e-10
-1.28181e-10
1.28987e-09
-2.85538e-09
9.15529e-10
1.38234e-09
-6.07944e-09
1.88991e-09
1.19434e-09
-9.1335e-09
2.17963e-09
7.33863e-10
-1.08278e-08
1.39352e-09
1.74618e-10
-9.93939e-09
-4.58455e-10
-5.25306e-10
-5.61774e-09
-3.24767e-09
-1.12458e-09
3.36264e-09
-5.81951e-09
-3.15941e-09
1.50908e-08
-7.45756e-09
-4.21955e-09
4.13505e-08
-2.6179e-08
5.58294e-10
4.51794e-09
5.58294e-10
5.06297e-10
-2.62983e-09
5.55511e-10
4.7278e-10
-7.71522e-10
4.97599e-10
4.94856e-10
-6.66062e-10
4.34752e-10
6.88598e-10
-1.12089e-09
4.35207e-10
1.05335e-09
-1.69862e-09
4.17064e-10
1.57497e-09
-2.21218e-09
3.83715e-10
2.18433e-09
-2.44637e-09
3.36762e-10
2.80719e-09
-2.28214e-09
2.90465e-10
3.33916e-09
-1.70296e-09
2.92126e-10
3.67696e-09
-8.9076e-10
3.53948e-10
3.82237e-09
-8.35188e-11
4.99145e-10
3.7135e-09
5.19888e-10
7.30303e-10
3.381e-09
6.31136e-10
1.04425e-09
2.78436e-09
3.13123e-10
1.35638e-09
1.87414e-09
-2.31368e-10
1.5991e-09
8.0229e-10
-9.9416e-10
1.7315e-09
-2.89995e-10
-1.56555e-09
1.68209e-09
-1.35844e-09
-1.67107e-09
1.43043e-09
-2.34161e-09
-1.17111e-09
1.08472e-09
-3.21151e-09
-2.12434e-10
7.68354e-10
-4.01307e-09
9.37484e-10
5.74019e-10
-4.69024e-09
1.85541e-09
5.04493e-10
-4.95143e-09
1.69e-09
5.6622e-10
-4.89478e-09
3.3672e-10
8.6418e-10
-4.97791e-09
-1.98061e-09
1.54029e-09
-5.2206e-09
-5.38218e-09
2.39678e-09
-1.53617e-09
-1.39221e-08
4.52752e-09
1.10805e-08
-2.74306e-08
7.56226e-09
4.93147e-08
3.44497e-09
1.39714e-09
1.71193e-09
1.39714e-09
-3.64729e-10
-1.54531e-09
6.61824e-10
-1.42378e-09
-2.47927e-10
5.19196e-10
-2.13235e-09
-2.45919e-10
2.676e-10
-2.58406e-09
-7.09266e-10
1.36475e-11
-2.72251e-09
-1.41699e-09
-1.74506e-10
-2.38446e-09
-2.13554e-09
-4.48619e-10
-1.551e-09
-2.64628e-09
-6.66759e-10
-2.32729e-10
-2.86812e-09
-7.60868e-10
1.42785e-09
-2.69204e-09
-6.91495e-10
3.22038e-09
-2.24783e-09
-4.43494e-10
4.81178e-09
-1.67876e-09
1.02084e-11
5.93577e-09
-1.0671e-09
4.84287e-10
6.16636e-09
-5.69991e-10
1.00489e-09
5.35275e-09
-2.24534e-10
1.39416e-09
3.61946e-09
-4.01514e-11
1.58662e-09
1.21363e-09
8.21251e-12
1.44136e-09
-1.3179e-09
-2.09785e-11
1.01007e-09
-3.35266e-09
-3.22452e-11
3.98038e-10
-4.40275e-09
6.31399e-11
-2.05488e-10
-4.32211e-09
3.04972e-10
-6.39994e-10
-3.18264e-09
6.08618e-10
-8.64558e-10
-1.28033e-09
6.75543e-10
-7.74626e-10
8.02368e-10
6.2792e-11
-4.89311e-10
2.61057e-09
-1.24715e-09
-2.24385e-10
3.44074e-09
-2.70999e-09
-5.84345e-11
1.09415e-09
-3.35776e-09
4.00228e-10
-5.69749e-09
-1.01819e-08
3.13248e-09
-3.80024e-09
-3.70758e-08
7.78817e-09
3.01402e-08
1.55333e-08
1.40842e-09
-1.11073e-09
1.40842e-09
-9.17693e-10
1.35311e-10
6.34624e-10
-2.35453e-09
7.39629e-10
4.37379e-10
-3.40622e-09
6.7681e-10
1.12733e-10
-4.1993e-09
2.20917e-10
-1.57701e-10
-4.66702e-09
-5.2969e-10
-4.42534e-10
-4.60759e-09
-1.42745e-09
-7.89001e-10
-3.92315e-09
-2.27762e-09
-1.068e-09
-2.62539e-09
-2.963e-09
-1.20561e-09
-7.96528e-10
-3.33699e-09
-1.16891e-09
1.33453e-09
-3.37775e-09
-9.63991e-10
3.37525e-09
-3.05469e-09
-6.03102e-10
4.85632e-09
-2.33354e-09
-1.28768e-10
5.44494e-09
-1.22668e-09
1.74587e-10
4.92708e-09
8.40343e-11
3.30132e-10
3.35386e-09
1.41562e-09
2.44509e-10
1.08424e-09
2.42203e-09
-1.91933e-11
-1.25128e-09
2.9105e-09
-4.79716e-10
-2.975e-09
2.73555e-09
-9.4014e-10
-3.53618e-09
2.03447e-09
-1.31807e-09
-2.6593e-09
1.07049e-09
-1.55747e-09
-4.88124e-10
1.34459e-10
-1.61136e-09
2.3437e-09
-5.97815e-10
-1.46294e-09
5.03039e-09
-1.40422e-09
-1.10669e-09
6.88894e-09
-2.31293e-09
-6.58499e-10
8.44583e-09
-3.44427e-09
-6.66987e-10
1.06961e-08
-2.8747e-09
-2.55788e-09
3.49938e-09
2.44445e-10
-3.04806e-09
-9.53527e-09
-2.13717e-08
-2.56593e-09
1.44535e-08
6.24818e-09
1.26299e-09
-3.64033e-09
1.26299e-09
-8.28493e-10
1.59592e-09
6.14905e-10
-2.1239e-09
1.54119e-09
4.76517e-10
-3.09595e-09
1.38481e-09
2.41756e-10
-3.88916e-09
1.01102e-09
-2.36598e-11
-4.47726e-09
2.48341e-10
-2.1848e-10
-4.72453e-09
-7.71629e-10
-4.3432e-10
-4.58772e-09
-1.84914e-09
-5.8232e-10
-3.98297e-09
-2.82521e-09
-7.44465e-10
-2.9136e-09
-3.61264e-09
-7.74669e-10
-1.53293e-09
-3.99317e-09
-7.21218e-10
-9.50039e-11
-3.8156e-09
-6.06622e-10
1.17028e-09
-2.98542e-09
-5.18763e-10
1.98644e-09
-1.45568e-09
-4.73439e-10
2.23253e-09
5.19034e-10
-5.55382e-10
1.81593e-09
2.67364e-09
-7.11168e-10
9.05966e-10
4.33967e-09
-8.7855e-10
-1.02901e-10
5.07325e-09
-1.0283e-09
-7.03727e-10
4.64556e-09
-1.18547e-09
-4.97871e-10
3.2802e-09
-1.32434e-09
6.36174e-10
1.50289e-09
-1.42818e-09
2.56227e-09
-1.59691e-10
-1.47589e-09
4.90675e-09
-1.31992e-09
-1.44571e-09
6.9369e-09
-1.92953e-09
-1.3114e-09
7.87906e-09
-2.01091e-09
-1.04596e-09
7.44672e-09
-2.35158e-09
-4.76282e-10
7.67751e-09
-2.43002e-09
-5.21418e-10
5.18178e-09
4.54786e-09
-1.67741e-09
-5.75072e-09
-6.56254e-09
-3.80872e-09
9.13322e-09
-4.04699e-10
7.63383e-10
-5.17559e-09
7.63383e-10
-2.40429e-10
2.12768e-09
4.42204e-10
-8.08422e-10
1.63166e-09
4.46906e-10
-1.19411e-09
1.33882e-09
3.95284e-10
-1.60754e-09
1.01484e-09
3.67624e-10
-2.07792e-09
3.51147e-10
3.22258e-10
-2.59694e-09
-5.82674e-10
2.8544e-10
-3.15979e-09
-1.61776e-09
2.92684e-10
-3.71204e-09
-2.59269e-09
2.91856e-10
-4.10274e-09
-3.44269e-09
2.07944e-10
-4.21803e-09
-3.93793e-09
6.39863e-11
-4.00238e-09
-3.93068e-09
-8.1152e-11
-3.38818e-09
-3.25602e-09
-3.12904e-10
-2.42274e-09
-1.8386e-09
-5.46663e-10
-1.22364e-09
6.8667e-11
-7.13872e-10
-4.08269e-11
2.33186e-09
-8.1141e-10
9.78005e-10
4.10711e-09
-7.62261e-10
1.78175e-09
4.92077e-09
-6.28327e-10
2.44457e-09
4.49208e-09
-4.78895e-10
3.07676e-09
3.07705e-09
-3.8034e-10
3.84151e-09
1.20378e-09
-3.89474e-10
4.7855e-09
-5.05197e-10
-4.91203e-10
5.75684e-09
-1.52846e-09
-6.29683e-10
6.48478e-09
-1.72301e-09
-7.90225e-10
6.60757e-09
-9.66026e-10
-1.0339e-09
4.9075e-09
5.94288e-10
-1.1469e-09
2.2546e-09
1.33288e-09
-1.06895e-09
1.44785e-09
7.67214e-09
-2.33086e-09
-3.89783e-09
3.48724e-09
-4.77234e-09
8.05031e-09
-2.91626e-09
-2.11314e-10
-4.77046e-09
-2.11314e-10
3.59772e-10
1.5884e-09
-7.66445e-11
1.08855e-09
8.07158e-10
5.23938e-11
1.72178e-09
4.90666e-10
1.66292e-10
2.07604e-09
2.3243e-10
3.73712e-10
1.96242e-09
-1.77281e-10
5.82861e-10
1.25081e-09
-7.16511e-10
7.83668e-10
-2.98917e-11
-1.35406e-09
9.55178e-10
-1.74255e-09
-1.99158e-09
1.05129e-09
-3.68557e-09
-2.57524e-09
1.01681e-09
-5.49613e-09
-3.02028e-09
8.33087e-10
-6.67158e-09
-3.28401e-09
4.63028e-10
-6.84063e-09
-3.17987e-09
1.51231e-11
-5.94263e-09
-2.53573e-09
-2.96307e-10
-4.17255e-09
-1.36739e-09
-4.50099e-10
-1.74595e-09
1.19281e-10
-3.49246e-10
7.71756e-10
1.5233e-09
-8.14037e-11
2.99613e-09
2.29499e-09
2.53354e-10
4.59869e-09
2.16666e-09
5.88899e-10
5.50177e-09
1.21764e-09
8.49694e-10
5.80431e-09
-1.85515e-10
1.01458e-09
5.62186e-09
-1.32582e-09
9.62323e-10
5.0951e-09
-1.83231e-09
8.06617e-10
4.10021e-09
-1.37708e-09
6.17592e-10
2.77079e-09
1.08494e-10
1.89515e-10
8.11379e-10
2.95982e-09
-5.25484e-10
-2.03293e-09
5.18661e-09
-1.19365e-09
-2.09411e-09
9.76459e-09
-2.27278e-09
-3.49151e-09
8.06526e-09
-3.46288e-09
6.24813e-09
-1.96555e-09
-1.51167e-09
-1.77181e-09
-1.51167e-09
8.37752e-10
1.46736e-10
-9.64348e-10
2.85502e-09
-4.89321e-10
-7.71811e-10
4.58069e-09
-7.48273e-10
-5.4017e-10
5.79177e-09
-8.45773e-10
-1.8948e-10
6.1896e-09
-8.13876e-10
1.79044e-10
5.53737e-09
-6.70924e-10
5.43487e-10
3.83895e-09
-5.31003e-10
8.07578e-10
1.2969e-09
-4.7679e-10
9.51224e-10
-1.70094e-09
-5.79108e-10
9.11621e-10
-4.635e-09
-9.15771e-10
7.17748e-10
-6.83617e-09
-1.65357e-09
4.29092e-10
-7.85797e-09
-2.47985e-09
1.43773e-10
-7.45956e-09
-3.09682e-09
-5.45364e-11
-5.7532e-09
-3.26329e-09
-6.42279e-11
-3.1222e-09
-2.92937e-09
1.36326e-10
-9.78438e-11
-2.25063e-09
4.55266e-10
2.73781e-09
-1.67501e-09
8.44721e-10
4.82248e-09
-1.46809e-09
1.28152e-09
5.91481e-09
-1.78693e-09
1.67471e-09
5.99782e-09
-2.40468e-09
1.92868e-09
5.28333e-09
-2.86638e-09
2.06414e-09
3.87008e-09
-2.68048e-09
2.06336e-09
1.80727e-09
-1.45249e-09
1.90536e-09
-6.56204e-10
7.22832e-10
1.55831e-09
-2.57878e-09
3.80381e-09
7.20361e-10
-4.42348e-09
6.65632e-09
-4.40261e-11
-3.22178e-09
8.52969e-09
-4.27901e-10
-1.95008e-09
6.65701e-09
-3.43469e-10
2.82042e-09
1.06084e-09
-2.35929e-09
2.91839e-09
-2.35929e-09
1.28075e-09
-1.95649e-09
-1.60925e-09
4.21657e-09
-2.05868e-09
-1.42867e-09
6.64364e-09
-2.14209e-09
-1.09292e-09
8.32946e-09
-1.87575e-09
-7.12268e-10
9.02081e-09
-1.24561e-09
-3.12804e-10
8.53627e-09
-2.73518e-10
3.47148e-11
6.87556e-09
8.72347e-10
2.0023e-10
4.26371e-09
1.75488e-09
3.09395e-10
1.13149e-09
2.13657e-09
3.20761e-10
-1.93527e-09
1.74594e-09
2.72536e-10
-4.4667e-09
5.11499e-10
1.87787e-10
-6.03132e-09
-1.33122e-09
1.87237e-10
-6.46366e-09
-3.212e-09
2.71541e-10
-5.75973e-09
-4.69074e-09
4.11044e-10
-4.10248e-09
-5.49232e-09
5.74112e-10
-1.86913e-09
-5.62609e-09
8.12354e-10
4.41437e-10
-5.37351e-09
1.07959e-09
2.45568e-09
-5.10342e-09
1.3466e-09
3.80459e-09
-4.96006e-09
1.58406e-09
4.25511e-09
-4.8356e-09
1.76111e-09
3.69444e-09
-4.4582e-09
1.92912e-09
2.23876e-09
-3.46726e-09
1.98537e-09
1.65703e-10
-1.53504e-09
1.8399e-09
-2.07323e-09
1.04875e-09
1.52666e-09
-3.433e-09
3.62446e-09
1.08692e-09
-3.5059e-09
5.18501e-09
1.04609e-09
-1.45524e-09
4.47305e-09
1.48766e-09
2.40991e-10
2.00127e-09
2.44388e-09
4.0725e-11
2.61765e-09
-2.32481e-09
7.53109e-09
-2.32481e-09
1.77696e-09
-4.777e-09
-1.38905e-09
4.83152e-09
-4.1085e-09
-1.09767e-09
7.23416e-09
-3.94528e-09
-6.83525e-10
8.76665e-09
-3.17969e-09
-2.99784e-10
9.28224e-09
-1.80852e-09
-9.92901e-12
8.86954e-09
-1.18508e-11
1.03963e-10
7.58111e-09
1.92331e-09
1.91401e-10
5.72102e-09
3.45679e-09
9.96313e-11
3.53915e-09
4.15033e-09
8.19756e-11
1.2968e-09
3.65844e-09
2.03255e-10
-7.96289e-10
2.01178e-09
4.18624e-10
-2.61756e-09
-3.97307e-10
6.66901e-10
-4.03116e-09
-2.96131e-09
9.07297e-10
-4.89963e-09
-5.15176e-09
1.05828e-09
-5.10639e-09
-6.65359e-09
1.1056e-09
-4.54418e-09
-7.41682e-09
9.98314e-10
-3.26011e-09
-7.6395e-09
7.99839e-10
-1.6106e-09
-7.52817e-09
6.44168e-10
-1.13173e-10
-7.14678e-09
5.96741e-10
8.22759e-10
-6.48034e-09
6.29284e-10
9.38034e-10
-5.31301e-09
6.41549e-10
2.66829e-10
-3.47011e-09
5.29786e-10
-7.73542e-10
-9.94926e-10
2.94692e-10
-1.64064e-09
1.63718e-09
1.39292e-11
-1.45758e-09
3.08836e-09
4.56274e-11
-1.11217e-10
2.83004e-09
6.8255e-10
1.37402e-09
1.21547e-09
1.44889e-09
1.1363e-09
1.05199e-10
1.82895e-09
1.48702e-10
8.44397e-10
-5.10345e-10
8.48957e-09
-5.10345e-10
2.47482e-09
-8.35637e-09
4.29124e-10
4.31462e-09
-6.73981e-09
6.46566e-10
5.45596e-09
-6.08477e-09
8.70156e-10
5.9189e-09
-4.79033e-09
1.0446e-09
5.80317e-09
-2.82526e-09
1.05672e-09
5.40076e-09
-5.71747e-10
9.08829e-10
4.91832e-09
1.76435e-09
5.9804e-10
4.50709e-09
3.44972e-09
3.69099e-10
4.07582e-09
4.21902e-09
2.91408e-10
3.43377e-09
3.78171e-09
4.14492e-10
2.31185e-09
2.28575e-09
7.08208e-10
5.59752e-10
1.89237e-10
9.98949e-10
-1.70706e-09
-1.97923e-09
1.10994e-09
-4.06313e-09
-3.98027e-09
1.02705e-09
-5.99417e-09
-5.53333e-09
6.96455e-10
-6.99755e-09
-6.66407e-09
1.98644e-10
-6.86589e-09
-7.44218e-09
-3.12562e-10
-5.80048e-09
-7.87639e-09
-6.42205e-10
-4.26215e-09
-7.76987e-09
-8.05484e-10
-2.80392e-09
-6.93336e-09
-8.91387e-10
-1.85716e-09
-5.25531e-09
-9.14106e-10
-1.43534e-09
-2.80935e-09
-1.03101e-09
-9.22019e-10
-4.16107e-10
-1.07789e-09
7.38794e-12
1.57372e-09
-8.73195e-10
1.35897e-09
2.10491e-09
-3.75931e-10
2.67461e-09
1.41284e-09
1.09645e-10
2.55762e-09
9.75527e-10
3.88448e-10
9.31761e-10
2.03044e-09
-2.40257e-10
2.04955e-09
-8.39724e-10
2.41789e-09
3.55007e-09
2.41789e-09
2.44721e-09
-1.14785e-08
2.87622e-09
1.83239e-09
-9.5363e-09
3.22242e-09
7.18858e-10
-8.19188e-09
3.05987e-09
-4.58065e-10
-6.40056e-09
2.66453e-09
-1.2979e-09
-4.04865e-09
1.98066e-09
-1.51288e-09
-1.53455e-09
1.12797e-09
-8.04888e-10
6.18143e-10
4.06728e-10
6.16362e-10
2.11699e-09
-1.18599e-10
2.25284e-09
2.8051e-09
-2.65759e-10
3.44031e-09
2.72894e-09
-1.98092e-10
3.50528e-09
2.1937e-09
-5.33422e-11
2.22693e-09
1.3957e-09
-1.16525e-11
-1.72209e-10
5.16117e-10
-1.6103e-10
-3.15413e-09
-4.85908e-10
-5.34729e-10
-5.93379e-09
-1.65623e-09
-1.05847e-09
-7.80159e-09
-3.1063e-09
-1.58281e-09
-8.41649e-09
-4.68303e-09
-1.97709e-09
-7.85446e-09
-6.02972e-09
-2.20308e-09
-6.54338e-09
-6.64799e-09
-2.21672e-09
-4.98052e-09
-6.2358e-09
-2.05781e-09
-3.42497e-09
-4.80008e-09
-1.83313e-09
-1.84018e-09
-2.72097e-09
-1.51459e-09
-5.29911e-11
-9.17703e-10
-1.12622e-09
1.99807e-09
1.95321e-10
-4.88489e-10
3.66248e-09
5.70814e-10
9.50852e-11
3.99409e-09
8.48854e-10
5.01373e-10
2.63059e-09
2.32289e-09
3.2035e-10
9.3904e-10
4.22966e-09
-1.78023e-10
2.92317e-09
3.75447e-10
5.14194e-09
-6.87211e-09
5.14194e-09
1.02769e-09
-1.2194e-08
4.61848e-09
-2.58191e-09
-1.01665e-08
4.06522e-09
-5.76784e-09
-8.23026e-09
3.09013e-09
-8.32403e-09
-5.86902e-09
1.9384e-09
-9.62119e-09
-3.43544e-09
6.43558e-10
-9.28802e-09
-1.39754e-09
-4.75458e-10
-7.37156e-09
1.87167e-11
-1.30285e-09
-4.24884e-09
8.54735e-10
-1.8425e-09
-8.15076e-10
1.35862e-09
-1.97617e-09
1.86446e-09
1.94808e-09
-1.89664e-09
3.04554e-09
2.86692e-09
-1.85393e-09
2.55104e-09
3.89277e-09
-1.98911e-09
7.26267e-10
4.71028e-09
-2.32543e-09
-1.75806e-09
4.83972e-09
-2.75348e-09
-4.1435e-09
3.98025e-09
-3.11616e-09
-5.86694e-09
2.12105e-09
-3.33209e-09
-6.65832e-09
-3.43911e-10
-3.3604e-09
-6.58674e-09
-2.73227e-09
-3.19194e-09
-5.92451e-09
-4.31829e-09
-2.84559e-09
-4.85205e-09
-4.77727e-09
-2.42136e-09
-3.32619e-09
-4.27983e-09
-1.96076e-09
-1.28897e-09
-3.2613e-09
-1.40881e-09
1.06305e-09
-2.38147e-09
-7.66912e-10
3.26991e-09
-1.7993e-09
-3.67109e-11
4.44526e-09
-9.93006e-10
6.21249e-10
3.97674e-09
6.76551e-10
9.18167e-10
2.67522e-09
2.98675e-09
9.4033e-10
1.63367e-09
4.24659e-09
1.3323e-09
2.83102e-09
1.93923e-09
5.06616e-09
-1.71329e-08
5.06616e-09
-2.17052e-09
-7.61822e-09
2.54507e-09
-7.93311e-09
-5.98354e-09
1.50404e-09
-1.21415e-08
-4.00755e-09
-4.4702e-11
-1.49434e-08
-1.90333e-09
-1.14926e-09
-1.57893e-08
-3.1339e-10
-2.22454e-09
-1.44416e-08
3.61636e-10
-3.03184e-09
-1.12348e-08
2.3797e-10
-3.34198e-09
-7.04147e-09
3.24545e-11
-3.28892e-09
-2.87524e-09
3.82451e-10
-3.11383e-09
2.7429e-10
1.80341e-09
-2.9312e-09
2.0638e-09
4.09785e-09
-2.9402e-09
2.407e-09
6.79522e-09
-3.14811e-09
1.74826e-09
8.92536e-09
-3.43538e-09
6.03976e-10
9.7416e-09
-3.61634e-09
-6.09987e-10
8.95091e-09
-3.60978e-09
-1.69023e-09
6.71439e-09
-3.38413e-09
-2.58009e-09
3.61248e-09
-2.98096e-09
-3.33094e-09
5.59006e-10
-2.51564e-09
-3.81729e-09
-1.73395e-09
-2.13497e-09
-3.79545e-09
-2.98008e-09
-1.89906e-09
-2.98776e-09
-3.47649e-09
-1.70057e-09
-1.34677e-09
-3.48511e-09
-1.48037e-09
7.24112e-10
-3.24272e-09
-1.22256e-09
2.41531e-09
-2.54523e-09
-9.05139e-10
2.99938e-09
-7.85275e-10
-7.1497e-10
2.68716e-09
1.86006e-09
-7.82032e-10
2.30299e-09
3.95523e-09
-5.04249e-10
1.40167e-09
4.99508e-09
2.02519e-10
4.80795e-09
-6.26989e-10
1.34692e-09
-1.98841e-08
1.34692e-09
-6.3614e-09
1.57365e-09
-1.44013e-09
-1.18236e-08
1.93171e-09
-2.3818e-09
-1.53342e-08
3.0645e-09
-3.45883e-09
-1.69493e-08
3.86571e-09
-4.02884e-09
-1.64575e-08
3.44354e-09
-4.11381e-09
-1.40236e-08
1.88023e-09
-3.82024e-09
-1.03569e-08
-3.21535e-11
-3.27474e-09
-6.4854e-09
-1.12801e-09
-2.60042e-09
-3.12301e-09
-7.50836e-10
-2.12474e-09
-6.35033e-10
1.36284e-09
-1.94045e-09
1.0553e-09
4.61643e-09
-2.09084e-09
2.21109e-09
8.12443e-09
-2.35317e-09
3.01335e-09
1.07514e-08
-2.4901e-09
3.50816e-09
1.17162e-08
-2.34333e-09
3.57145e-09
1.09079e-08
-1.93247e-09
2.96119e-09
8.70028e-09
-1.35188e-09
1.60126e-09
5.66881e-09
-7.51803e-10
-2.73783e-10
2.73712e-09
-4.34178e-10
-2.1689e-09
4.0191e-10
-4.22898e-10
-3.41299e-09
-1.23991e-09
-6.89843e-10
-3.63717e-09
-2.27392e-09
-1.14339e-09
-2.80943e-09
-2.83689e-09
-1.58696e-09
-1.54841e-09
-2.61901e-09
-1.94196e-09
-5.57173e-10
-1.26645e-09
-2.2973e-09
-8.44163e-11
1.39184e-09
-2.6811e-09
1.77058e-10
4.44857e-09
-2.91292e-09
1.10471e-10
6.6132e-09
-2.70153e-09
-5.35973e-10
8.44694e-09
-2.97267e-09
7.67022e-09
-3.60429e-09
-2.96016e-09
-1.39176e-08
-2.96016e-09
-8.50222e-09
1.21603e-08
-4.86193e-09
-1.17382e-08
1.01422e-08
-4.79409e-09
-1.31571e-08
9.44489e-09
-4.78312e-09
-1.279e-08
7.86542e-09
-4.20497e-09
-1.09344e-08
5.0065e-09
-3.28362e-09
-8.33536e-09
1.52882e-09
-2.143e-09
-5.85284e-09
-1.33068e-09
-1.10489e-09
-3.84983e-09
-2.74092e-09
-3.25151e-10
-2.45361e-09
-2.03014e-09
-5.14782e-11
-1.41169e-09
6.34429e-10
-2.35104e-10
-1.09519e-10
4.09301e-09
-6.82472e-10
1.64459e-09
7.54642e-09
-1.06881e-09
3.72419e-09
9.83242e-09
-1.06123e-09
5.50977e-09
1.06432e-08
-6.48064e-10
6.34925e-09
1.00482e-08
2.39322e-11
5.83551e-09
8.4006e-09
7.41824e-10
3.95057e-09
6.29751e-09
1.11467e-09
1.19923e-09
4.20625e-09
1.09819e-09
-1.55406e-09
2.24774e-09
7.24077e-10
-3.3775e-09
2.61917e-10
1.82702e-10
-4.09873e-09
-1.34823e-09
-2.71634e-10
-3.98522e-09
-2.31072e-09
-6.36112e-10
-3.71596e-09
-1.92227e-09
-9.20036e-10
-3.66076e-09
7.97208e-12
-1.28275e-09
-3.59437e-09
2.98095e-09
-1.64304e-09
-3.17449e-09
5.77435e-09
-1.78557e-09
-2.68762e-09
7.96155e-09
-1.93041e-09
-1.668e-09
9.69363e-09
-2.40834e-09
6.60142e-09
-7.05348e-10
-5.1321e-09
-3.5304e-09
-5.1321e-09
-6.88625e-09
1.90912e-08
-4.94964e-09
-7.22877e-09
1.48943e-08
-4.22223e-09
-6.41302e-09
1.21621e-08
-3.385e-09
-4.73246e-09
8.47479e-09
-2.1916e-09
-2.81609e-09
4.06745e-09
-9.30056e-10
-1.47286e-09
3.90943e-11
1.51945e-10
-1.08502e-09
-2.57087e-09
8.3395e-10
-1.52524e-09
-3.28606e-09
9.64871e-10
-2.22945e-09
-1.79351e-09
4.6454e-10
-2.25836e-09
9.77264e-10
-2.88526e-10
-1.12232e-09
3.89214e-09
-8.83131e-10
1.19123e-09
6.28569e-09
-9.89653e-10
3.92415e-09
7.77985e-09
-6.30816e-10
6.10404e-09
8.40096e-09
7.28183e-11
6.95571e-09
8.3988e-09
7.53418e-10
6.17458e-09
7.90638e-09
1.17899e-09
4.11277e-09
6.98935e-09
1.24542e-09
1.57587e-09
5.55035e-09
1.07926e-09
-5.35875e-10
3.45563e-09
8.42003e-10
-1.88321e-09
8.94662e-10
7.29803e-10
-2.50757e-09
-1.54276e-09
9.09719e-10
-3.04707e-09
-2.9391e-09
1.30641e-09
-3.88717e-09
-2.51658e-09
1.58015e-09
-4.84697e-09
-4.94833e-10
1.58245e-09
-5.08932e-09
1.68943e-09
1.61538e-09
-4.48496e-09
3.42205e-09
1.79664e-09
-3.214e-09
4.58797e-09
2.13057e-09
-5.96855e-10
4.24573e-09
2.85909e-09
9.09759e-10
5.18117e-09
-4.13981e-09
4.87961e-09
-4.13981e-09
-2.74089e-09
2.08612e-08
-2.99576e-09
-1.31758e-09
1.58256e-08
-2.23736e-09
4.46514e-10
1.18793e-08
-1.41912e-09
2.15968e-09
7.34798e-09
-5.81612e-10
3.16107e-09
2.96215e-09
5.99671e-11
3.04794e-09
-2.48399e-10
3.26745e-10
1.69035e-09
-1.54163e-09
2.48704e-10
-2.33992e-10
-1.16432e-09
-2.59443e-10
-1.63939e-09
3.87061e-10
-8.03476e-10
-1.8052e-09
2.29236e-09
-1.13977e-09
-4.74365e-10
3.62178e-09
-1.02241e-09
1.77127e-09
4.56595e-09
-4.78487e-10
4.01628e-09
5.27476e-09
2.94912e-10
5.35818e-09
6.08378e-09
9.81969e-10
5.45936e-09
6.94517e-09
1.32976e-09
4.50054e-09
7.5468e-09
1.28196e-09
3.09159e-09
7.32765e-09
1.04855e-09
1.8945e-09
5.93506e-09
8.33202e-10
1.18005e-09
3.37589e-09
8.72991e-10
7.10865e-10
3.00681e-10
1.19167e-09
-1.11602e-10
-2.28192e-09
1.70952e-09
-1.59139e-09
-3.39961e-09
2.06929e-09
-3.36925e-09
-2.72265e-09
2.06801e-09
-4.47657e-09
-1.33197e-09
1.98382e-09
-4.27577e-09
-7.16544e-10
2.22305e-09
-2.91548e-09
-7.9681e-10
2.88349e-09
-8.13001e-10
-1.20862e-09
3.74651e-09
9.55916e-10
-2.55387e-09
5.1297e-09
-1.85316e-09
3.84808e-09
-2.43009e-09
9.82693e-09
-2.43009e-09
3.04381e-10
1.96043e-08
-1.37042e-09
2.53636e-09
1.48904e-08
-1.23546e-09
4.33344e-09
1.10295e-08
-9.29193e-10
5.63301e-09
6.69503e-09
-6.68939e-10
5.94238e-09
3.0405e-09
-4.38695e-10
5.17496e-09
7.67346e-10
-3.0997e-10
3.60888e-09
2.82091e-10
-3.10363e-10
2.01997e-09
6.7471e-10
-2.78582e-10
9.75655e-10
1.50985e-09
-7.53984e-11
1.03902e-09
1.89139e-09
3.69309e-10
1.9739e-09
1.6094e-09
1.12697e-09
2.88824e-09
1.68062e-09
2.02434e-09
3.17047e-09
2.2437e-09
2.79588e-09
2.76067e-09
3.63262e-09
2.90095e-09
1.97047e-09
5.35863e-09
2.41995e-09
1.37622e-09
6.50136e-09
1.70347e-09
1.31028e-09
6.30183e-09
1.19139e-09
1.67462e-09
4.67039e-09
1.03771e-09
1.92244e-09
2.14349e-09
1.14099e-09
1.1757e-09
-1.48626e-10
1.33507e-09
-6.58625e-10
-1.5467e-09
1.1806e-09
-3.1027e-09
-1.42196e-09
4.6667e-10
-4.88583e-09
-4.43394e-10
-5.69975e-10
-4.98732e-09
-3.6385e-10
-9.79074e-10
-3.69262e-09
-1.3716e-09
-7.46728e-10
-1.92009e-09
-2.20737e-09
-4.32289e-10
-5.73621e-10
-2.12506e-09
-4.48031e-10
-7.91233e-10
-9.65492e-10
-1.3289e-09
1.54779e-09
-4.14158e-09
-1.41171e-09
1.27043e-08
-1.41171e-09
1.77472e-09
1.74863e-08
-9.70345e-10
4.16109e-09
1.35781e-08
-1.00144e-09
6.17364e-09
9.74554e-09
-6.79408e-10
7.54666e-09
5.54237e-09
-1.93982e-10
8.11012e-09
2.21425e-09
2.72525e-10
7.67255e-09
5.44749e-10
6.62584e-10
6.76803e-09
8.97078e-11
1.10119e-09
5.84839e-09
-2.78047e-11
1.63427e-09
5.34378e-09
-3.94802e-10
2.43085e-09
4.87849e-09
-1.003e-09
3.38856e-09
3.96891e-09
-1.87504e-09
4.42725e-09
2.23407e-09
-1.43275e-09
4.88579e-09
6.24176e-13
2.13841e-10
4.31065e-09
-1.95445e-09
2.45948e-09
3.19641e-09
-2.79322e-09
4.42513e-09
1.87387e-09
-2.27262e-09
5.20132e-09
9.22006e-10
-9.07344e-10
4.50767e-09
6.06594e-10
2.84688e-10
3.02263e-09
6.44582e-10
1.79307e-10
1.62415e-09
7.86365e-10
-1.55104e-09
1.12231e-09
5.53916e-10
-4.35936e-09
1.67337e-09
-4.07295e-10
-6.65768e-09
2.47573e-09
-1.67696e-09
-6.98952e-09
2.00541e-09
-2.23924e-09
-5.40658e-09
4.56268e-11
-2.11246e-09
-3.45405e-09
-1.55678e-09
-1.8518e-09
-2.42906e-09
-1.13386e-09
-2.13555e-09
-2.4091e-09
1.03447e-09
-3.1659e-09
-3.1173e-09
5e-09
-5.19513e-09
3.49473e-09
-4.99145e-09
-6.96964e-10
1.41624e-08
-6.96964e-10
2.84954e-09
1.41374e-08
-7.47688e-11
5.68621e-09
1.06067e-08
2.38235e-10
8.06795e-09
6.53991e-09
9.08197e-10
9.71503e-09
2.30041e-09
1.65651e-09
1.02704e-08
-5.46405e-10
2.24453e-09
1.01896e-08
-2.11005e-09
2.75506e-09
9.75182e-09
-2.72826e-09
3.25914e-09
9.06019e-09
-3.27918e-09
3.93424e-09
7.98816e-09
-3.89878e-09
4.55992e-09
5.95927e-09
-4.03004e-09
5.03924e-09
2.66176e-09
-3.24197e-09
4.65673e-09
-1.27047e-09
-9.75402e-10
3.48853e-09
-4.54605e-09
1.66527e-09
1.8725e-09
-6.37952e-09
4.25489e-09
1.31556e-10
-6.13305e-09
4.90311e-09
-5.82325e-10
-4.25627e-09
4.21661e-09
-7.1025e-10
-2.3066e-09
3.15889e-09
-4.03103e-10
-1.7461e-09
2.66278e-09
-2.08122e-11
-3.09612e-09
3.18478e-09
-8.31955e-11
-5.5373e-09
4.48434e-09
-8.65324e-10
-7.6234e-09
5.5466e-09
-1.79554e-09
-7.84428e-09
4.58043e-09
-1.92194e-09
-6.0569e-09
1.33033e-09
-1.13396e-09
-4.02636e-09
-1.974e-09
1.60851e-11
-3.14515e-09
-2.77065e-09
4.14947e-10
-3.37494e-09
-7.24582e-10
-4.86352e-11
-3.4872e-09
2.24859e-09
-9.25067e-10
-2.21826e-09
5.3981e-09
-1.45704e-09
1.27389e-09
1.91815e-10
8.3228e-10
1.25806e-08
8.3228e-10
4.90288e-09
8.30722e-09
1.8619e-09
7.90021e-09
5.18501e-09
2.4984e-09
1.00227e-08
1.26986e-09
3.19495e-09
1.08901e-08
-2.30624e-09
3.75975e-09
1.08512e-08
-4.67043e-09
4.15874e-09
1.0316e-08
-5.72439e-09
4.12493e-09
9.67356e-09
-6.09481e-09
3.97005e-09
8.61827e-09
-6.06145e-09
3.79246e-09
6.59139e-09
-5.3619e-09
3.44987e-09
3.23735e-09
-3.48516e-09
2.7875e-09
-1.06407e-09
-4.99408e-10
1.56959e-09
-5.04407e-09
3.03619e-09
2.28696e-11
-7.43318e-09
5.17798e-09
-1.01974e-09
-7.41519e-09
5.57346e-09
-1.18569e-09
-5.65475e-09
4.15056e-09
-8.23266e-10
-3.63685e-09
2.4097e-09
-1.41156e-11
-3.07729e-09
2.20906e-09
5.71382e-10
-4.38826e-09
3.51008e-09
6.0139e-10
-6.83099e-09
5.87477e-09
-1.69288e-10
-8.58571e-09
7.44138e-09
-1.17975e-09
-8.27558e-09
6.56432e-09
-1.33449e-09
-5.94199e-09
2.49663e-09
-2.47085e-10
-3.40353e-09
-2.28432e-09
1.12004e-09
-2.63474e-09
-4.91991e-09
2.27272e-09
-3.39779e-09
-3.89233e-09
2.02627e-09
-3.84664e-09
-1.46268e-09
1.37074e-09
-3.1904e-09
2.24103e-10
1.59176e-09
-6.96725e-10
7.70774e-10
2.36215e-09
-1.88325e-09
2.58878e-09
3.06096e-09
6.51486e-09
3.06096e-09
6.8533e-09
4.67053e-10
4.06285e-09
9.19855e-09
-1.81181e-09
4.64055e-09
1.01409e-08
-4.58322e-09
4.88176e-09
9.8228e-09
-6.71102e-09
4.68391e-09
8.82503e-09
-7.69533e-09
3.9813e-09
7.87181e-09
-7.99577e-09
3.18801e-09
7.05729e-09
-7.84185e-09
2.53732e-09
5.81727e-09
-6.96498e-09
2.14061e-09
3.49032e-09
-4.76719e-09
1.76053e-09
1.77867e-10
-1.30342e-09
1.19894e-09
-3.18946e-09
2.60012e-09
3.80238e-10
-5.37604e-09
5.25502e-09
1.22061e-10
-5.64534e-09
5.31643e-09
3.16654e-10
-4.20614e-09
3.18864e-09
1.14764e-09
-2.72676e-09
5.87631e-10
2.28239e-09
-2.8091e-09
-6.63628e-10
3.33094e-09
-4.89987e-09
1.10002e-09
3.33268e-09
-7.89811e-09
4.43392e-09
2.1521e-09
-9.90218e-09
7.25463e-09
6.44914e-10
-9.6459e-09
6.89947e-09
2.6216e-10
-6.89034e-09
2.81013e-09
9.54879e-10
-3.92152e-09
-2.75297e-09
2.23996e-09
-3.01528e-09
-6.49856e-09
3.28188e-09
-4.31405e-09
-6.45383e-09
2.82251e-09
-5.49467e-09
-4.10188e-09
1.3969e-09
-5.04302e-09
-3.01239e-09
1.12704e-09
-3.15798e-09
-3.30447e-09
1.68198e-09
-8.9595e-10
-3.24112e-09
1.74522e-09
-4.41561e-09
1.52776e-09
4.66524e-09
-2.82537e-09
4.66524e-09
7.24255e-09
-7.31004e-09
5.14576e-09
8.66625e-09
-8.3418e-09
5.05327e-09
8.60412e-09
-9.18476e-09
4.62196e-09
7.54628e-09
-9.52585e-09
3.85055e-09
6.35691e-09
-9.52127e-09
3.01737e-09
5.51826e-09
-9.56838e-09
2.43993e-09
4.81257e-09
-9.35876e-09
2.28005e-09
3.59254e-09
-7.96736e-09
2.3112e-09
1.49835e-09
-4.79936e-09
2.24778e-09
-9.61965e-10
-6.59571e-10
1.96769e-09
-2.61659e-09
2.70011e-09
1.72708e-09
-2.68513e-09
3.50573e-09
1.99822e-09
-1.43469e-09
1.3811e-09
2.85902e-09
-3.31737e-10
-1.76639e-09
4.00818e-09
-1.04499e-09
-3.43965e-09
4.87052e-09
-3.8403e-09
-2.15876e-09
4.38855e-09
-7.43476e-09
1.71217e-09
3.04295e-09
-9.98247e-09
5.444e-09
1.55595e-09
-9.90375e-09
5.79841e-09
1.3543e-09
-7.3747e-09
1.86027e-09
2.4547e-09
-4.64167e-09
-3.89928e-09
3.90524e-09
-4.1748e-09
-8.47031e-09
5.17707e-09
-6.27293e-09
-9.05283e-09
4.5801e-09
-8.29165e-09
-7.44554e-09
2.93906e-09
-8.4004e-09
-6.31836e-09
2.2563e-09
-7.02926e-09
-6.64186e-09
2.18295e-09
-4.82434e-09
-7.63899e-09
2.01688e-09
-1.54625e-09
-8.99828e-09
2.31045e-09
-1.07e-08
4.61897e-09
4.9963e-09
-1.28625e-08
4.9963e-09
6.55868e-09
-1.38151e-08
4.92056e-09
7.43228e-09
-1.38332e-08
4.62014e-09
7.18263e-09
-1.30086e-08
4.1019e-09
6.28718e-09
-1.20762e-08
3.49654e-09
5.42797e-09
-1.16494e-08
3.05431e-09
4.70026e-09
-1.17035e-08
2.9416e-09
3.66714e-09
-1.12849e-08
3.0479e-09
1.93172e-09
-9.0952e-09
2.96104e-09
-1.04759e-10
-5.19866e-09
2.53972e-09
-1.39872e-09
-1.19638e-09
1.93367e-09
-1.2888e-09
9.10905e-10
1.77131e-09
3.01481e-11
-1.90943e-11
2.27961e-09
1.21248e-09
-2.78697e-09
3.04082e-09
5.6502e-10
-4.64103e-09
3.56537e-09
-2.16186e-09
-3.56137e-09
2.8884e-09
-5.68707e-09
-1.18505e-10
1.52344e-09
-7.9551e-09
3.42692e-09
5.82567e-10
-7.67365e-09
4.23929e-09
9.3103e-10
-5.15428e-09
8.9248e-10
2.36715e-09
-2.92406e-09
-4.72662e-09
4.32178e-09
-3.20764e-09
-9.52388e-09
5.88146e-09
-6.40677e-09
-1.08471e-08
5.57817e-09
-9.95185e-09
-9.32043e-09
3.84567e-09
-1.09951e-08
-9.50947e-09
3.16012e-09
-9.7583e-09
-1.15083e-08
4.00941e-09
-8.36216e-09
-1.2126e-08
4.1166e-09
-4.98798e-09
-1.43733e-08
3.34103e-09
3.93739e-11
-1.95153e-08
5.48851e-09
-1.75253e-08
7.03605e-09
4.67177e-09
-2.22132e-08
4.67177e-09
5.98504e-09
-1.95839e-08
4.52766e-09
6.83681e-09
-1.87063e-08
4.10419e-09
6.95786e-09
-1.66044e-08
3.55853e-09
6.62157e-09
-1.48127e-08
3.14347e-09
6.08172e-09
-1.39248e-08
2.86516e-09
5.02974e-09
-1.33684e-08
2.74633e-09
3.13446e-09
-1.18621e-08
2.48751e-09
8.28133e-10
-8.65299e-09
1.87066e-09
-1.0337e-09
-4.49465e-09
1.15743e-09
-1.29662e-09
-1.94566e-09
1.00263e-09
5.55654e-12
-1.91004e-09
1.49943e-09
1.68311e-09
-3.98592e-09
2.26801e-09
1.90031e-09
-5.94354e-09
2.93298e-09
-6.04044e-11
-5.49228e-09
2.83869e-09
-2.91675e-09
-2.72632e-09
2.08712e-09
-4.81492e-09
2.98992e-10
1.57074e-09
-4.36314e-09
1.14453e-09
1.9138e-09
-2.11366e-09
-1.15464e-09
3.19464e-09
-4.83466e-10
-5.58206e-09
4.86038e-09
-1.51026e-09
-9.53901e-09
5.84735e-09
-5.23368e-09
-1.09797e-08
5.21628e-09
-9.54673e-09
-1.00893e-08
3.64358e-09
-1.18862e-08
-9.31521e-09
2.46047e-09
-1.12025e-08
-1.26819e-08
2.62085e-09
-9.31003e-09
-1.70318e-08
3.74693e-09
-7.45156e-09
-1.8076e-08
4.18334e-09
-3.70039e-09
-2.25731e-08
4.54624e-09
-1.30462e-10
-2.81816e-08
5.29098e-09
-1.87322e-08
1.3009e-09
4.00756e-09
-3.01731e-08
4.00756e-09
5.52656e-09
-2.46108e-08
3.62872e-09
6.76314e-09
-2.28974e-08
3.04957e-09
7.62467e-09
-1.9914e-08
2.50676e-09
8.08767e-09
-1.74436e-08
2.18248e-09
7.79633e-09
-1.57794e-08
2.12163e-09
6.3959e-09
-1.40821e-08
2.06637e-09
3.96961e-09
-1.13351e-08
1.84546e-09
1.63026e-09
-7.87366e-09
1.5112e-09
6.72663e-10
-5.16844e-09
1.59046e-09
1.30545e-09
-4.82403e-09