/*--------------------------------*- C++ -*----------------------------------*\
| =========                 |                                                 |
| \\      /  F ield         | OpenFOAM: The Open Source CFD Toolbox           |
|  \\    /   O peration     | Version:  2312                                  |
|   \\  /    A nd           | Website:  www.openfoam.com                      |
|    \\/     M anipulation  |                                                 |
\*---------------------------------------------------------------------------*/
FoamFile
{
    version     2.0;
    format      ascii;
    arch        "LSB;label=32;scalar=64";
    class       volScalarField;
    location    "1.338907018";
    object      epsilon;
}
// * * * * * * * * * * * * * * * * * * * * * * * * * * * * * * * * * * * * * //

dimensions      [0 2 -3 0 0 0 0];

internalField   nonuniform List<scalar> 
90000
(
7.99277e-06
7.99538e-06
7.99592e-06
7.9961e-06
7.99629e-06
7.99631e-06
7.99628e-06
7.99621e-06
7.99609e-06
7.99584e-06
7.99547e-06
7.99506e-06
7.99475e-06
7.99476e-06
7.99496e-06
7.99512e-06
7.99528e-06
7.9957e-06
7.99626e-06
7.99637e-06
7.99579e-06
7.995e-06
7.99591e-06
7.99805e-06
7.9999e-06
8.00065e-06
7.99984e-06
7.99877e-06
8.00185e-06
8.00818e-06
7.99674e-06
8.0526e-06
8.05783e-06
8.0579e-06
8.05766e-06
8.05753e-06
8.05755e-06
8.05761e-06
8.05759e-06
8.05751e-06
8.05754e-06
8.05776e-06
8.058e-06
8.05815e-06
8.05817e-06
8.05808e-06
8.05791e-06
8.05776e-06
8.05759e-06
8.05741e-06
8.05773e-06
8.05836e-06
8.05894e-06
8.05907e-06
8.05857e-06
8.05792e-06
8.05896e-06
8.06228e-06
8.05988e-06
8.01894e-06
7.99698e-06
8.05813e-06
8.06407e-06
8.06426e-06
8.06414e-06
8.06411e-06
8.0642e-06
8.06426e-06
8.06412e-06
8.06384e-06
8.06387e-06
8.06433e-06
8.06501e-06
8.06551e-06
8.06556e-06
8.06507e-06
8.06417e-06
8.06339e-06
8.06406e-06
8.06512e-06
8.06581e-06
8.06593e-06
8.06567e-06
8.06537e-06
8.06577e-06
8.06677e-06
8.06753e-06
8.07046e-06
8.07409e-06
8.01529e-06
7.99644e-06
8.05827e-06
8.06461e-06
8.06499e-06
8.06503e-06
8.06508e-06
8.06518e-06
8.06524e-06
8.06515e-06
8.06484e-06
8.06457e-06
8.06479e-06
8.06521e-06
8.06561e-06
8.06557e-06
8.06507e-06
8.06445e-06
8.06477e-06
8.06583e-06
8.06653e-06
8.06653e-06
8.06606e-06
8.06628e-06
8.06777e-06
8.06916e-06
8.07026e-06
8.07176e-06
8.07178e-06
8.07273e-06
8.0065e-06
7.9959e-06
8.0582e-06
8.06464e-06
8.06512e-06
8.06521e-06
8.0652e-06
8.06518e-06
8.06521e-06
8.06527e-06
8.06523e-06
8.06512e-06
8.06493e-06
8.06468e-06
8.06435e-06
8.06433e-06
8.06496e-06
8.06577e-06
8.06637e-06
8.06653e-06
8.06619e-06
8.06562e-06
8.06584e-06
8.06724e-06
8.06876e-06
8.06973e-06
8.06973e-06
8.06921e-06
8.06959e-06
8.065e-06
8.00182e-06
7.99586e-06
8.05832e-06
8.06458e-06
8.06504e-06
8.06512e-06
8.06502e-06
8.06489e-06
8.06488e-06
8.06502e-06
8.06526e-06
8.06552e-06
8.06578e-06
8.06591e-06
8.06572e-06
8.06547e-06
8.06572e-06
8.06621e-06
8.06642e-06
8.06618e-06
8.06574e-06
8.06568e-06
8.06626e-06
8.06709e-06
8.06769e-06
8.06794e-06
8.06777e-06
8.06689e-06
8.07007e-06
8.06412e-06
8.00139e-06
7.99632e-06
8.0586e-06
8.0648e-06
8.06542e-06
8.06575e-06
8.06593e-06
8.06585e-06
8.06549e-06
8.06507e-06
8.06513e-06
8.06568e-06
8.06647e-06
8.06716e-06
8.06738e-06
8.06688e-06
8.06592e-06
8.06515e-06
8.06502e-06
8.06541e-06
8.06592e-06
8.06632e-06
8.06647e-06
8.0662e-06
8.06555e-06
8.0653e-06
8.06698e-06
8.06928e-06
8.07235e-06
8.06639e-06
8.00077e-06
7.99655e-06
8.05959e-06
8.06575e-06
8.06654e-06
8.06711e-06
8.06754e-06
8.06768e-06
8.0673e-06
8.06637e-06
8.06526e-06
8.06555e-06
8.06644e-06
8.06728e-06
8.06761e-06
8.06707e-06
8.06575e-06
8.06412e-06
8.06369e-06
8.06489e-06
8.06589e-06
8.06632e-06
8.06612e-06
8.06534e-06
8.06473e-06
8.06576e-06
8.06822e-06
8.07055e-06
8.07186e-06
8.06498e-06
7.99941e-06
7.99705e-06
8.06119e-06
8.06707e-06
8.06774e-06
8.06833e-06
8.06879e-06
8.06897e-06
8.06875e-06
8.06806e-06
8.06703e-06
8.06613e-06
8.06607e-06
8.06628e-06
8.06648e-06
8.06648e-06
8.0662e-06
8.06576e-06
8.06546e-06
8.06565e-06
8.06604e-06
8.06615e-06
8.06577e-06
8.06507e-06
8.06507e-06
8.06669e-06
8.06871e-06
8.07011e-06
8.06986e-06
8.06263e-06
7.99818e-06
7.9992e-06
8.06203e-06
8.06748e-06
8.06794e-06
8.06825e-06
8.06848e-06
8.06867e-06
8.06881e-06
8.06879e-06
8.0685e-06
8.06775e-06
8.06649e-06
8.06524e-06
8.065e-06
8.06587e-06
8.06708e-06
8.068e-06
8.06843e-06
8.06844e-06
8.06811e-06
8.06749e-06
8.0666e-06
8.06568e-06
8.06544e-06
8.06665e-06
8.06784e-06
8.06823e-06
8.06737e-06
8.06076e-06
7.99761e-06
8.00097e-06
8.06207e-06
8.06712e-06
8.06732e-06
8.06708e-06
8.06669e-06
8.06658e-06
8.06707e-06
8.06786e-06
8.06843e-06
8.06831e-06
8.06738e-06
8.0659e-06
8.06485e-06
8.06552e-06
8.06736e-06
8.06918e-06
8.07048e-06
8.07117e-06
8.07097e-06
8.07002e-06
8.06855e-06
8.067e-06
8.066e-06
8.0663e-06
8.06683e-06
8.06716e-06
8.06681e-06
8.0606e-06
7.99824e-06
8.00088e-06
8.06315e-06
8.06796e-06
8.06779e-06
8.06718e-06
8.06641e-06
8.0659e-06
8.06609e-06
8.06666e-06
8.06726e-06
8.06757e-06
8.06744e-06
8.06669e-06
8.06538e-06
8.06475e-06
8.06684e-06
8.06946e-06
8.07147e-06
8.07243e-06
8.07222e-06
8.07106e-06
8.06935e-06
8.06746e-06
8.06592e-06
8.06595e-06
8.06675e-06
8.06739e-06
8.06729e-06
8.06187e-06
7.99908e-06
8.00002e-06
8.06441e-06
8.06938e-06
8.06966e-06
8.07027e-06
8.07087e-06
8.07118e-06
8.07092e-06
8.06976e-06
8.06808e-06
8.06732e-06
8.06787e-06
8.06821e-06
8.06802e-06
8.06772e-06
8.06825e-06
8.0694e-06
8.07028e-06
8.07055e-06
8.07026e-06
8.06953e-06
8.06848e-06
8.06719e-06
8.06611e-06
8.06632e-06
8.06704e-06
8.06756e-06
8.0678e-06
8.06239e-06
7.99954e-06
8.00352e-06
8.06407e-06
8.07039e-06
8.07199e-06
8.07414e-06
8.0758e-06
8.07629e-06
8.07519e-06
8.07269e-06
8.06966e-06
8.06754e-06
8.06814e-06
8.06963e-06
8.07088e-06
8.07149e-06
8.07133e-06
8.07026e-06
8.0684e-06
8.0668e-06
8.06654e-06
8.06711e-06
8.06749e-06
8.0674e-06
8.06707e-06
8.06702e-06
8.06724e-06
8.06775e-06
8.06814e-06
8.06239e-06
8.00017e-06
8.00746e-06
8.06207e-06
8.07225e-06
8.07528e-06
8.07751e-06
8.07831e-06
8.07745e-06
8.07517e-06
8.0721e-06
8.06905e-06
8.06687e-06
8.06755e-06
8.06986e-06
8.07201e-06
8.07308e-06
8.07275e-06
8.07106e-06
8.06844e-06
8.06592e-06
8.06486e-06
8.06596e-06
8.06731e-06
8.06804e-06
8.06808e-06
8.06771e-06
8.0679e-06
8.06897e-06
8.06955e-06
8.06435e-06
8.00246e-06
8.00828e-06
8.06813e-06
8.07605e-06
8.07761e-06
8.07777e-06
8.07643e-06
8.07402e-06
8.07147e-06
8.06941e-06
8.06772e-06
8.06634e-06
8.06699e-06
8.0694e-06
8.07164e-06
8.07276e-06
8.07255e-06
8.07143e-06
8.06969e-06
8.06777e-06
8.06634e-06
8.06633e-06
8.06743e-06
8.0684e-06
8.06867e-06
8.06873e-06
8.06949e-06
8.07072e-06
8.0719e-06
8.06785e-06
8.00453e-06
8.00594e-06
8.07462e-06
8.07887e-06
8.07794e-06
8.07557e-06
8.07239e-06
8.06943e-06
8.06854e-06
8.06866e-06
8.06808e-06
8.06725e-06
8.0678e-06
8.06941e-06
8.07091e-06
8.07169e-06
8.07185e-06
8.07143e-06
8.07041e-06
8.06904e-06
8.06784e-06
8.06738e-06
8.06769e-06
8.06834e-06
8.06892e-06
8.06961e-06
8.0708e-06
8.07216e-06
8.07334e-06
8.06821e-06
8.00409e-06
8.00471e-06
8.07767e-06
8.08023e-06
8.07805e-06
8.07503e-06
8.07205e-06
8.07015e-06
8.06939e-06
8.06911e-06
8.0685e-06
8.06848e-06
8.06868e-06
8.06907e-06
8.06953e-06
8.07e-06
8.07047e-06
8.07068e-06
8.07048e-06
8.06989e-06
8.06914e-06
8.06843e-06
8.06848e-06
8.06909e-06
8.06975e-06
8.07086e-06
8.07213e-06
8.07306e-06
8.07318e-06
8.06667e-06
8.00336e-06
8.00816e-06
8.07846e-06
8.08137e-06
8.07927e-06
8.07676e-06
8.0747e-06
8.07319e-06
8.0718e-06
8.07028e-06
8.06918e-06
8.06865e-06
8.06813e-06
8.06782e-06
8.0677e-06
8.0679e-06
8.06851e-06
8.06931e-06
8.06989e-06
8.06999e-06
8.0696e-06
8.06909e-06
8.0693e-06
8.06993e-06
8.07155e-06
8.07344e-06
8.07428e-06
8.07425e-06
8.07344e-06
8.06695e-06
8.0042e-06
8.01186e-06
8.07848e-06
8.08218e-06
8.08039e-06
8.07839e-06
8.07691e-06
8.07571e-06
8.07431e-06
8.07271e-06
8.07116e-06
8.06977e-06
8.06841e-06
8.06716e-06
8.0662e-06
8.06609e-06
8.06706e-06
8.06838e-06
8.0693e-06
8.06969e-06
8.06969e-06
8.06987e-06
8.07099e-06
8.07346e-06
8.07572e-06
8.07655e-06
8.07628e-06
8.07588e-06
8.07549e-06
8.07029e-06
8.00715e-06
8.015e-06
8.07811e-06
8.0824e-06
8.08114e-06
8.07997e-06
8.07915e-06
8.07821e-06
8.07688e-06
8.07523e-06
8.07338e-06
8.07138e-06
8.06924e-06
8.06736e-06
8.06667e-06
8.06721e-06
8.06822e-06
8.06915e-06
8.06974e-06
8.07037e-06
8.07136e-06
8.07316e-06
8.07572e-06
8.07772e-06
8.07811e-06
8.07733e-06
8.07683e-06
8.07686e-06
8.07716e-06
8.07234e-06
8.00935e-06
8.01736e-06
8.07791e-06
8.08321e-06
8.08273e-06
8.08214e-06
8.08143e-06
8.08028e-06
8.07872e-06
8.07686e-06
8.0747e-06
8.07223e-06
8.06996e-06
8.06904e-06
8.06954e-06
8.06973e-06
8.06959e-06
8.06966e-06
8.07049e-06
8.07224e-06
8.07478e-06
8.07771e-06
8.0797e-06
8.07977e-06
8.07869e-06
8.07842e-06
8.07886e-06
8.07946e-06
8.07976e-06
8.0742e-06
8.01247e-06
8.01906e-06
8.07895e-06
8.08529e-06
8.08539e-06
8.0848e-06
8.08362e-06
8.08198e-06
8.0801e-06
8.07806e-06
8.07585e-06
8.07368e-06
8.07209e-06
8.07176e-06
8.07081e-06
8.06943e-06
8.06868e-06
8.06938e-06
8.07158e-06
8.07483e-06
8.07836e-06
8.0808e-06
8.08125e-06
8.08048e-06
8.08049e-06
8.08136e-06
8.08252e-06
8.08345e-06
8.08359e-06
8.07791e-06
8.0165e-06
8.02164e-06
8.08273e-06
8.08914e-06
8.08913e-06
8.08805e-06
8.08635e-06
8.08446e-06
8.08259e-06
8.08061e-06
8.07837e-06
8.07605e-06
8.07442e-06
8.0728e-06
8.07036e-06
8.06826e-06
8.06845e-06
8.07026e-06
8.0735e-06
8.0776e-06
8.08068e-06
8.08188e-06
8.08195e-06
8.08276e-06
8.08429e-06
8.08604e-06
8.08766e-06
8.08854e-06
8.08878e-06
8.08284e-06
8.02193e-06
8.0275e-06
8.08875e-06
8.0947e-06
8.09417e-06
8.09258e-06
8.0907e-06
8.08889e-06
8.08698e-06
8.08464e-06
8.08185e-06
8.07891e-06
8.07631e-06
8.07343e-06
8.07067e-06
8.06958e-06
8.06984e-06
8.07176e-06
8.07566e-06
8.07916e-06
8.08111e-06
8.0824e-06
8.08469e-06
8.0871e-06
8.08925e-06
8.09162e-06
8.09329e-06
8.09439e-06
8.09499e-06
8.08981e-06
8.02944e-06
8.03578e-06
8.09673e-06
8.10198e-06
8.10081e-06
8.09893e-06
8.097e-06
8.09501e-06
8.09261e-06
8.08963e-06
8.08622e-06
8.08264e-06
8.07904e-06
8.0757e-06
8.0734e-06
8.07169e-06
8.07114e-06
8.07325e-06
8.07675e-06
8.07968e-06
8.08266e-06
8.08638e-06
8.08959e-06
8.09215e-06
8.0949e-06
8.09736e-06
8.09934e-06
8.10102e-06
8.10276e-06
8.09966e-06
8.03639e-06
8.04653e-06
8.1062e-06
8.11086e-06
8.10932e-06
8.10727e-06
8.10502e-06
8.1024e-06
8.09921e-06
8.09555e-06
8.09143e-06
8.08718e-06
8.08322e-06
8.08007e-06
8.07738e-06
8.07445e-06
8.07331e-06
8.07525e-06
8.07888e-06
8.08343e-06
8.0881e-06
8.0919e-06
8.09522e-06
8.09854e-06
8.1017e-06
8.10448e-06
8.10742e-06
8.10994e-06
8.11231e-06
8.10807e-06
8.04489e-06
8.05881e-06
8.1172e-06
8.12174e-06
8.11995e-06
8.11746e-06
8.11454e-06
8.11106e-06
8.10704e-06
8.10263e-06
8.09799e-06
8.09345e-06
8.08958e-06
8.08609e-06
8.08199e-06
8.07788e-06
8.07676e-06
8.0795e-06
8.08434e-06
8.08962e-06
8.09435e-06
8.09861e-06
8.10304e-06
8.10689e-06
8.11059e-06
8.11419e-06
8.11815e-06
8.12139e-06
8.12231e-06
8.11726e-06
8.05701e-06
8.0724e-06
8.13033e-06
8.13455e-06
8.1324e-06
8.12944e-06
8.12584e-06
8.12163e-06
8.11692e-06
8.11186e-06
8.10664e-06
8.10168e-06
8.09718e-06
8.09213e-06
8.08646e-06
8.08175e-06
8.08113e-06
8.08492e-06
8.09051e-06
8.09641e-06
8.10208e-06
8.10734e-06
8.11263e-06
8.11756e-06
8.12228e-06
8.12661e-06
8.13123e-06
8.13465e-06
8.13461e-06
8.13022e-06
8.07248e-06
8.08827e-06
8.14588e-06
8.1499e-06
8.14744e-06
8.14397e-06
8.13978e-06
8.13491e-06
8.12945e-06
8.12352e-06
8.11733e-06
8.11134e-06
8.10518e-06
8.09824e-06
8.09127e-06
8.08624e-06
8.08616e-06
8.09078e-06
8.09711e-06
8.10401e-06
8.11106e-06
8.11756e-06
8.12404e-06
8.13054e-06
8.13641e-06
8.14121e-06
8.14596e-06
8.14974e-06
8.15062e-06
8.1481e-06
8.08961e-06
8.10766e-06
8.16493e-06
8.16872e-06
8.16586e-06
8.16177e-06
8.15687e-06
8.15117e-06
8.14482e-06
8.13774e-06
8.1302e-06
8.12259e-06
8.11448e-06
8.10589e-06
8.09788e-06
8.09247e-06
8.09259e-06
8.09797e-06
8.10535e-06
8.1135e-06
8.12213e-06
8.13035e-06
8.1383e-06
8.14605e-06
8.15275e-06
8.15819e-06
8.16287e-06
8.16774e-06
8.17109e-06
8.16799e-06
8.10936e-06
8.1315e-06
8.18833e-06
8.19174e-06
8.18834e-06
8.18352e-06
8.17775e-06
8.17107e-06
8.16356e-06
8.15515e-06
8.14602e-06
8.1364e-06
8.1263e-06
8.1161e-06
8.10696e-06
8.10074e-06
8.10075e-06
8.10699e-06
8.11608e-06
8.12575e-06
8.13591e-06
8.1461e-06
8.15557e-06
8.16393e-06
8.17185e-06
8.17827e-06
8.18357e-06
8.18993e-06
8.19469e-06
8.19069e-06
8.13363e-06
8.16065e-06
8.21681e-06
8.21977e-06
8.21581e-06
8.2101e-06
8.20321e-06
8.19524e-06
8.18625e-06
8.17622e-06
8.16517e-06
8.15334e-06
8.14116e-06
8.12928e-06
8.11882e-06
8.11159e-06
8.11151e-06
8.11864e-06
8.12971e-06
8.14116e-06
8.15289e-06
8.16498e-06
8.1757e-06
8.18518e-06
8.19475e-06
8.20282e-06
8.2093e-06
8.21688e-06
8.2218e-06
8.21831e-06
8.16291e-06
8.19625e-06
8.2515e-06
8.25392e-06
8.24919e-06
8.24231e-06
8.23394e-06
8.22427e-06
8.21344e-06
8.20146e-06
8.18834e-06
8.17446e-06
8.16037e-06
8.14658e-06
8.13436e-06
8.12597e-06
8.12606e-06
8.13395e-06
8.14676e-06
8.16033e-06
8.17385e-06
8.18756e-06
8.20054e-06
8.21186e-06
8.22307e-06
8.23291e-06
8.24116e-06
8.24928e-06
8.25443e-06
8.25184e-06
8.19775e-06
8.23952e-06
8.29347e-06
8.29512e-06
8.28922e-06
8.28088e-06
8.27083e-06
8.25935e-06
8.24653e-06
8.23251e-06
8.21729e-06
8.20126e-06
8.18488e-06
8.16864e-06
8.15417e-06
8.1444e-06
8.14518e-06
8.15415e-06
8.16851e-06
8.18453e-06
8.20033e-06
8.21624e-06
8.2322e-06
8.24543e-06
8.25816e-06
8.27021e-06
8.28041e-06
8.28857e-06
8.29431e-06
8.29238e-06
8.23975e-06
8.29176e-06
8.34376e-06
8.34435e-06
8.33717e-06
8.32749e-06
8.31591e-06
8.30263e-06
8.28771e-06
8.2714e-06
8.25371e-06
8.23495e-06
8.21572e-06
8.19666e-06
8.18016e-06
8.16902e-06
8.17046e-06
8.18114e-06
8.19725e-06
8.21596e-06
8.23492e-06
8.25334e-06
8.27202e-06
8.28741e-06
8.30204e-06
8.31669e-06
8.32787e-06
8.33646e-06
8.34279e-06
8.34175e-06
8.29129e-06
8.35466e-06
8.40417e-06
8.40376e-06
8.39556e-06
8.38471e-06
8.37158e-06
8.35627e-06
8.33896e-06
8.31998e-06
8.29945e-06
8.27759e-06
8.25546e-06
8.23374e-06
8.21572e-06
8.20297e-06
8.20406e-06
8.21647e-06
8.23483e-06
8.25643e-06
8.27922e-06
8.30015e-06
8.32128e-06
8.33924e-06
8.35653e-06
8.37293e-06
8.38526e-06
8.39497e-06
8.40255e-06
8.40305e-06
8.35479e-06
8.43059e-06
8.47744e-06
8.47629e-06
8.46712e-06
8.45473e-06
8.43956e-06
8.42187e-06
8.4019e-06
8.38013e-06
8.35668e-06
8.33173e-06
8.30685e-06
8.28228e-06
8.2622e-06
8.24769e-06
8.24752e-06
8.26145e-06
8.28318e-06
8.30786e-06
8.33401e-06
8.35757e-06
8.38136e-06
8.40265e-06
8.42265e-06
8.44072e-06
8.45476e-06
8.4668e-06
8.47627e-06
8.47807e-06
8.43213e-06
8.52222e-06
8.56685e-06
8.56458e-06
8.55382e-06
8.53938e-06
8.52182e-06
8.50157e-06
8.47883e-06
8.45405e-06
8.42747e-06
8.39926e-06
8.37135e-06
8.34344e-06
8.32005e-06
8.30407e-06
8.30315e-06
8.31882e-06
8.34423e-06
8.3723e-06
8.40098e-06
8.4276e-06
8.45459e-06
8.47957e-06
8.502e-06
8.52223e-06
8.53918e-06
8.55364e-06
8.56481e-06
8.56784e-06
8.52417e-06
8.63307e-06
8.67511e-06
8.67103e-06
8.65847e-06
8.64205e-06
8.6222e-06
8.5992e-06
8.57343e-06
8.54527e-06
8.51527e-06
8.48354e-06
8.45189e-06
8.42133e-06
8.39362e-06
8.37598e-06
8.37536e-06
8.39324e-06
8.42131e-06
8.45302e-06
8.48409e-06
8.51469e-06
8.54526e-06
8.57374e-06
8.59884e-06
8.62193e-06
8.6421e-06
8.65838e-06
8.67114e-06
8.67607e-06
8.63383e-06
8.76679e-06
8.80608e-06
8.80034e-06
8.78641e-06
8.76797e-06
8.74534e-06
8.71913e-06
8.69034e-06
8.659e-06
8.6257e-06
8.59085e-06
8.55472e-06
8.52226e-06
8.49016e-06
8.46982e-06
8.46955e-06
8.49041e-06
8.52072e-06
8.55613e-06
8.59027e-06
8.62534e-06
8.65907e-06
8.69054e-06
8.71908e-06
8.74479e-06
8.7678e-06
8.78638e-06
8.80082e-06
8.80756e-06
8.76623e-06
8.92912e-06
8.96722e-06
8.95946e-06
8.94314e-06
8.9216e-06
8.89568e-06
8.86657e-06
8.83494e-06
8.80055e-06
8.76372e-06
8.72625e-06
8.68593e-06
8.65126e-06
8.6157e-06
8.59199e-06
8.59274e-06
8.61695e-06
8.64953e-06
8.6881e-06
8.72592e-06
8.7645e-06
8.80073e-06
8.83475e-06
8.8674e-06
8.89579e-06
8.92113e-06
8.94303e-06
8.95994e-06
8.96868e-06
8.92805e-06
9.12887e-06
9.16715e-06
9.15487e-06
9.13493e-06
9.11022e-06
9.08109e-06
9.04888e-06
9.01392e-06
8.97633e-06
8.93639e-06
8.89711e-06
8.85471e-06
8.81663e-06
8.77882e-06
8.7528e-06
8.75433e-06
8.78055e-06
8.81608e-06
8.8563e-06
8.89684e-06
8.93767e-06
8.9769e-06
9.01395e-06
9.04922e-06
9.08167e-06
9.11032e-06
9.13535e-06
9.15654e-06
9.16829e-06
9.12528e-06
9.37772e-06
9.41918e-06
9.40027e-06
9.37623e-06
9.34707e-06
9.31394e-06
9.27826e-06
9.23935e-06
9.19867e-06
9.15834e-06
9.11825e-06
9.07713e-06
9.03959e-06
9.00331e-06
8.97883e-06
8.98195e-06
9.00488e-06
9.03959e-06
9.07829e-06
9.11821e-06
9.15894e-06
9.19939e-06
9.23982e-06
9.2765e-06
9.31313e-06
9.34809e-06
9.37703e-06
9.40185e-06
9.41951e-06
9.37112e-06
9.69982e-06
9.76039e-06
9.72992e-06
9.70076e-06
9.66253e-06
9.62144e-06
9.58093e-06
9.53869e-06
9.50009e-06
9.46859e-06
9.4446e-06
9.43604e-06
9.44627e-06
9.45669e-06
9.47403e-06
9.48627e-06
9.4614e-06
9.44515e-06
9.43937e-06
9.4471e-06
9.46915e-06
9.50053e-06
9.54022e-06
9.58e-06
9.61843e-06
9.66352e-06
9.70339e-06
9.73e-06
9.75987e-06
9.69174e-06
1.02042e-05
1.03634e-05
1.0298e-05
1.03056e-05
1.02132e-05
1.0137e-05
1.01123e-05
1.00729e-05
1.00636e-05
1.01321e-05
1.03002e-05
1.06431e-05
1.11723e-05
1.17087e-05
1.21869e-05
1.22592e-05
1.17318e-05
1.11761e-05
1.06705e-05
1.03055e-05
1.01365e-05
1.0067e-05
1.00704e-05
1.01145e-05
1.01369e-05
1.02112e-05
1.03114e-05
1.03019e-05
1.03687e-05
1.01898e-05
1.15404e-05
1.22403e-05
1.20296e-05
1.2622e-05
1.19734e-05
1.17419e-05
1.20675e-05
1.19855e-05
1.22292e-05
1.32748e-05
1.51379e-05
1.86515e-05
2.43654e-05
3.02293e-05
3.44859e-05
3.49949e-05
3.04105e-05
2.448e-05
1.89131e-05
1.51728e-05
1.33055e-05
1.22467e-05
1.19844e-05
1.20814e-05
1.17421e-05
1.19673e-05
1.26515e-05
1.20408e-05
1.22801e-05
1.15026e-05
1.70763e-05
2.08533e-05
1.99575e-05
2.61673e-05
2.1253e-05
2.09757e-05
2.53729e-05
2.48073e-05
2.73815e-05
3.65717e-05
5.51737e-05
8.59193e-05
0.000133453
0.000182827
0.000216789
0.000217027
0.000183589
0.000134746
8.72422e-05
5.53814e-05
3.67851e-05
2.74628e-05
2.48479e-05
2.54907e-05
2.10114e-05
2.12527e-05
2.64216e-05
2.00033e-05
2.11006e-05
1.69421e-05
4.09928e-05
6.01605e-05
6.16973e-05
0.000100903
8.43817e-05
9.45694e-05
0.000131506
0.000138988
0.000177588
0.000275509
0.000421357
0.000587813
0.000831425
0.00102638
0.00113917
0.0011357
0.00102575
0.000837207
0.000592398
0.000420778
0.000276385
0.000177564
0.00014012
0.000132199
9.54802e-05
8.4936e-05
0.000103075
6.23081e-05
6.12406e-05
4.06597e-05
0.000122105
0.000219496
0.000252176
0.000426567
0.000470422
0.000576145
0.000711159
0.000898191
0.00113782
0.00137627
0.00168004
0.00190716
0.00228103
0.00255855
0.00254562
0.00254773
0.00255283
0.00229613
0.0019146
0.00165362
0.00135987
0.00113844
0.000912451
0.00071412
0.000583631
0.000475721
0.000438305
0.000258333
0.000221585
0.000122464
0.00032557
0.000588294
0.000757069
0.00122008
0.00150311
0.00186173
0.00231393
0.00297375
0.00330887
0.0036109
0.00386121
0.00402788
0.00420922
0.00474536
0.00458134
0.00451741
0.00468197
0.00422258
0.00396912
0.0037991
0.00358494
0.00332035
0.00295859
0.00230878
0.0018861
0.00152685
0.00126166
0.000763509
0.000588658
0.000329661
0.000635326
0.000736971
0.000973227
0.00159827
0.00203667
0.00265244
0.00312979
0.00369158
0.00444271
0.00484409
0.00507933
0.00491644
0.00510529
0.00567172
0.00550697
0.00542564
0.00565769
0.00507337
0.0048268
0.0049055
0.0048151
0.00452575
0.00370446
0.00314514
0.0027019
0.00215364
0.0016396
0.000989687
0.000731158
0.000633587
0.000775578
0.000803737
0.00106616
0.0016343
0.00192595
0.0025449
0.00324191
0.00407943
0.00453968
0.00480103
0.00446955
0.00449969
0.0044219
0.00466999
0.00468423
0.00461181
0.00468627
0.00452433
0.00446312
0.00445993
0.00501199
0.00481182
0.00426899
0.00329238
0.00255231
0.00200705
0.00169675
0.0010808
0.000786082
0.000785309
0.000657904
0.000798783
0.0010889
0.00172778
0.00199281
0.0020836
0.0024526
0.00292727
0.00308191
0.0033517
0.00331357
0.00354256
0.00353221
0.00370097
0.00407601
0.00410618
0.00373459
0.00354479
0.00360478
0.00334574
0.00344618
0.0032195
0.00308404
0.0025654
0.00217235
0.00205794
0.00177629
0.00110774
0.000803366
0.000686178
0.000435993
0.000571571
0.000894388
0.00130638
0.00130987
0.00125069
0.00150216
0.00171891
0.00182245
0.00211457
0.00226324
0.00255602
0.00267331
0.00281057
0.00322569
0.00322427
0.00280594
0.00271424
0.00261808
0.00228285
0.00217732
0.00189774
0.00185209
0.00158166
0.00130105
0.00132373
0.00132631
0.000911295
0.000578894
0.000450159
0.000298247
0.000350988
0.000488161
0.000717711
0.000617734
0.000623535
0.000819656
0.000988191
0.00116727
0.00135968
0.00137963
0.0014635
0.00148016
0.00162546
0.00176714
0.00176514
0.00164498
0.00149764
0.00145284
0.00136109
0.00139883
0.00119799
0.00101944
0.000846963
0.000641985
0.000625145
0.000719404
0.000492914
0.000356697
0.000299655
0.000211535
0.000233924
0.000267595
0.000349642
0.000305778
0.000280559
0.000358653
0.000489105
0.000680704
0.00091847
0.00107459
0.00114219
0.00114634
0.00118762
0.00119122
0.00118297
0.00119544
0.0011493
0.00113067
0.00105359
0.000918168
0.000686749
0.000496891
0.000366827
0.000286456
0.000310873
0.000356104
0.000270393
0.000236953
0.000213597
0.000155953
0.000162377
0.000168054
0.000187665
0.000178228
0.000165217
0.000177354
0.000217351
0.000308054
0.000476795
0.000682995
0.000898054
0.00104321
0.00112058
0.00111605
0.00110883
0.00112387
0.00104829
0.000892733
0.000674823
0.000475699
0.00030877
0.000219574
0.000179916
0.000167683
0.000181218
0.000191391
0.0001694
0.000163892
0.000157071
0.000121437
0.000119024
0.000119027
0.000121262
0.000119659
0.000117341
0.000119963
0.000128448
0.000151837
0.000213224
0.000334255
0.000517562
0.000738288
0.000929123
0.00100293
0.000999547
0.000931251
0.000741201
0.00051684
0.000332489
0.000213711
0.000152405
0.000129492
0.00012069
0.000118576
0.000121312
0.000122862
0.000119755
0.00012011
0.000121971
9.77542e-05
9.34348e-05
9.21588e-05
9.18105e-05
9.16775e-05
9.17791e-05
9.32461e-05
9.62688e-05
0.00010235
0.000117277
0.000154621
0.000236002
0.000368139
0.000529578
0.000650519
0.000648082
0.000530064
0.000369805
0.000236312
0.000154569
0.00011794
0.000102756
9.67981e-05
9.36294e-05
9.22328e-05
9.2238e-05
9.24153e-05
9.28738e-05
9.41128e-05
9.81986e-05
8.08006e-05
7.69442e-05
7.573e-05
7.5608e-05
7.57441e-05
7.64205e-05
7.77179e-05
7.92611e-05
8.13977e-05
8.50595e-05
9.32943e-05
0.000113007
0.000153391
0.000215095
0.000277868
0.000277277
0.00021501
0.000153716
0.000113079
9.35905e-05
8.54896e-05
8.17019e-05
7.95693e-05
7.79869e-05
7.68156e-05
7.61998e-05
7.57577e-05
7.61871e-05
7.74114e-05
8.13637e-05
6.85956e-05
6.47024e-05
6.38411e-05
6.38843e-05
6.43286e-05
6.51539e-05
6.62868e-05
6.72711e-05
6.83276e-05
6.93691e-05
7.08975e-05
7.4173e-05
8.12991e-05
9.39513e-05
0.000108696
0.000108663
9.40286e-05
8.14969e-05
7.43335e-05
7.1198e-05
6.96244e-05
6.85285e-05
6.75329e-05
6.65093e-05
6.54946e-05
6.46391e-05
6.41514e-05
6.4159e-05
6.52521e-05
6.92551e-05
5.94591e-05
5.53163e-05
5.46009e-05
5.47528e-05
5.52436e-05
5.59971e-05
5.68165e-05
5.7385e-05
5.78768e-05
5.81018e-05
5.81499e-05
5.82597e-05
5.87903e-05
6.00843e-05
6.18714e-05
6.18517e-05
6.01761e-05
5.89688e-05
5.84866e-05
5.83884e-05
5.82516e-05
5.80131e-05
5.76108e-05
5.69467e-05
5.61662e-05
5.53984e-05
5.50311e-05
5.49014e-05
5.58446e-05
5.99509e-05
5.18888e-05
4.78146e-05
4.70858e-05
4.72761e-05
4.77263e-05
4.83036e-05
4.87338e-05
4.89846e-05
4.90411e-05
4.87966e-05
4.83824e-05
4.79073e-05
4.73964e-05
4.69606e-05
4.6747e-05
4.67393e-05
4.70407e-05
4.75033e-05
4.80563e-05
4.8564e-05
4.8952e-05
4.91781e-05
4.91153e-05
4.87835e-05
4.83388e-05
4.78948e-05
4.76071e-05
4.74054e-05
4.81799e-05
5.21467e-05
4.52848e-05
4.15058e-05
4.08731e-05
4.10705e-05
4.14356e-05
4.17509e-05
4.18645e-05
4.18152e-05
4.15192e-05
4.10138e-05
4.04163e-05
3.97378e-05
3.89854e-05
3.83046e-05
3.78818e-05
3.7942e-05
3.84643e-05
3.91308e-05
3.98475e-05
4.05587e-05
4.12114e-05
4.17095e-05
4.19188e-05
4.19118e-05
4.17639e-05
4.15478e-05
4.13042e-05
4.11255e-05
4.18145e-05
4.54495e-05
3.94785e-05
3.6212e-05
3.57307e-05
3.58593e-05
3.60417e-05
3.61049e-05
3.60148e-05
3.57377e-05
3.52638e-05
3.46677e-05
3.39755e-05
3.31823e-05
3.23459e-05
3.16538e-05
3.1261e-05
3.13358e-05
3.18085e-05
3.24773e-05
3.32719e-05
3.41101e-05
3.48938e-05
3.55029e-05
3.58721e-05
3.60589e-05
3.60944e-05
3.60172e-05
3.5865e-05
3.58035e-05
3.6456e-05
3.96329e-05
3.44313e-05
3.17917e-05
3.13291e-05
3.13342e-05
3.13209e-05
3.12486e-05
3.10465e-05
3.06695e-05
3.01507e-05
2.94964e-05
2.87379e-05
2.79268e-05
2.71363e-05
2.64924e-05
2.61136e-05
2.61533e-05
2.65709e-05
2.7218e-05
2.80125e-05
2.8859e-05
2.96633e-05
3.03218e-05
3.07831e-05
3.10771e-05
3.1224e-05
3.12661e-05
3.12464e-05
3.1299e-05
3.18996e-05
3.46287e-05
3.02695e-05
2.7957e-05
2.74884e-05
2.7414e-05
2.73464e-05
2.72152e-05
2.69224e-05
2.64973e-05
2.59544e-05
2.52822e-05
2.45337e-05
2.37657e-05
2.30335e-05
2.24257e-05
2.20503e-05
2.20552e-05
2.24227e-05
2.30287e-05
2.37867e-05
2.45972e-05
2.53774e-05
2.60418e-05
2.65434e-05
2.68965e-05
2.71396e-05
2.72923e-05
2.73788e-05
2.74881e-05
2.80101e-05
3.03389e-05
2.65259e-05
2.46015e-05
2.42228e-05
2.41126e-05
2.39864e-05
2.37595e-05
2.34267e-05
2.30201e-05
2.24994e-05
2.18634e-05
2.11675e-05
2.04512e-05
1.97662e-05
1.91959e-05
1.88435e-05
1.88355e-05
1.91642e-05
1.97216e-05
2.04154e-05
2.11547e-05
2.18756e-05
2.2519e-05
2.30453e-05
2.34471e-05
2.37498e-05
2.39675e-05
2.41146e-05
2.425e-05
2.47045e-05
2.66614e-05
2.33801e-05
2.1894e-05
2.15317e-05
2.13535e-05
2.11397e-05
2.08707e-05
2.05569e-05
2.01645e-05
1.96625e-05
1.90795e-05
1.84451e-05
1.77803e-05
1.7141e-05
1.66112e-05
1.62872e-05
1.62749e-05
1.65695e-05
1.70793e-05
1.77161e-05
1.84012e-05
1.90763e-05
1.96903e-05
2.02056e-05
2.06116e-05
2.09317e-05
2.11807e-05
2.13655e-05
2.15265e-05
2.19317e-05
2.3541e-05
2.08421e-05
1.96472e-05
1.92498e-05
1.90305e-05
1.88052e-05
1.85691e-05
1.82713e-05
1.78793e-05
1.74097e-05
1.68811e-05
1.63005e-05
1.56862e-05
1.51024e-05
1.46268e-05
1.4341e-05
1.4335e-05
1.46035e-05
1.50695e-05
1.56537e-05
1.62788e-05
1.68856e-05
1.74378e-05
1.7913e-05
1.83046e-05
1.86239e-05
1.88813e-05
1.90826e-05
1.9253e-05
1.96002e-05
2.08911e-05
1.86667e-05
1.76406e-05
1.72969e-05
1.71209e-05
1.69547e-05
1.67475e-05
1.64418e-05
1.60667e-05
1.5645e-05
1.51594e-05
1.46176e-05
1.40546e-05
1.3536e-05
1.31238e-05
1.28793e-05
1.28805e-05
1.31236e-05
1.35428e-05
1.40663e-05
1.46208e-05
1.5154e-05
1.56427e-05
1.60737e-05
1.64436e-05
1.67506e-05
1.69989e-05
1.71909e-05
1.73429e-05
1.76199e-05
1.86412e-05
1.68158e-05
1.59413e-05
1.57113e-05
1.55914e-05
1.54513e-05
1.52352e-05
1.49446e-05
1.46209e-05
1.4248e-05
1.38007e-05
1.32996e-05
1.27933e-05
1.2338e-05
1.19787e-05
1.17638e-05
1.1767e-05
1.1988e-05
1.23627e-05
1.28229e-05
1.33055e-05
1.37732e-05
1.42093e-05
1.4603e-05
1.49449e-05
1.52263e-05
1.54457e-05
1.5607e-05
1.57287e-05
1.5946e-05
1.67589e-05
1.52142e-05
1.45613e-05
1.43973e-05
1.42916e-05
1.41537e-05
1.3953e-05
1.37166e-05
1.3445e-05
1.31068e-05
1.27009e-05
1.22576e-05
1.18208e-05
1.14286e-05
1.11105e-05
1.09137e-05
1.09162e-05
1.11165e-05
1.14485e-05
1.18484e-05
1.22665e-05
1.26771e-05
1.30649e-05
1.3417e-05
1.37186e-05
1.39612e-05
1.41453e-05
1.42789e-05
1.43819e-05
1.45603e-05
1.52077e-05
1.3909e-05
1.34483e-05
1.3293e-05
1.31939e-05
1.30758e-05
1.29163e-05
1.27218e-05
1.24719e-05
1.2162e-05
1.18083e-05
1.14365e-05
1.10729e-05
1.07347e-05
1.04463e-05
1.02659e-05
1.02701e-05
1.04543e-05
1.07487e-05
1.10933e-05
1.14497e-05
1.18004e-05
1.21331e-05
1.24353e-05
1.26942e-05
1.2903e-05
1.30634e-05
1.31823e-05
1.32754e-05
1.34234e-05
1.3929e-05
1.28985e-05
1.25091e-05
1.23695e-05
1.23012e-05
1.2207e-05
1.20716e-05
1.18901e-05
1.16571e-05
1.1389e-05
1.10987e-05
1.07997e-05
1.04997e-05
1.02046e-05
9.9449e-06
9.78652e-06
9.79452e-06
9.9578e-06
1.02093e-05
1.04973e-05
1.07946e-05
1.10891e-05
1.13717e-05
1.16298e-05
1.18531e-05
1.20369e-05
1.21805e-05
1.22874e-05
1.23693e-05
1.24861e-05
1.28662e-05
1.20221e-05
1.16929e-05
1.16123e-05
1.15666e-05
1.14752e-05
1.13483e-05
1.11821e-05
1.09846e-05
1.07677e-05
1.0537e-05
1.02969e-05
1.00442e-05
9.78707e-06
9.56284e-06
9.42976e-06
9.43545e-06
9.56803e-06
9.77376e-06
1.00136e-05
1.02674e-05
1.05222e-05
1.07662e-05
1.0988e-05
1.11799e-05
1.13377e-05
1.14601e-05
1.15497e-05
1.16158e-05
1.17044e-05
1.19822e-05
1.12545e-05
1.10479e-05
1.10148e-05
1.09569e-05
1.08654e-05
1.0754e-05
1.06167e-05
1.04589e-05
1.02826e-05
1.00932e-05
9.89027e-06
9.67129e-06
9.45076e-06
9.26454e-06
9.15399e-06
9.15214e-06
9.25492e-06
9.42485e-06
9.63197e-06
9.85642e-06
1.00818e-05
1.02934e-05
1.04815e-05
1.06399e-05
1.07668e-05
1.08629e-05
1.0932e-05
1.09828e-05
1.10497e-05
1.12573e-05
1.06849e-05
1.05864e-05
1.0534e-05
1.04583e-05
1.03803e-05
1.02915e-05
1.01837e-05
1.00557e-05
9.9095e-06
9.74968e-06
9.57486e-06
9.38729e-06
9.20432e-06
9.05349e-06
8.95954e-06
8.9494e-06
9.02794e-06
9.17036e-06
9.35068e-06
9.54632e-06
9.73901e-06
9.91528e-06
1.00674e-05
1.01929e-05
1.02918e-05
1.03669e-05
1.04227e-05
1.04653e-05
1.05187e-05
1.0672e-05
1.02653e-05
1.0181e-05
1.01011e-05
1.0043e-05
9.99045e-06
9.92484e-06
9.84209e-06
9.73897e-06
9.61913e-06
9.4857e-06
9.33817e-06
9.1832e-06
9.03715e-06
8.91562e-06
8.8329e-06
8.81748e-06
8.87833e-06
8.99545e-06
9.1442e-06
9.30341e-06
9.45787e-06
9.59861e-06
9.72083e-06
9.82346e-06
9.90685e-06
9.9724e-06
1.00225e-05
1.00605e-05
1.01008e-05
1.0205e-05
9.88534e-06
9.7876e-06
9.74097e-06
9.71895e-06
9.68721e-06
9.63751e-06
9.56908e-06
9.48281e-06
9.38358e-06
9.27127e-06
9.14683e-06
9.02019e-06
8.90325e-06
8.80276e-06
8.73239e-06
8.71912e-06
8.76968e-06
8.86393e-06
8.98092e-06
9.10458e-06
9.2258e-06
9.34084e-06
9.44638e-06
9.53799e-06
9.61334e-06
9.67249e-06
9.71668e-06
9.74711e-06
9.77213e-06
9.83352e-06
9.53349e-06
9.48466e-06
9.49054e-06
9.4849e-06
9.45714e-06
9.40964e-06
9.34566e-06
9.27158e-06
9.18856e-06
9.09208e-06
8.98621e-06
8.88243e-06
8.7868e-06
8.70345e-06
8.64546e-06
8.63718e-06
8.68306e-06
8.76154e-06
8.85477e-06
8.9529e-06
9.05199e-06
9.14983e-06
9.24128e-06
9.32069e-06
9.38514e-06
9.43397e-06
9.46761e-06
9.48672e-06
9.49635e-06
9.52345e-06