/*--------------------------------*- C++ -*----------------------------------*\
| =========                 |                                                 |
| \\      /  F ield         | OpenFOAM: The Open Source CFD Toolbox           |
|  \\    /   O peration     | Version:  2312                                  |
|   \\  /    A nd           | Website:  www.openfoam.com                      |
|    \\/     M anipulation  |                                                 |
\*---------------------------------------------------------------------------*/
FoamFile
{
    version     2.0;
    format      ascii;
    arch        "LSB;label=32;scalar=64";
    class       volScalarField;
    location    "1.338907018";
    object      k;
}
// * * * * * * * * * * * * * * * * * * * * * * * * * * * * * * * * * * * * * //

dimensions      [0 2 -2 0 0 0 0];

internalField   nonuniform List<scalar> 
90000
(
2.12719e-05
2.12765e-05
2.12776e-05
2.12779e-05
2.12783e-05
2.12784e-05
2.12784e-05
2.12783e-05
2.12781e-05
2.12777e-05
2.1277e-05
2.12762e-05
2.12756e-05
2.12756e-05
2.1276e-05
2.12763e-05
2.12766e-05
2.12773e-05
2.12782e-05
2.12784e-05
2.12773e-05
2.1276e-05
2.12778e-05
2.12818e-05
2.12852e-05
2.12865e-05
2.12849e-05
2.12829e-05
2.12891e-05
2.13016e-05
2.12792e-05
2.13817e-05
2.13913e-05
2.13915e-05
2.13911e-05
2.13909e-05
2.1391e-05
2.13912e-05
2.13913e-05
2.13912e-05
2.13913e-05
2.13918e-05
2.13923e-05
2.13925e-05
2.13926e-05
2.13923e-05
2.1392e-05
2.13917e-05
2.13914e-05
2.13911e-05
2.13916e-05
2.13927e-05
2.13937e-05
2.1394e-05
2.1393e-05
2.13919e-05
2.13938e-05
2.14002e-05
2.13958e-05
2.13218e-05
2.12795e-05
2.13921e-05
2.14031e-05
2.14035e-05
2.14034e-05
2.14034e-05
2.14036e-05
2.14038e-05
2.14035e-05
2.1403e-05
2.14031e-05
2.14041e-05
2.14053e-05
2.14063e-05
2.14064e-05
2.14054e-05
2.14037e-05
2.14022e-05
2.14035e-05
2.14054e-05
2.14066e-05
2.14068e-05
2.14062e-05
2.14055e-05
2.14062e-05
2.14081e-05
2.14096e-05
2.14154e-05
2.14228e-05
2.13149e-05
2.12785e-05
2.13924e-05
2.14043e-05
2.14051e-05
2.14052e-05
2.14054e-05
2.14057e-05
2.14058e-05
2.14057e-05
2.14051e-05
2.14045e-05
2.14049e-05
2.14057e-05
2.14064e-05
2.14063e-05
2.14053e-05
2.14041e-05
2.14045e-05
2.14065e-05
2.14079e-05
2.14079e-05
2.14069e-05
2.14073e-05
2.141e-05
2.14127e-05
2.14147e-05
2.14177e-05
2.14178e-05
2.14203e-05
2.1298e-05
2.12777e-05
2.13924e-05
2.14045e-05
2.14054e-05
2.14056e-05
2.14057e-05
2.14057e-05
2.14058e-05
2.14059e-05
2.14059e-05
2.14056e-05
2.14052e-05
2.14046e-05
2.14039e-05
2.14038e-05
2.14049e-05
2.14064e-05
2.14075e-05
2.14078e-05
2.14071e-05
2.14061e-05
2.14065e-05
2.14092e-05
2.14121e-05
2.14139e-05
2.14139e-05
2.1413e-05
2.14138e-05
2.14054e-05
2.12888e-05
2.12778e-05
2.13927e-05
2.14044e-05
2.14052e-05
2.14054e-05
2.14052e-05
2.1405e-05
2.14051e-05
2.14054e-05
2.14058e-05
2.14063e-05
2.14067e-05
2.14068e-05
2.14063e-05
2.14057e-05
2.14061e-05
2.14071e-05
2.14075e-05
2.14071e-05
2.14063e-05
2.14063e-05
2.14074e-05
2.1409e-05
2.14102e-05
2.14107e-05
2.14103e-05
2.14085e-05
2.14143e-05
2.14031e-05
2.12878e-05
2.12787e-05
2.13932e-05
2.14047e-05
2.14058e-05
2.14065e-05
2.14068e-05
2.14066e-05
2.14059e-05
2.14052e-05
2.14054e-05
2.14064e-05
2.14078e-05
2.1409e-05
2.14093e-05
2.14083e-05
2.14064e-05
2.1405e-05
2.14049e-05
2.14057e-05
2.14067e-05
2.14075e-05
2.14078e-05
2.14074e-05
2.14062e-05
2.14057e-05
2.14086e-05
2.14127e-05
2.14185e-05
2.14072e-05
2.12865e-05
2.12791e-05
2.13949e-05
2.14065e-05
2.1408e-05
2.1409e-05
2.14098e-05
2.141e-05
2.14092e-05
2.14074e-05
2.14053e-05
2.14059e-05
2.14076e-05
2.14092e-05
2.14098e-05
2.14087e-05
2.14062e-05
2.14032e-05
2.14024e-05
2.14048e-05
2.14067e-05
2.14076e-05
2.14073e-05
2.14059e-05
2.14047e-05
2.14063e-05
2.14108e-05
2.14151e-05
2.14176e-05
2.14047e-05
2.1284e-05
2.12798e-05
2.13978e-05
2.14089e-05
2.14102e-05
2.14113e-05
2.14121e-05
2.14124e-05
2.14119e-05
2.14105e-05
2.14084e-05
2.14067e-05
2.14068e-05
2.14073e-05
2.14078e-05
2.14078e-05
2.14073e-05
2.14064e-05
2.14058e-05
2.14062e-05
2.1407e-05
2.14073e-05
2.14066e-05
2.14053e-05
2.14051e-05
2.14079e-05
2.14117e-05
2.14144e-05
2.14139e-05
2.14004e-05
2.12818e-05
2.12837e-05
2.13993e-05
2.14096e-05
2.14105e-05
2.14112e-05
2.14116e-05
2.14119e-05
2.1412e-05
2.14119e-05
2.14113e-05
2.14098e-05
2.14075e-05
2.14053e-05
2.14051e-05
2.14068e-05
2.14091e-05
2.14107e-05
2.14115e-05
2.14114e-05
2.14108e-05
2.14096e-05
2.1408e-05
2.14063e-05
2.14057e-05
2.14079e-05
2.14101e-05
2.14109e-05
2.14093e-05
2.13971e-05
2.12808e-05
2.1287e-05
2.13994e-05
2.1409e-05
2.14094e-05
2.1409e-05
2.14082e-05
2.1408e-05
2.14088e-05
2.14102e-05
2.14113e-05
2.1411e-05
2.14093e-05
2.14066e-05
2.14049e-05
2.14063e-05
2.14097e-05
2.1413e-05
2.14154e-05
2.14165e-05
2.14161e-05
2.14143e-05
2.14115e-05
2.14086e-05
2.14068e-05
2.14073e-05
2.14083e-05
2.1409e-05
2.14084e-05
2.13968e-05
2.12818e-05
2.12867e-05
2.14016e-05
2.14106e-05
2.14103e-05
2.14091e-05
2.14076e-05
2.14065e-05
2.14068e-05
2.14079e-05
2.14091e-05
2.14097e-05
2.14095e-05
2.14081e-05
2.14058e-05
2.14048e-05
2.14087e-05
2.14136e-05
2.14172e-05
2.14189e-05
2.14184e-05
2.14162e-05
2.1413e-05
2.14095e-05
2.14066e-05
2.14066e-05
2.14082e-05
2.14094e-05
2.14092e-05
2.13989e-05
2.12832e-05
2.12852e-05
2.14041e-05
2.14133e-05
2.14138e-05
2.14148e-05
2.14159e-05
2.14164e-05
2.14159e-05
2.14138e-05
2.14106e-05
2.14092e-05
2.14103e-05
2.1411e-05
2.14106e-05
2.141e-05
2.14111e-05
2.14132e-05
2.14149e-05
2.14154e-05
2.14148e-05
2.14135e-05
2.14114e-05
2.1409e-05
2.14069e-05
2.14073e-05
2.14087e-05
2.14096e-05
2.14099e-05
2.13996e-05
2.12838e-05
2.1292e-05
2.14033e-05
2.14151e-05
2.1418e-05
2.1422e-05
2.14251e-05
2.1426e-05
2.14239e-05
2.14192e-05
2.14136e-05
2.14096e-05
2.14108e-05
2.14136e-05
2.14159e-05
2.1417e-05
2.14166e-05
2.14145e-05
2.14111e-05
2.14083e-05
2.14079e-05
2.1409e-05
2.14096e-05
2.14094e-05
2.14087e-05
2.14086e-05
2.14089e-05
2.14097e-05
2.14103e-05
2.13995e-05
2.12849e-05
2.12993e-05
2.13994e-05
2.14185e-05
2.14242e-05
2.14283e-05
2.14297e-05
2.14281e-05
2.14238e-05
2.1418e-05
2.14123e-05
2.14083e-05
2.14096e-05
2.1414e-05
2.14179e-05
2.14199e-05
2.14192e-05
2.1416e-05
2.14111e-05
2.14064e-05
2.14046e-05
2.14067e-05
2.14092e-05
2.14105e-05
2.14105e-05
2.14098e-05
2.141e-05
2.1412e-05
2.1413e-05
2.14033e-05
2.12894e-05
2.13007e-05
2.14106e-05
2.14255e-05
2.14284e-05
2.14286e-05
2.14261e-05
2.14215e-05
2.14167e-05
2.14129e-05
2.14097e-05
2.14072e-05
2.14085e-05
2.14131e-05
2.14172e-05
2.14192e-05
2.14188e-05
2.14168e-05
2.14135e-05
2.141e-05
2.14072e-05
2.14073e-05
2.14094e-05
2.14111e-05
2.14116e-05
2.14116e-05
2.14129e-05
2.14152e-05
2.14174e-05
2.14099e-05
2.12933e-05
2.1296e-05
2.14226e-05
2.14305e-05
2.14287e-05
2.14242e-05
2.14182e-05
2.14127e-05
2.14112e-05
2.14114e-05
2.14104e-05
2.14089e-05
2.141e-05
2.1413e-05
2.14158e-05
2.14173e-05
2.14176e-05
2.14169e-05
2.1415e-05
2.14124e-05
2.14101e-05
2.14092e-05
2.14098e-05
2.1411e-05
2.14119e-05
2.14131e-05
2.14153e-05
2.14178e-05
2.142e-05
2.14103e-05
2.12923e-05
2.12934e-05
2.14279e-05
2.14328e-05
2.14286e-05
2.14229e-05
2.14174e-05
2.1414e-05
2.14127e-05
2.14122e-05
2.14111e-05
2.14111e-05
2.14116e-05
2.14123e-05
2.14132e-05
2.14142e-05
2.14151e-05
2.14155e-05
2.14151e-05
2.14139e-05
2.14124e-05
2.14109e-05
2.14111e-05
2.14122e-05
2.14134e-05
2.14153e-05
2.14176e-05
2.14193e-05
2.14194e-05
2.14073e-05
2.12908e-05
2.12996e-05
2.14291e-05
2.14345e-05
2.14306e-05
2.14259e-05
2.14222e-05
2.14195e-05
2.1417e-05
2.14142e-05
2.14122e-05
2.14113e-05
2.14105e-05
2.141e-05
2.14098e-05
2.14102e-05
2.14114e-05
2.14129e-05
2.14139e-05
2.14139e-05
2.1413e-05
2.1412e-05
2.14124e-05
2.14136e-05
2.14166e-05
2.142e-05
2.14214e-05
2.14213e-05
2.14198e-05
2.14077e-05
2.1292e-05
2.13063e-05
2.14288e-05
2.14358e-05
2.14325e-05
2.14288e-05
2.14262e-05
2.14241e-05
2.14216e-05
2.14187e-05
2.1416e-05
2.14135e-05
2.14111e-05
2.14088e-05
2.1407e-05
2.14068e-05
2.14087e-05
2.14111e-05
2.14126e-05
2.14131e-05
2.14129e-05
2.14131e-05
2.14153e-05
2.142e-05
2.14241e-05
2.14256e-05
2.1425e-05
2.14242e-05
2.14234e-05
2.14137e-05
2.12973e-05
2.13119e-05
2.14279e-05
2.1436e-05
2.14337e-05
2.14316e-05
2.14303e-05
2.14287e-05
2.14264e-05
2.14234e-05
2.14201e-05
2.14165e-05
2.14126e-05
2.14091e-05
2.14078e-05
2.1409e-05
2.1411e-05
2.14125e-05
2.14134e-05
2.14143e-05
2.1416e-05
2.14193e-05
2.14241e-05
2.14277e-05
2.14283e-05
2.14267e-05
2.14257e-05
2.14256e-05
2.14261e-05
2.14171e-05
2.13011e-05
2.13161e-05
2.14273e-05
2.14373e-05
2.14365e-05
2.14356e-05
2.14344e-05
2.14324e-05
2.14297e-05
2.14263e-05
2.14224e-05
2.14178e-05
2.14135e-05
2.14119e-05
2.14132e-05
2.14138e-05
2.14134e-05
2.14133e-05
2.14146e-05
2.14177e-05
2.14223e-05
2.14278e-05
2.14314e-05
2.14313e-05
2.14291e-05
2.14286e-05
2.14293e-05
2.14302e-05
2.14306e-05
2.14202e-05
2.13066e-05
2.13189e-05
2.14289e-05
2.14409e-05
2.14412e-05
2.14403e-05
2.14382e-05
2.14353e-05
2.14319e-05
2.14282e-05
2.14241e-05
2.142e-05
2.14171e-05
2.14169e-05
2.14154e-05
2.1413e-05
2.14115e-05
2.14126e-05
2.14165e-05
2.14225e-05
2.1429e-05
2.14334e-05
2.14341e-05
2.14324e-05
2.14325e-05
2.1434e-05
2.14359e-05
2.14375e-05
2.14375e-05
2.14268e-05
2.1314e-05
2.1323e-05
2.14355e-05
2.14477e-05
2.14479e-05
2.1446e-05
2.14429e-05
2.14395e-05
2.14362e-05
2.14325e-05
2.14284e-05
2.1424e-05
2.14214e-05
2.14188e-05
2.14145e-05
2.14106e-05
2.1411e-05
2.14142e-05
2.14201e-05
2.14276e-05
2.14332e-05
2.14352e-05
2.14351e-05
2.14366e-05
2.14394e-05
2.14425e-05
2.14452e-05
2.14467e-05
2.14471e-05
2.14359e-05
2.13239e-05
2.13337e-05
2.14465e-05
2.14577e-05
2.14568e-05
2.1454e-05
2.14506e-05
2.14474e-05
2.1444e-05
2.14397e-05
2.14345e-05
2.14292e-05
2.14248e-05
2.14198e-05
2.14149e-05
2.14132e-05
2.14136e-05
2.14169e-05
2.1424e-05
2.14304e-05
2.14337e-05
2.14357e-05
2.144e-05
2.14444e-05
2.14482e-05
2.14524e-05
2.14553e-05
2.14573e-05
2.14584e-05
2.14488e-05
2.13377e-05
2.1349e-05
2.14609e-05
2.14708e-05
2.14688e-05
2.14654e-05
2.14619e-05
2.14584e-05
2.14541e-05
2.14486e-05
2.14423e-05
2.14359e-05
2.14295e-05
2.14238e-05
2.14199e-05
2.14169e-05
2.14157e-05
2.14195e-05
2.14258e-05
2.14309e-05
2.14361e-05
2.1443e-05
2.14488e-05
2.14533e-05
2.14581e-05
2.14626e-05
2.14662e-05
2.14693e-05
2.14725e-05
2.14668e-05
2.13501e-05
2.13686e-05
2.1478e-05
2.14868e-05
2.1484e-05
2.14803e-05
2.14762e-05
2.14715e-05
2.14657e-05
2.1459e-05
2.14515e-05
2.14439e-05
2.14371e-05
2.14318e-05
2.14271e-05
2.14217e-05
2.14195e-05
2.14228e-05
2.14293e-05
2.14375e-05
2.1446e-05
2.14528e-05
2.14586e-05
2.14646e-05
2.14702e-05
2.14754e-05
2.14809e-05
2.14854e-05
2.14897e-05
2.14817e-05
2.13652e-05
2.13908e-05
2.14977e-05
2.15062e-05
2.15029e-05
2.14984e-05
2.14931e-05
2.14869e-05
2.14795e-05
2.14716e-05
2.14633e-05
2.14554e-05
2.14488e-05
2.14428e-05
2.14354e-05
2.14279e-05
2.14257e-05
2.14305e-05
2.14393e-05
2.14488e-05
2.14571e-05
2.14645e-05
2.14724e-05
2.14794e-05
2.14862e-05
2.14928e-05
2.15002e-05
2.1506e-05
2.15075e-05
2.14978e-05
2.13873e-05
2.14151e-05
2.1521e-05
2.1529e-05
2.15251e-05
2.15198e-05
2.15133e-05
2.15057e-05
2.14972e-05
2.14881e-05
2.1479e-05
2.14704e-05
2.14626e-05
2.14535e-05
2.14432e-05
2.14347e-05
2.14335e-05
2.14404e-05
2.14504e-05
2.14608e-05
2.14708e-05
2.148e-05
2.14894e-05
2.14985e-05
2.15072e-05
2.1515e-05
2.15236e-05
2.15298e-05
2.15293e-05
2.15212e-05
2.14155e-05
2.14434e-05
2.15488e-05
2.15565e-05
2.1552e-05
2.15457e-05
2.15381e-05
2.15293e-05
2.15195e-05
2.1509e-05
2.14982e-05
2.14877e-05
2.14767e-05
2.14641e-05
2.14516e-05
2.14426e-05
2.14425e-05
2.14509e-05
2.14621e-05
2.14742e-05
2.14867e-05
2.14983e-05
2.15098e-05
2.15217e-05
2.15324e-05
2.15409e-05
2.15496e-05
2.15566e-05
2.1558e-05
2.15536e-05
2.14463e-05
2.1478e-05
2.15829e-05
2.15901e-05
2.15849e-05
2.15774e-05
2.15685e-05
2.15582e-05
2.15469e-05
2.15344e-05
2.15211e-05
2.15076e-05
2.14931e-05
2.14776e-05
2.14633e-05
2.14537e-05
2.14541e-05
2.14637e-05
2.14768e-05
2.14912e-05
2.15065e-05
2.15213e-05
2.15353e-05
2.15492e-05
2.15614e-05
2.1571e-05
2.15793e-05
2.15886e-05
2.15948e-05
2.1589e-05
2.14814e-05
2.15206e-05
2.16247e-05
2.16311e-05
2.16249e-05
2.16161e-05
2.16057e-05
2.15936e-05
2.15803e-05
2.15654e-05
2.15492e-05
2.15321e-05
2.1514e-05
2.14958e-05
2.14796e-05
2.14686e-05
2.14686e-05
2.14796e-05
2.14959e-05
2.1513e-05
2.15311e-05
2.15494e-05
2.1566e-05
2.15808e-05
2.15952e-05
2.16065e-05
2.16158e-05
2.1628e-05
2.16368e-05
2.16289e-05
2.15243e-05
2.15725e-05
2.16754e-05
2.1681e-05
2.16738e-05
2.16635e-05
2.16509e-05
2.16366e-05
2.16205e-05
2.16027e-05
2.15831e-05
2.1562e-05
2.15404e-05
2.15193e-05
2.15007e-05
2.14878e-05
2.14876e-05
2.15001e-05
2.152e-05
2.15405e-05
2.15612e-05
2.15829e-05
2.16018e-05
2.16185e-05
2.16358e-05
2.16501e-05
2.16616e-05
2.16759e-05
2.16847e-05
2.16777e-05
2.15764e-05
2.16358e-05
2.1737e-05
2.17417e-05
2.17332e-05
2.17207e-05
2.17054e-05
2.1688e-05
2.16687e-05
2.16474e-05
2.16241e-05
2.15995e-05
2.15746e-05
2.155e-05
2.15281e-05
2.1513e-05
2.15132e-05
2.15271e-05
2.15501e-05
2.15745e-05
2.15984e-05
2.16229e-05
2.16461e-05
2.1666e-05
2.16859e-05
2.17037e-05
2.17185e-05
2.17334e-05
2.17424e-05
2.17373e-05
2.16387e-05
2.17127e-05
2.18115e-05
2.18147e-05
2.18041e-05
2.1789e-05
2.17708e-05
2.17502e-05
2.17274e-05
2.17026e-05
2.16757e-05
2.16472e-05
2.16181e-05
2.1589e-05
2.1563e-05
2.15453e-05
2.15471e-05
2.15629e-05
2.15886e-05
2.16174e-05
2.16454e-05
2.16739e-05
2.17026e-05
2.17257e-05
2.17482e-05
2.17702e-05
2.17884e-05
2.18029e-05
2.1813e-05
2.18094e-05
2.17135e-05
2.18054e-05
2.19005e-05
2.19018e-05
2.18889e-05
2.18715e-05
2.18507e-05
2.1827e-05
2.18006e-05
2.17717e-05
2.17404e-05
2.1707e-05
2.16726e-05
2.16383e-05
2.16089e-05
2.15889e-05
2.15919e-05
2.16108e-05
2.16395e-05
2.16731e-05
2.17069e-05
2.17398e-05
2.17733e-05
2.18001e-05
2.1826e-05
2.18529e-05
2.18724e-05
2.18875e-05
2.18988e-05
2.1897e-05
2.18049e-05
2.19168e-05
2.20072e-05
2.20067e-05
2.1992e-05
2.19726e-05
2.19492e-05
2.19221e-05
2.18914e-05
2.18577e-05
2.18212e-05
2.17821e-05
2.17426e-05
2.17036e-05
2.16719e-05
2.1649e-05
2.16511e-05
2.16732e-05
2.17059e-05
2.17447e-05
2.17856e-05
2.18226e-05
2.18602e-05
2.18918e-05
2.19227e-05
2.19523e-05
2.19735e-05
2.19907e-05
2.20045e-05
2.20054e-05
2.19172e-05
2.20508e-05
2.21363e-05
2.21343e-05
2.2118e-05
2.2096e-05
2.20692e-05
2.20379e-05
2.20024e-05
2.19637e-05
2.1922e-05
2.18775e-05
2.18334e-05
2.17893e-05
2.17539e-05
2.17279e-05
2.17274e-05
2.17523e-05
2.17913e-05
2.18356e-05
2.18823e-05
2.19237e-05
2.19661e-05
2.2004e-05
2.20395e-05
2.20715e-05
2.20959e-05
2.21174e-05
2.21344e-05
2.21374e-05
2.20538e-05
2.22119e-05
2.22932e-05
2.22892e-05
2.22703e-05
2.22449e-05
2.22139e-05
2.21781e-05
2.21377e-05
2.20939e-05
2.20467e-05
2.19965e-05
2.19471e-05
2.18971e-05
2.18554e-05
2.18271e-05
2.18251e-05
2.1853e-05
2.18987e-05
2.19489e-05
2.19999e-05
2.20467e-05
2.20951e-05
2.21397e-05
2.2179e-05
2.22144e-05
2.22445e-05
2.22701e-05
2.22897e-05
2.22953e-05
2.2216e-05
2.24058e-05
2.24826e-05
2.24754e-05
2.24535e-05
2.24248e-05
2.23899e-05
2.23492e-05
2.23037e-05
2.22541e-05
2.2201e-05
2.21445e-05
2.20883e-05
2.20339e-05
2.19842e-05
2.19531e-05
2.19517e-05
2.19834e-05
2.20337e-05
2.20904e-05
2.21455e-05
2.21998e-05
2.22545e-05
2.23048e-05
2.23487e-05
2.2389e-05
2.2425e-05
2.24535e-05
2.24759e-05
2.24851e-05
2.24079e-05
2.26386e-05
2.27108e-05
2.27008e-05
2.26765e-05
2.26443e-05
2.26045e-05
2.25586e-05
2.25081e-05
2.2453e-05
2.23941e-05
2.23321e-05
2.22677e-05
2.22106e-05
2.21529e-05
2.21167e-05
2.21162e-05
2.21533e-05
2.22075e-05
2.22708e-05
2.23311e-05
2.23935e-05
2.24535e-05
2.25085e-05
2.25588e-05
2.26035e-05
2.26441e-05
2.26767e-05
2.2702e-05
2.27141e-05
2.26379e-05
2.29196e-05
2.29903e-05
2.29764e-05
2.2948e-05
2.29105e-05
2.28653e-05
2.28149e-05
2.27597e-05
2.26992e-05
2.26341e-05
2.25679e-05
2.24963e-05
2.24352e-05
2.23714e-05
2.23289e-05
2.23308e-05
2.2374e-05
2.24317e-05
2.25005e-05
2.25671e-05
2.26358e-05
2.26999e-05
2.27591e-05
2.28163e-05
2.28657e-05
2.29097e-05
2.29479e-05
2.29778e-05
2.29933e-05
2.2917e-05
2.3263e-05
2.33348e-05
2.33124e-05
2.32778e-05
2.32354e-05
2.31851e-05
2.31296e-05
2.30687e-05
2.30028e-05
2.29331e-05
2.28634e-05
2.27885e-05
2.27213e-05
2.2654e-05
2.26075e-05
2.26109e-05
2.26574e-05
2.27198e-05
2.27917e-05
2.28633e-05
2.29354e-05
2.30039e-05
2.30687e-05
2.31298e-05
2.31862e-05
2.32355e-05
2.32784e-05
2.33157e-05
2.33373e-05
2.32551e-05
2.3687e-05
2.37657e-05
2.37313e-05
2.369e-05
2.36406e-05
2.35836e-05
2.35226e-05
2.34554e-05
2.33843e-05
2.33152e-05
2.32437e-05
2.31712e-05
2.3106e-05
2.30418e-05
2.29985e-05
2.3004e-05
2.30448e-05
2.3106e-05
2.31736e-05
2.32436e-05
2.33157e-05
2.33862e-05
2.34566e-05
2.35189e-05
2.35818e-05
2.36425e-05
2.36921e-05
2.37346e-05
2.37659e-05
2.36733e-05
2.4231e-05
2.43469e-05
2.42923e-05
2.42431e-05
2.41774e-05
2.41071e-05
2.404e-05
2.39681e-05
2.39002e-05
2.38472e-05
2.3806e-05
2.37921e-05
2.38132e-05
2.38312e-05
2.38616e-05
2.3886e-05
2.38407e-05
2.38106e-05
2.37985e-05
2.38104e-05
2.38486e-05
2.39011e-05
2.39694e-05
2.40384e-05
2.4102e-05
2.41786e-05
2.42477e-05
2.42932e-05
2.43465e-05
2.42136e-05
2.50834e-05
2.53848e-05
2.5264e-05
2.52861e-05
2.51199e-05
2.49896e-05
2.49601e-05
2.48896e-05
2.48716e-05
2.50038e-05
2.52935e-05
2.58849e-05
2.67882e-05
2.76881e-05
2.84491e-05
2.85824e-05
2.77289e-05
2.67965e-05
2.59363e-05
2.53031e-05
2.50119e-05
2.48788e-05
2.48848e-05
2.49638e-05
2.49876e-05
2.51164e-05
2.52981e-05
2.527e-05
2.5396e-05
2.50536e-05
2.73558e-05
2.85791e-05
2.82023e-05
2.92028e-05
2.81193e-05
2.77287e-05
2.83359e-05
2.81915e-05
2.85717e-05
3.03464e-05
3.31987e-05
3.83835e-05
4.60267e-05
5.34206e-05
5.84093e-05
5.90371e-05
5.36442e-05
4.621e-05
3.87573e-05
3.32621e-05
3.04024e-05
2.86036e-05
2.81871e-05
2.83641e-05
2.77293e-05
2.8105e-05
2.9253e-05
2.82174e-05
2.86499e-05
2.72811e-05
3.60807e-05
4.12338e-05
4.03464e-05
4.8079e-05
4.23366e-05
4.17263e-05
4.76514e-05
4.74277e-05
5.03711e-05
6.21497e-05
8.08552e-05
0.000109192
0.000144723
0.000179008
0.000200689
0.000201308
0.000179399
0.000146013
0.000110117
8.11819e-05
6.24641e-05
5.04705e-05
4.74645e-05
4.78629e-05
4.17951e-05
4.23109e-05
4.83837e-05
4.03761e-05
4.15793e-05
3.58546e-05
6.5662e-05
8.15508e-05
8.89402e-05
0.000114768
0.00011202
0.000114017
0.000143003
0.000157457
0.000173211
0.000241889
0.000309818
0.000385093
0.000477081
0.000548186
0.000585872
0.000586364
0.00054716
0.000480581
0.000385277
0.000310084
0.000242735
0.000173303
0.000157849
0.000144282
0.000115119
0.000112146
0.00011637
8.9393e-05
8.24906e-05
6.52705e-05
0.000136375
0.000194543
0.000231919
0.000301159
0.000355125
0.000369515
0.000428021
0.000545155
0.000581384
0.000694194
0.00075787
0.000824202
0.000917775
0.000985704
0.000986047
0.000996753
0.000979423
0.000921169
0.000817736
0.000753313
0.00069083
0.000581438
0.000548035
0.000432969
0.000371583
0.000356511
0.000306572
0.000235363
0.000195884
0.000136524
0.000276327
0.000368047
0.000459798
0.000592432
0.0007364
0.000839027
0.0009607
0.00112613
0.00118547
0.00127905
0.0012722
0.00131172
0.00139055
0.00145513
0.00141486
0.00143409
0.00145106
0.00136463
0.00132142
0.00126886
0.00127461
0.00118877
0.00112815
0.000945861
0.000839445
0.000747941
0.000607956
0.000465691
0.000367968
0.000277319
0.000417939
0.000472188
0.000537359
0.000743294
0.000882115
0.0010289
0.00113655
0.00132129
0.00141569
0.00154971
0.00155778
0.0015069
0.00153195
0.00163958
0.00159095
0.0016477
0.00162005
0.00151513
0.00146581
0.00154119
0.0015495
0.00142648
0.00133721
0.0011245
0.0010349
0.000915255
0.000757734
0.000552125
0.000469435
0.00041732
0.000469576
0.000473805
0.000599263
0.000729142
0.000911949
0.000989669
0.00113017
0.00140288
0.00141021
0.00153916
0.00143088
0.00140884
0.00138982
0.00144334
0.00144484
0.00145266
0.00144026
0.00140841
0.00139279
0.00143056
0.00157944
0.00145647
0.00144146
0.00114415
0.000981302
0.000923222
0.000746316
0.000609235
0.000466474
0.000474182
0.000400408
0.00046229
0.000577076
0.000758507
0.000827572
0.000863076
0.000960179
0.00107717
0.00111428
0.00116052
0.00116413
0.00122236
0.00122767
0.00126523
0.00134692
0.0013544
0.00126919
0.0012314
0.00123425
0.00117126
0.00117972
0.00114494
0.00111439
0.000989845
0.000887604
0.000847393
0.000773832
0.00058596
0.00046732
0.000415932
0.00030445
0.000366958
0.000501508
0.000633621
0.000631444
0.000618601
0.000696721
0.000762279
0.000784007
0.00086043
0.000914646
0.000995469
0.00102817
0.00106183
0.00116238
0.00116213
0.00105957
0.00103817
0.00101292
0.000920866
0.000875089
0.000809316
0.000801816
0.000724869
0.000635781
0.000635463
0.000638803
0.000504125
0.000371349
0.000310358
0.000236188
0.000262062
0.000327788
0.000424466
0.000380487
0.000388791
0.000464484
0.000523869
0.000582691
0.000640127
0.000649599
0.000680075
0.000686653
0.000732712
0.000777842
0.000777356
0.000739563
0.000692742
0.000676324
0.000643571
0.000650573
0.000595034
0.000537354
0.000475583
0.000397123
0.000383557
0.000424096
0.000329368
0.000263991
0.000235978
0.000188971
0.00019971
0.000217571
0.00025943
0.00023734
0.000227727
0.000268493
0.000329418
0.000408566
0.000496035
0.00054845
0.000570035
0.000570185
0.000584295
0.000587448
0.00058463
0.000586565
0.000571617
0.000565714
0.000540974
0.000496085
0.000410302
0.00033322
0.000272706
0.000231268
0.000239679
0.00026175
0.000219408
0.000201726
0.000189875
0.000154897
0.000157376
0.000160783
0.000171937
0.000167312
0.000160095
0.000168398
0.000192984
0.000242683
0.000321142
0.000407471
0.00048603
0.000534679
0.000559771
0.000557392
0.000554831
0.000560883
0.000536643
0.000484454
0.000403764
0.000320488
0.000243022
0.000194235
0.000170033
0.000161744
0.000169228
0.000173992
0.0001617
0.000158463
0.000155427
0.000131264
0.000128572
0.000128334
0.000129776
0.000129254
0.000127946
0.000129946
0.000136092
0.000152232
0.000189851
0.000253462
0.000338245
0.000427322
0.000495835
0.00052027
0.000518474
0.000496564
0.000429138
0.000337825
0.000252682
0.000190113
0.000152706
0.000136756
0.000130618
0.000128721
0.000130408
0.000131086
0.000128913
0.000129555
0.000131695
0.000113633
0.000109672
0.000108467
0.000108239
0.000108418
0.000108625
0.000109862
0.00011234
0.000117073
0.000128005
0.000153405
0.000201413
0.000269593
0.000343625
0.000392775
0.000391964
0.000343926
0.000270559
0.000201662
0.000153471
0.000128613
0.000117401
0.000112761
0.000110209
0.000109084
0.000108709
0.000108884
0.000109013
0.000110313
0.000114252
0.000100367
9.64758e-05
9.53124e-05
9.53245e-05
9.5527e-05
9.61596e-05
9.73306e-05
9.86678e-05
0.00010041
0.000103389
0.000109915
0.000124463
0.000151495
0.000188201
0.000222843
0.000222547
0.000188149
0.000151846
0.000124686
0.000110159
0.000103831
0.000100589
9.89854e-05
9.75107e-05
9.65527e-05
9.58927e-05
9.54193e-05
9.58033e-05
9.69444e-05
0.000100894
9.00332e-05
8.60653e-05
8.52463e-05
8.53119e-05
8.57056e-05
8.6517e-05
8.75606e-05
8.84261e-05
8.93076e-05
9.02099e-05
9.15027e-05
9.42178e-05
9.99742e-05
0.00010971
0.000120329
0.000120299
0.000109828
0.000100231
9.44431e-05
9.17405e-05
9.05051e-05
8.94804e-05
8.87365e-05
8.77566e-05
8.67612e-05
8.60524e-05
8.55239e-05
8.56095e-05
8.66124e-05
9.06328e-05
8.17738e-05
7.76075e-05
7.69045e-05
7.70003e-05
7.75083e-05
7.8245e-05
7.90037e-05
7.95365e-05
7.99686e-05
8.01631e-05
8.01622e-05
8.02366e-05
8.06639e-05
8.17712e-05
8.32913e-05
8.32718e-05
8.19163e-05
8.08722e-05
8.04841e-05
8.03994e-05
8.03337e-05
8.0104e-05
7.97572e-05
7.91456e-05
7.83957e-05
7.76938e-05
7.73083e-05
7.72352e-05
7.81657e-05
8.23056e-05
7.46665e-05
7.04903e-05
6.96882e-05
6.98842e-05
7.03624e-05
7.09211e-05
7.13498e-05
7.15989e-05
7.16301e-05
7.13771e-05
7.094e-05
7.0466e-05
6.99349e-05
6.94674e-05
6.92374e-05
6.92518e-05
6.96181e-05
7.00873e-05
7.06428e-05
7.11712e-05
7.15602e-05
7.17937e-05
7.17286e-05
7.13755e-05
7.09531e-05
7.05246e-05
7.02573e-05
7.00821e-05
7.08925e-05
7.49811e-05
6.81826e-05
6.41304e-05
6.34421e-05
6.36795e-05
6.40514e-05
6.43717e-05
6.45053e-05
6.44359e-05
6.41081e-05
6.35945e-05
6.2973e-05
6.22522e-05
6.14375e-05
6.07067e-05
6.02615e-05
6.03493e-05
6.09342e-05
6.16375e-05
6.23763e-05
6.31368e-05
6.38018e-05
6.43225e-05
6.45509e-05
6.45351e-05
6.44035e-05
6.41839e-05
6.39402e-05
6.37635e-05
6.45263e-05
6.84001e-05
6.21913e-05
5.85656e-05
5.80523e-05
5.81742e-05
5.83625e-05
5.84379e-05
5.83551e-05
5.80411e-05
5.75204e-05
5.68762e-05
5.61062e-05
5.52125e-05
5.42738e-05
5.35055e-05
5.30715e-05
5.31727e-05
5.37179e-05
5.44642e-05
5.53338e-05
5.62693e-05
5.71243e-05
5.77975e-05
5.82117e-05
5.84096e-05
5.84442e-05
5.8357e-05
5.82018e-05
5.81493e-05
5.89009e-05
6.24116e-05
5.67396e-05
5.37334e-05
5.31712e-05
5.31598e-05
5.31546e-05
5.3089e-05
5.28596e-05
5.24103e-05
5.18156e-05
5.1072e-05
5.01839e-05
4.92231e-05
4.82945e-05
4.7542e-05
4.70927e-05
4.71503e-05
4.76578e-05
4.84241e-05
4.93499e-05
5.03412e-05
5.12685e-05
5.20284e-05
5.25609e-05
5.28967e-05
5.30625e-05
5.31138e-05
5.31025e-05
5.31721e-05
5.38801e-05
5.7009e-05
5.20798e-05
4.93015e-05
4.87064e-05
4.86333e-05
4.85669e-05
4.84216e-05
4.80649e-05
4.75437e-05
4.68952e-05
4.60845e-05
4.51624e-05
4.4212e-05
4.33084e-05
4.25553e-05
4.20836e-05
4.20989e-05
4.25701e-05
4.33252e-05
4.42564e-05
4.52524e-05
4.62035e-05
4.70119e-05
4.76201e-05
4.80465e-05
4.83384e-05
4.85238e-05
4.86314e-05
4.87616e-05
4.93933e-05
5.21666e-05
4.76648e-05
4.52346e-05
4.47802e-05
4.46653e-05
4.45186e-05
4.42291e-05
4.37939e-05
4.32744e-05
4.26257e-05
4.18228e-05
4.09293e-05
4.0002e-05
3.91081e-05
3.83587e-05
3.78924e-05
3.78873e-05
3.83259e-05
3.90561e-05
3.99594e-05
4.09222e-05
4.18522e-05
4.26725e-05
4.33374e-05
4.38446e-05
4.42283e-05
4.45034e-05
4.46847e-05
4.48461e-05
4.54156e-05
4.78417e-05
4.37737e-05
4.18683e-05
4.14189e-05
4.11861e-05
4.09028e-05
4.05374e-05
4.01229e-05
3.96162e-05
3.89644e-05
3.81925e-05
3.73373e-05
3.64276e-05
3.55449e-05
3.48149e-05
3.43704e-05
3.4357e-05
3.47637e-05
3.54639e-05
3.63405e-05
3.72824e-05
3.81973e-05
3.9014e-05
3.96915e-05
4.02257e-05
4.06485e-05
4.09745e-05
4.12111e-05
4.14147e-05
4.19455e-05
4.40202e-05
4.05454e-05
3.89703e-05
3.84205e-05
3.81228e-05
3.78168e-05
3.74962e-05
3.71009e-05
3.65714e-05
3.59272e-05
3.51943e-05
3.43761e-05
3.34969e-05
3.26578e-05
3.19778e-05
3.15683e-05
3.15564e-05
3.19395e-05
3.26125e-05
3.34594e-05
3.43576e-05
3.52104e-05
3.59678e-05
3.66119e-05
3.71449e-05
3.75842e-05
3.7939e-05
3.82133e-05
3.84422e-05
3.89138e-05
4.06362e-05
3.7678e-05
3.62367e-05
3.57473e-05
3.55183e-05
3.5288e-05
3.50036e-05
3.45745e-05
3.40381e-05
3.34375e-05
3.27443e-05
3.19575e-05
3.11278e-05
3.03592e-05
2.97458e-05
2.93739e-05
2.93658e-05
2.97293e-05
3.03668e-05
3.11578e-05
3.19779e-05
3.2745e-05
3.3434e-05
3.40405e-05
3.45682e-05
3.50121e-05
3.53705e-05
3.5641e-05
3.58484e-05
3.62328e-05
3.76421e-05
3.51098e-05
3.38338e-05
3.3529e-05
3.33708e-05
3.31662e-05
3.28496e-05
3.2416e-05
3.19407e-05
3.14021e-05
3.07489e-05
3.00011e-05
2.92345e-05
2.85375e-05
2.79783e-05
2.76334e-05
2.7629e-05
2.7976e-05
2.8568e-05
2.92821e-05
3.00114e-05
3.07026e-05
3.13425e-05
3.1924e-05
3.24339e-05
3.28535e-05
3.31747e-05
3.34024e-05
3.35694e-05
3.38817e-05
3.50466e-05
3.28099e-05
3.18631e-05
3.16407e-05
3.14752e-05
3.12637e-05
3.09538e-05
3.05966e-05
3.02002e-05
2.97013e-05
2.90869e-05
2.84049e-05
2.77257e-05
2.71053e-05
2.65898e-05
2.62635e-05
2.62632e-05
2.65906e-05
2.71278e-05
2.77602e-05
2.84068e-05
2.90347e-05
2.96275e-05
3.01675e-05
3.06288e-05
3.09949e-05
3.12664e-05
3.14595e-05
3.16101e-05
3.18823e-05
3.2844e-05
3.0903e-05
3.02261e-05
2.99798e-05
2.9819e-05
2.96372e-05
2.93902e-05
2.91023e-05
2.87293e-05
2.82491e-05
2.7693e-05
2.71095e-05
2.65348e-05
2.5986e-05
2.55048e-05
2.51993e-05
2.52055e-05
2.55142e-05
2.59985e-05
2.6553e-05
2.71182e-05
2.76715e-05
2.81959e-05
2.867e-05
2.90719e-05
2.93917e-05
2.96355e-05
2.98181e-05
2.99662e-05
3.02034e-05
3.09737e-05
2.93918e-05
2.87733e-05
2.85479e-05
2.84483e-05
2.83039e-05
2.80975e-05
2.78227e-05
2.7455e-05
2.70224e-05
2.65598e-05
2.60896e-05
2.56098e-05
2.51205e-05
2.4677e-05
2.44032e-05
2.44155e-05
2.46916e-05
2.51101e-05
2.55824e-05
2.60662e-05
2.65437e-05
2.69991e-05
2.74111e-05
2.77634e-05
2.80513e-05
2.82774e-05
2.84498e-05
2.85859e-05
2.87781e-05
2.93677e-05
2.80125e-05
2.74817e-05
2.73634e-05
2.73022e-05
2.71581e-05
2.69601e-05
2.66944e-05
2.63707e-05
2.60195e-05
2.56545e-05
2.52727e-05
2.48569e-05
2.4419e-05
2.4029e-05
2.37951e-05
2.3802e-05
2.40265e-05
2.43734e-05
2.47763e-05
2.52018e-05
2.56263e-05
2.60281e-05
2.63877e-05
2.66947e-05
2.6946e-05
2.71428e-05
2.72905e-05
2.74026e-05
2.75511e-05
2.79913e-05
2.67844e-05
2.64717e-05
2.64271e-05
2.63324e-05
2.61812e-05
2.59998e-05
2.57726e-05
2.55143e-05
2.52327e-05
2.49288e-05
2.45921e-05
2.42168e-05
2.38335e-05
2.35083e-05
2.33146e-05
2.33091e-05
2.34842e-05
2.37761e-05
2.41332e-05
2.45192e-05
2.49026e-05
2.52568e-05
2.55652e-05
2.58207e-05
2.6024e-05
2.61803e-05
2.62962e-05
2.63846e-05
2.65002e-05
2.68374e-05
2.58887e-05
2.57453e-05
2.56534e-05
2.55171e-05
2.53862e-05
2.52404e-05
2.5064e-05
2.48582e-05
2.46215e-05
2.43529e-05
2.40488e-05
2.37206e-05
2.34038e-05
2.31459e-05
2.29854e-05
2.29668e-05
2.31007e-05
2.3348e-05
2.36628e-05
2.40029e-05
2.43335e-05
2.46302e-05
2.4881e-05
2.50851e-05
2.52457e-05
2.53703e-05
2.54664e-05
2.55431e-05
2.56376e-05
2.58906e-05
2.5215e-05
2.50759e-05
2.4928e-05
2.48241e-05
2.47416e-05
2.46387e-05
2.45066e-05
2.43377e-05
2.41331e-05
2.38973e-05
2.36363e-05
2.33682e-05
2.31221e-05
2.29198e-05
2.27803e-05
2.27517e-05
2.28537e-05
2.30561e-05
2.33153e-05
2.35917e-05
2.38569e-05
2.40948e-05
2.42985e-05
2.44689e-05
2.46091e-05
2.4722e-05
2.48109e-05
2.48795e-05
2.49505e-05
2.51222e-05
2.45755e-05
2.44098e-05
2.43213e-05
2.42899e-05
2.42465e-05
2.41691e-05
2.40548e-05
2.39034e-05
2.37243e-05
2.35227e-05
2.3306e-05
2.30917e-05
2.28967e-05
2.27277e-05
2.26059e-05
2.25797e-05
2.26645e-05
2.28277e-05
2.30317e-05
2.32465e-05
2.34554e-05
2.36522e-05
2.38324e-05
2.39898e-05
2.4121e-05
2.42257e-05
2.43042e-05
2.43571e-05
2.43983e-05
2.44968e-05
2.39808e-05
2.39004e-05
2.39126e-05
2.39125e-05
2.38689e-05
2.37855e-05
2.36693e-05
2.35335e-05
2.33838e-05
2.32159e-05
2.30362e-05
2.28603e-05
2.26953e-05
2.25481e-05
2.24439e-05
2.24274e-05
2.25081e-05
2.26477e-05
2.28129e-05
2.29851e-05
2.31575e-05
2.33273e-05
2.34865e-05