/*--------------------------------*- C++ -*----------------------------------*\
| =========                 |                                                 |
| \\      /  F ield         | OpenFOAM: The Open Source CFD Toolbox           |
|  \\    /   O peration     | Version:  2312                                  |
|   \\  /    A nd           | Website:  www.openfoam.com                      |
|    \\/     M anipulation  |                                                 |
\*---------------------------------------------------------------------------*/
FoamFile
{
    version     2.0;
    format      ascii;
    arch        "LSB;label=32;scalar=64";
    class       volScalarField;
    location    "1.338907018";
    object      nut;
}
// * * * * * * * * * * * * * * * * * * * * * * * * * * * * * * * * * * * * * //

dimensions      [0 2 -1 0 0 0 0];

internalField   nonuniform List<scalar> 
90000
(
5.09515e-06
5.09572e-06
5.09586e-06
5.09591e-06
5.09598e-06
5.09601e-06
5.09603e-06
5.09605e-06
5.09604e-06
5.09598e-06
5.09589e-06
5.09576e-06
5.09566e-06
5.09565e-06
5.09573e-06
5.09578e-06
5.0958e-06
5.09586e-06
5.09596e-06
5.09598e-06
5.09583e-06
5.0957e-06
5.09598e-06
5.09652e-06
5.09697e-06
5.09713e-06
5.09689e-06
5.09662e-06
5.09764e-06
5.09955e-06
5.09611e-06
5.10962e-06
5.11092e-06
5.11095e-06
5.11092e-06
5.11092e-06
5.11097e-06
5.11102e-06
5.11105e-06
5.11107e-06
5.11111e-06
5.11119e-06
5.11126e-06
5.1113e-06
5.1113e-06
5.11126e-06
5.1112e-06
5.11116e-06
5.11112e-06
5.11108e-06
5.11113e-06
5.11125e-06
5.11138e-06
5.1114e-06
5.11127e-06
5.11113e-06
5.11141e-06
5.11233e-06
5.11176e-06
5.10241e-06
5.09612e-06
5.11109e-06
5.11261e-06
5.11269e-06
5.1127e-06
5.11272e-06
5.11277e-06
5.1128e-06
5.11278e-06
5.11272e-06
5.11275e-06
5.11289e-06
5.11308e-06
5.11321e-06
5.11321e-06
5.11306e-06
5.11281e-06
5.11261e-06
5.11277e-06
5.11302e-06
5.11318e-06
5.11317e-06
5.11305e-06
5.11291e-06
5.113e-06
5.11327e-06
5.11352e-06
5.11444e-06
5.11566e-06
5.10142e-06
5.09598e-06
5.11116e-06
5.11283e-06
5.11296e-06
5.11301e-06
5.11307e-06
5.11313e-06
5.11316e-06
5.11314e-06
5.11305e-06
5.11296e-06
5.11301e-06
5.11311e-06
5.1132e-06
5.11318e-06
5.11302e-06
5.11282e-06
5.11284e-06
5.11313e-06
5.11332e-06
5.11332e-06
5.11317e-06
5.11318e-06
5.11357e-06
5.11393e-06
5.11424e-06
5.11469e-06
5.11474e-06
5.11531e-06
5.09892e-06
5.09594e-06
5.11121e-06
5.11289e-06
5.11304e-06
5.11309e-06
5.11312e-06
5.11315e-06
5.11318e-06
5.1132e-06
5.11318e-06
5.11312e-06
5.11304e-06
5.11294e-06
5.11282e-06
5.11278e-06
5.11291e-06
5.11309e-06
5.11323e-06
5.11327e-06
5.11318e-06
5.11304e-06
5.11312e-06
5.1135e-06
5.1139e-06
5.11416e-06
5.11416e-06
5.11404e-06
5.1142e-06
5.11312e-06
5.09751e-06
5.09603e-06
5.11128e-06
5.11288e-06
5.113e-06
5.11302e-06
5.11301e-06
5.113e-06
5.11303e-06
5.11308e-06
5.11314e-06
5.11319e-06
5.11322e-06
5.11319e-06
5.11308e-06
5.11295e-06
5.11299e-06
5.11315e-06
5.11323e-06
5.11319e-06
5.11309e-06
5.11309e-06
5.11326e-06
5.1135e-06
5.11368e-06
5.11376e-06
5.11371e-06
5.1134e-06
5.11417e-06
5.11256e-06
5.09728e-06
5.09617e-06
5.11132e-06
5.1129e-06
5.11306e-06
5.11313e-06
5.11317e-06
5.11314e-06
5.11306e-06
5.11298e-06
5.11302e-06
5.11317e-06
5.11334e-06
5.11347e-06
5.11347e-06
5.11329e-06
5.11301e-06
5.11282e-06
5.11286e-06
5.11301e-06
5.11316e-06
5.11328e-06
5.11334e-06
5.1133e-06
5.11315e-06
5.11305e-06
5.11337e-06
5.11387e-06
5.1147e-06
5.11309e-06
5.09708e-06
5.09619e-06
5.11152e-06
5.11314e-06
5.11336e-06
5.1135e-06
5.1136e-06
5.1136e-06
5.11346e-06
5.11319e-06
5.11291e-06
5.11302e-06
5.11326e-06
5.11347e-06
5.11354e-06
5.11338e-06
5.11302e-06
5.11259e-06
5.11253e-06
5.11289e-06
5.11317e-06
5.11331e-06
5.11329e-06
5.11311e-06
5.11292e-06
5.11304e-06
5.11363e-06
5.11422e-06
5.11459e-06
5.11277e-06
5.09673e-06
5.09622e-06
5.11187e-06
5.11346e-06
5.11366e-06
5.11382e-06
5.11392e-06
5.11393e-06
5.11382e-06
5.11359e-06
5.11325e-06
5.113e-06
5.11308e-06
5.1132e-06
5.11329e-06
5.11331e-06
5.11324e-06
5.1131e-06
5.11301e-06
5.11307e-06
5.11321e-06
5.11327e-06
5.11319e-06
5.11301e-06
5.11293e-06
5.11323e-06
5.11377e-06
5.11415e-06
5.1141e-06
5.11221e-06
5.09646e-06
5.09673e-06
5.11207e-06
5.11355e-06
5.1137e-06
5.1138e-06
5.11385e-06
5.11387e-06
5.11386e-06
5.1138e-06
5.11368e-06
5.11346e-06
5.11314e-06
5.11292e-06
5.11298e-06
5.11324e-06
5.11355e-06
5.11375e-06
5.11383e-06
5.1138e-06
5.1137e-06
5.11355e-06
5.11334e-06
5.11309e-06
5.11297e-06
5.11324e-06
5.11357e-06
5.1137e-06
5.11349e-06
5.11181e-06
5.09634e-06
5.09715e-06
5.11212e-06
5.11348e-06
5.11355e-06
5.11349e-06
5.11338e-06
5.11333e-06
5.11342e-06
5.1136e-06
5.11373e-06
5.11369e-06
5.11346e-06
5.11311e-06
5.11296e-06
5.1132e-06
5.11367e-06
5.1141e-06
5.11439e-06
5.11452e-06
5.11443e-06
5.11417e-06
5.11379e-06
5.11339e-06
5.11312e-06
5.1132e-06
5.11335e-06
5.11345e-06
5.1134e-06
5.11177e-06
5.09643e-06
5.09709e-06
5.11247e-06
5.11374e-06
5.11368e-06
5.11349e-06
5.11326e-06
5.11308e-06
5.1131e-06
5.11326e-06
5.11344e-06
5.11354e-06
5.11352e-06
5.11334e-06
5.11304e-06
5.11299e-06
5.11354e-06
5.11418e-06
5.11464e-06
5.11485e-06
5.11476e-06
5.11445e-06
5.114e-06
5.1135e-06
5.1131e-06
5.11309e-06
5.11333e-06
5.11351e-06
5.11346e-06
5.112e-06
5.09654e-06
5.09691e-06
5.11284e-06
5.11411e-06
5.11415e-06
5.11427e-06
5.11439e-06
5.11446e-06
5.11438e-06
5.11408e-06
5.11365e-06
5.11347e-06
5.11363e-06
5.11372e-06
5.11367e-06
5.11359e-06
5.11375e-06
5.11405e-06
5.11428e-06
5.11435e-06
5.11428e-06
5.11408e-06
5.11379e-06
5.11343e-06
5.11312e-06
5.11317e-06
5.11337e-06
5.11348e-06
5.11347e-06
5.11201e-06
5.09656e-06
5.09794e-06
5.11271e-06
5.11433e-06
5.11471e-06
5.11526e-06
5.11568e-06
5.11579e-06
5.11548e-06
5.11483e-06
5.11405e-06
5.11352e-06
5.11369e-06
5.11407e-06
5.11438e-06
5.11451e-06
5.11444e-06
5.11414e-06
5.11367e-06
5.11334e-06
5.11333e-06
5.11347e-06
5.11353e-06
5.11348e-06
5.11336e-06
5.11334e-06
5.11336e-06
5.11342e-06
5.11347e-06
5.11193e-06
5.09669e-06
5.09894e-06
5.1121e-06
5.11477e-06
5.11556e-06
5.11612e-06
5.1163e-06
5.11605e-06
5.11543e-06
5.11464e-06
5.11385e-06
5.11331e-06
5.11352e-06
5.11411e-06
5.11465e-06
5.11489e-06
5.11478e-06
5.11433e-06
5.11366e-06
5.11302e-06
5.1128e-06
5.11313e-06
5.11346e-06
5.11363e-06
5.11361e-06
5.11348e-06
5.11346e-06
5.11373e-06
5.11387e-06
5.11253e-06
5.09735e-06
5.09906e-06
5.11361e-06
5.1157e-06
5.1161e-06
5.11611e-06
5.11573e-06
5.11508e-06
5.11441e-06
5.11388e-06
5.11345e-06
5.11311e-06
5.11334e-06
5.11398e-06
5.11454e-06
5.1148e-06
5.11474e-06
5.11447e-06
5.11402e-06
5.11352e-06
5.11314e-06
5.11319e-06
5.11347e-06
5.11369e-06
5.11372e-06
5.11369e-06
5.11386e-06
5.11418e-06
5.11449e-06
5.11343e-06
5.0979e-06
5.09831e-06
5.11521e-06
5.11632e-06
5.11606e-06
5.11541e-06
5.11455e-06
5.11377e-06
5.11362e-06
5.11367e-06
5.11352e-06
5.11333e-06
5.11353e-06
5.11396e-06
5.11434e-06
5.11454e-06
5.11461e-06
5.11451e-06
5.11425e-06
5.11388e-06
5.11354e-06
5.1134e-06
5.11349e-06
5.11364e-06
5.11374e-06
5.11387e-06
5.11415e-06
5.11449e-06
5.11478e-06
5.11343e-06
5.09772e-06
5.09784e-06
5.11584e-06
5.11652e-06
5.11593e-06
5.11512e-06
5.11436e-06
5.11395e-06
5.11381e-06
5.11374e-06
5.11359e-06
5.11363e-06
5.11372e-06
5.11384e-06
5.11398e-06
5.11414e-06
5.11427e-06
5.11432e-06
5.11425e-06
5.11407e-06
5.11382e-06
5.11357e-06
5.11361e-06
5.11377e-06
5.11391e-06
5.11414e-06
5.11442e-06
5.11462e-06
5.11461e-06
5.11295e-06
5.09748e-06
5.09864e-06
5.11588e-06
5.11665e-06
5.1161e-06
5.11546e-06
5.11497e-06
5.11464e-06
5.11434e-06
5.11398e-06
5.11372e-06
5.11363e-06
5.11354e-06
5.11351e-06
5.11351e-06
5.11359e-06
5.11375e-06
5.11394e-06
5.11405e-06
5.114e-06
5.11383e-06
5.11365e-06
5.11372e-06
5.11389e-06
5.11429e-06
5.11472e-06
5.11489e-06
5.11485e-06
5.11463e-06
5.11297e-06
5.0975e-06
5.09948e-06
5.11576e-06
5.11673e-06
5.11628e-06
5.11579e-06
5.11547e-06
5.11524e-06
5.11495e-06
5.1146e-06
5.11426e-06
5.11396e-06
5.11366e-06
5.11336e-06
5.11311e-06
5.11311e-06
5.11338e-06
5.11368e-06
5.11383e-06
5.11382e-06
5.11373e-06
5.11372e-06
5.11405e-06
5.11471e-06
5.11526e-06
5.11542e-06
5.11531e-06
5.11518e-06
5.11505e-06
5.11371e-06
5.09816e-06
5.10017e-06
5.11555e-06
5.11669e-06
5.11639e-06
5.11615e-06
5.11602e-06
5.11586e-06
5.11559e-06
5.11524e-06
5.11483e-06
5.11438e-06
5.11385e-06
5.11335e-06
5.11321e-06
5.11344e-06
5.11373e-06
5.11389e-06
5.1139e-06
5.11393e-06
5.11412e-06
5.11458e-06
5.11524e-06
5.11572e-06
5.11574e-06
5.11545e-06
5.11529e-06
5.11524e-06
5.1153e-06
5.11406e-06
5.09857e-06
5.10066e-06
5.11539e-06
5.1168e-06
5.11673e-06
5.11666e-06
5.11656e-06
5.11633e-06
5.116e-06
5.11558e-06
5.11508e-06
5.11446e-06
5.11384e-06
5.11366e-06
5.11397e-06
5.1141e-06
5.11403e-06
5.11392e-06
5.11401e-06
5.11438e-06
5.11499e-06
5.11574e-06
5.11621e-06
5.11612e-06
5.11576e-06
5.11569e-06
5.11574e-06
5.11579e-06
5.11581e-06
5.11435e-06
5.09922e-06
5.10092e-06
5.11547e-06
5.11719e-06
5.1173e-06
5.11723e-06
5.11699e-06
5.11663e-06
5.1162e-06
5.11573e-06
5.11517e-06
5.11457e-06
5.11421e-06
5.11432e-06
5.11422e-06
5.11392e-06
5.11368e-06
5.11377e-06
5.11425e-06
5.11504e-06
5.1159e-06
5.11648e-06
5.11651e-06
5.1162e-06
5.11621e-06
5.11642e-06
5.1166e-06
5.11673e-06
5.11669e-06
5.11515e-06
5.1002e-06
5.10125e-06
5.11627e-06
5.11802e-06
5.1181e-06
5.11788e-06
5.1175e-06
5.11708e-06
5.11666e-06
5.11618e-06
5.1156e-06
5.11498e-06
5.11477e-06
5.11455e-06
5.11403e-06
5.11354e-06
5.11361e-06
5.11399e-06
5.11472e-06
5.11572e-06
5.11645e-06
5.11665e-06
5.11654e-06
5.11676e-06
5.11714e-06
5.11748e-06
5.11777e-06
5.11793e-06
5.11796e-06
5.11638e-06
5.1015e-06
5.10262e-06
5.11767e-06
5.11927e-06
5.11919e-06
5.11884e-06
5.11842e-06
5.11803e-06
5.11761e-06
5.11706e-06
5.11635e-06
5.11564e-06
5.11519e-06
5.11462e-06
5.11405e-06
5.11391e-06
5.11395e-06
5.11432e-06
5.11523e-06
5.11605e-06
5.1164e-06
5.11657e-06
5.11717e-06
5.11775e-06
5.11819e-06
5.11868e-06
5.11903e-06
5.11928e-06
5.11944e-06
5.1181e-06
5.10331e-06
5.10468e-06
5.11952e-06
5.12094e-06
5.12069e-06
5.12026e-06
5.11983e-06
5.1194e-06
5.11886e-06
5.11813e-06
5.11729e-06
5.11648e-06
5.11573e-06
5.1151e-06
5.11472e-06
5.11436e-06
5.11414e-06
5.1146e-06
5.11539e-06
5.11596e-06
5.11658e-06
5.1175e-06
5.11825e-06
5.11878e-06
5.11934e-06
5.11991e-06
5.12041e-06
5.1208e-06
5.12126e-06
5.12046e-06
5.10483e-06
5.10724e-06
5.12168e-06
5.12294e-06
5.12257e-06
5.12209e-06
5.12158e-06
5.12099e-06
5.12024e-06
5.11934e-06
5.11837e-06
5.11746e-06
5.11672e-06
5.11617e-06
5.11563e-06
5.11492e-06
5.11456e-06
5.11493e-06
5.11571e-06
5.11678e-06
5.11788e-06
5.11869e-06
5.11939e-06
5.12012e-06
5.12081e-06
5.12152e-06
5.12228e-06
5.12285e-06
5.12342e-06
5.12228e-06
5.10665e-06
5.11005e-06
5.12411e-06
5.12531e-06
5.12488e-06
5.1243e-06
5.12364e-06
5.12284e-06
5.12189e-06
5.12086e-06
5.11986e-06
5.11898e-06
5.11828e-06
5.11759e-06
5.11667e-06
5.11567e-06
5.11534e-06
5.11593e-06
5.11704e-06
5.11824e-06
5.11922e-06
5.12006e-06
5.12102e-06
5.12193e-06
5.12281e-06
5.12372e-06
5.12474e-06
5.12547e-06
5.12558e-06
5.12416e-06
5.10951e-06
5.11304e-06
5.12697e-06
5.1281e-06
5.12761e-06
5.12694e-06
5.12613e-06
5.12515e-06
5.12406e-06
5.12294e-06
5.12188e-06
5.12092e-06
5.12002e-06
5.1189e-06
5.11758e-06
5.11648e-06
5.11633e-06
5.11719e-06
5.11843e-06
5.11967e-06
5.12084e-06
5.12191e-06
5.12305e-06
5.12428e-06
5.12544e-06
5.12646e-06
5.12762e-06
5.12842e-06
5.12821e-06
5.12711e-06
5.1132e-06
5.11649e-06
5.13041e-06
5.13151e-06
5.13095e-06
5.13014e-06
5.12916e-06
5.12803e-06
5.12679e-06
5.12553e-06
5.12427e-06
5.12304e-06
5.1217e-06
5.12011e-06
5.11851e-06
5.11741e-06
5.11744e-06
5.11848e-06
5.11984e-06
5.12128e-06
5.12278e-06
5.12418e-06
5.12557e-06
5.12713e-06
5.12854e-06
5.12959e-06
5.13075e-06
5.13169e-06
5.13178e-06
5.13128e-06
5.11707e-06
5.12075e-06
5.13465e-06
5.13568e-06
5.135e-06
5.13402e-06
5.13286e-06
5.13154e-06
5.13015e-06
5.12866e-06
5.12709e-06
5.12545e-06
5.12363e-06
5.12169e-06
5.11993e-06
5.11879e-06
5.11887e-06
5.12005e-06
5.12165e-06
5.12336e-06
5.12523e-06
5.12708e-06
5.12874e-06
5.13047e-06
5.13206e-06
5.1332e-06
5.13424e-06
5.13557e-06
5.13642e-06
5.13563e-06
5.1213e-06
5.126e-06
5.13981e-06
5.14072e-06
5.13992e-06
5.13876e-06
5.1374e-06
5.13589e-06
5.13425e-06
5.13247e-06
5.13051e-06
5.12839e-06
5.12615e-06
5.12391e-06
5.12195e-06
5.12064e-06
5.12064e-06
5.12197e-06
5.12397e-06
5.12604e-06
5.12824e-06
5.13053e-06
5.13249e-06
5.13426e-06
5.13613e-06
5.13749e-06
5.13858e-06
5.14037e-06
5.14155e-06
5.14034e-06
5.12646e-06
5.13236e-06
5.14603e-06
5.14684e-06
5.14593e-06
5.14458e-06
5.14295e-06
5.14112e-06
5.13914e-06
5.13696e-06
5.13457e-06
5.13199e-06
5.12935e-06
5.12679e-06
5.12453e-06
5.12294e-06
5.1229e-06
5.12437e-06
5.12687e-06
5.12939e-06
5.13189e-06
5.1346e-06
5.13686e-06
5.13884e-06
5.14104e-06
5.14281e-06
5.14418e-06
5.14624e-06
5.14731e-06
5.1462e-06
5.13282e-06
5.14011e-06
5.1536e-06
5.15429e-06
5.1532e-06
5.15157e-06
5.14959e-06
5.14736e-06
5.14496e-06
5.14236e-06
5.13954e-06
5.13656e-06
5.13353e-06
5.13053e-06
5.12779e-06
5.12587e-06
5.12594e-06
5.12758e-06
5.13048e-06
5.13353e-06
5.13641e-06
5.13946e-06
5.14232e-06
5.14467e-06
5.14712e-06
5.14941e-06
5.15126e-06
5.15326e-06
5.15432e-06
5.15349e-06
5.14055e-06
5.14955e-06
5.16271e-06
5.16321e-06
5.16184e-06
5.15988e-06
5.15754e-06
5.15495e-06
5.15214e-06
5.14912e-06
5.14587e-06
5.14241e-06
5.13883e-06
5.13521e-06
5.13193e-06
5.12967e-06
5.13001e-06
5.13192e-06
5.13511e-06
5.13873e-06
5.14214e-06
5.1457e-06
5.14933e-06
5.152e-06
5.1547e-06
5.15765e-06
5.15992e-06
5.16169e-06
5.16291e-06
5.16237e-06
5.14978e-06
5.16088e-06
5.17355e-06
5.1738e-06
5.17216e-06
5.16992e-06
5.1673e-06
5.16436e-06
5.16113e-06
5.15763e-06
5.1538e-06
5.14968e-06
5.14538e-06
5.14107e-06
5.13744e-06
5.1349e-06
5.13542e-06
5.13774e-06
5.14125e-06
5.14547e-06
5.14969e-06
5.15377e-06
5.15796e-06
5.16106e-06
5.16424e-06
5.16785e-06
5.17014e-06
5.17192e-06
5.17335e-06
5.17316e-06
5.16092e-06
5.17447e-06
5.18655e-06
5.18654e-06
5.18467e-06
5.18223e-06
5.17932e-06
5.176e-06
5.17224e-06
5.16809e-06
5.16356e-06
5.15868e-06
5.15376e-06
5.14885e-06
5.14505e-06
5.14218e-06
5.1425e-06
5.14522e-06
5.14926e-06
5.15416e-06
5.15931e-06
5.1638e-06
5.16847e-06
5.17224e-06
5.17611e-06
5.17995e-06
5.18234e-06
5.18445e-06
5.18626e-06
5.18636e-06
5.17458e-06
5.19077e-06
5.20221e-06
5.202e-06
5.19994e-06
5.19722e-06
5.19393e-06
5.19008e-06
5.18568e-06
5.18087e-06
5.17568e-06
5.17015e-06
5.16473e-06
5.15916e-06
5.1549e-06
5.15165e-06
5.15153e-06
5.15462e-06
5.15955e-06
5.16514e-06
5.17101e-06
5.17593e-06
5.18125e-06
5.18596e-06
5.19034e-06
5.19428e-06
5.19714e-06
5.19985e-06
5.20203e-06
5.20234e-06
5.19125e-06
5.21026e-06
5.22115e-06
5.22068e-06
5.21836e-06
5.21527e-06
5.21148e-06
5.20705e-06
5.20203e-06
5.19661e-06
5.19078e-06
5.18453e-06
5.17849e-06
5.17213e-06
5.16696e-06
5.16348e-06
5.1631e-06
5.16658e-06
5.17242e-06
5.17872e-06
5.18507e-06
5.19071e-06
5.19687e-06
5.20248e-06
5.20721e-06
5.21144e-06
5.21519e-06
5.21837e-06
5.22077e-06
5.22154e-06
5.211e-06
5.23359e-06
5.24397e-06
5.2431e-06
5.24048e-06
5.23701e-06
5.23271e-06
5.22769e-06
5.22206e-06
5.21598e-06
5.20942e-06
5.20231e-06
5.19531e-06
5.18854e-06
5.18221e-06
5.17842e-06
5.17815e-06
5.18207e-06
5.18847e-06
5.19561e-06
5.20246e-06
5.20919e-06
5.21617e-06
5.22238e-06
5.22766e-06
5.23245e-06
5.23706e-06
5.24053e-06
5.24324e-06
5.24457e-06
5.23408e-06
5.26141e-06
5.27139e-06
5.27016e-06
5.26725e-06
5.26332e-06
5.25842e-06
5.25284e-06
5.24666e-06
5.23989e-06
5.23255e-06
5.22475e-06
5.2166e-06
5.20964e-06
5.20221e-06
5.19767e-06
5.1976e-06
5.20226e-06
5.20915e-06
5.2172e-06
5.22465e-06
5.23253e-06
5.2401e-06
5.24674e-06
5.25294e-06
5.25827e-06
5.26335e-06
5.26734e-06
5.27047e-06
5.27201e-06
5.2614e-06
5.29479e-06
5.30486e-06
5.30306e-06
5.29957e-06
5.29501e-06
5.28953e-06
5.28355e-06
5.27681e-06
5.26929e-06
5.26117e-06
5.25287e-06
5.2438e-06
5.23627e-06
5.22803e-06
5.22255e-06
5.22297e-06
5.22848e-06
5.23568e-06
5.24449e-06
5.2527e-06
5.26145e-06
5.26952e-06
5.27664e-06
5.28367e-06
5.28964e-06
5.29494e-06
5.2996e-06
5.30337e-06
5.30536e-06
5.29422e-06
5.33527e-06
5.34583e-06
5.34275e-06
5.33853e-06
5.33354e-06
5.32747e-06
5.3209e-06
5.31343e-06
5.30522e-06
5.29671e-06
5.28779e-06
5.27836e-06
5.26994e-06
5.26133e-06
5.25534e-06
5.25598e-06
5.26189e-06
5.26956e-06
5.27892e-06
5.28792e-06
5.29699e-06
5.30542e-06
5.31342e-06
5.32076e-06
5.32765e-06
5.33352e-06
5.33855e-06
5.34328e-06
5.34631e-06
5.33374e-06
5.38475e-06
5.39673e-06
5.39196e-06
5.38697e-06
5.38126e-06
5.37439e-06
5.36717e-06
5.35903e-06
5.35016e-06
5.34198e-06
5.33262e-06
5.32341e-06
5.31548e-06
5.30729e-06
5.30178e-06
5.30249e-06
5.30777e-06
5.3155e-06
5.32387e-06
5.3326e-06
5.34191e-06
5.35059e-06
5.3593e-06
5.36653e-06
5.37402e-06
5.38154e-06
5.38746e-06
5.39252e-06
5.39663e-06
5.3823e-06
5.44781e-06
5.46593e-06
5.45846e-06
5.45272e-06
5.44465e-06
5.43618e-06
5.4288e-06
5.42026e-06
5.41152e-06
5.40545e-06
5.40046e-06
5.39907e-06
5.4028e-06
5.40499e-06
5.40886e-06
5.41296e-06
5.4066e-06
5.40225e-06
5.40007e-06
5.40102e-06
5.40578e-06
5.41165e-06
5.41999e-06
5.42861e-06
5.43557e-06
5.44465e-06
5.45331e-06
5.45883e-06
5.46603e-06
5.44451e-06
5.54925e-06
5.59614e-06
5.57822e-06
5.58383e-06
5.56054e-06
5.54432e-06
5.54477e-06
5.53509e-06
5.53219e-06
5.55337e-06
5.59004e-06
5.66589e-06
5.7808e-06
5.89278e-06
5.97708e-06
5.99759e-06
5.89856e-06
5.78241e-06
5.67382e-06
5.59139e-06
5.55451e-06
5.53353e-06
5.53431e-06
5.54526e-06
5.54354e-06
5.56007e-06
5.58603e-06
5.57875e-06
5.59818e-06
5.54392e-06
5.83606e-06
6.00547e-06
5.9506e-06
6.08083e-06
5.94337e-06
5.89338e-06
5.98823e-06
5.9679e-06
6.00781e-06
6.2435e-06
6.55269e-06
7.10915e-06
7.82505e-06
8.49633e-06
8.90357e-06
8.96369e-06
8.51657e-06
7.85061e-06
7.14803e-06
6.56259e-06
6.25213e-06
6.01262e-06
5.96659e-06
5.99329e-06
5.89353e-06
5.94037e-06
6.08754e-06
5.95145e-06
6.01569e-06
5.82329e-06
6.86118e-06
7.33795e-06
7.34082e-06
7.95051e-06
7.59023e-06
7.47041e-06
8.05425e-06
8.16068e-06
8.33964e-06
9.50551e-06
1.06641e-05
1.24892e-05
1.4125e-05
1.57742e-05
1.67206e-05
1.68055e-05
1.57774e-05
1.424e-05
1.25091e-05
1.07102e-05
9.54621e-06
8.34781e-06
8.16003e-06
8.08835e-06
7.48238e-06
7.58111e-06
7.97412e-06
7.33483e-06
7.37397e-06
6.82912e-06
9.46594e-06
9.94919e-06
1.15391e-05
1.17485e-05
1.33839e-05
1.23717e-05
1.39954e-05
1.60543e-05
1.52047e-05
1.91134e-05
2.05025e-05
2.27056e-05
2.46379e-05
2.63505e-05
2.71182e-05
2.72467e-05
2.62682e-05
2.48281e-05
2.25515e-05
2.05659e-05
1.91864e-05
1.5223e-05
1.60038e-05
1.41723e-05
1.24917e-05
1.33265e-05
1.18243e-05
1.15426e-05
1.00003e-05
9.43e-06
1.37083e-05
1.55184e-05
1.9196e-05
1.91359e-05
2.41278e-05
2.13292e-05
2.31849e-05
2.97793e-05
2.6736e-05
3.15138e-05
3.0769e-05
3.2057e-05
3.32341e-05
3.41776e-05
3.43752e-05
3.50965e-05
3.38191e-05
3.32601e-05
3.14335e-05
3.08857e-05
3.15856e-05
2.67263e-05
2.96244e-05
2.36257e-05
2.1292e-05
2.40457e-05
1.92988e-05
1.92992e-05
1.55847e-05
1.36978e-05
2.11079e-05
2.07231e-05
2.51328e-05
2.58899e-05
3.24697e-05
3.40313e-05
3.58979e-05
3.83808e-05
3.82248e-05
4.07757e-05
3.77252e-05
3.84456e-05
4.13445e-05
4.01582e-05
3.93254e-05
4.09737e-05
4.04746e-05
3.96909e-05
3.95942e-05
3.81409e-05
4.07866e-05
3.83047e-05
3.87164e-05
3.48751e-05
3.36251e-05
3.29747e-05
2.63661e-05
2.55637e-05
2.07014e-05
2.09959e-05
2.47441e-05
2.72284e-05
2.67029e-05
3.1111e-05
3.43853e-05
3.59208e-05
3.71454e-05
4.25627e-05
4.06005e-05
4.46201e-05
4.29982e-05
4.15684e-05
4.13725e-05
4.2657e-05
4.13662e-05
4.50347e-05
4.17504e-05
4.07237e-05
4.00627e-05
4.35783e-05
4.48764e-05
4.04655e-05
4.3443e-05
3.61846e-05
3.56754e-05
3.50068e-05
3.15166e-05
2.77217e-05
2.71258e-05
2.47386e-05
2.55875e-05
2.51378e-05
3.03149e-05
2.92775e-05
3.88632e-05
3.46379e-05
3.54594e-05
4.34197e-05
3.94261e-05
4.44093e-05
4.12275e-05
3.96992e-05
3.93145e-05
4.01478e-05
4.01091e-05
4.11811e-05
3.98378e-05
3.9459e-05
3.91176e-05
4.12976e-05
4.4796e-05
3.96767e-05
4.38048e-05
3.57849e-05
3.39558e-05
3.82205e-05
2.95441e-05
3.09078e-05
2.49132e-05
2.57687e-05
2.19324e-05
2.40792e-05
2.75247e-05
2.99692e-05
3.09306e-05
3.21755e-05
3.38313e-05
3.56736e-05
3.62584e-05
3.61646e-05
3.68086e-05
3.79598e-05
3.84024e-05
3.89281e-05
4.00579e-05
4.02067e-05
3.882e-05
3.8499e-05
3.8034e-05
3.69028e-05
3.63465e-05
3.66454e-05
3.62411e-05
3.43734e-05
3.264e-05
3.14037e-05
3.03405e-05
2.78959e-05
2.44657e-05
2.26909e-05
1.91335e-05
2.12034e-05
2.53088e-05
2.76587e-05
2.73958e-05
2.75368e-05
2.90834e-05
3.0424e-05
3.03547e-05
3.15102e-05
3.32674e-05
3.48926e-05
3.55893e-05
3.61042e-05
3.76981e-05
3.76981e-05
3.60102e-05
3.57383e-05
3.52702e-05
3.34318e-05
3.16538e-05
3.10629e-05
3.12414e-05
2.98984e-05
2.79618e-05
2.74552e-05
2.76906e-05
2.50993e-05
2.14391e-05
1.92576e-05
1.68338e-05
1.761e-05
1.98091e-05
2.25933e-05
2.10921e-05
2.18179e-05
2.36893e-05
2.49946e-05
2.61788e-05
2.71231e-05
2.75278e-05
2.84422e-05
2.86688e-05
2.97258e-05
3.08144e-05
3.08108e-05
2.99248e-05
2.88389e-05
2.83357e-05
2.73873e-05
2.72314e-05
2.65995e-05
2.54919e-05
2.40343e-05
2.21089e-05
2.11798e-05
2.25008e-05
1.98077e-05
1.75842e-05
1.67249e-05
1.51933e-05
1.5345e-05
1.59209e-05
1.73245e-05
1.65798e-05
1.66359e-05
1.80897e-05
1.99681e-05
2.20703e-05
2.41103e-05
2.51927e-05
2.5604e-05
2.55247e-05
2.58719e-05
2.60728e-05
2.60035e-05
2.59027e-05
2.5587e-05
2.54743e-05
2.4999e-05
2.41231e-05
2.20624e-05
2.01114e-05
1.82462e-05
1.68042e-05
1.66311e-05
1.73156e-05
1.60234e-05
1.54562e-05
1.51908e-05
1.38464e-05
1.37277e-05
1.38445e-05
1.41775e-05
1.41359e-05
1.39619e-05
1.43904e-05
1.54214e-05
1.72065e-05
1.94672e-05
2.18785e-05
2.36737e-05
2.46636e-05
2.51662e-05
2.50543e-05
2.49861e-05
2.51924e-05
2.47247e-05
2.36606e-05
2.17424e-05
1.94327e-05
1.72147e-05
1.54637e-05
1.44624e-05
1.40413e-05
1.42229e-05
1.42357e-05
1.38915e-05
1.37892e-05
1.3842e-05
1.27697e-05
1.24998e-05
1.24532e-05
1.24999e-05
1.25657e-05
1.25559e-05
1.26684e-05
1.29772e-05
1.37365e-05
1.52136e-05
1.72978e-05
1.98949e-05
2.22601e-05
2.38146e-05
2.42901e-05
2.42044e-05
2.38301e-05
2.23615e-05
1.98733e-05
1.72828e-05
1.52208e-05
1.37707e-05
1.29985e-05
1.27227e-05
1.25762e-05
1.26167e-05
1.25874e-05
1.24895e-05
1.25768e-05
1.27975e-05
1.18881e-05
1.15857e-05
1.14895e-05
1.14846e-05
1.15394e-05
1.15706e-05
1.16495e-05
1.17985e-05
1.20523e-05
1.25743e-05
1.36979e-05
1.54704e-05
1.77684e-05
2.0067e-05
2.13438e-05
2.13356e-05
2.00837e-05
1.78154e-05
1.54883e-05
1.37143e-05
1.26225e-05
1.20721e-05
1.1822e-05
1.16752e-05
1.16113e-05
1.15309e-05
1.15458e-05
1.15162e-05
1.16372e-05
1.19636e-05
1.12205e-05
1.08869e-05
1.07963e-05
1.08164e-05
1.08429e-05
1.08897e-05
1.09703e-05
1.10543e-05
1.11476e-05
1.13101e-05
1.16547e-05
1.23372e-05
1.3466e-05
1.48202e-05
1.60842e-05
1.60758e-05
1.48179e-05
1.34999e-05
1.23737e-05
1.16694e-05
1.13496e-05
1.11459e-05
1.10825e-05
1.0973e-05
1.09225e-05
1.08607e-05
1.08165e-05
1.08423e-05
1.09266e-05
1.12601e-05
1.06353e-05
1.03033e-05
1.02446e-05
1.02534e-05
1.02768e-05
1.03396e-05
1.04096e-05
1.0461e-05
1.05056e-05
1.05581e-05
1.06287e-05
1.07712e-05
1.10645e-05
1.153e-05
1.19886e-05
1.19863e-05
1.15454e-05
1.10944e-05
1.07994e-05
1.06389e-05
1.05883e-05
1.05154e-05
1.04938e-05
1.04213e-05
1.0344e-05
1.03103e-05
1.02615e-05
1.02808e-05
1.03468e-05
1.06748e-05
1.01217e-05
9.79935e-06
9.74868e-06
9.74587e-06
9.78716e-06
9.83988e-06
9.88697e-06
9.9215e-06
9.94436e-06
9.95408e-06
9.94563e-06
9.94535e-06
9.96081e-06
1.00157e-05
1.00914e-05
1.00899e-05
1.0036e-05
9.98203e-06
9.96797e-06
9.96374e-06
9.97082e-06
9.95462e-06
9.93753e-06
9.89982e-06
9.8481e-06
9.8066e-06
9.77431e-06
9.77888e-06
9.84677e-06
1.01696e-05
9.66986e-06
9.35279e-06
9.28263e-06
9.29736e-06
9.33613e-06
9.37159e-06
9.40151e-06
9.4188e-06
9.41613e-06
9.3966e-06
9.36132e-06
9.32823e-06
9.28723e-06
9.24849e-06
9.22933e-06
9.23468e-06
9.27284e-06
9.30674e-06
9.34605e-06
9.3872e-06
9.41489e-06
9.43287e-06
9.4278e-06
9.39871e-06
9.37322e-06
9.34622e-06
9.33153e-06
9.32458e-06
9.38809e-06
9.7033e-06
9.23925e-06
8.91788e-06
8.8626e-06
8.8861e-06
8.911e-06
8.93235e-06
8.94516e-06
8.93642e-06
8.9088e-06
8.87465e-06
8.83071e-06
8.77705e-06
8.7138e-06
8.65893e-06
8.62763e-06
8.63908e-06
8.68775e-06
8.73802e-06
8.78781e-06
8.84555e-06
8.88978e-06
8.92757e-06
8.9462e-06
8.94331e-06
8.93841e-06
8.92374e-06
8.90834e-06
8.89766e-06
8.96166e-06
9.26461e-06
8.8174e-06
8.52462e-06
8.48867e-06
8.49379e-06
8.50562e-06
8.51265e-06
8.50979e-06
8.48376e-06
8.44416e-06
8.39804e-06
8.33868e-06
8.2682e-06
8.19604e-06
8.13981e-06
8.1089e-06
8.12044e-06
8.16464e-06
8.22023e-06
8.2822e-06
8.35417e-06
8.41659e-06
8.46831e-06
8.50171e-06
8.51526e-06
8.51699e-06
8.50977e-06
8.50049e-06
8.49977e-06
8.5648e-06
8.84538e-06
8.41517e-06
8.17368e-06
8.12171e-06
8.11691e-06
8.11878e-06
8.1175e-06
8.09986e-06
8.06061e-06
8.01431e-06
7.95866e-06
7.88709e-06
7.80833e-06
7.73549e-06
7.67851e-06
7.64333e-06
7.6504e-06
7.69313e-06
7.75373e-06
7.82463e-06
7.9033e-06
7.9749e-06
8.03469e-06
8.07711e-06
8.10325e-06
8.11576e-06
8.12049e-06
8.12218e-06
8.1298e-06
8.19056e-06
8.44682e-06
8.06447e-06
7.82478e-06
7.7672e-06
7.76493e-06
7.7629e-06
7.75371e-06
7.723e-06
7.67763e-06
7.62587e-06
7.56029e-06
7.48225e-06
7.40238e-06
7.32868e-06
7.26781e-06
7.2286e-06
7.23225e-06
7.27385e-06
7.33593e-06
7.41072e-06
7.49274e-06
7.57086e-06
7.63814e-06
7.68895e-06
7.72449e-06
7.7486e-06
7.76449e-06
7.77432e-06
7.78489e-06
7.83906e-06
8.07288e-06
7.70848e-06
7.48554e-06
7.45057e-06
7.44625e-06
7.43635e-06
7.41008e-06
7.36816e-06
7.32144e-06
7.26799e-06
7.20031e-06
7.12267e-06
7.04187e-06
6.9639e-06
6.89861e-06
6.8578e-06
6.85887e-06
6.89823e-06
6.96108e-06
7.03918e-06
7.12449e-06
7.20643e-06
7.27764e-06
7.33474e-06
7.3788e-06
7.41282e-06
7.43713e-06
7.45212e-06
7.46415e-06
7.5141e-06
7.72632e-06
7.37603e-06
7.20589e-06
7.17069e-06
7.14949e-06
7.12276e-06
7.08624e-06
7.04803e-06
7.00487e-06
6.94925e-06
6.88068e-06
6.80214e-06
6.71684e-06
6.6338e-06
6.56708e-06
6.52776e-06
6.5276e-06
6.56426e-06
6.62743e-06
6.70899e-06
6.79835e-06
6.88358e-06
6.95713e-06
7.01722e-06
7.06541e-06
7.10439e-06
7.13394e-06
7.15414e-06
7.17097e-06
7.22004e-06
7.40837e-06
7.0988e-06
6.9568e-06
6.90149e-06
6.87325e-06
6.84439e-06
6.81436e-06
6.78016e-06
6.73247e-06
6.67266e-06
6.60371e-06
6.52461e-06
6.43775e-06
6.35577e-06
6.29203e-06
6.25413e-06
6.25204e-06
6.287e-06
6.35203e-06
6.43668e-06
6.52628e-06
6.60798e-06
6.67697e-06
6.73469e-06
6.78391e-06
6.82624e-06
6.86092e-06
6.88709e-06
6.90812e-06
6.95324e-06
7.11392e-06
6.84463e-06
6.69924e-06
6.64909e-06
6.6316e-06
6.61008e-06
6.58443e-06
6.54342e-06
6.49004e-06
6.43185e-06
6.36551e-06
6.28801e-06
6.20467e-06
6.12819e-06
6.06781e-06
6.02935e-06
6.02552e-06
6.06119e-06
6.12817e-06
6.21151e-06
6.29466e-06
6.36804e-06
6.43142e-06
6.48811e-06
6.54032e-06
6.58642e-06
6.62373e-06
6.65036e-06
6.66898e-06
6.70566e-06
6.84094e-06
6.59754e-06
6.46279e-06
6.43977e-06
6.42824e-06
6.4072e-06
6.3746e-06
6.32819e-06
6.27994e-06
6.22884e-06
6.16594e-06
6.09087e-06
6.01245e-06
5.94061e-06
5.88136e-06
5.84203e-06
5.83859e-06
5.87582e-06
5.94139e-06
6.01811e-06
6.0923e-06
6.15969e-06
6.2221e-06
6.28108e-06
6.33501e-06
6.37987e-06
6.41281e-06
6.43395e-06
6.44817e-06
6.47917e-06
6.59614e-06
6.36799e-06
6.27507e-06
6.2583e-06
6.23877e-06
6.21518e-06
6.18019e-06
6.14247e-06
6.1052e-06
6.05754e-06
5.99518e-06
5.92414e-06
5.85276e-06
5.78571e-06
5.72716e-06
5.68818e-06
5.68679e-06
5.72441e-06
5.78527e-06
5.85368e-06
5.92063e-06
5.98491e-06
6.04684e-06
6.10474e-06
6.1545e-06
6.19301e-06
6.21996e-06
6.23808e-06
6.25285e-06
6.28305e-06
6.38397e-06
6.17946e-06
6.1142e-06
6.08522e-06
6.06531e-06
6.04572e-06
6.01881e-06
5.99169e-06
5.9561e-06
5.90539e-06
5.84514e-06
5.78354e-06
5.72282e-06
5.6615e-06
5.60432e-06
5.567e-06
5.56751e-06
5.6042e-06
5.65954e-06
5.72017e-06
5.78055e-06
5.83996e-06
5.89711e-06
5.94895e-06
5.99217e-06
6.02561e-06
6.05075e-06
6.0703e-06
6.08773e-06
6.11636e-06
6.19883e-06
6.02776e-06
5.95658e-06
5.92976e-06
5.92121e-06
5.90644e-06
5.88588e-06
5.85943e-06
5.81963e-06
5.7704e-06
5.72035e-06
5.67237e-06
5.62185e-06
5.56548e-06
5.51097e-06
5.47654e-06
5.47761e-06
5.51032e-06
5.5583e-06
5.61107e-06
5.66487e-06
5.7183e-06
5.76921e-06
5.81465e-06
5.8527e-06
5.88346e-06
5.90822e-06
5.92844e-06
5.9457e-06
5.96949e-06
6.03294e-06
5.87441e-06
5.81308e-06
5.80316e-06
5.80008e-06
5.78469e-06
5.76441e-06
5.73533e-06
5.69774e-06
5.65873e-06
5.62149e-06
5.58263e-06
5.53636e-06
5.48333e-06
5.43409e-06
5.40404e-06
5.40387e-06
5.43e-06
5.47033e-06
5.5173e-06
5.56728e-06
5.61705e-06
5.66322e-06
5.70331e-06
5.73662e-06
5.76377e-06
5.7858e-06
5.80356e-06
5.81805e-06
5.83672e-06
5.88507e-06
5.73695e-06
5.70857e-06
5.70645e-06
5.69557e-06
5.67775e-06
5.65733e-06
5.63079e-06
5.60175e-06
5.57268e-06
5.54136e-06
5.50331e-06
5.45749e-06
5.40941e-06
5.36862e-06
5.34427e-06
5.3428e-06
5.36315e-06
5.39821e-06
5.44199e-06
5.48953e-06
5.53599e-06
5.57751e-06
5.61203e-06
5.6395e-06
5.66118e-06
5.67862e-06
5.69282e-06
5.7047e-06
5.71994e-06
5.75825e-06
5.6454e-06
5.63493e-06
5.62259e-06
5.60331e-06
5.58764e-06
5.57132e-06
5.55186e-06
5.53055e-06
5.50581e-06
5.47459e-06
5.43621e-06
5.39453e-06
5.35581e-06
5.32566e-06
5.30713e-06
5.30454e-06
5.31991e-06
5.35e-06
5.38929e-06
5.43166e-06
5.47187e-06
5.50647e-06
5.53428e-06
5.55615e-06
5.57345e-06
5.58782e-06
5.60015e-06
5.61095e-06
5.62385e-06
5.65304e-06
5.57429e-06
5.55862e-06
5.53668e-06
5.52242e-06
5.51458e-06
5.50498e-06
5.49188e-06
5.47382e-06
5.44922e-06
5.41841e-06
5.38442e-06
5.3518e-06
5.32433e-06
5.30291e-06
5.2876e-06
5.28354e-06
5.2945e-06
5.31851e-06
5.3503e-06
5.38418e-06
5.41599e-06
5.44353e-06
5.46635e-06
5.4854e-06
5.5017e-06
5.51583e-06
5.52781e-06
5.53744e-06
5.54685e-06
5.56602e-06
5.49864e-06
5.47892e-06
5.46528e-06
5.46353e-06
5.46186e-06
5.45506e-06
5.44224e-06
5.42284e-06
5.39835e-06
5.37129e-06
5.3445e-06
5.32034e-06
5.29957e-06
5.28121e-06
5.2669e-06
5.26267e-06
5.27169e-06
5.29105e-06
5.31587e-06
5.34195e-06
5.36692e-06
5.39014e-06
5.41144e-06
5.43048e-06
5.44704e-06
5.4608e-06
5.47125e-06
5.47796e-06
5.48244e-06
5.49226e-06
5.42896e-06
5.42038e-06
5.42258e-06
5.42576e-06
5.42187e-06
5.41119e-06
5.39517e-06
5.37604e-06
5.35583e-06
5.33521e-06
5.31482e-06
5.29511e-06
5.27576e-06
5.25742e-06
5.24384e-06
5.24118e-06