/*--------------------------------*- C++ -*----------------------------------*\
| =========                 |                                                 |
| \\      /  F ield         | OpenFOAM: The Open Source CFD Toolbox           |
|  \\    /   O peration     | Version:  2312                                  |
|   \\  /    A nd           | Website:  www.openfoam.com                      |
|    \\/     M anipulation  |                                                 |
\*---------------------------------------------------------------------------*/
FoamFile
{
    version     2.0;
    format      ascii;
    arch        "LSB;label=32;scalar=64";
    class       volScalarField;
    location    "1.338907018";
    object      p;
}
// * * * * * * * * * * * * * * * * * * * * * * * * * * * * * * * * * * * * * //

dimensions      [1 -1 -2 0 0 0 0];

internalField   nonuniform List<scalar> 
90000
(
4848.95
4848.95
4848.95
4848.95
4848.95
4848.95
4848.94
4848.94
4848.94
4848.94
4848.94
4848.93
4848.93
4848.93
4848.93
4848.93
4848.93
4848.93
4848.94
4848.94
4848.94
4848.94
4848.94
4848.94
4848.95
4848.95
4848.95
4848.95
4848.95
4848.95
4750.85
4750.85
4750.85
4750.85
4750.84
4750.84
4750.84
4750.84
4750.84
4750.84
4750.84
4750.84
4750.83
4750.83
4750.83
4750.83
4750.83
4750.83
4750.83
4750.84
4750.84
4750.84
4750.84
4750.84
4750.84
4750.85
4750.85
4750.85
4750.85
4750.85
4652.74
4652.74
4652.74
4652.74
4652.74
4652.74
4652.74
4652.74
4652.74
4652.74
4652.74
4652.74
4652.74
4652.74
4652.74
4652.74
4652.74
4652.74
4652.74
4652.74
4652.74
4652.74
4652.74
4652.74
4652.74
4652.74
4652.74
4652.74
4652.75
4652.75
4554.64
4554.64
4554.64
4554.64
4554.64
4554.64
4554.64
4554.64
4554.64
4554.64
4554.64
4554.64
4554.64
4554.64
4554.64
4554.64
4554.64
4554.64
4554.64
4554.64
4554.64
4554.64
4554.64
4554.64
4554.64
4554.64
4554.64
4554.64
4554.64
4554.64
4456.54
4456.53
4456.54
4456.54
4456.54
4456.54
4456.54
4456.54
4456.54
4456.54
4456.55
4456.55
4456.55
4456.55
4456.55
4456.55
4456.55
4456.55
4456.55
4456.55
4456.55
4456.54
4456.54
4456.54
4456.54
4456.54
4456.54
4456.54
4456.54
4456.54
4358.44
4358.44
4358.44
4358.44
4358.44
4358.44
4358.44
4358.44
4358.44
4358.45
4358.45
4358.45
4358.45
4358.45
4358.45
4358.45
4358.45
4358.45
4358.45
4358.45
4358.45
4358.45
4358.45
4358.45
4358.45
4358.44
4358.44
4358.44
4358.44
4358.44
4260.34
4260.34
4260.34
4260.34
4260.34
4260.34
4260.34
4260.34
4260.35
4260.35
4260.35
4260.35
4260.35
4260.35
4260.36
4260.36
4260.36
4260.35
4260.35
4260.35
4260.35
4260.35
4260.35
4260.35
4260.35
4260.35
4260.34
4260.34
4260.34
4260.35
4162.25
4162.25
4162.25
4162.25
4162.25
4162.25
4162.25
4162.25
4162.25
4162.25
4162.25
4162.25
4162.25
4162.25
4162.25
4162.26
4162.26
4162.25
4162.25
4162.25
4162.25
4162.25
4162.25
4162.25
4162.25
4162.25
4162.25
4162.25
4162.25
4162.25
4064.15
4064.15
4064.15
4064.15
4064.15
4064.15
4064.15
4064.15
4064.15
4064.15
4064.15
4064.15
4064.15
4064.15
4064.15
4064.15
4064.15
4064.15
4064.15
4064.15
4064.15
4064.15
4064.15
4064.15
4064.15
4064.15
4064.15
4064.15
4064.15
4064.15
3966.06
3966.06
3966.06
3966.06
3966.05
3966.05
3966.05
3966.05
3966.05
3966.05
3966.05
3966.05
3966.05
3966.05
3966.05
3966.05
3966.05
3966.05
3966.05
3966.05
3966.05
3966.05
3966.05
3966.05
3966.05
3966.05
3966.05
3966.05
3966.05
3966.05
3867.96
3867.96
3867.96
3867.96
3867.96
3867.96
3867.95
3867.95
3867.95
3867.95
3867.95
3867.95
3867.95
3867.95
3867.95
3867.95
3867.95
3867.95
3867.96
3867.96
3867.96
3867.96
3867.96
3867.96
3867.96
3867.95
3867.95
3867.95
3867.95
3867.95
3769.86
3769.86
3769.86
3769.85
3769.85
3769.85
3769.85
3769.85
3769.85
3769.85
3769.85
3769.85
3769.85
3769.85
3769.85
3769.85
3769.85
3769.86
3769.86
3769.86
3769.86
3769.86
3769.86
3769.86
3769.86
3769.86
3769.86
3769.86
3769.86
3769.86
3671.75
3671.75
3671.75
3671.75
3671.75
3671.75
3671.75
3671.76
3671.76
3671.76
3671.76
3671.75
3671.75
3671.75
3671.75
3671.76
3671.76
3671.76
3671.76
3671.76
3671.76
3671.76
3671.76
3671.76
3671.76
3671.76
3671.76
3671.76
3671.76
3671.76
3573.65
3573.65
3573.65
3573.65
3573.65
3573.65
3573.66
3573.66
3573.66
3573.66
3573.66
3573.66
3573.66
3573.66
3573.66
3573.66
3573.66
3573.66
3573.66
3573.66
3573.66
3573.66
3573.66
3573.67
3573.67
3573.67
3573.67
3573.67
3573.67
3573.67
3475.55
3475.55
3475.55
3475.55
3475.55
3475.56
3475.56
3475.56
3475.56
3475.56
3475.56
3475.56
3475.56
3475.56
3475.56
3475.56
3475.56
3475.56
3475.56
3475.56
3475.56
3475.56
3475.57
3475.57
3475.57
3475.57
3475.57
3475.57
3475.57
3475.57
3377.45
3377.45
3377.45
3377.46
3377.46
3377.46
3377.46
3377.46
3377.46
3377.46
3377.46
3377.46
3377.46
3377.46
3377.46
3377.46
3377.46
3377.46
3377.46
3377.46
3377.46
3377.46
3377.46
3377.47
3377.47
3377.47
3377.47
3377.47
3377.47
3377.47
3279.36
3279.36
3279.36
3279.36
3279.36
3279.36
3279.36
3279.36
3279.36
3279.36
3279.36
3279.36
3279.36
3279.36
3279.36
3279.36
3279.36
3279.36
3279.36
3279.36
3279.36
3279.36
3279.36
3279.36
3279.36
3279.37
3279.37
3279.37
3279.37
3279.36
3181.26
3181.26
3181.26
3181.26
3181.26
3181.26
3181.26
3181.26
3181.26
3181.26
3181.26
3181.27
3181.27
3181.27
3181.26
3181.26
3181.26
3181.26
3181.26
3181.26
3181.26
3181.26
3181.26
3181.26
3181.26
3181.26
3181.26
3181.26
3181.26
3181.26
3083.16
3083.16
3083.16
3083.16
3083.16
3083.16
3083.16
3083.16
3083.16
3083.16
3083.16
3083.17
3083.17
3083.17
3083.16
3083.16
3083.16
3083.16
3083.16
3083.16
3083.16
3083.16
3083.16
3083.16
3083.16
3083.16
3083.16
3083.16
3083.15
3083.16
2985.06
2985.06
2985.06
2985.06
2985.06
2985.06
2985.06
2985.06
2985.06
2985.06
2985.06
2985.06
2985.06
2985.06
2985.06
2985.07
2985.07
2985.07
2985.07
2985.06
2985.06
2985.06
2985.06
2985.06
2985.06
2985.06
2985.05
2985.05
2985.05
2985.05
2886.95
2886.95
2886.95
2886.96
2886.96
2886.96
2886.96
2886.96
2886.96
2886.96
2886.96
2886.96
2886.96
2886.96
2886.97
2886.97
2886.97
2886.97
2886.97
2886.96
2886.96
2886.96
2886.96
2886.96
2886.95
2886.95
2886.95
2886.95
2886.95
2886.95
2788.85
2788.85
2788.85
2788.85
2788.85
2788.85
2788.85
2788.85
2788.86
2788.86
2788.86
2788.86
2788.86
2788.87
2788.87
2788.87
2788.87
2788.87
2788.87
2788.86
2788.86
2788.86
2788.86
2788.85
2788.85
2788.85
2788.84
2788.84
2788.84
2788.84
2690.73
2690.74
2690.74
2690.74
2690.74
2690.74
2690.74
2690.75
2690.75
2690.76
2690.76
2690.76
2690.76
2690.77
2690.77
2690.77
2690.77
2690.77
2690.76
2690.76
2690.76
2690.75
2690.75
2690.75
2690.74
2690.74
2690.73
2690.73
2690.73
2690.73
2592.62
2592.62
2592.62
2592.62
2592.63
2592.63
2592.64
2592.64
2592.65
2592.65
2592.66
2592.66
2592.67
2592.67
2592.67
2592.67
2592.67
2592.66
2592.66
2592.66
2592.65
2592.65
2592.64
2592.64
2592.63
2592.63
2592.62
2592.62
2592.62
2592.62
2494.5
2494.5
2494.51
2494.51
2494.51
2494.52
2494.53
2494.53
2494.54
2494.55
2494.55
2494.56
2494.56
2494.57
2494.57
2494.57
2494.57
2494.56
2494.56
2494.55
2494.55
2494.54
2494.53
2494.53
2494.52
2494.52
2494.51
2494.51
2494.5
2494.5
2396.39
2396.39
2396.39
2396.39
2396.4
2396.41
2396.42
2396.43
2396.43
2396.44
2396.45
2396.46
2396.46
2396.47
2396.47
2396.47
2396.47
2396.46
2396.46
2396.45
2396.44
2396.43
2396.42
2396.42
2396.41
2396.4
2396.4
2396.39
2396.39
2396.39
2298.27
2298.27
2298.27
2298.28
2298.29
2298.29
2298.3
2298.31
2298.32
2298.34
2298.34
2298.35
2298.36
2298.36
2298.37
2298.37
2298.36
2298.36
2298.35
2298.34
2298.33
2298.32
2298.31
2298.3
2298.29
2298.28
2298.28
2298.27
2298.27
2298.27
2200.14
2200.15
2200.15
2200.16
2200.17
2200.18
2200.19
2200.2
2200.21
2200.23
2200.24
2200.25
2200.25
2200.26
2200.26
2200.26
2200.26
2200.25
2200.24
2200.23
2200.22
2200.21
2200.2
2200.19
2200.17
2200.16
2200.16
2200.15
2200.15
2200.14
2102.02
2102.02
2102.03
2102.04
2102.05
2102.06
2102.07
2102.09
2102.1
2102.11
2102.13
2102.14
2102.15
2102.16
2102.16
2102.16
2102.15
2102.15
2102.14
2102.12
2102.11
2102.1
2102.08
2102.07
2102.05
2102.04
2102.03
2102.02
2102.02
2102.01
2003.89
2003.89
2003.9
2003.91
2003.92
2003.93
2003.95
2003.97
2003.98
2004
2004.02
2004.03
2004.04
2004.05
2004.05
2004.05
2004.05
2004.04
2004.03
2004.01
2004
2003.98
2003.96
2003.94
2003.93
2003.91
2003.9
2003.89
2003.88
2003.88
1905.75
1905.75
1905.76
1905.77
1905.79
1905.8
1905.82
1905.84
1905.86
1905.88
1905.9
1905.92
1905.93
1905.94
1905.95
1905.95
1905.94
1905.93
1905.92
1905.9
1905.88
1905.86
1905.84
1905.82
1905.8
1905.78
1905.76
1905.75
1905.74
1905.74
1807.6
1807.6
1807.61
1807.63
1807.65
1807.67
1807.69
1807.72
1807.74
1807.77
1807.79
1807.81
1807.82
1807.84
1807.84
1807.84
1807.83
1807.82
1807.81
1807.79
1807.76
1807.74
1807.71
1807.69
1807.66
1807.64
1807.62
1807.61
1807.59
1807.59
1709.44
1709.45
1709.46
1709.48
1709.5
1709.52
1709.55
1709.58
1709.61
1709.64
1709.67
1709.69
1709.71
1709.73
1709.73
1709.73
1709.72
1709.71
1709.69
1709.67
1709.64
1709.61
1709.58
1709.55
1709.52
1709.49
1709.47
1709.45
1709.44
1709.43
1611.27
1611.27
1611.29
1611.31
1611.34
1611.37
1611.4
1611.44
1611.48
1611.51
1611.55
1611.58
1611.6
1611.61
1611.62
1611.62
1611.61
1611.6
1611.57
1611.54
1611.51
1611.48
1611.44
1611.4
1611.36
1611.33
1611.3
1611.28
1611.27
1611.26
1513.08
1513.09
1513.11
1513.13
1513.16
1513.2
1513.25
1513.29
1513.33
1513.38
1513.42
1513.45
1513.48
1513.5
1513.51
1513.51
1513.5
1513.48
1513.45
1513.42
1513.38
1513.33
1513.29
1513.24
1513.2
1513.16
1513.12
1513.1
1513.08
1513.07
1414.87
1414.88
1414.9
1414.94
1414.98
1415.02
1415.07
1415.13
1415.18
1415.23
1415.28
1415.32
1415.35
1415.38
1415.39
1415.39
1415.38
1415.35
1415.32
1415.28
1415.23
1415.18
1415.12
1415.07
1415.02
1414.97
1414.93
1414.9
1414.87
1414.86
1316.64
1316.66
1316.68
1316.72
1316.77
1316.82
1316.89
1316.95
1317.02
1317.08
1317.14
1317.19
1317.23
1317.25
1317.27
1317.27
1317.25
1317.22
1317.18
1317.13
1317.07
1317.01
1316.94
1316.88
1316.82
1316.76
1316.71
1316.67
1316.65
1316.64
1218.39
1218.41
1218.44
1218.48
1218.54
1218.61
1218.68
1218.76
1218.84
1218.91
1218.98
1219.04
1219.09
1219.12
1219.14
1219.14
1219.12
1219.09
1219.04
1218.98
1218.91
1218.83
1218.75
1218.67
1218.6
1218.53
1218.47
1218.43
1218.4
1218.38
1120.1
1120.12
1120.16
1120.21
1120.28
1120.36
1120.45
1120.54
1120.64
1120.73
1120.81
1120.89
1120.94
1120.98
1121
1121
1120.98
1120.94
1120.88
1120.81
1120.72
1120.63
1120.54
1120.44
1120.35
1120.27
1120.2
1120.15
1120.11
1120.09
1021.78
1021.81
1021.85
1021.91
1022
1022.09
1022.2
1022.31
1022.42
1022.53
1022.63
1022.72
1022.79
1022.83
1022.86
1022.86
1022.83
1022.78
1022.72
1022.63
1022.53
1022.42
1022.3
1022.19
1022.08
1021.99
1021.9
1021.84
1021.79
1021.77
923.415
923.442
923.495
923.572
923.671
923.786
923.914
924.049
924.184
924.315
924.436
924.539
924.622
924.68
924.708
924.708
924.679
924.62
924.536
924.432
924.311
924.178
924.042
923.907
923.778
923.661
923.563
923.484
923.429
923.4
824.992
825.026
825.09
825.184
825.304
825.443
825.597
825.76
825.923
826.079
826.223
826.347
826.447
826.516
826.551
826.55
826.514
826.444
826.344
826.219
826.074
825.915
825.751
825.589
825.434
825.294
825.173
825.078
825.012
824.978
726.502
726.544
726.624
726.74
726.886
727.056
727.243
727.439
727.636
727.823
727.995
728.144
728.263
728.344
728.387
728.387
728.343
728.26
728.14
727.991
727.817
727.628
727.43
727.233
727.046
726.875
726.728
726.611
726.531
726.488
627.928
627.981
628.083
628.228
628.41
628.619
628.849
629.086
629.323
629.551
629.758
629.934
630.076
630.174
630.224
630.225
630.173
630.073
629.931
629.753
629.544
629.316
629.078
628.839
628.608
628.397
628.215
628.07
627.967
627.912
529.25
529.319
529.451
529.635
529.865
530.128
530.412
530.705
530.994
531.27
531.517
531.729
531.896
532.015
532.075
532.074
532.013
531.894
531.725
531.512
531.263
530.987
530.696
530.402
530.115
529.852
529.623
529.436
529.304
529.234
430.436
430.527
430.705
430.948
431.245
431.578
431.937
432.307
432.662
432.998
433.296
433.548
433.745
433.886
433.962
433.96
433.884
433.743
433.544
433.291
432.993
432.654
432.296
431.926
431.565
431.229
430.931
430.689
430.512
430.422
331.44
331.556
331.821
332.136
332.54
332.964
333.432
333.912
334.348
334.774
335.133
335.427
335.652
335.826
335.925
335.924
335.822
335.651
335.42
335.128
334.769
334.34
333.9
333.42
332.948
332.519
332.114
331.803
331.541
331.425
232.175
232.308
232.791
233.131
233.758
234.253
234.896
235.584
236.061
236.671
237.099
237.43
237.65
237.887
238.038
238.046
237.868
237.663
237.405
237.091
236.669
236.052
235.566
234.892
234.237
233.72
233.102
232.768
232.292
232.164
132.551
132.473
133.815
133.632
135.106
135.309
136.333
137.621
137.646
138.957
139.379
139.697
139.729
140.166
140.462
140.556
140.056
139.835
139.574
139.372
138.975
137.646
137.569
136.38
135.306
135.003
133.591
133.78
132.458
132.537
44.3933
43.502
46.2788
44.3972
47.2747
45.6358
46.9121
49.5142
47.5637
50.3904
50.1587
50.2947
49.6741
50.6758
51.1517
51.605
50.1759
50.148
49.804
50.1919
50.4627
47.5721
49.3981
47.1395
45.6868
47.0734
44.2975
46.2464
43.5401
44.3463
0.835961
-0.435285
1.02775
-0.55004
1.78239
0.109493
0.723749
2.36815
0.297302
2.73157
2.15547
2.32168
1.56653
2.47105
2.53141
3.10221
1.88738
2.12084
1.80795
2.24452
2.7774
0.365032
2.48
0.952265
0.182632
1.74119
-0.480818
1.09242
-0.403228
0.798562
-5.04477
-5.02536
-5.0869
-5.03026
-5.05001
-5.01302
-5.0238
-5.05918
-5.00796
-5.05414
-5.03405
-5.03352
-5.02177
-5.03136
-5.03015
-5.038
-5.02398
-5.02795
-5.02701
-5.03474
-5.05228
-5.00444
-5.05497
-5.01952
-5.01297
-5.04888
-5.02294
-5.0876
-5.02788
-5.04321
-5.11584
-5.11115
-5.1237
-5.11546
-5.1268
-5.11367
-5.11482
-5.12827
-5.11505
-5.12542
-5.12288
-5.12416
-5.12283
-5.124
-5.12431
-5.12522
-5.12292
-5.12327
-5.12307
-5.12251
-5.12572
-5.11523
-5.12565
-5.11736
-5.11417
-5.12441
-5.11483
-5.12038
-5.11099
-5.11565
-5.21421
-5.21332
-5.21453
-5.21417
-5.21801
-5.21793
-5.22002
-5.2193
-5.21717
-5.21948
-5.22036
-5.22096
-5.22079
-5.22096
-5.22106
-5.22118
-5.22085
-5.2209
-5.22088
-5.22035
-5.21965
-5.2177
-5.22002
-5.22042
-5.21862
-5.21899
-5.21523
-5.21599
-5.21382
-5.21458
-5.31494
-5.315
-5.31524
-5.31575
-5.31755
-5.3186
-5.31911
-5.31878
-5.31836
-5.31914
-5.31946
-5.31944
-5.31941
-5.31926
-5.31926
-5.31931
-5.31947
-5.3197
-5.31963
-5.31967
-5.31944
-5.31889
-5.31936
-5.31967
-5.31915
-5.31822
-5.31641
-5.31603
-5.31572
-5.31535
-5.41569
-5.41584
-5.41596
-5.41659
-5.41763
-5.41809
-5.4183
-5.4183
-5.41834
-5.41871
-5.41881
-5.41875
-5.41869
-5.41857
-5.41845
-5.41848
-5.41876
-5.4189
-5.41896
-5.41902
-5.41894
-5.41875
-5.41872
-5.41875
-5.41858
-5.41819
-5.4172
-5.41657
-5.41641
-5.41612
-5.51631
-5.5164
-5.51658
-5.51701
-5.51763
-5.51787
-5.51801
-5.51808
-5.51815
-5.51831
-5.5185
-5.51866
-5.5187
-5.51867
-5.51855
-5.51859
-5.51876
-5.51884
-5.51882
-5.51873
-5.51859
-5.51846
-5.51846
-5.5184
-5.51832
-5.51808
-5.51753
-5.51714
-5.51697
-5.51677
-5.61674
-5.61679
-5.617
-5.61726
-5.61763
-5.61783
-5.61799
-5.61807
-5.61814
-5.61826
-5.61844
-5.61867
-5.61882
-5.61894
-5.619
-5.61903
-5.61904
-5.61892
-5.61881
-5.6186
-5.6185
-5.61843
-5.61839
-5.61834
-5.61822
-5.61805
-5.61771
-5.61752
-5.61734
-5.61722
-5.71694
-5.71704
-5.71719
-5.7174
-5.71769
-5.71789
-5.71804
-5.71818
-5.71831
-5.71845
-5.71863
-5.7188
-5.71901
-5.71919
-5.71931
-5.71933
-5.71927
-5.71914
-5.71894
-5.71878
-5.71866
-5.71857
-5.71845
-5.71836
-5.71822
-5.71809
-5.71788
-5.71771
-5.7176
-5.71749
-5.81704
-5.81716
-5.81729
-5.8175
-5.81775
-5.81796
-5.81815
-5.81835
-5.81854
-5.81874
-5.81896
-5.81916
-5.81935
-5.8195
-5.81961
-5.81965
-5.81958
-5.81946
-5.81927
-5.8191
-5.81894
-5.81876
-5.81859
-5.81843
-5.81829
-5.81812
-5.81798
-5.8178
-5.81773
-5.81764
-5.91712
-5.91718
-5.91733
-5.91755
-5.91779
-5.918
-5.91824
-5.9185
-5.91875
-5.91901
-5.91927
-5.9195
-5.9197
-5.91987
-5.91998
-5.92002
-5.91996
-5.91983
-5.91964
-5.9194
-5.91918
-5.91892
-5.91872
-5.91849
-5.91831
-5.91813
-5.91798
-5.91784
-5.91773
-5.91765
-6.01706
-6.01712
-6.01729
-6.01751
-6.01774
-6.018
-6.01827
-6.01856
-6.01886
-6.01918
-6.01948
-6.01974
-6.01997
-6.02017
-6.02029
-6.02032
-6.02027
-6.02012
-6.01989
-6.0196
-6.01933
-6.01902
-6.01876
-6.01849
-6.01826
-6.01809
-6.01791
-6.01777
-6.01764
-6.01756
-6.11687
-6.11695
-6.11713
-6.11734
-6.1176
-6.11788
-6.11818
-6.1185
-6.11884
-6.11919
-6.11952
-6.11982
-6.12008
-6.12028
-6.12042
-6.12045
-6.1204
-6.12022
-6.11996
-6.11965
-6.11932
-6.11899
-6.11867
-6.11838
-6.11812
-6.11793
-6.11773
-6.11757
-6.11743
-6.11735
-6.21656
-6.21665
-6.21683
-6.21707
-6.21735
-6.21763
-6.21795
-6.2183
-6.21866
-6.21903
-6.21938
-6.2197
-6.21998
-6.2202
-6.22034
-6.22038
-6.22031
-6.22011
-6.21983
-6.21951
-6.21915
-6.21879
-6.21844
-6.21812
-6.21785
-6.21763
-6.21742
-6.21724
-6.21709
-6.217
-6.31614
-6.31623
-6.31642
-6.31666
-6.31694
-6.31723
-6.31756
-6.31792
-6.3183
-6.31869
-6.31905
-6.31938
-6.31966
-6.31989
-6.32003
-6.32006
-6.31997
-6.31977
-6.31948
-6.31915
-6.31878
-6.31841
-6.31805
-6.31772
-6.31743
-6.31718
-6.31696
-6.31676
-6.31661
-6.31651
-6.41558
-6.41568
-6.41587
-6.4161
-6.41637
-6.41667
-6.417
-6.41736
-6.41776
-6.41815
-6.4185
-6.41883
-6.41911
-6.41934
-6.41947
-6.41949
-6.41939
-6.41919
-6.41891
-6.41859
-6.41822
-6.41784
-6.41748
-6.41714
-6.41685
-6.41659
-6.41636
-6.41616
-6.41599
-6.4159
-6.51491
-6.515
-6.51518
-6.51541
-6.51568
-6.51598
-6.51629
-6.51664
-6.51703
-6.51742
-6.51777
-6.51808
-6.51836
-6.51857
-6.51869
-6.51869
-6.51858
-6.51839
-6.51814
-6.51782
-6.51746
-6.51709
-6.51673
-6.5164
-6.51612
-6.51586
-6.51562
-6.51542
-6.51526
-6.51518
-6.6141
-6.61419
-6.61436
-6.61459
-6.61485
-6.61513
-6.61542
-6.61577
-6.61615
-6.61653
-6.61686
-6.61715
-6.6174
-6.61759
-6.61769
-6.61768
-6.61758
-6.6174
-6.61717
-6.61688
-6.61654
-6.61617
-6.61583
-6.61551
-6.61523
-6.61498
-6.61475
-6.61455
-6.61441
-6.61433
-6.71319
-6.71326
-6.71344
-6.71366
-6.7139
-6.71415
-6.71443
-6.71476
-6.71513
-6.71548
-6.71579
-6.71605
-6.71628
-6.71644
-6.71651
-6.7165
-6.7164
-6.71624
-6.71603
-6.71577
-6.71546
-6.71511
-6.71478
-6.71447
-6.7142
-6.71396
-6.71375
-6.71357
-6.71344
-6.71337
-6.81216
-6.81225
-6.8124
-6.81259
-6.8128
-6.81304
-6.81331
-6.81363
-6.81397
-6.81429
-6.81457
-6.81481
-6.815
-6.81513
-6.81518
-6.81516
-6.81508
-6.81494
-6.81476
-6.81452
-6.81423
-6.8139
-6.81358
-6.81329
-6.81304
-6.81282
-6.81263
-6.81247
-6.81235
-6.81229
-6.91103
-6.9111
-6.91123
-6.9114
-6.9116
-6.91182
-6.91208
-6.91238
-6.91269
-6.91297
-6.91323
-6.91344
-6.9136
-6.91369
-6.91373
-6.91371
-6.91365
-6.91354
-6.91337
-6.91315
-6.91287
-6.91257
-6.91228
-6.91202
-6.91179
-6.91158
-6.9114
-6.91126
-6.91116
-6.91111
-7.00979
-7.00984
-7.00995
-7.01012
-7.0103
-7.0105
-7.01074
-7.01101
-7.01128
-7.01155
-7.01178
-7.01197
-7.01209
-7.01215
-7.01217
-7.01215
-7.01211
-7.01202
-7.01188
-7.01167
-7.01142
-7.01115
-7.01089
-7.01066
-7.01044
-7.01024
-7.01007
-7.00994
-7.00986
-7.00982
-7.10844
-7.10849
-7.1086
-7.10875
-7.10891
-7.10909
-7.10932
-7.10955
-7.1098
-7.11004
-7.11025
-7.11041
-7.11049
-7.11052
-7.11053
-7.11052
-7.11049
-7.11042
-7.11029
-7.11011
-7.10989
-7.10966
-7.10943
-7.1092
-7.10899
-7.10879
-7.10864
-7.10853
-7.10847
-7.10845
-7.20703
-7.20708
-7.20718
-7.2073
-7.20744
-7.20762
-7.20782
-7.20804
-7.20825
-7.20846
-7.20865
-7.20877
-7.20882
-7.20883
-7.20883
-7.20882
-7.2088
-7.20873
-7.20862
-7.20847
-7.2083
-7.2081
-7.20789
-7.20767
-7.20746
-7.20727
-7.20713
-7.20705
-7.207
-7.20698
-7.30555
-7.30559
-7.30567
-7.30577
-7.30591
-7.30608
-7.30627
-7.30646
-7.30664
-7.30682
-7.30697
-7.30706
-7.30709
-7.3071
-7.30709
-7.30707
-7.30704
-7.30699
-7.3069
-7.30679
-7.30665
-7.30649
-7.30629
-7.30608
-7.30587
-7.30569
-7.30556
-7.30549
-7.30544
-7.30542
-7.40401
-7.40404
-7.40411
-7.4042
-7.40433
-7.40448
-7.40465
-7.40482
-7.40498
-7.40512
-7.40522
-7.40529
-7.40531
-7.40531
-7.4053
-7.40528
-7.40525
-7.4052
-7.40514
-7.40507
-7.40497
-7.40483
-7.40465
-7.40444
-7.40423
-7.40406
-7.40393
-7.40385
-7.4038
-7.40377
-7.50243
-7.50247
-7.50252
-7.5026
-7.5027
-7.50284
-7.50298
-7.50313
-7.50326
-7.50336
-7.50343
-7.50348
-7.5035
-7.5035
-7.50349
-7.50347
-7.50343
-7.5034
-7.50337
-7.50332
-7.50324
-7.50311
-7.50294
-7.50274
-7.50255
-7.50237
-7.50224
-7.50215
-7.5021
-7.50207
-7.60084
-7.60088
-7.6009
-7.60095
-7.60103
-7.60115
-7.60128
-7.6014
-7.6015
-7.60157
-7.60161
-7.60164
-7.60166
-7.60167
-7.60167
-7.60165
-7.60162
-7.6016
-7.60158
-7.60154
-7.60146
-7.60134
-7.60118
-7.601
-7.60082
-7.60065
-7.60052
-7.60043
-7.60036
-7.60033
-7.69919
-7.6992
-7.69921
-7.69925
-7.69932
-7.69942
-7.69953
-7.69962
-7.6997
-7.69975
-7.69978
-7.6998
-7.69983
-7.69984
-7.69984
-7.69983
-7.69981
-7.69979
-7.69977
-7.69972
-7.69964
-7.69953
-7.69938
-7.69922
-7.69906
-7.69891
-7.69877
-7.69866
-7.69858
-7.69854
-7.79746
-7.79746
-7.79747
-7.79751
-7.79757
-7.79765
-7.79774
-7.79781
-7.79787
-7.7979
-7.79793
-7.79796
-7.79797
-7.79799
-7.79799
-7.79798
-7.79798
-7.79796
-7.79793
-7.79788
-7.79779
-7.79768
-7.79756
-7.79742
-7.79727
-7.79712
-7.79698
-7.79685
-7.79676
-7.7967
-7.89568
-7.89569
-7.89571
-7.89574
-7.89579
-7.89585
-7.89591
-7.89597
-7.89602
-7.89606
-7.89608
-7.8961
-7.89611
-7.89611
-7.89611
-7.89612
-7.89611
-7.89609
-7.89606
-7.896
-7.89592
-7.89582
-7.89571
-7.89558
-7.89544
-7.89529
-7.89514
-7.895
-7.89489
-7.89484
-7.99387
-7.99389
-7.99391
-7.99393
-7.99397
-7.99401
-7.99407
-7.99412
-7.99416
-7.9942
-7.99422
-7.99423
-7.99423
-7.99423
-7.99423
-7.99423
-7.99422
-7.9942
-7.99416
-7.9941
-7.99402
-7.99393
-7.99383
-7.99371
-7.99357
-7.99342
-7.99326
-7.99312
-7.99302
-7.99298
-8.09203
-8.09203
-8.09205
-8.09207
-8.09211
-8.09215
-8.0922
-8.09225
-8.09229
-8.09233
-8.09234
-8.09235
-8.09234
-8.09234
-8.09234
-8.09233
-8.09232
-8.09228
-8.09223
-8.09217
-8.0921
-8.09201
-8.09192
-8.09181
-8.09167
-8.09153
-8.09138
-8.09126
-8.09117
-8.09114
-8.19013
-8.19013
-8.19015
-8.19019
-8.19023
-8.19028
-8.19032
-8.19036
-8.19039
-8.19041
-8.19042
-8.19042
-8.19042
-8.19042
-8.19042
-8.1904
-8.19037
-8.19033
-8.19027
-8.19021
-8.19014
-8.19006
-8.18997
-8.18987
-8.18975
-8.18963
-8.18951
-8.18941
-8.18935
-8.18933
-8.28821
-8.28822
-8.28825
-8.2883
-8.28836
-8.2884
-8.28843
-8.28845
-8.28846
-8.28846
-8.28846
-8.28847
-8.28847
-8.28848
-8.28847
-8.28844
-8.2884
-8.28835
-8.28829
-8.28822
-8.28816
-8.28809
-8.28801
-8.28792
-8.28783
-8.28773
-8.28765
-8.28758
-8.28754
-8.28753
-8.38631
-8.38632
-8.38637
-8.38642
-8.38647
-8.3865
-8.38652
-8.38652
-8.38651
-8.3865
-8.3865
-8.38651
-8.38651
-8.38651
-8.38649
-8.38646
-8.38641
-8.38636
-8.3863
-8.38624
-8.38618
-8.38612
-8.38605
-8.38598
-8.38591
-8.38585
-8.3858
-8.38576
-8.38574
-8.38574
-8.48444
-8.48446
-8.48449
-8.48453
-8.48456
-8.48458
-8.48458
-8.48457
-8.48456
-8.48455
-8.48455
-8.48455
-8.48455
-8.48454
-8.48452
-8.48448
-8.48443
-8.48438
-8.48433
-8.48428
-8.48422
-8.48417
-8.48411
-8.48406
-8.48401
-8.48398
-8.48396
-8.48395
-8.48395
-8.48395
-8.58259
-8.5826
-8.58262
-8.58263
-8.58265
-8.58265
-8.58265
-8.58264
-8.58264
-8.58263
-8.58262
-8.58261
-8.58259
-8.58257
-8.58254
-8.5825
-8.58246
-8.58242
-8.58238
-8.58233
-8.58228
-8.58223
-8.58219
-8.58216
-8.58214
-8.58213
-8.58213
-8.58215
-8.58216
-8.58217
-8.68075
-8.68075
-8.68075
-8.68075
-8.68075
-8.68075
-8.68075
-8.68074
-8.68073
-8.68072
-8.6807
-8.68068
-8.68065
-8.68062
-8.68058
-8.68055
-8.68051
-8.68048
-8.68044
-8.68039
-8.68035
-8.68032
-8.68029
-8.68028
-8.68028
-8.6803
-8.68032
-8.68035
-8.68038
-8.68039
-8.77892
-8.77891
-8.7789
-8.7789
-8.77889
-8.77888
-8.77887
-8.77886
-8.77885
-8.77883
-8.7788
-8.77877
-8.77874
-8.7787
-8.77867
-8.77863
-8.7786
-8.77856
-8.77852
-8.77849
-8.77845
-8.77843
-8.77842
-8.77843
-8.77845
-8.77848
-8.77852
-8.77856
-8.77859
-8.77861
-8.87712
-8.87711
-8.8771
-8.87709
-8.87707
-8.87705
-8.87703
-8.87701
-8.87699
-8.87696
-8.87694
-8.87691
-8.87688
-8.87685
-8.87682
-8.87678
-8.87674
-8.8767
-8.87666
-8.87662
-8.8766
-8.87658
-8.87658
-8.8766
-8.87664
-8.87668
-8.87673
-8.87677
-8.8768
-8.87681
-8.97534
-8.97534
-8.97532
-8.9753
-8.97527
-8.97523
-8.9752
-8.97517
-8.97515
-8.97513
-8.97511
-8.97509
-8.97507
-8.97504
-8.97501
-8.97497
-8.97493
-8.97488
-8.97484
-8.9748
-8.97478
-8.97477
-8.97478
-8.97481
-8.97485
-8.97489
-8.97493
-8.97497
-8.975
-8.975
-9.07359
-9.07359
-9.07356
-9.07352
-9.07347
-9.07342
-9.07338
-9.07335
-9.07333
-9.07332
-9.07331
-9.07329
-9.07328
-9.07325
-9.07322
-9.07318
-9.07313
-9.07309
-9.07305
-9.07301
-9.073
-9.07299
-9.07301
-9.07303
-9.07307
-9.07311
-9.07314
-9.07317
-9.07319
-9.07319
-9.17183
-9.17183
-9.1718
-9.17174
-9.17169
-9.17163
-9.17159
-9.17155
-9.17153
-9.17151
-9.1715
-9.17149
-9.17147
-9.17144
-9.17141
-9.17138
-9.17134
-9.1713
-9.17127
-9.17125
-9.17124
-9.17124
-9.17126
-9.17128
-9.17131
-9.17133
-9.17136
-9.17137
-9.17138
-9.17139
-9.27006
-9.27005
-9.27002
-9.26997
-9.26991
-9.26986
-9.26981
-9.26977
-9.26974
-9.26971
-9.26969
-9.26966
-9.26964
-9.26961
-9.26959
-9.26956
-9.26954
-9.26952
-9.26951
-9.2695
-9.26951
-9.26952
-9.26953
-9.26955
-9.26957
-9.26958
-9.26959
-9.2696
-9.2696
-9.2696
-9.36827
-9.36826
-9.36823
-9.36819
-9.36815
-9.36811
-9.36806
-9.36801
-9.36796
-9.36792
-9.36787
-9.36784
-9.36781
-9.36778
-9.36776
-9.36775
-9.36775
-9.36775
-9.36776
-9.36777
-9.36779
-9.36781
-9.36783
-9.36784
-9.36784
-9.36785
-9.36785
-9.36784
-9.36784
-9.36784
-9.46646
-9.46646
-9.46644
-9.46642
-9.46639
-9.46635
-9.4663
-9.46625
-9.46619
-9.46613
-9.46608
-9.46603
-9.466
-9.46598
-9.46597
-9.46597
-9.46599
-9.46601
-9.46603
-9.46606
-9.46609
-9.46611
-9.46612
-9.46613
-9.46613
-9.46612
-9.46611
-9.4661
-9.4661
-9.46609
-9.56464
-9.56464
-9.56464
-9.56463
-9.56461
-9.56458
-9.56453
-9.56448
-9.56442
-9.56436
-9.5643
-9.56426
-9.56423
-9.56422
-9.56422
-9.56423
-9.56425
-9.56428
-9.56432
-9.56435
-9.56437
-9.56439
-9.56441
-9.56441
-9.5644
-9.56439
-9.56438
-9.56437
-9.56436
-9.56436
-9.6628
-9.6628
-9.66281
-9.6628
-9.66279
-9.66277
-9.66273
-9.66269
-9.66265
-9.6626
-9.66256
-9.66253
-9.66251
-9.6625
-9.66251
-9.66252
-9.66254
-9.66257
-9.6626
-9.66262
-9.66264
-9.66266
-9.66266
-9.66266
-9.66266
-9.66265
-9.66264
-9.66263
-9.66262
-9.66262
-9.76094
-9.76094
-9.76094
-9.76094
-9.76094
-9.76093
-9.76091
-9.7609
-9.76088
-9.76086
-9.76085
-9.76084
-9.76083
-9.76083
-9.76083
-9.76084
-9.76085
-9.76086
-9.76087
-9.76088
-9.76089
-9.76089
-9.76089
-9.76089
-9.76089
-9.76089
-9.76088
-9.76088
-9.76087
-9.76087
4848.95
4848.95
4848.95
4848.95
4848.95
4848.95
4848.94
4848.94
4848.94
4848.94
4848.93
4848.93
4848.93
4848.93
4848.93
4848.93
4848.93
4848.93
4848.94
4848.94
4848.94
4848.94
4848.94
4848.94
4848.95
4848.95
4848.95
4848.95
4848.95
4848.96
4750.85
4750.85
4750.85
4750.85
4750.84
4750.84
4750.84
4750.84
4750.84
4750.84
4750.84
4750.84
4750.83
4750.83
4750.83
4750.83
4750.83
4750.83
4750.83
4750.84
4750.84
4750.84
4750.84
4750.84
4750.84
4750.84
4750.85
4750.85
4750.85
4750.85
4652.74
4652.74
4652.74
4652.74
4652.74
4652.74
4652.74
4652.74
4652.74
4652.74
4652.74
4652.74
4652.74
4652.74
4652.74
4652.74
4652.74
4652.74
4652.74
4652.74
4652.74
4652.74
4652.74
4652.74
4652.74
4652.74
4652.74
4652.74
4652.74
4652.74
4554.64
4554.64
4554.64
4554.64
4554.64
4554.64
4554.64
4554.64
4554.64
4554.64
4554.64
4554.64
4554.64
4554.64
4554.64
4554.64
4554.64
4554.64
4554.64
4554.64
4554.64
4554.64
4554.64
4554.64
4554.64
4554.64
4554.64
4554.64
4554.64
4554.64
4456.53
4456.53
4456.53
4456.54
4456.54
4456.54
4456.54
4456.54
4456.54
4456.54
4456.55
4456.55
4456.55
4456.55
4456.55
4456.55
4456.55
4456.55
4456.55
4456.55
4456.55
4456.54
4456.54
4456.54
4456.54
4456.54
4456.54
4456.54
4456.54
4456.54
4358.44
4358.44
4358.44
4358.44
4358.44
4358.44
4358.44
4358.44
4358.44
4358.45
4358.45
4358.45
4358.45
4358.45
4358.45
4358.45
4358.45
4358.45
4358.45
4358.45
4358.45
4358.45
4358.45
4358.45
4358.45
4358.44
4358.44
4358.44
4358.44
4358.44
4260.34
4260.34
4260.34
4260.34
4260.34
4260.34
4260.34
4260.34
4260.35
4260.35
4260.35
4260.35
4260.35
4260.35
4260.36
4260.36
4260.36
4260.35
4260.35
4260.35
4260.35
4260.35
4260.35
4260.35
4260.35
4260.35
4260.34
4260.35
4260.35
4260.35
4162.25
4162.25
4162.25
4162.25
4162.25
4162.25
4162.25
4162.25
4162.25
4162.25
4162.25
4162.25
4162.25
4162.25
4162.25
4162.26
4162.26
4162.25
4162.25
4162.25
4162.25
4162.25
4162.25
4162.25
4162.25
4162.25
4162.25
4162.25
4162.25
4162.25
4064.15
4064.15
4064.15
4064.15
4064.15
4064.15
4064.15
4064.15
4064.15
4064.15
4064.15
4064.15
4064.15
4064.15
4064.15
4064.15
4064.15
4064.15
4064.15
4064.15
4064.15
4064.15
4064.15
4064.15
4064.15
4064.15
4064.15
4064.15
4064.15
4064.15
3966.06
3966.06
3966.06
3966.06
3966.06
3966.05
3966.05
3966.05
3966.05
3966.05
3966.05
3966.05
3966.05
3966.05
3966.05
3966.05
3966.05
3966.05
3966.05
3966.05
3966.05
3966.05
3966.05
3966.05
3966.05
3966.05
3966.05
3966.05
3966.05
3966.05
3867.96
3867.96
3867.96
3867.96
3867.96
3867.96
3867.95
3867.95
3867.95
3867.95
3867.95
3867.95
3867.95
3867.95
3867.95
3867.95
3867.95
3867.95
3867.96
3867.96
3867.96
3867.96
3867.96
3867.96
3867.96
3867.96
3867.95
3867.95
3867.95
3867.95
3769.86
3769.86
3769.85
3769.85
3769.85
3769.85
3769.85
3769.85
3769.85
3769.85
3769.85
3769.85
3769.85
3769.85
3769.85
3769.85
3769.85
3769.86
3769.86
3769.86
3769.86
3769.86
3769.86
3769.86
3769.86
3769.86
3769.86
3769.86
3769.86
3769.86
3671.75
3671.75
3671.75
3671.75
3671.75
3671.75
3671.75
3671.76
3671.76
3671.76
3671.76
3671.75
3671.75
3671.75
3671.75
3671.76
3671.76
3671.76
3671.76
3671.76
3671.76
3671.76
3671.76
3671.76
3671.76
3671.76
3671.76
3671.76
3671.76
3671.76
3573.65
3573.65
3573.65
3573.65
3573.65
3573.66
3573.66
3573.66
3573.66
3573.66
3573.66
3573.66
3573.66
3573.66
3573.66
3573.66
3573.66
3573.66
3573.66
3573.66
3573.66
3573.66
3573.67
3573.67
3573.67
3573.67
3573.67
3573.67
3573.67
3573.67
3475.55
3475.55
3475.55
3475.55
3475.56
3475.56
3475.56
3475.56
3475.56
3475.56
3475.56
3475.56
3475.56
3475.56
3475.56
3475.56
3475.56
3475.56
3475.56
3475.56
3475.56
3475.56
3475.57
3475.57
3475.57
3475.57
3475.57
3475.57
3475.57
3475.57
3377.45
3377.45
3377.46
3377.46
3377.46
3377.46
3377.46
3377.46
3377.46
3377.46
3377.46
3377.46
3377.46
3377.46
3377.46
3377.46
3377.46
3377.46
3377.46
3377.46
3377.46
3377.46
3377.46
3377.47
3377.47
3377.47
3377.47
3377.47
3377.47
3377.47
3279.36
3279.36
3279.36
3279.36