/*--------------------------------*- C++ -*----------------------------------*\
| =========                 |                                                 |
| \\      /  F ield         | OpenFOAM: The Open Source CFD Toolbox           |
|  \\    /   O peration     | Version:  2312                                  |
|   \\  /    A nd           | Website:  www.openfoam.com                      |
|    \\/     M anipulation  |                                                 |
\*---------------------------------------------------------------------------*/
FoamFile
{
    version     2.0;
    format      ascii;
    arch        "LSB;label=32;scalar=64";
    class       volScalarField;
    location    "1.338907018";
    object      p_rgh;
}
// * * * * * * * * * * * * * * * * * * * * * * * * * * * * * * * * * * * * * //

dimensions      [1 -1 -2 0 0 0 0];

internalField   nonuniform List<scalar> 
90000
(
4898
4898.01
4898
4898
4898
4898
4898
4897.99
4897.99
4897.99
4897.99
4897.98
4897.98
4897.98
4897.98
4897.98
4897.98
4897.98
4897.99
4897.99
4897.99
4897.99
4897.99
4897.99
4898
4898
4898
4898
4898
4898
4898.01
4898.01
4898.01
4898
4898
4898
4898
4897.99
4897.99
4897.99
4897.98
4897.98
4897.98
4897.98
4897.98
4897.98
4897.98
4897.99
4897.99
4897.99
4897.99
4897.99
4897.99
4897.99
4898
4898
4898
4898
4897.99
4897.97
4898
4898
4898
4898
4898
4898
4897.99
4897.99
4897.99
4897.99
4897.99
4897.98
4897.98
4897.98
4897.98
4897.98
4897.98
4897.98
4897.98
4897.99
4897.99
4897.99
4897.99
4897.99
4897.99
4898
4898
4898.02
4898.04
4898
4898
4898
4897.99
4897.99
4897.99
4897.99
4897.99
4897.99
4897.99
4897.99
4897.99
4897.99
4897.98
4897.98
4897.98
4897.98
4897.98
4897.98
4897.98
4897.98
4897.98
4897.99
4897.99
4897.99
4897.99
4897.99
4897.99
4897.99
4898.02
4898
4897.99
4897.98
4897.98
4897.98
4897.99
4897.99
4897.99
4897.99
4898
4898
4898
4897.99
4897.99
4897.99
4897.99
4897.98
4897.98
4897.98
4897.98
4897.98
4897.99
4897.99
4897.99
4897.99
4897.99
4898
4898
4897.99
4898
4898
4897.98
4897.97
4897.97
4897.98
4897.98
4897.99
4897.99
4898
4898
4898.01
4898.01
4898.01
4898.01
4898
4898
4898
4897.99
4897.99
4897.99
4897.99
4897.99
4897.99
4898
4898
4898
4898
4898
4898
4898
4897.99
4897.98
4897.96
4897.96
4897.97
4897.98
4897.98
4897.99
4898
4898.01
4898.01
4898.02
4898.02
4898.02
4898.02
4898.02
4898.01
4898.01
4898
4898
4898
4898
4898
4898.01
4898.01
4898.01
4898.01
4898
4898
4897.99
4897.99
4897.97
4897.96
4897.96
4897.97
4897.98
4897.98
4897.99
4898
4898.01
4898.01
4898.02
4898.02
4898.02
4898.03
4898.02
4898.02
4898.02
4898.01
4898.01
4898.01
4898.01
4898.01
4898.01
4898.01
4898.01
4898.01
4898.01
4898
4898
4898
4897.97
4897.97
4897.97
4897.98
4897.98
4897.99
4897.99
4897.99
4898
4898
4898.01
4898.01
4898.02
4898.02
4898.02
4898.02
4898.01
4898.01
4898.01
4898
4898
4898.01
4898.01
4898.01
4898
4898
4897.99
4897.99
4898
4898
4897.98
4898
4898
4898
4898
4898
4897.99
4897.99
4897.99
4897.99
4898
4898
4898.01
4898.01
4898.01
4898.01
4898.01
4898.01
4898
4898
4898
4898
4897.99
4897.99
4897.98
4897.98
4897.98
4897.98
4897.99
4897.99
4898
4898.04
4898.03
4898.03
4898.03
4898.02
4898.01
4898
4897.99
4897.99
4897.99
4897.99
4898
4898
4898
4898
4898
4898
4898
4898
4898
4897.99
4897.98
4897.97
4897.96
4897.96
4897.97
4897.97
4897.98
4897.97
4898.03
4898.07
4898.06
4898.06
4898.04
4898.03
4898.01
4898
4897.99
4897.99
4897.98
4897.98
4897.99
4897.99
4897.99
4898
4898
4898
4898.01
4898
4898
4897.99
4897.98
4897.97
4897.97
4897.97
4897.98
4897.98
4897.97
4897.98
4898.05
4898.07
4898.06
4898.05
4898.03
4898.02
4898
4897.99
4897.98
4897.98
4897.98
4897.97
4897.97
4897.97
4897.98
4897.99
4898
4898
4898.01
4898.01
4898
4898
4897.99
4897.99
4897.99
4897.99
4897.99
4897.98
4897.98
4897.99
4898.05
4898.03
4898.02
4898
4897.99
4897.98
4897.98
4897.97
4897.97
4897.97
4897.97
4897.97
4897.97
4897.97
4897.97
4897.98
4898
4898.01
4898.01
4898.01
4898.01
4898
4898
4898
4898
4897.99
4897.98
4897.97
4897.97
4897.97
4898.01
4897.96
4897.95
4897.95
4897.95
4897.95
4897.96
4897.97
4897.98
4897.98
4897.98
4897.98
4897.98
4897.98
4897.99
4898
4898.01
4898.02
4898.02
4898.02
4898.01
4898.01
4898.01
4898.01
4898
4897.98
4897.97
4897.96
4897.95
4897.96
4897.97
4897.9
4897.91
4897.92
4897.94
4897.96
4897.98
4897.99
4898
4898.01
4898
4898
4898
4898
4898.01
4898.01
4898.02
4898.02
4898.02
4898.02
4898.02
4898.02
4898.02
4898.02
4898.01
4898
4897.99
4897.98
4897.98
4898.01
4897.93
4897.89
4897.91
4897.94
4897.96
4897.99
4898
4898.02
4898.02
4898.01
4898.01
4898
4898.01
4898.01
4898.01
4898.02
4898.01
4898.01
4898.01
4898.01
4898.02
4898.03
4898.04
4898.04
4898.03
4898.03
4898.04
4898.05
4898.06
4898.09
4897.94
4897.92
4897.95
4897.97
4897.99
4898
4898.01
4898.01
4898
4898
4898
4898
4898.01
4898.02
4898.02
4898.02
4898
4898
4897.99
4898
4898.01
4898.03
4898.03
4898.03
4898.03
4898.04
4898.06
4898.08
4898.1
4898.08
4897.96
4897.96
4897.97
4897.98
4897.98
4897.99
4897.98
4897.98
4897.98
4897.99
4898.01
4898.03
4898.04
4898.05
4898.04
4898.02
4898
4897.99
4897.99
4898
4898.01
4898.01
4898
4897.99
4897.99
4898
4898.02
4898.02
4898.01
4897.95
4897.98
4897.97
4897.97
4897.97
4897.97
4897.98
4897.98
4897.99
4898
4898.03
4898.05
4898.07
4898.07
4898.06
4898.04
4898.01
4897.99
4897.99
4897.99
4898
4897.99
4897.98
4897.96
4897.95
4897.96
4897.97
4897.97
4897.95
4897.91
4897.88
4897.98
4897.97
4897.98
4897.99
4898
4898.01
4898.02
4898.04
4898.06
4898.07
4898.08
4898.08
4898.06
4898.03
4898
4897.98
4897.98
4897.99
4898
4898
4897.98
4897.96
4897.95
4897.96
4897.98
4897.99
4897.98
4897.94
4897.92
4897.97
4897.98
4898
4898.02
4898.03
4898.05
4898.06
4898.06
4898.07
4898.07
4898.07
4898.05
4898.02
4897.99
4897.96
4897.95
4897.97
4898
4898.02
4898.02
4898.01
4897.98
4897.97
4897.98
4898.01
4898.03
4898.02
4897.99
4897.97
4897.99
4898.03
4898
4898.05
4898.05
4898.06
4898.07
4898.06
4898.06
4898.05
4898.05
4898.03
4898
4897.97
4897.95
4897.95
4897.98
4898.02
4898.05
4898.05
4898.04
4898.01
4897.99
4898
4898.03
4898.05
4898.04
4898
4897.97
4897.98
4897.99
4897.97
4898.02
4898.05
4898.05
4898.04
4898.03
4898.03
4898.03
4898.03
4898.02
4898.01
4897.99
4897.97
4897.97
4897.99
4898.02
4898.05
4898.05
4898.03
4898
4897.98
4898
4898.04
4898.07
4898.06
4898.01
4897.97
4897.96
4897.96
4897.93
4897.93
4898
4898
4897.99
4897.98
4897.98
4897.99
4898
4898.02
4898.02
4898.01
4897.99
4897.98
4897.99
4898.01
4898.02
4898.01
4897.98
4897.94
4897.94
4897.97
4898.02
4898.07
4898.06
4898.02
4897.98
4897.96
4897.96
4897.94
4897.92
4897.96
4897.95
4897.91
4897.92
4897.92
4897.93
4897.96
4897.98
4898
4898
4897.99
4897.97
4897.98
4897.99
4898.01
4898
4897.97
4897.94
4897.93
4897.97
4898.03
4898.07
4898.07
4898.02
4897.97
4897.95
4897.95
4897.93
4897.91
4897.94
4897.91
4897.9
4897.84
4897.85
4897.86
4897.89
4897.92
4897.94
4897.96
4897.96
4897.97
4897.99
4898.02
4898.05
4898.06
4898.05
4898.02
4898.01
4898.04
4898.09
4898.12
4898.1
4898.04
4897.98
4897.95
4897.95
4897.95
4897.91
4897.91
4897.9
4897.84
4897.84
4897.78
4897.8
4897.82
4897.85
4897.88
4897.91
4897.93
4897.95
4897.98
4898.03
4898.08
4898.1
4898.1
4898.08
4898.07
4898.08
4898.11
4898.12
4898.09
4898.03
4897.97
4897.96
4897.97
4897.96
4897.95
4897.92
4897.9
4897.84
4897.89
4897.79
4897.74
4897.77
4897.8
4897.83
4897.85
4897.88
4897.9
4897.93
4897.98
4898.03
4898.07
4898.07
4898.05
4898.04
4898.04
4898.06
4898.07
4898.03
4897.97
4897.91
4897.9
4897.93
4897.94
4897.91
4897.9
4897.89
4897.83
4897.85
4897.93
4897.76
4897.74
4897.77
4897.78
4897.8
4897.81
4897.83
4897.86
4897.9
4897.96
4898.01
4898.03
4898.02
4898.01
4898.02
4898.04
4898.04
4898.01
4897.95
4897.9
4897.88
4897.87
4897.87
4897.85
4897.81
4897.81
4897.82
4897.8
4897.89
4897.83
4897.75
4897.73
4897.74
4897.74
4897.75
4897.77
4897.8
4897.85
4897.91
4897.97
4898
4898.01
4898.01
4898.02
4898.04
4898.06
4898.05
4898.01
4897.95
4897.94
4897.92
4897.86
4897.81
4897.8
4897.77
4897.76
4897.79
4897.83
4897.81
4897.75
4897.71
4897.68
4897.69
4897.71
4897.74
4897.78
4897.82
4897.86
4897.9
4897.93
4897.94
4897.95
4897.97
4898
4898.03
4898.04
4898.02
4898.01
4897.99
4897.96
4897.93
4897.83
4897.77
4897.78
4897.76
4897.71
4897.77
4897.77
4897.68
4897.73
4897.65
4897.65
4897.68
4897.71
4897.74
4897.76
4897.77
4897.78
4897.79
4897.8
4897.82
4897.87
4897.93
4897.98
4898.02
4898.01
4897.99
4897.99
4897.96
4897.87
4897.82
4897.76
4897.72
4897.72
4897.69
4897.66
4897.71
4897.67
4897.65
4897.67
4897.59
4897.63
4897.66
4897.68
4897.68
4897.67
4897.66
4897.67
4897.7
4897.74
4897.82
4897.91
4897.98
4898.02
4898.01
4898
4897.93
4897.91
4897.85
4897.73
4897.7
4897.73
4897.68
4897.61
4897.63
4897.64
4897.65
4897.62
4897.61
4897.61
4897.54
4897.59
4897.59
4897.6
4897.6
4897.6
4897.62
4897.65
4897.71
4897.79
4897.88
4897.95
4897.98
4897.97
4897.93
4897.95
4897.9
4897.85
4897.82
4897.76
4897.76
4897.81
4897.69
4897.58
4897.66
4897.66
4897.59
4897.56
4897.52
4897.55
4897.45
4897.5
4897.51
4897.52
4897.53
4897.54
4897.57
4897.62
4897.69
4897.76
4897.82
4897.86
4897.88
4897.9
4897.88
4897.96
4897.95
4897.89
4897.88
4897.88
4897.84
4897.81
4897.67
4897.62
4897.71
4897.6
4897.49
4897.46
4897.5
4897.47
4897.34
4897.39
4897.39
4897.39
4897.39
4897.41
4897.47
4897.54
4897.61
4897.68
4897.73
4897.77
4897.81
4897.93
4897.93
4897.99
4897.96
4897.88
4897.87
4897.89
4897.75
4897.69
4897.62
4897.61
4897.6
4897.42
4897.36
4897.39
4897.41
4897.35
4897.2
4897.21
4897.19
4897.2
4897.25
4897.33
4897.42
4897.49
4897.55
4897.61
4897.69
4897.77
4897.8
4897.96
4897.97
4897.94
4897.91
4897.89
4897.84
4897.84
4897.63
4897.59
4897.57
4897.48
4897.35
4897.24
4897.26
4897.26
4897.17
4897.2
4896.98
4896.96
4896.99
4897.08
4897.18
4897.27
4897.34
4897.41
4897.49
4897.56
4897.65
4897.79
4897.76
4897.87
4897.94
4897.85
4897.82
4897.85
4897.75
4897.69
4897.49
4897.5
4897.45
4897.26
4897.15
4897.15
4897.1
4896.99
4897.03
4897.12
4896.72
4896.75
4896.83
4896.92
4897.01
4897.09
4897.17
4897.27
4897.4
4897.49
4897.52
4897.7
4897.75
4897.73
4897.87
4897.78
4897.68
4897.72
4897.63
4897.52
4897.4
4897.39
4897.26
4897.08
4896.98
4896.97
4896.82
4896.79
4896.95
4896.93
4896.47
4896.5
4896.56
4896.65
4896.76
4896.85
4896.95
4897.05
4897.2
4897.37
4897.43
4897.52
4897.75
4897.61
4897.72
4897.76
4897.7
4897.64
4897.62
4897.45
4897.35
4897.25
4897.07
4896.96
4896.77
4896.71
4896.64
4896.65
4896.62
4896.46
4896.14
4896.18
4896.28
4896.39
4896.45
4896.52
4896.71
4896.89
4897.03
4897.23
4897.43
4897.42
4897.72
4897.68
4897.65
4897.67
4897.72
4897.57
4897.56
4897.36
4897.26
4897.14
4896.93
4896.81
4896.57
4896.42
4896.45
4896.34
4896.11
4895.95
4895.75
4895.88
4895.93
4895.97
4896.1
4896.27
4896.53
4896.72
4896.96
4897.14
4897.28
4897.38
4897.55
4897.62
4897.61
4897.58
4897.66
4897.48
4897.4
4897.25
4897.15
4896.93
4896.62
4896.39
4896.39
4896.16
4895.93
4895.85
4895.92
4895.64
4895.34
4895.39
4895.38
4895.57
4895.86
4895.96
4896.2
4896.44
4896.66
4896.91
4896.97
4897.34
4897.5
4897.37
4897.52
4897.54
4897.51
4897.42
4897.3
4897.08
4896.89
4896.66
4896.48
4896.06
4895.98
4895.86
4895.51
4895.4
4895.4
4895.15
4894.7
4894.74
4894.98
4895.09
4895.25
4895.55
4895.95
4896.15
4896.39
4896.98
4897.01
4896.98
4897.46
4897.45
4897.47
4897.58
4897.43
4897.41
4897.23
4896.95
4896.76
4896.43
4896.16
4895.95
4895.43
4895.24
4895.2
4895.04
4894.61
4894.16
4893.93
4894.09
4894.35
4894.33
4894.76
4895.21
4895.5
4895.95
4896.08
4896.43
4897.04
4897.11
4897.21
4897.5
4897.29
4897.5
4897.56
4897.21
4896.99
4896.89
4896.48
4896.17
4895.75
4895.52
4895.09
4894.71
4894.5
4894.26
4894.17
4893.41
4893.06
4893.16
4893.43
4893.71
4894.18
4894.58
4894.99
4895.68
4895.95
4896.44
4896.58
4897.07
4897.29
4897.25
4897.61
4897.61
4897.31
4897.28
4897.18
4896.76
4896.36
4896.05
4895.54
4895.01
4894.63
4894.06
4893.75
4893.43
4893.12
4892.71
4891.9
4892
4892.5
4892.78
4893.5
4893.98
4894.63
4895.33
4895.8
4896.42
4896.84
4897.17
4897.39
4897.55
4897.76
4897.79
4897.56
4897.38
4897.15
4896.83
4896.39
4895.8
4895.31
4894.58
4893.98
4893.38
4892.81
4892.49
4891.98
4891.51
4889.89
4889.88
4891.54
4890.9
4892.8
4892.91
4893.96
4895.46
4895.13
4896.74
4897.21
4897.43
4897.48
4897.88
4898.22
4898.35
4897.79
4897.56
4897.31
4897.17
4896.73
4895.18
4895.37
4894
4892.89
4892.63
4890.95
4891.51
4889.85
4889.49
3773.45
3662.03
3941.41
3682.06
3992.26
3883.98
3985.86
4130.48
3922.06
4159.59
4143.21
4140.55
4096.62
4139.04
4174.05
4190.22
4117.37
4119.73
4120.25
4144.44
4164.39
3929.41
4114.09
3996.84
3890.12
3975.42
3692.38
3934.15
3659.03
3775.04
609.539
440.554
778.656
391.789
781.294
497.033
580.09
848.424
463.552
826.502
724.497
743.902
655.362
758.627
759.437
829.066
690.524
720.793
685.453
736.498
833.209
469.683
829.33
599.269
505.736
757.564
395.727
776.478
445.47
604.78
0.25456
0.526643
4.2516
1.51137
7.26542
0.29889
1.0996
7.28523
1.18283
2.47506
0.0620335
0.0329661
0.0561848
0.0281699
0.0264633
0.129392
0.0558106
0.0693985
0.0379785
0.0832425
3.12078
1.2072
4.24668
1.28879
0.363226
4.91373
1.11258
1.25071
0.576482
0.312039
0.0498752
0.165656
0.12251
0.124292
0.195364
0.233064
1.07627
0.543353
0.123089
0.0695713
0.0419873
0.0398884
0.0361801
0.0340189
0.0289229
0.0270144
0.0517521
0.0739202
0.0366085
0.0419126
0.0916361
0.133088
0.498239
0.712926
0.236612
0.259072
0.0687844
0.134461
0.181158
0.0497467
0.0407856
0.216453
0.0613637
0.0690497
0.0664487
0.233031
0.23299
0.0512236
0.102026
0.171128
0.146135
0.0391019
0.0937406
0.0370474
0.0300795
0.0288489
0.0736068
0.133732
0.0676326
0.155014
0.181904
0.120372
0.0547797
0.246514
0.247782
0.0767167
0.0419942
0.133079
0.251276
0.0382325
0.0321657
0.0318645
0.0319401
0.0314557
0.0289748
0.0278646
0.0315005
0.0319003
0.0398566
0.0448705
0.0381737
0.0398822
0.0584552
0.06731
0.040986
0.0405382
0.0738917
0.0651378
0.0534656
0.0366416
0.0375936
0.0363532
0.0298372
0.0321926
0.0273115
0.0283351
0.0308986
0.0312888
0.0314201
0.0317786
0.0294545
0.0297545
0.0298993
0.0287067
0.0270168
0.0264686
0.0262478
0.0285629
0.0307238
0.0274427
0.0262884
0.0407679
0.0546161
0.0606867
0.0489301
0.0485867
0.0531005
0.0489155
0.0455461
0.029461
0.027372
0.0300766
0.0279254
0.025798
0.0259672
0.0265132
0.0282734
0.0301537
0.0289926
0.0290585
0.0263406
0.0262658
0.0264715
0.026888
0.0256608
0.0247798
0.0246413
0.0245708
0.0244979
0.0243425
0.0251084
0.0286256
0.0288044
0.0343274
0.0490985
0.049066
0.0324406
0.0245363
0.0257938
0.0245886
0.0242255
0.024189
0.0241909
0.0242488
0.0243325
0.0254444
0.026631
0.0259669
0.0257212
0.0258804
0.0240174
0.0239721
0.023747
0.0236304
0.0232602
0.0229367
0.022765
0.0226763
0.022613
0.0224919
0.022329
0.0220815
0.0219407
0.021825
0.031023
0.0343414
0.0221312
0.0218303
0.0219452
0.0221467
0.0222534
0.0223248
0.0223641
0.0224146
0.0225445
0.0228545
0.0231989
0.0232276
0.0234158
0.0235313
0.0219094
0.0218167
0.0216622
0.0214542
0.0211588
0.0209606
0.0208095
0.0206724
0.0205415
0.0203972
0.0202189
0.0200467
0.0198385
0.0196653
0.0195512
0.0195388
0.0195821
0.0197083
0.0199127
0.0200701
0.0201913
0.0202767
0.0203981
0.0204858
0.0206338
0.0207626
0.0209725
0.0211382
0.021254
0.0213578
0.0199137
0.0197893
0.0196593
0.0194477
0.0191957
0.0189903
0.0188043
0.0186022
0.0184062
0.0182093
0.0179906
0.0177923
0.0176015
0.017455
0.0173398
0.0172963
0.0173689
0.0174894
0.0176756
0.0178518
0.0180131
0.0181894
0.0183589
0.0185177
0.0186592
0.018834
0.0189721
0.0191482
0.019222
0.0193126
0.0179275
0.017869
0.0177226
0.0174963
0.0172635
0.0170455
0.0168083
0.0165528
0.0163024
0.0160389
0.0157799
0.0155535
0.0153459
0.0151761
0.0150707
0.0150344
0.0150923
0.015216
0.0154051
0.0156457
0.0158709
0.0161335
0.0163313
0.0165604
0.0167398
0.0169157
0.0170651
0.0172103
0.0173172
0.0173969
0.0160916
0.0160254
0.0158565
0.0156403
0.0154086
0.0151535
0.0148752
0.0145851
0.0142903
0.0139744
0.0136729
0.013405
0.0131752
0.0129849
0.0128628
0.0128266
0.0128783
0.0130318
0.0132623
0.0135471
0.0138211
0.0141334
0.0143896
0.0146607
0.014891
0.0150618
0.0152408
0.0153789
0.0155134
0.0155909
0.0143826
0.0143026
0.0141232
0.0139062
0.0136467
0.0133666
0.0130679
0.0127465
0.0124083
0.0120579
0.0117315
0.011428
0.0111708
0.0109658
0.0108331
0.0107953
0.0108501
0.0110276
0.011288
0.0116017
0.0119258
0.0122649
0.0125773
0.0128741
0.0131262
0.0133219
0.0135191
0.0136774
0.0138219
0.0139042
0.0127873
0.0127017
0.0125177
0.01228
0.0120027
0.0117155
0.0113984
0.0110538
0.0106877
0.010315
0.00997247
0.00965289
0.00937363
0.00915138
0.0090088
0.00896973
0.00904017
0.00923524
0.00951533
0.009841
0.0102
0.0105605
0.0109056
0.0112269
0.0114955
0.0117242
0.0119324
0.0121115
0.0122627
0.0123518
0.0113142
0.0112248
0.0110335
0.0107863
0.0105142
0.0102178
0.00988579
0.00953297
0.00915332
0.0087649
0.00840404
0.00807497
0.00779013
0.00756286
0.00742101
0.00739006
0.00747909
0.00768278
0.00796829
0.0082982
0.0086703
0.00904238
0.00939932
0.0097327
0.0100161
0.0102665
0.010489
0.0106851
0.0108435
0.0109357
0.00996796
0.00987393
0.00968307
0.00944706
0.0091791
0.00887646
0.0085461
0.00818882
0.00779496
0.00740215
0.00704663
0.00672458
0.00643822
0.0062093
0.00607628
0.00605898
0.00616014
0.00636102
0.00663628
0.00696137
0.00733277
0.00770968
0.0080709
0.00840594
0.00869794
0.0089566
0.00918814
0.00939427
0.00955666
0.00964649
0.00873808
0.00864819
0.00847335
0.00824224
0.0079676
0.00767047
0.00735719
0.00700835
0.00661726
0.00623002
0.00588182
0.00556955
0.00529337
0.00507797
0.00496351
0.00496239
0.00506909
0.00525943
0.00551464
0.00582578
0.00618843
0.00656402
0.0069221
0.00724682
0.00753345
0.00779133
0.00802646
0.00823379
0.00839149
0.0084741
0.00764528
0.0075641
0.00739263
0.0071588
0.0068951
0.00662113
0.0063257
0.00598124
0.00559501
0.00522176
0.00489204
0.00460007
0.00434712
0.00415687
0.00406272
0.0040712
0.00417384
0.00434866
0.00458153
0.00487192
0.00521479
0.00557598
0.00592251
0.00623675
0.00651774
0.00677238
0.00700214
0.00719816
0.0073424
0.00741664
0.00666175
0.00658734
0.00641366
0.00619315
0.00595405
0.00570288
0.00542294
0.00508931
0.00471941
0.00436832
0.00406251
0.00379702
0.00357433
0.00341324
0.00333807
0.00335338
0.00345033
0.00360913
0.00381728
0.0040792
0.00439461
0.00473698
0.00507244
0.00537862
0.0056505
0.0058922
0.00610484
0.00628188
0.00641067
0.00647745
0.00578968
0.00570492
0.00555311
0.00536172
0.00514637
0.00491349
0.00464349
0.0043216
0.00397712
0.00365774
0.0033815
0.00314496
0.00295331
0.0028223
0.00276675
0.00278574
0.00286948
0.00300526
0.00318844
0.00342736
0.00372239
0.00404804
0.00436764
0.00465593
0.0049075
0.00512824
0.0053213
0.00548125
0.00559665
0.00565568
0.00502033
0.00494865
0.0048235
0.0046487
0.00444541
0.00422623
0.00396887
0.0036719
0.00336463
0.00307787
0.00282494
0.00261251
0.00245267
0.00235592
0.00232211
0.00234046
0.00240291
0.00251205
0.00267594
0.00290152
0.00317992
0.00348147
0.00377191
0.00403204
0.00426126
0.00446604
0.00464641
0.0047932
0.00489446
0.00494268
0.00435841
0.00431356
0.00419604
0.0040313
0.00384886
0.00364706
0.00340758
0.00314058
0.00286646
0.0026024
0.00236652
0.0021793
0.00205615
0.0019961
0.00198211
0.00199726
0.00203884
0.00212531
0.00227258
0.00248146
0.00273349
0.00299962
0.00325576
0.00349243
0.00371046
0.00390942
0.00408055
0.00421074
0.00429187
0.0043258
0.00381161
0.00376214
0.00364887
0.00350267
0.00334451
0.00315642
0.00293497
0.00269627
0.00245082
0.00220925
0.00199655
0.0018416
0.0017562
0.00172598
0.00172363
0.00173366
0.0017616
0.00183267
0.00196201
0.00214454
0.00236053
0.0025895
0.0028193
0.00304508
0.00326124
0.00345556
0.00361163
0.00371804
0.00377628
0.00379867
0.00332228
0.00326976
0.00317305
0.00305196
0.00290875
0.00272982
0.00252602
0.00231373
0.00209733
0.00188506
0.00170397
0.00158321
0.00152825
0.00151676
0.00152033
0.00152957
0.00155474
0.00161769
0.00172716
0.00187638
0.00205288
0.00224863
0.00245995
0.00268014
0.00289364
0.00307855
0.00321645
0.00330226
0.00334646
0.00336638
0.00289662
0.00286198
0.00278242
0.00267756
0.00253973
0.00236891
0.00218181
0.00199315
0.00180579
0.00162771
0.00148233
0.00139195
0.00135634
0.00135389
0.00136264
0.00137796
0.00140812
0.00146477
0.00155016
0.0016611
0.00179713
0.00196228
0.00215727
0.00237095
0.00257974
0.00275692
0.00288538
0.00296467
0.00300809
0.00303138
0.00254118
0.00251459
0.00244383
0.00235066
0.00222357
0.0020678
0.00189996
0.00173335
0.00157434
0.00143296
0.00132509
0.00126085
0.00123565
0.00123504
0.00124736
0.00126963
0.00130394
0.0013505
0.00140845
0.0014819
0.00158244
0.00172251
0.00190379
0.00211088
0.0023158
0.00249067
0.0026197
0.00270308
0.00275174
0.00277713
0.00221651
0.0021789
0.00212593
0.00205371
0.00194762
0.00181342
0.00166688
0.00152211
0.00139185
0.00128808
0.00121637
0.00117361
0.00115261
0.00114851
0.00115983
0.0011836
0.00121593
0.00124961
0.00128473
0.00133266
0.00141213
0.00153775
0.00170889
0.00190734
0.00210491
0.00227595
0.00240659
0.00249597
0.00255075
0.00257749
0.00190919
0.00187456
0.00185106
0.00180214
0.00171565
0.00160123
0.00147488
0.00135276
0.00125173
0.00118124
0.00113682
0.00110695
0.0010856
0.00107569
0.00108189
0.00110058
0.00112564
0.00114867
0.0011731
0.00121371
0.00128884
0.00140898
0.0015696
0.00175252
0.00193427
0.00209542
0.00222564
0.00232262
0.00238752
0.00242043
0.00165753
0.00164806
0.00164252
0.00160348
0.00152852
0.00143042
0.00132432
0.00122663
0.00115203
0.00110381
0.00107248
0.0010468
0.0010244
0.00101102
0.00101131
0.00102241
0.0010381
0.00105531
0.00108054
0.00112706
0.00120687
0.0013233
0.00146905
0.00162999
0.00179137
0.0019421
0.00207526
0.00218553
0.00226653
0.00231016
0.00148798
0.00149109
0.00148036
0.00144086
0.00137643
0.00129692
0.00121371
0.00113984
0.00108408
0.00104565
0.00101748
0.000994065
0.000975485
0.000964537
0.000962001
0.000965537
0.000973508
0.000988798
0.00101964
0.00107464
0.00115783
0.00126676
0.00139463
0.00153413
0.00167974
0.001827
0.00196959
0.00209687
0.00219409
0.00224589
0.00137121
0.00136297
0.00134198
0.00130631
0.00125764
0.00119885
0.00113662
0.00107919
0.00103163
0.000994827
0.000968107
0.00095088
0.000941778
0.000937817
0.000935663
0.000934644
0.000938772
0.000955141
0.000991474
0.00105116
0.00113251
0.00123107
0.00134333
0.00146867
0.00160778
0.00175852
0.00191199
0.00205167
0.00215667
0.00220844
0.00127892
0.0012619
0.00124189
0.00121602
0.00118125
0.00113634
0.00108487
0.00103277
0.000985747
0.00094897
0.000926164
0.000917209
0.000917152
0.000918998
0.000918662
0.000918235
0.000925003
0.000947156
0.000989382
0.00105098
0.00112803
0.00121739
0.0013196
0.00143827
0.00157601
0.00172936
0.00188589
0.00202546
0.00212567
0.00216952
0.00122482
0.00121504
0.00120015
0.00117669
0.00114269
0.00109898
0.00104939
0.000999478
0.000955786
0.000924426
0.000908171
0.00090445
0.000906821
0.000909417
0.000911222
0.000916876
0.000933651
0.000966671
0.00101649
0.00107984
0.00115309
0.00123574
0.00133131
0.00144463
0.0015772
0.00172315
0.00186824
0.00199276
0.00207728
0.00210938
0.0012202
0.00121891
0.00119886
0.00116307
0.0011181
0.0010705
0.00102531
0.00098655
0.000957536
0.000939606
0.000931046
0.000927818
0.000926308
0.000926152
0.000930989
0.00094611
0.000976294
0.00102166
0.00107885
0.00114338
0.00121306
0.0012896
0.00137752
0.00148069
0.0015985
0.00172373
0.00184324
0.00194129
0.00200417
0.0020247
0.0012363
0.00123367
0.00119859
0.00114688
0.00109359
0.00104885
0.00101735
0.000999418
0.000991991
0.000989746
0.000987345
0.000982193
0.000976114
0.000974508
0.00098412
0.001009
0.00105036
0.00110404
0.00116455
0.00122781
0.00129309
0.00136289
0.00144078
0.00152841
0.00162337
0.00171882
0.00180499
0.0018719
0.00191218
0.00192316
0.00123614
0.00122511
0.00118085
0.00112716
0.00107957
0.00104727
0.00103313
0.00103398
0.00104214
0.00104909
0.00104958
0.00104416
0.00103883
0.00104039
0.0010564
0.00108901
0.0011354
0.00119022
0.0012486
0.00130795
0.00136835
0.00143147
0.00149847
0.00156843
0.00163785
0.00170146
0.00175377
0.00179064
0.00181025
0.0018134
0.00120656
0.00119073
0.00115512
0.00111755
0.00108725
0.00107004
0.00106737
0.00107539
0.0010869
0.00109522
0.0010978
0.00109731
0.00109968
0.00111099
0.00113475
0.00117074
0.0012159
0.00126558
0.00131777
0.00137146
0.00142659
0.00148288
0.00153868
0.00159079
0.00163537
0.00166923
0.00169101
0.00170149
0.00170312
0.00169929
0.00115597
0.00114675
0.00113173
0.00111647
0.00110389
0.00109737
0.00109835
0.00110505
0.00111397
0.00112251
0.00113076
0.00114105
0.0011563
0.00117957
0.00120991
0.00124593
0.00128584
0.00132878
0.00137367
0.00142089
0.00146953
0.0015172
0.0015599
0.00159321
0.00161376
0.00162063
0.00161597
0.0016044
0.0015911
0.0015811
0.00109671
0.00110008
0.00110229
0.00110212
0.00110062
0.00110058
0.00110372
0.00111018
0.00111971
0.00113284
0.00115033
0.00117308
0.00120113
0.00123331
0.00126755
0.00130245
0.00133788
0.00137479
0.00141414
0.0014554
0.00149637
0.00153279
0.00155966
0.00157278
0.00157024
0.00155349
0.00152734
0.00149873
0.00147476
0.00146072
0.0010272
0.00103851
0.00104662
0.00105245
0.00105849
0.00106636
0.00107625
0.00108832
0.00110337
0.0011228
0.00114737
0.00117718
0.00121083
0.0012462
0.00128155
0.0013164
0.00135141
0.00138767
0.00142534
0.00146262
0.00149577
0.00151983
0.00153031
0.00152443
0.00150231
0.00146761
0.0014269
0.00138822
0.00135914
0.00134413
0.00093401
0.00094424
0.000952069
0.000964094
0.000981271
0.00100192
0.00102338
0.00104406
0.00106437
0.00108583
0.00110975
0.0011371
0.0011675
0.00120025
0.00123493
0.00127161
0.00131046
0.00135103
0.0013913
0.00142741
0.00145474
0.00146866
0.00146604
0.0014463
0.00141172
0.00136751
0.001321
0.00128004
0.00125148
0.00123836
0.000808967
0.000813938
0.000825785
0.000850568
0.000884323
0.000920806
0.000954174
0.000981409
0.00100271
0.00102027
0.00103698
0.00105557
0.00107813
0.00110595
0.00113976
0.00117938
0.00122354
0.00126947
0.00131274
0.00134836
0.00137153
0.00137859
0.00136834
0.00134211
0.00130379
0.00125926
0.0012154
0.00117883
0.0011549
0.00114543
0.00066213
0.00066431
0.000687528
0.000728787
0.00077885
0.000828092
0.00086947
0.000899965
0.000920212
0.000933615
0.000943911
0.000955655
0.000972762
0.000997312
0.00103051
0.00107144
0.00111718
0.00116337
0.00120477
0.00123629
0.00125406
0.00125603
0.00124257
0.00121632
0.00118171
0.00114417
0.00110916
0.00108133
0.00106397
0.00105774
0.000515249
0.000519831
0.000554814
0.000606937
0.00066485
0.000719165
0.000764115
0.000797695
0.000820894
0.00083684
0.000849487
0.000863031
0.000881006
0.000905477
0.0009369
0.000973854
0.00101311
0.00105027
0.00108108
0.00110193
0.00111059
0.00110675
0.00109202
0.00106948
0.00104303
0.00101664
0.000993653
0.000976374
0.000965998
0.000962155
0.000385411
0.000395372
0.000433051
0.00048337
0.000537486
0.000589397
0.000635882
0.000675711
0.000709063
0.000737242
0.000762138
0.00078579
0.000809955
0.000835469
0.000862247
0.000888875
0.000913034
0.000932098
0.000944291
0.000948348
0.000944256
0.000933294
0.000917738
0.000900324
0.000883645
0.000869646
0.00085931
0.000852657
0.000849044
0.000847225
0.000277908
0.000288671
0.000317489
0.000355013
0.000397715
0.000443816
0.000492044
0.00054094
0.00058878
0.000634029
0.000675346
0.000711785
0.000742769
0.000767774
0.000786348
0.000797953
0.000802127
0.000799173
0.000789892
0.00077565
0.000758468
0.000740784
0.000724986
0.000712954
0.000705673
0.00070306
0.00070403
0.000706797
0.000709352
0.000709632
0.000186428
0.000192161
0.000206727
0.000228518
0.000258788
0.000298717
0.000347888
0.000403963
0.000463195
0.000521374
0.000574344
0.000618704
0.00065214
0.00067333
0.000681951
0.000678589
0.000664942
0.000643498
0.000617233
0.00058944
0.000563433
0.000542113
0.000527531
0.00052058
0.00052087
0.000526826
0.000535978
0.000545492
0.000552695
0.000555242
0.000108796
0.000107309
0.000110216
0.000120074
0.000140628
0.000174041
0.000219853
0.000274942
0.000334624
0.000393515
0.000446339
0.000488884
0.000518233
0.000532977
0.000533153
0.000520325
0.000497216
0.0004673
0.000434494
0.000402717
0.000375461
0.000355361
0.000343873
0.000341121
0.000345949
0.00035615
0.000368812
0.000381005
0.00039014
0.000394194
4.94438e-05
4.50428e-05
4.28711e-05
4.63624e-05
5.93151e-05
8.31763e-05
0.000117338
0.000158975
0.000204181
0.000248482
0.000287552
0.00031801
0.000337544
0.000345261
0.000341524
0.000327834
0.000306637
0.000280978
0.000254127
0.000229196
0.000208785
0.000194683
0.000187685
0.000187551
0.0001931
0.000202448
0.00021328
0.000223459
0.000231046
0.000234776
1.26775e-05
1.02724e-05
8.48435e-06
9.20612e-06
1.38163e-05
2.28561e-05
3.59981e-05
5.20862e-05
6.94896e-05
8.6376e-05
0.00010105
0.000112201
0.00011896
0.000121018
0.000118591
0.000112362
0.000103373
9.28818e-05
8.22075e-05
7.25605e-05
6.49144e-05
5.98929e-05
5.77219e-05
5.82209e-05
6.08651e-05
6.48805e-05
6.93605e-05
7.34807e-05
7.65272e-05
7.81083e-05
4898.01
4898.01
4898.01
4898
4898
4898
4898
4897.99
4897.99
4897.99
4897.98
4897.98
4897.98
4897.98
4897.98
4897.98
4897.98
4897.98
4897.99
4897.99
4897.99
4897.99
4897.99
4897.99
4898
4898
4898
4898
4898.01
4898.02
4898.01
4898.01
4898.01
4898.01
4898
4898
4898
4897.99
4897.99
4897.99
4897.98
4897.98
4897.98
4897.98
4897.98
4897.98
4897.98
4897.98
4897.99
4897.99
4897.99
4897.99
4897.99
4897.99
4898
4898
4898
4898
4898
4898
4898
4898
4898
4898
4898
4898
4897.99
4897.99
4897.99
4897.99
4897.98
4897.98
4897.98
4897.98
4897.98
4897.98
4897.98
4897.98
4897.98
4897.98
4897.98
4897.99
4897.99
4897.99
4897.99
4898
4897.99
4897.99
4898.02
4898
4898
4897.99
4897.99
4897.99
4897.99
4897.99
4897.99
4897.99
4897.99
4897.99
4897.99
4897.98
4897.98
4897.98
4897.97
4897.97
4897.97
4897.97
4897.98
4897.98
4897.98
4897.98
4897.99
4897.99
4897.99
4898
4898
4897.99
4898.01
4898
4897.98
4897.98
4897.98
4897.98
4897.98
4897.99
4897.99
4898
4898
4898
4898
4898
4897.99
4897.99
4897.98
4897.98
4897.98
4897.98
4897.98
4897.98
4897.98
4897.99
4897.99
4897.99
4897.99
4897.99
4898
4897.99
4898
4897.99
4897.97
4897.96
4897.97
4897.97
4897.98
4897.99
4897.99
4898
4898.01
4898.01
4898.02
4898.02
4898.01
4898.01
4898
4898
4897.99
4897.99
4897.99
4897.99
4898
4898
4898
4898
4898
4898
4898
4898
4897.99
4897.99
4897.96
4897.95
4897.96
4897.96
4897.97
4897.98
4897.99
4898
4898.01
4898.02
4898.03
4898.03
4898.03
4898.03
4898.02
4898.02
4898.01
4898.01
4898
4898
4898.01
4898.01
4898.01
4898.02
4898.02
4898.01
4898.01
4898
4898
4898
4897.96
4897.95
4897.96
4897.96
4897.97
4897.98