/*--------------------------------*- C++ -*----------------------------------*\
| =========                 |                                                 |
| \\      /  F ield         | OpenFOAM: The Open Source CFD Toolbox           |
|  \\    /   O peration     | Version:  2312                                  |
|   \\  /    A nd           | Website:  www.openfoam.com                      |
|    \\/     M anipulation  |                                                 |
\*---------------------------------------------------------------------------*/
FoamFile
{
    version     2.0;
    format      ascii;
    arch        "LSB;label=32;scalar=64";
    class       surfaceScalarField;
    location    "1.338907018";
    object      phi;
}
// * * * * * * * * * * * * * * * * * * * * * * * * * * * * * * * * * * * * * //

dimensions      [0 3 -1 0 0 0 0];

oriented        oriented;

internalField   nonuniform List<scalar> 
263100
(
-2.88209e-09
5.76418e-09
-2.88209e-09
9.4394e-10
-2.02289e-09
-1.7293e-09
2.53835e-09
-1.78733e-10
-1.34809e-09
3.62024e-09
-7.8582e-11
-9.34175e-10
4.4275e-09
-3.58257e-10
-3.79958e-10
5.10459e-09
-7.81486e-10
1.69296e-10
5.71889e-09
-1.17343e-09
6.14372e-10
6.0826e-09
-1.37456e-09
1.05022e-09
5.97175e-09
-1.25671e-09
1.38494e-09
5.28066e-09
-7.85251e-10
1.46638e-09
4.06264e-09
-1.27642e-10
1.30451e-09
2.42194e-09
6.08053e-10
9.58531e-10
6.66189e-10
1.16535e-09
4.8399e-10
-8.03501e-10
1.3467e-09
-1.23732e-11
-1.69327e-09
1.0633e-09
-3.32142e-10
-1.76485e-09
4.48135e-10
-5.50698e-10
-1.10778e-09
-3.28548e-10
-5.0911e-10
-1.39724e-10
-9.36726e-10
-2.08619e-10
5.71119e-10
-1.221e-09
3.45822e-10
4.87213e-10
-9.21761e-10
8.63099e-10
-7.40387e-10
-1.03341e-10
1.21749e-09
-3.09118e-09
9.74214e-10
1.29763e-09
-6.21629e-09
1.97807e-09
1.10552e-09
-9.1629e-09
2.29197e-09
6.50464e-10
-1.07597e-08
1.51888e-09
1.07574e-10
-9.80447e-09
-3.28993e-10
-5.70054e-10
-5.45698e-09
-3.13771e-09
-1.13711e-09
3.50812e-09
-5.73349e-09
-3.15431e-09
1.51828e-08
-7.38715e-09
-4.2168e-09
4.14327e-08
-2.61933e-08
5.48198e-10
4.76156e-09
5.48198e-10
5.13103e-10
-2.4332e-09
5.44657e-10
4.9629e-10
-5.57358e-10
4.93191e-10
5.39113e-10
-4.55228e-10
4.2946e-10
7.60482e-10
-9.23842e-10
4.31492e-10
1.15688e-09
-1.52381e-09
4.16019e-10
1.70925e-09
-2.06992e-09
3.86996e-10
2.34381e-09
-2.3492e-09
3.45831e-10
2.98161e-09
-2.24166e-09
3.07309e-10
3.51229e-09
-1.72506e-09
3.17793e-10
3.82882e-09
-9.78119e-10
3.88734e-10
3.93237e-09
-2.33915e-10
5.41093e-10
3.76323e-09
3.12888e-10
7.78083e-10
3.35722e-09
3.78513e-10
1.09428e-09
2.67907e-09
3.39229e-11
1.4041e-09
1.68915e-09
-5.14822e-10
1.64088e-09
5.48871e-10
-1.25667e-09
1.76382e-09
-5.90571e-10
-1.7815e-09
1.70263e-09
-1.67696e-09
-1.8181e-09
1.43897e-09
-2.64506e-09
-1.23346e-09
1.08382e-09
-3.46791e-09
-1.83188e-10
7.63277e-10
-4.19652e-09
1.05277e-09
5.71171e-10
-4.78361e-09
2.03646e-09
5.09548e-10
-4.9552e-09
1.91141e-09
5.86528e-10
-4.82336e-09
5.62038e-10
9.01236e-10
-4.85893e-09
-1.79091e-09
1.59941e-09
-5.09622e-09
-5.2565e-09
2.46528e-09
-1.41635e-09
-1.39038e-08
4.59018e-09
1.1168e-08
-2.75017e-08
7.61075e-09
4.92055e-08
3.43844e-09
1.42467e-09
1.96085e-09
1.42467e-09
-3.48457e-10
-1.36135e-09
6.89208e-10
-1.40975e-09
-4.80381e-11
5.44289e-10
-2.11288e-09
-5.6508e-11
2.9165e-10
-2.55193e-09
-5.44826e-10
3.75578e-11
-2.67192e-09
-1.29162e-09
-1.50023e-10
-2.31386e-09
-2.06475e-09
-4.22331e-10
-1.46299e-09
-2.6469e-09
-6.38661e-10
-1.34182e-10
-2.9561e-09
-7.29643e-10
1.52439e-09
-2.87299e-09
-6.56791e-10
3.30064e-09
-2.52441e-09
-4.05515e-10
4.86e-09
-2.04573e-09
5.15245e-11
5.93852e-09
-1.51117e-09
5.25369e-10
6.11613e-09
-1.0699e-09
1.03918e-09
5.24515e-09
-7.55922e-10
1.4265e-09
3.46068e-09
-5.70633e-10
1.61233e-09
1.01585e-09
-4.85715e-10
1.46102e-09
-1.5357e-09
-4.46033e-10
1.02582e-09
-3.56786e-09
-3.60221e-10
4.12323e-10
-4.59359e-09
-1.49739e-10
-1.8807e-10
-4.47054e-09
2.11066e-10
-6.1405e-10
-3.27738e-09
6.21724e-10
-8.26111e-10
-1.32176e-09
7.68759e-10
-7.22085e-10
8.04121e-10
1.98737e-10
-4.23062e-10
2.63801e-09
-1.11558e-09
-1.4993e-10
3.46411e-09
-2.62434e-09
1.97773e-11
1.08826e-09
-3.35316e-09
4.80558e-10
-5.71929e-09
-1.03006e-08
3.19933e-09
-3.81116e-09
-3.72794e-08
7.84743e-09
2.98345e-08
1.55236e-08
1.46794e-09
-9.94181e-10
1.46794e-09
-9.03034e-10
1.82644e-10
6.85186e-10
-2.36027e-09
7.94067e-10
4.84269e-10
-3.4249e-09
7.13194e-10
1.56592e-10
-4.22412e-09
2.23304e-10
-1.17342e-10
-4.69242e-09
-5.78115e-10
-4.0563e-10
-4.62982e-09
-1.54644e-09
-7.54393e-10
-3.94124e-09
-2.48233e-09
-1.0392e-09
-2.64524e-09
-3.2685e-09
-1.1798e-09
-8.23212e-10
-3.75012e-09
-1.14706e-09
1.29475e-09
-3.89801e-09
-9.47041e-10
3.31707e-09
-3.67316e-09
-5.92162e-10
4.77721e-09
-3.03351e-09
-1.24076e-10
5.34384e-09
-1.98256e-09
1.75486e-10
4.80876e-09
-6.94788e-10
3.22494e-10
3.22896e-09
6.4862e-10
2.29934e-10
9.62935e-10
1.70091e-09
-3.05541e-11
-1.35701e-09
2.26805e-09
-4.85631e-10
-3.05564e-09
2.19889e-09
-9.37389e-10
-3.5885e-09
1.61697e-09
-1.30097e-09
-2.68679e-09
7.70507e-10
-1.52325e-09
-5.00857e-10
-6.43015e-11
-1.56109e-09
2.33106e-09
-7.2555e-10
-1.40108e-09
5.00471e-09
-1.50185e-09
-1.04122e-09
6.842e-09
-2.42725e-09
-6.00216e-10
8.37213e-09
-3.61423e-09
-6.21937e-10
1.06083e-08
-3.15274e-09
-2.52421e-09
3.39655e-09
-1.29762e-10
-3.04955e-09
-9.60032e-09
-2.1793e-08
-2.57954e-09
1.39617e-08
6.2007e-09
1.33582e-09
-3.76406e-09
1.33582e-09
-8.27323e-10
1.41875e-09
6.71696e-10
-2.15834e-09
1.36076e-09
5.2686e-10
-3.15924e-09
1.1834e-09
2.87218e-10
-3.97657e-09
7.75508e-10
1.57537e-11
-4.58473e-09
-3.66851e-11
-1.86163e-10
-4.84822e-09
-1.1242e-09
-4.11095e-10
-4.72913e-09
-2.28293e-09
-5.6419e-10
-4.13914e-09
-3.3527e-09
-7.37231e-10
-3.08311e-09
-4.23764e-09
-7.77405e-10
-1.71204e-09
-4.7127e-09
-7.35095e-10
-2.77123e-10
-4.61892e-09
-6.31912e-10
9.94744e-10
-3.85445e-09
-5.54705e-10
1.82961e-09
-2.36529e-09
-5.1731e-10
2.10801e-09
-4.00195e-10
-6.03385e-10
1.73471e-09
1.77669e-09
-7.57617e-10
8.74518e-10
3.49316e-09
-9.17518e-10
-8.43786e-11
4.30126e-09
-1.05438e-09
-6.45367e-10
3.96444e-09
-1.19164e-09
-4.18538e-10
2.69412e-09
-1.3091e-09
7.10994e-10
1.00361e-09
-1.39388e-09
2.60505e-09
-5.91044e-10
-1.4287e-09
4.89523e-09
-1.71172e-09
-1.39519e-09
6.86178e-09
-2.31546e-09
-1.26949e-09
7.75221e-09
-2.42816e-09
-1.02351e-09
7.27879e-09
-2.80372e-09
-4.77838e-10
7.5164e-09
-2.95301e-09
-5.72248e-10
5.01326e-09
3.98296e-09
-1.726e-09
-5.85279e-09
-7.14706e-09
-3.87003e-09
8.52685e-09
-4.6488e-10
8.22188e-10
-5.56934e-09
8.22188e-10
-2.59709e-10
1.70439e-09
4.83507e-10
-8.68908e-10
1.20053e-09
4.80998e-10
-1.29163e-09
8.92441e-10
4.25542e-10
-1.74124e-09
5.47202e-10
3.93062e-10
-2.24712e-09
-1.48372e-10
3.4196e-10
-2.80147e-09
-1.12636e-09
2.98238e-10
-3.39885e-09
-2.21506e-09
2.98326e-10
-3.98144e-09
-3.25017e-09
2.86254e-10
-4.39255e-09
-4.16214e-09
1.88637e-10
-4.51388e-09
-4.71605e-09
3.13645e-11
-4.28547e-09
-4.75804e-09
-1.25844e-10
-3.63607e-09
-4.11807e-09
-3.67184e-10
-2.61192e-09
-2.71451e-09
-6.07759e-10
-1.33518e-09
-7.97465e-10
-7.75147e-10
-6.39605e-11
1.49687e-09
-8.65423e-10
1.04132e-09
3.31979e-09
-8.02303e-10
1.91541e-09
4.1907e-09
-6.48734e-10
2.61916e-09
3.82077e-09
-4.76655e-10
3.25353e-09
2.45648e-09
-3.57089e-10
3.97963e-09
6.18993e-10
-3.52273e-10
4.8514e-09
-1.07373e-09
-4.50222e-10
5.73214e-09
-2.10096e-09
-5.96189e-10
6.37018e-09
-2.31602e-09
-7.72986e-10
6.41693e-09
-1.59012e-09
-1.03372e-09
4.69258e-09
-4.53393e-11
-1.17664e-09
2.04953e-09
6.86443e-10
-1.11414e-09
1.30226e-09
7.04217e-09
-2.39128e-09
-3.95898e-09
2.89623e-09
-4.81989e-09
7.49317e-09
-2.92392e-09
-1.90046e-10
-5.37395e-09
-1.90046e-10
3.23407e-10
9.64673e-10
-7.04956e-11
1.01823e-09
1.79725e-10
5.77947e-11
1.6167e-09
-1.38055e-10
1.73156e-10
1.93147e-09
-3.94241e-10
3.82145e-10
1.77298e-09
-8.0378e-10
5.91606e-10
1.01305e-09
-1.34741e-09
7.90509e-10
-3.15271e-10
-1.99307e-09
9.57972e-10
-2.06907e-09
-2.64094e-09
1.04777e-09
-4.03897e-09
-3.23545e-09
1.00501e-09
-5.85334e-09
-3.68841e-09
8.10381e-10
-7.00339e-09
-3.9541e-09
4.30096e-10
-7.11505e-09
-3.84284e-09
-2.60641e-11
-6.12923e-09
-3.17785e-09
-3.43557e-10
-4.25185e-09
-1.97881e-09
-4.92442e-10
-1.71137e-09
-4.56054e-10
-3.79114e-10
9.08676e-10
9.85493e-10
-9.30707e-11
3.20527e-09
1.78958e-09
2.62732e-10
4.8348e-09
1.68338e-09
6.17067e-10
5.71614e-09
7.36168e-10
8.90664e-10
5.95419e-09
-6.86207e-10
1.05977e-09
5.67777e-09
-1.8603e-09
1.00217e-09
5.04797e-09
-2.40567e-09
8.32573e-10
3.9658e-09
-1.98309e-09
6.23877e-10
2.58776e-09
-5.11712e-10
1.7171e-10
6.1471e-10
2.35556e-09
-5.37926e-10
-2.18391e-09
4.62441e-09
-1.21641e-09
-2.16533e-09
9.2611e-09
-2.27618e-09
-3.46673e-09
7.62508e-09
-3.43568e-09
5.93019e-09
-1.90435e-09
-1.53462e-09
-2.4683e-09
-1.53462e-09
7.91863e-10
-5.95494e-10
-9.88607e-10
2.79276e-09
-1.22327e-09
-7.9163e-10
4.49483e-09
-1.46363e-09
-5.53731e-10
5.67209e-09
-1.53172e-09
-1.95029e-10
6.02483e-09
-1.46271e-09
1.8052e-10
5.3186e-09
-1.27915e-09
5.50076e-10
3.56493e-09
-1.09911e-09
8.17159e-10
9.75322e-10
-1.00352e-09
9.60392e-10
-2.05146e-09
-1.0651e-09
9.1755e-10
-4.98628e-09
-1.36012e-09
7.18787e-10
-7.15391e-09
-2.05464e-09
4.25397e-10
-8.10685e-09
-2.83517e-09
1.37008e-10
-7.61255e-09
-3.40445e-09
-5.58404e-11
-5.79293e-09
-3.52468e-09
-5.8816e-11
-3.04802e-09
-3.15406e-09
1.53347e-10
7.01488e-11
-2.45115e-09
4.88002e-10
2.96374e-09
-1.87072e-09
8.93326e-10
5.06275e-09
-1.68081e-09
1.34178e-09
6.12106e-09
-2.03565e-09
1.73854e-09
6.13368e-09
-2.71155e-09
1.98996e-09
5.32688e-09
-3.2295e-09
2.11405e-09
3.82899e-09
-3.0944e-09
2.09785e-09
1.70838e-09
-1.88969e-09
1.92619e-09
-7.7316e-10
2.91677e-10
1.57906e-09
-2.67257e-09
3.42348e-09
7.44695e-10
-4.46268e-09
6.34708e-09
-4.11591e-12
-3.19589e-09
8.29106e-09
-3.59872e-10
-1.8663e-09
6.47746e-09
-2.52881e-10
2.7714e-09
1.19635e-09
-2.41483e-09
2.24953e-09
-2.41483e-09
1.24443e-09
-2.72698e-09
-1.65719e-09
4.18222e-09
-2.79997e-09
-1.46706e-09
6.59869e-09
-2.84893e-09
-1.11949e-09
8.25799e-09
-2.53091e-09
-7.2625e-10
8.90818e-09
-1.8375e-09
-3.14064e-10
8.3719e-09
-7.93435e-10
4.39749e-11
6.65682e-09
4.27797e-10
2.16317e-10
3.99944e-09
1.38542e-09
3.31187e-10
8.41601e-10
1.84149e-09
3.45372e-10
-2.22256e-09
1.5249e-09
2.98455e-10
-4.71828e-09
3.61938e-10
2.14946e-10
-6.21488e-09
-1.41417e-09
2.17228e-10
-6.55557e-09
-3.23666e-09
3.08648e-10
-5.75001e-09
-4.66944e-09
4.57796e-10
-4.00026e-09
-5.44488e-09
6.33479e-10
-1.70005e-09
-5.57351e-09
8.82951e-10
6.40147e-10
-5.34052e-09
1.15758e-09
2.64285e-09
-5.11164e-09
1.42566e-09
3.94588e-09
-5.02463e-09
1.6578e-09
4.33156e-09
-4.96805e-09
1.82287e-09
3.71331e-09
-4.64891e-09
1.97573e-09
2.22167e-09
-3.69466e-09
2.02077e-09
1.42624e-10
-1.76318e-09
1.87473e-09
-2.0774e-09
8.55466e-10
1.57066e-09
-3.39968e-09
3.49143e-09
1.15492e-09
-3.43316e-09
5.11186e-09
1.14419e-09
-1.35282e-09
4.43831e-09
1.6081e-09
3.31131e-10
1.9877e-09
2.58949e-09
1.01479e-10
2.7588e-09
-2.39278e-09
6.97826e-09
-2.39278e-09
1.75807e-09
-5.49703e-09
-1.44167e-09
4.8276e-09
-4.77714e-09
-1.13819e-09
7.22993e-09
-4.57347e-09
-7.10898e-10
8.74388e-09
-3.74986e-09
-3.12572e-10
9.22496e-09
-2.31015e-09
-8.31649e-12
8.76867e-09
-4.36714e-10
1.17596e-10
7.43486e-09
1.57796e-09
2.17098e-10
5.53845e-09
3.19408e-09
1.31477e-10
3.33848e-09
3.97026e-09
1.17928e-10
1.10295e-09
3.55679e-09
2.45179e-10
-9.56368e-10
1.9828e-09
4.66569e-10
-2.72082e-09
-3.64047e-10
7.22005e-10
-4.06444e-09
-2.88163e-09
9.71214e-10
-4.86264e-09
-5.04613e-09
1.13139e-09
-5.0142e-09
-6.54612e-09
1.18637e-09
-4.42175e-09
-7.33113e-09
1.08292e-09
-3.13928e-09
-7.59351e-09
8.81848e-10
-1.51707e-09
-7.53394e-09
7.14439e-10
-5.68675e-11
-7.21283e-09
6.52401e-10
8.48884e-10
-6.60094e-09
6.64348e-10
9.53723e-10
-5.47127e-09
6.65099e-10
2.98114e-10
-3.64031e-09
5.5129e-10
-7.04093e-10
-1.14891e-09
3.27514e-10
-1.52659e-09
1.52001e-09
7.01303e-11
-1.30965e-09
3.01118e-09
1.28866e-10
4.13693e-11
2.77599e-09
7.8576e-10
1.49469e-09
1.14279e-09
1.56788e-09
1.18332e-09
1.405e-11
1.94162e-09
4.28163e-11
9.16054e-10
-5.64391e-10
8.08391e-09
-5.64391e-10
2.47726e-09
-8.9684e-09
3.92343e-10
4.33252e-09
-7.28418e-09
6.22305e-10
5.47449e-09
-6.59485e-09
8.56368e-10
5.9228e-09
-5.2564e-09
1.04297e-09
5.78057e-09
-3.24223e-09
1.06637e-09
5.34407e-09
-9.32889e-10
9.28751e-10
4.82999e-09
1.46196e-09
6.23995e-10
4.39951e-09
3.20763e-09
4.00476e-10
3.96084e-09
4.04068e-09
3.32569e-10
3.33119e-09
3.66463e-09
4.59078e-10
2.23825e-09
2.22106e-09
7.59643e-10
5.25062e-10
1.6238e-10
1.05824e-09
-1.70301e-09
-1.98847e-09
1.17685e-09
-4.03108e-09
-3.99528e-09
1.09894e-09
-5.95283e-09
-5.57677e-09
7.67582e-10
-6.96663e-09
-6.75385e-09
2.60942e-10
-6.85862e-09
-7.58781e-09
-2.65333e-10
-5.82025e-09
-8.07396e-09
-6.15542e-10
-4.29599e-09
-8.01392e-09
-8.02331e-10
-2.82619e-09
-7.20973e-09
-9.06665e-10
-1.83947e-09
-5.5448e-09
-9.37772e-10
-1.35578e-09
-3.09707e-09
-1.04928e-09
-7.7672e-10
-6.96882e-10
-1.07385e-09
1.98563e-10
1.30574e-09
-8.47592e-10
1.55815e-09
1.83322e-09
-3.32021e-10
2.82718e-09
1.11319e-09
1.68784e-10
2.6278e-09
6.32995e-10
4.15728e-10
9.06472e-10
1.64088e-09
-2.38342e-10
1.58795e-09
-8.933e-10
2.403e-09
3.26002e-09
2.403e-09
2.46309e-09
-1.19521e-08
2.87524e-09
1.8494e-09
-9.94619e-09
3.23362e-09
7.24653e-10
-8.5819e-09
3.07431e-09
-4.70924e-10
-6.77619e-09
2.68349e-09
-1.3321e-09
-4.40989e-09
2.0009e-09
-1.56532e-09
-1.87776e-09
1.14911e-09
-8.67905e-10
2.98171e-10
4.28693e-10
5.52137e-10
1.82838e-09
-9.61087e-11
2.19713e-09
2.55443e-09
-2.40117e-10
3.40207e-09
2.51493e-09
-1.68567e-10
3.48886e-09
2.00675e-09
-1.93387e-11
2.22795e-09
1.21938e-09
2.75965e-11
-1.66831e-10
3.29246e-10
-1.18546e-10
-3.16241e-09
-7.0489e-10
-4.94549e-10
-5.97307e-09
-1.9229e-09
-1.02942e-09
-7.88132e-09
-3.42813e-09
-1.57348e-09
-8.53071e-09
-5.05672e-09
-1.99534e-09
-7.98519e-09
-6.43677e-09
-2.24917e-09
-6.65179e-09
-7.0839e-09
-2.28659e-09
-5.03147e-09
-6.68239e-09
-2.13971e-09
-3.39457e-09
-5.24924e-09
-1.91168e-09
-1.72913e-09
-3.17516e-09
-1.57488e-09
1.17697e-10
-1.38439e-09
-1.17556e-09
2.18596e-09
-2.97587e-10
-5.25733e-10
3.81396e-09
3.2752e-11
6.03145e-11
4.06302e-09
2.64703e-10
4.43552e-10
2.60801e-09
1.68627e-09
2.27453e-10
8.44323e-10
3.56266e-09
-3.11782e-10
2.18284e-09
2.0017e-10
5.18251e-09
-7.13433e-09
5.18251e-09
1.04047e-09
-1.25381e-08
4.66141e-09
-2.59156e-09
-1.04745e-08
4.10385e-09
-5.80219e-09
-8.54314e-09
3.12436e-09
-8.38022e-09
-6.20175e-09
1.96688e-09
-9.69215e-09
-3.78844e-09
6.6319e-10
-9.36414e-09
-1.76518e-09
-4.63287e-10
-7.44017e-09
-3.52858e-10
-1.29823e-09
-4.30124e-09
5.02379e-10
-1.84878e-09
-8.44432e-10
1.02993e-09
-1.98556e-09
1.85843e-09
1.64262e-09
-1.90497e-09
3.05375e-09
2.57598e-09
-1.85913e-09
2.5559e-09
3.60033e-09
-1.99133e-09
7.04983e-10
4.3973e-09
-2.32753e-09
-1.82648e-09
4.49051e-09
-2.76229e-09
-4.27067e-09
3.58877e-09
-3.14004e-09
-6.04517e-09
1.68908e-09
-3.37959e-09
-6.85707e-09
-8.07526e-10
-3.43507e-09
-6.77432e-09
-3.1968e-09
-3.28539e-09
-6.05545e-09
-4.78863e-09
-2.9524e-09
-4.8989e-09
-5.24345e-09
-2.52411e-09
-3.288e-09
-4.74644e-09
-2.04815e-09
-1.19194e-09
-3.73929e-09
-1.48509e-09
1.17942e-09
-2.88802e-09
-8.47072e-10
3.35035e-09
-2.35167e-09
-1.21803e-10
4.45538e-09
-1.59417e-09
5.02775e-10
3.9214e-09
3.95595e-11
7.49299e-10
2.58365e-09
2.31852e-09
7.35641e-10
1.54058e-09
3.58461e-09
1.11446e-09
2.15571e-09
1.72175e-09
5.14119e-09
-1.74568e-08
5.14119e-09
-2.17919e-09
-7.89283e-09
2.60121e-09
-7.9934e-09
-6.26695e-09
1.54769e-09
-1.22405e-08
-4.32435e-09
-1.51898e-11
-1.50655e-08
-2.26843e-09
-1.13335e-09
-1.5917e-08
-7.14322e-10
-2.22934e-09
-1.45586e-08
-5.72079e-11
-3.05824e-09
-1.13221e-08
-1.89162e-10
-3.38285e-09
-7.09397e-09
-3.74296e-10
-3.33122e-09
-2.89053e-09
2.27879e-12
-3.1577e-09
2.85886e-10
1.45212e-09
-2.97227e-09
2.08122e-09
3.76719e-09
-2.97558e-09
2.40346e-09
6.47067e-09
-3.17875e-09
1.69956e-09
8.59295e-09
-3.467e-09
4.95236e-10
9.393e-09
-3.65477e-09
-7.7686e-10
8.58741e-09
-3.65984e-09
-1.89356e-09
6.34416e-09
-3.44883e-09
-2.78295e-09
3.24388e-09
-3.0556e-09
-3.48793e-09
2.08731e-10
-2.58728e-09
-3.90582e-09
-2.06772e-09
-2.194e-09
-3.81074e-09
-3.30543e-09
-1.93707e-09
-2.95602e-09
-3.79853e-09
-1.72348e-09
-1.30799e-09
-3.8221e-09
-1.50104e-09
7.23317e-10
-3.60779e-09
-1.25437e-09
2.35478e-09
-2.93855e-09
-9.80373e-10
2.88965e-09
-1.20726e-09
-8.30828e-10
2.56794e-09
1.42868e-09
-9.28499e-10
2.21716e-09
3.52524e-09
-6.56988e-10
1.3807e-09
4.58795e-09
7.89652e-11
4.44321e-09
-6.9534e-10
1.41367e-09
-2.03275e-08
1.41367e-09
-6.41594e-09
1.26902e-09
-1.40202e-09
-1.19444e-08
1.57237e-09
-2.36549e-09
-1.54987e-08
2.66696e-09
-3.47369e-09
-1.71309e-08
3.41598e-09
-4.06677e-09
-1.66349e-08
2.96599e-09
-4.16757e-09
-1.41705e-08
1.38971e-09
-3.88156e-09
-1.04504e-08
-5.13284e-10
-3.34938e-09
-6.52366e-09
-1.56589e-09
-2.67624e-09
-3.11451e-09
-1.14376e-09
-2.19572e-09
-5.97879e-10
1.0119e-09
-2.00198e-09
1.09297e-09
4.29936e-09
-2.14043e-09
2.21943e-09
7.83057e-09
-2.39301e-09
2.97123e-09
1.04726e-08
-2.52511e-09
3.41064e-09
1.14499e-08
-2.37765e-09
3.43326e-09
1.06574e-08
-1.96651e-09
2.81361e-09
8.47046e-09
-1.38189e-09
1.48353e-09
5.45578e-09
-7.6906e-10
-3.39521e-10
2.54389e-09
-4.20052e-10
-2.18304e-09
2.23395e-10
-3.79319e-10
-3.39889e-09
-1.41445e-09
-6.26025e-10
-3.63307e-09
-2.45323e-09
-1.06971e-09
-2.85356e-09
-3.02955e-09
-1.5227e-09
-1.65666e-09
-2.82344e-09
-1.90738e-09
-7.09752e-10
-1.47206e-09
-2.30026e-09
-2.36557e-10
1.19554e-09
-2.71416e-09
7.85545e-11
4.26589e-09
-2.94402e-09
1.00498e-10
6.44047e-09
-2.7047e-09
-4.49921e-10
8.28219e-09
-2.93343e-09
7.60002e-09
-3.50812e-09
-2.94679e-09
-1.44771e-08
-2.94679e-09
-8.60503e-09
1.17579e-08
-4.88742e-09
-1.19091e-08
9.66823e-09
-4.83829e-09
-1.33657e-08
8.93074e-09
-4.83802e-09
-1.30022e-08
7.32202e-09
-4.2805e-09
-1.11121e-08
4.45743e-09
-3.37204e-09
-8.45912e-09
1.00309e-09
-2.2381e-09
-5.91316e-09
-1.81663e-09
-1.19944e-09
-3.845e-09
-3.16918e-09
-4.10521e-10
-2.3993e-09
-2.40262e-09
-1.23799e-10
-1.33193e-09
3.08381e-10
-2.92783e-10
-3.36398e-11
3.80607e-09
-7.25364e-10
1.68954e-09
7.29508e-09
-1.09958e-09
3.72574e-09
9.61367e-09
-1.08366e-09
5.47449e-09
1.04561e-08
-6.62897e-10
6.30222e-09
9.88954e-09
1.96701e-11
5.80562e-09
8.26422e-09
7.57728e-10
3.95481e-09
6.16621e-09
1.16183e-09
1.23215e-09
4.07633e-09
1.17721e-09
-1.51593e-09
2.10616e-09
8.27155e-10
-3.36939e-09
1.00185e-10
2.93918e-10
-4.15181e-09
-1.52461e-09
-1.7505e-10
-4.10935e-09
-2.49044e-09
-5.73304e-10
-3.87914e-09
-2.10661e-09
-8.87767e-10
-3.80937e-09
-1.63471e-10
-1.26554e-09
-3.67704e-09
2.82593e-09
-1.60894e-09
-3.1686e-09
5.63261e-09
-1.7113e-09
-2.61158e-09
7.82466e-09
-1.81521e-09
-1.5575e-09
9.54059e-09
-2.27211e-09
6.561e-09
-5.82019e-10
-5.18291e-09
-4.1506e-09
-5.18291e-09
-7.02729e-09
1.85999e-08
-5.01668e-09
-7.40743e-09
1.43394e-08
-4.30561e-09
-6.60209e-09
1.16025e-08
-3.47956e-09
-4.90409e-09
7.92861e-09
-2.29357e-09
-2.94292e-09
3.55106e-09
-1.0323e-09
-1.53711e-09
-4.27734e-10
5.50162e-11
-1.07911e-09
-2.98857e-09
7.47112e-10
-1.45547e-09
-3.65328e-09
8.93834e-10
-2.12014e-09
-2.1111e-09
4.06232e-10
-2.12946e-09
6.81158e-10
-3.2915e-10
-1.00389e-09
3.62955e-09
-9.11763e-10
1.28223e-09
6.0591e-09
-1.01049e-09
3.98499e-09
7.59391e-09
-6.4605e-10
6.14959e-09
8.25142e-09
6.44254e-11
7.00818e-09
8.27171e-09
7.5859e-10
6.24122e-09
7.78735e-09
1.20777e-09
4.18307e-09
6.85291e-09
1.29689e-09
1.62883e-09
5.38284e-09
1.14244e-09
-5.32156e-10
3.24866e-09
9.00893e-10
-1.95025e-09
6.43094e-10
7.69632e-10
-2.64122e-09
-1.82551e-09
9.21418e-10
-3.21846e-09
-3.22326e-09
1.28953e-09
-4.03861e-09
-2.79808e-09
1.5429e-09
-4.91852e-09
-7.74587e-10
1.56076e-09
-5.06008e-09
1.41297e-09
1.63388e-09
-4.38811e-09
3.14915e-09
1.85907e-09
-3.12162e-09
4.31859e-09
2.21483e-09
-5.5077e-10
3.9558e-09
2.90872e-09
7.1266e-10
5.18424e-09
-4.23232e-09
4.29855e-09
-4.23232e-09
-2.86246e-09
2.03929e-08
-3.09495e-09
-1.45384e-09
1.53367e-08
-2.33886e-09
3.20855e-10
1.14204e-08
-1.51753e-09
2.06683e-09
6.93537e-09
-6.74697e-10
3.11799e-09
2.60131e-09
-2.76338e-11
3.06374e-09
-5.63334e-10
2.52284e-10
1.76572e-09
-1.83348e-09
1.89497e-10
-1.0775e-10
-1.45157e-09
-2.97967e-10
-1.48595e-09
1.13332e-10
-8.28416e-10
-1.64529e-09
2.01351e-09
-1.16142e-09
-3.27994e-10
3.36574e-09
-1.04259e-09
1.89659e-09
4.34613e-09
-4.99922e-10
4.12342e-09
5.10267e-09
2.72599e-10
5.45773e-09
5.94976e-09
9.62872e-10
5.5587e-09
6.82588e-09
1.31758e-09
4.58932e-09
7.41896e-09
1.28191e-09
3.14246e-09
7.17439e-09
1.04405e-09
1.87614e-09
5.73598e-09
8.19458e-10
1.07912e-09
3.13113e-09
8.27787e-10
5.37697e-10
1.51942e-11
1.10819e-09
-3.10588e-10
-2.59191e-09
1.59014e-09
-1.74925e-09
-3.7036e-09
1.93013e-09
-3.43684e-09
-3.02903e-09
1.95238e-09
-4.44721e-09
-1.6347e-09
1.90481e-09
-4.17586e-09
-1.02792e-09
2.1774e-09
-2.8269e-09
-1.08297e-09
2.8421e-09
-7.90098e-10
-1.48482e-09
3.67814e-09
9.0826e-10
-2.81938e-09
4.98973e-09
-2.04741e-09
3.67972e-09
-2.53404e-09
9.41228e-09
-2.53404e-09
2.25254e-10
1.92935e-08
-1.46297e-09
2.4705e-09
1.45941e-08
-1.31731e-09
4.29294e-09
1.07809e-08
-1.00128e-09
5.63162e-09
6.49227e-09
-7.29871e-10
5.98513e-09
2.86644e-09
-4.80742e-10
5.25951e-09
5.99209e-10
-3.34407e-10
3.73442e-09
8.55532e-11
-3.27911e-10
2.1758e-09
4.35759e-10
-2.93205e-10
1.14299e-09
1.24959e-09
-8.72956e-11
1.20245e-09
1.61157e-09
3.52039e-10
2.127e-09
1.35143e-09
1.1026e-09
3.02604e-09
1.47328e-09
1.99362e-09
3.29569e-09
2.09607e-09
2.76049e-09
2.87751e-09
3.52539e-09
2.86254e-09
2.06242e-09
5.26798e-09
2.38335e-09
1.4165e-09
6.40399e-09
1.6619e-09
1.27363e-09
6.18599e-09
1.13173e-09
1.54448e-09
4.52763e-09
9.51911e-10
1.71957e-09
1.98295e-09
1.01488e-09
9.52404e-10
-3.21137e-10
1.17752e-09
-8.32024e-10
-1.72993e-09
1.02117e-09
-3.17135e-09
-1.60351e-09
3.44467e-10
-4.84831e-09
-6.20181e-10
-6.4265e-10
-4.89858e-09
-5.05418e-10
-1.02495e-09
-3.62058e-09
-1.49167e-09
-8.03273e-10
-1.92588e-09
-2.27115e-09
-5.23725e-10
-6.48245e-10
-2.16232e-09
-5.94971e-10
-9.01527e-10
-9.55772e-10
-1.5066e-09
1.53623e-09
-4.26454e-09
-1.49672e-09
1.25371e-08
-1.49672e-09
1.74946e-09
1.73842e-08
-1.03144e-09
4.168e-09
1.34949e-08
-1.04717e-09
6.21422e-09
9.69111e-09
-7.10953e-10
7.61988e-09
5.50237e-09
-2.12447e-10
8.21023e-09
2.16244e-09
2.64477e-10
7.79224e-09
4.50524e-10
6.63494e-10
6.90743e-09
-7.89658e-11
1.10009e-09
5.99511e-09
-2.59778e-10
1.6281e-09
5.49762e-09
-6.59917e-10
2.41552e-09
5.028e-09
-1.26829e-09
3.36293e-09
4.10927e-09
-2.0942e-09
4.39247e-09
2.36824e-09
-1.58563e-09
4.84364e-09
1.26042e-10
1.26262e-10
4.26552e-09
-1.85791e-09
2.41395e-09
3.15185e-09
-2.75307e-09
4.39705e-09
1.8239e-09
-2.31522e-09
5.17885e-09
8.53763e-10
-1.04499e-09
4.4858e-09
5.19373e-10
7.65061e-11
3.00963e-09
5.22868e-10
-4.01631e-11
1.62219e-09
6.45298e-10
-1.70995e-09
1.12834e-09
4.1934e-10
-4.4159e-09
1.68542e-09
-5.02471e-10
-6.60867e-09
2.49522e-09
-1.71824e-09
-6.89e-09
2.05824e-09
-2.24838e-09
-5.321e-09
1.46495e-10
-2.11488e-09
-3.45527e-09
-1.39174e-09
-1.88335e-09
-2.47715e-09
-9.47133e-10
-2.19628e-09
-2.46157e-09
1.25805e-09
-3.23897e-09
-3.12986e-09
5.27966e-09
-5.23836e-09
3.73223e-09
-4.98048e-09
-7.50892e-10
1.4231e-08
-7.50892e-10
2.86839e-09
1.41907e-08
-1.04834e-10
5.74291e-09
1.06614e-08
2.22433e-10
8.15339e-09
6.5897e-09
9.045e-10
9.82047e-09
2.32763e-09
1.66174e-09
1.03887e-08
-5.66223e-10
2.25457e-09
1.03181e-08
-2.19631e-09
2.76209e-09
9.87874e-09
-2.87773e-09
3.25237e-09
9.1876e-09
-3.48597e-09
3.92414e-09
8.1188e-09
-4.10812e-09
4.53652e-09
6.09253e-09
-4.20853e-09
5.01028e-09
2.80003e-09
-3.35201e-09
4.6184e-09
-1.13369e-09
-1.01913e-09
3.4501e-09
-4.43065e-09
1.66925e-09
1.83889e-09
-6.3165e-09
4.28235e-09
9.70343e-11
-6.14909e-09
4.93517e-09
-6.27176e-10
-4.36687e-09
4.26053e-09
-7.71519e-10
-2.49504e-09
3.23235e-09
-4.93146e-10
-1.95192e-09
2.76009e-09
-1.24667e-10
-3.2411e-09
3.3058e-09
-1.88114e-10
-5.57129e-09
4.60536e-09
-9.26535e-10
-7.56016e-09
5.68963e-09
-1.81142e-09
-7.73079e-09
4.74494e-09
-1.91389e-09
-5.96317e-09
1.53843e-09
-1.12365e-09
-4.00157e-09
-1.71551e-09
5.43467e-12
-3.17213e-09
-2.46202e-09
3.70991e-10
-3.39261e-09
-4.0741e-10
-1.07966e-10
-3.46274e-09
2.5997e-09
-9.43892e-10
-2.15114e-09
5.79979e-09
-1.42987e-09
1.63151e-09
2.26659e-10
8.00795e-10
1.28134e-08
8.00795e-10
4.94037e-09
8.44047e-09
1.84954e-09
7.9715e-09
5.31067e-09
2.49568e-09
1.0114e-08
1.37566e-09
3.1964e-09
1.099e-08
-2.23178e-09
3.75913e-09
1.09535e-08
-4.64854e-09
4.15772e-09
1.04183e-08
-5.75764e-09
4.11919e-09
9.77791e-09
-6.16752e-09
3.96086e-09
8.72517e-09
-6.14856e-09
3.77446e-09
6.71073e-09
-5.41999e-09
3.42393e-09
3.37153e-09
-3.49486e-09
2.75727e-09
-9.16292e-10
-4.59333e-10
1.54372e-09
-4.90584e-09
3.11202e-09
8.48868e-13
-7.32908e-09
5.24554e-09
-1.03445e-09
-7.38022e-09
5.62652e-09
-1.20143e-09
-5.71521e-09
4.20236e-09
-8.53876e-10
-3.77995e-09
2.4816e-09
-6.7821e-11
-3.25036e-09
2.32438e-09
4.96458e-10
-4.51985e-09
3.64826e-09
5.30705e-10
-6.86989e-09
6.03255e-09
-2.16365e-10
-8.52958e-09
7.59474e-09
-1.19174e-09
-8.16869e-09
6.74724e-09
-1.33098e-09
-5.84818e-09
2.70536e-09
-2.49426e-10
-3.36142e-09
-2.03618e-09
1.08716e-09
-2.63654e-09
-4.62283e-09
2.19744e-09
-3.38822e-09
-3.55719e-09
1.93358e-09
-3.79908e-09
-1.09984e-09
1.29757e-09
-3.09994e-09
6.32287e-10
1.54452e-09
-6.20762e-10
1.23202e-09
2.33752e-09
-1.47451e-09
2.55322e-09
3.04018e-09
6.85415e-09
3.04019e-09
6.88372e-09
6.8674e-10
4.05145e-09
9.24805e-09
-1.58675e-09
4.63397e-09
1.01991e-08
-4.37864e-09
4.87824e-09
9.88444e-09
-6.53943e-09
4.68161e-09
8.88825e-09
-7.56492e-09
3.97364e-09
7.94053e-09
-7.90143e-09
3.17538e-09
7.13416e-09
-7.75759e-09
2.52099e-09
5.90586e-09
-6.86635e-09
2.11861e-09
3.59973e-09
-4.63903e-09
1.73733e-09
3.10939e-10
-1.15351e-09
1.1757e-09
-3.04018e-09
2.74144e-09
3.6309e-10
-5.24052e-09
5.36625e-09
1.15887e-10
-5.56113e-09
5.37644e-09
3.05586e-10
-4.20397e-09
3.21643e-09
1.1259e-09
-2.81036e-09
6.23951e-10
2.24214e-09
-2.9359e-09
-5.90376e-10
3.26768e-09
-5.01256e-09
1.22553e-09
3.27044e-09
-7.93727e-09
4.57351e-09
2.10502e-09
-9.85427e-09
7.40692e-09
6.24483e-10
-9.55059e-09
7.06156e-09
2.52435e-10
-6.79566e-09
3.00206e-09
9.3994e-10
-3.87099e-09
-2.52167e-09
2.1966e-09
-3.00206e-09
-6.22568e-09
3.20401e-09
-4.29601e-09
-6.14007e-09
2.738e-09
-5.42665e-09
-3.75072e-09
1.33257e-09
-4.94702e-09
-2.58466e-09
1.08785e-09
-3.07009e-09
-2.79395e-09
1.63403e-09
-8.39564e-10
-2.70179e-09
1.692e-09
-3.93011e-09
1.5103e-09
4.65494e-09
-2.38859e-09
4.65494e-09
7.24638e-09
-6.9441e-09
5.14642e-09
8.67155e-09
-7.96985e-09
5.0535e-09
8.60532e-09
-8.83318e-09
4.61647e-09
7.54588e-09
-9.21638e-09
3.84099e-09
6.36197e-09
-9.2561e-09
3.00179e-09
5.53451e-09
-9.33302e-09
2.42086e-09
4.84941e-09
-9.12755e-09
2.2576e-09
3.65525e-09
-7.72465e-09
2.2877e-09
1.59232e-09
-4.55377e-09
2.22228e-09
-8.38427e-10
-4.42733e-10
1.9407e-09
-2.48372e-09
2.84792e-09
1.70441e-09
-2.57587e-09
3.57955e-09
1.97406e-09
-1.38222e-09
1.39221e-09
2.82471e-09
-3.47803e-10
-1.7711e-09
3.95659e-09
-1.10933e-09
-3.40688e-09
4.80162e-09
-3.90081e-09
-2.07456e-09
4.31277e-09
-7.45171e-09
1.85874e-09
2.9765e-09
-9.93169e-09
5.58577e-09
1.51635e-09
-9.80358e-09
5.95076e-09
1.32848e-09
-7.27012e-09
2.03817e-09
2.42302e-09
-4.56463e-09
-3.6768e-09
3.85325e-09
-4.11585e-09
-8.20495e-09
5.10255e-09
-6.19903e-09
-8.74766e-09
4.50683e-09
-8.17497e-09
-7.09569e-09
2.89141e-09
-8.2578e-09
-5.9025e-09
2.23939e-09
-6.89657e-09
-6.13923e-09
2.18686e-09
-4.71988e-09
-7.07742e-09
2.01728e-09
-1.46944e-09
-8.46223e-09
2.33329e-09
-1.01559e-08
4.63891e-09
5.00343e-09
-1.23335e-08
5.00343e-09
6.53264e-09
-1.32779e-08
4.92245e-09
7.37309e-09
-1.33093e-08
4.61076e-09
7.10485e-09
-1.25354e-08
4.08239e-09
6.2074e-09
-1.16691e-08
3.467e-09
5.36256e-09
-1.1299e-08
3.01802e-09
4.65985e-09
-1.13831e-08
2.90321e-09
3.65969e-09
-1.09684e-08
3.0093e-09
1.9626e-09
-8.77814e-09
2.92091e-09
-3.67326e-11
-4.90905e-09
2.50022e-09
-1.30456e-09
-9.7908e-10
1.89692e-09
-1.19525e-09
1.03104e-09
1.73191e-09
9.97622e-11
1.62686e-11
2.23207e-09
1.2347e-09
-2.78743e-09
2.97897e-09
5.48675e-10
-4.62504e-09
3.48503e-09
-2.17933e-09
-3.49197e-09
2.79698e-09
-5.66506e-09
-5.88462e-12
1.43828e-09
-7.87901e-09
3.56427e-09
5.35485e-10
-7.55228e-09
4.3612e-09
8.89009e-10
-5.02581e-09
1.02758e-09
2.32974e-09
-2.81833e-09
-4.54557e-09
4.26781e-09
-3.11731e-09
-9.28241e-09
5.804e-09
-6.29505e-09
-1.0557e-08
5.48988e-09
-9.78505e-09
-8.98884e-09
3.77175e-09
-1.07805e-08
-9.12591e-09
3.11674e-09
-9.53861e-09
-1.10656e-08
3.99298e-09
-8.18116e-09
-1.16389e-08
4.1169e-09
-4.86665e-09
-1.389e-08
3.35411e-09
8.95542e-11
-1.90741e-08
5.49502e-09
-1.7065e-08
6.98143e-09
4.67216e-09
-2.16052e-08
4.67216e-09
5.90591e-09
-1.89267e-08
4.50804e-09
6.70389e-09
-1.81004e-08
4.06586e-09
6.79884e-09
-1.60767e-08
3.50554e-09
6.46515e-09
-1.43638e-08
3.08164e-09
5.95098e-09
-1.35291e-08
2.80146e-09
4.93726e-09
-1.29895e-08
2.68646e-09
3.08344e-09
-1.14786e-08
2.43389e-09
8.18939e-10
-8.28045e-09
1.8233e-09
-1.00909e-09
-4.17267e-09
1.11296e-09
-1.25592e-09
-1.71795e-09
9.57734e-10
3.97764e-11
-1.78041e-09
1.44416e-09
1.69385e-09
-3.92268e-09
2.19791e-09
1.88357e-09
-5.88392e-09
2.84415e-09
-6.11555e-11
-5.4186e-09
2.72988e-09
-2.87775e-09
-2.61445e-09
1.985e-09
-4.70717e-09
4.05254e-10
1.4846e-09
-4.20166e-09
1.24853e-09
1.84674e-09
-1.93513e-09
-1.07172e-09
3.13966e-09
-3.27387e-10
-5.4584e-09
4.79858e-09
-1.38102e-09
-9.34294e-09
5.77257e-09
-5.09787e-09
-1.07069e-08
5.12902e-09
-9.36764e-09
-9.75774e-09
3.55797e-09
-1.1647e-08
-8.93313e-09
2.38641e-09
-1.09272e-08
-1.22414e-08
2.56153e-09
-9.05321e-09
-1.65456e-08
3.69582e-09
-7.25233e-09
-1.76028e-08
4.13541e-09
-3.58949e-09
-2.21537e-08
4.50366e-09
-1.5178e-10
-2.77554e-08
5.20687e-09
-1.83289e-08
1.17867e-09
3.97115e-09
-2.95012e-08
3.97115e-09
5.39194e-09
-2.38919e-08
3.56324e-09
6.57296e-09
-2.22509e-08
2.96974e-09
7.41555e-09
-1.93486e-08
2.42236e-09
7.89294e-09
-1.69437e-08
2.1e-09
7.6357e-09
-1.53095e-08
2.0475e-09
6.27385e-09
-1.36095e-08
2.00284e-09
3.8823e-09
-1.0856e-08
1.78897e-09
1.56929e-09
-7.42299e-09
1.45639e-09
6.2537e-10
-4.79347e-09
1.53301e-09
1.25909e-09
-4.55604e-09