/*--------------------------------*- C++ -*----------------------------------*\
| =========                 |                                                 |
| \\      /  F ield         | OpenFOAM: The Open Source CFD Toolbox           |
|  \\    /   O peration     | Version:  2312                                  |
|   \\  /    A nd           | Website:  www.openfoam.com                      |
|    \\/     M anipulation  |                                                 |
\*---------------------------------------------------------------------------*/
FoamFile
{
    version     2.0;
    format      ascii;
    arch        "LSB;label=32;scalar=64";
    class       volVectorField;
    location    "1.338907018";
    object      U;
}
// * * * * * * * * * * * * * * * * * * * * * * * * * * * * * * * * * * * * * //

dimensions      [0 1 -1 0 0 0 0];

internalField   nonuniform List<vector> 
90000
(
(-2.88256e-05 3.71955e-05 -2.88256e-05)
(-1.3467e-05 -1.13977e-05 -1.88065e-05)
(2.57304e-05 5.80908e-07 -1.60959e-05)
(2.91754e-05 1.28888e-06 -1.39903e-05)
(4.02747e-05 -5.10985e-07 -1.05974e-05)
(4.73985e-05 -3.22252e-06 -6.99231e-06)
(5.39847e-05 -5.74796e-06 -3.07164e-06)
(5.91979e-05 -7.07197e-06 5.42018e-07)
(6.0788e-05 -6.48323e-06 3.23087e-06)
(5.69013e-05 -3.72747e-06 4.53665e-06)
(4.72464e-05 6.00526e-07 4.32094e-06)
(3.26693e-05 5.27165e-06 3.15403e-06)
(1.51505e-05 9.10876e-06 1.04249e-06)
(-1.57021e-06 1.06369e-05 -1.90702e-06)
(-1.37619e-05 9.30153e-06 -4.88202e-06)
(-1.86832e-05 5.94459e-06 -6.61798e-06)
(-1.52153e-05 1.05733e-06 -6.634e-06)
(-6.12567e-06 -3.80743e-06 -4.78755e-06)
(3.15411e-06 -6.44107e-06 -1.07906e-06)
(6.9098e-06 -5.26121e-06 3.02209e-06)
(1.29204e-06 -5.28286e-07 5.69256e-06)
(-1.66853e-05 6.0368e-06 5.94017e-06)
(-4.57668e-05 1.26008e-05 3.48142e-06)
(-7.75985e-05 1.57375e-05 -1.98198e-06)
(-0.000101884 1.22887e-05 -9.26328e-06)
(-0.000106913 2.08707e-06 -1.66942e-05)
(-7.94805e-05 -1.40184e-05 -2.66065e-05)
(-3.52985e-05 -2.1673e-05 -5.42107e-05)
(0.000121964 -1.24681e-05 -0.000117961)
(0.000131015 0.000248249 -0.000267895)
(3.29968e-06 6.1087e-05 3.29968e-06)
(5.77181e-06 -2.48313e-05 3.26708e-06)
(4.84443e-06 -4.59143e-06 2.5734e-06)
(4.97858e-06 -3.2814e-06 1.567e-06)
(6.20299e-06 -7.23462e-06 1.04683e-06)
(9.26695e-06 -1.24901e-05 4.13087e-07)
(1.40531e-05 -1.72774e-05 -2.36449e-07)
(2.0086e-05 -1.95752e-05 -8.67222e-07)
(2.65681e-05 -1.80535e-05 -1.32327e-06)
(3.24964e-05 -1.23749e-05 -1.11823e-06)
(3.67559e-05 -3.7545e-06 -8.321e-08)
(3.88746e-05 4.97465e-06 1.5654e-06)
(3.85889e-05 1.09047e-05 3.94017e-06)
(3.57626e-05 1.22169e-05 7.11465e-06)
(3.04248e-05 8.13902e-06 1.02503e-05)
(2.21212e-05 1.03323e-07 1.26494e-05)
(1.13893e-05 -9.03526e-06 1.39415e-05)
(-1.72945e-07 -1.63941e-05 1.36033e-05)
(-1.13846e-05 -1.84977e-05 1.14236e-05)
(-2.16619e-05 -1.33488e-05 8.27008e-06)
(-3.06071e-05 -2.14692e-06 5.25339e-06)
(-3.84002e-05 1.1656e-05 3.08422e-06)
(-4.52221e-05 2.34227e-05 1.95541e-06)
(-4.91972e-05 2.55557e-05 2.57962e-06)
(-4.94847e-05 1.45835e-05 5.57005e-06)
(-4.84663e-05 -9.39813e-06 1.37015e-05)
(-4.29815e-05 -4.77977e-05 2.63756e-05)
(-7.26628e-05 -0.000106535 5.84764e-05)
(5.90812e-05 -0.000160461 7.35643e-05)
(0.000117719 0.000506792 4.78001e-05)
(1.28564e-05 3.49363e-05 1.28564e-05)
(7.97325e-06 -2.01908e-05 7.65874e-06)
(-1.18475e-05 -4.83571e-06 6.40057e-06)
(-1.75961e-05 -4.44952e-06 4.32377e-06)
(-2.33744e-05 -9.31238e-06 2.20625e-06)
(-2.63733e-05 -1.57346e-05 -3.32883e-07)
(-2.53534e-05 -2.20395e-05 -2.79959e-06)
(-1.9456e-05 -2.59846e-05 -4.92883e-06)
(-8.75625e-06 -2.65527e-05 -6.23034e-06)
(6.26275e-06 -2.30942e-05 -6.3096e-06)
(2.38145e-05 -1.6924e-05 -4.88117e-06)
(4.09165e-05 -1.03806e-05 -1.75933e-06)
(5.45982e-05 -5.59651e-06 2.80753e-06)
(6.12963e-05 -4.04545e-06 6.94922e-06)
(5.79369e-05 -5.69057e-06 1.06635e-05)
(4.44462e-05 -9.47278e-06 1.31028e-05)
(2.28512e-05 -1.3326e-05 1.29525e-05)
(-2.98792e-06 -1.56624e-05 1.03e-05)
(-2.66788e-05 -1.44631e-05 5.91702e-06)
(-4.23109e-05 -8.96589e-06 7.78594e-07)
(-4.69886e-05 -8.17881e-08 -3.48271e-06)
(-4.02271e-05 9.62454e-06 -5.06841e-06)
(-2.37319e-05 1.58204e-05 -4.26062e-06)
(-2.49293e-06 1.1833e-05 -1.63382e-06)
(1.78595e-05 -2.75184e-06 1.23062e-06)
(3.26962e-05 -2.36079e-05 2.7488e-06)
(3.92524e-05 -4.66288e-05 9.50038e-06)
(-2.70039e-05 -0.00014618 3.7858e-05)
(-6.66195e-05 -0.00036382 9.23704e-05)
(-1.74556e-05 0.000412158 0.000146461)
(1.43225e-05 5.2775e-06 1.43225e-05)
(6.37262e-06 -5.51891e-06 8.89142e-06)
(-1.96466e-05 4.21668e-06 7.43293e-06)
(-2.88282e-05 3.63816e-06 5.2931e-06)
(-3.81381e-05 -1.53821e-06 2.61789e-06)
(-4.47139e-05 -9.35119e-06 -3.94375e-07)
(-4.69862e-05 -1.81664e-05 -3.17379e-06)
(-4.34713e-05 -2.58367e-05 -5.72306e-06)
(-3.37097e-05 -3.13736e-05 -7.50401e-06)
(-1.80518e-05 -3.35081e-05 -8.2493e-06)
(1.96759e-06 -3.26143e-05 -7.79181e-06)
(2.32332e-05 -2.93067e-05 -6.00973e-06)
(4.12289e-05 -2.36369e-05 -3.20886e-06)
(5.17555e-05 -1.65743e-05 -4.70067e-08)
(5.20388e-05 -8.74417e-06 2.04356e-06)
(4.12055e-05 -7.77758e-07 2.1151e-06)
(2.13725e-05 5.30071e-06 5.1503e-07)
(-2.49773e-06 8.73697e-06 -2.17241e-06)
(-2.35466e-05 9.3488e-06 -5.1389e-06)
(-3.52561e-05 7.91332e-06 -7.5808e-06)
(-3.37546e-05 5.60177e-06 -9.06152e-06)
(-1.79493e-05 3.34783e-06 -9.03308e-06)
(8.531e-06 7.13541e-08 -7.2193e-06)
(3.73489e-05 -7.34165e-06 -3.63262e-06)
(6.03357e-05 -1.95679e-05 1.41055e-06)
(7.64644e-05 -3.27526e-05 2.09153e-06)
(9.86158e-05 -2.94227e-05 -1.37389e-05)
(0.000103568 -4.24595e-05 -1.74982e-05)
(-5.31967e-05 -0.000321219 -9.30422e-07)
(-0.000101906 0.000206378 6.69988e-05)
(1.31103e-05 -2.39557e-05 1.31103e-05)
(5.60563e-06 9.11414e-06 8.46991e-06)
(-1.80559e-05 1.1754e-05 7.59046e-06)
(-2.6383e-05 1.04121e-05 6.10257e-06)
(-3.5492e-05 5.916e-06 4.43007e-06)
(-4.27813e-05 -2.15595e-06 2.31729e-06)
(-4.73031e-05 -1.2682e-05 2.56582e-07)
(-4.82336e-05 -2.37325e-05 -1.14077e-06)
(-4.48596e-05 -3.3355e-05 -3.14907e-06)
(-3.65663e-05 -4.06401e-05 -4.53535e-06)
(-2.42676e-05 -4.41693e-05 -5.58653e-06)
(-9.80445e-06 -4.27402e-05 -6.10207e-06)
(4.12899e-06 -3.56749e-05 -6.53538e-06)
(1.47649e-05 -2.25021e-05 -6.82219e-06)
(2.04717e-05 -4.96812e-06 -7.55435e-06)
(1.99222e-05 1.3396e-05 -8.28187e-06)
(1.33313e-05 2.78889e-05 -8.63514e-06)
(3.52383e-06 3.51668e-05 -8.84548e-06)
(-4.83054e-06 3.31042e-05 -9.15757e-06)
(-7.14825e-06 2.33185e-05 -9.21393e-06)
(-3.08057e-07 9.73224e-06 -8.87645e-06)
(1.58073e-05 -3.43757e-06 -8.00176e-06)
(3.76244e-05 -1.38816e-05 -6.59465e-06)
(5.96456e-05 -2.15097e-05 -4.48454e-06)
(7.47076e-05 -2.72259e-05 -6.24924e-07)
(7.64954e-05 -3.68638e-05 5.83808e-06)
(7.116e-05 -3.67069e-05 3.43366e-06)
(9.18756e-05 3.56342e-05 -8.15489e-06)
(-1.49461e-05 -0.000136021 -1.74334e-05)
(-7.42857e-05 9.90888e-05 8.60075e-06)
(7.44372e-06 -4.82651e-05 7.44372e-06)
(3.93702e-06 1.69416e-05 5.19258e-06)
(-7.58048e-06 1.38509e-05 5.47957e-06)
(-1.05259e-05 1.14044e-05 5.46294e-06)
(-1.48732e-05 7.73118e-06 5.68546e-06)
(-1.96711e-05 2.72256e-07 5.68408e-06)
(-2.50317e-05 -1.03821e-05 5.5123e-06)
(-3.08299e-05 -2.25457e-05 5.37419e-06)
(-3.68279e-05 -3.37622e-05 4.94652e-06)
(-4.1951e-05 -4.32295e-05 3.49022e-06)
(-4.47442e-05 -4.87955e-05 9.52871e-07)
(-4.43329e-05 -4.85842e-05 -1.99073e-06)
(-4.00476e-05 -4.11325e-05 -5.15462e-06)
(-3.1671e-05 -2.56716e-05 -8.18648e-06)
(-2.00475e-05 -3.89233e-06 -1.04112e-05)
(-7.11531e-06 1.91338e-05 -1.16115e-05)
(5.06763e-06 3.76675e-05 -1.10724e-05)
(1.49387e-05 4.6248e-05 -9.31251e-06)
(2.26087e-05 4.2115e-05 -6.92949e-06)
(2.93161e-05 2.78336e-05 -4.5615e-06)
(3.61971e-05 9.05069e-06 -2.90461e-06)
(4.42953e-05 -8.51212e-06 -1.95464e-06)
(5.32543e-05 -2.0597e-05 -1.71737e-06)
(6.10791e-05 -2.51589e-05 -2.22722e-06)
(6.51953e-05 -2.17166e-05 -3.70091e-06)
(6.0743e-05 -1.61394e-05 -4.12764e-06)
(2.27898e-05 -1.61808e-05 -2.56507e-06)
(2.84312e-05 5.40925e-05 -1.48824e-05)
(-1.29787e-05 -1.13347e-05 -2.88081e-05)
(-4.77154e-05 7.99171e-05 -1.86279e-05)
(-2.87954e-06 -5.80799e-05 -2.87954e-06)
(-6.16459e-07 1.46947e-05 -1.82688e-06)
(7.35911e-06 7.73773e-06 -2.78833e-07)
(1.33413e-05 4.51856e-06 8.86375e-07)
(1.81305e-05 1.47871e-06 3.12991e-06)
(1.9147e-05 -4.27059e-06 5.62002e-06)
(1.4716e-05 -1.24681e-05 7.96137e-06)
(4.40184e-06 -2.19334e-05 9.75763e-06)
(-1.11537e-05 -3.12018e-05 1.05733e-05)
(-3.02127e-05 -3.91596e-05 9.98434e-06)
(-4.96721e-05 -4.42529e-05 7.98111e-06)
(-6.50626e-05 -4.54552e-05 3.88811e-06)
(-7.1781e-05 -4.0868e-05 -1.13089e-06)
(-6.75133e-05 -2.94095e-05 -5.4677e-06)
(-5.29655e-05 -1.19166e-05 -8.15985e-06)
(-3.0444e-05 7.84208e-06 -8.50336e-06)
(-3.86808e-06 2.44975e-05 -6.92862e-06)
(2.12584e-05 3.28645e-05 -3.62403e-06)
(4.10292e-05 3.00456e-05 5.622e-07)
(5.36642e-05 1.79464e-05 4.14248e-06)
(5.91611e-05 1.29995e-06 6.44248e-06)
(5.87892e-05 -1.41623e-05 7.27031e-06)
(5.41492e-05 -2.26491e-05 7.02121e-06)
(4.54908e-05 -2.16795e-05 5.96234e-06)
(3.29919e-05 -1.02664e-05 2.71627e-06)
(2.05962e-05 1.38038e-05 -3.24619e-06)
(-1.11139e-05 2.9777e-05 -8.38154e-06)
(-2.28217e-05 8.57187e-05 -1.7162e-05)
(-3.00875e-05 6.29409e-05 -2.49987e-05)
(-2.68729e-05 6.90063e-05 -1.54586e-05)
(-1.5688e-05 -4.41067e-05 -1.5688e-05)
(-8.43623e-06 3.13296e-06 -1.18084e-05)
(2.07797e-05 -5.07624e-06 -9.98327e-06)
(3.64838e-05 -7.93429e-06 -7.68242e-06)
(5.13173e-05 -9.64032e-06 -3.9916e-06)
(5.93542e-05 -1.15936e-05 1.55737e-07)
(5.78706e-05 -1.38935e-05 4.3605e-06)
(4.5619e-05 -1.6906e-05 7.87251e-06)
(2.36971e-05 -1.99885e-05 1.00113e-05)
(-4.8551e-06 -2.34085e-05 1.02538e-05)
(-3.54504e-05 -2.72127e-05 8.74149e-06)
(-6.17465e-05 -3.12037e-05 5.94662e-06)
(-7.78612e-05 -3.39068e-05 2.82353e-06)
(-8.0323e-05 -3.27706e-05 -4.76738e-07)
(-6.84621e-05 -2.68835e-05 -2.56903e-06)
(-4.50641e-05 -1.70097e-05 -2.49503e-06)
(-1.48041e-05 -6.5037e-06 -3.42126e-07)
(1.611e-05 3.57865e-07 3.07125e-06)
(4.14997e-05 7.92581e-07 6.92031e-06)
(5.73561e-05 -5.6148e-06 1.00885e-05)
(6.24974e-05 -1.58587e-05 1.26877e-05)
(5.82956e-05 -2.49404e-05 1.41711e-05)
(4.65038e-05 -2.68345e-05 1.42777e-05)
(2.82318e-05 -1.84436e-05 1.2929e-05)
(4.27346e-06 1.71198e-07 1.00211e-05)
(-1.81659e-05 3.1453e-05 3.64804e-06)
(-3.88013e-05 5.99283e-05 -1.72994e-06)
(-4.21243e-05 9.27395e-05 -7.16201e-06)
(-2.48807e-05 7.8244e-05 -7.07472e-06)
(-8.12698e-06 4.4688e-05 4.79217e-06)
(-2.5061e-05 -4.37872e-06 -2.5061e-05)
(-1.27687e-05 -1.58886e-05 -2.00233e-05)
(3.22521e-05 -2.0244e-05 -1.82015e-05)
(5.37719e-05 -2.15863e-05 -1.48494e-05)
(7.48642e-05 -2.0319e-05 -1.05594e-05)
(8.67535e-05 -1.64793e-05 -5.74446e-06)
(8.75896e-05 -1.04216e-05 -1.11941e-06)
(7.63443e-05 -3.67371e-06 2.24624e-06)
(5.42104e-05 1.80345e-06 4.94613e-06)
(2.4688e-05 4.00985e-06 6.47891e-06)
(-7.24394e-06 9.54856e-07 6.87977e-06)
(-3.57699e-05 -7.8272e-06 6.31066e-06)
(-5.5986e-05 -2.07378e-05 5.70813e-06)
(-6.52146e-05 -3.295e-05 5.21073e-06)
(-6.26855e-05 -4.13666e-05 4.94034e-06)
(-4.95029e-05 -4.39335e-05 4.90012e-06)
(-2.87818e-05 -4.13759e-05 5.98428e-06)
(-4.88779e-06 -3.73058e-05 7.51202e-06)
(1.73977e-05 -3.5002e-05 9.10434e-06)
(3.40996e-05 -3.60486e-05 1.04575e-05)
(4.26211e-05 -3.87693e-05 1.14831e-05)
(4.14087e-05 -3.94001e-05 1.24134e-05)
(3.05573e-05 -3.36837e-05 1.25629e-05)
(1.22313e-05 -1.80976e-05 1.13066e-05)
(-1.02442e-05 6.96223e-06 8.85786e-06)
(-2.90329e-05 3.63939e-05 5.45653e-06)
(-3.67622e-05 6.02509e-05 4.57531e-06)
(-2.61527e-05 6.56662e-05 7.18912e-06)
(-1.0673e-06 4.23721e-05 1.39968e-05)
(6.72174e-06 9.95902e-06 1.68004e-05)
(-2.65277e-05 4.8116e-05 -2.65277e-05)
(-1.05057e-05 -4.06069e-05 -2.01566e-05)
(3.89698e-05 -3.73939e-05 -1.74777e-05)
(6.01859e-05 -3.67073e-05 -1.35958e-05)
(8.05557e-05 -3.09015e-05 -9.31518e-06)
(9.06564e-05 -1.99097e-05 -5.27472e-06)
(9.07817e-05 -4.8855e-06 -1.82913e-06)
(8.17027e-05 1.15591e-05 9.63671e-07)
(6.53663e-05 2.48627e-05 2.46856e-06)
(4.46811e-05 3.13904e-05 4.12946e-06)
(2.2276e-05 2.77685e-05 6.18126e-06)
(3.68864e-07 1.36636e-05 8.41738e-06)
(-1.89004e-05 -7.79363e-06 1.04966e-05)
(-3.42841e-05 -3.08401e-05 1.22206e-05)
(-4.50282e-05 -5.02664e-05 1.307e-05)
(-4.98866e-05 -6.28205e-05 1.28337e-05)
(-4.77774e-05 -6.79667e-05 1.10751e-05)
(-3.83132e-05 -6.7977e-05 8.47749e-06)
(-2.3516e-05 -6.58779e-05 6.01636e-06)
(-7.50978e-06 -6.29214e-05 4.29505e-06)
(5.20725e-06 -5.87517e-05 3.26769e-06)
(1.07961e-05 -5.08989e-05 2.49904e-06)
(7.38265e-06 -3.6752e-05 1.16249e-06)
(-1.92897e-06 -1.46744e-05 -5.07312e-07)
(-1.19769e-05 1.28558e-05 -2.08764e-06)
(-1.60653e-05 3.32658e-05 -1.55891e-06)
(-7.71714e-06 3.90622e-05 3.04914e-06)
(9.27136e-06 2.35467e-05 8.57694e-06)
(1.67331e-05 1.55004e-06 1.20442e-05)
(7.96079e-06 -5.03357e-06 5.9654e-06)
(-1.20471e-05 8.22932e-05 -1.20471e-05)
(4.97447e-06 -7.19894e-05 -4.26992e-06)
(3.80737e-05 -5.99288e-05 -1.44229e-06)
(4.92157e-05 -5.57561e-05 1.32498e-06)
(5.74633e-05 -4.49038e-05 4.01323e-06)
(5.87972e-05 -2.71135e-05 5.24954e-06)
(5.57231e-05 -4.77621e-06 5.05984e-06)
(5.08525e-05 1.7005e-05 3.97941e-06)
(4.61191e-05 3.42228e-05 3.67081e-06)
(4.19034e-05 4.25617e-05 4.61654e-06)
(3.68148e-05 3.83105e-05 6.78461e-06)
(2.85515e-05 2.22733e-05 1.01733e-05)
(1.48388e-05 -1.43329e-06 1.3526e-05)
(-4.85488e-06 -2.72969e-05 1.52556e-05)
(-2.8276e-05 -4.93809e-05 1.52437e-05)
(-5.03358e-05 -6.55338e-05 1.26801e-05)
(-6.55592e-05 -7.54335e-05 8.16281e-06)
(-7.03188e-05 -8.04347e-05 2.85939e-06)
(-6.44079e-05 -8.15239e-05 -2.03649e-06)
(-5.12086e-05 -7.83664e-05 -5.44758e-06)
(-3.57635e-05 -7.02292e-05 -7.63467e-06)
(-2.31158e-05 -5.54997e-05 -9.14845e-06)
(-1.57328e-05 -3.33693e-05 -1.06796e-05)
(-1.06765e-05 -7.20253e-06 -1.11274e-05)
(-3.90421e-06 1.5469e-05 -9.74177e-06)
(8.17253e-06 2.42533e-05 -6.06123e-06)
(2.35584e-05 1.73452e-05 -1.04482e-06)
(3.01095e-05 3.32432e-06 1.77243e-06)
(1.77978e-05 2.02053e-06 -1.36216e-06)
(3.4451e-06 7.74127e-06 -6.58397e-06)
(1.62475e-05 6.80375e-05 1.62475e-05)
(2.72197e-05 -0.00010549 2.07395e-05)
(2.14468e-05 -8.71421e-05 2.39517e-05)
(1.3795e-05 -7.71254e-05 2.29745e-05)
(9.71066e-07 -6.17224e-05 2.05745e-05)
(-9.74279e-06 -3.97176e-05 1.5842e-05)
(-1.58064e-05 -1.44937e-05 9.73495e-06)
(-1.37189e-05 9.00129e-06 4.56081e-06)
(-2.67001e-06 2.59796e-05 8.62851e-07)
(1.35671e-05 3.39914e-05 -5.46687e-08)
(2.90234e-05 3.15341e-05 1.5377e-06)
(3.64311e-05 2.0766e-05 4.32641e-06)
(3.0744e-05 4.70501e-06 6.52453e-06)
(1.22284e-05 -1.2696e-05 7.01443e-06)
(-1.56165e-05 -2.89962e-05 4.56299e-06)
(-4.59449e-05 -4.3146e-05 2.38104e-07)
(-7.04777e-05 -5.57873e-05 -4.93091e-06)
(-8.3709e-05 -6.68975e-05 -9.61894e-06)
(-8.40236e-05 -7.5155e-05 -1.28801e-05)
(-7.40921e-05 -7.71817e-05 -1.4508e-05)
(-5.88009e-05 -7.03124e-05 -1.51015e-05)
(-4.21933e-05 -5.42644e-05 -1.49767e-05)
(-2.55604e-05 -3.09804e-05 -1.37657e-05)
(-8.57201e-06 -7.96186e-06 -1.15663e-05)
(1.1381e-05 6.93986e-06 -7.1323e-06)
(3.13546e-05 9.33145e-06 -2.24869e-06)
(4.1768e-05 5.58785e-06 1.44008e-06)
(3.48396e-05 1.09908e-05 1.18365e-06)
(1.62429e-05 2.83497e-05 -2.48189e-06)
(3.4205e-06 2.04061e-05 8.74773e-07)
(4.58852e-05 -1.20925e-05 4.58852e-05)
(4.10973e-05 -0.000127264 4.26306e-05)
(-1.4899e-05 -0.000107011 3.90006e-05)
(-4.07232e-05 -9.04809e-05 3.17609e-05)
(-7.19402e-05 -6.97097e-05 2.29186e-05)
(-9.19662e-05 -4.54462e-05 1.24557e-05)
(-9.72675e-05 -2.21337e-05 2.26467e-06)
(-8.59003e-05 -2.18022e-06 -6.23414e-06)
(-5.9835e-05 1.13875e-05 -1.10011e-05)
(-2.53869e-05 1.78956e-05 -1.25193e-05)
(7.22608e-06 2.04442e-05 -1.18906e-05)
(2.76065e-05 2.21694e-05 -1.09904e-05)
(3.08746e-05 2.27928e-05 -1.06292e-05)
(1.83625e-05 2.19736e-05 -1.17072e-05)
(-4.69803e-06 1.68566e-05 -1.39451e-05)
(-3.07502e-05 6.47859e-06 -1.62979e-05)
(-5.27267e-05 -9.87457e-06 -1.80335e-05)
(-6.59318e-05 -2.97482e-05 -1.8923e-05)
(-6.93356e-05 -4.83167e-05 -1.87654e-05)
(-6.48387e-05 -5.96072e-05 -1.76094e-05)
(-5.51453e-05 -5.99672e-05 -1.57812e-05)
(-4.12062e-05 -5.02421e-05 -1.35036e-05)
(-2.26173e-05 -3.4854e-05 -1.03701e-05)
(-3.99075e-10 -2.1361e-05 -6.38507e-06)
(2.34996e-05 -1.36098e-05 -1.39158e-06)
(4.07789e-05 -9.92997e-06 3.72167e-06)
(4.34564e-05 -4.45403e-07 6.36142e-06)
(3.26393e-05 2.11758e-05 6.57595e-06)
(2.14465e-05 3.78125e-05 8.44215e-06)
(9.46506e-06 2.01679e-05 1.34015e-05)
(5.45742e-05 -0.000128559 5.45742e-05)
(2.8779e-05 -0.000111087 3.62978e-05)
(-6.35616e-05 -9.15406e-05 2.84398e-05)
(-0.000101395 -7.11695e-05 1.73254e-05)
(-0.000138191 -4.77348e-05 4.93175e-06)
(-0.000157108 -2.59979e-05 -6.56103e-06)
(-0.000154766 -1.08406e-05 -1.51115e-05)
(-0.00013124 -3.38682e-06 -1.92527e-05)
(-9.28171e-05 8.52272e-07 -2.0897e-05)
(-4.95376e-05 5.17991e-06 -2.08831e-05)
(-1.05032e-05 1.53942e-05 -1.9751e-05)
(1.51894e-05 3.21715e-05 -1.90437e-05)
(2.47454e-05 5.14258e-05 -1.94044e-05)
(2.19629e-05 6.69261e-05 -2.03115e-05)
(1.14714e-05 7.22399e-05 -2.08287e-05)
(-1.71987e-06 6.43467e-05 -2.0483e-05)
(-1.40329e-05 4.37176e-05 -1.90512e-05)
(-2.38955e-05 1.51871e-05 -1.65743e-05)
(-3.16868e-05 -1.27605e-05 -1.35551e-05)
(-3.72492e-05 -3.32449e-05 -1.09829e-05)
(-3.90169e-05 -4.29663e-05 -9.26403e-06)
(-3.45674e-05 -4.34093e-05 -7.93923e-06)
(-2.21243e-05 -3.90288e-05 -6.63001e-06)
(-2.99924e-06 -3.45246e-05 -5.02291e-06)
(1.6361e-05 -3.01975e-05 -3.14026e-06)
(2.74669e-05 -1.84752e-05 -1.90781e-06)
(2.79799e-05 4.44661e-06 -2.12226e-06)
(2.46294e-05 2.79117e-05 -5.7474e-08)
(1.93815e-05 3.72352e-05 5.19955e-06)
(8.27737e-06 2.97643e-05 -9.24433e-07)
(3.14999e-05 -0.000201708 3.14999e-05)
(-1.23272e-05 -3.89794e-05 9.53657e-06)
(-0.000102672 -2.76375e-05 -9.70383e-08)
(-0.000138406 -1.10194e-05 -1.08998e-05)
(-0.000165105 5.16649e-06 -1.7912e-05)
(-0.000171038 1.27158e-05 -2.06934e-05)
(-0.000155914 9.30377e-06 -2.1189e-05)
(-0.000124085 -9.18581e-07 -1.99293e-05)
(-8.4987e-05 -8.3287e-06 -1.69065e-05)
(-4.75225e-05 -5.11047e-06 -1.45154e-05)
(-1.66784e-05 1.29343e-05 -1.32762e-05)
(4.37041e-06 4.1422e-05 -1.38848e-05)
(1.74496e-05 7.36704e-05 -1.50612e-05)
(2.64229e-05 9.88283e-05 -1.5484e-05)
(3.2169e-05 0.000108587 -1.40595e-05)
(3.4515e-05 0.000100753 -1.0911e-05)
(3.1776e-05 7.80245e-05 -6.58389e-06)
(2.21688e-05 4.62865e-05 -2.06041e-06)
(6.27109e-06 1.53491e-05 1.32725e-06)
(-1.25715e-05 -8.65736e-06 2.54092e-06)
(-2.89681e-05 -2.4151e-05 1.24605e-06)
(-3.68108e-05 -3.21701e-05 -1.64617e-06)
(-3.36812e-05 -3.53693e-05 -4.7965e-06)
(-2.31248e-05 -3.374e-05 -7.32147e-06)
(-1.15112e-05 -2.40804e-05 -9.75383e-06)
(-3.9065e-06 -1.71939e-06 -1.28039e-05)
(-1.02227e-06 2.7567e-05 -1.51771e-05)
(3.34177e-06 4.78844e-05 -1.45134e-05)
(-2.00473e-06 6.1321e-05 -1.61644e-05)
(-5.77035e-06 6.27111e-05 -2.33529e-05)
(-6.66848e-06 -0.00018502 -6.66848e-06)
(-5.47348e-05 6.62484e-05 -2.19779e-05)
(-0.000108121 5.87768e-05 -2.31118e-05)
(-0.000127811 6.13325e-05 -2.46766e-05)
(-0.000133697 5.79087e-05 -2.28823e-05)
(-0.000121958 4.12671e-05 -1.883e-05)
(-9.84562e-05 1.53755e-05 -1.282e-05)
(-7.18698e-05 -9.89676e-06 -6.87724e-06)
(-4.81193e-05 -2.38232e-05 -2.08762e-06)
(-3.03526e-05 -1.90678e-05 5.02999e-08)
(-1.83255e-05 5.07365e-06 -1.04956e-06)
(-7.53959e-06 4.02907e-05 -3.91898e-06)
(7.22777e-06 7.67575e-05 -6.67225e-06)
(2.67739e-05 0.000102565 -6.67493e-06)
(4.6361e-05 0.000112057 -3.93856e-06)
(5.98623e-05 0.000104988 1.06686e-06)
(6.20602e-05 8.52458e-05 6.73223e-06)
(5.04368e-05 5.86669e-05 1.07119e-05)
(2.69019e-05 3.28513e-05 1.19923e-05)
(-1.79759e-06 1.13568e-05 1.03889e-05)
(-2.62721e-05 -5.74179e-06 7.28691e-06)
(-3.96163e-05 -1.88221e-05 3.70444e-06)
(-4.23977e-05 -2.64485e-05 9.48203e-07)
(-4.02637e-05 -2.31108e-05 -1.27829e-06)
(-3.83849e-05 -5.00648e-06 -4.16143e-06)
(-3.73297e-05 2.37184e-05 -7.53019e-06)
(-3.38428e-05 5.25894e-05 -9.90356e-06)
(-2.82228e-05 7.46325e-05 -1.2128e-05)
(-2.35242e-05 9.61456e-05 -1.69287e-05)
(-1.1657e-05 7.9329e-05 -8.81166e-06)
(-2.92726e-05 -9.57441e-05 -2.92726e-05)
(-6.44969e-05 0.000157287 -2.93775e-05)
(-7.38392e-05 0.000125148 -2.58197e-05)
(-7.13437e-05 0.000107654 -2.19531e-05)
(-5.84311e-05 8.03133e-05 -1.48574e-05)
(-3.93126e-05 4.23873e-05 -6.74968e-06)
(-2.13516e-05 2.19325e-06 7.00627e-07)
(-1.12935e-05 -2.74546e-05 5.93927e-06)
(-1.12916e-05 -3.87821e-05 7.64635e-06)
(-1.77309e-05 -2.76037e-05 4.56399e-06)
(-2.24709e-05 1.28541e-06 -9.58672e-07)
(-1.77377e-05 3.60773e-05 -5.84951e-06)
(-6.01526e-07 6.68978e-05 -7.72866e-06)
(2.56122e-05 8.66589e-05 -6.4109e-06)
(5.14373e-05 9.41444e-05 -1.94192e-06)
(6.74229e-05 9.11813e-05 3.60901e-06)
(6.82197e-05 8.04331e-05 7.49295e-06)
(5.36412e-05 6.50283e-05 9.1123e-06)
(2.95953e-05 4.73434e-05 9.16941e-06)
(4.68412e-06 2.76677e-05 8.60833e-06)
(-1.4062e-05 6.42492e-06 8.4611e-06)
(-2.42088e-05 -1.3948e-05 9.87269e-06)
(-2.93578e-05 -2.66767e-05 1.25711e-05)
(-3.57847e-05 -2.28724e-05 1.42275e-05)
(-4.4778e-05 -1.68115e-06 1.37882e-05)
(-5.02173e-05 2.58483e-05 1.30578e-05)
(-4.7704e-05 4.88048e-05 1.27864e-05)
(-3.96597e-05 6.79242e-05 1.30409e-05)
(-1.71688e-05 7.74575e-05 1.54548e-05)
(-3.83346e-07 3.7964e-05 3.26271e-05)
(-3.11452e-05 5.75937e-06 -3.11452e-05)
(-4.25041e-05 0.000200288 -2.35888e-05)
(-2.04797e-05 0.000152677 -1.90944e-05)
(-6.58159e-06 0.000118435 -1.37715e-05)
(1.21851e-05 7.5799e-05 -7.65836e-06)
(2.73464e-05 3.01117e-05 -2.42336e-06)
(3.31401e-05 -8.71717e-06 5.87712e-07)
(2.62701e-05 -2.84896e-05 9.73101e-07)
(8.60972e-06 -2.91397e-05 -2.36109e-06)
(-9.55963e-06 -1.13059e-05 -6.53217e-06)
(-1.8159e-05 1.34741e-05 -1.01539e-05)
(-1.2547e-05 3.61341e-05 -1.10386e-05)
(6.31035e-06 5.31174e-05 -9.15559e-06)
(3.00629e-05 6.41264e-05 -4.4401e-06)
(4.90048e-05 7.13026e-05 8.45917e-07)
(5.65492e-05 7.57005e-05 4.13761e-06)
(5.20714e-05 7.64739e-05 5.35783e-06)
(3.94441e-05 7.12274e-05 5.00794e-06)
(2.51127e-05 5.75335e-05 4.37438e-06)
(1.42976e-05 3.4338e-05 5.48346e-06)
(7.94467e-06 5.21577e-06 8.72783e-06)
(1.82017e-06 -2.18647e-05 1.30378e-05)
(-9.35528e-06 -3.68763e-05 1.64633e-05)
(-2.57508e-05 -3.27263e-05 1.72332e-05)
(-4.03983e-05 -1.5337e-05 1.66202e-05)
(-4.44195e-05 1.55515e-07 1.73486e-05)
(-3.64636e-05 7.79351e-06 2.07505e-05)
(-2.02589e-05 1.02195e-05 2.60805e-05)
(4.77058e-06 -4.41835e-06 3.54999e-05)
(1.0096e-05 -2.1397e-05 3.12374e-05)
(-2.5491e-05 7.35002e-05 -2.5491e-05)
(-1.67818e-05 0.000202126 -1.7049e-05)
(1.87021e-05 0.000152688 -1.58195e-05)
(3.26926e-05 0.000112948 -1.34394e-05)
(5.05096e-05 6.78526e-05 -1.09042e-05)
(5.95259e-05 2.70595e-05 -8.92353e-06)
(5.77427e-05 6.73742e-07 -7.69341e-06)
(4.59303e-05 -6.80663e-06 -7.61362e-06)
(2.93482e-05 -9.80572e-07 -7.92462e-06)
(1.50395e-05 1.22991e-05 -7.68307e-06)
(9.52321e-06 2.26529e-05 -4.77103e-06)
(1.50264e-05 2.68688e-05 4.86304e-07)
(2.54671e-05 3.09016e-05 6.60483e-06)
(3.21133e-05 3.62926e-05 1.20741e-05)
(3.14833e-05 4.72168e-05 1.36109e-05)
(2.51688e-05 6.04361e-05 1.15534e-05)
(1.74641e-05 6.95791e-05 7.74132e-06)
(1.31838e-05 6.81697e-05 4.99011e-06)
(1.40337e-05 5.32138e-05 4.55393e-06)
(1.68937e-05 2.68878e-05 5.92989e-06)
(1.54318e-05 -3.36227e-06 8.35078e-06)
(2.80895e-06 -2.59441e-05 8.92511e-06)
(-1.96808e-05 -3.18125e-05 5.65467e-06)
(-4.15094e-05 -2.20478e-05 -1.53065e-06)
(-5.08588e-05 -1.28368e-05 -5.58464e-06)
(-4.41481e-05 -1.52572e-05 -4.67611e-06)
(-2.88069e-05 -2.2031e-05 -1.48683e-06)
(-1.06389e-05 -2.94085e-05 2.56686e-07)
(-6.66342e-06 -3.64521e-05 -2.91287e-06)
(-6.23762e-06 -8.16385e-06 -2.25919e-05)
(-1.97432e-05 0.000112722 -1.97432e-05)
(-4.35897e-06 0.00018631 -1.59327e-05)
(3.44799e-05 0.000142464 -1.59538e-05)
(5.12307e-05 0.000104257 -1.41537e-05)
(7.01129e-05 6.21959e-05 -1.14622e-05)
(8.05297e-05 2.9002e-05 -7.24709e-06)
(8.12378e-05 1.06946e-05 -3.65958e-06)
(7.41019e-05 6.47134e-06 1.24131e-07)
(6.43096e-05 8.45225e-06 4.32973e-06)
(5.67699e-05 9.00072e-06 1.02954e-05)
(5.20545e-05 5.58368e-06 1.6864e-05)
(4.59505e-05 -3.08382e-06 2.33164e-05)
(3.29542e-05 -3.92001e-06 2.72287e-05)
(1.24366e-05 5.5958e-06 2.48342e-05)
(-9.57611e-06 2.56123e-05 1.82512e-05)
(-2.48333e-05 4.66607e-05 1.01479e-05)
(-2.67718e-05 5.76175e-05 4.07104e-06)
(-1.7108e-05 5.33616e-05 1.70192e-06)
(-3.31192e-06 3.69609e-05 2.33585e-06)
(3.31823e-06 1.54583e-05 3.88802e-06)
(-6.03637e-06 -1.06501e-06 3.28845e-06)
(-2.97973e-05 -4.23739e-06 -2.52735e-06)
(-5.64273e-05 3.92446e-06 -1.13264e-05)
(-7.00901e-05 1.18067e-05 -1.68358e-05)
(-6.30736e-05 3.42719e-06 -1.77416e-05)
(-4.426e-05 -1.21362e-05 -1.64908e-05)
(-2.90537e-05 -1.59504e-05 -1.66266e-05)
(-2.14988e-05 -4.28509e-06 -2.07185e-05)
(-3.07644e-05 2.56211e-05 -3.39408e-05)
(-2.19196e-05 3.80712e-05 -3.56675e-05)
(-1.53647e-05 0.000137087 -1.53647e-05)
(4.34809e-06 0.000160304 -1.11722e-05)
(4.76492e-05 0.000123252 -8.70611e-06)
(6.96668e-05 8.40951e-05 -3.52366e-06)
(9.09251e-05 4.30688e-05 2.52627e-06)
(0.000102279 1.21685e-05 7.77935e-06)
(0.000104432 -4.43491e-06 1.22943e-05)
(0.000101391 -1.10749e-05 1.64159e-05)
(9.5501e-05 -1.58797e-05 2.10181e-05)
(8.6801e-05 -2.38435e-05 2.59475e-05)
(7.18722e-05 -3.14658e-05 3.04302e-05)
(4.5362e-05 -3.49939e-05 2.92008e-05)
(8.13484e-06 -2.32284e-05 2.28044e-05)
(-2.9252e-05 8.80951e-07 1.28533e-05)
(-5.59703e-05 2.94719e-05 8.06334e-07)
(-6.44289e-05 4.54822e-05 -6.27815e-06)
(-5.33721e-05 4.69377e-05 -7.90289e-06)
(-3.29304e-05 3.7672e-05 -6.45184e-06)
(-1.92921e-05 2.67801e-05 -3.07043e-06)
(-2.30718e-05 2.14466e-05 -3.21904e-06)
(-4.27804e-05 2.61902e-05 -8.08556e-06)
(-6.69372e-05 3.79876e-05 -1.50239e-05)
(-7.90827e-05 4.18997e-05 -1.82497e-05)
(-7.02544e-05 2.71933e-05 -1.55921e-05)
(-4.95244e-05 -3.15166e-06 -9.02938e-06)
(-3.44972e-05 -1.78583e-05 -3.80266e-06)
(-3.13662e-05 -5.50254e-06 -6.1194e-06)
(-3.46206e-05 2.8281e-05 -1.12139e-05)
(-2.98449e-05 6.89109e-05 -1.61562e-05)
(-1.19096e-05 3.31496e-05 -6.02871e-06)
(-3.34045e-06 0.000140373 -3.34045e-06)
(2.46124e-05 0.000115828 4.22377e-06)
(6.79328e-05 8.28691e-05 9.07858e-06)
(9.13553e-05 4.17954e-05 1.46182e-05)
(0.000106802 2.07349e-06 1.8916e-05)
(0.000110658 -2.63233e-05 2.2108e-05)
(0.000107309 -4.06146e-05 2.30744e-05)
(0.000101197 -4.70098e-05 2.30783e-05)
(9.28839e-05 -5.09658e-05 2.29153e-05)
(7.80745e-05 -5.21512e-05 2.1872e-05)
(5.17627e-05 -4.46844e-05 1.87522e-05)
(1.28044e-05 -2.50878e-05 1.13561e-05)
(-3.03182e-05 7.01329e-06 9.5119e-07)
(-6.38478e-05 3.52962e-05 -8.15371e-06)
(-7.60786e-05 5.25951e-05 -1.09798e-05)
(-6.64092e-05 4.85454e-05 -1.06532e-05)
(-4.65495e-05 3.50816e-05 -5.56897e-06)
(-3.22627e-05 2.7571e-05 -7.58582e-07)
(-3.59047e-05 3.11684e-05 -4.20108e-08)
(-5.60131e-05 4.66397e-05 -6.28192e-06)
(-7.86682e-05 6.38553e-05 -1.41114e-05)
(-8.68315e-05 6.84108e-05 -1.75017e-05)
(-7.21587e-05 4.53895e-05 -1.30295e-05)
(-4.49279e-05 2.16812e-06 -2.29125e-06)
(-2.68654e-05 -3.22108e-05 7.59621e-06)
(-2.85006e-05 -3.13748e-05 7.45427e-06)
(-3.6349e-05 -7.33858e-06 3.34077e-06)
(-3.77108e-05 2.15538e-05 3.91065e-06)
(-1.79667e-05 3.87756e-05 8.80295e-06)
(3.3906e-07 6.81681e-07 9.93694e-06)
(1.31344e-05 0.000105575 1.31344e-05)
(4.9039e-05 4.72031e-05 1.99543e-05)
(8.31508e-05 2.00132e-05 2.42795e-05)
(9.87437e-05 -1.52437e-05 2.69859e-05)
(0.000101688 -4.5766e-05 2.70545e-05)
(9.43171e-05 -6.33755e-05 2.36431e-05)
(8.40217e-05 -7.05391e-05 1.92682e-05)
(7.52867e-05 -7.14402e-05 1.53718e-05)
(6.57528e-05 -6.659e-05 1.29157e-05)
(4.8678e-05 -5.12304e-05 1.07239e-05)
(2.04456e-05 -2.16101e-05 7.00746e-06)
(-1.43318e-05 1.56409e-05 1.21654e-06)
(-4.35696e-05 4.86359e-05 -2.0565e-06)
(-5.63615e-05 6.03693e-05 -2.28771e-06)
(-4.99666e-05 5.0852e-05 2.61827e-06)
(-3.41771e-05 2.83986e-05 9.65477e-06)
(-2.60532e-05 1.00976e-05 1.67337e-05)
(-3.729e-05 1.61353e-05 1.75291e-05)
(-6.43531e-05 4.16788e-05 9.76155e-06)
(-9.08624e-05 7.02167e-05 -1.36461e-06)
(-0.000100187 7.98159e-05 -7.23004e-06)
(-8.37728e-05 5.66426e-05 -4.22273e-06)
(-5.14826e-05 5.70029e-06 5.12244e-06)
(-2.98822e-05 -4.2077e-05 1.30388e-05)
(-3.42394e-05 -5.546e-05 1.13583e-05)
(-4.99066e-05 -3.65668e-05 2.10728e-06)
(-5.39774e-05 -1.68797e-05 -1.58513e-06)
(-4.19007e-05 -9.56303e-06 6.53438e-07)
(-1.84259e-05 -6.63702e-06 9.73165e-07)
(-2.21234e-06 -2.34887e-05 -1.31574e-06)
(2.45978e-05 2.68324e-05 2.45978e-05)
(6.11859e-05 -3.14981e-05 2.84411e-05)
(8.16219e-05 -4.83756e-05 2.92316e-05)
(8.81909e-05 -6.75216e-05 2.77728e-05)
(8.17549e-05 -8.04613e-05 2.37393e-05)
(6.92853e-05 -8.51521e-05 1.87209e-05)
(5.86368e-05 -8.5995e-05 1.49731e-05)
(5.16429e-05 -8.35761e-05 1.34967e-05)
(4.30403e-05 -7.18226e-05 1.32945e-05)
(2.67944e-05 -4.46762e-05 1.26176e-05)
(3.56312e-06 -4.40812e-06 1.05429e-05)
(-1.86633e-05 3.27577e-05 8.58245e-06)
(-2.80358e-05 4.94521e-05 9.51134e-06)
(-2.08535e-05 3.75481e-05 1.45552e-05)
(-6.61135e-06 6.67581e-06 2.15594e-05)
(-3.10629e-06 -1.79189e-05 2.77278e-05)
(-2.26354e-05 -2.05076e-05 2.58669e-05)
(-5.68748e-05 1.16213e-05 1.76703e-05)
(-8.92517e-05 5.29507e-05 6.53641e-06)
(-0.000102137 7.19078e-05 3.05166e-06)
(-8.6919e-05 5.21277e-05 8.37694e-06)
(-5.70513e-05 3.10209e-08 1.83493e-05)
(-3.8642e-05 -5.53088e-05 2.67924e-05)
(-4.90041e-05 -7.80275e-05 2.41201e-05)
(-7.31354e-05 -6.54645e-05 1.39703e-05)
(-8.41304e-05 -4.41278e-05 7.9666e-06)
(-7.70295e-05 -4.0101e-05 5.54217e-06)
(-6.29492e-05 -4.56593e-05 2.54753e-06)
(-2.89957e-05 -4.64705e-05 3.85758e-06)
(-1.15615e-06 -6.50829e-05 2.29373e-05)
(2.87731e-05 -7.28325e-05 2.87731e-05)
(6.11472e-05 -0.000102275 2.91348e-05)
(7.10916e-05 -0.000107893 2.8484e-05)
(7.40155e-05 -0.000108348 2.62309e-05)
(6.70763e-05 -0.000105167 2.28573e-05)
(5.7448e-05 -0.000102918 2.01619e-05)
(4.98337e-05 -0.000103772 1.89191e-05)
(4.18427e-05 -0.000101169 1.91539e-05)
(2.84826e-05 -8.39836e-05 1.83039e-05)
(9.41131e-06 -4.83968e-05 1.52372e-05)
(-8.84155e-06 -6.67115e-06 1.05849e-05)
(-1.60952e-05 2.11166e-05 8.6814e-06)
(-7.22235e-06 1.9104e-05 1.12291e-05)
(8.21809e-06 -8.27558e-06 1.5668e-05)
(1.36254e-05 -3.72051e-05 1.95007e-05)
(-4.64534e-06 -4.0548e-05 1.607e-05)
(-3.96045e-05 -1.35311e-05 7.45594e-06)
(-7.00206e-05 2.93703e-05 2.48239e-07)
(-8.06638e-05 5.54519e-05 1.30169e-06)
(-6.45652e-05 4.02115e-05 1.04155e-05)
(-3.68904e-05 -1.11318e-05 2.29521e-05)