/*--------------------------------*- C++ -*----------------------------------*\
| =========                 |                                                 |
| \\      /  F ield         | OpenFOAM: The Open Source CFD Toolbox           |
|  \\    /   O peration     | Version:  2312                                  |
|   \\  /    A nd           | Website:  www.openfoam.com                      |
|    \\/     M anipulation  |                                                 |
\*---------------------------------------------------------------------------*/
FoamFile
{
    version     2.0;
    format      ascii;
    arch        "LSB;label=32;scalar=64";
    class       volScalarField;
    location    "1.2036445";
    object      alpha.water;
}
// * * * * * * * * * * * * * * * * * * * * * * * * * * * * * * * * * * * * * //

dimensions      [0 0 0 0 0 0 0];

internalField   nonuniform List<scalar> 
90000
(
1
1.00006
1.00005
1.00004
1.00004
1.00003
1.00002
1.00001
1.00001
0.999998
0.999992
0.999988
0.999986
0.999987
0.999991
0.999996
1
1.00001
1.00001
1.00001
1.00001
1.00001
1.00001
1.00001
1.00001
1.00001
1.00002
1.00002
1.00002
1.00002
1.00006
1.00008
1.00007
1.00006
1.00005
1.00004
1.00003
1.00001
0.999999
0.999989
0.999981
0.999977
0.999977
0.999982
0.999989
0.999998
1.00001
1.00001
1.00002
1.00002
1.00001
1.00001
1.00001
1.00001
1.00002
1.00003
1.00003
1.00002
0.999969
0.999806
1.00004
1.00006
1.00005
1.00004
1.00003
1.00003
1.00002
1.00001
0.999999
0.999991
0.999984
0.999979
0.999976
0.999976
0.999978
0.999981
0.999985
0.999989
0.999992
0.999994
0.999996
0.999997
1
1
1.00001
1.00002
1.00004
1.00009
1.00017
0.999995
1.00003
1.00003
1.00003
1.00002
1.00002
1.00001
1.00001
1.00001
1
0.999996
0.99999
0.999984
0.999978
0.999973
0.99997
0.999969
0.999969
0.999971
0.999975
0.99998
0.999985
0.999989
0.999994
0.999999
1
1.00001
1
0.999997
1.00008
1.00002
1.00001
1
0.999999
0.999999
1
1
1.00001
1.00001
1.00001
1.00001
1
0.999998
0.999991
0.999984
0.999977
0.999972
0.999969
0.99997
0.999973
0.999979
0.999985
0.999991
0.999996
1
1.00001
1.00002
1.00003
1.00001
1.00003
1.00001
0.999996
0.999972
0.999976
0.99998
0.999986
0.999994
1
1.00001
1.00002
1.00002
1.00002
1.00002
1.00001
1
0.999996
0.999989
0.999984
0.999982
0.999984
0.999988
0.999994
1
1
1.00001
1.00001
1.00001
1.00002
1.00001
1.00001
0.999997
0.99998
0.999952
0.99996
0.999967
0.999976
0.999987
0.999999
1.00001
1.00002
1.00003
1.00003
1.00003
1.00003
1.00002
1.00001
1.00001
1
0.999996
0.999995
0.999998
1
1.00001
1.00001
1.00002
1.00002
1.00002
1.00001
1
0.999995
0.999993
0.999969
0.999947
0.999955
0.999962
0.999971
0.999982
0.999992
1
1.00001
1.00002
1.00002
1.00003
1.00003
1.00002
1.00002
1.00001
1.00001
1
0.999998
0.999999
1
1.00001
1.00001
1.00002
1.00002
1.00001
1
0.999994
0.999992
0.999998
0.999967
0.999958
0.999965
0.99997
0.999976
0.999982
0.999987
0.999992
0.999996
1
1.00001
1.00001
1.00001
1.00001
1.00001
1.00001
1
0.999998
0.999995
0.999995
0.999997
1
1
1
0.999996
0.99999
0.999983
0.999983
0.999989
0.999996
0.999976
0.999986
0.999989
0.999992
0.999992
0.999991
0.999989
0.999988
0.999987
0.999988
0.999991
0.999995
1
1
1
1
1
0.999996
0.999994
0.999992
0.999991
0.999989
0.999985
0.999978
0.99997
0.999964
0.999964
0.999972
0.99998
0.999982
0.999995
1.00002
1.00002
1.00002
1.00002
1.00001
0.999999
0.999991
0.999986
0.999983
0.999984
0.999986
0.99999
0.999993
0.999996
0.999998
0.999998
0.999998
0.999998
0.999995
0.999991
0.999983
0.999973
0.999963
0.999956
0.999956
0.999962
0.999969
0.999971
0.999971
1.00002
1.00005
1.00005
1.00004
1.00003
1.00002
1
0.999994
0.999986
0.999981
0.999979
0.99998
0.999981
0.999984
0.999988
0.999992
0.999997
1
1
1
0.999993
0.999984
0.999973
0.999966
0.999964
0.999969
0.999975
0.999976
0.999972
0.999976
1.00004
1.00005
1.00004
1.00003
1.00002
1.00001
0.999995
0.999986
0.99998
0.999976
0.999974
0.999972
0.999972
0.999974
0.999978
0.999985
0.999993
0.999999
1
1
0.999994
0.999986
0.999979
0.999976
0.999979
0.999983
0.999983
0.999978
0.999973
0.99998
1.00003
1.00002
1.00001
0.999998
0.999988
0.999981
0.999976
0.999974
0.999974
0.999973
0.999972
0.99997
0.99997
0.999971
0.999976
0.999984
0.999992
0.999998
1
0.999998
0.999992
0.999986
0.999983
0.999982
0.999983
0.999979
0.999971
0.999962
0.999959
0.999962
1.00001
0.999967
0.999963
0.999959
0.999958
0.999961
0.999967
0.999974
0.999979
0.999982
0.999982
0.99998
0.99998
0.999981
0.999986
0.999993
0.999999
1
1
0.999997
0.999993
0.99999
0.999989
0.999987
0.999981
0.999971
0.999958
0.999949
0.999946
0.999949
0.999974
0.99993
0.999936
0.999941
0.999951
0.999964
0.999977
0.999988
0.999995
0.999997
0.999995
0.999993
0.999993
0.999995
0.999999
1
1
1
1
0.999998
0.999998
1
1
1
0.999994
0.999983
0.999975
0.999973
0.999972
0.999986
0.999955
0.999927
0.999941
0.999953
0.999967
0.999982
0.999993
0.999999
1
0.999999
0.999997
0.999996
0.999998
1
1
1
1
0.999998
0.999995
0.999997
1
1.00001
1.00002
1.00002
1.00001
1.00001
1.00001
1.00002
1.00003
1.00005
0.999959
0.999949
0.999963
0.999974
0.999984
0.999991
0.999993
0.999992
0.999989
0.999987
0.999988
0.999993
1
1
1.00001
1
0.999996
0.99999
0.99999
0.999995
1
1.00001
1.00002
1.00002
1.00001
1.00002
1.00003
1.00004
1.00005
1.00004
0.999975
0.999973
0.999979
0.999983
0.999985
0.999985
0.999982
0.99998
0.999979
0.999983
0.999992
1
1.00001
1.00002
1.00001
1
0.999993
0.999988
0.99999
0.999995
1
1
0.999998
0.999991
0.999989
0.999994
1
1
0.999999
0.999968
0.999987
0.999983
0.999983
0.999983
0.999984
0.999984
0.999984
0.999987
0.999993
1
1.00002
1.00003
1.00003
1.00002
1.00001
0.999996
0.999988
0.999987
0.999991
0.999995
0.999994
0.999987
0.999977
0.999971
0.999973
0.999979
0.999979
0.999967
0.999946
0.999935
0.99999
0.999989
0.999991
0.999995
0.999999
1
1.00001
1.00001
1.00002
1.00003
1.00003
1.00003
1.00002
1
0.999987
0.999979
0.99998
0.999988
0.999995
0.999995
0.999989
0.999979
0.999974
0.99998
0.999991
0.999997
0.999989
0.999973
0.999961
0.999986
0.999995
1.00001
1.00001
1.00002
1.00002
1.00003
1.00003
1.00003
1.00003
1.00003
1.00002
1.00001
0.999988
0.999974
0.99997
0.999977
0.99999
1
1.00001
1
0.99999
0.999985
0.999991
1.00001
1.00002
1.00001
1
0.999997
1.00001
1.00002
1.00001
1.00003
1.00003
1.00003
1.00003
1.00003
1.00003
1.00003
1.00002
1.00001
1
0.999987
0.999976
0.999975
0.999985
1
1.00002
1.00002
1.00001
1
0.999996
1
1.00001
1.00002
1.00002
1.00001
0.999998
1
1.00001
0.999997
1.00002
1.00003
1.00003
1.00002
1.00002
1.00002
1.00002
1.00002
1.00002
1.00001
1
0.999991
0.999988
0.999995
1.00001
1.00002
1.00002
1.00001
0.999999
0.999994
1
1.00002
1.00003
1.00003
1.00001
1
0.999999
1
0.999993
0.999993
1.00002
1.00001
1.00001
1.00001
1.00001
1.00001
1.00002
1.00002
1.00002
1.00001
1
0.999994
0.999993
0.999999
1
1
0.999989
0.999976
0.999974
0.999987
1.00001
1.00003
1.00003
1.00002
1.00001
1.00001
1.00001
1.00001
1.00001
1.00003
1
0.999994
0.999994
0.999995
0.999999
1.00001
1.00001
1.00002
1.00001
1
0.999992
0.999989
0.999992
0.999997
0.999995
0.999986
0.999974
0.999972
0.999986
1.00001
1.00003
1.00003
1.00002
1
1.00001
1.00001
1.00001
1.00001
1.00003
1.00001
0.999994
0.999984
0.999985
0.999987
0.999991
0.999997
1
1
0.999996
0.999992
0.999993
1
1.00001
1.00002
1.00001
1.00001
1
1.00001
1.00003
1.00004
1.00003
1.00002
1
0.999995
1
1.00001
1
1.00001
1.00001
0.999969
0.999989
0.999979
0.999981
0.999983
0.999986
0.99999
0.999992
0.999991
0.999991
0.999996
1.00001
1.00002
1.00003
1.00003
1.00003
1.00002
1.00003
1.00003
1.00004
1.00003
1.00001
0.999995
0.999997
1
1.00001
1.00001
1.00001
1
0.999974
0.999986
0.999987
0.99998
0.999983
0.999985
0.999986
0.999986
0.999984
0.999983
0.999985
0.999995
1.00001
1.00002
1.00002
1.00002
1.00001
1.00001
1.00002
1.00002
1.00001
0.999994
0.999981
0.999985
1
1.00001
1.00001
1.00001
1.00001
0.999987
0.99999
1.00002
0.99999
0.999988
0.999989
0.999987
0.999983
0.999977
0.999973
0.999973
0.99998
0.999992
1
1.00001
1.00001
1.00001
1.00001
1.00001
1.00001
1.00001
0.999992
0.999986
0.999988
0.999991
1
1
0.999997
1
1
0.999993
1.00003
1.00002
0.999995
0.99999
0.999986
0.999981
0.999977
0.999975
0.999977
0.999984
0.999996
1.00001
1.00001
1.00002
1.00001
1.00001
1.00002
1.00002
1.00002
1.00001
1
1
1.00001
0.999996
0.999987
0.999992
0.999992
0.999987
0.999998
1.00002
1.00003
1.00001
0.999995
0.999985
0.999984
0.999986
0.999991
0.999997
1
1.00001
1.00001
1.00001
1.00001
1
1
1
1.00001
1.00001
1.00001
1.00001
1.00001
1.00001
1.00001
0.999985
0.999975
0.999989
0.999985
0.999972
1
1.00002
1
1.00001
0.999991
0.99999
0.999997
1.00001
1.00001
1.00001
1
0.999994
0.999985
0.999978
0.999976
0.999979
0.999987
0.999996
0.999999
0.999998
0.999995
1.00001
1
0.999983
0.999975
0.999968
0.999968
0.999976
0.99997
0.999968
1
1
0.999999
0.999999
0.999995
1.00001
1.00001
1.00001
1.00001
0.999995
0.99998
0.999969
0.999964
0.999968
0.999979
0.999994
1
1.00001
1
0.999998
0.999985
0.999986
0.999977
0.999948
0.999952
0.999976
0.999971
0.999958
0.99997
0.99999
1.00001
1
0.999998
0.999995
1
1.00001
1.00001
1.00001
0.999998
0.999987
0.999978
0.999975
0.99998
0.999991
1
1.00001
1.00001
0.999999
0.999986
0.999993
0.999982
0.999977
0.999978
0.99997
0.999987
1.00001
0.999989
0.99997
1.00001
1.00002
1.00001
1
0.999989
1.00001
1.00001
1.00002
1.00002
1.00001
1
0.999991
0.999984
0.999984
0.99999
0.999997
1
0.999998
0.99999
0.999986
0.999979
1
1
0.999992
1
1.00002
1.00002
1.00003
0.999998
1
1.00005
1.00003
0.999997
0.99999
1.00001
1.00002
1.00001
1.00002
1.00002
1
0.99999
0.999981
0.999981
0.999984
0.999989
0.99999
0.999985
0.999979
0.999978
1
0.999998
1.00002
1.00001
0.999997
1.00001
1.00003
1.00001
1.00001
1
1.00002
1.00004
0.999998
0.999989
1.00001
1.00003
1.00001
1.00002
1.00001
0.999998
0.999986
0.999985
0.999991
0.999997
0.999997
0.999994
0.999988
0.999987
0.99999
0.999981
1.00002
1.00001
1.00001
1.00001
1.00001
1.00002
1.00003
0.999994
1
1.00002
1.00002
0.999999
0.999984
1
1.00002
1
1
1.00001
0.999991
0.99999
0.999998
1.00001
1.00001
1.00001
1
1
0.999997
0.999996
1.00001
0.999986
1.00001
1.00002
1
0.999996
1.00001
1.00001
1.00001
0.999978
1
1.00002
0.999988
0.999982
1.00001
1.00001
0.99999
0.999997
1.00003
0.999994
0.999994
1
1.00001
1.00001
1.00001
1.00001
1.00001
1.00001
1
0.999983
1.00001
0.999999
0.999992
1.00001
0.999993
0.999977
0.999992
1
0.999989
0.999984
1.00001
1.00001
0.999988
0.999995
1.00002
0.999991
0.99999
1.00004
1.00005
0.999998
0.999999
0.999999
1
1.00001
1
0.999997
0.99999
0.999992
1
0.999983
0.999982
1.00001
0.999973
0.999993
0.999999
1
0.99999
1.00002
0.999996
0.999997
1.00001
1.00001
1.00001
0.999994
1
1.00001
1.00003
1.00004
1.00001
0.999997
0.999995
1.00001
1.00001
0.999999
0.999986
0.999993
0.999998
0.999994
1
1.00002
0.999978
1.00003
1.00001
0.999996
0.999986
1.00002
0.999986
1.00001
0.999996
1
1.00001
1.00001
1.00002
0.999989
0.999984
1.00004
1.00003
0.999978
0.999967
0.999997
1.00002
1.00001
0.999995
0.999989
0.999995
1.00002
1.00001
1.00002
1.00001
1.00001
0.999994
1.00001
0.999996
0.999998
0.999975
1.00001
0.999997
0.999992
0.99999
1.00001
1.00002
0.999982
0.999968
1.00002
1.00001
0.999989
0.999997
1.00002
0.999984
1.00001
1.00001
0.999984
1
1.00002
0.999991
0.999996
1.00001
0.999991
0.999993
0.999963
1.00002
1.00002
0.999949
0.99999
1
0.999986
0.999987
1.00001
0.999996
0.999988
0.999992
1.00001
0.999963
1.00001
1.00003
0.99997
0.999998
1.00003
0.999966
1
0.999989
1.00001
1.00001
0.999987
0.999998
1.00002
0.999996
0.999974
1.00008
0.999997
0.999952
1.00003
0.999994
0.999981
1.00001
0.999991
1.00001
1
0.999983
1.00001
0.999991
0.999995
1.00002
0.999965
0.999981
1.00002
1.00004
0.999965
0.999878
0.999987
1.00001
1.00002
0.999956
0.999993
1.00002
0.999986
1.00004
0.999969
0.999971
1.00003
0.99999
1
1
0.999944
1
1.00003
0.999981
0.999974
0.999998
0.999987
1.00001
0.999973
0.999997
0.999996
0.999997
0.999997
1
1.00002
0.999851
0.999995
0.999995
0.999985
0.999967
0.999983
1
0.999991
1.00002
0.999992
0.999978
0.99999
0.99998
0.999993
0.999955
0.999996
1.00002
0.999956
0.999986
1.00002
1.00001
0.999985
0.99999
0.999996
1.00001
0.99999
0.999964
0.999997
0.999981
1
0.999884
0.999992
0.999899
0.999982
0.999967
0.999873
0.999977
1
1
0.999974
1.00003
0.999998
0.999976
0.999999
0.999996
0.999993
0.999977
0.999998
1.00001
0.999991
0.99999
1.00002
1
0.999998
1
0.99996
0.999862
0.999995
0.999977
0.999969
0.999876
0.999883
0.999601
0.999908
0.999842
0.999863
0.999942
0.999985
1
1
1
1
1
1
1
1
1
1
1
1
1.00001
1
1
0.999999
0.999984
0.99993
0.999849
0.99987
0.999904
0.999684
0.999757
0.884733
0.846796
0.873812
0.847163
0.881914
0.869335
0.866051
0.872409
0.860169
0.865433
0.83736
0.837695
0.829161
0.837416
0.826056
0.826358
0.837952
0.830212
0.836867
0.839241
0.865074
0.860272
0.872715
0.866101
0.870077
0.881371
0.846658
0.873396
0.846581
0.88433
0.260791
0.229749
0.263115
0.205194
0.23711
0.200974
0.165906
0.199796
0.161913
0.170241
0.143887
0.127188
0.141472
0.160507
0.114057
0.11627
0.158856
0.143145
0.127728
0.144421
0.167076
0.162822
0.200423
0.167247
0.201178
0.230148
0.206817
0.266999
0.228279
0.258462
0.000343453
0.000195008
0.000268928
0.00060067
0.00086004
7.26902e-05
8.74355e-05
0.00027213
7.96245e-05
6.54828e-05
4.16126e-05
1.70452e-05
0.000146331
0.000947235
8.899e-06
5.38958e-06
0.000740982
0.000188387
2.02167e-05
3.9696e-05
3.95026e-05
2.95689e-05
0.000233868
0.00010569
6.95579e-05
0.00071629
0.00058807
0.000287353
0.000227641
0.000428039
0.000399899
0.000190666
0.000134245
0.000638239
7.78821e-05
4.1173e-05
4.30269e-05
1.48199e-05
7.66097e-05
2.87018e-05
2.22279e-05
9.38619e-06
5.42467e-05
8.899e-06
1.96986e-06
2.10035e-06
5.38953e-06
1.35842e-05
8.97756e-06
2.05365e-05
3.4793e-05
2.73498e-05
1.69565e-05
5.46041e-05
4.34283e-05
9.67298e-05
0.000665984
0.000197892
0.000205861
0.00049203
4.08823e-07
0.000106589
8.72662e-05
3.94446e-05
9.77097e-06
3.73863e-05
5.23108e-05
3.38784e-06
1.60939e-05
2.6387e-05
3.59823e-05
6.40468e-06
2.32727e-05
2.94178e-06
1.27625e-06
1.66453e-06
1.0591e-05
3.20448e-05
9.15396e-06
3.67352e-05
2.40289e-05
2.26481e-05
5.30401e-06
6.00889e-05
4.19145e-05
1.38511e-05
1.60675e-05
0.000143861
0.000120905
3.33441e-07
2.3429e-07
4.90196e-06
1.21937e-05
2.57281e-07
6.41835e-08
3.87927e-07
2.38203e-06
1.6325e-06
1.80127e-06
4.02522e-06
5.26843e-06
2.80379e-06
6.99128e-06
1.0087e-05
2.98195e-06
3.0475e-06
1.22924e-05
9.36731e-06
5.28675e-06
4.67766e-06
1.58203e-06
1.49956e-06
1.1387e-06
2.70065e-06
4.04447e-07
5.01789e-08
2.29856e-07
7.33534e-06
6.11706e-06
2.40895e-07
2.24676e-07
3.51603e-07
6.97611e-07
2.85403e-07
3.40437e-08
1.21226e-08
5.28926e-10
2.74741e-07
1.16374e-06
5.73567e-07
5.63441e-08
2.46609e-06
5.84651e-06
7.46861e-06
5.41072e-06
5.21379e-06
6.03972e-06
5.50523e-06
3.57603e-06
3.0468e-07
5.09013e-07
1.00679e-06
2.40531e-07
5.12382e-10
1.43673e-08
4.66761e-08
3.54457e-07
6.79338e-07
3.23246e-07
2.33727e-07
2.60687e-09
2.5772e-08
1.12342e-07
2.55142e-07
1.32475e-07
6.56682e-09
3.01098e-10
4.7378e-09
2.45827e-08
1.06295e-10
4.61601e-08
6.17891e-07
7.07271e-07
1.18993e-06
5.25676e-06
5.24639e-06
8.93124e-07
8.38079e-08
3.17747e-07
3.45576e-08
3.84996e-08
3.61861e-08
5.0968e-09
2.92246e-10
7.62362e-09
1.822e-07
3.06226e-07
1.13437e-07
2.66969e-08
2.2357e-09
8.16698e-10
4.16471e-09
5.00603e-09
3.47346e-08
4.36619e-08
3.04452e-09
3.1917e-10
3.13685e-11
2.82385e-11
5.78426e-11
1.39957e-09
3.11523e-10
1.04752e-09
2.99968e-09
8.16328e-07
1.45018e-06
7.36088e-09
4.55962e-10
1.79899e-10
2.08047e-10
2.87087e-11
2.67734e-11
2.87087e-11
2.79781e-10
3.29503e-09
5.52313e-08
4.2557e-08
5.59899e-09
3.84043e-09
7.63096e-10
3.65394e-10
8.92182e-10
4.0103e-10
1.45449e-09
1.08689e-10
3.36937e-10
1.24072e-10
4.20497e-11
2.79996e-11
5.62626e-11
2.9112e-11
6.94236e-12
3.89926e-11
1.78458e-10
1.17312e-09
1.69811e-09
2.17601e-10
5.99284e-11
1.05801e-11
3.24779e-11
3.95115e-11
2.65512e-11
4.05194e-11
1.08011e-10
2.95689e-10
4.01478e-11
1.71871e-09
4.12493e-10
8.36938e-10
3.60435e-10
2.24199e-10
3.09793e-10
1.26221e-10
8.92095e-11
5.63166e-11
5.18689e-11
2.8737e-11
1.17652e-11
8.66e-12
1.16706e-11
9.57278e-12
6.5987e-12
1.61398e-11
2.63749e-11
2.3731e-11
2.92947e-11
2.82434e-11
2.99589e-11
9.28012e-12
1.02309e-11
1.10429e-11
8.4293e-12
1.13199e-11
2.57341e-11
4.49239e-11
3.68371e-11
9.84904e-11
1.27759e-10
3.04658e-10
2.27012e-10
4.48892e-11
7.65176e-11
3.79094e-11
1.81388e-11
1.44598e-11
5.8956e-12
2.81939e-12
1.56176e-12
1.1858e-12
1.81067e-12
2.97444e-12
5.58073e-12
1.26085e-11
1.74979e-11
8.823e-12
8.37421e-12
2.09531e-11
1.31731e-11
5.54991e-12
3.03818e-12
1.79904e-12
1.21311e-12
1.48692e-12
2.49289e-12
5.2452e-12
1.37219e-11
1.88394e-11
3.73008e-11
7.73662e-11
4.55862e-11
4.52121e-12
9.61633e-12
5.75804e-12
2.17965e-12
1.47575e-12
6.41418e-13
2.84179e-13
2.05077e-13
2.49521e-13
5.02637e-13
1.07952e-12
2.36628e-12
4.97502e-12
5.63242e-12
7.89231e-12
7.20928e-12
5.24013e-12
5.02321e-12
2.38429e-12
1.09886e-12
5.10508e-13
2.53822e-13
2.02146e-13
2.62982e-13
5.7911e-13
1.4203e-12
2.037e-12
5.7551e-12
9.81326e-12
4.5675e-12
3.35352e-13
6.76304e-13
5.44354e-13
2.3329e-13
9.06925e-14
3.4215e-14
1.39587e-14
1.13616e-14
1.85645e-14
4.50932e-14
1.18785e-13
3.10625e-13
6.75802e-13
1.09854e-12
1.65039e-12
1.62478e-12
1.07877e-12
6.84731e-13
3.15253e-13
1.21181e-13
4.64501e-14
1.89401e-14
1.14847e-14
1.3239e-14
3.10413e-14
8.62425e-14
2.33161e-13
5.52601e-13
6.88397e-13
3.39552e-13
1.53745e-14
3.77393e-14
2.60825e-14
1.01369e-14
2.80523e-15
8.18885e-16
3.15983e-16
2.91927e-16
5.24898e-16
1.39282e-15
4.38569e-15
1.43283e-14
3.59677e-14
7.87429e-14
1.22508e-13
1.22868e-13
8.01101e-14
3.64669e-14
1.45946e-14
4.49196e-15
1.44078e-15
5.41458e-16
2.95776e-16
2.99502e-16
7.40938e-16
2.68101e-15
1.03818e-14
2.68023e-14
3.8732e-14
1.56201e-14
3.64331e-16
1.13665e-15
6.12365e-16
2.02943e-16
5.51663e-17
1.50912e-17
6.30168e-18
7.19221e-18
1.39758e-17
3.75507e-17
1.19789e-16
4.01856e-16
1.12484e-15
2.6304e-15
4.30531e-15
4.30033e-15
2.65411e-15
1.13986e-15
4.116e-16
1.23924e-16
3.90231e-17
1.45145e-17
7.25844e-18
5.96839e-18
1.35015e-17
5.24582e-17
2.08257e-16
6.31914e-16
1.17278e-15
3.7224e-16
6.11624e-18
2.07519e-17
1.07761e-17
3.4505e-18
9.33829e-19
2.54138e-19
1.25244e-19
1.77979e-19
3.73429e-19
9.94547e-19
3.02896e-18
9.69894e-18
2.66683e-17
6.04981e-17
9.94453e-17
9.99624e-17
6.11244e-17
2.69764e-17
9.93784e-18
3.14713e-18
1.03155e-18
3.87365e-19
1.81223e-19
1.20025e-19
2.28316e-19
8.95685e-19
3.56951e-18
1.11542e-17
2.15693e-17
6.26933e-18
8.71431e-20
3.22494e-19
1.65483e-19
5.25371e-20
1.36483e-20
3.75683e-21
2.31922e-21
3.97545e-21
8.68764e-21
2.25302e-20
6.62567e-20
2.0369e-19
5.36574e-19
1.18294e-18
1.92035e-18
1.92063e-18
1.18922e-18
5.46158e-19
2.09608e-19
6.88175e-20
2.3438e-20
9.054e-21
4.11886e-21
2.27252e-21
3.38919e-21
1.3335e-20
5.50943e-20
1.7423e-19
3.36415e-19
9.05211e-20
1.03291e-21
4.24433e-21
2.17738e-21
6.71829e-22
1.71462e-22
4.82645e-23
3.97036e-23
7.89286e-23
1.72386e-22
4.27771e-22
1.19925e-21
3.51125e-21
8.96975e-21
1.93599e-20
3.07601e-20
3.06986e-20
1.94384e-20
9.16027e-21
3.61684e-21
1.23952e-21
4.43321e-22
1.79219e-22
8.22805e-23
4.02704e-23
4.40829e-23
1.681e-22
7.21296e-22
2.31026e-21
4.51202e-21
1.09655e-21
1.0242e-23
4.59873e-23
2.40701e-23
7.32852e-24
1.80517e-24
5.40964e-25
6.33562e-25
1.36467e-24
2.87576e-24
6.70837e-24
1.77263e-23
4.94205e-23
1.20847e-22
2.49005e-22
3.86882e-22
3.89518e-22
2.51942e-22
1.22213e-22
5.04231e-23
1.84412e-23
7.01764e-24
3.00293e-24
1.42373e-24
6.60114e-25
5.18297e-25
1.79547e-24
7.96621e-24
2.57149e-23
5.04106e-23
1.09907e-23
8.27428e-26
4.37917e-25
2.19032e-25
6.7056e-26
1.58651e-26
5.73361e-27
9.26615e-27
1.9929e-26
3.95047e-26
8.63224e-26
2.14366e-25
5.58919e-25
1.28049e-24
2.52836e-24
3.91115e-24
3.97013e-24
2.60276e-24
1.30767e-24
5.70556e-25
2.23527e-25
9.09551e-26
4.17375e-26
2.09625e-26
9.67463e-27
5.71426e-27
1.64097e-26
7.43123e-26
2.39902e-25
4.6836e-25
9.13834e-26
5.69371e-28
3.26041e-27
1.65469e-27
4.98776e-28
1.18995e-28
5.81101e-29
1.15988e-28
2.42178e-28
4.54507e-28
9.22245e-28
2.08435e-27
4.88755e-27
1.04281e-26
1.98818e-26
3.01072e-26
3.00832e-26
2.01332e-26
1.08012e-26
5.12729e-27
2.19325e-27
9.71132e-28
4.84864e-28
2.61247e-28
1.23886e-28
5.95716e-29
1.27782e-28
5.7859e-28
1.86713e-27
3.62742e-27
6.33971e-28
3.23642e-30
1.94196e-29
1.06209e-29
3.14256e-30
7.77419e-31
5.39476e-31
1.22587e-30
2.48925e-30
4.34626e-30
7.93407e-30
1.5986e-29
3.39967e-29
6.84612e-29
1.23872e-28
1.7911e-28
1.79318e-28
1.27263e-28
7.37409e-29
3.74781e-29
1.73521e-29
8.46297e-30
4.67269e-30
2.7217e-30
1.3477e-30
5.7548e-31
8.37013e-31
3.70282e-30
1.20868e-29
2.35171e-29
3.69557e-30
1.44917e-32
1.10957e-31
5.8166e-32
1.76325e-32
4.6526e-33
4.76745e-33
1.14769e-32
2.15926e-32
3.34619e-32
5.385e-32
9.79551e-32
1.92033e-31
3.55063e-31
5.88045e-31
8.13276e-31
8.33996e-31
6.21041e-31
3.78419e-31
2.07785e-31
1.08792e-31
6.04908e-32
3.70879e-32
2.33102e-32
1.22097e-32
5.06075e-33
4.81733e-33
1.9811e-32
6.58686e-32
1.27956e-31
1.81493e-32
6.5178e-35
5.25289e-34
2.69397e-34
8.34142e-35
2.52037e-35
3.76144e-35
8.82156e-35
1.50946e-34
2.11907e-34
3.12273e-34
5.14766e-34
8.75331e-34
1.38251e-33
2.07132e-33
2.82652e-33
3.00237e-33
2.34806e-33
1.54769e-33
9.62685e-34
5.7698e-34
3.57684e-34
2.40006e-34
1.64855e-34
9.43024e-35
4.02949e-35
2.63982e-35
9.10696e-35
3.01864e-34
5.75407e-34
7.4506e-35
2.42557e-37
1.7579e-36
1.01929e-36
3.09113e-37
1.24739e-37
2.45167e-37
5.54237e-37
8.94802e-37
1.17574e-36
1.57745e-36
2.22457e-36
3.16025e-36
4.46773e-36
6.51313e-36
8.72461e-36
8.9324e-36
7.06192e-36
5.12542e-36
3.67288e-36
2.50053e-36
1.72895e-36
1.29756e-36
9.99356e-37
6.30532e-37
2.81078e-37
1.38586e-37
3.49699e-37
1.12312e-36
2.09853e-36
2.54846e-37
6.08258e-40
5.58111e-39
3.30369e-39
1.00702e-39
5.99667e-40
1.44015e-39
3.20954e-39
4.78978e-39
5.58575e-39
6.29206e-39
7.28597e-39
9.17443e-39
1.24144e-38
1.66822e-38
1.92973e-38
1.80916e-38
1.55641e-38
1.36946e-38
1.16633e-38
8.95306e-39
6.91931e-39
5.88302e-39
5.11581e-39
3.54268e-39
1.65351e-39
6.77554e-40
1.09523e-39
3.36275e-39
6.34682e-39
7.44222e-40
1.71436e-42
1.90563e-41
9.64537e-42
3.23315e-42
2.81366e-42
7.5264e-42
1.53293e-41
2.03343e-41
2.06136e-41
2.00585e-41
2.11825e-41
2.55121e-41
3.04889e-41
3.29437e-41
3.24377e-41
3.16571e-41
3.23737e-41
3.2616e-41
2.98683e-41
2.49779e-41
2.23192e-41
2.23834e-41
2.24909e-41
1.71174e-41
8.38193e-42
3.15627e-42
3.11421e-42
8.70768e-42
1.6907e-41
1.9454e-42
5.45016e-45
4.76756e-44
2.41452e-44
9.73428e-45
1.25917e-44
3.17008e-44
5.76588e-44
7.05345e-44
6.43305e-44
5.77516e-44
5.73731e-44
5.98452e-44
5.47109e-44
4.74655e-44
4.57295e-44
5.02762e-44
5.46466e-44
5.53816e-44
5.45901e-44
5.54425e-44
6.26525e-44
7.4866e-44
8.51331e-44
6.8817e-44
3.52741e-44
1.34103e-44
9.24548e-45
2.12343e-44
4.07424e-44
4.60307e-45
1.05809e-47
8.57548e-47
5.22203e-47
2.77301e-47
4.51243e-47
1.06649e-46
1.92196e-46
2.17678e-46
1.82589e-46
1.44144e-46
1.21007e-46
9.76555e-47
7.17268e-47
5.7384e-47
5.81657e-47
6.36314e-47
6.47275e-47
6.72754e-47
8.11553e-47
1.07319e-46
1.47816e-46
2.00585e-46
2.3913e-46
2.13623e-46
1.21383e-46
5.0438e-47
2.85984e-47
4.84877e-47
8.32201e-47
9.4602e-48
1.87566e-50
1.66619e-49
1.1395e-49
7.16613e-50
1.21711e-49
2.9596e-49
5.14872e-49
4.98912e-49
3.8313e-49
2.54722e-49
1.81687e-49
1.30003e-49
9.22947e-50
7.32053e-50
6.62007e-50
5.90124e-50
5.5449e-50
6.77063e-50
1.06052e-49
1.72282e-49
2.68359e-49
4.09508e-49
5.25696e-49
5.65521e-49
3.72219e-49
1.68392e-49
8.36965e-50
9.78839e-50
1.3651e-49
1.73218e-50
4.01336e-53
3.43483e-52
2.33598e-52
1.56813e-52
2.94647e-52
6.86056e-52
1.02725e-51
9.07358e-52
6.05226e-52
3.60979e-52
2.43347e-52
1.73451e-52
1.18572e-52
7.84931e-53
5.38601e-53
4.17005e-53
4.55453e-53
7.44302e-53
1.41984e-52
2.54745e-52
4.23082e-52
7.06565e-52
1.0738e-51
1.28191e-51
9.51426e-52
4.43112e-52
2.05668e-52
1.8547e-52
2.12493e-52
3.27325e-53
6.58259e-56
5.7895e-55
3.60613e-55
2.97885e-55
5.92315e-55
1.23774e-54
1.75553e-54
1.53144e-54
9.45365e-55
5.38504e-55
3.56179e-55
2.36924e-55
1.35063e-55
7.15121e-56
4.42481e-56
3.89995e-56
5.28226e-56
9.53199e-56
1.81581e-55
3.21432e-55
5.54084e-55
1.02335e-54
1.80305e-54
2.29553e-54
1.82543e-54
8.63637e-55
4.09283e-55
3.48605e-55
3.7209e-55
6.46524e-56
1.11016e-58
7.68694e-58
5.02853e-58
5.29376e-58
9.27795e-58
1.91508e-57
2.69434e-57
2.25733e-57
1.27585e-57
7.06367e-58
4.42199e-58
2.55472e-58
1.24817e-58
6.43961e-59
4.54733e-59
4.60029e-59
6.12987e-59
9.91532e-59
1.79651e-58
3.33848e-58
6.52969e-58
1.3925e-57
2.75775e-57
3.58938e-57
2.9087e-57
1.39385e-57
7.06903e-58
6.23633e-58
6.66936e-58
1.19466e-58
2.41907e-61
8.51208e-61
9.10053e-61
9.68898e-61
1.62888e-60
3.50446e-60
4.17566e-60
3.1673e-60
1.62918e-60
8.58928e-61
4.80269e-61
2.45445e-61
1.17497e-61
6.85702e-62
5.42159e-62
5.34692e-62
6.43802e-62
9.84228e-62
1.9472e-61
4.25194e-61
9.52746e-61
2.1646e-60
4.27032e-60
5.27187e-60
4.10984e-60
1.99588e-60
1.09902e-60
1.01472e-60
1.09962e-60
1.97403e-61
2.04692e-64
1.50051e-63
1.844e-63
1.76218e-63
3.1351e-63
6.15455e-63
6.12647e-63
4.58777e-63
2.30381e-63
1.14828e-63
5.75532e-64
2.73639e-64
1.33772e-64
8.12597e-65
6.11983e-65
5.51137e-65
6.55285e-65
1.10688e-64
2.53502e-64
6.09573e-64
1.37251e-63
2.92907e-63
5.47915e-63
6.42072e-63
5.16973e-63
2.72804e-63
1.64377e-63
1.5733e-63
1.70262e-63
3.01367e-64
3.33334e-67
3.93038e-66
3.04899e-66
2.81301e-66
4.60471e-66
7.60272e-66
7.23201e-66
5.72259e-66
2.88026e-66
1.32908e-66
6.03559e-67
2.68708e-67
1.24614e-67
6.86136e-68
4.59684e-68
4.04854e-68
5.42341e-68
1.0903e-67
2.77305e-67
6.67845e-67
1.42228e-66
2.94164e-66
5.87176e-66
7.37272e-66
7.02938e-66
4.13055e-66
2.56951e-66
2.43765e-66
2.54871e-66
4.35648e-67
9.94316e-70
5.1889e-69
3.75914e-69
3.6713e-69
5.50976e-69
8.51979e-69
8.28587e-69
6.44592e-69
2.99084e-69
1.21066e-69
4.91724e-70
2.03065e-70
8.66679e-71
4.29578e-71
2.77934e-71
2.7593e-71
4.48041e-71
1.02632e-70
2.64626e-70
6.10394e-70
1.28701e-69
2.87138e-69
6.65437e-69
9.72051e-69
1.02542e-68
6.15815e-69
3.70526e-69
3.42003e-69
3.54026e-69
5.98089e-70
1.03389e-72
3.69264e-72
4.05368e-72
4.29098e-72
6.64779e-72
1.00811e-71
9.63946e-72
6.72354e-72
2.75247e-72
9.76132e-73
3.73085e-73
1.55176e-73
6.71229e-74
3.43251e-74
2.43699e-74
2.73435e-74
4.69468e-74
1.03095e-73
2.43125e-73
5.31576e-73
1.16688e-72
2.89041e-72
7.38061e-72
1.14255e-71
1.17829e-71
6.81918e-72
4.18732e-72
4.04055e-72
4.59536e-72
8.07684e-73
5.87847e-76
5.87725e-75
5.811e-75
5.68004e-75
7.6973e-75
1.00377e-74
9.36217e-75
6.08655e-75
2.30991e-75
7.9018e-76
3.20818e-76
1.46463e-76
6.79676e-77
3.66751e-77
2.69325e-77
2.91169e-77
4.45162e-77
8.37785e-77
1.78505e-76
3.93726e-76
9.41704e-76
2.53911e-75
6.62117e-75
9.74443e-75
9.50248e-75
5.5928e-75
3.98898e-75
4.40455e-75
5.87095e-75
1.06763e-75
1.49729e-78
1.37781e-77
8.7498e-78
7.27863e-78
7.73208e-78
9.2908e-78
9.32332e-78
6.14243e-78
2.30089e-78
8.31975e-79
3.70383e-79
1.75955e-79
8.01482e-80
4.13086e-80
2.80321e-80
2.65802e-80
3.4839e-80
5.89518e-80
1.25832e-79
3.05934e-79
8.07083e-79
2.24525e-78
5.58276e-78
7.53881e-78
7.1145e-78
4.63167e-78
3.72602e-78
4.77597e-78
6.96821e-78
1.23844e-78
4.40168e-81
1.36143e-80
9.21796e-81
6.33271e-81
6.89585e-81
1.01823e-80
1.0891e-80
7.09552e-81
2.67082e-81
1.02956e-81
4.6461e-82
2.07072e-82
8.62032e-83
4.12936e-83
2.64394e-83
2.35674e-83
2.98204e-83
5.15931e-83
1.19067e-82
3.14606e-82
8.47914e-82
2.24194e-81
5.10257e-81
6.56263e-81
6.12123e-81
4.28757e-81
3.5553e-81
4.66999e-81
6.64859e-81
1.11145e-81
1.90158e-84
6.46984e-84
7.08178e-84
5.68997e-84
7.67013e-84
1.23749e-83
1.15782e-83
6.42169e-84
2.37818e-84
9.04956e-85
3.72199e-85
1.45922e-85
5.69112e-86
2.80731e-86
1.94357e-86
1.8824e-86
2.56521e-86
4.74093e-86
1.13831e-85
3.01398e-85
7.82033e-85
1.96468e-84
4.37008e-84
5.83525e-84
5.64549e-84
4.0777e-84
3.22815e-84
3.91009e-84
4.90884e-84
7.76308e-85
1.00742e-87
1.10941e-86
9.98044e-87
8.33539e-87
1.22082e-86
1.46087e-86
9.83442e-87
4.30132e-87
1.46284e-87
4.72171e-88
1.53907e-88
5.14381e-89
2.04644e-89
1.19295e-89
9.85906e-90
1.08077e-89
1.57426e-89
2.9743e-89
7.08729e-89
1.84854e-88
4.86503e-88
1.31137e-87
3.30625e-87
5.27575e-87
5.6848e-87
4.14851e-87
3.03654e-87
3.14786e-87
3.27975e-87
4.97851e-88
2.38067e-90
2.27336e-89
1.56975e-89
1.34542e-89
1.62561e-89
1.3416e-89
7.86608e-90
3.23688e-90
9.82863e-91
2.51461e-91
6.5867e-92
2.07685e-92
8.68849e-93
5.40233e-93
4.592e-93
4.96542e-93
7.00694e-93
1.29128e-92
3.06463e-92
8.36983e-92
2.53412e-91
8.46887e-91
2.70505e-90
5.41819e-90
6.48213e-90
4.66765e-90
3.05418e-90
2.71687e-90
2.39807e-90
3.57884e-91
4.89807e-93
1.80927e-92
1.35367e-92
1.07346e-92
1.21627e-92
1.07563e-92
7.54067e-93
3.1814e-93
8.51753e-94
1.88077e-94
4.62095e-95
1.44625e-95
5.98884e-96
3.36384e-96
2.4069e-96
2.3024e-96
3.12194e-96
5.90485e-96
1.48494e-95
4.44244e-95
1.53388e-94
6.08033e-94
2.3168e-93
5.41436e-93
6.85425e-93
4.83906e-93
2.9388e-93
2.48974e-93
2.12826e-93
3.30602e-94
1.84518e-96
8.40621e-96
9.89333e-96
8.66433e-96
1.02269e-95
1.11043e-95
8.05942e-96
2.87372e-96
6.35744e-97
1.30972e-97
3.34304e-98
1.05003e-98
3.86727e-99
1.77176e-99
1.07396e-99
1.00694e-99
1.49969e-99
3.19716e-99
8.76877e-99
2.72303e-98
9.55933e-98
3.85417e-97
1.54518e-96
3.93064e-96
5.25095e-96
4.00529e-96
2.65076e-96
2.46192e-96
2.41475e-96
4.04229e-97
1.26852e-99
1.45299e-98
1.3994e-98
1.13691e-98
1.4325e-98
1.44575e-98
7.30331e-99
1.75285e-99
3.14908e-100
6.45426e-101
1.71818e-101
5.19985e-102
1.71553e-102
7.20871e-103
4.57554e-103
4.64177e-103
7.4493e-103
1.72414e-102
4.81648e-102
1.41366e-101
4.51879e-101
1.69968e-100
6.7995e-100
1.95463e-99
3.03591e-99
3.03016e-99
2.48154e-99
2.82786e-99
3.35646e-99
5.88342e-100
2.88764e-102
2.58274e-101
1.84104e-101
1.49358e-101
1.81529e-101
1.49552e-101
4.67297e-102
7.94284e-103
1.41917e-103
3.22668e-104
9.23715e-105
3.04554e-105
1.16677e-105
5.68079e-106
3.67545e-106
3.31495e-106
4.45647e-106
8.72624e-106
2.17575e-105
5.77016e-105
1.71531e-104
6.36843e-104
2.71341e-103
9.30247e-103
1.9745e-102
2.60824e-102
2.61172e-102
3.55126e-102
4.7872e-102
8.29063e-103
4.82344e-105
2.03592e-104
1.42149e-104
1.25711e-104
1.39223e-104
8.78792e-105
2.40981e-105
4.71865e-106
1.01158e-106
2.36486e-107
6.91384e-108
2.67686e-108
1.21008e-108
6.18399e-109
3.83814e-109
2.99781e-109
3.01586e-109
3.95481e-109
8.24736e-109
2.24996e-108
7.73939e-108
3.26436e-107