/*--------------------------------*- C++ -*----------------------------------*\
| =========                 |                                                 |
| \\      /  F ield         | OpenFOAM: The Open Source CFD Toolbox           |
|  \\    /   O peration     | Version:  2312                                  |
|   \\  /    A nd           | Website:  www.openfoam.com                      |
|    \\/     M anipulation  |                                                 |
\*---------------------------------------------------------------------------*/
FoamFile
{
    version     2.0;
    format      ascii;
    arch        "LSB;label=32;scalar=64";
    class       surfaceScalarField;
    location    "1.2036445";
    object      alphaPhi0.water;
}
// * * * * * * * * * * * * * * * * * * * * * * * * * * * * * * * * * * * * * //

dimensions      [0 3 -1 0 0 0 0];

oriented        oriented;

internalField   nonuniform List<scalar> 
263100
(
-2.49108e-09
4.98188e-09
-2.49108e-09
3.88211e-10
-8.70365e-10
-1.66183e-09
1.47845e-09
5.2038e-10
-1.32179e-09
2.19487e-09
5.54201e-10
-1.00347e-09
2.75797e-09
2.34711e-10
-5.5931e-10
3.25869e-09
-2.18225e-10
-8.09039e-11
3.72866e-09
-6.38658e-10
3.26326e-10
4.06057e-09
-8.79816e-10
6.55749e-10
4.047e-09
-8.28486e-10
8.958e-10
3.56213e-09
-4.72497e-10
9.5524e-10
2.67482e-09
4.69927e-11
7.84558e-10
1.46666e-09
6.42208e-10
4.6361e-10
2.09053e-10
1.07417e-09
4.63985e-11
-7.59018e-10
1.1875e-09
-3.75802e-10
-1.14755e-09
9.59038e-10
-7.29885e-10
-8.47869e-10
4.48358e-10
-8.96135e-10
3.41118e-11
-2.12038e-10
-7.97158e-10
1.09376e-09
-6.88591e-10
-4.74238e-10
1.76907e-09
-8.80019e-10
1.22013e-10
1.65745e-09
-5.75848e-10
6.16261e-10
4.87621e-10
1.24075e-10
9.74357e-10
-1.78729e-09
1.09506e-09
1.09773e-09
-4.77374e-09
1.92563e-09
9.62628e-10
-7.65523e-09
2.1829e-09
5.872e-10
-9.39332e-09
1.48977e-09
1.35992e-10
-8.82328e-09
-1.54899e-10
-5.08687e-10
-5.24415e-09
-2.54322e-09
-1.08844e-09
2.41867e-09
-4.89802e-09
-2.75827e-09
1.27425e-08
-6.53204e-09
-3.71866e-09
3.51678e-08
-2.2298e-08
1.81463e-10
4.99467e-09
1.81463e-10
2.20178e-10
-5.88413e-10
1.90591e-10
1.97796e-10
7.88434e-10
1.96283e-10
2.41184e-10
7.28929e-10
1.73589e-10
3.70979e-10
2.45036e-10
1.89632e-10
6.39785e-10
-4.36141e-10
2.06311e-10
1.04164e-09
-1.06733e-09
2.03179e-10
1.52854e-09
-1.46391e-09
1.87366e-10
2.03637e-09
-1.49834e-09
1.64958e-10
2.47746e-09
-1.15815e-09
1.65515e-10
2.77551e-09
-6.26084e-10
2.26718e-10
2.9307e-09
-3.6384e-11
3.25785e-10
2.9376e-09
3.5328e-10
4.91884e-10
2.77922e-09
3.79417e-10
7.45707e-10
2.4229e-09
1.03761e-10
1.01425e-09
1.79969e-09
-3.05132e-10
1.21683e-09
9.97006e-10
-8.4051e-10
1.31232e-09
1.5174e-10
-1.18705e-09
1.2588e-09
-6.99845e-10
-1.11087e-09
1.01612e-09
-1.53749e-09
-5.0686e-10
7.02194e-10
-2.27311e-09
3.43813e-10
4.33325e-10
-2.96631e-09
1.434e-09
2.48652e-10
-3.55587e-09
2.18501e-09
2.08076e-10
-3.79962e-09
2.01806e-09
2.90976e-10
-3.76507e-09
7.72729e-10
6.01321e-10
-3.85666e-09
-1.33996e-09
1.26679e-09
-3.98321e-09
-4.40596e-09
2.07793e-09
-8.1924e-10
-1.18291e-08
3.96298e-09
9.7503e-09
-2.34708e-08
6.65386e-09
4.18766e-08
3.33239e-09
9.25346e-10
3.40654e-09
9.25346e-10
-2.52829e-10
4.30791e-10
4.44619e-10
-9.48828e-10
1.40257e-09
3.22507e-10
-1.4317e-09
1.26754e-09
1.49367e-10
-1.77442e-09
7.36865e-10
1.70283e-11
-1.89023e-09
-4.66324e-11
-1.48498e-10
-1.6604e-09
-8.30038e-10
-3.82967e-10
-1.04953e-09
-1.46136e-09
-5.68176e-10
-6.02993e-11
-1.81821e-09
-6.57833e-10
1.23295e-09
-1.84852e-09
-6.1614e-10
2.65349e-09
-1.65442e-09
-4.17633e-10
3.95755e-09
-1.33803e-09
-2.4814e-11
4.86624e-09
-9.58023e-10
3.9847e-10
5.06059e-09
-6.05927e-10
8.17506e-10
4.37409e-09
-3.11104e-10
1.16528e-09
2.91886e-09
-5.35516e-11
1.30459e-09
9.24088e-10
1.27072e-10
1.15764e-09
-1.17487e-09
3.00035e-10
7.59285e-10
-2.83132e-09
4.99471e-10
1.96334e-10
-3.64229e-09
7.64491e-10
-3.18701e-10
-3.51271e-09
1.08943e-09
-7.46685e-10
-2.39495e-09
1.39594e-09
-9.59577e-10
-6.16716e-10
1.41317e-09
-8.80249e-10
1.34691e-09
8.04409e-10
-5.96379e-10
3.07454e-09
-4.09946e-10
-3.40618e-10
3.94465e-09
-1.77044e-09
-1.65964e-10
1.9348e-09
-2.45176e-09
4.06088e-10
-4.15993e-09
-8.06728e-09
2.75269e-09
-2.84357e-09
-3.12326e-08
6.91602e-09
2.61217e-08
1.33369e-08
1.12631e-09
1.29552e-09
1.12631e-09
-4.5119e-10
1.45477e-09
6.04479e-10
-1.40754e-09
1.93815e-09
4.53589e-10
-2.16255e-09
1.80066e-09
2.35426e-10
-2.74492e-09
1.32847e-09
-1.06181e-11
-3.14799e-09
5.80164e-10
-2.33454e-10
-3.1687e-09
-2.8493e-10
-5.33967e-10
-2.72905e-09
-1.10892e-09
-7.91233e-10
-1.78821e-09
-1.80711e-09
-9.28972e-10
-3.9447e-10
-2.2653e-09
-9.1974e-10
1.26456e-09
-2.4514e-09
-7.59612e-10
2.86352e-09
-2.32279e-09
-4.588e-10
3.99662e-09
-1.82297e-09
-5.74817e-11
4.39927e-09
-9.33955e-10
1.86989e-10
3.87992e-09
1.87556e-10
3.22117e-10
2.50939e-09
1.38337e-09
2.58733e-10
5.93992e-10
2.38263e-09
-9.11404e-12
-1.37045e-09
2.97612e-09
-3.89676e-10
-2.76974e-09
3.0175e-09
-8.14009e-10
-3.12896e-09
2.58049e-09
-1.16774e-09
-2.20983e-09
1.84975e-09
-1.39469e-09
-1.41569e-10
1.08405e-09
-1.45721e-09
2.48113e-09
4.09822e-10
-1.28463e-09
4.9474e-09
-3.01156e-10
-9.72964e-10
6.65223e-09
-1.0902e-09
-5.74935e-10
8.00839e-09
-2.0158e-09
-6.02599e-10
9.865e-09
-1.50834e-09
-2.24904e-09
3.58135e-09
1.65996e-09
-2.87455e-09
-8.09836e-09
-1.66954e-08
-2.29612e-09
1.35588e-08
4.90073e-09
1.20144e-09
-1.10985e-09
1.20144e-09
-1.80956e-10
1.90174e-09
7.68568e-10
-1.06772e-09
2.0075e-09
6.59353e-10
-1.75539e-09
1.85219e-09
4.75273e-10
-2.37395e-09
1.53429e-09
2.58177e-10
-2.86145e-09
9.36833e-10
-5.17745e-12
-3.14028e-09
7.50056e-11
-1.83962e-10
-3.1492e-09
-8.13479e-10
-3.40352e-10
-2.7824e-09
-1.64936e-09
-5.14069e-10
-2.04756e-09
-2.3444e-09
-5.68948e-10
-1.05916e-09
-2.7281e-09
-5.4277e-10
-2.11268e-11
-2.65143e-09
-4.6107e-10
8.81008e-10
-2.01571e-09
-3.9407e-10
1.43894e-09
-7.55467e-10
-3.75099e-10
1.53544e-09
9.28834e-10
-4.57154e-10
1.11951e-09
2.77023e-09
-5.98097e-10
3.50116e-10
4.24728e-09
-7.51726e-10
-4.5211e-10
4.95495e-09
-8.72787e-10
-8.5074e-10
4.67363e-09
-9.89604e-10
-5.18207e-10
3.57952e-09
-1.08208e-09
6.19351e-10
2.1154e-09
-1.14567e-09
2.43885e-09
7.16036e-10
-1.15832e-09
4.56056e-09
-2.62319e-10
-1.10074e-09
6.35227e-09
-7.02385e-10
-9.79934e-10
7.11874e-09
-5.98715e-10
-7.96253e-10
6.59618e-09
-6.04479e-10
-4.00748e-10
6.38895e-09
-3.43345e-10
-4.75931e-10
4.50467e-09
5.6579e-09
-1.66939e-09
-4.97141e-09
-3.36199e-09
-3.4724e-09
9.53154e-09
-7.18791e-10
9.07251e-10
-3.05189e-09
9.07251e-10
1.96636e-10
1.60187e-09
7.06444e-10
-5.64266e-11
1.31183e-09
6.72681e-10
-2.69374e-10
1.18865e-09
6.0872e-10
-5.68037e-10
1.04774e-09
5.3471e-10
-9.60976e-10
6.6306e-10
4.46799e-10
-1.45365e-09
3.40154e-11
3.60351e-10
-2.00848e-09
-6.86596e-10
3.17922e-10
-2.58317e-09
-1.39137e-09
2.84131e-10
-3.06387e-09
-2.02087e-09
2.09911e-10
-3.32594e-09
-2.37998e-09
5.01236e-11
-3.32344e-09
-2.34465e-09
-1.02981e-10
-2.98664e-09
-1.76837e-09
-3.31955e-10
-2.31433e-09
-6.09467e-10
-5.51932e-10
-1.41615e-09
9.85988e-10
-7.08268e-10
-4.43562e-10
2.77809e-09
-7.80621e-10
4.59498e-10
4.19555e-09
-7.14321e-10
1.23852e-09
4.8129e-09
-5.61524e-10
1.93768e-09
4.38734e-09
-3.81326e-10
2.62745e-09
3.14405e-09
-2.37323e-10
3.40161e-09
1.56388e-09
-1.88398e-10
4.25901e-09
1.63682e-10
-2.29379e-10
5.05653e-09
-5.91789e-10
-3.42956e-10
5.56559e-09
-5.29322e-10
-5.1913e-10
5.50642e-09
4.44257e-10
-8.10935e-10
3.88341e-09
2.20506e-09
-1.0397e-09
1.5234e-09
3.14021e-09
-1.03539e-09
6.72866e-10
8.85027e-09
-2.33233e-09
-3.66587e-09
5.43332e-09
-4.52889e-09
8.58468e-09
-2.90238e-09
7.91682e-11
-3.4048e-09
7.91681e-11
6.57168e-10
5.38193e-10
1.57746e-10
1.31187e-09
1.30427e-10
2.33711e-10
1.88401e-09
4.27047e-11
2.92541e-10
2.21259e-09
5.219e-11
4.02919e-10
2.14433e-09
-2.82632e-11
5.23094e-10
1.54982e-09
-2.12955e-10
6.45525e-10
4.52193e-10
-4.85447e-10
7.53813e-10
-1.05687e-09
-7.72911e-10
8.09806e-10
-2.7873e-09
-1.06699e-09
7.58292e-10
-4.43848e-09
-1.28661e-09
5.92143e-10
-5.57526e-09
-1.39296e-09
2.51398e-10
-5.88888e-09
-1.26855e-09
-1.1691e-10
-5.27002e-09
-7.85877e-10
-4.02039e-10
-3.81838e-09
4.16087e-11
-5.23508e-10
-1.79016e-09
1.0909e-09
-4.30674e-10
4.04099e-10
2.00304e-09
-1.65795e-10
2.38486e-09
2.4138e-09
1.94851e-10
3.86715e-09
2.13579e-09
5.13021e-10
4.72606e-09
1.25337e-09
7.72123e-10
4.97952e-09
1.02698e-10
9.66726e-10
4.745e-09
-7.72968e-10
9.55043e-10
4.13034e-09
-9.77707e-10
7.96312e-10
3.06107e-09
-2.43337e-10
5.61954e-10
1.76739e-09
1.40775e-09
5.6183e-11
5.51559e-11
4.19094e-09
-6.30225e-10
-2.41802e-09
6.4728e-09
-1.31226e-09
-2.09852e-09
1.02399e-08
-2.25157e-09
-3.15957e-09
9.0144e-09
-3.1292e-09
6.67871e-09
-1.84775e-09
-1.09716e-09
-1.39914e-09
-1.09716e-09
8.18805e-10
-9.41207e-10
-6.92387e-10
2.48579e-09
-1.1833e-09
-5.78884e-10
3.94199e-09
-1.17635e-09
-4.53045e-10
4.99848e-09
-9.83502e-10
-2.24936e-10
5.3865e-09
-6.55959e-10
5.35258e-11
4.90447e-09
-2.34084e-10
3.42555e-10
3.53427e-09
1.84611e-10
5.70846e-10
1.4161e-09
5.51415e-10
6.95964e-10
-1.13978e-09
7.48448e-10
6.66331e-10
-3.66772e-09
6.67703e-10
5.07218e-10
-5.61857e-09
2.23371e-10
2.53427e-10
-6.58448e-09
-4.44676e-10
2.18374e-11
-6.34119e-09
-1.09757e-09
-1.11267e-10
-4.95003e-09
-1.47206e-09
-1.27021e-10
-2.73582e-09
-1.52407e-09
8.46079e-11
-1.72542e-10
-1.29638e-09
3.69893e-10
2.23304e-09
-1.11002e-09
7.26701e-10
3.97841e-09
-1.13451e-09
1.1327e-09
4.83126e-09
-1.48834e-09
1.51095e-09
4.79121e-09
-1.95172e-09
1.72931e-09
4.01421e-09
-2.15858e-09
1.79004e-09
2.63314e-09
-1.71874e-09
1.70805e-09
7.35807e-10
-3.39927e-10
1.5007e-09
-1.37928e-09
1.79428e-09
1.12775e-09
-2.90215e-09
4.59173e-09
4.05026e-10
-4.20779e-09
7.13206e-09
-1.71934e-10
-2.96615e-09
8.57916e-09
-4.66527e-10
-1.61367e-09
7.02637e-09
-2.74029e-10
3.36924e-09
9.41677e-10
-1.99431e-09
2.46088e-09
-1.99431e-09
1.00185e-09
-2.64558e-09
-1.44119e-09
3.38004e-09
-2.36361e-09
-1.32806e-09
5.41608e-09
-2.26172e-09
-1.07327e-09
6.89859e-09
-1.82387e-09
-7.54813e-10
7.60488e-09
-1.04534e-09
-4.15862e-10
7.32689e-09
5.42728e-11
-9.36791e-11
6.04144e-09
1.33132e-09
6.83646e-11
3.92837e-09
2.40369e-09
1.94115e-10
1.32518e-09
3.03061e-09
2.42745e-10
-1.29041e-09
2.93422e-09
2.40034e-10
-3.46351e-09
2.02408e-09
2.14458e-10
-4.82984e-09
4.43958e-10
2.59183e-10
-5.25629e-09
-1.31063e-09
3.5998e-10
-4.73686e-09
-2.82195e-09
5.02994e-10
-3.42191e-09
-3.83752e-09
6.47452e-10
-1.65224e-09
-4.29506e-09
8.83636e-10
1.29774e-10
-4.36138e-09
1.15429e-09
1.64802e-09
-4.29176e-09
1.36499e-09
2.59374e-09
-4.19138e-09
1.51515e-09
2.79357e-09
-3.97553e-09
1.58461e-09
2.18109e-09
-3.45755e-09
1.63278e-09
9.08729e-10
-2.41961e-09
1.61208e-09
-7.40743e-10
-6.19903e-10
1.45494e-09
-2.45501e-09
1.71382e-09
1.19846e-09
-3.35355e-09
3.89426e-09
8.94659e-10
-3.09744e-09
5.14769e-09
9.57662e-10
-1.16472e-09
4.43144e-09
1.41974e-09
3.74232e-10
2.39209e-09
2.31888e-09
6.56036e-10
2.53368e-09
-2.09582e-09
6.59224e-09
-2.09582e-09
1.26997e-09
-4.7153e-09
-1.37671e-09
3.77107e-09
-3.80441e-09
-1.13011e-09
5.81348e-09
-3.58236e-09
-7.79721e-10
7.20012e-09
-2.82259e-09
-4.26533e-10
7.79681e-09
-1.53056e-09
-1.26793e-10
7.59083e-09
2.34592e-10
3.04364e-11
6.684e-09
2.10896e-09
1.42518e-10
5.25367e-09
3.69412e-09
1.42903e-10
3.5113e-09
4.55559e-09
1.88094e-10
1.67443e-09
4.34895e-09
3.41559e-10
-6.42918e-11
3.04753e-09
5.73774e-10
-1.6254e-09
9.75408e-10
8.32099e-10
-2.9043e-09
-1.35146e-09
1.08684e-09
-3.7988e-09
-3.42889e-09
1.2665e-09
-4.21248e-09
-4.9678e-09
1.34429e-09
-4.04186e-09
-5.85238e-09
1.25253e-09
-3.29565e-09
-6.20031e-09
1.03699e-09
-2.21588e-09
-6.18117e-09
8.21933e-10
-1.17852e-09
-5.85364e-09
6.72511e-10
-4.97854e-10
-5.22774e-09
6.08059e-10
-3.67501e-10
-4.16983e-09
5.60905e-10
-7.799e-10
-2.57573e-09
4.57647e-10
-1.3951e-09
-5.3e-10
3.15829e-10
-1.7839e-09
1.60782e-09
2.01938e-10
-1.32208e-09
2.73175e-09
3.55466e-10
2.46738e-11
2.48359e-09
9.54101e-10
1.36891e-09
1.11905e-09
1.61535e-09
1.18813e-09
3.09522e-10
1.94356e-09
6.40258e-10
1.05167e-09
-6.17397e-10
7.79756e-09
-6.17397e-10
1.8245e-09
-7.42334e-09
1.83481e-10
3.33822e-09
-5.77121e-09
3.83902e-10
4.34529e-09
-5.20838e-09
5.77623e-10
4.84956e-09
-4.07501e-09
7.4946e-10
4.90044e-09
-2.33858e-09
8.05394e-10
4.71309e-09
-2.2888e-10
7.36859e-10
4.47668e-09
1.912e-09
5.36117e-10
4.31091e-09
3.56235e-09
3.88985e-10
4.11282e-09
4.43382e-09
3.7313e-10
3.69866e-09
4.22e-09
5.41124e-10
2.82348e-09
3.01296e-09
8.52287e-10
1.33513e-09
1.21477e-09
1.15525e-09
-7.34023e-10
-6.59747e-10
1.28233e-09
-2.99319e-09
-2.4683e-09
1.24352e-09
-5.00866e-09
-3.87581e-09
9.43904e-10
-6.30813e-09
-4.90906e-09
4.6976e-10
-6.63951e-09
-5.62226e-09
-4.64829e-11
-6.11656e-09
-6.05909e-09
-3.88045e-10
-5.04155e-09
-6.05638e-09
-6.022e-10
-3.80716e-09
-5.46112e-09
-7.60948e-10
-2.77726e-09
-4.22948e-09
-7.88202e-10
-2.04093e-09
-2.38769e-09
-8.04723e-10
-1.23077e-09
-5.24429e-10
-7.4098e-10
-1.30939e-10
1.0396e-09
-4.73489e-10
1.23915e-09
1.43999e-09
-1.29862e-11
2.39254e-09
9.86731e-10
4.25389e-10
2.24736e-09
7.2803e-10
6.30934e-10
8.3997e-10
1.79685e-09
2.11262e-11
2.17435e-09
-5.64312e-10
1.86793e-09
4.01265e-09
1.86793e-09
1.86986e-09
-9.76959e-09
2.22128e-09
1.33572e-09
-7.88314e-09
2.55354e-09
4.51004e-10
-6.81416e-09
2.45307e-09
-4.80832e-10
-5.2931e-09
2.18632e-09
-1.10336e-09
-3.25062e-09
1.64574e-09
-1.14166e-09
-9.85948e-10
9.63722e-10
-3.64259e-10
9.61369e-10
3.67678e-10
1.03771e-09
2.40685e-09
-6.15298e-11
2.61002e-09
3.15523e-09
-1.47445e-10
3.78644e-09
3.20194e-09
-6.39327e-11
3.92923e-09
2.84443e-09
7.57967e-11
2.79414e-09
2.22772e-09
1.54322e-10
6.13278e-10
1.54063e-09
3.15165e-11
-2.24542e-09
7.70973e-10
-2.76421e-10
-5.07783e-09
-1.11307e-10
-7.55582e-10
-7.17912e-09
-1.31606e-09
-1.24592e-09
-8.15288e-09
-2.71144e-09
-1.6464e-09
-7.97712e-09
-3.99374e-09
-1.9425e-09
-6.94033e-09
-4.78749e-09
-2.03388e-09
-5.46532e-09
-4.80909e-09
-1.90036e-09
-3.83179e-09
-4.02037e-09
-1.65577e-09
-2.12216e-09
-2.62308e-09
-1.30222e-09
-3.01848e-10
-1.28944e-09
-8.67544e-10
1.59178e-09
-3.17613e-10
-3.14059e-10
3.03641e-09
4.47251e-11
2.03975e-10
3.30818e-09
4.73493e-10
5.01901e-10
2.11754e-09
1.88621e-09
2.70242e-10
7.11922e-10
3.55535e-09
-1.59531e-10
2.70491e-09
2.87903e-10
4.29945e-09
-4.6728e-09
4.29945e-09
7.6234e-10
-1.0224e-08
3.86646e-09
-2.29526e-09
-8.34611e-09
3.44995e-09
-5.00462e-09
-6.72294e-09
2.63036e-09
-7.14425e-09
-4.71747e-09
1.67302e-09
-8.18627e-09
-2.5848e-09
5.73697e-10
-7.83521e-09
-7.14996e-10
-3.63951e-10
-6.04092e-09
4.8802e-10
-1.04082e-09
-3.19853e-09
1.35053e-09
-1.52195e-09
-5.91164e-11
1.87178e-09
-1.63386e-09
2.39339e-09
2.47166e-09
-1.54903e-09
3.47617e-09
3.38949e-09
-1.49077e-09
2.98826e-09
4.43817e-09
-1.59598e-09
1.20877e-09
5.35511e-09
-1.89224e-09
-1.26965e-09
5.71928e-09
-2.29505e-09
-3.73723e-09
5.22089e-09
-2.66025e-09
-5.6454e-09
3.73526e-09
-2.92966e-09
-6.64516e-09
1.50846e-09
-3.02683e-09
-6.70506e-09
-8.54441e-10
-2.93058e-09
-6.0596e-09
-2.68166e-09
-2.65321e-09
-4.93488e-09
-3.63357e-09
-2.2354e-09
-3.38299e-09
-3.74266e-09
-1.76308e-09
-1.45047e-09
-3.21123e-09
-1.24039e-09
6.49738e-10
-2.55155e-09
-6.79345e-10
2.54548e-09
-1.91679e-09
-9.51793e-11
3.46709e-09
-1.04867e-09
3.78331e-10
3.18191e-09
3.368e-10
5.89538e-10
2.16034e-09
2.42332e-09
5.83064e-10
1.39951e-09
3.35215e-09
9.83716e-10
2.3918e-09
1.63967e-09
4.47202e-09
-1.37029e-08
4.47202e-09
-1.81364e-09
-6.30116e-09
2.32764e-09
-6.72306e-09
-4.84023e-09
1.43586e-09
-1.03794e-08
-3.10687e-09
1.63937e-10
-1.28115e-08
-1.27108e-09
-7.9892e-10
-1.35228e-08
8.89319e-11
-1.67593e-09
-1.23464e-08
8.54091e-10
-2.42267e-09
-9.52943e-09
7.676e-10
-2.77573e-09
-5.76111e-09
6.08352e-10
-2.73784e-09
-1.99147e-09
9.25082e-10
-2.58198e-09
8.53567e-10
2.24138e-09
-2.41837e-09
2.46085e-09
4.36037e-09
-2.41093e-09
2.66606e-09
6.98799e-09
-2.59891e-09
1.87135e-09
9.17192e-09
-2.86728e-09
5.57636e-10
1.02356e-08
-3.05395e-09
-8.27838e-10
9.83156e-09
-3.10089e-09
-2.01069e-09
7.96719e-09
-2.97204e-09
-2.88626e-09
5.06006e-09
-2.66027e-09
-3.47999e-09
1.95318e-09
-2.25273e-09
-3.74193e-09
-6.1596e-10
-1.86642e-09
-3.57924e-09
-2.25287e-09
-1.58383e-09
-2.81217e-09
-3.11987e-09
-1.36594e-09
-1.42736e-09
-3.31325e-09
-1.17717e-09
2.65836e-10
-3.08392e-09
-9.92186e-10
1.65629e-09
-2.32003e-09
-8.03726e-10
2.25553e-09
-8.34922e-10
-6.69911e-10
2.15448e-09
1.19189e-09
-6.87104e-10
2.07166e-09
2.806e-09
-3.13138e-10
1.42102e-09
3.50868e-09
4.19094e-10
3.9262e-09
-1.96441e-10
1.4881e-09
-1.66986e-08
1.4881e-09
-5.26767e-09
1.4582e-09
-8.82865e-10
-1.00098e-08
1.72517e-09
-1.65023e-09
-1.31104e-08
2.79741e-09
-2.56509e-09
-1.4601e-08
3.65529e-09
-3.14742e-09
-1.42842e-08
3.39653e-09
-3.31408e-09
-1.21654e-08
2.12606e-09
-3.08993e-09
-8.93339e-09
4.72759e-10
-2.67041e-09
-5.43022e-09
-5.59592e-10
-2.11358e-09
-2.34361e-09
-2.74367e-10
-1.70758e-09
-6.22457e-11
1.63976e-09
-1.52945e-09
1.3822e-09
4.68653e-09
-1.63608e-09
2.25258e-09
8.11584e-09
-1.87461e-09
2.7353e-09
1.08168e-08
-2.02341e-09
2.9243e-09
1.20471e-08
-1.93511e-09
2.80114e-09
1.15855e-08
-1.62439e-09
2.23705e-09
9.59769e-09
-1.12595e-09
1.16291e-09
6.62152e-09
-5.95693e-10
-2.7818e-10
3.53689e-09
-2.57065e-10
-1.81125e-09
1.01152e-09
-1.57872e-10
-2.88346e-09
-8.049e-10
-3.38849e-10
-3.19211e-09
-1.94238e-09
-7.12228e-10
-2.67046e-09
-2.46984e-09
-1.11083e-09
-1.72988e-09
-2.2747e-09
-1.45305e-09
-8.07607e-10
-1.19374e-09
-1.77151e-09
-2.26321e-10
8.79634e-10
-2.07755e-09
1.60663e-10
3.10291e-09
-2.1391e-09
3.30634e-10
4.66137e-09
-1.89793e-09
-2.6288e-10
6.32819e-09
-2.0946e-09
6.62114e-09
-2.76829e-09
-2.04543e-09
-1.25257e-08
-2.04543e-09
-7.08533e-09
1.05484e-08
-3.80022e-09
-1.00342e-08
8.76323e-09
-3.82991e-09
-1.14171e-08
8.33669e-09
-3.88672e-09
-1.12362e-08
7.16024e-09
-3.42958e-09
-9.68209e-09
4.77012e-09
-2.70682e-09
-7.39159e-09
1.78242e-09
-1.77376e-09
-5.08411e-09
-8.35591e-10
-8.72736e-10
-3.17436e-09
-2.17685e-09
-1.99064e-10
-1.84229e-09
-1.58089e-09
5.48183e-11
-9.08049e-10
8.59183e-10
-7.0366e-11
1.44923e-10
4.16325e-09
-4.40257e-10
1.55033e-09
7.58705e-09
-7.94398e-10
3.18722e-09
1.00564e-08
-8.26417e-10
4.62415e-09
1.11188e-08
-5.14949e-10
5.34748e-09
1.07206e-08
7.08554e-11
5.064e-09
9.11233e-09
6.53387e-10
3.62663e-09
6.89005e-09
1.05701e-09
1.38437e-09
4.60617e-09
1.12832e-09
-9.52431e-10
2.56397e-09
8.61646e-10
-2.71799e-09
8.14307e-10
3.6718e-10
-3.59644e-09
-6.97022e-10
-2.56191e-11
-3.70053e-09
-1.61367e-09
-3.48238e-10
-3.47775e-09
-1.48782e-09
-6.07288e-10
-3.2903e-09
-1.16182e-10
-9.00646e-10
-3.06312e-09
2.12574e-09
-1.13902e-09
-2.62852e-09
4.20887e-09
-1.19707e-09
-2.37374e-09
6.18182e-09
-1.38319e-09
-1.82127e-09
8.15825e-09
-1.92109e-09
6.11723e-09
-8.32463e-10
-4.17152e-09
-4.02922e-09
-4.17152e-09
-5.93455e-09
1.67887e-08
-4.20098e-09
-6.39899e-09
1.30446e-08
-3.58201e-09
-5.78428e-09
1.08546e-08
-2.9423e-09
-4.32799e-09
7.78707e-09
-1.95341e-09
-2.59044e-09
3.96918e-09
-8.7028e-10
-1.23585e-09
3.52499e-10
9.26464e-11
-7.4607e-10
-1.98766e-09
6.58479e-10
-9.88878e-10
-2.73436e-09
8.07609e-10
-1.568e-09
-1.42975e-09
4.70437e-10
-1.68243e-09
1.17077e-09
-1.14165e-10
-8.32242e-10
4.10016e-09
-6.8052e-10
1.00436e-09
6.66952e-09
-8.22439e-10
3.25295e-09
8.44373e-09
-5.84304e-10
5.16721e-09
9.21964e-09
-2.71603e-11
6.04512e-09
9.18789e-09
5.90773e-10
5.59322e-09
8.50859e-09
9.83395e-10
3.95392e-09
7.39278e-09
1.11814e-09
1.75294e-09
5.88294e-09
1.01458e-09
-2.97588e-10
4.02235e-09
8.13335e-10
-1.68477e-09
1.87132e-09
6.58627e-10
-2.46215e-09
-2.74626e-10
7.31781e-10
-3.04765e-09
-1.68831e-09
1.02158e-09
-3.71792e-09
-1.78601e-09
1.28218e-09
-4.385e-09
-5.50606e-10
1.38567e-09
-4.58539e-09
1.15145e-09
1.4845e-09
-4.24269e-09
2.69571e-09
1.55939e-09
-3.44245e-09
4.27671e-09
1.59201e-09
-1.23337e-09
4.57485e-09
1.94525e-09
1.43816e-09
3.94498e-09
-3.66504e-09
3.45406e-09
-3.66504e-09
-2.48745e-09
1.85193e-08
-2.70255e-09
-1.29326e-09
1.40972e-08
-2.10633e-09
2.94039e-10
1.07686e-08
-1.42686e-09
1.88588e-09
6.89016e-09
-6.86405e-10
2.92739e-09
2.94227e-09
-5.22472e-11
2.96036e-09
4.87297e-12
2.66777e-10
1.95272e-09
-1.25251e-09
2.55578e-10
3.3598e-10
-9.40049e-10
-1.31276e-10
-9.99589e-10
6.01022e-10
-5.75411e-10
-1.34904e-09
2.59541e-09
-8.99313e-10
-4.29152e-10
4.22246e-09
-8.49957e-10
1.37055e-09
5.51489e-09
-4.82932e-10
3.28572e-09
6.40965e-09
2.18055e-10
4.6164e-09
7.14159e-09
7.80553e-10
4.93154e-09
7.7647e-09
1.10646e-09
4.28122e-09
8.042e-09
1.13372e-09
3.05523e-09
7.71392e-09
9.90755e-10
1.78653e-09
6.52937e-09
7.98305e-10
8.06852e-10
4.43513e-09
8.1127e-10
9.85323e-11
1.82167e-09
1.01472e-09
-7.67602e-10
-5.73395e-10
1.37357e-09
-2.04851e-09
-1.92027e-09
1.64505e-09
-3.52426e-09
-1.94449e-09
1.7141e-09
-4.60466e-09
-1.05354e-09
1.67517e-09
-4.6066e-09
-5.19869e-10
1.8412e-09
-3.7326e-09
-1.2467e-10
2.216e-09
-1.88275e-09
3.85511e-12
2.77729e-09
3.53422e-12
-6.87914e-10
3.77874e-09
-1.19908e-09
2.93019e-09
-2.26092e-09
8.08036e-09
-2.26092e-09
2.59382e-10
1.74869e-08
-1.36177e-09
2.35389e-09
1.32827e-08
-1.21105e-09
4.0862e-09
9.93646e-09
-8.82618e-10
5.44205e-09
6.07841e-09
-5.63187e-10
5.89224e-09
2.79424e-09
-3.26565e-10
5.2992e-09
7.96794e-10
-1.88294e-10
3.95289e-09
2.96517e-10
-1.22671e-10
2.38252e-09
8.82649e-10
-8.84813e-11
1.23096e-09
1.89749e-09
8.92221e-11
9.69098e-10
2.66407e-09
4.58986e-10
1.47489e-09
2.89868e-09
1.06547e-09
2.22793e-09
3.20544e-09
1.74419e-09
2.66841e-09
3.79361e-09
2.28851e-09
2.60358e-09
4.82559e-09
2.43687e-09
2.14096e-09
6.09865e-09
2.16923e-09
1.63199e-09
6.92984e-09
1.68891e-09
1.36531e-09
6.78801e-09
1.30691e-09
1.28039e-09
5.58183e-09
1.1752e-09
1.09439e-09
3.51845e-09
1.226e-09
3.01449e-10
1.29882e-09
1.36948e-09
-1.38083e-09
-1.98292e-10
1.27234e-09
-3.50817e-09
-6.17836e-10
7.32991e-10
-5.13689e-09
-3.33591e-10
-6.18278e-11
-5.45492e-09
-1.59445e-10
-5.76806e-10
-4.56338e-09
-7.51781e-10
-5.57831e-10
-3.08001e-09
-1.08172e-09
-3.45647e-10
-1.58131e-09
-9.86851e-10
-2.85479e-10
-8.83787e-10
-4.93987e-10
-6.53308e-10
9.42296e-10
-2.85591e-09
-1.21103e-09
1.0567e-08
-1.21103e-09
1.86486e-09
1.52656e-08
-7.53807e-10
4.2266e-09
1.17087e-08
-7.24854e-10
6.23456e-09
8.36108e-09
-3.96135e-10
7.64578e-09
4.6308e-09
6.4575e-11
8.14697e-09
1.81747e-09
5.24116e-10
7.73327e-09
3.69965e-10
9.37904e-10
6.72597e-09
1.5477e-10
1.31038e-09
5.60548e-09
4.86731e-10
1.73457e-09
4.75631e-09
6.82224e-10
2.30987e-09
4.07279e-09
5.63972e-10
3.01426e-09
3.18262e-09
1.32471e-10
3.83466e-09
1.80607e-09
4.89022e-10
4.20229e-09
1.92589e-10
1.59018e-09
3.86826e-09
-1.21885e-09
3.2325e-09
3.02977e-09
-1.82858e-09
4.70697e-09
2.03356e-09
-1.54487e-09
5.40614e-09
1.2922e-09
-7.50107e-10
5.03062e-09
1.01646e-09
-1.51341e-10
3.96712e-09
1.02882e-09
-5.17577e-10
2.72041e-09
1.09609e-09
-2.18803e-09
1.87027e-09
9.42619e-10
-4.61047e-09
1.7749e-09
2.47041e-10
-6.69664e-09
2.13319e-09
-8.34974e-10
-7.35993e-09
1.72407e-09
-1.46031e-09
-6.26647e-09
2.24581e-10
-1.41577e-09
-4.53547e-09
-1.0929e-09
-1.23267e-09
-3.10062e-09
-9.50549e-10
-1.3625e-09
-2.43653e-09
5.66793e-10
-1.99116e-09
-2.52915e-09
3.30564e-09
-3.46366e-09
1.89698e-09
-3.27618e-09
-3.33933e-10
1.12954e-08
-3.33933e-10
3.13699e-09
1.15998e-08
3.09161e-10
5.89779e-09
8.42711e-09
6.0506e-10
8.19685e-09
4.90415e-09
1.22563e-09
9.66521e-09
1.39699e-09
1.83043e-09
1.02246e-08
-1.01393e-09
2.35174e-09
1.00246e-08
-2.10147e-09
2.77772e-09
9.32178e-09
-2.2006e-09
3.18962e-09
8.35565e-09
-2.08919e-09
3.68126e-09
7.11223e-09
-2.07974e-09
4.12572e-09
5.18039e-09
-1.87665e-09
4.45066e-09
2.34109e-09
-1.16223e-09
4.16271e-09
-7.85296e-10
3.25488e-10
3.28344e-09
-3.43506e-09
2.20058e-09
2.02619e-09
-4.91955e-09
4.00072e-09
7.22074e-10
-4.83919e-09
4.56436e-09
9.15076e-11
-3.5823e-09
4.27382e-09
-9.83539e-11
-2.36052e-09
3.677e-09
1.07444e-10
-2.20669e-09
3.28658e-09
4.09764e-10
-3.51667e-09
3.47968e-09
3.34465e-10
-5.68657e-09
4.07777e-09
-3.08859e-10
-7.68591e-09
4.5846e-09
-1.05487e-09
-8.19844e-09
3.72319e-09
-1.21774e-09
-6.99809e-09
1.20272e-09
-6.83599e-10
-5.268e-09
-1.73004e-09
3.2732e-10
-4.13398e-09
-2.82149e-09
7.51468e-10
-3.60768e-09
-1.81512e-09
5.2119e-10
-3.2202e-09
4.81353e-10
-9.07886e-11
-1.97707e-09
2.90575e-09
-6.21149e-10
-5.473e-10
6.17033e-10
1.15667e-09
9.05112e-09
1.15667e-09
5.05889e-09
5.78919e-09
2.03111e-09
7.9385e-09
3.0978e-09
2.53977e-09
1.00264e-08
-2.54683e-10
3.1426e-09
1.10046e-08
-3.17563e-09
3.65458e-09
1.09764e-08
-4.87449e-09
3.94328e-09
1.03323e-08
-5.29549e-09
3.88612e-09
9.47883e-09
-5.02678e-09
3.71173e-09
8.24762e-09
-4.385e-09
3.52976e-09
6.26488e-09
-3.39402e-09
3.26177e-09
3.30256e-09
-1.78641e-09
2.80476e-09
-2.70016e-10
4.8416e-10
1.85001e-09
-3.71053e-09
3.06864e-09
6.45689e-10
-5.82452e-09
4.56425e-09
-2.50912e-10
-6.06396e-09
4.75931e-09
-4.68379e-10
-4.92819e-09
3.7763e-09
-2.78213e-10
-3.62951e-09
2.63615e-09
3.71839e-10
-3.43306e-09
2.66883e-09
7.54611e-10
-4.6685e-09
3.62489e-09
7.29649e-10
-6.76702e-09
5.27246e-09
5.77481e-11
-8.46019e-09
6.28204e-09
-7.69547e-10
-8.59351e-09
5.47128e-09
-9.48909e-10
-7.0724e-09
2.28847e-09
-1.84046e-10
-5.07095e-09
-1.94397e-09
1.12641e-09
-4.19901e-09
-4.56325e-09
1.97472e-09
-4.26358e-09
-4.53599e-09
1.79961e-09
-4.15315e-09
-3.30597e-09
1.41798e-09
-3.21648e-09
-2.06143e-09
1.65759e-09
-1.04114e-09
-1.35659e-09
2.1042e-09
-3.4502e-09
1.80024e-09
2.8612e-09
3.39515e-09
2.8612e-09
6.72159e-09
-1.72374e-09
3.78222e-09
9.26249e-09
-3.61738e-09
4.27578e-09
1.04936e-08
-5.90059e-09
4.49972e-09
1.04635e-08
-7.44598e-09
4.36614e-09
9.66227e-09
-7.85849e-09
3.82441e-09
8.69839e-09
-7.53212e-09
3.20215e-09
7.73265e-09
-6.77603e-09
2.66817e-09
6.39873e-09
-5.51261e-09
2.36331e-09
4.21625e-09
-3.40894e-09
2.06064e-09
1.22594e-09
-5.56269e-10
1.61594e-09
-1.89188e-09
2.52389e-09
9.676e-10
-4.02215e-09
4.43547e-09
7.22058e-10
-4.64397e-09
4.39965e-09
8.23909e-10
-3.93143e-09
2.71386e-09
1.42417e-09
-3.10969e-09
8.47142e-10
2.19955e-09
-3.42156e-09
6.66321e-11
2.91573e-09
-5.18418e-09
1.50239e-09
2.87082e-09
-7.6828e-09
4.00354e-09
1.9775e-09
-9.48609e-09
6.05921e-09
8.36433e-10
-9.7e-09
5.78735e-09
5.47957e-10
-7.94267e-09
2.54832e-09
1.05668e-09
-5.74904e-09
-2.15566e-09
2.18247e-09
-4.95199e-09
-5.66148e-09
2.85735e-09
-5.59551e-09
-6.53149e-09
2.53398e-09
-6.14021e-09
-5.51938e-09
1.45315e-09
-5.53644e-09
-5.11316e-09
1.14557e-09
-3.82403e-09
-5.19079e-09
1.33544e-09
-1.50042e-09
-5.07385e-09
1.2522e-09
-6.57216e-09
1.51825e-09
4.27924e-09
-5.09187e-09
4.27924e-09
7.26558e-09
-9.23786e-09
4.70234e-09
9.14826e-09
-1.00708e-08
4.72659e-09
9.59926e-09
-1.0682e-08
4.46971e-09
8.99684e-09
-1.06566e-08
3.91805e-09
8.05866e-09
-1.01344e-08
3.26435e-09
7.21394e-09
-9.50075e-09
2.79075e-09
6.33989e-09
-8.65571e-09
2.65081e-09
5.00944e-09
-7.00152e-09
2.64683e-09
2.94846e-09
-4.12132e-09
2.56285e-09
5.35226e-10
-6.53251e-10
2.30854e-09
-1.3139e-09
2.11356e-09
2.11291e-09
-1.93594e-09
2.72146e-09
2.27238e-09
-1.44059e-09
1.03403e-09
2.88511e-09
-1.03083e-09
-1.29233e-09
3.65511e-09
-1.98171e-09
-2.45966e-09
4.31107e-09
-4.42231e-09
-1.35942e-09
3.8761e-09
-7.37167e-09
1.50461e-09
2.90286e-09
-9.56198e-09
4.29473e-09
1.82168e-09
-9.88386e-09
4.58062e-09
1.72313e-09
-8.31176e-09
1.61831e-09
2.53986e-09
-6.41083e-09
-3.13933e-09
3.74397e-09
-6.07904e-09
-7.25241e-09
4.71552e-09
-7.574e-09
-8.57533e-09
4.34439e-09
-8.97074e-09
-8.30533e-09
3.11342e-09
-8.92339e-09
-8.09184e-09
2.50546e-09
-7.66019e-09
-8.64132e-09
2.26721e-09
-5.29675e-09
-9.64579e-09
2.06437e-09
-1.66957e-09
-1.13207e-08
2.59989e-09
-1.2792e-08
4.66378e-09
4.68092e-09
-1.43429e-08
4.68092e-09
7.02427e-09
-1.61705e-08
4.82595e-09
8.49895e-09
-1.60248e-08
4.69031e-09
8.76548e-09
-1.50946e-08
4.3221e-09
8.25392e-09
-1.3863e-08
3.83162e-09
7.56636e-09
-1.28373e-08
3.41746e-09
6.80122e-09
-1.20954e-08
3.28648e-09
5.72942e-09
-1.10443e-08
3.29099e-09
4.0268e-09
-8.71083e-09
3.1723e-09
2.0231e-09
-5.19702e-09
2.81367e-09
4.52759e-10
-1.70423e-09
2.38051e-09
-2.74306e-11
1.80343e-10
2.23845e-09
4.86888e-10
-4.24774e-10
2.54001e-09
8.24199e-10
-2.457e-09
3.13382e-09
-2.00601e-10
-3.80507e-09
3.55934e-09
-2.70488e-09
-2.98027e-09
3.0559e-09
-5.79089e-09
-3.59529e-10
2.10745e-09
-7.9402e-09
2.26705e-09
1.39758e-09
-8.12415e-09
2.77581e-09
1.71107e-09
-6.57737e-09
2.06575e-10
2.83393e-09
-5.06618e-09
-4.27445e-09
4.37529e-09
-5.42003e-09
-8.35342e-09
5.53133e-09
-7.87544e-09
-1.02073e-08
5.34368e-09
-1.05244e-08
-1.00636e-08
4.06941e-09
-1.13318e-08
-1.10947e-08
3.5644e-09
-1.02893e-08
-1.33117e-08
4.18901e-09
-8.82581e-09
-1.42563e-08
4.18203e-09
-5.18936e-09
-1.68108e-08
3.58378e-09
-1.90435e-10
-2.17778e-08
5.61402e-09
-1.96997e-08
6.89428e-09
4.7612e-09
-2.37113e-08
4.7612e-09
6.7538e-09
-2.27115e-08
4.77163e-09
8.10582e-09
-2.1634e-08
4.433e-09
8.62389e-09
-1.9414e-08
3.92104e-09
8.53593e-09
-1.72627e-08
3.53316e-09
8.14579e-09
-1.56832e-08
3.19659e-09
7.24959e-09
-1.43619e-08
3.03899e-09
5.60737e-09
-1.23921e-08
2.79786e-09
3.59456e-09
-9.20959e-09
2.28211e-09
1.70835e-09
-5.31619e-09
1.77868e-09
1.07621e-09
-2.93351e-09
1.67569e-09
1.56165e-09
-2.5213e-09
2.09563e-09
2.20944e-09
-3.89963e-09
2.77553e-09
1.77847e-09
-5.32018e-09
3.29756e-09
-3.07427e-10
-4.98118e-09
3.29851e-09
-3.13988e-09
-2.95108e-09
2.85464e-09
-5.2188e-09
-6.7956e-10
2.45563e-09
-5.51478e-09
-1.6073e-10
2.77998e-09
-4.25398e-09
-2.20563e-09
3.76754e-09
-3.3603e-09
-5.70956e-09
5.04438e-09
-4.36377e-09
-8.96524e-09
5.67327e-09
-7.20248e-09
-1.07257e-08
5.13783e-09
-1.04827e-08
-1.10214e-08
3.9836e-09
-1.22776e-08
-1.14135e-08
3.0312e-09
-1.16829e-08
-1.48582e-08
3.07087e-09
-9.93252e-09
-1.91023e-08
3.94502e-09
-7.86108e-09
-2.08168e-08
4.40875e-09
-4.05687e-09
-2.54002e-08
4.79079e-09
-7.33619e-10
-3.04024e-08
5.3877e-09
-2.24305e-08
1.93756e-09
4.3918e-09
-3.2362e-08
4.3918e-09
6.34118e-09
-2.86412e-08
4.07143e-09
7.91851e-09
-2.66662e-08
3.49952e-09
9.02136e-09
-2.34823e-08
2.97e-09
9.70777e-09
-2.05701e-08
2.58927e-09
9.69875e-09
-1.82548e-08
2.51623e-09
8.7273e-09
-1.59745e-08
2.49206e-09
6.78884e-09
-1.29372e-08
2.37184e-09
4.77363e-09
-9.45272e-09
2.13993e-09
3.7247e-09
-6.58859e-09
2.21259e-09
3.72692e-09
-5.78793e-09
2.76684e-09
4.36938e-09
-6.84975e-09
3.62992e-09
4.38083e-09