/*--------------------------------*- C++ -*----------------------------------*\
| =========                 |                                                 |
| \\      /  F ield         | OpenFOAM: The Open Source CFD Toolbox           |
|  \\    /   O peration     | Version:  2312                                  |
|   \\  /    A nd           | Website:  www.openfoam.com                      |
|    \\/     M anipulation  |                                                 |
\*---------------------------------------------------------------------------*/
FoamFile
{
    version     2.0;
    format      ascii;
    arch        "LSB;label=32;scalar=64";
    class       volScalarField;
    location    "1.2036445";
    object      epsilon;
}
// * * * * * * * * * * * * * * * * * * * * * * * * * * * * * * * * * * * * * //

dimensions      [0 2 -3 0 0 0 0];

internalField   nonuniform List<scalar> 
90000
(
8.60641e-06
8.60895e-06
8.60944e-06
8.60964e-06
8.60971e-06
8.60963e-06
8.60947e-06
8.6093e-06
8.60912e-06
8.60891e-06
8.60868e-06
8.60847e-06
8.60837e-06
8.60845e-06
8.60858e-06
8.60873e-06
8.60902e-06
8.60959e-06
8.61011e-06
8.61017e-06
8.60962e-06
8.60869e-06
8.60913e-06
8.61086e-06
8.61241e-06
8.61309e-06
8.61255e-06
8.61157e-06
8.6131e-06
8.61703e-06
8.60983e-06
8.66079e-06
8.66534e-06
8.66534e-06
8.66502e-06
8.66475e-06
8.66465e-06
8.66462e-06
8.66454e-06
8.6644e-06
8.66439e-06
8.66459e-06
8.66482e-06
8.665e-06
8.66511e-06
8.66515e-06
8.66511e-06
8.66499e-06
8.66477e-06
8.66452e-06
8.66476e-06
8.66526e-06
8.66568e-06
8.6657e-06
8.66517e-06
8.66444e-06
8.66521e-06
8.66764e-06
8.6654e-06
8.62568e-06
8.61033e-06
8.66545e-06
8.67036e-06
8.67038e-06
8.67013e-06
8.66997e-06
8.66997e-06
8.67002e-06
8.66995e-06
8.66973e-06
8.6697e-06
8.67003e-06
8.67053e-06
8.67097e-06
8.67108e-06
8.67077e-06
8.67013e-06
8.66953e-06
8.67001e-06
8.67088e-06
8.67145e-06
8.67162e-06
8.67155e-06
8.67149e-06
8.67185e-06
8.6726e-06
8.67306e-06
8.67476e-06
8.6763e-06
8.62306e-06
8.61009e-06
8.66563e-06
8.67072e-06
8.6709e-06
8.67079e-06
8.67069e-06
8.67066e-06
8.67068e-06
8.67065e-06
8.67047e-06
8.67029e-06
8.67047e-06
8.6708e-06
8.67112e-06
8.6711e-06
8.67073e-06
8.67035e-06
8.67074e-06
8.67159e-06
8.67211e-06
8.67213e-06
8.67188e-06
8.67229e-06
8.67352e-06
8.67467e-06
8.6755e-06
8.67644e-06
8.67624e-06
8.67547e-06
8.61691e-06
8.60953e-06
8.66544e-06
8.67071e-06
8.67106e-06
8.67107e-06
8.67096e-06
8.67081e-06
8.67075e-06
8.67076e-06
8.67074e-06
8.6707e-06
8.67061e-06
8.67046e-06
8.6702e-06
8.67014e-06
8.67065e-06
8.67134e-06
8.67187e-06
8.67205e-06
8.67183e-06
8.67146e-06
8.67175e-06
8.67292e-06
8.67419e-06
8.675e-06
8.675e-06
8.67452e-06
8.67434e-06
8.6702e-06
8.61393e-06
8.60917e-06
8.6655e-06
8.67072e-06
8.67114e-06
8.67124e-06
8.67116e-06
8.67097e-06
8.6708e-06
8.67074e-06
8.67082e-06
8.67098e-06
8.67122e-06
8.67142e-06
8.6714e-06
8.67126e-06
8.67137e-06
8.67163e-06
8.67174e-06
8.67156e-06
8.67128e-06
8.67137e-06
8.67192e-06
8.67262e-06
8.67311e-06
8.67329e-06
8.67317e-06
8.67287e-06
8.6753e-06
8.67084e-06
8.61396e-06
8.60951e-06
8.66588e-06
8.67101e-06
8.67149e-06
8.67177e-06
8.67194e-06
8.67192e-06
8.6716e-06
8.67109e-06
8.67086e-06
8.67111e-06
8.67168e-06
8.67231e-06
8.67257e-06
8.67226e-06
8.67152e-06
8.6708e-06
8.67051e-06
8.67078e-06
8.67129e-06
8.67174e-06
8.67194e-06
8.67173e-06
8.67118e-06
8.67119e-06
8.67289e-06
8.67499e-06
8.67723e-06
8.67259e-06
8.61359e-06
8.60986e-06
8.66689e-06
8.67176e-06
8.67226e-06
8.67266e-06
8.67302e-06
8.67318e-06
8.67296e-06
8.67229e-06
8.67139e-06
8.6713e-06
8.67176e-06
8.67235e-06
8.67261e-06
8.67223e-06
8.67122e-06
8.66999e-06
8.66953e-06
8.67044e-06
8.67128e-06
8.67168e-06
8.67153e-06
8.67089e-06
8.6706e-06
8.6719e-06
8.67394e-06
8.67585e-06
8.6768e-06
8.67134e-06
8.61262e-06
8.61046e-06
8.66826e-06
8.67276e-06
8.67311e-06
8.67345e-06
8.67382e-06
8.67405e-06
8.67398e-06
8.67359e-06
8.67292e-06
8.67223e-06
8.67184e-06
8.67168e-06
8.67165e-06
8.67161e-06
8.67147e-06
8.67127e-06
8.67119e-06
8.67139e-06
8.67166e-06
8.67168e-06
8.67132e-06
8.67079e-06
8.67118e-06
8.67267e-06
8.67428e-06
8.6754e-06
8.67524e-06
8.66947e-06
8.61177e-06
8.61221e-06
8.66886e-06
8.673e-06
8.67318e-06
8.67329e-06
8.67344e-06
8.67364e-06
8.6739e-06
8.67406e-06
8.67397e-06
8.67346e-06
8.67245e-06
8.67118e-06
8.67057e-06
8.67113e-06
8.67222e-06
8.67317e-06
8.67374e-06
8.6739e-06
8.67369e-06
8.67314e-06
8.67234e-06
8.6716e-06
8.6716e-06
8.67258e-06
8.67355e-06
8.67395e-06
8.67338e-06
8.66801e-06
8.61147e-06
8.61373e-06
8.66865e-06
8.67255e-06
8.67258e-06
8.67231e-06
8.67198e-06
8.67196e-06
8.67248e-06
8.67325e-06
8.67382e-06
8.67381e-06
8.67311e-06
8.67188e-06
8.67075e-06
8.67102e-06
8.67257e-06
8.67422e-06
8.67548e-06
8.6762e-06
8.67613e-06
8.67533e-06
8.67405e-06
8.67272e-06
8.67191e-06
8.67218e-06
8.67274e-06
8.67313e-06
8.6729e-06
8.66797e-06
8.61214e-06
8.61382e-06
8.66916e-06
8.67307e-06
8.67299e-06
8.67261e-06
8.67216e-06
8.67194e-06
8.6721e-06
8.67249e-06
8.67294e-06
8.67321e-06
8.67313e-06
8.67256e-06
8.67148e-06
8.67065e-06
8.67226e-06
8.67451e-06
8.67628e-06
8.67714e-06
8.67697e-06
8.67597e-06
8.67453e-06
8.67302e-06
8.67186e-06
8.67204e-06
8.67271e-06
8.67329e-06
8.67338e-06
8.66908e-06
8.6129e-06
8.6131e-06
8.67007e-06
8.67423e-06
8.67463e-06
8.67532e-06
8.67596e-06
8.67629e-06
8.67609e-06
8.67513e-06
8.67372e-06
8.67299e-06
8.67341e-06
8.67373e-06
8.67362e-06
8.67337e-06
8.67374e-06
8.67462e-06
8.67526e-06
8.67537e-06
8.67503e-06
8.67441e-06
8.67362e-06
8.67274e-06
8.67208e-06
8.6724e-06
8.67295e-06
8.67348e-06
8.67386e-06
8.66949e-06
8.61329e-06
8.61555e-06
8.66999e-06
8.67532e-06
8.67679e-06
8.6786e-06
8.67998e-06
8.68043e-06
8.67958e-06
8.67754e-06
8.67501e-06
8.6731e-06
8.67345e-06
8.67467e-06
8.67574e-06
8.67629e-06
8.67623e-06
8.67539e-06
8.67377e-06
8.67219e-06
8.67177e-06
8.6723e-06
8.67279e-06
8.67292e-06
8.67282e-06
8.67288e-06
8.67319e-06
8.67376e-06
8.67414e-06
8.66947e-06
8.61382e-06
8.61888e-06
8.66891e-06
8.67719e-06
8.67961e-06
8.68143e-06
8.68214e-06
8.68152e-06
8.6797e-06
8.67718e-06
8.67462e-06
8.67262e-06
8.67288e-06
8.67472e-06
8.67653e-06
8.67749e-06
8.6773e-06
8.67596e-06
8.67381e-06
8.67179e-06
8.67088e-06
8.67165e-06
8.67283e-06
8.67354e-06
8.67365e-06
8.67342e-06
8.67385e-06
8.67469e-06
8.67511e-06
8.67079e-06
8.61566e-06
8.61999e-06
8.67428e-06
8.68059e-06
8.68183e-06
8.68201e-06
8.68099e-06
8.67908e-06
8.67699e-06
8.67525e-06
8.6738e-06
8.6725e-06
8.67258e-06
8.67441e-06
8.67627e-06
8.67725e-06
8.67714e-06
8.67622e-06
8.67486e-06
8.67344e-06
8.67246e-06
8.67231e-06
8.6732e-06
8.67408e-06
8.67436e-06
8.67449e-06
8.67521e-06
8.67624e-06
8.67726e-06
8.67406e-06
8.61776e-06
8.61869e-06
8.67993e-06
8.68335e-06
8.68263e-06
8.68076e-06
8.67826e-06
8.6759e-06
8.67476e-06
8.6747e-06
8.67424e-06
8.67348e-06
8.67346e-06
8.67459e-06
8.67581e-06
8.67645e-06
8.67653e-06
8.67625e-06
8.67557e-06
8.67464e-06
8.67388e-06
8.67366e-06
8.67381e-06
8.67429e-06
8.67481e-06
8.67552e-06
8.67665e-06
8.67796e-06
8.67916e-06
8.6752e-06
8.61794e-06
8.61856e-06
8.68299e-06
8.68502e-06
8.68329e-06
8.68088e-06
8.67834e-06
8.67632e-06
8.67539e-06
8.67528e-06
8.67492e-06
8.67463e-06
8.67443e-06
8.67457e-06
8.6748e-06
8.67503e-06
8.67542e-06
8.67572e-06
8.67576e-06
8.67553e-06
8.67523e-06
8.67501e-06
8.67494e-06
8.67521e-06
8.67571e-06
8.67684e-06
8.67822e-06
8.67935e-06
8.67981e-06
8.67448e-06
8.6174e-06
8.62189e-06
8.68416e-06
8.68649e-06
8.68479e-06
8.68264e-06
8.6807e-06
8.67916e-06
8.67783e-06
8.67651e-06
8.67557e-06
8.67491e-06
8.67416e-06
8.6736e-06
8.67328e-06
8.67331e-06
8.67384e-06
8.67466e-06
8.6754e-06
8.67584e-06
8.67592e-06
8.67581e-06
8.6758e-06
8.67608e-06
8.67754e-06
8.6794e-06
8.68045e-06
8.68072e-06
8.68016e-06
8.67457e-06
8.61852e-06
8.62543e-06
8.68463e-06
8.68768e-06
8.68619e-06
8.68437e-06
8.6828e-06
8.68151e-06
8.68013e-06
8.67859e-06
8.67707e-06
8.67565e-06
8.67425e-06
8.67304e-06
8.67216e-06
8.67187e-06
8.67258e-06
8.67387e-06
8.67505e-06
8.67585e-06
8.67629e-06
8.67657e-06
8.6773e-06
8.67929e-06
8.68138e-06
8.68243e-06
8.68248e-06
8.68229e-06
8.68208e-06
8.6777e-06
8.62155e-06
8.62864e-06
8.685e-06
8.68847e-06
8.68728e-06
8.68596e-06
8.68489e-06
8.68381e-06
8.68243e-06
8.68076e-06
8.6789e-06
8.67694e-06
8.67501e-06
8.67353e-06
8.67275e-06
8.67272e-06
8.6735e-06
8.67461e-06
8.67563e-06
8.67664e-06
8.67772e-06
8.67925e-06
8.68139e-06
8.68333e-06
8.68412e-06
8.68379e-06
8.68343e-06
8.68369e-06
8.68424e-06
8.68038e-06
8.62441e-06
8.63144e-06
8.68578e-06
8.68989e-06
8.68907e-06
8.68808e-06
8.68708e-06
8.68582e-06
8.68422e-06
8.68236e-06
8.68026e-06
8.67805e-06
8.67635e-06
8.67551e-06
8.67517e-06
8.6749e-06
8.67491e-06
8.67539e-06
8.67654e-06
8.67835e-06
8.68067e-06
8.68323e-06
8.68523e-06
8.6859e-06
8.68532e-06
8.68502e-06
8.68548e-06
8.68632e-06
8.687e-06
8.68297e-06
8.62744e-06
8.63418e-06
8.68768e-06
8.69222e-06
8.69169e-06
8.69071e-06
8.68937e-06
8.68768e-06
8.6858e-06
8.68383e-06
8.68186e-06
8.68023e-06
8.67904e-06
8.67789e-06
8.67643e-06
8.67501e-06
8.67455e-06
8.67548e-06
8.67764e-06
8.68059e-06
8.6838e-06
8.68627e-06
8.68724e-06
8.68714e-06
8.68711e-06
8.68778e-06
8.68907e-06
8.69025e-06
8.69073e-06
8.68657e-06
8.63138e-06
8.63746e-06
8.69106e-06
8.69582e-06
8.69531e-06
8.69402e-06
8.69227e-06
8.69037e-06
8.68851e-06
8.68666e-06
8.68482e-06
8.68307e-06
8.68132e-06
8.67915e-06
8.67656e-06
8.67452e-06
8.67457e-06
8.67633e-06
8.67938e-06
8.68313e-06
8.68615e-06
8.68787e-06
8.68858e-06
8.68928e-06
8.69049e-06
8.69223e-06
8.69406e-06
8.69514e-06
8.69564e-06
8.69119e-06
8.63641e-06
8.64212e-06
8.69638e-06
8.70095e-06
8.70019e-06
8.69857e-06
8.69668e-06
8.69484e-06
8.69294e-06
8.69083e-06
8.68858e-06
8.68621e-06
8.68356e-06
8.68033e-06
8.67716e-06
8.67563e-06
8.67591e-06
8.67784e-06
8.68149e-06
8.68495e-06
8.6874e-06
8.68924e-06
8.69125e-06
8.69319e-06
8.69519e-06
8.69755e-06
8.69931e-06
8.70059e-06
8.70136e-06
8.69706e-06
8.64291e-06
8.6491e-06
8.70375e-06
8.70779e-06
8.70663e-06
8.70486e-06
8.70296e-06
8.70095e-06
8.69869e-06
8.69616e-06
8.69341e-06
8.69026e-06
8.68646e-06
8.68247e-06
8.67958e-06
8.67772e-06
8.67743e-06
8.67944e-06
8.68295e-06
8.68636e-06
8.6897e-06
8.69307e-06
8.6958e-06
8.69809e-06
8.70081e-06
8.70305e-06
8.70483e-06
8.70671e-06
8.70826e-06
8.70545e-06
8.64949e-06
8.65883e-06
8.71276e-06
8.71641e-06
8.71507e-06
8.71324e-06
8.71107e-06
8.70853e-06
8.70567e-06
8.70258e-06
8.69893e-06
8.69464e-06
8.69008e-06
8.68622e-06
8.68317e-06
8.68034e-06
8.67957e-06
8.68169e-06
8.68555e-06
8.69016e-06
8.69463e-06
8.69826e-06
8.70131e-06
8.70439e-06
8.7075e-06
8.70988e-06
8.71241e-06
8.715e-06
8.71698e-06
8.7134e-06
8.65795e-06
8.67054e-06
8.72358e-06
8.72727e-06
8.72572e-06
8.72341e-06
8.72059e-06
8.71732e-06
8.71372e-06
8.70978e-06
8.7052e-06
8.70017e-06
8.69558e-06
8.69163e-06
8.68749e-06
8.68364e-06
8.68282e-06
8.68575e-06
8.69061e-06
8.69586e-06
8.70065e-06
8.70503e-06
8.70928e-06
8.71272e-06
8.71625e-06
8.71947e-06
8.72279e-06
8.72573e-06
8.72669e-06
8.72284e-06
8.66896e-06
8.684e-06
8.73657e-06
8.73985e-06
8.73787e-06
8.73508e-06
8.73171e-06
8.72792e-06
8.7237e-06
8.71889e-06
8.7134e-06
8.70787e-06
8.70288e-06
8.69773e-06
8.6923e-06
8.68782e-06
8.6873e-06
8.69114e-06
8.6968e-06
8.70285e-06
8.70863e-06
8.71405e-06
8.71935e-06
8.72364e-06
8.72796e-06
8.73208e-06
8.73573e-06
8.73852e-06
8.73909e-06
8.73524e-06
8.68315e-06
8.69981e-06
8.75167e-06
8.75472e-06
8.7525e-06
8.74942e-06
8.74574e-06
8.74147e-06
8.73645e-06
8.73052e-06
8.72389e-06
8.71745e-06
8.71117e-06
8.70444e-06
8.69773e-06
8.69276e-06
8.69262e-06
8.69727e-06
8.70375e-06
8.71082e-06
8.71791e-06
8.72443e-06
8.73113e-06
8.73708e-06
8.74236e-06
8.74698e-06
8.75078e-06
8.75362e-06
8.75485e-06
8.75218e-06
8.70008e-06
8.71897e-06
8.77024e-06
8.77326e-06
8.77078e-06
8.76726e-06
8.76299e-06
8.75785e-06
8.75173e-06
8.74443e-06
8.7365e-06
8.72876e-06
8.72084e-06
8.71258e-06
8.70477e-06
8.69933e-06
8.69945e-06
8.70486e-06
8.71223e-06
8.72051e-06
8.72908e-06
8.73704e-06
8.74554e-06
8.75317e-06
8.75898e-06
8.76418e-06
8.76838e-06
8.77181e-06
8.77471e-06
8.77231e-06
8.7202e-06
8.74263e-06
8.79345e-06
8.79617e-06
8.79311e-06
8.78884e-06
8.78368e-06
8.7775e-06
8.77017e-06
8.76162e-06
8.75242e-06
8.74302e-06
8.73327e-06
8.72334e-06
8.71428e-06
8.7081e-06
8.70821e-06
8.71448e-06
8.72327e-06
8.73289e-06
8.74298e-06
8.75273e-06
8.76286e-06
8.77134e-06
8.77808e-06
8.78432e-06
8.78971e-06
8.79408e-06
8.79831e-06
8.79591e-06
8.74461e-06
8.77177e-06
8.82171e-06
8.82387e-06
8.82015e-06
8.81502e-06
8.8089e-06
8.80164e-06
8.79308e-06
8.78319e-06
8.77228e-06
8.76065e-06
8.7486e-06
8.73684e-06
8.72654e-06
8.71955e-06
8.71959e-06
8.72679e-06
8.73716e-06
8.74821e-06
8.76013e-06
8.77171e-06
8.78272e-06
8.79239e-06
8.80101e-06
8.80884e-06
8.8154e-06
8.82097e-06
8.82586e-06
8.82369e-06
8.77385e-06
8.80722e-06
8.85587e-06
8.85752e-06
8.85316e-06
8.84709e-06
8.83973e-06
8.83092e-06
8.82059e-06
8.80878e-06
8.7957e-06
8.78187e-06
8.76784e-06
8.75437e-06
8.74276e-06
8.73491e-06
8.73474e-06
8.74263e-06
8.75453e-06
8.76737e-06
8.78125e-06
8.79446e-06
8.80704e-06
8.81866e-06
8.82956e-06
8.83864e-06
8.84656e-06
8.85343e-06
8.8586e-06
8.85695e-06
8.80843e-06
8.84999e-06
8.89727e-06
8.89834e-06
8.89297e-06
8.88557e-06
8.87654e-06
8.86583e-06
8.85342e-06
8.83957e-06
8.82444e-06
8.80861e-06
8.79266e-06
8.77725e-06
8.76377e-06
8.7547e-06
8.75462e-06
8.76341e-06
8.77696e-06
8.79192e-06
8.80786e-06
8.82308e-06
8.838e-06
8.85185e-06
8.86454e-06
8.87493e-06
8.88486e-06
8.8928e-06
8.89837e-06
8.89703e-06
8.84992e-06
8.90157e-06
8.94691e-06
8.94707e-06
8.94049e-06
8.93176e-06
8.92116e-06
8.90858e-06
8.8941e-06
8.87813e-06
8.86085e-06
8.84278e-06
8.8245e-06
8.80665e-06
8.79092e-06
8.78057e-06
8.78095e-06
8.79138e-06
8.80679e-06
8.82408e-06
8.84245e-06
8.85999e-06
8.87755e-06
8.8935e-06
8.90763e-06
8.92008e-06
8.93176e-06
8.94051e-06
8.94639e-06
8.94527e-06
8.90074e-06
8.96358e-06
9.00629e-06
9.00576e-06
8.99841e-06
8.98853e-06
8.97624e-06
8.96161e-06
8.94496e-06
8.92671e-06
8.90706e-06
8.88633e-06
8.86536e-06
8.84511e-06
8.82751e-06
8.81579e-06
8.81626e-06
8.82833e-06
8.84574e-06
8.86557e-06
8.88699e-06
8.90715e-06
8.92705e-06
8.94484e-06
8.96105e-06
8.97575e-06
8.989e-06
8.99823e-06
9.00484e-06
9.00518e-06
8.96316e-06
9.03838e-06
9.07853e-06
9.07768e-06
9.06939e-06
9.05782e-06
9.04339e-06
9.0266e-06
9.00777e-06
8.98714e-06
8.96494e-06
8.9415e-06
8.91796e-06
8.89543e-06
8.87601e-06
8.86271e-06
8.86246e-06
8.87579e-06
8.8958e-06
8.91839e-06
8.94285e-06
8.96563e-06
8.98754e-06
9.0075e-06
9.02672e-06
9.0439e-06
9.0578e-06
9.06873e-06
9.07733e-06
9.07908e-06
9.03903e-06
9.12886e-06
9.16679e-06
9.16495e-06
9.15483e-06
9.14116e-06
9.12465e-06
9.10574e-06
9.08453e-06
9.06123e-06
9.03634e-06
9.01031e-06
8.98432e-06
8.95912e-06
8.9373e-06
8.9226e-06
8.92188e-06
8.93675e-06
8.95955e-06
8.98493e-06
9.01172e-06
9.03682e-06
9.06104e-06
9.08394e-06
9.10609e-06
9.12543e-06
9.1406e-06
9.15433e-06
9.1651e-06
9.16679e-06
9.12924e-06
9.23828e-06
9.2727e-06
9.26934e-06
9.25758e-06
9.24227e-06
9.224e-06
9.20277e-06
9.17891e-06
9.15276e-06
9.12527e-06
9.09657e-06
9.06798e-06
9.04014e-06
9.01537e-06
8.99939e-06
8.99877e-06
9.01541e-06
9.04053e-06
9.06839e-06
9.09725e-06
9.12501e-06
9.15217e-06
9.17836e-06
9.20246e-06
9.22426e-06
9.2419e-06
9.25769e-06
9.26944e-06
9.2716e-06
9.23722e-06
9.36976e-06
9.39997e-06
9.39573e-06
9.38322e-06
9.3666e-06
9.34621e-06
9.3222e-06
9.29596e-06
9.26757e-06
9.23796e-06
9.20674e-06
9.17528e-06
9.14551e-06
9.11753e-06
9.09965e-06
9.09921e-06
9.11759e-06
9.14491e-06
9.17521e-06
9.20618e-06
9.23704e-06
9.26695e-06
9.29579e-06
9.3215e-06
9.34576e-06
9.36658e-06
9.383e-06
9.39523e-06
9.39983e-06
9.36869e-06
9.5287e-06
9.5558e-06
9.55104e-06
9.53714e-06
9.51825e-06
9.49538e-06
9.46904e-06
9.44104e-06
9.41057e-06
9.37888e-06
9.34601e-06
9.31212e-06
9.28107e-06
9.25075e-06
9.23032e-06
9.23117e-06
9.25137e-06
9.28011e-06
9.31269e-06
9.34571e-06
9.37881e-06
9.41013e-06
9.44074e-06
9.46949e-06
9.49492e-06
9.5181e-06
9.53628e-06
9.54981e-06
9.55667e-06
9.52941e-06
9.72349e-06
9.74776e-06
9.74111e-06
9.72476e-06
9.70339e-06
9.67884e-06
9.65052e-06
9.62075e-06
9.58884e-06
9.55569e-06
9.5234e-06
9.48805e-06
9.45519e-06
9.42494e-06
9.40303e-06
9.40409e-06
9.42587e-06
9.45567e-06
9.48872e-06
9.52278e-06
9.5567e-06
9.58917e-06
9.62079e-06
9.65235e-06
9.67892e-06
9.70309e-06
9.72501e-06
9.74138e-06
9.74882e-06
9.72354e-06
9.96421e-06
9.98613e-06
9.97657e-06
9.95826e-06
9.9346e-06
9.90837e-06
9.87867e-06
9.84792e-06
9.81611e-06
9.78311e-06
9.75286e-06
9.72006e-06
9.68938e-06
9.66286e-06
9.64356e-06
9.64428e-06
9.66299e-06
9.69101e-06
9.72098e-06
9.75184e-06
9.78393e-06
9.81651e-06
9.84806e-06
9.8783e-06
9.90804e-06
9.93535e-06
9.95948e-06
9.97663e-06
9.98595e-06
9.96352e-06
1.02681e-05
1.02944e-05
1.02798e-05
1.02596e-05
1.02344e-05
1.02056e-05
1.01732e-05
1.01432e-05
1.01188e-05
1.00939e-05
1.00816e-05
1.0081e-05
1.00942e-05
1.01124e-05
1.01384e-05
1.01436e-05
1.01149e-05
1.00938e-05
1.00825e-05
1.00836e-05
1.00952e-05
1.01177e-05
1.01457e-05
1.01726e-05
1.0204e-05
1.02354e-05
1.02605e-05
1.02781e-05
1.02929e-05
1.02697e-05
1.06962e-05
1.07575e-05
1.07363e-05
1.07291e-05
1.07003e-05
1.06597e-05
1.06323e-05
1.06249e-05
1.06422e-05
1.06986e-05
1.08798e-05
1.12087e-05
1.16936e-05
1.22116e-05
1.27465e-05
1.27709e-05
1.22252e-05
1.16961e-05
1.12222e-05
1.08833e-05
1.07022e-05
1.06423e-05
1.06253e-05
1.0633e-05
1.06614e-05
1.06986e-05
1.07292e-05
1.07383e-05
1.0758e-05
1.06964e-05
1.15497e-05
1.17877e-05
1.18357e-05
1.20426e-05
1.19059e-05
1.18161e-05
1.19725e-05
1.21104e-05
1.24576e-05
1.33321e-05
1.52968e-05
1.87098e-05
2.39439e-05
2.92054e-05
3.39422e-05
3.41995e-05
2.93298e-05
2.39805e-05
1.88652e-05
1.532e-05
1.33514e-05
1.24661e-05
1.21136e-05
1.19759e-05
1.18207e-05
1.19007e-05
1.2046e-05
1.18425e-05
1.17915e-05
1.15487e-05
1.44154e-05
1.56172e-05
1.62271e-05
1.93229e-05
1.72713e-05
1.7246e-05
2.11222e-05
2.16176e-05
2.42579e-05
3.34676e-05
5.25768e-05
7.91761e-05
0.000126804
0.00017
0.000197173
0.000197497
0.000170166
0.000127898
8.05429e-05
5.25768e-05
3.35776e-05
2.43456e-05
2.16556e-05
2.11914e-05
1.72814e-05
1.72605e-05
1.93604e-05
1.62525e-05
1.5666e-05
1.43931e-05
2.61723e-05
3.66069e-05
3.82613e-05
6.82181e-05
4.91653e-05
5.87913e-05
0.000106765
0.000113492
0.000149053
0.000263291
0.000405817
0.000537808
0.000797897
0.000995979
0.00109406
0.00108922
0.000990226
0.000806057
0.000544188
0.000403666
0.000263755
0.000149975
0.00011407
0.000107608
5.91077e-05
4.94438e-05
6.92628e-05
3.83802e-05
3.70561e-05
2.606e-05
8.27139e-05
0.000169809
0.000171406
0.000379189
0.00032658
0.000457875
0.000639254
0.000804661
0.00111683
0.00144989
0.00203576
0.00213801
0.00273888
0.00308725
0.00290738
0.00289843
0.0030525
0.00276316
0.00214141
0.00196282
0.00143257
0.00112121
0.000814554
0.000645385
0.000459675
0.000332409
0.000389321
0.00017273
0.000170732
8.27913e-05
0.000275306
0.000621434
0.000740193
0.00137747
0.00173657
0.00221077
0.00279396
0.00364511
0.00399849
0.0045929
0.00532869
0.00528664
0.00587284
0.00664256
0.00607014
0.00593062
0.00651158
0.00593625
0.00516109
0.00508847
0.0044764
0.00400771
0.00368738
0.0028319
0.0022599
0.00177551
0.001436
0.000751113
0.000622661
0.000279512
0.000471483
0.000734399
0.000974376
0.0018228
0.00269339
0.00366191
0.00421052
0.00466483
0.00533445
0.00657074
0.00749809
0.00704004
0.00681163
0.0073725
0.00774031
0.00752185
0.00730849
0.00687952
0.00665103
0.00698109
0.0064727
0.00539422
0.00470147
0.00427787
0.00377026
0.00288732
0.00192925
0.000997074
0.000739297
0.000470826
0.00066366
0.000826637
0.0010229
0.00178547
0.00246414
0.00291276
0.00378928
0.00487875
0.00547054
0.0068649
0.0064679
0.0059203
0.00612588
0.00645083
0.00610759
0.00612558
0.00657368
0.00638493
0.005976
0.00649081
0.00712551
0.00586727
0.00511033
0.00390353
0.00294354
0.00253102
0.00187863
0.0010448
0.000824492
0.000656124
0.000662713
0.000805632
0.00101408
0.00182554
0.00220061
0.00218549
0.00261904
0.00327963
0.00378459
0.00451559
0.00420589
0.00432551
0.00438553
0.00472704
0.00533661
0.00542845
0.0048767
0.0044719
0.00455749
0.00427275
0.00470005
0.00382946
0.00336907
0.0026905
0.00222927
0.00225411
0.00186979
0.000990692
0.000810003
0.00065929
0.000473109
0.000584235
0.000854709
0.00144076
0.00145114
0.00127518
0.00160286
0.0019098
0.00210827
0.00269239
0.00252867
0.00276966
0.00297441
0.00322142
0.00368656
0.00370805
0.00328099
0.00303415
0.00284544
0.00253975
0.00281374
0.00217391
0.00198257
0.00164816
0.00130197
0.0014711
0.0014582
0.000867546
0.000611117
0.000478005
0.000309277
0.000392231
0.000527539
0.000901654
0.000773044
0.000637766
0.000907817
0.00113641
0.00135196
0.00172088
0.00171158
0.00176261
0.00175699
0.00191568
0.00203475
0.00202577
0.00194753
0.00176474
0.00175936
0.00167899
0.00176911
0.00138667
0.00116064
0.000926809
0.000647847
0.000774171
0.000915459
0.000532562
0.000406804
0.000315835
0.000206319
0.000254476
0.00030138
0.000454407
0.000377454
0.000293827
0.000377974
0.000536581
0.0007831
0.00114807
0.00135418
0.00147604
0.00152223
0.00158874
0.00158459
0.00157941
0.00160693
0.00152659
0.00146423
0.0013352
0.00115792
0.000790223
0.00054396
0.000384844
0.000297519
0.000382827
0.000465052
0.000302235
0.000259699
0.00020914
0.000147472
0.000167963
0.000179639
0.000213749
0.000194599
0.000169174
0.000178667
0.000219723
0.000320033
0.000562024
0.000872751
0.00117656
0.00139607
0.00152629
0.0015425
0.00153918
0.00153521
0.00140016
0.00117085
0.000863542
0.000563946
0.000321046
0.00022176
0.00018095
0.000170821
0.000197887
0.000217715
0.000180527
0.000170592
0.00014822
0.000111914
0.000119064
0.000120404
0.000124702
0.000120116
0.000114819
0.00011591
0.000123564
0.000146542
0.000218341
0.000386229
0.000667524
0.000995608
0.00126106
0.00138232
0.00137971
0.0012657
0.000999423
0.000664618
0.000382354
0.000218905
0.000147175
0.000124406
0.00011619
0.000115359
0.000121878
0.000126224
0.000120801
0.000120185
0.000112584
8.89269e-05
9.17366e-05
9.07968e-05
9.06589e-05
8.94589e-05
8.83071e-05
8.86408e-05
9.09094e-05
9.63051e-05
0.000111729
0.000154062
0.000262683
0.000462591
0.000717898
0.00090564
0.000903414
0.000719222
0.000464369
0.000261787
0.000153267
0.000112289
9.66709e-05
9.1242e-05
8.87949e-05
8.84759e-05
8.99545e-05
9.12484e-05
9.13954e-05
9.22129e-05
8.94303e-05
7.3357e-05
7.41787e-05
7.34403e-05
7.33575e-05
7.30075e-05
7.29403e-05
7.35974e-05
7.46767e-05
7.64616e-05
7.99963e-05
8.83352e-05
0.000110467
0.00016322
0.000254978
0.00035441
0.000353327
0.000254537
0.000163402
0.000110268
8.85143e-05
8.0279e-05
7.66805e-05
7.49711e-05
7.38737e-05
7.32925e-05
7.34146e-05
7.34552e-05
7.39407e-05
7.46151e-05
7.34907e-05
6.20026e-05
6.15748e-05
6.12643e-05
6.13177e-05
6.15418e-05
6.19913e-05
6.28647e-05
6.35815e-05
6.44293e-05
6.54335e-05
6.70936e-05
7.07426e-05
7.90407e-05
9.50717e-05
0.000115418
0.000115418
9.52342e-05
7.92696e-05
7.07954e-05
6.73898e-05
6.5725e-05
6.46115e-05
6.37827e-05
6.29951e-05
6.22959e-05
6.17692e-05
6.14432e-05
6.15131e-05
6.21553e-05
6.25373e-05
5.40188e-05
5.22894e-05
5.20977e-05
5.22864e-05
5.26367e-05
5.3258e-05
5.39756e-05
5.43808e-05
5.48039e-05
5.50747e-05
5.52354e-05
5.5534e-05
5.6381e-05
5.81816e-05
6.06256e-05
6.05993e-05
5.83328e-05
5.66176e-05
5.57788e-05
5.54715e-05
5.51911e-05
5.4913e-05
5.458e-05
5.39534e-05
5.32719e-05
5.26522e-05
5.2389e-05
5.22985e-05
5.2875e-05
5.44637e-05
4.7475e-05
4.51542e-05
4.48174e-05
4.49786e-05
4.5411e-05
4.59284e-05
4.62992e-05
4.65138e-05
4.66136e-05
4.64455e-05
4.60923e-05
4.57447e-05
4.54458e-05
4.52359e-05
4.52021e-05
4.51719e-05
4.53402e-05
4.55949e-05
4.59453e-05
4.62841e-05
4.6545e-05
4.67054e-05
4.66318e-05
4.63047e-05
4.58977e-05
4.5508e-05
4.52661e-05
4.50603e-05
4.55498e-05
4.77232e-05
4.17684e-05
3.93024e-05
3.88924e-05
3.90924e-05
3.94545e-05
3.97584e-05
3.986e-05
3.98346e-05
3.95928e-05
3.91568e-05
3.86478e-05
3.81104e-05
3.75028e-05
3.69362e-05
3.65958e-05
3.66583e-05
3.71245e-05
3.76607e-05
3.82221e-05
3.87958e-05
3.9349e-05
3.97901e-05
3.9948e-05
3.99087e-05
3.97631e-05
3.95673e-05
3.93487e-05
3.91521e-05
3.96011e-05
4.19232e-05
3.67441e-05
3.44248e-05
3.41094e-05
3.42749e-05
3.44431e-05
3.45034e-05
3.44089e-05
3.41625e-05
3.37616e-05
3.32601e-05
3.26624e-05
3.19795e-05
3.12434e-05
3.06387e-05
3.03107e-05
3.03981e-05
3.08202e-05
3.13894e-05
3.20763e-05
3.28118e-05
3.34939e-05
3.40191e-05
3.43186e-05
3.44674e-05
3.45047e-05
3.4443e-05
3.42923e-05
3.42035e-05
3.46595e-05
3.68598e-05
3.23498e-05
3.04232e-05
3.01104e-05
3.01135e-05
3.0093e-05
3.00099e-05
2.98105e-05
2.94619e-05
2.90123e-05
2.84501e-05
2.77883e-05
2.70757e-05
2.63728e-05
2.58061e-05
2.54767e-05
2.55164e-05
2.58828e-05
2.64527e-05
2.71671e-05
2.79265e-05
2.86324e-05
2.92005e-05
2.95967e-05
2.98629e-05
3.00097e-05
3.00542e-05
3.00223e-05
3.00513e-05
3.05084e-05
3.25208e-05
2.87253e-05
2.69356e-05
2.65764e-05
2.64975e-05
2.64281e-05
2.62937e-05
2.60023e-05
2.56054e-05
2.51336e-05
2.45479e-05
2.38814e-05
2.3194e-05
2.25357e-05
2.199e-05
2.16465e-05
2.16483e-05
2.19828e-05
2.25426e-05
2.32481e-05
2.39871e-05
2.46809e-05
2.52634e-05
2.57065e-05
2.60307e-05
2.62645e-05
2.64065e-05
2.64766e-05
2.65688e-05
2.69852e-05
2.87969e-05
2.54259e-05
2.38678e-05
2.35737e-05
2.34759e-05
2.33508e-05
2.31335e-05
2.28058e-05
2.24345e-05
2.19846e-05
2.1424e-05
2.07944e-05
2.01431e-05
1.95216e-05
1.90039e-05
1.86776e-05
1.86687e-05
1.89737e-05
1.94944e-05
2.01446e-05
2.08233e-05
2.14723e-05
2.20487e-05
2.25217e-05
2.28836e-05
2.31576e-05
2.3355e-05
2.34883e-05
2.36124e-05
2.39836e-05
2.55616e-05
2.26282e-05
2.14229e-05
2.11201e-05
2.09519e-05
2.07486e-05
2.04912e-05
2.01907e-05
1.98435e-05
1.9408e-05
1.8884e-05
1.83041e-05
1.76996e-05
1.71205e-05
1.66314e-05
1.63202e-05
1.63013e-05
1.65782e-05
1.70603e-05
1.76621e-05
1.82972e-05
1.89094e-05
1.94587e-05
1.99165e-05
2.02772e-05
2.05672e-05
2.07995e-05
2.0975e-05
2.11225e-05
2.14572e-05
2.27882e-05
2.03789e-05
1.93719e-05
1.90236e-05
1.88133e-05
1.86094e-05
1.83871e-05
1.81136e-05
1.77691e-05
1.73521e-05
1.68703e-05
1.63429e-05
1.57886e-05
1.52558e-05
1.48063e-05
1.45245e-05
1.45158e-05
1.47776e-05
1.52234e-05
1.57703e-05
1.63407e-05
1.6884e-05
1.73776e-05
1.78064e-05
1.81648e-05
1.84609e-05
1.86998e-05
1.88847e-05
1.9036e-05
1.93241e-05
2.04169e-05
1.84227e-05
1.75127e-05
1.7214e-05
1.70491e-05
1.69064e-05
1.67161e-05
1.64421e-05
1.61109e-05
1.5731e-05
1.52896e-05
1.48015e-05
1.42928e-05
1.38131e-05
1.34178e-05
1.31769e-05
1.31815e-05
1.3421e-05
1.38171e-05
1.42979e-05
1.4799e-05
1.528e-05
1.57258e-05
1.61238e-05
1.64656e-05
1.67463e-05
1.69697e-05
1.71408e-05
1.72759e-05
1.75105e-05
1.83964e-05
1.67291e-05
1.59436e-05
1.57391e-05
1.56383e-05
1.55159e-05
1.53204e-05
1.50637e-05
1.47749e-05
1.44342e-05
1.40279e-05
1.35767e-05
1.3116e-05
1.26917e-05
1.23483e-05
1.21418e-05
1.2152e-05
1.23694e-05
1.27201e-05
1.314e-05
1.35775e-05
1.4004e-05
1.44055e-05
1.47688e-05
1.50813e-05
1.53346e-05
1.55311e-05
1.56779e-05
1.57918e-05
1.59824e-05
1.67024e-05
1.52666e-05
1.46724e-05
1.45303e-05
1.44488e-05
1.43222e-05
1.41427e-05
1.39326e-05
1.36824e-05
1.33697e-05
1.30036e-05
1.2606e-05
1.22081e-05
1.18435e-05
1.15439e-05
1.13588e-05
1.1367e-05
1.15602e-05
1.18679e-05
1.22327e-05
1.26131e-05
1.29885e-05
1.33444e-05
1.36667e-05
1.39408e-05
1.41606e-05
1.43298e-05
1.44572e-05
1.45579e-05
1.4717e-05
1.52976e-05
1.40727e-05
1.36459e-05
1.35225e-05
1.34378e-05
1.33295e-05
1.31892e-05
1.3012e-05
1.27779e-05
1.24956e-05
1.21804e-05
1.18462e-05
1.1513e-05
1.11983e-05
1.09281e-05
1.07593e-05
1.07658e-05
1.09388e-05
1.12105e-05
1.15262e-05
1.18522e-05
1.21738e-05
1.24788e-05
1.27553e-05
1.2992e-05
1.31844e-05
1.33348e-05
1.34494e-05
1.35396e-05
1.36704e-05
1.41282e-05
1.31475e-05
1.27893e-05
1.2678e-05
1.26136e-05
1.25302e-05
1.2409e-05
1.22401e-05
1.20259e-05
1.17866e-05
1.15263e-05
1.12525e-05
1.0974e-05
1.06989e-05
1.04568e-05
1.031e-05
1.03181e-05
1.04692e-05
1.07013e-05
1.0967e-05
1.12418e-05
1.15143e-05
1.17754e-05
1.20122e-05
1.22164e-05
1.23856e-05
1.25194e-05
1.26206e-05
1.26978e-05
1.2801e-05
1.31505e-05
1.23534e-05
1.20565e-05
1.19893e-05
1.19436e-05
1.18592e-05
1.17416e-05
1.15887e-05
1.14118e-05
1.12172e-05
1.10044e-05
1.07792e-05
1.05429e-05
1.03044e-05
1.00973e-05
9.97419e-06
9.97911e-06
1.01013e-05
1.02918e-05
1.05154e-05
1.0753e-05
1.09905e-05
1.12164e-05
1.14199e-05
1.15945e-05
1.1738e-05
1.18505e-05
1.19339e-05
1.19964e-05
1.20759e-05
1.23358e-05
1.16585e-05
1.14775e-05
1.14444e-05
1.13862e-05
1.12998e-05
1.11973e-05
1.10738e-05
1.09323e-05
1.07686e-05
1.05875e-05
1.03946e-05
1.01899e-05
9.98625e-06
9.81531e-06
9.71304e-06
9.70907e-06
9.80242e-06
9.96102e-06
1.0157e-05
1.03697e-05
1.05813e-05
1.07766e-05
1.09485e-05
1.10929e-05
1.12088e-05
1.12973e-05
1.13619e-05
1.14104e-05
1.14715e-05
1.16697e-05
1.11469e-05
1.10616e-05
1.10032e-05
1.09294e-05
1.08567e-05
1.07755e-05
1.06778e-05
1.05581e-05
1.04164e-05
1.02624e-05
1.00978e-05
9.92318e-06
9.75354e-06
9.61294e-06
9.52367e-06
9.5111e-06
9.58246e-06
9.71704e-06
9.88951e-06
1.00758e-05
1.02573e-05
1.04214e-05
1.05616e-05
1.06767e-05
1.07682e-05
1.08388e-05
1.08922e-05
1.0933e-05
1.09816e-05
1.11301e-05
1.07702e-05
1.0682e-05
1.06005e-05
1.05467e-05
1.04975e-05
1.04352e-05
1.03557e-05
1.02552e-05
1.01399e-05
1.00153e-05
9.87787e-06
9.73198e-06
9.59259e-06
9.47509e-06
9.39407e-06
9.37801e-06
9.43654e-06
9.54995e-06
9.69299e-06
9.84415e-06
9.98917e-06
1.01206e-05
1.02354e-05
1.03325e-05
1.04117e-05
1.04741e-05
1.05216e-05
1.05569e-05
1.05924e-05
1.06948e-05
1.04171e-05
1.03083e-05
1.02675e-05
1.02468e-05
1.02129e-05
1.01615e-05
1.00931e-05
1.00102e-05
9.91842e-06
9.81507e-06
9.69741e-06
9.57444e-06
9.45935e-06
9.36029e-06
9.29156e-06
9.28098e-06
9.33354e-06
9.42659e-06
9.5388e-06
9.6553e-06
9.76893e-06
9.8775e-06
9.97856e-06
1.00673e-05
1.014e-05
1.01959e-05
1.02363e-05
1.0263e-05
1.02837e-05
1.0347e-05
1.00827e-05
1.003e-05
1.00385e-05
1.00274e-05
9.99441e-06
9.94462e-06
9.88191e-06
9.81279e-06
9.73677e-06
9.64592e-06
9.54262e-06
9.43958e-06
9.34477e-06
9.26348e-06
9.20896e-06
9.20537e-06
9.25426e-06
9.33137e-06
9.4199e-06
9.5122e-06
9.60629e-06
9.70052e-06
9.78942e-06
9.86622e-06
9.92731e-06
9.97216e-06
1.00014e-05
1.00163e-05
1.00229e-05
1.00554e-05
9.84391e-06