/*--------------------------------*- C++ -*----------------------------------*\
| =========                 |                                                 |
| \\      /  F ield         | OpenFOAM: The Open Source CFD Toolbox           |
|  \\    /   O peration     | Version:  2312                                  |
|   \\  /    A nd           | Website:  www.openfoam.com                      |
|    \\/     M anipulation  |                                                 |
\*---------------------------------------------------------------------------*/
FoamFile
{
    version     2.0;
    format      ascii;
    arch        "LSB;label=32;scalar=64";
    class       volScalarField;
    location    "1.2036445";
    object      k;
}
// * * * * * * * * * * * * * * * * * * * * * * * * * * * * * * * * * * * * * //

dimensions      [0 2 -2 0 0 0 0];

internalField   nonuniform List<scalar> 
90000
(
2.23723e-05
2.23768e-05
2.23777e-05
2.2378e-05
2.23782e-05
2.23781e-05
2.23778e-05
2.23776e-05
2.23773e-05
2.23769e-05
2.23764e-05
2.2376e-05
2.23758e-05
2.23759e-05
2.23762e-05
2.23764e-05
2.23769e-05
2.23779e-05
2.23788e-05
2.23789e-05
2.23779e-05
2.23763e-05
2.23772e-05
2.23804e-05
2.23833e-05
2.23845e-05
2.23834e-05
2.23817e-05
2.23849e-05
2.23926e-05
2.23785e-05
2.24697e-05
2.2478e-05
2.2478e-05
2.24775e-05
2.2477e-05
2.24769e-05
2.24769e-05
2.24768e-05
2.24765e-05
2.24766e-05
2.24769e-05
2.24773e-05
2.24776e-05
2.24778e-05
2.24778e-05
2.24777e-05
2.24775e-05
2.24771e-05
2.24767e-05
2.24771e-05
2.24781e-05
2.24789e-05
2.24789e-05
2.2478e-05
2.24767e-05
2.24782e-05
2.24828e-05
2.24788e-05
2.24085e-05
2.23793e-05
2.24782e-05
2.24872e-05
2.24873e-05
2.24869e-05
2.24867e-05
2.24867e-05
2.24868e-05
2.24866e-05
2.24862e-05
2.24862e-05
2.24868e-05
2.24878e-05
2.24886e-05
2.24887e-05
2.24881e-05
2.24869e-05
2.24858e-05
2.24867e-05
2.24883e-05
2.24894e-05
2.24896e-05
2.24895e-05
2.24893e-05
2.24899e-05
2.24913e-05
2.24922e-05
2.24956e-05
2.2499e-05
2.24036e-05
2.23788e-05
2.24786e-05
2.24879e-05
2.24883e-05
2.24881e-05
2.2488e-05
2.2488e-05
2.2488e-05
2.2488e-05
2.24876e-05
2.24873e-05
2.24876e-05
2.24882e-05
2.24888e-05
2.24888e-05
2.24881e-05
2.24873e-05
2.2488e-05
2.24896e-05
2.24905e-05
2.24906e-05
2.249e-05
2.24907e-05
2.2493e-05
2.24951e-05
2.24966e-05
2.24985e-05
2.24982e-05
2.24974e-05
2.23919e-05
2.23778e-05
2.24783e-05
2.24879e-05
2.24886e-05
2.24886e-05
2.24884e-05
2.24882e-05
2.24881e-05
2.24882e-05
2.24881e-05
2.2488e-05
2.24879e-05
2.24876e-05
2.24871e-05
2.2487e-05
2.24879e-05
2.24892e-05
2.24901e-05
2.24904e-05
2.249e-05
2.24893e-05
2.24898e-05
2.24919e-05
2.24943e-05
2.24957e-05
2.24957e-05
2.24949e-05
2.24948e-05
2.24873e-05
2.23861e-05
2.23773e-05
2.24784e-05
2.24879e-05
2.24886e-05
2.24888e-05
2.24887e-05
2.24883e-05
2.24881e-05
2.24881e-05
2.24882e-05
2.24886e-05
2.2489e-05
2.24893e-05
2.24892e-05
2.2489e-05
2.24892e-05
2.24897e-05
2.249e-05
2.24896e-05
2.24891e-05
2.24892e-05
2.24902e-05
2.24914e-05
2.24923e-05
2.24927e-05
2.24925e-05
2.24917e-05
2.24963e-05
2.2488e-05
2.2386e-05
2.23779e-05
2.2479e-05
2.24884e-05
2.24893e-05
2.24898e-05
2.24901e-05
2.249e-05
2.24895e-05
2.24886e-05
2.24883e-05
2.24888e-05
2.24899e-05
2.2491e-05
2.24915e-05
2.24909e-05
2.24895e-05
2.24882e-05
2.24877e-05
2.24883e-05
2.24892e-05
2.24899e-05
2.24903e-05
2.24899e-05
2.24889e-05
2.24888e-05
2.24918e-05
2.24956e-05
2.24998e-05
2.24912e-05
2.23853e-05
2.23785e-05
2.24808e-05
2.24898e-05
2.24908e-05
2.24915e-05
2.24922e-05
2.24924e-05
2.2492e-05
2.24907e-05
2.2489e-05
2.2489e-05
2.249e-05
2.24911e-05
2.24916e-05
2.24909e-05
2.2489e-05
2.24867e-05
2.24859e-05
2.24876e-05
2.24891e-05
2.24898e-05
2.24896e-05
2.24884e-05
2.24877e-05
2.249e-05
2.24937e-05
2.24972e-05
2.2499e-05
2.24889e-05
2.23834e-05
2.23795e-05
2.24833e-05
2.24916e-05
2.24924e-05
2.2493e-05
2.24937e-05
2.24941e-05
2.24939e-05
2.24931e-05
2.24918e-05
2.24906e-05
2.249e-05
2.24898e-05
2.24898e-05
2.24898e-05
2.24895e-05
2.2489e-05
2.24888e-05
2.24892e-05
2.24897e-05
2.24898e-05
2.24891e-05
2.24881e-05
2.24887e-05
2.24914e-05
2.24944e-05
2.24964e-05
2.24961e-05
2.24855e-05
2.23818e-05
2.23828e-05
2.24844e-05
2.24921e-05
2.24925e-05
2.24928e-05
2.24931e-05
2.24934e-05
2.24938e-05
2.2494e-05
2.24938e-05
2.24929e-05
2.2491e-05
2.24888e-05
2.24878e-05
2.24889e-05
2.24908e-05
2.24925e-05
2.24935e-05
2.24937e-05
2.24933e-05
2.24923e-05
2.24909e-05
2.24895e-05
2.24894e-05
2.24912e-05
2.2493e-05
2.24937e-05
2.24926e-05
2.24828e-05
2.23812e-05
2.23855e-05
2.24841e-05
2.24913e-05
2.24914e-05
2.2491e-05
2.24904e-05
2.24903e-05
2.24912e-05
2.24926e-05
2.24936e-05
2.24935e-05
2.24922e-05
2.249e-05
2.2488e-05
2.24886e-05
2.24915e-05
2.24944e-05
2.24967e-05
2.24979e-05
2.24977e-05
2.24963e-05
2.2494e-05
2.24915e-05
2.24901e-05
2.24905e-05
2.24915e-05
2.24922e-05
2.24917e-05
2.24827e-05
2.23823e-05
2.23856e-05
2.24852e-05
2.24923e-05
2.24922e-05
2.24914e-05
2.24905e-05
2.249e-05
2.24904e-05
2.24911e-05
2.2492e-05
2.24925e-05
2.24923e-05
2.24913e-05
2.24893e-05
2.24879e-05
2.24909e-05
2.24949e-05
2.24981e-05
2.24997e-05
2.24994e-05
2.24975e-05
2.24949e-05
2.24921e-05
2.249e-05
2.24902e-05
2.24915e-05
2.24925e-05
2.24926e-05
2.24847e-05
2.23837e-05
2.23843e-05
2.24869e-05
2.24945e-05
2.24951e-05
2.24963e-05
2.24974e-05
2.2498e-05
2.24976e-05
2.24959e-05
2.24933e-05
2.24921e-05
2.24929e-05
2.24934e-05
2.24932e-05
2.24928e-05
2.24935e-05
2.24951e-05
2.24963e-05
2.24965e-05
2.24959e-05
2.24948e-05
2.24933e-05
2.24916e-05
2.24903e-05
2.24909e-05
2.24919e-05
2.24928e-05
2.24935e-05
2.24854e-05
2.23844e-05
2.23889e-05
2.24867e-05
2.24964e-05
2.2499e-05
2.25023e-05
2.25048e-05
2.25056e-05
2.2504e-05
2.25003e-05
2.24957e-05
2.24923e-05
2.2493e-05
2.24952e-05
2.24972e-05
2.24982e-05
2.2498e-05
2.24965e-05
2.24936e-05
2.24907e-05
2.249e-05
2.2491e-05
2.24918e-05
2.2492e-05
2.24917e-05
2.24918e-05
2.24923e-05
2.24933e-05
2.2494e-05
2.24854e-05
2.23854e-05
2.2395e-05
2.24845e-05
2.24996e-05
2.25041e-05
2.25074e-05
2.25087e-05
2.25075e-05
2.25042e-05
2.24996e-05
2.24949e-05
2.24914e-05
2.2492e-05
2.24954e-05
2.24987e-05
2.25004e-05
2.25e-05
2.24975e-05
2.24936e-05
2.24899e-05
2.24882e-05
2.24896e-05
2.24918e-05
2.2493e-05
2.24932e-05
2.24928e-05
2.24934e-05
2.2495e-05
2.24957e-05
2.24879e-05
2.23887e-05
2.23969e-05
2.24941e-05
2.25057e-05
2.2508e-05
2.25083e-05
2.25065e-05
2.25029e-05
2.24991e-05
2.24959e-05
2.24933e-05
2.2491e-05
2.24913e-05
2.24947e-05
2.24981e-05
2.24999e-05
2.24997e-05
2.2498e-05
2.24955e-05
2.24928e-05
2.24909e-05
2.24907e-05
2.24923e-05
2.24939e-05
2.24944e-05
2.24946e-05
2.24959e-05
2.24977e-05
2.24996e-05
2.24937e-05
2.23924e-05
2.23942e-05
2.25043e-05
2.25106e-05
2.25093e-05
2.25058e-05
2.25012e-05
2.24969e-05
2.24949e-05
2.24949e-05
2.2494e-05
2.24927e-05
2.24928e-05
2.2495e-05
2.24972e-05
2.24984e-05
2.24986e-05
2.2498e-05
2.24967e-05
2.24949e-05
2.24935e-05
2.2493e-05
2.24933e-05
2.24942e-05
2.24951e-05
2.24963e-05
2.24983e-05
2.25006e-05
2.25028e-05
2.24954e-05
2.23925e-05
2.23936e-05
2.25097e-05
2.25134e-05
2.25103e-05
2.25058e-05
2.25012e-05
2.24977e-05
2.24961e-05
2.24958e-05
2.24951e-05
2.24947e-05
2.24945e-05
2.24949e-05
2.24953e-05
2.24958e-05
2.24965e-05
2.2497e-05
2.2497e-05
2.24965e-05
2.24958e-05
2.24953e-05
2.24951e-05
2.24957e-05
2.24967e-05
2.24986e-05
2.2501e-05
2.25029e-05
2.25036e-05
2.24939e-05
2.23914e-05
2.23995e-05
2.25116e-05
2.25159e-05
2.25128e-05
2.25088e-05
2.25054e-05
2.25027e-05
2.25003e-05
2.2498e-05
2.24962e-05
2.24952e-05
2.24939e-05
2.2493e-05
2.24925e-05
2.24927e-05
2.24936e-05
2.24951e-05
2.24963e-05
2.2497e-05
2.2497e-05
2.24966e-05
2.24966e-05
2.24972e-05
2.24998e-05
2.25031e-05
2.25049e-05
2.25052e-05
2.25041e-05
2.2494e-05
2.23933e-05
2.24058e-05
2.25122e-05
2.25178e-05
2.25151e-05
2.25118e-05
2.25091e-05
2.25068e-05
2.25044e-05
2.25017e-05
2.2499e-05
2.24965e-05
2.24941e-05
2.2492e-05
2.24904e-05
2.249e-05
2.24913e-05
2.24936e-05
2.24956e-05
2.24969e-05
2.24975e-05
2.24979e-05
2.24993e-05
2.25029e-05
2.25066e-05
2.25084e-05
2.25084e-05
2.25079e-05
2.25075e-05
2.24995e-05
2.23985e-05
2.24114e-05
2.25126e-05
2.25189e-05
2.25168e-05
2.25145e-05
2.25127e-05
2.25109e-05
2.25085e-05
2.25056e-05
2.25023e-05
2.24989e-05
2.24954e-05
2.24927e-05
2.24914e-05
2.24915e-05
2.2493e-05
2.24949e-05
2.24965e-05
2.24982e-05
2.25e-05
2.25027e-05
2.25066e-05
2.251e-05
2.25113e-05
2.25105e-05
2.25098e-05
2.25102e-05
2.25111e-05
2.2504e-05
2.24032e-05
2.24161e-05
2.25135e-05
2.25211e-05
2.25198e-05
2.25182e-05
2.25166e-05
2.25144e-05
2.25116e-05
2.25084e-05
2.25047e-05
2.25007e-05
2.24975e-05
2.24961e-05
2.24958e-05
2.24955e-05
2.24954e-05
2.24962e-05
2.24981e-05
2.25012e-05
2.25053e-05
2.25099e-05
2.25134e-05
2.25143e-05
2.25131e-05
2.25125e-05
2.25133e-05
2.25147e-05
2.25157e-05
2.25081e-05
2.24085e-05
2.24205e-05
2.25165e-05
2.2525e-05
2.25243e-05
2.25228e-05
2.25205e-05
2.25176e-05
2.25143e-05
2.25108e-05
2.25073e-05
2.25043e-05
2.25021e-05
2.25004e-05
2.2498e-05
2.24956e-05
2.24947e-05
2.24962e-05
2.25e-05
2.25052e-05
2.2511e-05
2.25153e-05
2.25168e-05
2.25163e-05
2.25162e-05
2.25174e-05
2.25196e-05
2.25215e-05
2.25222e-05
2.25143e-05
2.24154e-05
2.24259e-05
2.25224e-05
2.25313e-05
2.25307e-05
2.25285e-05
2.25255e-05
2.25221e-05
2.25189e-05
2.25156e-05
2.25123e-05
2.25091e-05
2.25062e-05
2.25026e-05
2.24981e-05
2.24945e-05
2.24946e-05
2.24977e-05
2.25032e-05
2.25098e-05
2.25151e-05
2.25179e-05
2.25189e-05
2.25201e-05
2.25223e-05
2.25253e-05
2.25284e-05
2.25301e-05
2.25309e-05
2.25225e-05
2.24243e-05
2.24344e-05
2.25319e-05
2.25404e-05
2.25392e-05
2.25364e-05
2.25331e-05
2.25299e-05
2.25266e-05
2.25229e-05
2.25188e-05
2.25145e-05
2.251e-05
2.25045e-05
2.24991e-05
2.24966e-05
2.24971e-05
2.25005e-05
2.2507e-05
2.2513e-05
2.25171e-05
2.25201e-05
2.25236e-05
2.25271e-05
2.25306e-05
2.25347e-05
2.25377e-05
2.25398e-05
2.25411e-05
2.25332e-05
2.24361e-05
2.2447e-05
2.2545e-05
2.25525e-05
2.25505e-05
2.25474e-05
2.25441e-05
2.25406e-05
2.25367e-05
2.25321e-05
2.25272e-05
2.25216e-05
2.25151e-05
2.25083e-05
2.25035e-05
2.25003e-05
2.24998e-05
2.25033e-05
2.25095e-05
2.25153e-05
2.25209e-05
2.25269e-05
2.25318e-05
2.25358e-05
2.25406e-05
2.25445e-05
2.25476e-05
2.25508e-05
2.25536e-05
2.25485e-05
2.24479e-05
2.24644e-05
2.2561e-05
2.25678e-05
2.25654e-05
2.25621e-05
2.25583e-05
2.25539e-05
2.25488e-05
2.25433e-05
2.25368e-05
2.25294e-05
2.25217e-05
2.25152e-05
2.251e-05
2.2505e-05
2.25036e-05
2.25072e-05
2.25139e-05
2.25219e-05
2.25298e-05
2.25362e-05
2.25415e-05
2.2547e-05
2.25523e-05
2.25566e-05
2.25611e-05
2.25657e-05
2.25693e-05
2.25628e-05
2.24629e-05
2.24852e-05
2.25801e-05
2.25868e-05
2.2584e-05
2.258e-05
2.2575e-05
2.25693e-05
2.25629e-05
2.25559e-05
2.25479e-05
2.25393e-05
2.25316e-05
2.25249e-05
2.25177e-05
2.25109e-05
2.25093e-05
2.25144e-05
2.25229e-05
2.2532e-05
2.25404e-05
2.2548e-05
2.25554e-05
2.25615e-05
2.25677e-05
2.25735e-05
2.25795e-05
2.25848e-05
2.25865e-05
2.25794e-05
2.24827e-05
2.25088e-05
2.26029e-05
2.2609e-05
2.26054e-05
2.26005e-05
2.25946e-05
2.25879e-05
2.25803e-05
2.25719e-05
2.25624e-05
2.25529e-05
2.25444e-05
2.25355e-05
2.25259e-05
2.2518e-05
2.2517e-05
2.25237e-05
2.25336e-05
2.25441e-05
2.25541e-05
2.25635e-05
2.25727e-05
2.25805e-05
2.25882e-05
2.25955e-05
2.26022e-05
2.26074e-05
2.26083e-05
2.26014e-05
2.25081e-05
2.25366e-05
2.26295e-05
2.26352e-05
2.26312e-05
2.26257e-05
2.26191e-05
2.26115e-05
2.26025e-05
2.25922e-05
2.25807e-05
2.25696e-05
2.25587e-05
2.25469e-05
2.2535e-05
2.25263e-05
2.2526e-05
2.25341e-05
2.25454e-05
2.25577e-05
2.257e-05
2.25814e-05
2.2593e-05
2.26036e-05
2.26131e-05
2.26213e-05
2.26284e-05
2.26338e-05
2.26359e-05
2.26313e-05
2.25379e-05
2.25702e-05
2.26622e-05
2.26677e-05
2.26632e-05
2.26568e-05
2.26491e-05
2.264e-05
2.26292e-05
2.26165e-05
2.26027e-05
2.25892e-05
2.25753e-05
2.25607e-05
2.2547e-05
2.25375e-05
2.25376e-05
2.2547e-05
2.25599e-05
2.25743e-05
2.25893e-05
2.26033e-05
2.26179e-05
2.26314e-05
2.26419e-05
2.26512e-05
2.26588e-05
2.26654e-05
2.26707e-05
2.26663e-05
2.25729e-05
2.26116e-05
2.27027e-05
2.27077e-05
2.27022e-05
2.26945e-05
2.26852e-05
2.26742e-05
2.26613e-05
2.26464e-05
2.26303e-05
2.26138e-05
2.25966e-05
2.25791e-05
2.25633e-05
2.25525e-05
2.25526e-05
2.25635e-05
2.25789e-05
2.25957e-05
2.26133e-05
2.26305e-05
2.2648e-05
2.26628e-05
2.26751e-05
2.26861e-05
2.26956e-05
2.2704e-05
2.27116e-05
2.2707e-05
2.26153e-05
2.26625e-05
2.2752e-05
2.27559e-05
2.27493e-05
2.27401e-05
2.27291e-05
2.27161e-05
2.2701e-05
2.26837e-05
2.26645e-05
2.26442e-05
2.26231e-05
2.26025e-05
2.25845e-05
2.25722e-05
2.25722e-05
2.25847e-05
2.2603e-05
2.26224e-05
2.26431e-05
2.26635e-05
2.26826e-05
2.26995e-05
2.27149e-05
2.27287e-05
2.27402e-05
2.27506e-05
2.27592e-05
2.27551e-05
2.26661e-05
2.27242e-05
2.28115e-05
2.28145e-05
2.28067e-05
2.27958e-05
2.27826e-05
2.27669e-05
2.27487e-05
2.2728e-05
2.27052e-05
2.2681e-05
2.26566e-05
2.2633e-05
2.26125e-05
2.25987e-05
2.25985e-05
2.26123e-05
2.26333e-05
2.26559e-05
2.26799e-05
2.27031e-05
2.27252e-05
2.27453e-05
2.27645e-05
2.27806e-05
2.27945e-05
2.28069e-05
2.28159e-05
2.28127e-05
2.27261e-05
2.27987e-05
2.28834e-05
2.28854e-05
2.28758e-05
2.28626e-05
2.28465e-05
2.28275e-05
2.28058e-05
2.27816e-05
2.27553e-05
2.27276e-05
2.26997e-05
2.26727e-05
2.26489e-05
2.26329e-05
2.2633e-05
2.26484e-05
2.26723e-05
2.26987e-05
2.27263e-05
2.2753e-05
2.27794e-05
2.28033e-05
2.28253e-05
2.28439e-05
2.28613e-05
2.28752e-05
2.28849e-05
2.28823e-05
2.27983e-05
2.28884e-05
2.29695e-05
2.29699e-05
2.29582e-05
2.29427e-05
2.29239e-05
2.29018e-05
2.28766e-05
2.28487e-05
2.28186e-05
2.2787e-05
2.27549e-05
2.27235e-05
2.26959e-05
2.26777e-05
2.26787e-05
2.2697e-05
2.2724e-05
2.27545e-05
2.27866e-05
2.28174e-05
2.28483e-05
2.28758e-05
2.29004e-05
2.29227e-05
2.29428e-05
2.29579e-05
2.29681e-05
2.29661e-05
2.28867e-05
2.2996e-05
2.30724e-05
2.30714e-05
2.30584e-05
2.3041e-05
2.30194e-05
2.29938e-05
2.29648e-05
2.2933e-05
2.28986e-05
2.28624e-05
2.28257e-05
2.27901e-05
2.27594e-05
2.27388e-05
2.27398e-05
2.27609e-05
2.27914e-05
2.28264e-05
2.28641e-05
2.28992e-05
2.29342e-05
2.2965e-05
2.29934e-05
2.30194e-05
2.30419e-05
2.3058e-05
2.30696e-05
2.30701e-05
2.29951e-05
2.31255e-05
2.31972e-05
2.31956e-05
2.3181e-05
2.31607e-05
2.31356e-05
2.31063e-05
2.30734e-05
2.30374e-05
2.29987e-05
2.29577e-05
2.29166e-05
2.2877e-05
2.28432e-05
2.28198e-05
2.28194e-05
2.28426e-05
2.28778e-05
2.29177e-05
2.29606e-05
2.30002e-05
2.30387e-05
2.30736e-05
2.3107e-05
2.3137e-05
2.31609e-05
2.318e-05
2.3195e-05
2.31979e-05
2.31267e-05
2.32816e-05
2.33492e-05
2.33459e-05
2.33283e-05
2.33045e-05
2.32758e-05
2.32428e-05
2.32059e-05
2.31653e-05
2.31219e-05
2.30763e-05
2.30309e-05
2.29865e-05
2.29483e-05
2.29225e-05
2.29213e-05
2.29472e-05
2.29874e-05
2.3032e-05
2.30789e-05
2.31226e-05
2.31653e-05
2.32054e-05
2.32437e-05
2.32772e-05
2.33038e-05
2.33275e-05
2.33461e-05
2.33494e-05
2.32826e-05
2.34698e-05
2.35314e-05
2.35253e-05
2.35049e-05
2.34784e-05
2.34466e-05
2.34096e-05
2.33681e-05
2.33226e-05
2.32746e-05
2.32244e-05
2.31742e-05
2.31254e-05
2.30819e-05
2.30538e-05
2.30528e-05
2.30818e-05
2.31259e-05
2.31751e-05
2.32254e-05
2.3274e-05
2.33218e-05
2.33675e-05
2.34092e-05
2.3447e-05
2.34779e-05
2.35051e-05
2.35256e-05
2.35302e-05
2.34685e-05
2.36952e-05
2.37497e-05
2.37419e-05
2.37201e-05
2.36912e-05
2.36557e-05
2.3614e-05
2.35683e-05
2.35189e-05
2.3467e-05
2.34125e-05
2.33571e-05
2.33053e-05
2.32562e-05
2.32247e-05
2.3224e-05
2.32563e-05
2.3304e-05
2.33575e-05
2.34115e-05
2.34656e-05
2.35181e-05
2.35682e-05
2.3613e-05
2.3655e-05
2.36912e-05
2.37199e-05
2.37416e-05
2.37502e-05
2.36935e-05
2.39665e-05
2.40161e-05
2.4007e-05
2.39825e-05
2.39495e-05
2.39096e-05
2.38639e-05
2.3815e-05
2.37619e-05
2.37063e-05
2.3649e-05
2.35893e-05
2.35354e-05
2.34823e-05
2.34463e-05
2.34478e-05
2.34835e-05
2.35335e-05
2.35909e-05
2.36486e-05
2.37066e-05
2.37615e-05
2.38147e-05
2.38648e-05
2.39091e-05
2.39493e-05
2.39815e-05
2.40057e-05
2.40181e-05
2.39672e-05
2.42974e-05
2.43429e-05
2.43297e-05
2.43008e-05
2.42634e-05
2.42202e-05
2.41709e-05
2.41187e-05
2.40629e-05
2.40047e-05
2.39481e-05
2.38861e-05
2.3829e-05
2.37758e-05
2.37372e-05
2.37393e-05
2.37775e-05
2.38294e-05
2.38875e-05
2.39471e-05
2.40065e-05
2.40636e-05
2.41189e-05
2.41736e-05
2.42206e-05
2.42631e-05
2.43013e-05
2.43307e-05
2.4345e-05
2.42966e-05
2.47042e-05
2.4747e-05
2.47276e-05
2.46947e-05
2.46528e-05
2.46062e-05
2.45541e-05
2.44998e-05
2.44433e-05
2.43856e-05
2.43318e-05
2.42744e-05
2.42208e-05
2.41741e-05
2.414e-05
2.4142e-05
2.41747e-05
2.42234e-05
2.42759e-05
2.43304e-05
2.43869e-05
2.44441e-05
2.45002e-05
2.45531e-05
2.46055e-05
2.46543e-05
2.46967e-05
2.47283e-05
2.47471e-05
2.47016e-05
2.52153e-05
2.52686e-05
2.5239e-05
2.52016e-05
2.51554e-05
2.51032e-05
2.5046e-05
2.4992e-05
2.4946e-05
2.49024e-05
2.48779e-05
2.48752e-05
2.48961e-05
2.49246e-05
2.49657e-05
2.49766e-05
2.49296e-05
2.48955e-05
2.48776e-05
2.4882e-05
2.49048e-05
2.49448e-05
2.49953e-05
2.50448e-05
2.51002e-05
2.51571e-05
2.52038e-05
2.52371e-05
2.5267e-05
2.52153e-05
2.59378e-05
2.60611e-05
2.60158e-05
2.60028e-05
2.594e-05
2.58624e-05
2.58144e-05
2.57925e-05
2.58107e-05
2.59044e-05
2.61906e-05
2.67219e-05
2.75038e-05
2.83183e-05
2.91279e-05
2.91792e-05
2.83418e-05
2.7508e-05
2.67467e-05
2.61966e-05
2.59101e-05
2.58122e-05
2.57918e-05
2.5816e-05
2.58644e-05
2.59371e-05
2.60042e-05
2.60198e-05
2.60636e-05
2.59347e-05
2.74234e-05
2.79043e-05
2.79219e-05
2.8333e-05
2.79838e-05
2.78007e-05
2.80799e-05
2.823e-05
2.87309e-05
3.01008e-05
3.29311e-05
3.76564e-05
4.45601e-05
5.09742e-05
5.61323e-05
5.64925e-05
5.11225e-05
4.46256e-05
3.78976e-05
3.29624e-05
3.01285e-05
2.8747e-05
2.82336e-05
2.80891e-05
2.78056e-05
2.79749e-05
2.83439e-05
2.79352e-05
2.79186e-05
2.74144e-05
3.23696e-05
3.4838e-05
3.51617e-05
4.02564e-05
3.65513e-05
3.64601e-05
4.16747e-05
4.199e-05
4.51563e-05
5.56418e-05
7.54385e-05
9.94342e-05
0.00013578
0.000165713
0.000183906
0.000183913
0.000165893
0.000136517
0.000100479
7.54385e-05
5.5769e-05
4.52629e-05
4.20273e-05
4.17758e-05
3.64962e-05
3.65311e-05
4.03641e-05
3.52055e-05
3.4959e-05
3.23167e-05
5.03667e-05
6.47099e-05
6.50124e-05
9.59117e-05
7.72051e-05
8.62685e-05
0.000121977
0.000128073
0.000151369
0.000220398
0.000296383
0.000361372
0.000465755
0.00053909
0.000578164
0.000576505
0.000537332
0.000468621
0.000363923
0.000295329
0.000220495
0.000151927
0.00012851
0.000122625
8.65327e-05
7.71942e-05
9.71355e-05
6.52844e-05
6.53222e-05
5.01946e-05
0.000109718
0.000170193
0.000181111
0.000282102
0.00027894
0.000331115
0.000395875
0.000484161
0.00057198
0.000695253
0.000836623
0.000881214
0.00102304
0.00111296
0.00108111
0.00107962
0.00110459
0.00102879
0.000882496
0.000819221
0.000687804
0.000573159
0.000487914
0.000398388
0.000332936
0.000278679
0.000287751
0.000183109
0.000170792
0.000109905
0.000240207
0.000406242
0.000451925
0.000666109
0.000787121
0.000903235
0.00106501
0.00124354
0.00132486
0.00146179
0.00156844
0.00158971
0.00166551
0.00181431
0.00173287
0.00170687
0.00179152
0.00167348
0.00156938
0.00152708
0.00143545
0.00132559
0.00125251
0.00106723
0.00091701
0.000795
0.00068435
0.000458107
0.000408691
0.000242229
0.000351251
0.000444893
0.000560115
0.000776582
0.00102941
0.00121879
0.0013484
0.00149445
0.00157861
0.00186802
0.00194802
0.00188271
0.00186469
0.00200461
0.00202108
0.0019854
0.0019936
0.00186288
0.00182596
0.00187068
0.00184784
0.00159511
0.00150814
0.00136048
0.00123778
0.00107524
0.000803247
0.000570685
0.000448166
0.000350197
0.000423946
0.000467698
0.000553923
0.000778821
0.000957203
0.00109475
0.00129181
0.00154209
0.00163659
0.00188299
0.00178121
0.00170872
0.00173482
0.00179667
0.0017451
0.00174757
0.00181921
0.00176935
0.0017118
0.00178803
0.00192772
0.00171899
0.00158661
0.00131166
0.00110343
0.000976821
0.000803692
0.000556256
0.000467082
0.00041945
0.000410407
0.000463935
0.000547398
0.000807842
0.000912461
0.000914462
0.00102356
0.00117877
0.0012874
0.00142355
0.00136914
0.00140381
0.00141301
0.00147392
0.0015897
0.00161088
0.0015032
0.00142484
0.00144408
0.0013837
0.00145466
0.0013007
0.0012066
0.00104192
0.000932611
0.000926823
0.000822044
0.000539994
0.000463488
0.000413751
0.000325064
0.000373088
0.000489993
0.000680591
0.000691643
0.000637771
0.000736435
0.000824231
0.000875279
0.00101139
0.000988846
0.001057
0.00110419
0.00115847
0.001272
0.00127618
0.00116874
0.00111851
0.00107492
0.00099338
0.0010403
0.000894213
0.000849794
0.00075308
0.000648426
0.00069781
0.000685556
0.000496013
0.000381916
0.000327367
0.000245581
0.00028305
0.000350369
0.000491933
0.000440542
0.000401553
0.000501729
0.000579063
0.000651338
0.000754163
0.000750159
0.000769132
0.00076529
0.000811967
0.000849716
0.000845749
0.000818554
0.000768068
0.000768499
0.000740684
0.000766938
0.000662084
0.00058823
0.000509477
0.000406199
0.000441466
0.000494518
0.000353271
0.000289481
0.000247675
0.000188638
0.00021327
0.000238313
0.000308054
0.000272113
0.000236332
0.000280707
0.000353362
0.000452729
0.000578997
0.000642689
0.000677404
0.000687744
0.000706986
0.00070676
0.000704635
0.000712172
0.000688897
0.000673189
0.000636134
0.000582079
0.000455519
0.000356496
0.000284118
0.000238678
0.000274714
0.000312385
0.00023928
0.000215738
0.000189905
0.000150727
0.00016238
0.000169109
0.000188121
0.000177514
0.000162968
0.000169631
0.000195291
0.0002515
0.00036049
0.0004813
0.000583501
0.00065025
0.000687589
0.000690687
0.000689385
0.000690146
0.000651424
0.000581161
0.000477367
0.000360857
0.000251786
0.000196317
0.000171027
0.000164223
0.000179395
0.000190457
0.000169749
0.000163824
0.000151385
0.000125867
0.000129352
0.000130047
0.000132787
0.000129831
0.000126337
0.000127341
0.000133092
0.000149469
0.00019435
0.000280652
0.000401896
0.000522099
0.000608375
0.000644431
0.000643464
0.000609671
0.000523341
0.000400561
0.000278782
0.000194557
0.000149785
0.000133678
0.000127631
0.000126888
0.000131079
0.000133918
0.000130435
0.000130099
0.000126133
0.000107894
0.00010872
0.000107922
0.000107756
0.000106913
0.000106158
0.000106575
0.000108483
0.000112872
0.000124625
0.000154082
0.000217586
0.000314901
0.000421309
0.000489532
0.000488714
0.000421784
0.000315642
0.000217122
0.000153518
0.000124954
0.000113079
0.000108719
0.000106704
0.000106344
0.000107319
0.000108252
0.000108446
0.000109195
0.000108198
9.47345e-05
9.45141e-05
9.38287e-05
9.37233e-05
9.34644e-05
9.34917e-05
9.41335e-05
9.51226e-05
9.66917e-05
9.96893e-05
0.000106512
0.000123381
0.000158797
0.000211417
0.000262819
0.000262283
0.000211182
0.00015891
0.000123227
0.000106605
9.98793e-05
9.68185e-05
9.53255e-05
9.43436e-05
9.37986e-05
9.3811e-05
9.3826e-05
9.42397e-05
9.49197e-05
9.49051e-05
8.46919e-05
8.3621e-05
8.32227e-05
8.32309e-05
8.3444e-05
8.38907e-05
8.47127e-05
8.54065e-05
8.62049e-05
8.71183e-05
8.85734e-05
9.1703e-05
9.85993e-05
0.000111058
0.000125703
0.000125705
0.000111172
9.87674e-05
9.17239e-05
8.87784e-05
8.73326e-05
8.63376e-05
8.55811e-05
8.48497e-05
8.41972e-05
8.36918e-05
8.3388e-05
8.34496e-05
8.4107e-05
8.51572e-05
7.71741e-05
7.50002e-05
7.46968e-05
7.48547e-05
7.52127e-05
7.58273e-05
7.65265e-05
7.69459e-05
7.73689e-05
7.76319e-05
7.77714e-05
7.80182e-05
7.87466e-05
8.03318e-05
8.24679e-05
8.24438e-05
8.04563e-05
7.89417e-05
7.82131e-05
7.79546e-05
7.772e-05
7.74586e-05
7.71347e-05
7.65397e-05
7.58855e-05
7.52891e-05
7.50238e-05
7.49347e-05
7.55498e-05
7.75661e-05
7.07052e-05
6.79787e-05
6.75805e-05
6.77591e-05
6.82112e-05
6.87494e-05
6.91345e-05
6.93611e-05
6.9466e-05
6.93034e-05
6.89509e-05
6.85835e-05
6.82427e-05
6.79897e-05
6.79198e-05
6.78854e-05
6.80706e-05
6.83564e-05
6.87373e-05
6.90974e-05
6.93713e-05
6.95287e-05
6.94485e-05
6.91203e-05
6.87096e-05
6.83161e-05
6.80687e-05
6.7869e-05
6.84135e-05
7.09438e-05
6.48232e-05
6.19496e-05
6.15038e-05
6.17312e-05
6.21262e-05
6.24558e-05
6.25725e-05
6.25483e-05
6.22954e-05
6.18374e-05
6.12951e-05
6.0708e-05
6.00362e-05
5.94077e-05
5.90241e-05
5.90816e-05
5.95812e-05
6.01693e-05
6.07888e-05
6.14146e-05
6.20061e-05
6.24683e-05
6.26322e-05
6.25895e-05
6.24352e-05
6.22277e-05
6.1997e-05
6.1796e-05
6.23093e-05
6.49977e-05
5.94288e-05
5.66915e-05
5.63347e-05
5.65259e-05
5.67241e-05
5.68024e-05
5.67103e-05
5.64428e-05
5.59977e-05
5.54329e-05
5.47549e-05
5.39746e-05
5.31298e-05
5.24289e-05
5.20429e-05
5.21365e-05
5.26226e-05
5.32837e-05
5.4076e-05
5.49148e-05
5.56852e-05
5.62728e-05
5.66055e-05
5.67658e-05
5.68009e-05
5.67268e-05
5.65572e-05
5.64573e-05
5.69872e-05
5.95881e-05
5.45404e-05
5.21856e-05
5.18141e-05
5.18357e-05
5.18314e-05
5.17561e-05
5.15401e-05
5.11441e-05
5.06192e-05
4.99515e-05
4.91592e-05
4.8301e-05
4.74494e-05
4.67569e-05
4.63518e-05
4.63987e-05
4.68485e-05
4.75473e-05
4.84151e-05
4.93273e-05
5.01656e-05
5.08327e-05
5.12909e-05
5.15905e-05
5.17485e-05
5.17887e-05
5.17427e-05
5.17682e-05
5.23124e-05
5.47569e-05
5.03354e-05
4.81024e-05
4.76677e-05
4.75947e-05
4.75346e-05
4.73925e-05
4.70567e-05
4.65857e-05
4.601e-05
4.52827e-05
4.44467e-05
4.35769e-05
4.27384e-05
4.20383e-05
4.15956e-05
4.15964e-05
4.20251e-05
4.27406e-05
4.36346e-05
4.45623e-05
4.54232e-05
4.61377e-05
4.66735e-05
4.70575e-05
4.73273e-05
4.74866e-05
4.75615e-05
4.76661e-05
4.81819e-05
5.04462e-05
4.63692e-05
4.437e-05
4.40001e-05
4.38932e-05
4.37546e-05
4.3496e-05
4.3096e-05
4.26315e-05
4.20564e-05
4.13311e-05
4.05086e-05
3.96494e-05
3.88224e-05
3.81274e-05
3.7686e-05
3.76702e-05
3.80766e-05
3.87699e-05
3.96289e-05
4.05181e-05
4.13593e-05
4.2098e-05
4.26975e-05
4.31512e-05
4.34908e-05
4.37328e-05
4.38956e-05
4.40492e-05
4.45287e-05
4.65626e-05
4.28747e-05
4.12803e-05
4.08815e-05
4.06721e-05
4.04151e-05
4.00844e-05
3.96926e-05
3.92326e-05
3.86503e-05
3.79459e-05
3.71585e-05
3.63292e-05
3.55268e-05
3.48432e-05
3.44051e-05
3.43763e-05
3.47621e-05
3.54325e-05
3.62619e-05
3.71291e-05
3.79573e-05
3.86942e-05
3.93043e-05
3.97823e-05
4.01641e-05
4.04679e-05
4.06965e-05
4.089e-05
4.13381e-05
4.31075e-05
3.99659e-05
3.86067e-05
3.81288e-05
3.78464e-05
3.75684e-05
3.7262e-05
3.6882e-05
3.64031e-05
3.58232e-05
3.51501e-05
3.44063e-05
3.36171e-05
3.28511e-05
3.21993e-05
3.17881e-05
3.17747e-05
3.21556e-05
3.28015e-05
3.3587e-05
3.43987e-05
3.51658e-05
3.58575e-05
3.64548e-05
3.69514e-05
3.73593e-05
3.76868e-05
3.7939e-05
3.81454e-05
3.8544e-05
4.00419e-05
3.73651e-05
3.61052e-05
3.56765e-05
3.54405e-05
3.52313e-05
3.49533e-05
3.45578e-05
3.40807e-05
3.35327e-05
3.28926e-05
3.21793e-05
3.14294e-05
3.0715e-05
3.01211e-05
2.97572e-05
2.97644e-05
3.01273e-05
3.07239e-05
3.14414e-05
3.21819e-05
3.28862e-05
3.35336e-05
3.41077e-05
3.45978e-05
3.49982e-05
3.53153e-05
3.5557e-05
3.57476e-05
3.60827e-05
3.73334e-05
3.50372e-05
3.39154e-05
3.36072e-05
3.34534e-05
3.32672e-05
3.29759e-05
3.25961e-05
3.21671e-05
3.16595e-05
3.10517e-05
3.03721e-05
2.96713e-05
2.90181e-05
2.84842e-05
2.81615e-05
2.8178e-05
2.85188e-05
2.90648e-05
2.9712e-05
3.0379e-05
3.10225e-05
3.16224e-05
3.21606e-05
3.26205e-05
3.29916e-05
3.32782e-05
3.34916e-05
3.36568e-05
3.3937e-05
3.49816e-05
3.29557e-05
3.20741e-05
3.18519e-05
3.17243e-05
3.15308e-05
3.12594e-05
3.09406e-05
3.05594e-05
3.00824e-05
2.95211e-05
2.89064e-05
2.82843e-05
2.77069e-05
2.72272e-05
2.69291e-05
2.69432e-05
2.72554e-05
2.77477e-05
2.83244e-05
2.89189e-05
2.94988e-05
3.00427e-05
3.05307e-05
3.0943e-05
3.1272e-05
3.15245e-05
3.17138e-05
3.18633e-05
3.21027e-05
3.29666e-05
3.11941e-05
3.05344e-05
3.03406e-05
3.02089e-05
3.00418e-05
2.98252e-05
2.95508e-05
2.91886e-05
2.87501e-05
2.8257e-05
2.77291e-05
2.71968e-05
2.66882e-05
2.6247e-05
2.59688e-05
2.59805e-05
2.62668e-05
2.671e-05
2.72183e-05
2.77377e-05
2.82441e-05
2.87194e-05
2.91463e-05
2.95092e-05
2.98025e-05
3.00309e-05
3.02044e-05
3.03407e-05
3.05416e-05
3.12395e-05
2.97792e-05
2.92133e-05
2.90386e-05
2.89374e-05
2.88065e-05
2.86168e-05
2.83527e-05
2.80174e-05
2.76399e-05
2.72259e-05
2.67864e-05
2.63349e-05
2.5885e-05
2.54851e-05
2.52396e-05
2.52538e-05
2.55068e-05
2.58904e-05
2.63245e-05
2.67688e-05
2.72048e-05
2.76183e-05
2.79901e-05
2.83084e-05
2.85706e-05
2.8777e-05
2.89325e-05
2.90512e-05
2.92128e-05
2.97578e-05
2.85361e-05
2.80598e-05
2.79516e-05
2.78784e-05
2.77455e-05
2.75602e-05
2.73191e-05
2.70387e-05
2.6728e-05
2.63856e-05
2.60205e-05
2.56347e-05
2.52428e-05
2.49e-05
2.46947e-05
2.47028e-05
2.49067e-05
2.52231e-05
2.55916e-05
2.59796e-05
2.63639e-05
2.67261e-05
2.70495e-05
2.73256e-05
2.75512e-05
2.77274e-05
2.78576e-05
2.79553e-05
2.80823e-05
2.84958e-05
2.74306e-05
2.71314e-05
2.70761e-05
2.69838e-05
2.68471e-05
2.66845e-05
2.64881e-05
2.62619e-05
2.5999e-05
2.57067e-05
2.53936e-05
2.50595e-05
2.47249e-05
2.44424e-05
2.42725e-05
2.42657e-05
2.44205e-05
2.46833e-05
2.50064e-05
2.53546e-05
2.56987e-05
2.60144e-05
2.62903e-05
2.65208e-05
2.67049e-05
2.68454e-05
2.69477e-05
2.70247e-05
2.71236e-05
2.74436e-05
2.66011e-05
2.64536e-05
2.63602e-05
2.62434e-05
2.61282e-05
2.59992e-05
2.58435e-05
2.56521e-05
2.54251e-05
2.51769e-05
2.49102e-05
2.46252e-05
2.43466e-05
2.41144e-05
2.39661e-05
2.39449e-05
2.4063e-05
2.42856e-05
2.45694e-05
2.48745e-05
2.517e-05
2.54358e-05
2.56619e-05
2.58469e-05
2.59934e-05
2.6106e-05
2.61909e-05
2.6256e-05
2.63352e-05
2.65775e-05
2.59827e-05
2.58362e-05
2.57066e-05
2.56215e-05
2.55442e-05
2.54458e-05
2.532e-05
2.51597e-05
2.49751e-05
2.47743e-05
2.45516e-05
2.43134e-05
2.40843e-05
2.38899e-05
2.37553e-05
2.37284e-05
2.38254e-05
2.40128e-05
2.42483e-05
2.44959e-05
2.47323e-05
2.49454e-05
2.51308e-05
2.52868e-05
2.54135e-05
2.55129e-05
2.55883e-05
2.56442e-05
2.57019e-05
2.58704e-05
2.54039e-05
2.52292e-05
2.51649e-05
2.51338e-05
2.50818e-05
2.50014e-05
2.48934e-05
2.47613e-05
2.4614e-05
2.4447e-05
2.42555e-05
2.40542e-05
2.38643e-05
2.37002e-05
2.35859e-05
2.35681e-05
2.36552e-05
2.38092e-05
2.39943e-05
2.41856e-05
2.43712e-05
2.45476e-05
2.47109e-05
2.48535e-05
2.49695e-05
2.50579e-05
2.51214e-05
2.51629e-05
2.51958e-05
2.53e-05
2.48558e-05
2.47742e-05
2.47912e-05
2.47765e-05
2.4726e-05
2.4648e-05
2.45486e-05
2.44381e-05
2.43155e-05
2.41678e-05
2.39987e-05
2.3829e-05
2.36721e-05
2.35368e-05
2.34458e-05
2.34397e-05
2.3521e-05
2.36491e-05
2.37955e-05
2.39475e-05
2.41016e-05
2.42552e-05
2.43992e-05
2.45227e-05
2.462e-05
2.46905e-05
2.47355e-05
2.47574e-05