/*--------------------------------*- C++ -*----------------------------------*\
| =========                 |                                                 |
| \\      /  F ield         | OpenFOAM: The Open Source CFD Toolbox           |
|  \\    /   O peration     | Version:  2312                                  |
|   \\  /    A nd           | Website:  www.openfoam.com                      |
|    \\/     M anipulation  |                                                 |
\*---------------------------------------------------------------------------*/
FoamFile
{
    version     2.0;
    format      ascii;
    arch        "LSB;label=32;scalar=64";
    class       volScalarField;
    location    "1.2036445";
    object      nut;
}
// * * * * * * * * * * * * * * * * * * * * * * * * * * * * * * * * * * * * * //

dimensions      [0 2 -1 0 0 0 0];

internalField   nonuniform List<scalar> 
90000
(
5.23411e-06
5.23466e-06
5.23477e-06
5.23481e-06
5.23484e-06
5.23483e-06
5.23482e-06
5.2348e-06
5.23477e-06
5.23472e-06
5.23466e-06
5.23458e-06
5.23453e-06
5.23455e-06
5.23459e-06
5.23462e-06
5.23466e-06
5.23477e-06
5.23489e-06
5.23491e-06
5.23478e-06
5.23459e-06
5.23476e-06
5.23519e-06
5.23557e-06
5.23573e-06
5.23557e-06
5.23535e-06
5.23591e-06
5.23714e-06
5.23493e-06
5.24664e-06
5.24773e-06
5.24775e-06
5.24768e-06
5.24765e-06
5.24765e-06
5.24766e-06
5.24765e-06
5.24763e-06
5.24764e-06
5.24769e-06
5.24774e-06
5.24778e-06
5.24779e-06
5.24778e-06
5.24775e-06
5.24772e-06
5.24767e-06
5.24763e-06
5.24769e-06
5.24782e-06
5.24793e-06
5.24795e-06
5.24784e-06
5.24769e-06
5.2479e-06
5.24856e-06
5.24807e-06
5.23934e-06
5.23501e-06
5.24777e-06
5.249e-06
5.24903e-06
5.24899e-06
5.24898e-06
5.24899e-06
5.24901e-06
5.24898e-06
5.24893e-06
5.24893e-06
5.24903e-06
5.24916e-06
5.24927e-06
5.24928e-06
5.24919e-06
5.24901e-06
5.24885e-06
5.24899e-06
5.2492e-06
5.24934e-06
5.24937e-06
5.24933e-06
5.24928e-06
5.24937e-06
5.24957e-06
5.2497e-06
5.25025e-06
5.25092e-06
5.23862e-06
5.23491e-06
5.24782e-06
5.24911e-06
5.24917e-06
5.24917e-06
5.24917e-06
5.24918e-06
5.24919e-06
5.24918e-06
5.24912e-06
5.24907e-06
5.24912e-06
5.24921e-06
5.24929e-06
5.24928e-06
5.24918e-06
5.24906e-06
5.24914e-06
5.24936e-06
5.24949e-06
5.2495e-06
5.24941e-06
5.24947e-06
5.24977e-06
5.25006e-06
5.25028e-06
5.25057e-06
5.25056e-06
5.25066e-06
5.23689e-06
5.23477e-06
5.24781e-06
5.24911e-06
5.2492e-06
5.24921e-06
5.2492e-06
5.24919e-06
5.24919e-06
5.2492e-06
5.2492e-06
5.24918e-06
5.24915e-06
5.2491e-06
5.24903e-06
5.24903e-06
5.24916e-06
5.24932e-06
5.24945e-06
5.24949e-06
5.24942e-06
5.24931e-06
5.24937e-06
5.24965e-06
5.24997e-06
5.25016e-06
5.25016e-06
5.25006e-06
5.25012e-06
5.24914e-06
5.23599e-06
5.23474e-06
5.24783e-06
5.24911e-06
5.2492e-06
5.24922e-06
5.24919e-06
5.24916e-06
5.24915e-06
5.24916e-06
5.24921e-06
5.24926e-06
5.24932e-06
5.24935e-06
5.24932e-06
5.24928e-06
5.24932e-06
5.24941e-06
5.24945e-06
5.2494e-06
5.24932e-06
5.24932e-06
5.24944e-06
5.24961e-06
5.24973e-06
5.24978e-06
5.24975e-06
5.24959e-06
5.25025e-06
5.24906e-06
5.23592e-06
5.23484e-06
5.24789e-06
5.24916e-06
5.24929e-06
5.24936e-06
5.2494e-06
5.24938e-06
5.2493e-06
5.24919e-06
5.24919e-06
5.24929e-06
5.24945e-06
5.24959e-06
5.24964e-06
5.24955e-06
5.24936e-06
5.24919e-06
5.24915e-06
5.24923e-06
5.24934e-06
5.24944e-06
5.24947e-06
5.24942e-06
5.24928e-06
5.24924e-06
5.24962e-06
5.25011e-06
5.25072e-06
5.24951e-06
5.23579e-06
5.2349e-06
5.2481e-06
5.24935e-06
5.2495e-06
5.24962e-06
5.2497e-06
5.24973e-06
5.24966e-06
5.24947e-06
5.24923e-06
5.24927e-06
5.24944e-06
5.24961e-06
5.24967e-06
5.24957e-06
5.2493e-06
5.24898e-06
5.24889e-06
5.24913e-06
5.24933e-06
5.24943e-06
5.24939e-06
5.24922e-06
5.24911e-06
5.24937e-06
5.24987e-06
5.25035e-06
5.2506e-06
5.24921e-06
5.23552e-06
5.23502e-06
5.24844e-06
5.24961e-06
5.24974e-06
5.24985e-06
5.24994e-06
5.24998e-06
5.24994e-06
5.24981e-06
5.24961e-06
5.24944e-06
5.24939e-06
5.24941e-06
5.24944e-06
5.24943e-06
5.24938e-06
5.24931e-06
5.24926e-06
5.2493e-06
5.24938e-06
5.24939e-06
5.24931e-06
5.24917e-06
5.24919e-06
5.24955e-06
5.24996e-06
5.25024e-06
5.25019e-06
5.24873e-06
5.23527e-06
5.23546e-06
5.2486e-06
5.24969e-06
5.24977e-06
5.24982e-06
5.24986e-06
5.2499e-06
5.24994e-06
5.24995e-06
5.24991e-06
5.24976e-06
5.24951e-06
5.24922e-06
5.24914e-06
5.24931e-06
5.24957e-06
5.24977e-06
5.24988e-06
5.24989e-06
5.24982e-06
5.24969e-06
5.2495e-06
5.24931e-06
5.24929e-06
5.24953e-06
5.24977e-06
5.24986e-06
5.24969e-06
5.24835e-06
5.23517e-06
5.23583e-06
5.24859e-06
5.2496e-06
5.24963e-06
5.24957e-06
5.2495e-06
5.24948e-06
5.24959e-06
5.24976e-06
5.24989e-06
5.24987e-06
5.24969e-06
5.24938e-06
5.24914e-06
5.24927e-06
5.24965e-06
5.25003e-06
5.25031e-06
5.25046e-06
5.25042e-06
5.25022e-06
5.24992e-06
5.24959e-06
5.24939e-06
5.24945e-06
5.24956e-06
5.24964e-06
5.24958e-06
5.24833e-06
5.23531e-06
5.23582e-06
5.24878e-06
5.24975e-06
5.24972e-06
5.24961e-06
5.24946e-06
5.24937e-06
5.24942e-06
5.24953e-06
5.24966e-06
5.24973e-06
5.24971e-06
5.24956e-06
5.24929e-06
5.24913e-06
5.24955e-06
5.2501e-06
5.25052e-06
5.25072e-06
5.25067e-06
5.25043e-06
5.25007e-06
5.24969e-06
5.24937e-06
5.24939e-06
5.24956e-06
5.24969e-06
5.24969e-06
5.2486e-06
5.2355e-06
5.23563e-06
5.24903e-06
5.25004e-06
5.25011e-06
5.25025e-06
5.25038e-06
5.25045e-06
5.2504e-06
5.25017e-06
5.24983e-06
5.24968e-06
5.24979e-06
5.24987e-06
5.24983e-06
5.24977e-06
5.24987e-06
5.2501e-06
5.25028e-06
5.25032e-06
5.25025e-06
5.25009e-06
5.24988e-06
5.24963e-06
5.24942e-06
5.24947e-06
5.24962e-06
5.24973e-06
5.2498e-06
5.24871e-06
5.23559e-06
5.23631e-06
5.24898e-06
5.25027e-06
5.2506e-06
5.25104e-06
5.25138e-06
5.25149e-06
5.25127e-06
5.25077e-06
5.25015e-06
5.24971e-06
5.24983e-06
5.25014e-06
5.2504e-06
5.25053e-06
5.2505e-06
5.25029e-06
5.2499e-06
5.24954e-06
5.24946e-06
5.24958e-06
5.24967e-06
5.24966e-06
5.24961e-06
5.24961e-06
5.24966e-06
5.24978e-06
5.24986e-06
5.24869e-06
5.2357e-06
5.23713e-06
5.2486e-06
5.25066e-06
5.25128e-06
5.25173e-06
5.2519e-06
5.25174e-06
5.25128e-06
5.25065e-06
5.25002e-06
5.24957e-06
5.24969e-06
5.25017e-06
5.25061e-06
5.25084e-06
5.25078e-06
5.25043e-06
5.24989e-06
5.24937e-06
5.24913e-06
5.24935e-06
5.24963e-06
5.24979e-06
5.24981e-06
5.24973e-06
5.24978e-06
5.25e-06
5.25011e-06
5.24905e-06
5.23615e-06
5.23733e-06
5.24985e-06
5.25146e-06
5.25178e-06
5.25181e-06
5.25155e-06
5.25106e-06
5.25054e-06
5.25011e-06
5.24976e-06
5.24947e-06
5.24958e-06
5.25007e-06
5.25053e-06
5.25076e-06
5.25072e-06
5.25049e-06
5.25014e-06
5.24975e-06
5.24946e-06
5.24944e-06
5.24967e-06
5.24988e-06
5.24993e-06
5.24995e-06
5.2501e-06
5.25034e-06
5.25059e-06
5.24978e-06
5.2366e-06
5.23689e-06
5.2512e-06
5.25206e-06
5.25188e-06
5.2514e-06
5.25076e-06
5.25015e-06
5.24994e-06
5.24996e-06
5.24984e-06
5.24966e-06
5.24975e-06
5.25007e-06
5.25038e-06
5.25054e-06
5.25057e-06
5.25049e-06
5.25029e-06
5.25002e-06
5.24978e-06
5.24969e-06
5.24974e-06
5.24988e-06
5.24999e-06
5.25014e-06
5.25038e-06
5.25067e-06
5.25093e-06
5.24991e-06
5.23654e-06
5.23668e-06
5.25185e-06
5.25237e-06
5.25193e-06
5.25131e-06
5.25069e-06
5.25027e-06
5.2501e-06
5.25005e-06
5.24993e-06
5.24992e-06
5.24994e-06
5.25002e-06
5.2501e-06
5.25019e-06
5.25029e-06
5.25034e-06
5.25031e-06
5.2502e-06
5.25007e-06
5.24994e-06
5.24992e-06
5.25004e-06
5.25017e-06
5.2504e-06
5.25068e-06
5.25089e-06
5.25094e-06
5.24961e-06
5.23637e-06
5.23741e-06
5.25203e-06
5.25262e-06
5.25219e-06
5.25167e-06
5.25123e-06
5.2509e-06
5.25061e-06
5.2503e-06
5.25007e-06
5.24995e-06
5.24984e-06
5.24976e-06
5.24972e-06
5.24976e-06
5.24989e-06
5.25006e-06
5.25019e-06
5.25024e-06
5.25018e-06
5.25008e-06
5.25009e-06
5.2502e-06
5.25054e-06
5.25094e-06
5.25113e-06
5.25114e-06
5.25097e-06
5.24963e-06
5.23656e-06
5.2382e-06
5.25204e-06
5.25279e-06
5.25242e-06
5.252e-06
5.25168e-06
5.25142e-06
5.25112e-06
5.25078e-06
5.25045e-06
5.25016e-06
5.24986e-06
5.2496e-06
5.24941e-06
5.24939e-06
5.24958e-06
5.24986e-06
5.25007e-06
5.25018e-06
5.2502e-06
5.25022e-06
5.25042e-06
5.25092e-06
5.25139e-06
5.25158e-06
5.25154e-06
5.25146e-06
5.25138e-06
5.25031e-06
5.23716e-06
5.23887e-06
5.25197e-06
5.25284e-06
5.25257e-06
5.25231e-06
5.25212e-06
5.25192e-06
5.25164e-06
5.25129e-06
5.25089e-06
5.25047e-06
5.25002e-06
5.24965e-06
5.24951e-06
5.2496e-06
5.24979e-06
5.25e-06
5.25015e-06
5.25031e-06
5.25051e-06
5.25087e-06
5.25138e-06
5.2518e-06
5.25191e-06
5.25175e-06
5.25164e-06
5.25166e-06
5.25173e-06
5.25075e-06
5.23763e-06
5.23938e-06
5.25196e-06
5.25302e-06
5.25289e-06
5.25274e-06
5.25258e-06
5.25234e-06
5.25201e-06
5.25161e-06
5.25116e-06
5.25065e-06
5.2502e-06
5.25003e-06
5.25009e-06
5.25011e-06
5.25009e-06
5.25013e-06
5.25032e-06
5.25069e-06
5.2512e-06
5.2518e-06
5.25222e-06
5.25226e-06
5.25204e-06
5.25195e-06
5.25204e-06
5.25217e-06
5.25225e-06
5.25114e-06
5.23823e-06
5.23979e-06
5.25218e-06
5.25343e-06
5.25342e-06
5.25328e-06
5.25303e-06
5.25268e-06
5.25229e-06
5.25186e-06
5.25141e-06
5.25099e-06
5.25071e-06
5.2506e-06
5.25037e-06
5.25008e-06
5.24994e-06
5.2501e-06
5.25056e-06
5.25122e-06
5.25195e-06
5.25246e-06
5.25258e-06
5.25243e-06
5.25239e-06
5.25255e-06
5.25279e-06
5.25299e-06
5.25301e-06
5.25186e-06
5.23906e-06
5.2403e-06
5.2529e-06
5.2542e-06
5.25418e-06
5.25395e-06
5.25359e-06
5.2532e-06
5.25281e-06
5.2524e-06
5.25196e-06
5.25153e-06
5.25122e-06
5.25085e-06
5.25034e-06
5.24989e-06
5.24992e-06
5.2503e-06
5.25098e-06
5.25183e-06
5.25247e-06
5.25275e-06
5.25277e-06
5.2529e-06
5.25319e-06
5.25354e-06
5.25387e-06
5.25405e-06
5.25408e-06
5.25288e-06
5.2402e-06
5.24143e-06
5.25412e-06
5.25533e-06
5.25522e-06
5.25489e-06
5.2545e-06
5.25413e-06
5.25373e-06
5.25326e-06
5.25272e-06
5.25216e-06
5.25166e-06
5.25104e-06
5.25043e-06
5.25018e-06
5.25024e-06
5.25066e-06
5.25148e-06
5.25221e-06
5.25265e-06
5.25292e-06
5.25335e-06
5.25382e-06
5.25425e-06
5.25473e-06
5.25506e-06
5.25527e-06
5.25539e-06
5.25433e-06
5.24177e-06
5.24312e-06
5.25579e-06
5.25685e-06
5.25662e-06
5.25623e-06
5.25584e-06
5.25543e-06
5.25494e-06
5.25436e-06
5.2537e-06
5.25299e-06
5.25225e-06
5.25153e-06
5.25103e-06
5.25067e-06
5.25058e-06
5.25103e-06
5.25177e-06
5.25241e-06
5.25304e-06
5.25378e-06
5.25442e-06
5.25492e-06
5.25548e-06
5.25596e-06
5.25634e-06
5.25669e-06
5.25704e-06
5.2564e-06
5.24328e-06
5.24535e-06
5.2578e-06
5.25874e-06
5.25843e-06
5.25802e-06
5.25756e-06
5.25703e-06
5.25639e-06
5.25567e-06
5.25486e-06
5.25398e-06
5.25314e-06
5.25246e-06
5.25189e-06
5.25129e-06
5.25107e-06
5.25149e-06
5.25226e-06
5.25322e-06
5.25419e-06
5.25496e-06
5.25563e-06
5.2563e-06
5.25694e-06
5.25748e-06
5.25807e-06
5.25861e-06
5.25909e-06
5.25824e-06
5.24515e-06
5.24795e-06
5.26015e-06
5.26107e-06
5.26071e-06
5.2602e-06
5.2596e-06
5.2589e-06
5.25809e-06
5.25721e-06
5.25626e-06
5.25529e-06
5.25445e-06
5.25371e-06
5.25285e-06
5.252e-06
5.25178e-06
5.25237e-06
5.25339e-06
5.2545e-06
5.25549e-06
5.25638e-06
5.25729e-06
5.25806e-06
5.25882e-06
5.25956e-06
5.26037e-06
5.26106e-06
5.26127e-06
5.26028e-06
5.24775e-06
5.25084e-06
5.26297e-06
5.26381e-06
5.26336e-06
5.26276e-06
5.26202e-06
5.26117e-06
5.26021e-06
5.25917e-06
5.25806e-06
5.25699e-06
5.25603e-06
5.25496e-06
5.25378e-06
5.25279e-06
5.25266e-06
5.25346e-06
5.25463e-06
5.25588e-06
5.25707e-06
5.25818e-06
5.25929e-06
5.26029e-06
5.26128e-06
5.2622e-06
5.26316e-06
5.26388e-06
5.26393e-06
5.26305e-06
5.25102e-06
5.25423e-06
5.26627e-06
5.26706e-06
5.26655e-06
5.26584e-06
5.26498e-06
5.26399e-06
5.26286e-06
5.26161e-06
5.26028e-06
5.25899e-06
5.25768e-06
5.25622e-06
5.25476e-06
5.25369e-06
5.25365e-06
5.25462e-06
5.25595e-06
5.2574e-06
5.25889e-06
5.26026e-06
5.26164e-06
5.26299e-06
5.26422e-06
5.26527e-06
5.26627e-06
5.26706e-06
5.26731e-06
5.2668e-06
5.25466e-06
5.25834e-06
5.27029e-06
5.27104e-06
5.27044e-06
5.2696e-06
5.26858e-06
5.2674e-06
5.26605e-06
5.26453e-06
5.26291e-06
5.26129e-06
5.25958e-06
5.25777e-06
5.25608e-06
5.25492e-06
5.25494e-06
5.25606e-06
5.2576e-06
5.25931e-06
5.26112e-06
5.26284e-06
5.26456e-06
5.26621e-06
5.26762e-06
5.2688e-06
5.26982e-06
5.27082e-06
5.27155e-06
5.27097e-06
5.25883e-06
5.26337e-06
5.27521e-06
5.27587e-06
5.27515e-06
5.27413e-06
5.27292e-06
5.27151e-06
5.26991e-06
5.26811e-06
5.26617e-06
5.26414e-06
5.26201e-06
5.25987e-06
5.25794e-06
5.25662e-06
5.25662e-06
5.25792e-06
5.25981e-06
5.26183e-06
5.26396e-06
5.26608e-06
5.26813e-06
5.26993e-06
5.27157e-06
5.27296e-06
5.27413e-06
5.27541e-06
5.27643e-06
5.27571e-06
5.26388e-06
5.2695e-06
5.28115e-06
5.28169e-06
5.28084e-06
5.27963e-06
5.27819e-06
5.27651e-06
5.27462e-06
5.27249e-06
5.27016e-06
5.26767e-06
5.2651e-06
5.26261e-06
5.26042e-06
5.25891e-06
5.2589e-06
5.2604e-06
5.26267e-06
5.26505e-06
5.26751e-06
5.27003e-06
5.27231e-06
5.27434e-06
5.27633e-06
5.27805e-06
5.27944e-06
5.28096e-06
5.28203e-06
5.2814e-06
5.26992e-06
5.27694e-06
5.28832e-06
5.28875e-06
5.28774e-06
5.28631e-06
5.28457e-06
5.28255e-06
5.28028e-06
5.27776e-06
5.275e-06
5.27208e-06
5.26912e-06
5.26625e-06
5.26372e-06
5.262e-06
5.26201e-06
5.26367e-06
5.26629e-06
5.26909e-06
5.27193e-06
5.27478e-06
5.27749e-06
5.27989e-06
5.28225e-06
5.28428e-06
5.28601e-06
5.28767e-06
5.28876e-06
5.28826e-06
5.2771e-06
5.28593e-06
5.29697e-06
5.29725e-06
5.29601e-06
5.29429e-06
5.29221e-06
5.28983e-06
5.28715e-06
5.28422e-06
5.28103e-06
5.27769e-06
5.27429e-06
5.27095e-06
5.26799e-06
5.266e-06
5.26612e-06
5.26799e-06
5.27094e-06
5.27423e-06
5.27753e-06
5.28082e-06
5.28411e-06
5.28691e-06
5.28957e-06
5.292e-06
5.29411e-06
5.29581e-06
5.29699e-06
5.29658e-06
5.28578e-06
5.29672e-06
5.30729e-06
5.30736e-06
5.30587e-06
5.30389e-06
5.30151e-06
5.29877e-06
5.29568e-06
5.2923e-06
5.28864e-06
5.28477e-06
5.28083e-06
5.27695e-06
5.27357e-06
5.27131e-06
5.27156e-06
5.27377e-06
5.27708e-06
5.28091e-06
5.28482e-06
5.28862e-06
5.29245e-06
5.29568e-06
5.29869e-06
5.3016e-06
5.30394e-06
5.30572e-06
5.30696e-06
5.30669e-06
5.29642e-06
5.30966e-06
5.31962e-06
5.31951e-06
5.31784e-06
5.31564e-06
5.31295e-06
5.30982e-06
5.30627e-06
5.30238e-06
5.29819e-06
5.29374e-06
5.28923e-06
5.28483e-06
5.28114e-06
5.27857e-06
5.27877e-06
5.28132e-06
5.28507e-06
5.28947e-06
5.29412e-06
5.29842e-06
5.30274e-06
5.30643e-06
5.30995e-06
5.31323e-06
5.3158e-06
5.31774e-06
5.31919e-06
5.31923e-06
5.30949e-06
5.32518e-06
5.33453e-06
5.3343e-06
5.33245e-06
5.32994e-06
5.32686e-06
5.32328e-06
5.31924e-06
5.31483e-06
5.31009e-06
5.30505e-06
5.30001e-06
5.29508e-06
5.29099e-06
5.28808e-06
5.28805e-06
5.29088e-06
5.29526e-06
5.30025e-06
5.30556e-06
5.31037e-06
5.31517e-06
5.31947e-06
5.32355e-06
5.3272e-06
5.33003e-06
5.33238e-06
5.33423e-06
5.33455e-06
5.32533e-06
5.34383e-06
5.35265e-06
5.3522e-06
5.35004e-06
5.34713e-06
5.34361e-06
5.33956e-06
5.33501e-06
5.33005e-06
5.32472e-06
5.31907e-06
5.31346e-06
5.3079e-06
5.30321e-06
5.30001e-06
5.29984e-06
5.30299e-06
5.30804e-06
5.31365e-06
5.31943e-06
5.32478e-06
5.33016e-06
5.33515e-06
5.33974e-06
5.34382e-06
5.34712e-06
5.34998e-06
5.35221e-06
5.35274e-06
5.34405e-06
5.36625e-06
5.37441e-06
5.3736e-06
5.37109e-06
5.36783e-06
5.36392e-06
5.35937e-06
5.35426e-06
5.34867e-06
5.34272e-06
5.33644e-06
5.33016e-06
5.32412e-06
5.31865e-06
5.31515e-06
5.31504e-06
5.31858e-06
5.3241e-06
5.33033e-06
5.33652e-06
5.34258e-06
5.34862e-06
5.35427e-06
5.35932e-06
5.36395e-06
5.36785e-06
5.37109e-06
5.37365e-06
5.3745e-06
5.36624e-06
5.39305e-06
5.40048e-06
5.39938e-06
5.39665e-06
5.39305e-06
5.38862e-06
5.38347e-06
5.37781e-06
5.37166e-06
5.36515e-06
5.35834e-06
5.35131e-06
5.34497e-06
5.33877e-06
5.33479e-06
5.33475e-06
5.33878e-06
5.34469e-06
5.35154e-06
5.35823e-06
5.36506e-06
5.37167e-06
5.37784e-06
5.38344e-06
5.38857e-06
5.39307e-06
5.39669e-06
5.39953e-06
5.40079e-06
5.39289e-06
5.42523e-06
5.43226e-06
5.43083e-06
5.42768e-06
5.4235e-06
5.41845e-06
5.41275e-06
5.4066e-06
5.39993e-06
5.39286e-06
5.3857e-06
5.37804e-06
5.37141e-06
5.3647e-06
5.36011e-06
5.36032e-06
5.36489e-06
5.37109e-06
5.37844e-06
5.38568e-06
5.39302e-06
5.40001e-06
5.40661e-06
5.41292e-06
5.4185e-06
5.42349e-06
5.42768e-06
5.43094e-06
5.43265e-06
5.42515e-06
5.46439e-06
5.47121e-06
5.469e-06
5.46518e-06
5.46037e-06
5.45475e-06
5.44848e-06
5.44178e-06
5.43464e-06
5.42717e-06
5.41991e-06
5.412e-06
5.40483e-06
5.39801e-06
5.39306e-06
5.39341e-06
5.39827e-06
5.40477e-06
5.41225e-06
5.41983e-06
5.42739e-06
5.43478e-06
5.44187e-06
5.44867e-06
5.45486e-06
5.4604e-06
5.46525e-06
5.46927e-06
5.47154e-06
5.46399e-06
5.51242e-06
5.51939e-06
5.51602e-06
5.51147e-06
5.50587e-06
5.49959e-06
5.49279e-06
5.48558e-06
5.47803e-06
5.47058e-06
5.46334e-06
5.45597e-06
5.4491e-06
5.44297e-06
5.43852e-06
5.439e-06
5.44319e-06
5.44932e-06
5.45611e-06
5.46332e-06
5.47069e-06
5.47815e-06
5.48567e-06
5.49254e-06
5.49946e-06
5.50611e-06
5.51169e-06
5.51627e-06
5.51951e-06
5.51162e-06
5.57292e-06
5.58218e-06
5.57701e-06
5.57147e-06
5.56471e-06
5.55728e-06
5.54961e-06
5.54204e-06
5.53502e-06
5.52922e-06
5.52512e-06
5.52426e-06
5.52627e-06
5.52898e-06
5.53304e-06
5.53497e-06
5.52985e-06
5.52621e-06
5.52452e-06
5.52581e-06
5.52958e-06
5.53503e-06
5.54212e-06
5.54937e-06
5.55681e-06
5.56497e-06
5.57191e-06
5.57708e-06
5.58226e-06
5.57204e-06
5.66083e-06
5.68221e-06
5.67362e-06
5.67175e-06
5.65958e-06
5.64721e-06
5.64079e-06
5.63517e-06
5.63397e-06
5.64497e-06
5.67429e-06
5.73352e-06
5.82211e-06
5.9102e-06
5.9906e-06
6.00025e-06
5.91346e-06
5.82262e-06
5.73727e-06
5.6751e-06
5.64559e-06
5.63455e-06
5.63461e-06
5.64115e-06
5.64721e-06
5.65924e-06
5.67235e-06
5.67436e-06
5.68302e-06
5.65935e-06
5.86023e-06
5.94505e-06
5.92841e-06
5.9994e-06
5.91962e-06
5.8868e-06
5.92719e-06
5.92249e-06
5.96357e-06
6.11644e-06
6.38051e-06
6.82105e-06
7.46346e-06
8.00718e-06
8.35464e-06
8.39856e-06
8.01969e-06
7.47398e-06
6.8518e-06
6.38292e-06
6.11884e-06
5.96619e-06
5.92243e-06
5.92938e-06
5.8866e-06
5.91845e-06
6.00232e-06
5.93066e-06
5.94925e-06
5.85689e-06
6.5417e-06
6.99433e-06
6.85712e-06
7.54817e-06
6.96183e-06
6.93729e-06
7.40027e-06
7.34053e-06
7.56529e-06
8.32569e-06
9.7417e-06
1.12388e-05
1.30853e-05
1.45381e-05
1.54379e-05
1.54137e-05
1.45554e-05
1.31146e-05
1.12814e-05
9.74169e-06
8.3364e-06
7.57369e-06
7.34066e-06
7.41197e-06
6.93681e-06
6.95846e-06
7.57388e-06
6.86347e-06
7.02105e-06
6.53042e-06
8.72345e-06
1.02949e-05
9.94204e-06
1.21363e-05
1.09113e-05
1.13929e-05
1.25421e-05
1.30074e-05
1.3835e-05
1.66044e-05
1.94813e-05
2.18536e-05
2.44687e-05
2.62612e-05
2.74981e-05
2.7462e-05
2.62418e-05
2.452e-05
2.19035e-05
1.94462e-05
1.65898e-05
1.38515e-05
1.30301e-05
1.25762e-05
1.14014e-05
1.08468e-05
1.22602e-05
9.99434e-06
1.03635e-05
8.70126e-06
1.30985e-05
1.5352e-05
1.72229e-05
1.88886e-05
2.14425e-05
2.15502e-05
2.20641e-05
2.62185e-05
2.63644e-05
3.0005e-05
3.09439e-05
3.26886e-05
3.43915e-05
3.61099e-05
3.61811e-05
3.61926e-05
3.59741e-05
3.4474e-05
3.27318e-05
3.07726e-05
2.97206e-05
2.63698e-05
2.63032e-05
2.21328e-05
2.17027e-05
2.10271e-05
1.91412e-05
1.74701e-05
1.53767e-05
1.31309e-05
1.88624e-05
2.39011e-05
2.48331e-05
2.89902e-05
3.21094e-05
3.32124e-05
3.65371e-05
3.81817e-05
3.95078e-05
4.18723e-05
4.1549e-05
4.30228e-05
4.25098e-05
4.45996e-05
4.45222e-05
4.42125e-05
4.43606e-05
4.24594e-05
4.29492e-05
4.12456e-05
4.14278e-05
3.94605e-05
3.82904e-05
3.61979e-05
3.3489e-05
3.20372e-05
2.93524e-05
2.51461e-05
2.41425e-05
1.88927e-05
2.35511e-05
2.42561e-05
2.89781e-05
2.97768e-05
3.54095e-05
3.65084e-05
3.88636e-05
4.30892e-05
4.20441e-05
4.77958e-05
4.55491e-05
4.53143e-05
4.59413e-05
4.90557e-05
4.74951e-05
4.71643e-05
4.89429e-05
4.53996e-05
4.51166e-05
4.51145e-05
4.74774e-05
4.24518e-05
4.35407e-05
3.89404e-05
3.65726e-05
3.60381e-05
3.0099e-05
2.93973e-05
2.44512e-05
2.34427e-05
2.43735e-05
2.38154e-05
2.69966e-05
3.0575e-05
3.34646e-05
3.7031e-05
3.96356e-05
4.38686e-05
4.40647e-05
4.64839e-05
4.41476e-05
4.43854e-05
4.42162e-05
4.50365e-05
4.48759e-05
4.48707e-05
4.53105e-05
4.41281e-05
4.41305e-05
4.43296e-05
4.69369e-05
4.53268e-05
4.4334e-05
3.96669e-05
3.72276e-05
3.39295e-05
3.09443e-05
2.66537e-05
2.38145e-05
2.41333e-05
2.28742e-05
2.40447e-05
2.65936e-05
3.21738e-05
3.40508e-05
3.4437e-05
3.60022e-05
3.81312e-05
3.94141e-05
4.03902e-05
4.01124e-05
4.10035e-05
4.09743e-05
4.13617e-05
4.26194e-05
4.30224e-05
4.17013e-05
4.08586e-05
4.11813e-05
4.03292e-05
4.05193e-05
3.97609e-05
3.88916e-05
3.63145e-05
3.51139e-05
3.42974e-05
3.25268e-05
2.649e-05
2.38689e-05
2.33692e-05
2.01011e-05
2.14426e-05
2.52815e-05
2.89349e-05
2.96685e-05
2.87079e-05
3.04519e-05
3.20149e-05
3.27047e-05
3.41932e-05
3.48023e-05
3.63049e-05
3.68917e-05
3.7494e-05
3.95001e-05
3.95292e-05
3.74693e-05
3.71092e-05
3.65465e-05
3.49689e-05
3.46162e-05
3.31042e-05
3.27825e-05
3.09689e-05
2.90645e-05
2.97903e-05
2.90075e-05
2.55232e-05
2.1481e-05
2.01782e-05
1.75502e-05
1.83834e-05
2.0943e-05
2.41554e-05
2.2595e-05
2.27545e-05
2.49564e-05
2.65558e-05
2.82418e-05
2.97455e-05
2.95905e-05
3.02057e-05
3.00003e-05
3.09739e-05
3.1936e-05
3.17786e-05
3.09637e-05
3.00857e-05
3.02116e-05
2.94077e-05
2.99233e-05
2.84509e-05
2.68313e-05
2.52059e-05
2.29218e-05
2.26569e-05
2.40418e-05
2.10906e-05
1.85395e-05
1.74802e-05
1.55226e-05
1.60863e-05
1.69599e-05
1.87955e-05
1.76554e-05
1.71079e-05
1.87624e-05
2.09433e-05
2.3556e-05
2.628e-05
2.74516e-05
2.79795e-05
2.7965e-05
2.83147e-05
2.83707e-05
2.82928e-05
2.84063e-05
2.79787e-05
2.78553e-05
2.72768e-05
2.63347e-05
2.36323e-05
2.10274e-05
1.8878e-05
1.72326e-05
1.77419e-05
1.88852e-05
1.70495e-05
1.61298e-05
1.55195e-05
1.38649e-05
1.41283e-05
1.43276e-05
1.49009e-05
1.45736e-05
1.4129e-05
1.44946e-05
1.56219e-05
1.77879e-05
2.08101e-05
2.38882e-05
2.60441e-05
2.72582e-05
2.78781e-05
2.78342e-05
2.77893e-05
2.79226e-05
2.72767e-05
2.59617e-05
2.375e-05
2.07814e-05
1.7772e-05
1.56413e-05
1.45484e-05
1.42092e-05
1.46368e-05
1.4995e-05
1.43654e-05
1.41592e-05
1.39157e-05
1.27403e-05
1.26476e-05
1.26416e-05
1.27257e-05
1.26298e-05
1.2511e-05
1.25909e-05
1.29019e-05
1.37209e-05
1.55697e-05
1.83542e-05
2.17772e-05
2.4641e-05
2.6415e-05
2.70387e-05
2.70087e-05
2.64303e-05
2.46639e-05
2.17274e-05
1.82939e-05
1.55626e-05
1.37197e-05
1.29277e-05
1.26179e-05
1.25613e-05
1.26877e-05
1.27873e-05
1.26754e-05
1.26747e-05
1.27182e-05
1.17816e-05
1.15962e-05
1.1545e-05
1.1527e-05
1.14995e-05
1.14856e-05
1.15324e-05
1.16507e-05
1.1906e-05
1.25108e-05
1.38691e-05
1.62208e-05
1.92927e-05
2.22526e-05
2.38149e-05
2.37939e-05
2.22617e-05
1.93094e-05
1.6207e-05
1.38393e-05
1.25143e-05
1.19046e-05
1.16588e-05
1.15403e-05
1.15039e-05
1.15232e-05
1.15581e-05
1.15811e-05
1.16374e-05
1.17813e-05
1.10108e-05
1.08382e-05
1.0789e-05
1.07769e-05
1.07688e-05
1.0785e-05
1.0836e-05
1.0905e-05
1.10047e-05
1.11807e-05
1.15587e-05
1.24024e-05
1.39045e-05
1.57768e-05
1.75408e-05
1.75229e-05
1.5769e-05
1.39087e-05
1.23938e-05
1.15554e-05
1.11838e-05
1.10021e-05
1.09085e-05
1.08437e-05
1.08038e-05
1.07886e-05
1.07861e-05
1.081e-05
1.08675e-05
1.10303e-05
1.04116e-05
1.02205e-05
1.01746e-05
1.01678e-05
1.01827e-05
1.02174e-05
1.02738e-05
1.03251e-05
1.03806e-05
1.04391e-05
1.05237e-05
1.06986e-05
1.10698e-05
1.16759e-05
1.23213e-05
1.23219e-05
1.16799e-05
1.10755e-05
1.06955e-05
1.0526e-05
1.04439e-05
1.03832e-05
1.03346e-05
1.02857e-05
1.02418e-05
1.02056e-05
1.01853e-05
1.01888e-05
1.0243e-05
1.04363e-05
9.92296e-06
9.68175e-06
9.6389e-06
9.64477e-06
9.67244e-06
9.71648e-06
9.76493e-06
9.79869e-06
9.83022e-06
9.84851e-06
9.85518e-06
9.8645e-06
9.8986e-06
9.98232e-06
1.00962e-05
1.00946e-05
9.98735e-06
9.90614e-06
9.87034e-06
9.85951e-06
9.85006e-06
9.83346e-06
9.8109e-06
9.7723e-06
9.72887e-06
9.68925e-06
9.66942e-06
9.66318e-06
9.71537e-06
9.94213e-06
9.47721e-06
9.21063e-06
9.17147e-06
9.18696e-06
9.2213e-06
9.26187e-06
9.29094e-06
9.30877e-06
9.31695e-06
9.30695e-06
9.28313e-06
9.25423e-06
9.22276e-06
9.19699e-06
9.18497e-06
9.18179e-06
9.19769e-06
9.22325e-06
9.25522e-06
9.28398e-06
9.30529e-06
9.31546e-06
9.30862e-06
9.28599e-06
9.25734e-06
9.22997e-06
9.21222e-06
9.20008e-06
9.24783e-06
9.49164e-06
9.05432e-06
8.78821e-06
8.75351e-06
8.77322e-06
8.80433e-06
8.82996e-06
8.8404e-06
8.8392e-06
8.82141e-06
8.78897e-06
8.74923e-06
8.70344e-06
8.64976e-06
8.59956e-06
8.56782e-06
8.56987e-06
8.60598e-06
8.65174e-06
8.70113e-06
8.74985e-06
8.79382e-06
8.82647e-06
8.8378e-06
8.83442e-06
8.8231e-06
8.80792e-06
8.79131e-06
8.77826e-06
8.82351e-06
9.0695e-06
8.65065e-06
8.40247e-06
8.37377e-06
8.38998e-06
8.40766e-06
8.41615e-06
8.41193e-06
8.39286e-06
8.3591e-06
8.31484e-06
8.26115e-06
8.19879e-06
8.13132e-06
8.07446e-06
8.0421e-06
8.04786e-06
8.08633e-06
8.14045e-06
8.20478e-06
8.27164e-06
8.33213e-06
8.37754e-06
8.40292e-06
8.41411e-06
8.41539e-06
8.40848e-06
8.39503e-06
8.38711e-06
8.43284e-06
8.66979e-06
8.27576e-06
8.05635e-06
8.02456e-06
8.03044e-06
8.03458e-06
8.03344e-06
8.01981e-06
7.99046e-06
7.9486e-06
7.89322e-06
7.82691e-06
7.75487e-06
7.68329e-06
7.62451e-06
7.58984e-06
7.59338e-06
7.63172e-06
7.69174e-06
7.76535e-06
7.84153e-06
7.91039e-06
7.96415e-06
7.99982e-06
8.02139e-06
8.03113e-06
8.03168e-06
8.02595e-06
8.0261e-06
8.07295e-06
8.29772e-06
7.93826e-06
7.73123e-06
7.69473e-06
7.69405e-06
7.69477e-06
7.68792e-06
7.66432e-06
7.6281e-06
7.58041e-06
7.51785e-06
7.44496e-06
7.36853e-06
7.2947e-06
7.2328e-06
7.19367e-06
7.19332e-06
7.23066e-06
7.29321e-06
7.37086e-06
7.45075e-06
7.52381e-06
7.58338e-06
7.62676e-06
7.6562e-06
7.67535e-06
7.68552e-06
7.6894e-06
7.69644e-06
7.74256e-06
7.95343e-06
7.61071e-06
7.42349e-06
7.39132e-06
7.3861e-06
7.37885e-06
7.36037e-06
7.32944e-06
7.29101e-06
7.24081e-06
7.17624e-06
7.10216e-06
7.02407e-06
6.9485e-06
6.88452e-06
6.84355e-06
6.84109e-06
6.87711e-06
6.93938e-06
7.0163e-06
7.09563e-06
7.16986e-06
7.23406e-06
7.28529e-06
7.32326e-06
7.35094e-06
7.37016e-06
7.38298e-06
7.39569e-06
7.44061e-06
7.63359e-06
7.3113e-06
7.15897e-06
7.12197e-06
7.10578e-06
7.08501e-06
7.0571e-06
7.0228e-06
6.98101e-06
6.92738e-06
6.86243e-06
6.78908e-06
6.71105e-06
6.63494e-06
6.56976e-06
6.52772e-06
6.52435e-06
6.56019e-06
6.62307e-06
6.70043e-06
6.78091e-06
6.85734e-06
6.92502e-06
6.98087e-06
7.02449e-06
7.059e-06
7.08614e-06
7.10648e-06
7.1241e-06
7.16753e-06
7.33902e-06
7.05407e-06
6.9246e-06
6.87791e-06
6.85218e-06
6.82586e-06
6.7961e-06
6.75874e-06
6.71205e-06
6.65609e-06
6.59135e-06
6.51913e-06
6.44198e-06
6.36662e-06
6.30216e-06
6.26139e-06
6.25988e-06
6.29728e-06
6.36089e-06
6.43788e-06
6.51715e-06
6.59187e-06
6.65906e-06
6.71701e-06
6.76508e-06
6.80435e-06
6.83569e-06
6.85967e-06
6.87938e-06
6.91924e-06
7.06776e-06
6.82058e-06
6.69929e-06
6.65465e-06
6.63042e-06
6.60767e-06
6.57783e-06
6.53698e-06
6.48846e-06
6.43313e-06
6.36857e-06
6.29636e-06
6.2201e-06
6.14687e-06
6.08557e-06
6.04805e-06
6.04888e-06
6.08666e-06
6.14863e-06
6.22264e-06
6.29843e-06
6.3701e-06
6.43564e-06
6.49349e-06
6.54276e-06
6.58287e-06
6.61448e-06
6.6384e-06
6.65724e-06
6.69181e-06
6.81875e-06
6.60436e-06
6.49308e-06
6.45841e-06
6.44072e-06
6.41944e-06
6.38801e-06
6.34807e-06
6.3029e-06
6.24967e-06
6.18615e-06
6.11502e-06
6.04107e-06
5.97121e-06
5.91348e-06
5.87856e-06
5.88049e-06
5.91774e-06
5.97706e-06
6.04659e-06
6.11744e-06
6.18506e-06
6.24746e-06
6.30297e-06
6.35017e-06
6.38815e-06
6.41741e-06
6.43911e-06
6.45593e-06
6.48556e-06
6.59391e-06
6.40266e-06
6.3103e-06
6.28403e-06
6.26891e-06
6.24745e-06
6.21831e-06
6.18396e-06
6.14287e-06
6.09182e-06
6.03178e-06
5.9656e-06
5.89771e-06
5.83362e-06
5.77957e-06
5.74584e-06
5.74772e-06
5.78343e-06
5.83878e-06
5.90258e-06
5.96736e-06
6.02962e-06
6.08723e-06
6.13837e-06
6.18127e-06
6.21544e-06
6.24161e-06
6.26118e-06
6.27662e-06
6.30239e-06
6.39394e-06
6.22318e-06
6.14921e-06
6.12682e-06
6.11204e-06
6.0937e-06
6.07003e-06
6.03998e-06
6.0008e-06
5.95342e-06
5.89975e-06
5.84165e-06
5.78214e-06
5.72437e-06
5.67355e-06
5.64111e-06
5.64278e-06
5.67658e-06
5.72747e-06
5.78471e-06
5.84228e-06
5.89755e-06
5.94867e-06
5.99402e-06
6.03224e-06
6.06297e-06
6.08685e-06
6.10489e-06
6.11908e-06
6.14108e-06
6.21674e-06
6.07053e-06
6.00561e-06
5.98608e-06
5.97477e-06
5.96029e-06
5.93946e-06
5.91083e-06
5.87463e-06
5.83349e-06
5.78788e-06
5.73881e-06
5.68773e-06
5.63633e-06
5.59005e-06
5.56097e-06
5.56284e-06
5.59296e-06
5.63744e-06
5.68689e-06
5.73675e-06
5.78491e-06
5.82987e-06
5.86985e-06
5.90378e-06
5.93148e-06
5.95317e-06
5.96944e-06
5.98194e-06
5.99994e-06
6.0604e-06
5.93258e-06
5.87747e-06
5.86491e-06
5.85659e-06
5.84216e-06
5.82211e-06
5.79615e-06
5.76578e-06
5.73177e-06
5.69389e-06
5.65311e-06
5.6097e-06
5.56535e-06
5.5263e-06
5.50267e-06
5.50357e-06
5.52713e-06
5.56349e-06
5.60544e-06
5.64908e-06
5.69175e-06
5.73137e-06
5.76635e-06
5.79598e-06
5.82009e-06
5.8388e-06
5.8526e-06
5.86302e-06
5.87742e-06
5.92429e-06
5.80859e-06
5.77217e-06
5.76531e-06
5.75531e-06
5.74072e-06
5.72332e-06
5.70229e-06
5.67786e-06
5.64935e-06
5.61749e-06
5.58319e-06
5.54645e-06
5.50948e-06
5.47804e-06
5.45902e-06
5.45819e-06
5.47544e-06
5.50486e-06
5.54087e-06
5.57943e-06
5.61727e-06
5.6518e-06
5.68171e-06
5.7065e-06
5.72622e-06
5.74124e-06
5.75222e-06
5.76053e-06
5.77187e-06
5.80852e-06
5.71332e-06
5.69372e-06
5.68356e-06
5.67137e-06
5.65931e-06
5.64582e-06
5.62942e-06
5.60922e-06
5.58532e-06
5.55904e-06
5.53053e-06
5.49984e-06
5.46963e-06
5.44425e-06
5.42793e-06
5.4255e-06
5.43834e-06
5.46267e-06
5.4936e-06
5.52675e-06
5.55872e-06
5.58737e-06
5.61167e-06
5.63147e-06
5.6471e-06
5.65904e-06
5.66799e-06
5.67494e-06
5.68396e-06
5.71179e-06
5.64144e-06
5.62399e-06
5.61054e-06
5.60194e-06
5.59422e-06
5.58439e-06
5.5717e-06
5.55536e-06
5.53634e-06
5.51549e-06
5.49211e-06
5.46681e-06
5.4422e-06
5.42112e-06
5.40644e-06
5.40342e-06
5.41389e-06
5.43409e-06
5.45942e-06
5.48595e-06
5.51113e-06
5.53374e-06
5.55328e-06
5.56963e-06
5.58279e-06
5.59302e-06
5.60071e-06
5.60642e-06
5.61282e-06
5.63215e-06
5.57567e-06
5.55728e-06
5.55096e-06
5.54845e-06
5.54382e-06
5.53622e-06
5.52565e-06
5.51247e-06
5.49749e-06
5.48023e-06
5.46019e-06
5.43888e-06
5.4185e-06
5.40077e-06
5.3884e-06
5.38637e-06
5.3957e-06
5.41225e-06
5.43207e-06
5.45243e-06
5.47203e-06
5.49053e-06
5.50748e-06
5.5221e-06
5.53381e-06
5.54253e-06
5.54863e-06
5.55249e-06
5.55586e-06
5.5676e-06
5.51468e-06
5.50733e-06
5.51023e-06
5.50981e-06
5.50546e-06
5.49817e-06
5.48851e-06
5.47752e-06
5.46505e-06
5.44971e-06
5.4319e-06
5.41381e-06
5.39693e-06
5.38226e-06
5.37233e-06