/*--------------------------------*- C++ -*----------------------------------*\
| =========                 |                                                 |
| \\      /  F ield         | OpenFOAM: The Open Source CFD Toolbox           |
|  \\    /   O peration     | Version:  2312                                  |
|   \\  /    A nd           | Website:  www.openfoam.com                      |
|    \\/     M anipulation  |                                                 |
\*---------------------------------------------------------------------------*/
FoamFile
{
    version     2.0;
    format      ascii;
    arch        "LSB;label=32;scalar=64";
    class       volScalarField;
    location    "1.2036445";
    object      p;
}
// * * * * * * * * * * * * * * * * * * * * * * * * * * * * * * * * * * * * * //

dimensions      [1 -1 -2 0 0 0 0];

internalField   nonuniform List<scalar> 
90000
(
4847.77
4847.77
4847.77
4847.77
4847.77
4847.77
4847.76
4847.76
4847.76
4847.76
4847.76
4847.76
4847.76
4847.76
4847.76
4847.76
4847.76
4847.76
4847.76
4847.76
4847.76
4847.76
4847.76
4847.76
4847.76
4847.77
4847.77
4847.77
4847.77
4847.76
4749.67
4749.67
4749.66
4749.66
4749.66
4749.66
4749.66
4749.66
4749.66
4749.66
4749.66
4749.66
4749.66
4749.66
4749.66
4749.66
4749.66
4749.66
4749.66
4749.66
4749.66
4749.66
4749.66
4749.66
4749.66
4749.66
4749.67
4749.67
4749.67
4749.67
4651.56
4651.56
4651.56
4651.56
4651.56
4651.56
4651.56
4651.56
4651.56
4651.56
4651.56
4651.56
4651.56
4651.56
4651.56
4651.56
4651.56
4651.56
4651.56
4651.56
4651.56
4651.56
4651.56
4651.56
4651.56
4651.56
4651.56
4651.56
4651.57
4651.57
4553.46
4553.46
4553.46
4553.46
4553.46
4553.46
4553.46
4553.46
4553.46
4553.46
4553.46
4553.46
4553.46
4553.46
4553.46
4553.46
4553.46
4553.46
4553.46
4553.46
4553.46
4553.46
4553.46
4553.46
4553.46
4553.46
4553.46
4553.46
4553.46
4553.46
4455.36
4455.36
4455.36
4455.36
4455.36
4455.36
4455.36
4455.36
4455.36
4455.36
4455.37
4455.37
4455.37
4455.37
4455.37
4455.36
4455.36
4455.36
4455.36
4455.36
4455.36
4455.36
4455.36
4455.36
4455.36
4455.36
4455.36
4455.36
4455.36
4455.36
4357.26
4357.26
4357.26
4357.26
4357.26
4357.26
4357.26
4357.26
4357.26
4357.26
4357.27
4357.27
4357.27
4357.27
4357.27
4357.27
4357.27
4357.27
4357.27
4357.27
4357.26
4357.26
4357.26
4357.26
4357.26
4357.26
4357.26
4357.26
4357.26
4357.26
4259.16
4259.16
4259.16
4259.16
4259.16
4259.16
4259.16
4259.16
4259.16
4259.16
4259.16
4259.17
4259.17
4259.17
4259.17
4259.17
4259.17
4259.17
4259.17
4259.17
4259.17
4259.17
4259.16
4259.16
4259.16
4259.16
4259.16
4259.16
4259.16
4259.16
4161.07
4161.07
4161.07
4161.07
4161.07
4161.07
4161.07
4161.06
4161.06
4161.06
4161.06
4161.06
4161.07
4161.07
4161.07
4161.07
4161.07
4161.07
4161.07
4161.07
4161.07
4161.07
4161.06
4161.06
4161.06
4161.06
4161.06
4161.06
4161.06
4161.06
4062.97
4062.97
4062.97
4062.97
4062.97
4062.97
4062.97
4062.97
4062.97
4062.96
4062.96
4062.96
4062.97
4062.97
4062.97
4062.97
4062.97
4062.97
4062.97
4062.97
4062.97
4062.97
4062.97
4062.96
4062.96
4062.96
4062.96
4062.97
4062.97
4062.97
3964.88
3964.88
3964.88
3964.88
3964.87
3964.87
3964.87
3964.87
3964.87
3964.87
3964.87
3964.87
3964.87
3964.87
3964.87
3964.87
3964.87
3964.87
3964.87
3964.87
3964.87
3964.87
3964.87
3964.87
3964.87
3964.87
3964.87
3964.87
3964.87
3964.87
3866.78
3866.78
3866.78
3866.78
3866.78
3866.77
3866.77
3866.77
3866.77
3866.77
3866.77
3866.77
3866.77
3866.77
3866.77
3866.77
3866.77
3866.77
3866.77
3866.77
3866.77
3866.77
3866.77
3866.77
3866.77
3866.77
3866.77
3866.77
3866.77
3866.77
3768.68
3768.68
3768.68
3768.68
3768.68
3768.68
3768.68
3768.67
3768.67
3768.67
3768.67
3768.67
3768.67
3768.67
3768.67
3768.67
3768.67
3768.67
3768.67
3768.68
3768.68
3768.68
3768.68
3768.68
3768.68
3768.68
3768.68
3768.68
3768.68
3768.68
3670.58
3670.58
3670.58
3670.58
3670.58
3670.58
3670.58
3670.58
3670.58
3670.58
3670.58
3670.58
3670.58
3670.57
3670.58
3670.58
3670.58
3670.58
3670.58
3670.58
3670.58
3670.58
3670.58
3670.58
3670.58
3670.58
3670.58
3670.58
3670.58
3670.58
3572.48
3572.48
3572.48
3572.48
3572.48
3572.48
3572.48
3572.48
3572.48
3572.48
3572.48
3572.48
3572.48
3572.48
3572.48
3572.48
3572.48
3572.48
3572.48
3572.48
3572.48
3572.48
3572.49
3572.49
3572.49
3572.49
3572.49
3572.49
3572.49
3572.49
3474.39
3474.39
3474.39
3474.39
3474.39
3474.39
3474.39
3474.39
3474.39
3474.39
3474.38
3474.38
3474.38
3474.38
3474.38
3474.38
3474.38
3474.38
3474.38
3474.38
3474.39
3474.39
3474.39
3474.39
3474.39
3474.4
3474.4
3474.4
3474.4
3474.4
3376.3
3376.3
3376.3
3376.3
3376.3
3376.29
3376.29
3376.29
3376.29
3376.29
3376.29
3376.29
3376.28
3376.28
3376.28
3376.28
3376.28
3376.28
3376.28
3376.29
3376.29
3376.29
3376.29
3376.3
3376.3
3376.3
3376.3
3376.31
3376.31
3376.31
3278.21
3278.21
3278.21
3278.2
3278.2
3278.2
3278.2
3278.2
3278.19
3278.19
3278.19
3278.19
3278.19
3278.18
3278.18
3278.18
3278.18
3278.18
3278.19
3278.19
3278.19
3278.19
3278.2
3278.2
3278.2
3278.2
3278.21
3278.21
3278.21
3278.21
3180.12
3180.12
3180.11
3180.11
3180.11
3180.11
3180.1
3180.1
3180.1
3180.09
3180.09
3180.09
3180.09
3180.09
3180.08
3180.08
3180.08
3180.09
3180.09
3180.09
3180.09
3180.1
3180.1
3180.1
3180.11
3180.11
3180.11
3180.11
3180.11
3180.11
3082.03
3082.03
3082.02
3082.02
3082.02
3082.01
3082.01
3082.01
3082
3082
3081.99
3081.99
3081.99
3081.99
3081.98
3081.98
3081.99
3081.99
3081.99
3081.99
3082
3082
3082
3082.01
3082.01
3082.02
3082.02
3082.02
3082.02
3082.02
2983.94
2983.94
2983.93
2983.93
2983.93
2983.92
2983.92
2983.91
2983.91
2983.9
2983.9
2983.89
2983.89
2983.89
2983.89
2983.89
2983.89
2983.89
2983.89
2983.9
2983.9
2983.91
2983.91
2983.92
2983.92
2983.92
2983.93
2983.93
2983.93
2983.93
2885.85
2885.85
2885.84
2885.84
2885.84
2885.83
2885.82
2885.82
2885.81
2885.81
2885.8
2885.79
2885.79
2885.79
2885.79
2885.79
2885.79
2885.79
2885.8
2885.8
2885.81
2885.81
2885.82
2885.82
2885.83
2885.83
2885.84
2885.84
2885.85
2885.85
2787.76
2787.76
2787.76
2787.75
2787.74
2787.74
2787.73
2787.72
2787.72
2787.71
2787.7
2787.7
2787.69
2787.69
2787.69
2787.69
2787.69
2787.69
2787.7
2787.7
2787.71
2787.72
2787.73
2787.73
2787.74
2787.75
2787.75
2787.75
2787.76
2787.76
2689.67
2689.67
2689.67
2689.66
2689.65
2689.65
2689.64
2689.63
2689.62
2689.61
2689.61
2689.6
2689.59
2689.59
2689.59
2689.59
2689.59
2689.6
2689.6
2689.61
2689.62
2689.62
2689.63
2689.64
2689.65
2689.66
2689.66
2689.67
2689.67
2689.67
2591.59
2591.59
2591.58
2591.57
2591.57
2591.56
2591.55
2591.54
2591.53
2591.52
2591.51
2591.5
2591.5
2591.49
2591.49
2591.49
2591.49
2591.5
2591.5
2591.51
2591.52
2591.53
2591.54
2591.55
2591.56
2591.57
2591.58
2591.58
2591.59
2591.59
2493.51
2493.5
2493.5
2493.49
2493.48
2493.47
2493.46
2493.45
2493.44
2493.43
2493.42
2493.41
2493.4
2493.4
2493.39
2493.39
2493.4
2493.4
2493.41
2493.42
2493.43
2493.44
2493.45
2493.46
2493.48
2493.49
2493.5
2493.5
2493.51
2493.51
2395.43
2395.43
2395.42
2395.42
2395.4
2395.39
2395.38
2395.36
2395.35
2395.33
2395.32
2395.31
2395.3
2395.3
2395.3
2395.3
2395.3
2395.31
2395.31
2395.33
2395.34
2395.35
2395.36
2395.38
2395.39
2395.41
2395.42
2395.43
2395.43
2395.43
2297.37
2297.36
2297.36
2297.34
2297.33
2297.32
2297.3
2297.28
2297.26
2297.25
2297.23
2297.22
2297.21
2297.2
2297.2
2297.2
2297.2
2297.21
2297.22
2297.23
2297.25
2297.26
2297.28
2297.3
2297.32
2297.33
2297.35
2297.36
2297.36
2297.37
2199.31
2199.3
2199.29
2199.28
2199.26
2199.24
2199.22
2199.2
2199.18
2199.16
2199.14
2199.13
2199.11
2199.1
2199.1
2199.1
2199.1
2199.11
2199.13
2199.14
2199.16
2199.18
2199.2
2199.23
2199.25
2199.27
2199.28
2199.3
2199.3
2199.31
2101.26
2101.25
2101.24
2101.23
2101.2
2101.18
2101.16
2101.13
2101.1
2101.08
2101.05
2101.03
2101.02
2101.01
2101
2101
2101.01
2101.02
2101.03
2101.05
2101.08
2101.1
2101.13
2101.16
2101.18
2101.21
2101.23
2101.24
2101.26
2101.26
2003.22
2003.21
2003.2
2003.18
2003.16
2003.13
2003.1
2003.06
2003.03
2003
2002.97
2002.95
2002.93
2002.91
2002.91
2002.91
2002.91
2002.93
2002.95
2002.97
2003
2003.03
2003.06
2003.1
2003.13
2003.16
2003.18
2003.2
2003.22
2003.22
1905.19
1905.18
1905.17
1905.15
1905.12
1905.08
1905.05
1905.01
1904.96
1904.93
1904.89
1904.86
1904.84
1904.82
1904.81
1904.81
1904.82
1904.84
1904.86
1904.89
1904.93
1904.96
1905
1905.04
1905.08
1905.12
1905.15
1905.17
1905.19
1905.2
1807.18
1807.17
1807.15
1807.13
1807.09
1807.05
1807
1806.95
1806.9
1806.86
1806.81
1806.78
1806.75
1806.73
1806.72
1806.72
1806.73
1806.75
1806.78
1806.81
1806.86
1806.9
1806.95
1807
1807.05
1807.09
1807.13
1807.16
1807.18
1807.19
1709.19
1709.18
1709.16
1709.12
1709.08
1709.03
1708.97
1708.91
1708.86
1708.8
1708.75
1708.7
1708.67
1708.64
1708.63
1708.63
1708.64
1708.66
1708.7
1708.74
1708.8
1708.85
1708.91
1708.97
1709.03
1709.08
1709.12
1709.16
1709.18
1709.19
1611.22
1611.21
1611.18
1611.14
1611.09
1611.03
1610.96
1610.89
1610.82
1610.75
1610.69
1610.63
1610.59
1610.56
1610.54
1610.54
1610.56
1610.59
1610.63
1610.69
1610.75
1610.82
1610.89
1610.96
1611.03
1611.09
1611.14
1611.18
1611.21
1611.22
1513.28
1513.26
1513.23
1513.18
1513.12
1513.05
1512.97
1512.88
1512.8
1512.72
1512.64
1512.58
1512.52
1512.49
1512.47
1512.47
1512.49
1512.52
1512.58
1512.64
1512.72
1512.8
1512.88
1512.97
1513.05
1513.12
1513.18
1513.23
1513.26
1513.28
1415.37
1415.35
1415.31
1415.25
1415.18
1415.09
1415
1414.9
1414.8
1414.7
1414.61
1414.53
1414.47
1414.43
1414.4
1414.41
1414.43
1414.47
1414.53
1414.61
1414.7
1414.8
1414.9
1415
1415.09
1415.18
1415.25
1415.31
1415.35
1415.36
1317.49
1317.47
1317.42
1317.35
1317.27
1317.17
1317.06
1316.94
1316.82
1316.7
1316.6
1316.5
1316.43
1316.38
1316.35
1316.35
1316.38
1316.43
1316.5
1316.6
1316.7
1316.82
1316.94
1317.06
1317.17
1317.27
1317.35
1317.42
1317.47
1317.49
1219.66
1219.63
1219.58
1219.5
1219.4
1219.29
1219.15
1219.02
1218.87
1218.74
1218.61
1218.5
1218.41
1218.35
1218.32
1218.32
1218.35
1218.41
1218.5
1218.61
1218.73
1218.87
1219.01
1219.15
1219.28
1219.4
1219.5
1219.58
1219.63
1219.66
1121.88
1121.85
1121.79
1121.7
1121.58
1121.44
1121.29
1121.13
1120.96
1120.8
1120.65
1120.51
1120.41
1120.34
1120.3
1120.3
1120.33
1120.41
1120.51
1120.64
1120.8
1120.96
1121.13
1121.29
1121.44
1121.58
1121.69
1121.79
1121.85
1121.88
1024.16
1024.13
1024.06
1023.95
1023.82
1023.66
1023.48
1023.28
1023.09
1022.89
1022.72
1022.56
1022.43
1022.35
1022.3
1022.3
1022.35
1022.43
1022.56
1022.72
1022.89
1023.09
1023.28
1023.47
1023.65
1023.81
1023.95
1024.05
1024.12
1024.16
926.518
926.477
926.393
926.271
926.113
925.926
925.717
925.492
925.26
925.034
924.822
924.637
924.488
924.383
924.329
924.33
924.384
924.488
924.637
924.822
925.034
925.26
925.491
925.716
925.925
926.11
926.267
926.388
926.47
926.511
828.956
828.907
828.81
828.668
828.485
828.268
828.023
827.759
827.487
827.219
826.969
826.749
826.571
826.447
826.383
826.383
826.448
826.572
826.749
826.97
827.22
827.487
827.758
828.022
828.267
828.483
828.664
828.805
828.9
828.948
731.489
731.433
731.319
731.154
730.942
730.688
730.401
730.091
729.771
729.454
729.156
728.895
728.684
728.535
728.46
728.461
728.537
728.686
728.897
729.159
729.456
729.772
730.092
730.401
730.688
730.94
731.151
731.314
731.426
731.48
634.134
634.068
633.936
633.743
633.495
633.197
632.86
632.495
632.116
631.74
631.385
631.072
630.82
630.644
630.553
630.554
630.645
630.822
631.074
631.387
631.742
632.118
632.497
632.862
633.197
633.493
633.741
633.931
634.06
634.123
536.91
536.832
536.674
536.446
536.155
535.805
535.407
534.974
534.523
534.072
533.643
533.265
532.964
532.754
532.644
532.647
532.756
532.967
533.268
533.645
534.074
534.525
534.976
535.409
535.806
536.154
536.445
536.669
536.824
536.899
439.845
439.746
439.552
439.282
438.938
438.523
438.047
437.529
436.989
436.44
435.908
435.448
435.086
434.838
434.709
434.714
434.842
435.091
435.454
435.913
436.445
436.99
437.531
438.047
438.524
438.937
439.28
439.547
439.738
439.833
342.972
342.828
342.584
342.258
341.857
341.361
340.779
340.156
339.507
338.86
338.193
337.608
337.152
336.87
336.722
336.724
336.877
337.163
337.611
338.203
338.866
339.507
340.156
340.778
341.361
341.853
342.256
342.58
342.819
342.957
246.346
246.082
245.782
245.356
244.931
244.33
243.57
242.814
242.011
241.167
240.319
239.559
239.033
238.78
238.558
238.557
238.787
239.065
239.571
240.339
241.172
242.013
242.816
243.57
244.328
244.919
245.354
245.783
246.069
246.319
150.304
149.554
149.366
148.519
148.331
147.482
146.342
145.671
144.511
143.578
142.163
141.136
140.671
140.513
139.868
139.865
140.521
140.731
141.157
142.203
143.57
144.518
145.688
146.347
147.482
148.283
148.518
149.392
149.524
150.243
61.4942
60.1798
60.6312
58.4445
58.9483
57.1452
55.1879
55.7085
53.7741
53.1576
51.1093
49.7627
50.1113
50.6798
48.6066
48.5964
50.6578
50.2376
49.7973
51.1544
53.0424
53.8016
55.7345
55.2222
57.1397
58.7536
58.4932
60.7815
60.1111
61.3631
7.79859
6.41472
7.80598
5.32555
6.51569
4.81867
3.24568
4.55081
3.03503
3.26604
2.07779
1.30867
1.92116
2.56008
0.694907
0.781026
2.55884
2.01982
1.34182
2.09792
3.13659
3.06863
4.56982
3.29551
4.83268
6.24133
5.3992
7.99549
6.3526
7.69467
-5.05772
-5.05195
-5.06527
-5.02983
-5.07987
-5.0912
-5.08011
-5.1001
-5.07456
-5.08769
-5.07841
-5.07308
-5.08131
-5.09379
-5.07907
-5.07832
-5.09157
-5.07926
-5.07163
-5.07842
-5.08561
-5.07726
-5.10164
-5.07908
-5.08625
-5.07137
-5.0274
-5.06332
-5.04827
-5.04657
-5.17994
-5.17735
-5.17926
-5.18219
-5.19544
-5.18766
-5.18538
-5.18982
-5.18613
-5.18655
-5.18521
-5.18463
-5.1857
-5.19203
-5.1847
-5.18497
-5.19097
-5.1862
-5.1841
-5.18482
-5.18574
-5.18545
-5.18861
-5.18372
-5.18568
-5.19214
-5.1803
-5.17741
-5.17516
-5.17776
-5.29075
-5.28843
-5.28826
-5.29657
-5.29413
-5.28975
-5.28871
-5.28839
-5.28852
-5.28815
-5.28728
-5.28681
-5.28696
-5.28635
-5.28578
-5.28582
-5.28618
-5.28644
-5.28631
-5.28681
-5.28771
-5.28777
-5.28762
-5.28817
-5.28955
-5.29385
-5.2965
-5.28805
-5.28902
-5.29253
-5.38593
-5.38583
-5.3867
-5.38796
-5.38776
-5.38701
-5.38628
-5.38558
-5.38565
-5.38557
-5.38511
-5.38423
-5.38387
-5.38334
-5.38322
-5.38323
-5.38342
-5.38388
-5.38403
-5.38488
-5.38531
-5.38529
-5.38533
-5.38622
-5.38713
-5.38795
-5.38828
-5.38752
-5.38621
-5.38672
-5.48173
-5.48167
-5.48194
-5.48232
-5.48238
-5.48219
-5.4817
-5.48137
-5.48128
-5.48119
-5.48085
-5.48028
-5.48
-5.47963
-5.47924
-5.47924
-5.47973
-5.48008
-5.48023
-5.48071
-5.48095
-5.48104
-5.48122
-5.48163
-5.48225
-5.48265
-5.48257
-5.48249
-5.4822
-5.48223
-5.57692
-5.57691
-5.57705
-5.57711
-5.57717
-5.57692
-5.57655
-5.57624
-5.57596
-5.57578
-5.57557
-5.57528
-5.57504
-5.57477
-5.5745
-5.57448
-5.57476
-5.575
-5.57521
-5.57545
-5.57563
-5.57583
-5.57612
-5.57651
-5.57696
-5.57728
-5.57724
-5.57736
-5.57721
-5.5772
-5.67177
-5.6718
-5.67187
-5.67183
-5.6718
-5.67149
-5.67112
-5.67077
-5.67037
-5.66999
-5.66967
-5.66942
-5.6692
-5.66903
-5.66893
-5.66891
-5.66899
-5.66912
-5.66932
-5.66956
-5.66985
-5.67023
-5.67064
-5.67108
-5.67151
-5.67181
-5.67191
-5.67206
-5.67203
-5.67204
-5.76672
-5.76668
-5.76666
-5.76655
-5.76639
-5.76607
-5.76567
-5.76525
-5.76478
-5.76428
-5.7638
-5.7634
-5.76309
-5.76287
-5.76276
-5.76275
-5.76282
-5.76301
-5.7633
-5.76367
-5.76413
-5.76463
-5.76512
-5.7656
-5.76604
-5.76636
-5.76659
-5.76678
-5.76685
-5.76689
-5.86169
-5.86161
-5.86153
-5.86136
-5.86112
-5.86077
-5.86033
-5.85983
-5.85927
-5.8587
-5.85813
-5.85759
-5.85715
-5.85684
-5.85668
-5.85667
-5.85679
-5.85706
-5.85747
-5.85797
-5.85852
-5.85909
-5.85965
-5.86019
-5.86068
-5.86106
-5.86137
-5.86162
-5.86175
-5.86181
-5.95676
-5.95669
-5.95657
-5.95636
-5.95605
-5.95565
-5.95515
-5.95458
-5.95397
-5.95333
-5.9527
-5.9521
-5.95159
-5.95122
-5.95102
-5.95101
-5.95117
-5.9515
-5.95196
-5.95251
-5.95312
-5.95374
-5.95437
-5.95497
-5.95553
-5.95599
-5.95635
-5.95662
-5.95679
-5.95687
-6.05206
-6.05198
-6.05182
-6.05156
-6.05121
-6.05076
-6.05022
-6.0496
-6.04894
-6.04827
-6.04759
-6.04696
-6.04643
-6.04603
-6.04581
-6.04579
-6.04596
-6.0463
-6.04678
-6.04737
-6.04803
-6.04871
-6.04939
-6.05005
-6.05065
-6.05115
-6.05155
-6.05184
-6.05203
-6.05212
-6.14756
-6.14746
-6.14727
-6.14699
-6.14661
-6.14614
-6.14556
-6.14492
-6.14423
-6.14352
-6.14283
-6.14219
-6.14165
-6.14125
-6.14102
-6.141
-6.14117
-6.14151
-6.14201
-6.14262
-6.14331
-6.14403
-6.14474
-6.14543
-6.14605
-6.14657
-6.14698
-6.14729
-6.14749
-6.14759
-6.24328
-6.24318
-6.24299
-6.2427
-6.24232
-6.24183
-6.24124
-6.24058
-6.23988
-6.23916
-6.23847
-6.23784
-6.23731
-6.23691
-6.23669
-6.23666
-6.23682
-6.23717
-6.23767
-6.23828
-6.23897
-6.23969
-6.24041
-6.24109
-6.2417
-6.24223
-6.24265
-6.24297
-6.24319
-6.2433
-6.33925
-6.33915
-6.33896
-6.33867
-6.33828
-6.33779
-6.3372
-6.33655
-6.33585
-6.33515
-6.33447
-6.33386
-6.33335
-6.33297
-6.33276
-6.33272
-6.33288
-6.33321
-6.3337
-6.3343
-6.33497
-6.33567
-6.33637
-6.33703
-6.33763
-6.33816
-6.33859
-6.33892
-6.33914
-6.33925
-6.43546
-6.43536
-6.43517
-6.43487
-6.43447
-6.43398
-6.43341
-6.43277
-6.4321
-6.43142
-6.43077
-6.43018
-6.4297
-6.42935
-6.42915
-6.42913
-6.42928
-6.4296
-6.43007
-6.43064
-6.43129
-6.43196
-6.43263
-6.43327
-6.43386
-6.43437
-6.43479
-6.43511
-6.43533
-6.43545
-6.53192
-6.53183
-6.53162
-6.53132
-6.53091
-6.53043
-6.52988
-6.52928
-6.52863
-6.52799
-6.52737
-6.52682
-6.52638
-6.52606
-6.52588
-6.52587
-6.52602
-6.52633
-6.52677
-6.52731
-6.52792
-6.52855
-6.52919
-6.52979
-6.53035
-6.53083
-6.53124
-6.53155
-6.53176
-6.53187
-6.62862
-6.62853
-6.62832
-6.62802
-6.62763
-6.62717
-6.62664
-6.62606
-6.62546
-6.62485
-6.62428
-6.62378
-6.62337
-6.62309
-6.62293
-6.62293
-6.62307
-6.62335
-6.62375
-6.62424
-6.6248
-6.62539
-6.62598
-6.62654
-6.62707
-6.62753
-6.62791
-6.62821
-6.62842
-6.62852
-6.7255
-6.72541
-6.72521
-6.72492
-6.72455
-6.72411
-6.7236
-6.72306
-6.7225
-6.72194
-6.72142
-6.72097
-6.7206
-6.72035
-6.72022
-6.72021
-6.72034
-6.72058
-6.72093
-6.72137
-6.72187
-6.72241
-6.72296
-6.72349
-6.72398
-6.72442
-6.72479
-6.72508
-6.72527
-6.72537
-6.82252
-6.82243
-6.82225
-6.82197
-6.82162
-6.82119
-6.82071
-6.8202
-6.81968
-6.81918
-6.81871
-6.81831
-6.81799
-6.81777
-6.81766
-6.81765
-6.81776
-6.81798
-6.81829
-6.81868
-6.81913
-6.81962
-6.82012
-6.82062
-6.82108
-6.8215
-6.82185
-6.82212
-6.82231
-6.8224
-6.91968
-6.91961
-6.91943
-6.91917
-6.91882
-6.91842
-6.91797
-6.91749
-6.91702
-6.91656
-6.91615
-6.91579
-6.91552
-6.91532
-6.91523
-6.91523
-6.91533
-6.91552
-6.9158
-6.91615
-6.91656
-6.917
-6.91746
-6.91792
-6.91835
-6.91874
-6.91907
-6.91933
-6.9195
-6.91958
-7.01697
-7.01691
-7.01675
-7.0165
-7.01617
-7.01579
-7.01538
-7.01494
-7.01452
-7.01411
-7.01375
-7.01344
-7.01319
-7.01303
-7.01295
-7.01295
-7.01305
-7.01322
-7.01347
-7.01378
-7.01415
-7.01455
-7.01497
-7.01538
-7.01577
-7.01612
-7.01642
-7.01665
-7.0168
-7.01688
-7.11437
-7.11432
-7.11416
-7.11393
-7.11364
-7.1133
-7.11293
-7.11255
-7.11217
-7.11182
-7.1115
-7.11123
-7.11102
-7.11088
-7.11081
-7.11082
-7.1109
-7.11106
-7.11128
-7.11156
-7.11188
-7.11223
-7.11259
-7.11296
-7.1133
-7.11361
-7.11387
-7.11407
-7.1142
-7.11426
-7.21184
-7.21178
-7.21165
-7.21145
-7.2112
-7.21091
-7.21059
-7.21026
-7.20994
-7.20964
-7.20936
-7.20913
-7.20895
-7.20883
-7.20877
-7.20878
-7.20886
-7.20899
-7.20919
-7.20942
-7.2097
-7.21
-7.21031
-7.21062
-7.21091
-7.21118
-7.2114
-7.21157
-7.21168
-7.21173
-7.30935
-7.30929
-7.30918
-7.30902
-7.30881
-7.30857
-7.30831
-7.30804
-7.30778
-7.30752
-7.30729
-7.3071
-7.30695
-7.30685
-7.3068
-7.30681
-7.30687
-7.30699
-7.30715
-7.30735
-7.30758
-7.30783
-7.30809
-7.30835
-7.30859
-7.30881
-7.30899
-7.30913
-7.30922
-7.30927
-7.40691
-7.40686
-7.40677
-7.40664
-7.40648
-7.40629
-7.40608
-7.40587
-7.40565
-7.40545
-7.40526
-7.4051
-7.40498
-7.4049
-7.40486
-7.40486
-7.40491
-7.40501
-7.40514
-7.40531
-7.4055
-7.4057
-7.40591
-7.40612
-7.40632
-7.4065
-7.40665
-7.40677
-7.40685
-7.40688
-7.50455
-7.5045
-7.50443
-7.50433
-7.5042
-7.50406
-7.5039
-7.50373
-7.50356
-7.5034
-7.50325
-7.50313
-7.50303
-7.50296
-7.50293
-7.50293
-7.50298
-7.50305
-7.50316
-7.50329
-7.50344
-7.50361
-7.50378
-7.50395
-7.50411
-7.50426
-7.50438
-7.50448
-7.50455
-7.50458
-7.60228
-7.60224
-7.60218
-7.6021
-7.60201
-7.6019
-7.60177
-7.60165
-7.60152
-7.60139
-7.60128
-7.60118
-7.6011
-7.60105
-7.60102
-7.60103
-7.60106
-7.60112
-7.6012
-7.60131
-7.60143
-7.60157
-7.6017
-7.60184
-7.60197
-7.60209
-7.60219
-7.60227
-7.60233
-7.60236
-7.7001
-7.70007
-7.70003
-7.69997
-7.6999
-7.69981
-7.69972
-7.69962
-7.69952
-7.69943
-7.69934
-7.69926
-7.6992
-7.69916
-7.69914
-7.69914
-7.69917
-7.69922
-7.69929
-7.69937
-7.69947
-7.69957
-7.69968
-7.6998
-7.6999
-7.7
-7.70008
-7.70015
-7.7002
-7.70023
-7.79803
-7.79801
-7.79798
-7.79793
-7.79787
-7.79781
-7.79774
-7.79766
-7.79758
-7.79751
-7.79744
-7.79738
-7.79733
-7.7973
-7.79729
-7.79729
-7.79731
-7.79735
-7.7974
-7.79747
-7.79755
-7.79763
-7.79772
-7.79781
-7.7979
-7.79797
-7.79804
-7.7981
-7.79814
-7.79816
-7.89604
-7.89603
-7.896
-7.89596
-7.89592
-7.89587
-7.89581
-7.89575
-7.89569
-7.89563
-7.89558
-7.89553
-7.89549
-7.89547
-7.89546
-7.89546
-7.89548
-7.89551
-7.89555
-7.8956
-7.89566
-7.89573
-7.89581
-7.89588
-7.89595
-7.89601
-7.89607
-7.89611
-7.89615
-7.89616
-7.99411
-7.9941
-7.99408
-7.99405
-7.99402
-7.99397
-7.99393
-7.99388
-7.99383
-7.99378
-7.99374
-7.9937
-7.99367
-7.99365
-7.99364
-7.99365
-7.99366
-7.99368
-7.99372
-7.99376
-7.99381
-7.99387
-7.99392
-7.99398
-7.99404
-7.99409
-7.99414
-7.99417
-7.9942
-7.99421
-8.09222
-8.09221
-8.0922
-8.09217
-8.09214
-8.09211
-8.09207
-8.09203
-8.09199
-8.09195
-8.09192
-8.09189
-8.09186
-8.09185
-8.09184
-8.09184
-8.09185
-8.09187
-8.0919
-8.09193
-8.09198
-8.09202
-8.09207
-8.09211
-8.09216
-8.0922
-8.09224
-8.09227
-8.09229
-8.0923
-8.19035
-8.19035
-8.19034
-8.19032
-8.19029
-8.19026
-8.19023
-8.1902
-8.19016
-8.19013
-8.1901
-8.19007
-8.19005
-8.19004
-8.19003
-8.19004
-8.19004
-8.19006
-8.19008
-8.19011
-8.19015
-8.19018
-8.19022
-8.19026
-8.1903
-8.19033
-8.19036
-8.19039
-8.1904
-8.19041
-8.2885
-8.28849
-8.28848
-8.28847
-8.28845
-8.28842
-8.28839
-8.28836
-8.28833
-8.28831
-8.28828
-8.28826
-8.28824
-8.28823
-8.28823
-8.28823
-8.28824
-8.28825
-8.28827
-8.28829
-8.28832
-8.28835
-8.28838
-8.28842
-8.28845
-8.28848
-8.2885
-8.28852
-8.28853
-8.28854
-8.38665
-8.38664
-8.38664
-8.38662
-8.3866
-8.38658
-8.38656
-8.38653
-8.38651
-8.38648
-8.38646
-8.38644
-8.38643
-8.38642
-8.38642
-8.38642
-8.38642
-8.38644
-8.38645
-8.38647
-8.3865
-8.38652
-8.38655
-8.38658
-8.3866
-8.38662
-8.38664
-8.38666
-8.38667
-8.38667
-8.4848
-8.4848
-8.48479
-8.48478
-8.48476
-8.48474
-8.48472
-8.4847
-8.48468
-8.48466
-8.48464
-8.48463
-8.48461
-8.48461
-8.4846
-8.4846
-8.48461
-8.48462
-8.48463
-8.48465
-8.48467
-8.48469
-8.48471
-8.48474
-8.48476
-8.48478
-8.48479
-8.4848
-8.48481
-8.48482
-8.58295
-8.58295
-8.58294
-8.58293
-8.58292
-8.5829
-8.58289
-8.58287
-8.58285
-8.58283
-8.58282
-8.5828
-8.58279
-8.58279
-8.58278
-8.58278
-8.58279
-8.5828
-8.58281
-8.58282
-8.58284
-8.58286
-8.58288
-8.5829
-8.58291
-8.58293
-8.58294
-8.58295
-8.58296
-8.58296
-8.68111
-8.6811
-8.6811
-8.68109
-8.68108
-8.68107
-8.68105
-8.68104
-8.68102
-8.68101
-8.68099
-8.68098
-8.68097
-8.68097
-8.68096
-8.68096
-8.68097
-8.68098
-8.68099
-8.681
-8.68101
-8.68103
-8.68104
-8.68106
-8.68107
-8.68108
-8.6811
-8.6811
-8.68111
-8.68111
-8.77926
-8.77926
-8.77925
-8.77925
-8.77924
-8.77923
-8.77922
-8.7792
-8.77919
-8.77918
-8.77917
-8.77916
-8.77915
-8.77915
-8.77914
-8.77914
-8.77915
-8.77915
-8.77916
-8.77917
-8.77918
-8.77919
-8.77921
-8.77922
-8.77923
-8.77924
-8.77925
-8.77926
-8.77926
-8.77926
-8.87742
-8.87742
-8.87741
-8.87741
-8.8774
-8.87739
-8.87738
-8.87737
-8.87736
-8.87735
-8.87734
-8.87733
-8.87733
-8.87732
-8.87732
-8.87732
-8.87732
-8.87733
-8.87734
-8.87734
-8.87735
-8.87736
-8.87737
-8.87738
-8.87739
-8.8774
-8.87741
-8.87741
-8.87742
-8.87742
-8.97558
-8.97558
-8.97557
-8.97557
-8.97556
-8.97556
-8.97555
-8.97554
-8.97553
-8.97552
-8.97552
-8.97551
-8.97551
-8.9755
-8.9755
-8.9755
-8.9755
-8.9755
-8.97551
-8.97552
-8.97552
-8.97553
-8.97554
-8.97555
-8.97556
-8.97556
-8.97557
-8.97557
-8.97557
-8.97558
-9.07374
-9.07374
-9.07374
-9.07373
-9.07373
-9.07372
-9.07371
-9.07371
-9.0737
-9.0737
-9.07369
-9.07369
-9.07368
-9.07368
-9.07368
-9.07368
-9.07368
-9.07368
-9.07368
-9.07369
-9.0737
-9.0737
-9.07371
-9.07371
-9.07372
-9.07372
-9.07373
-9.07373
-9.07373
-9.07374
-9.1719
-9.1719
-9.1719
-9.1719
-9.17189
-9.17189
-9.17188
-9.17188
-9.17187
-9.17187
-9.17186
-9.17186
-9.17186
-9.17185
-9.17185
-9.17185
-9.17185
-9.17186
-9.17186
-9.17186
-9.17187
-9.17187
-9.17188
-9.17188
-9.17189
-9.17189
-9.17189
-9.1719
-9.1719
-9.1719
-9.27007
-9.27007
-9.27006
-9.27006
-9.27006
-9.27006
-9.27005
-9.27005
-9.27004
-9.27004
-9.27004
-9.27003
-9.27003
-9.27003
-9.27003
-9.27003
-9.27003
-9.27003
-9.27003
-9.27004
-9.27004
-9.27004
-9.27005
-9.27005
-9.27005
-9.27006
-9.27006
-9.27006
-9.27006
-9.27006
-9.36823
-9.36823
-9.36823
-9.36823
-9.36823
-9.36823
-9.36822
-9.36822
-9.36822
-9.36821
-9.36821
-9.36821
-9.36821
-9.36821
-9.36821
-9.36821
-9.36821
-9.36821
-9.36821
-9.36821
-9.36821
-9.36822
-9.36822
-9.36822
-9.36822
-9.36823
-9.36823
-9.36823
-9.36823
-9.36823
-9.4664
-9.4664
-9.4664
-9.4664
-9.4664
-9.4664
-9.46639
-9.46639
-9.46639
-9.46639
-9.46639
-9.46638
-9.46638
-9.46638
-9.46638
-9.46638
-9.46638
-9.46638
-9.46639
-9.46639
-9.46639
-9.46639
-9.46639
-9.46639
-9.46639
-9.4664
-9.4664
-9.4664
-9.4664
-9.4664
-9.56457
-9.56457
-9.56457
-9.56457
-9.56457
-9.56457
-9.56457
-9.56457
-9.56456
-9.56456
-9.56456
-9.56456
-9.56456
-9.56456
-9.56456
-9.56456
-9.56456
-9.56456
-9.56456
-9.56456
-9.56456
-9.56456
-9.56456
-9.56456
-9.56457
-9.56457
-9.56457
-9.56457
-9.56457
-9.56457
-9.66274
-9.66274
-9.66274
-9.66274
-9.66274
-9.66274
-9.66274
-9.66274
-9.66274
-9.66274
-9.66274
-9.66274
-9.66274
-9.66274
-9.66274
-9.66274
-9.66274
-9.66274
-9.66274
-9.66274
-9.66274
-9.66274
-9.66274
-9.66274
-9.66274
-9.66274
-9.66274
-9.66274
-9.66274
-9.66274
-9.76091
-9.76091
-9.76091
-9.76091
-9.76091
-9.76091
-9.76091
-9.76091
-9.76091
-9.76091
-9.76091
-9.76091
-9.76091
-9.76091
-9.76091
-9.76091
-9.76091
-9.76091
-9.76091
-9.76091
-9.76091
-9.76091
-9.76091
-9.76091
-9.76091
-9.76091
-9.76091
-9.76091
-9.76091
-9.76091
4847.77
4847.77
4847.77
4847.77
4847.77
4847.77
4847.76
4847.76
4847.76
4847.76
4847.76
4847.76
4847.76
4847.76
4847.76
4847.76
4847.76
4847.76
4847.76
4847.76
4847.76
4847.76
4847.76
4847.76
4847.76
4847.77
4847.77
4847.77
4847.77
4847.77
4749.67
4749.67
4749.66
4749.66
4749.66
4749.66
4749.66
4749.66
4749.66
4749.66
4749.66
4749.66
4749.66
4749.66
4749.66
4749.66
4749.66
4749.66
4749.66
4749.66
4749.66
4749.66
4749.66
4749.66
4749.66
4749.66
4749.66
4749.66
4749.67
4749.66
4651.56
4651.56
4651.56
4651.56
4651.56
4651.56
4651.56
4651.56
4651.56
4651.56
4651.56
4651.56
4651.56
4651.56
4651.56
4651.56
4651.56
4651.56
4651.56
4651.56
4651.56
4651.56
4651.56
4651.56
4651.56
4651.56
4651.56
4651.56
4651.56
4651.56
4553.46
4553.46
4553.46
4553.46
4553.46
4553.46
4553.46
4553.46
4553.46
4553.46
4553.46
4553.46
4553.46
4553.46
4553.46
4553.46
4553.46
4553.46
4553.46
4553.46
4553.46
4553.46
4553.46
4553.46
4553.46
4553.46
4553.46
4553.46
4553.46
4553.46
4455.36
4455.36
4455.36
4455.36
4455.36
4455.36
4455.36
4455.36
4455.36
4455.36
4455.37
4455.37
4455.37
4455.37
4455.37
4455.36
4455.36
4455.36
4455.36
4455.36
4455.36
4455.36
4455.36
4455.36
4455.36
4455.36
4455.36
4455.36
4455.36
4455.36
4357.26
4357.26
4357.26
4357.26
4357.26
4357.26
4357.26
4357.26
4357.26
4357.26
4357.27
4357.27
4357.27
4357.27
4357.27
4357.27
4357.27
4357.27
4357.27
4357.27
4357.26
4357.26
4357.26
4357.26
4357.26
4357.26
4357.26
4357.26
4357.26
4357.26
4259.16
4259.16
4259.16
4259.16
4259.16
4259.16
4259.16
4259.16
4259.16
4259.16
4259.16
4259.17
4259.17
4259.17
4259.17
4259.17
4259.17
4259.17
4259.17
4259.17
4259.17
4259.16
4259.16
4259.16
4259.16
4259.16
4259.16
4259.16
4259.16
4259.16
4161.07
4161.07
4161.07
4161.07
4161.07
4161.07
4161.06
4161.06
4161.06
4161.06
4161.06
4161.06
4161.07
4161.07
4161.07
4161.07
4161.07
4161.07
4161.07
4161.07
4161.07
4161.07
4161.06
4161.06
4161.06
4161.06
4161.06
4161.06
4161.06
4161.06
4062.97
4062.97
4062.97
4062.97
4062.97
4062.97
4062.97
4062.97
4062.97
4062.96
4062.96
4062.96
4062.97
4062.97
4062.97
4062.97
4062.97
4062.97
4062.97
4062.97
4062.97
4062.97
4062.97
4062.96
4062.96
4062.96
4062.96
4062.97
4062.97
4062.97
3964.88
3964.88
3964.88
3964.88
3964.87
3964.87
3964.87
3964.87
3964.87
3964.87
3964.87
3964.87
3964.87
3964.87
3964.87
3964.87
3964.87
3964.87
3964.87
3964.87
3964.87
3964.87
3964.87
3964.87
3964.87
3964.87
3964.87
3964.87
3964.87
3964.87
3866.78
3866.78
3866.78
3866.78
3866.78
3866.77
3866.77
3866.77
3866.77
3866.77
3866.77
3866.77
3866.77
3866.77
3866.77
3866.77
3866.77
3866.77
3866.77
3866.77
3866.77
3866.77
3866.77
3866.77
3866.77
3866.77
3866.77
3866.77
3866.77
3866.77
3768.68
3768.68
3768.68
3768.68
3768.68
3768.68
3768.67
3768.67
3768.67
3768.67
3768.67
3768.67
3768.67
3768.67
3768.67
3768.67
3768.67
3768.67
3768.67
3768.68
3768.68
3768.68
3768.68
3768.68
3768.68
3768.68
3768.68
3768.68
3768.68
3768.68
3670.58
3670.58
3670.58
3670.58
3670.58
3670.58
3670.58
3670.58
3670.58
3670.58
3670.58
3670.58
3670.58
3670.58
3670.58
3670.58
3670.58
3670.58
3670.58
3670.58
3670.58
3670.58
3670.58
3670.58
3670.58
3670.58
3670.58
3670.58
3670.58
3670.58
3572.48
3572.48
3572.48
3572.48
3572.48
3572.48
3572.48
3572.48
3572.48
3572.48
3572.48
3572.48
3572.48
3572.48
3572.48
3572.48
3572.48
3572.48
3572.48
3572.48
3572.48
3572.48
3572.49
3572.49
3572.49
3572.49
3572.49
3572.49
3572.49
3572.49
3474.39
3474.39
3474.39
3474.39
3474.39
3474.39
3474.39
3474.39
3474.39
3474.39
3474.38
3474.38
3474.38
3474.38
3474.38
3474.38
3474.38
3474.38
3474.38
3474.38
3474.39
3474.39
3474.39
3474.39
3474.39
3474.4
3474.4
3474.4
3474.4
3474.4
3376.3
3376.3
3376.3
3376.3
3376.3
3376.29
3376.29
3376.29
3376.29
3376.29
3376.29
3376.29
3376.28
3376.28
3376.28
3376.28
3376.28
3376.28
3376.28
3376.28
3376.29
3376.29
3376.29
3376.3
3376.3
3376.3
3376.3
3376.31
3376.31
3376.31
3278.21
3278.21
3278.21
3278.2
3278.2
3278.2
3278.2
3278.2
3278.19
3278.19
3278.19
3278.19
3278.19
3278.18
3278.18
3278.18
3278.18
3278.18
3278.18