/*--------------------------------*- C++ -*----------------------------------*\
| =========                 |                                                 |
| \\      /  F ield         | OpenFOAM: The Open Source CFD Toolbox           |
|  \\    /   O peration     | Version:  2312                                  |
|   \\  /    A nd           | Website:  www.openfoam.com                      |
|    \\/     M anipulation  |                                                 |
\*---------------------------------------------------------------------------*/
FoamFile
{
    version     2.0;
    format      ascii;
    arch        "LSB;label=32;scalar=64";
    class       volScalarField;
    location    "1.2036445";
    object      p_rgh;
}
// * * * * * * * * * * * * * * * * * * * * * * * * * * * * * * * * * * * * * //

dimensions      [1 -1 -2 0 0 0 0];

internalField   nonuniform List<scalar> 
90000
(
4896.82
4896.82
4896.82
4896.82
4896.82
4896.82
4896.82
4896.81
4896.81
4896.81
4896.81
4896.81
4896.81
4896.81
4896.81
4896.81
4896.81
4896.81
4896.81
4896.81
4896.81
4896.81
4896.81
4896.81
4896.81
4896.82
4896.82
4896.82
4896.82
4896.81
4896.82
4896.83
4896.83
4896.82
4896.82
4896.82
4896.82
4896.81
4896.81
4896.81
4896.81
4896.81
4896.8
4896.81
4896.81
4896.81
4896.81
4896.81
4896.81
4896.81
4896.81
4896.81
4896.81
4896.81
4896.82
4896.82
4896.82
4896.82
4896.81
4896.79
4896.82
4896.82
4896.82
4896.82
4896.82
4896.82
4896.82
4896.81
4896.81
4896.81
4896.81
4896.81
4896.8
4896.8
4896.8
4896.8
4896.8
4896.81
4896.81
4896.81
4896.81
4896.81
4896.81
4896.81
4896.81
4896.82
4896.82
4896.84
4896.86
4896.82
4896.82
4896.82
4896.82
4896.82
4896.81
4896.81
4896.81
4896.81
4896.81
4896.81
4896.81
4896.81
4896.81
4896.8
4896.8
4896.8
4896.8
4896.8
4896.8
4896.8
4896.81
4896.81
4896.81
4896.81
4896.81
4896.81
4896.81
4896.81
4896.84
4896.82
4896.81
4896.81
4896.81
4896.81
4896.81
4896.81
4896.81
4896.82
4896.82
4896.82
4896.82
4896.81
4896.81
4896.81
4896.8
4896.8
4896.8
4896.8
4896.8
4896.8
4896.81
4896.81
4896.81
4896.81
4896.82
4896.82
4896.82
4896.82
4896.82
4896.82
4896.81
4896.79
4896.8
4896.8
4896.8
4896.81
4896.81
4896.82
4896.82
4896.83
4896.83
4896.83
4896.82
4896.82
4896.81
4896.81
4896.81
4896.81
4896.81
4896.81
4896.81
4896.81
4896.82
4896.82
4896.82
4896.82
4896.82
4896.82
4896.81
4896.81
4896.8
4896.78
4896.79
4896.79
4896.8
4896.8
4896.81
4896.82
4896.83
4896.83
4896.83
4896.83
4896.83
4896.83
4896.83
4896.82
4896.82
4896.81
4896.81
4896.81
4896.82
4896.82
4896.82
4896.83
4896.83
4896.82
4896.82
4896.81
4896.81
4896.81
4896.79
4896.78
4896.78
4896.79
4896.8
4896.8
4896.81
4896.82
4896.82
4896.83
4896.83
4896.83
4896.83
4896.83
4896.83
4896.83
4896.82
4896.82
4896.82
4896.82
4896.82
4896.82
4896.82
4896.83
4896.83
4896.82
4896.81
4896.81
4896.81
4896.81
4896.79
4896.79
4896.79
4896.8
4896.8
4896.8
4896.81
4896.81
4896.81
4896.82
4896.82
4896.82
4896.83
4896.83
4896.83
4896.83
4896.82
4896.82
4896.81
4896.81
4896.81
4896.82
4896.82
4896.82
4896.81
4896.81
4896.8
4896.8
4896.81
4896.81
4896.8
4896.81
4896.82
4896.82
4896.82
4896.81
4896.81
4896.81
4896.81
4896.81
4896.81
4896.81
4896.82
4896.82
4896.82
4896.82
4896.82
4896.82
4896.81
4896.81
4896.81
4896.81
4896.8
4896.8
4896.79
4896.79
4896.79
4896.79
4896.8
4896.8
4896.82
4896.85
4896.85
4896.85
4896.84
4896.83
4896.82
4896.81
4896.81
4896.8
4896.8
4896.8
4896.81
4896.81
4896.82
4896.82
4896.82
4896.82
4896.82
4896.82
4896.81
4896.81
4896.8
4896.79
4896.78
4896.78
4896.78
4896.79
4896.79
4896.79
4896.85
4896.89
4896.88
4896.87
4896.86
4896.84
4896.83
4896.82
4896.81
4896.8
4896.8
4896.8
4896.8
4896.8
4896.81
4896.81
4896.82
4896.82
4896.83
4896.82
4896.82
4896.81
4896.8
4896.79
4896.79
4896.79
4896.8
4896.8
4896.8
4896.8
4896.87
4896.89
4896.88
4896.87
4896.85
4896.84
4896.82
4896.81
4896.8
4896.8
4896.79
4896.79
4896.79
4896.79
4896.8
4896.81
4896.82
4896.83
4896.83
4896.83
4896.82
4896.81
4896.81
4896.8
4896.81
4896.81
4896.81
4896.81
4896.8
4896.81
4896.87
4896.85
4896.84
4896.83
4896.82
4896.81
4896.8
4896.8
4896.8
4896.8
4896.79
4896.79
4896.79
4896.79
4896.8
4896.81
4896.82
4896.83
4896.83
4896.83
4896.82
4896.82
4896.81
4896.81
4896.82
4896.81
4896.8
4896.79
4896.79
4896.79
4896.85
4896.79
4896.78
4896.78
4896.78
4896.78
4896.79
4896.8
4896.81
4896.81
4896.81
4896.81
4896.8
4896.81
4896.81
4896.82
4896.83
4896.83
4896.83
4896.83
4896.83
4896.82
4896.82
4896.82
4896.82
4896.8
4896.79
4896.78
4896.77
4896.78
4896.81
4896.74
4896.75
4896.76
4896.77
4896.79
4896.81
4896.82
4896.83
4896.83
4896.83
4896.83
4896.82
4896.83
4896.83
4896.84
4896.84
4896.84
4896.83
4896.83
4896.83
4896.84
4896.85
4896.85
4896.84
4896.83
4896.82
4896.81
4896.81
4896.84
4896.78
4896.74
4896.76
4896.78
4896.8
4896.82
4896.84
4896.84
4896.85
4896.84
4896.83
4896.83
4896.83
4896.84
4896.84
4896.84
4896.83
4896.83
4896.83
4896.83
4896.84
4896.86
4896.87
4896.88
4896.88
4896.87
4896.88
4896.89
4896.91
4896.93
4896.8
4896.78
4896.8
4896.82
4896.83
4896.84
4896.84
4896.84
4896.83
4896.82
4896.82
4896.83
4896.84
4896.84
4896.84
4896.84
4896.83
4896.82
4896.82
4896.83
4896.85
4896.87
4896.88
4896.88
4896.88
4896.89
4896.91
4896.93
4896.95
4896.93
4896.83
4896.83
4896.84
4896.84
4896.84
4896.84
4896.83
4896.82
4896.81
4896.82
4896.83
4896.85
4896.86
4896.86
4896.86
4896.84
4896.82
4896.82
4896.82
4896.83
4896.85
4896.85
4896.85
4896.84
4896.84
4896.85
4896.87
4896.88
4896.87
4896.81
4896.86
4896.85
4896.85
4896.85
4896.85
4896.84
4896.84
4896.84
4896.84
4896.86
4896.88
4896.89
4896.89
4896.88
4896.85
4896.83
4896.81
4896.82
4896.83
4896.84
4896.84
4896.83
4896.82
4896.81
4896.82
4896.84
4896.84
4896.82
4896.78
4896.76
4896.88
4896.88
4896.88
4896.88
4896.88
4896.89
4896.89
4896.89
4896.9
4896.91
4896.91
4896.9
4896.87
4896.84
4896.81
4896.8
4896.8
4896.82
4896.84
4896.84
4896.83
4896.82
4896.82
4896.83
4896.86
4896.88
4896.87
4896.84
4896.82
4896.87
4896.9
4896.92
4896.93
4896.94
4896.94
4896.94
4896.94
4896.94
4896.93
4896.92
4896.89
4896.86
4896.82
4896.79
4896.78
4896.79
4896.82
4896.85
4896.86
4896.85
4896.84
4896.84
4896.86
4896.9
4896.92
4896.92
4896.9
4896.9
4896.92
4896.96
4896.94
4896.98
4896.98
4896.98
4896.97
4896.96
4896.95
4896.94
4896.92
4896.9
4896.86
4896.82
4896.79
4896.79
4896.81
4896.85
4896.88
4896.89
4896.88
4896.86
4896.86
4896.88
4896.92
4896.95
4896.94
4896.92
4896.91
4896.92
4896.94
4896.92
4896.98
4897
4896.99
4896.98
4896.96
4896.95
4896.94
4896.93
4896.92
4896.9
4896.86
4896.83
4896.82
4896.83
4896.86
4896.89
4896.89
4896.87
4896.85
4896.85
4896.88
4896.93
4896.97
4896.97
4896.94
4896.92
4896.93
4896.94
4896.92
4896.92
4896.99
4896.98
4896.97
4896.96
4896.95
4896.95
4896.95
4896.95
4896.94
4896.91
4896.87
4896.84
4896.83
4896.84
4896.85
4896.84
4896.82
4896.79
4896.8
4896.84
4896.91
4896.96
4896.98
4896.97
4896.95
4896.96
4896.97
4896.97
4896.98
4897.02
4896.99
4896.96
4896.96
4896.95
4896.95
4896.96
4896.96
4896.95
4896.93
4896.89
4896.85
4896.83
4896.84
4896.84
4896.83
4896.81
4896.78
4896.79
4896.83
4896.9
4896.96
4896.98
4896.96
4896.94
4896.96
4896.98
4896.99
4897
4897.05
4897.01
4897
4896.97
4896.97
4896.96
4896.96
4896.96
4896.95
4896.93
4896.9
4896.87
4896.86
4896.87
4896.89
4896.9
4896.89
4896.87
4896.86
4896.89
4896.94
4896.98
4896.98
4896.95
4896.93
4896.94
4896.98
4897
4897
4897.03
4897.03
4896.94
4897.03
4897
4896.99
4896.98
4896.98
4896.97
4896.95
4896.93
4896.91
4896.9
4896.91
4896.94
4896.95
4896.95
4896.93
4896.92
4896.93
4896.96
4896.98
4896.96
4896.93
4896.92
4896.95
4896.99
4897.02
4897.04
4897.06
4897.05
4896.99
4897.02
4897.07
4897.05
4897.04
4897.03
4897.02
4896.99
4896.96
4896.93
4896.91
4896.91
4896.93
4896.94
4896.93
4896.91
4896.89
4896.89
4896.91
4896.92
4896.91
4896.89
4896.88
4896.91
4896.99
4897.04
4897.05
4897.09
4897.11
4897.06
4897.08
4897.18
4897.14
4897.13
4897.12
4897.09
4897.06
4897.01
4896.97
4896.93
4896.92
4896.93
4896.93
4896.92
4896.9
4896.88
4896.87
4896.89
4896.9
4896.89
4896.87
4896.88
4896.92
4896.96
4897.01
4897.05
4897.07
4897.11
4897.14
4897.13
4897.25
4897.23
4897.23
4897.21
4897.18
4897.14
4897.1
4897.06
4897.03
4897.01
4897
4897
4896.98
4896.96
4896.93
4896.91
4896.91
4896.91
4896.91
4896.91
4896.91
4896.95
4897
4897
4897.01
4897.07
4897.11
4897.13
4897.19
4897.28
4897.32
4897.28
4897.32
4897.28
4897.25
4897.23
4897.21
4897.19
4897.16
4897.12
4897.09
4897.04
4896.99
4896.94
4896.9
4896.89
4896.89
4896.89
4896.89
4896.93
4896.96
4897
4897.03
4897.01
4897.03
4897.12
4897.15
4897.15
4897.28
4897.37
4897.33
4897.37
4897.41
4897.4
4897.4
4897.39
4897.37
4897.31
4897.24
4897.14
4897.06
4896.98
4896.92
4896.88
4896.87
4896.88
4896.88
4896.87
4896.87
4896.93
4896.96
4896.94
4896.97
4897
4897.06
4897.15
4897.18
4897.23
4897.39
4897.42
4897.43
4897.44
4897.56
4897.58
4897.57
4897.53
4897.46
4897.36
4897.25
4897.14
4897.05
4896.99
4896.97
4896.96
4896.95
4896.93
4896.9
4896.89
4896.86
4896.89
4896.91
4896.87
4896.94
4897.09
4897.14
4897.17
4897.28
4897.41
4897.52
4897.54
4897.55
4897.56
4897.74
4897.76
4897.72
4897.66
4897.56
4897.45
4897.34
4897.25
4897.18
4897.14
4897.11
4897.07
4897.01
4896.93
4896.87
4896.9
4896.88
4896.9
4896.95
4896.99
4897.12
4897.3
4897.3
4897.32
4897.53
4897.65
4897.66
4897.68
4897.68
4897.75
4897.94
4897.95
4897.91
4897.84
4897.73
4897.61
4897.49
4897.39
4897.31
4897.24
4897.16
4897.07
4896.98
4896.93
4896.88
4896.97
4896.99
4896.99
4897.09
4897.22
4897.32
4897.45
4897.44
4897.55
4897.8
4897.82
4897.79
4897.82
4897.94
4897.97
4898.18
4898.2
4898.13
4898.02
4897.89
4897.75
4897.64
4897.54
4897.43
4897.32
4897.2
4897.08
4897
4897.03
4896.99
4897.07
4897.08
4897.07
4897.19
4897.35
4897.39
4897.5
4897.6
4897.79
4897.95
4897.91
4897.96
4898.1
4898.22
4898.18
4898.47
4898.43
4898.32
4898.2
4898.1
4898
4897.89
4897.75
4897.6
4897.44
4897.31
4897.21
4897.09
4897.16
4897.11
4897.11
4897.13
4897.19
4897.31
4897.47
4897.46
4897.64
4897.83
4897.96
4898.03
4898.09
4898.27
4898.4
4898.38
4898.42
4898.75
4898.66
4898.6
4898.54
4898.46
4898.34
4898.18
4897.99
4897.81
4897.63
4897.48
4897.41
4897.21
4897.22
4897.21
4897.15
4897.17
4897.3
4897.4
4897.52
4897.56
4897.83
4898.04
4898.09
4898.22
4898.45
4898.59
4898.6
4898.69
4898.83
4899.09
4899.06
4899.02
4898.94
4898.81
4898.64
4898.45
4898.26
4898.07
4897.85
4897.6
4897.54
4897.38
4897.26
4897.3
4897.22
4897.21
4897.35
4897.51
4897.62
4897.78
4898.07
4898.26
4898.38
4898.58
4898.83
4898.86
4898.96
4899.25
4899.29
4899.56
4899.52
4899.44
4899.33
4899.19
4898.99
4898.75
4898.5
4898.28
4898.09
4897.81
4897.61
4897.6
4897.33
4897.35
4897.38
4897.44
4897.5
4897.75
4897.86
4898.07
4898.34
4898.57
4898.82
4898.95
4899.18
4899.35
4899.55
4899.67
4899.61
4900.09
4900.04
4899.99
4899.86
4899.63
4899.36
4899.14
4898.9
4898.61
4898.38
4898.18
4897.81
4897.83
4897.62
4897.52
4897.48
4897.66
4897.67
4897.94
4898.1
4898.38
4898.67
4898.93
4899.26
4899.37
4899.57
4899.96
4900.08
4899.96
4899.96
4900.72
4900.75
4900.63
4900.38
4900.15
4899.92
4899.72
4899.39
4899.1
4898.75
4898.44
4898.12
4897.97
4897.77
4897.7
4897.61
4897.84
4897.92
4898.11
4898.37
4898.76
4899.09
4899.27
4899.52
4900.02
4900.22
4900.36
4900.55
4900.78
4900.66
4901.54
4901.47
4901.22
4901.1
4900.94
4900.51
4900.19
4899.87
4899.43
4899.06
4898.58
4898.5
4898.24
4897.78
4897.86
4897.91
4897.94
4898.12
4898.45
4898.72
4899.04
4899.43
4899.88
4900.05
4900.58
4900.96
4900.96
4901.27
4901.53
4901.33
4902.37
4902.24
4902.18
4901.92
4901.55
4901.25
4900.92
4900.41
4899.86
4899.85
4899.08
4898.51
4898.54
4898.18
4898.01
4898.12
4898.17
4898.44
4898.73
4899.02
4899.55
4899.94
4900.4
4900.94
4901.1
4901.52
4901.96
4902.29
4902.12
4901.82
4903.34
4903.35
4903.17
4902.63
4902.46
4902.15
4901.54
4901.24
4900.4
4899.86
4899.59
4898.95
4898.65
4898.39
4898.01
4898.26
4898.52
4898.56
4898.89
4899.45
4899.94
4900.57
4900.96
4901.59
4902.05
4902.48
4902.82
4903.11
4903.38
4902.72
4904.6
4904.46
4904.17
4903.76
4903.43
4903.03
4902.39
4901.88
4901.12
4900.41
4899.8
4899.17
4898.77
4898.32
4898.35
4898.45
4898.32
4898.75
4899.34
4899.88
4900.45
4901.11
4901.79
4902.47
4902.97
4903.34
4903.89
4904.14
4904.47
4904.08
4906.06
4905.36
4905.45
4904.95
4904.09
4903.97
4903.32
4902.58
4901.64
4901.04
4900.06
4899.2
4898.78
4898.51
4898.27
4898.2
4898.53
4898.86
4899.28
4900.04
4901.01
4901.78
4902.56
4903.32
4903.89
4904.03
4905.08
4905.43
4905.67
4905.49
4907.6
4905.51
4906.78
4905.62
4905.53
4905.06
4904.12
4903.52
4902.36
4901.45
4900.02
4898.99
4898.52
4898.37
4897.72
4897.72
4898.38
4898.58
4899.01
4900.1
4901.42
4902.37
4903.53
4904.12
4905
4905.41
4905.75
4906.79
4905.87
4906.94
4358.27
4172.92
4304.43
4172.97
4342.05
4279.23
4261.34
4292.7
4231.39
4256.31
4118.08
4118.35
4077.3
4117.92
4060.74
4062.19
4120.5
4082.53
4114.37
4127.25
4254.45
4231.92
4294.21
4261.61
4282.82
4339.22
4170.57
4302.57
4171.81
4356.19
1303.43
1148.42
1314.94
1025.81
1184.95
1004.41
829.286
998.317
809.314
850.757
719.141
635.726
707.033
801.88
570.128
581.164
793.708
715.41
638.435
721.803
834.966
813.845
1001.43
835.973
1005.44
1150.22
1033.91
1334.35
1141.08
1291.8
1.72788
0.984418
1.34418
3.05396
4.31299
0.327821
0.41334
1.32552
0.379466
0.294957
0.183765
0.0650998
0.709382
4.73915
0.0179912
0.00102905
3.70039
0.923698
0.0825531
0.17408
0.165914
0.12413
1.13086
0.506496
0.316969
3.59596
2.99279
1.43913
1.15281
2.16593
2.02783
0.953898
0.661691
3.25186
0.355523
0.174432
0.186246
0.03668
0.358284
0.11137
0.0794016
0.0139148
0.243658
0.00400514
-0.0243131
-0.0239183
-0.012992
0.0339376
0.0123386
0.0710889
0.143519
0.105518
0.0488835
0.247469
0.188011
0.455798
3.3965
0.991012
1.03427
2.50403
-0.0402575
0.518781
0.417637
0.158593
0.00545267
0.154619
0.233907
-0.0222775
0.0442115
0.0985519
0.149727
-0.00488147
0.0834077
-0.0225718
-0.0307385
-0.0287474
0.017698
0.12992
0.010031
0.154145
0.0866304
0.0793215
-0.0114575
0.275235
0.178565
0.0271201
0.0360928
0.71458
0.593245
-0.0424285
-0.0382311
-0.0132028
0.0248763
-0.0401405
-0.04097
-0.0384926
-0.0271036
-0.0304088
-0.0295769
-0.0176243
-0.0105208
-0.0228059
-8.30163e-05
0.0169864
-0.0208429
-0.0205049
0.028681
0.0126005
-0.00934503
-0.0134438
-0.0304115
-0.0308305
-0.0327957
-0.0253462
-0.0385235
-0.0412319
-0.0406011
-0.00188675
-0.00709305
-0.0389819
-0.0359585
-0.0352074
-0.0335966
-0.0362153
-0.0376434
-0.0375761
-0.0371463
-0.0353303
-0.0304017
-0.033519
-0.0359974
-0.0223118
-0.00364609
0.00554597
-0.00526228
-0.00632791
-0.00232478
-0.00558633
-0.016232
-0.0345005
-0.0336342
-0.0310176
-0.0353633
-0.0370793
-0.0376261
-0.0378433
-0.0360886
-0.0342436
-0.0358959
-0.0364125
-0.0342601
-0.0341126
-0.0337784
-0.03305
-0.0337865
-0.0342322
-0.033903
-0.0335621
-0.0331788
-0.0331285
-0.0326631
-0.0292045
-0.0284727
-0.0255335
-0.00274475
-0.00277762
-0.0271651
-0.0318897
-0.030797
-0.0326132
-0.0327635
-0.0329788
-0.0334432
-0.0338535
-0.034272
-0.0336211
-0.0328964
-0.0340786
-0.0344167
-0.0345387
-0.0310106
-0.0310308
-0.031093
-0.0308844
-0.0307993
-0.0307271
-0.030373
-0.0300179
-0.0296225
-0.0292419
-0.0289113
-0.0286688
-0.0284438
-0.0282606
-0.023581
-0.0199904
-0.0281969
-0.0283664
-0.0285726
-0.0288062
-0.0291024
-0.0294771
-0.0298874
-0.0303249
-0.0307451
-0.0307485
-0.0309245
-0.0312751
-0.0312598
-0.0312893
-0.0278687
-0.0278283
-0.0278104
-0.0276896
-0.027535
-0.0272186
-0.0268212
-0.0264012
-0.0259296
-0.0254324
-0.0249485
-0.0245492
-0.0242401
-0.0240209
-0.0239027
-0.0238931
-0.0239734
-0.024156
-0.0244471
-0.0248247
-0.0252783
-0.0257757
-0.0262687
-0.0267491
-0.0271903
-0.0275113
-0.0277253
-0.0279311
-0.0279945
-0.0280351
-0.0247351
-0.0246533
-0.0245786
-0.0244141
-0.0241664
-0.0238159
-0.0233754
-0.0228749
-0.0223235
-0.0217491
-0.0211769
-0.0206422
-0.0202044
-0.0198913
-0.0197256
-0.0197162
-0.0198405
-0.0201125
-0.0205196
-0.0210206
-0.0215691
-0.0221362
-0.0227011
-0.0232429
-0.0237308
-0.0241125
-0.0244243
-0.0246679
-0.0247954
-0.0248563
-0.0217126
-0.021639
-0.0215242
-0.0213081
-0.0210013
-0.0205974
-0.0201005
-0.0195336
-0.0189186
-0.0182836
-0.0176502
-0.0170545
-0.0165446
-0.016171
-0.0159689
-0.0159565
-0.0161184
-0.016447
-0.0169118
-0.0174643
-0.0180711
-0.0186912
-0.019315
-0.0199219
-0.0204789
-0.0209353
-0.0213017
-0.0215737
-0.021738
-0.0218173
-0.0189115
-0.0188269
-0.0186682
-0.0184088
-0.0180599
-0.0176124
-0.017069
-0.0164541
-0.0157942
-0.0151155
-0.0144431
-0.0138131
-0.0132767
-0.0128827
-0.0126626
-0.0126406
-0.0128109
-0.0131517
-0.0136323
-0.0142189
-0.0148753
-0.0155578
-0.0162405
-0.0168991
-0.0174996
-0.0180007
-0.0183981
-0.01869
-0.0188754
-0.0189682
-0.0163056
-0.0162069
-0.0160197
-0.0157371
-0.0153644
-0.0148887
-0.0143145
-0.0136668
-0.0129754
-0.0122701
-0.0115795
-0.0109389
-0.0103957
-0.00999747
-0.00977437
-0.00974711
-0.00991599
-0.0102634
-0.0107593
-0.0113692
-0.0120573
-0.0127767
-0.0134943
-0.0141779
-0.0147955
-0.0153153
-0.0157286
-0.0160354
-0.0162371
-0.0163405
-0.0139309
-0.0138272
-0.0136366
-0.013351
-0.012967
-0.0124785
-0.0118916
-0.01123
-0.010526
-0.00981308
-0.00912395
-0.00849144
-0.00795563
-0.00756211
-0.00734004
-0.00730905
-0.0074739
-0.00782079
-0.00832105
-0.00893446
-0.00962232
-0.0103425
-0.0110576
-0.0117368
-0.0123524
-0.0128788
-0.013304
-0.0136247
-0.0138396
-0.0139499
-0.0118043
-0.0116992
-0.0115121
-0.0112236
-0.0108309
-0.0103385
-0.00975462
-0.00909972
-0.00840292
-0.00769907
-0.00702406
-0.00641184
-0.00589774
-0.00551945
-0.00530553
-0.00527432
-0.00543017
-0.00576382
-0.00624905
-0.00684775
-0.00751891
-0.0082208
-0.00891695
-0.00957919
-0.0101838
-0.0107086
-0.0111392
-0.0114676
-0.011689
-0.0118021
-0.00991361
-0.00981336
-0.00961931
-0.00931827
-0.00891752
-0.00842669
-0.00785656
-0.00722209
-0.00654747
-0.0058671
-0.00521803
-0.00463469
-0.00414995
-0.00379635
-0.00360039
-0.00357783
-0.00373244
-0.00405395
-0.00451899
-0.00509372
-0.00573857
-0.00641334
-0.00708309
-0.00772101
-0.0083052
-0.00881638
-0.00923916
-0.00956359
-0.00978311
-0.00989531
-0.00827412
-0.00817908
-0.00797435
-0.00766521
-0.00726468
-0.00678412
-0.00623448
-0.00562773
-0.00498487
-0.00433728
-0.00372203
-0.00317441
-0.00272619
-0.00240537
-0.00223334
-0.00222215
-0.00237378
-0.00267899
-0.00311716
-0.00365811
-0.00426594
-0.00490373
-0.00553828
-0.00614272
-0.00669715
-0.00718387
-0.00758849
-0.00790072
-0.00811319
-0.00822247
-0.00687036
-0.00677691
-0.00657132
-0.00626854
-0.00587999
-0.00541728
-0.00489097
-0.00431459
-0.00370942
-0.00310419
-0.0025327
-0.00202882
-0.00162196
-0.0013351
-0.00118441
-0.00117864
-0.00131879
-0.00159688
-0.00199559
-0.00248924
-0.003047
-0.00363657
-0.00422772
-0.0047945
-0.00531642
-0.00577677
-0.00616176
-0.00646073
-0.00666547
-0.00677122
-0.00564736
-0.00555594
-0.00536002
-0.00507179
-0.00470035
-0.00425693
-0.00375455
-0.00321103
-0.00264816
-0.00209195
-0.00157203
-0.001118
-0.000754752
-0.000500842
-0.000368445
-0.000363805
-0.000487067
-0.000731563
-0.00108356
-0.00152291
-0.00202487
-0.00256246
-0.00310874
-0.00363887
-0.00413168
-0.00456947
-0.00493788
-0.00522541
-0.00542244
-0.00552324
-0.00456927
-0.00448409
-0.00430021
-0.00402477
-0.00366765
-0.00324131
-0.00276302
-0.00225338
-0.00173423
-0.00122936
-0.000763839
-0.000361489
-4.21319e-05
0.000179499
0.000293742
0.000296061
0.000187013
-2.76912e-05
-0.000337462
-0.000727173
-0.00117764
-0.00166666
-0.00217064
-0.00266614
-0.00313124
-0.00354732
-0.00389892
-0.00417342
-0.00436015
-0.00445327
-0.00362958
-0.0035567
-0.00338204
-0.00311715
-0.00277355
-0.00236638
-0.00191528
-0.00144094
-0.000965535
-0.000511078
-9.7951e-05
0.000255553
0.000533945
0.000725301
0.00082162
0.00081935
0.000719416
0.000526774
0.000249991
-9.91425e-05
-0.000505323
-0.000949806
-0.00141207
-0.00187013
-0.00230284
-0.0026917
-0.00302064
-0.00327632
-0.00344819
-0.00353084
-0.00282301
-0.00276146
-0.00259601
-0.00234521
-0.00202178
-0.00164226
-0.00122604
-0.000793334
-0.000365083
3.95148e-05
0.000404269
0.000714502
0.000956816
0.00112159
0.00120219
0.00119554
0.00110266
0.000928031
0.000679093
0.000365662
9.43126e-07
-0.000398773
-0.000815116
-0.00122884
-0.00162089
-0.00197368
-0.0022717
-0.00250187
-0.00265468
-0.00272539
-0.00212183
-0.00206517
-0.001913
-0.00168442
-0.00139236
-0.00105241
-0.000681881
-0.000298927
7.8145e-05
0.000433092
0.000751645
0.00102119
0.00123115
0.00137295
0.00144073
0.00143198
0.00134748
0.00119126
0.000969985
0.000692926
0.000371962
2.07564e-05
-0.000344678
-0.00070763
-0.00105152
-0.00136069
-0.00162119
-0.0018214
-0.001953
-0.00201225
-0.00148695
-0.00143177
-0.00129765
-0.00109953
-0.000848768
-0.000558135
-0.00024167
8.55976e-05
0.000408477
0.000712921
0.000986264
0.00121748
0.00139747
0.00151834
0.00157525
0.00156621
0.00149201
0.00135599
0.00116419
0.000925319
0.000649625
0.000349186
3.75177e-05
-0.000271353
-0.000563617
-0.000826019
-0.00104677
-0.00121615
-0.00132721
-0.00137695
-0.000899012
-0.000844763
-0.000731192
-0.000567449
-0.000362124
-0.000124278
0.000135466
0.000405238
0.00067292
0.000926652
0.00115544
0.00134952
0.0015006
0.00160213
0.00164966
0.00164148
0.00157836
0.00146328
0.00130164
0.00110094
0.000870255
0.000619818
0.000360758
0.00010454
-0.000137776
-0.000355355
-0.000538595
-0.000679565
-0.00077253
-0.000815526
-0.000362525
-0.000310425
-0.000218137
-8.83012e-05
7.38638e-05
0.00026184
0.000467944
0.000683229
0.000898087
0.00110304
0.00128894
0.00144746
0.00157134
0.00165486
0.00169418
0.00168758
0.00163559
0.00154083
0.00140794
0.00124326
0.00105437
0.00084962
0.000637964
0.000428494
0.000230405
5.19606e-05
-9.91144e-05
-0.000216567
-0.000295386
-0.00033181
0.000102291
0.000148651
0.000221795
0.000322444
0.000447609
0.000592825
0.000752404
0.000919714
0.00108763
0.00124889
0.00139615
0.00152245
0.00162168
0.00168897
0.00172094
0.00171592
0.00167418
0.00159784
0.00149066
0.00135775
0.00120518
0.00103979
0.000868527
0.000698803
0.000537794
0.000392323
0.000268325
0.000170758
0.000103677
6.97798e-05
0.000474143
0.000513746
0.000570379
0.0006474
0.000742998
0.000853927
0.000975941
0.00110424
0.00123357
0.00135838
0.00147292
0.0015716
0.00164945
0.00170249
0.00172784
0.00172401
0.00169102
0.00163045
0.00154511
0.00143889
0.00131657
0.00118356
0.00104564
0.000908547
0.000778008
0.000659453
0.000557528
0.000476389
0.000419018
0.000387885
0.000746355
0.000775284
0.000818888
0.000878037
0.000951235
0.00103611
0.00112954
0.00122795
0.0013274
0.0014235
0.00151183
0.00158803
0.00164825
0.00168933
0.00170897
0.0017059
0.00167998
0.00163229
0.00156477
0.00148032
0.00138267
0.00127607
0.00116512
0.00105446
0.000948684
0.000852032
0.000768351
0.00070077
0.000651924
0.00062464
0.000919677
0.000939312
0.000972789
0.00101874
0.00107566
0.00114159
0.00121413
0.0012905
0.00136757
0.00144201
0.00151036
0.00156926
0.00161576
0.00164741
0.00166246
0.00165995
0.00163956
0.00160196
0.00154853
0.00148143
0.00140353
0.00131816
0.00122895
0.00113963
0.00105387
0.000975105
0.00090645
0.000850388
0.000809499
0.000786868
0.00101015
0.00102327
0.00104905
0.00108523
0.00113037
0.00118269
0.00124021
0.00130051
0.00136121
0.00141975
0.00147344
0.00151964
0.00155605
0.00158078
0.00159247
0.0015903
0.00157402
0.00154403
0.00150138
0.00144774
0.00138535
0.00131681
0.00124496
0.00117278
0.00110324
0.00103921
0.000983269
0.000937641
0.000904122
0.00088623
0.00103888
0.00104852
0.00106874
0.00109764
0.00113398
0.00117622
0.00122289
0.00127167
0.00132064
0.00136778
0.00141095
0.00144809
0.00147734
0.00149715
0.00150638
0.00150438
0.00149101
0.00146662
0.00143209
0.00138875
0.00133842
0.0012831
0.00122504
0.0011667
0.00111053
0.00105882
0.00101373
0.000977012
0.000950154
0.000936171
0.00103027
0.00103641
0.00105225
0.00107553
0.0011054
0.00114044
0.00117896
0.00121918
0.0012596
0.00129851
0.00133402
0.00136451
0.0013886
0.00140487
0.00141222
0.0014103
0.00139908
0.00137893
0.00135056
0.00131514
0.00127426
0.00122938
0.00118232
0.00113504
0.00108943
0.00104758
0.00101125
0.000981883
0.000960694
0.000950174
0.000998117
0.00100197
0.00101462
0.00103377
0.00105864
0.00108806
0.00112058
0.00115472
0.00118919
0.00122238
0.0012526
0.00127821
0.00129785
0.0013108
0.00131663
0.00131492
0.00130552
0.00128892
0.00126576
0.00123685
0.00120309
0.00116595
0.00112707
0.00108811
0.00105079
0.00101672
0.00098734
0.000963877
0.000947293
0.000939441
0.000953327
0.000956246
0.000966743
0.00098278
0.00100377
0.00102876
0.00105656
0.00108585
0.00111525
0.00114335
0.0011688
0.00119037
0.00120706
0.00121816
0.00122319
0.00122185
0.00121414
0.00120034
0.00118095
0.00115668
0.00112845
0.00109749
0.00106517
0.0010329
0.00100213
0.000974208
0.000950322
0.000931483
0.000918489
0.00091264
0.000902869
0.000905605
0.000914497
0.000928221
0.000946189
0.000967581
0.000991368
0.0010164
0.00104148
0.00106539
0.00108703
0.00110545
0.00111979
0.00112941
0.00113389
0.00113293
0.00112659
0.00111495
0.00109847
0.00107787
0.00105401
0.00102797
0.00100091
0.000974033
0.000948534
0.000925526
0.000906
0.000890802
0.000880595
0.000876091
0.000850414
0.000853101
0.000860794
0.000872577
0.000887945
0.000906165
0.000926395
0.00094769
0.000969049
0.000989492
0.00100807
0.0010239
0.00103629
0.00104466
0.0010486
0.00104787
0.00104246
0.00103253
0.0010185
0.00100102
0.00098089
0.00095902
0.000936402
0.000914037
0.000892901
0.000873907
0.000857877
0.000845513
0.000837354
0.0008338
0.00079743
0.000800034
0.00080672
0.000816779
0.000829769
0.000845104
0.000862126
0.000880101
0.000898223
0.000915665
0.000931567
0.000945145
0.000955764
0.000962913
0.00096624
0.000965586
0.000960958
0.000952543
0.000940726
0.000926074
0.000909268
0.000891071
0.000872299
0.00085377
0.000836284
0.000820596
0.000807388
0.000797243
0.000790594
0.000787715
0.000743998
0.000746408
0.000752175
0.000760621
0.000771409
0.000784144
0.000798335
0.000813387
0.000828615
0.00084329
0.000856673
0.000868095
0.000877009
0.000882994
0.000885782
0.000885248
0.000881392
0.000874414
0.000864638
0.000852532
0.000838663
0.000823653
0.000808172
0.00079289
0.000778477
0.000765561
0.000754708
0.00074639
0.000740945
0.000738586
0.000689194
0.000691262
0.000696058
0.000702993
0.000711875
0.000722397
0.000734149
0.000746612
0.00075919
0.000771286
0.000782303
0.000791718
0.000799097
0.000804104
0.000806506
0.000806186
0.000803144
0.000797507
0.00078955
0.000779653
0.000768283
0.000755966
0.000743265
0.000730752
0.00071899
0.000708484
0.00069969
0.000692968
0.000688563
0.000686645
0.000632009
0.000633673
0.00063754
0.000643202
0.000650508
0.000659171
0.000668801
0.000678947
0.00068913
0.000698892
0.000707809
0.000715498
0.000721623
0.000725896
0.000728088
0.000728035
0.000725756
0.000721282
0.000714862
0.000706815
0.000697541
0.000687508
0.000677195
0.000667096
0.00065766
0.000649298
0.000642323
0.000636993
0.000633481
0.000631952
0.000572304
0.000573668
0.000576833
0.000581491
0.000587495
0.000594545
0.000602293
0.000610378
0.000618453
0.000626208
0.000633358
0.000639626
0.000644729
0.000648399
0.000650399
0.000650555
0.000648832
0.000645308
0.000640173
0.000633703
0.000626248
0.000618223
0.000610038
0.000602077
0.000594678
0.000588147
0.000582707
0.000578521
0.000575708
0.000574509
0.000510646
0.00051185
0.000514528
0.000518385
0.00052327
0.00052891
0.000535017
0.000541336
0.000547644
0.000553738
0.000559418
0.000564462
0.000568626
0.000571654
0.000573314
0.000573491
0.000572128
0.00056935
0.000565324
0.000560269
0.000554468
0.000548256
0.000541949
0.000535832
0.000530162
0.000525111
0.000520848
0.000517487
0.000515134
0.00051422
0.000447375
0.000448461
0.000450746
0.000453904
0.000457817
0.000462263
0.000467027
0.000471935
0.000476834
0.000481578
0.000486005
0.000489925
0.000493095
0.000495336
0.000496513
0.000496563
0.000495463
0.000493327
0.000490286
0.000486532
0.000482255
0.000477665
0.000472969
0.000468359
0.000464007
0.00046004
0.000456648
0.000453846
0.000451826
0.000450996
0.000382365
0.000383305
0.00038517
0.000387695
0.000390761
0.000394235
0.000397961
0.0004018
0.000405622
0.000409285
0.000412634
0.000415481
0.000417686
0.000419141
0.000419794
0.00041966
0.000418787
0.000417256
0.000415151
0.000412575
0.000409625
0.000406398
0.000402997
0.000399542
0.000396157
0.000392972
0.000390119
0.000387738
0.000385969
0.000385174
0.000315572
0.000316321
0.000317748
0.000319663
0.000321986
0.000324645
0.000327531
0.000330528
0.000333497
0.000336277
0.000338704
0.000340629
0.000341991
0.000342772
0.000343014
0.000342807
0.000342212
0.000341263
0.000340011
0.000338454
0.000336588
0.000334423
0.000331996
0.000329391
0.000326703
0.000324066
0.000321631
0.000319591
0.000318133
0.000317335
0.000247327
0.000247897
0.000248893
0.000250214
0.00025183
0.000253732
0.000255861
0.000258112
0.000260336
0.000262344
0.000263995
0.000265186
0.000265919
0.000266268
0.00026633
0.000266196
0.000265919
0.000265509
0.000264953
0.000264184
0.000263113
0.000261719
0.000260015
0.000258044
0.000255907
0.00025374
0.000251709
0.000250032
0.000248876
0.000248122
0.000178067
0.000178493
0.000179088
0.000179849
0.000180785
0.000181972
0.000183368
0.000184885
0.000186393
0.000187705
0.000188692
0.000189345
0.000189702
0.000189865
0.000189921
0.00018993
0.00018993
0.000189899
0.000189806
0.000189537
0.000189015
0.000188197
0.00018706
0.000185647
0.000184041
0.000182384
0.000180831
0.000179566
0.00017872
0.000178099
0.000108048
0.000108312
0.000108558
0.000108826
0.000109168
0.000109699
0.000110414
0.000111256
0.0001121
0.000112817
0.000113331
0.000113651
0.000113751
0.000113827
0.000113889
0.000113981
0.000114145
0.000114295
0.000114412
0.000114421
0.000114252
0.000113866
0.000113227
0.000112372
0.000111365
0.000110313
0.000109324
0.000108532
0.000107993
0.000107569
3.66818e-05
3.67411e-05
3.67145e-05
3.66467e-05
3.65908e-05
3.66292e-05
3.67771e-05
3.70261e-05
3.73086e-05
3.75818e-05
3.78114e-05
3.79659e-05
3.79991e-05
3.8046e-05
3.80709e-05
3.80997e-05
3.81763e-05
3.82352e-05
3.82945e-05
3.83279e-05
3.83137e-05
3.82388e-05
3.80835e-05
3.78547e-05
3.7571e-05
3.72628e-05
3.69594e-05
3.67139e-05
3.65274e-05
3.63409e-05
4896.82
4896.83
4896.82
4896.82
4896.82
4896.82
4896.82
4896.81
4896.81
4896.81
4896.81
4896.81
4896.8
4896.81
4896.81
4896.81
4896.81
4896.81
4896.81
4896.81
4896.81
4896.81
4896.81
4896.81
4896.82
4896.82
4896.82
4896.82
4896.83
4896.84
4896.83
4896.83
4896.83
4896.82