/*--------------------------------*- C++ -*----------------------------------*\
| =========                 |                                                 |
| \\      /  F ield         | OpenFOAM: The Open Source CFD Toolbox           |
|  \\    /   O peration     | Version:  2312                                  |
|   \\  /    A nd           | Website:  www.openfoam.com                      |
|    \\/     M anipulation  |                                                 |
\*---------------------------------------------------------------------------*/
FoamFile
{
    version     2.0;
    format      ascii;
    arch        "LSB;label=32;scalar=64";
    class       surfaceScalarField;
    location    "1.2036445";
    object      phi;
}
// * * * * * * * * * * * * * * * * * * * * * * * * * * * * * * * * * * * * * //

dimensions      [0 3 -1 0 0 0 0];

oriented        oriented;

internalField   nonuniform List<scalar> 
263100
(
-2.3667e-09
4.73341e-09
-2.3667e-09
2.22593e-10
-9.69683e-10
-1.6051e-09
1.19288e-09
3.45457e-10
-1.30354e-09
1.83542e-09
3.84603e-10
-1.01455e-09
2.37342e-09
7.7374e-11
-6.02249e-10
2.89094e-09
-3.54372e-10
-1.49734e-10
3.41135e-09
-7.45455e-10
2.38486e-10
3.81618e-09
-9.48418e-10
5.56962e-10
3.88597e-09
-8.50652e-10
7.94152e-10
3.48424e-09
-4.42242e-10
8.57378e-10
2.67035e-09
1.3193e-10
6.95725e-10
1.51776e-09
7.79272e-10
3.8762e-10
2.91693e-10
1.25457e-09
-1.36435e-11
-6.74767e-10
1.40054e-09
-4.18792e-10
-1.08261e-09
1.1844e-09
-7.61066e-10
-8.16772e-10
6.69446e-10
-9.19847e-10
2.88093e-11
-9.08997e-12
-8.21378e-10
1.06321e-09
-5.11744e-10
-5.08001e-10
1.73529e-09
-7.29e-10
7.11485e-11
1.64758e-09
-4.42738e-10
5.44357e-10
5.31513e-10
2.50607e-10
8.79145e-10
-1.66572e-09
1.22866e-09
9.82019e-10
-4.56505e-09
2.07996e-09
8.32532e-10
-7.36951e-09
2.36483e-09
4.52469e-10
-9.05749e-09
1.69562e-09
4.9174e-12
-8.47623e-09
5.88421e-11
-6.27776e-10
-4.93057e-09
-2.34716e-09
-1.18631e-09
2.66164e-09
-4.74075e-09
-2.83925e-09
1.28713e-08
-6.40345e-09
-3.7938e-09
3.52632e-08
-2.23794e-08
1.62096e-10
4.42389e-09
1.62096e-10
7.71063e-11
-1.01077e-09
1.50423e-10
-2.11948e-11
3.27671e-10
1.39154e-10
-1.97186e-11
2.96491e-10
1.10382e-10
9.53913e-11
-1.34699e-10
1.21109e-10
3.74799e-10
-7.43895e-10
1.34277e-10
8.08069e-10
-1.2839e-09
1.29079e-10
1.34286e-09
-1.57224e-09
1.12832e-10
1.91143e-09
-1.48764e-09
9.24051e-11
2.42031e-09
-1.02491e-09
9.83545e-11
2.7869e-09
-3.78168e-10
1.68973e-10
3.0008e-09
3.05865e-10
2.85915e-10
3.04829e-09
7.62005e-10
4.72235e-10
2.90772e-09
8.19511e-10
7.49186e-10
2.54383e-09
5.36583e-10
1.03929e-09
1.89105e-09
9.20733e-11
1.25734e-09
1.04596e-09
-4.95757e-10
1.35835e-09
1.59564e-10
-8.97566e-10
1.29818e-09
-7.1651e-10
-8.64906e-10
1.0374e-09
-1.5491e-09
-2.83695e-10
6.98502e-10
-2.2436e-09
5.65625e-10
4.03951e-10
-2.86311e-09
1.67299e-09
1.9909e-10
-3.37173e-09
2.46441e-09
1.47497e-10
-3.52925e-09
2.31458e-09
2.30606e-10
-3.43753e-09
1.07269e-09
5.53648e-10
-3.51943e-09
-1.07221e-09
1.23514e-09
-3.69954e-09
-4.20853e-09
2.06358e-09
-6.0144e-10
-1.17588e-08
3.94209e-09
9.82788e-09
-2.3446e-08
6.63548e-09
4.18271e-08
3.28199e-09
8.46478e-10
2.74305e-09
8.46478e-10
-3.58102e-10
-1.48897e-10
3.6464e-10
-1.06899e-09
8.11456e-10
2.47593e-10
-1.55526e-09
7.2197e-10
8.13294e-11
-1.89299e-09
2.66172e-10
-4.2908e-11
-1.99776e-09
-4.19918e-10
-1.99389e-10
-1.75057e-09
-1.08665e-09
-4.25016e-10
-1.11304e-09
-1.58862e-09
-6.01711e-10
-8.58418e-11
-1.81441e-09
-6.80634e-10
1.25306e-09
-1.71692e-09
-6.26414e-10
2.72347e-09
-1.41486e-09
-4.12407e-10
4.0741e-09
-1.02034e-09
-2.2858e-12
5.01336e-09
-5.99346e-10
4.44882e-10
5.21533e-09
-2.438e-10
8.84585e-10
4.51183e-09
2.21868e-11
1.24131e-09
3.01726e-09
2.26333e-10
1.38367e-09
9.73156e-10
3.40962e-10
1.23052e-09
-1.17029e-09
4.52807e-10
8.15862e-10
-2.85128e-09
6.0642e-10
2.31995e-10
-3.65545e-09
8.45365e-10
-3.03107e-10
-3.48621e-09
1.16427e-09
-7.46692e-10
-2.30696e-09
1.48045e-09
-9.66102e-10
-4.53616e-10
1.51402e-09
-8.8284e-10
1.56962e-09
9.04254e-10
-5.932e-10
3.32824e-09
-3.37455e-10
-3.29167e-10
4.18289e-09
-1.75357e-09
-1.5436e-10
2.08685e-09
-2.52645e-09
4.32541e-10
-4.09971e-09
-8.28428e-09
2.73043e-09
-2.92314e-09
-3.15049e-08
6.90046e-09
2.5689e-08
1.32293e-08
1.00662e-09
7.41836e-10
1.00662e-09
-5.05517e-10
8.7901e-10
5.0485e-10
-1.42508e-09
1.38102e-09
3.68722e-10
-2.1495e-09
1.29822e-09
1.66255e-10
-2.70769e-09
9.04146e-10
-6.25263e-11
-3.09384e-09
2.5092e-10
-2.67973e-10
-3.10142e-09
-5.10071e-10
-5.52452e-10
-2.6487e-09
-1.22889e-09
-7.95581e-10
-1.69636e-09
-1.83352e-09
-9.1573e-10
-2.86908e-10
-2.21721e-09
-8.90886e-10
1.38796e-09
-2.35558e-09
-7.15065e-10
2.99599e-09
-2.20834e-09
-4.00199e-10
4.1254e-09
-1.71833e-09
1.00581e-11
4.50946e-09
-8.63732e-10
2.56906e-10
3.95487e-09
2.07569e-10
3.9067e-10
2.54402e-09
1.34772e-09
3.11156e-10
5.91433e-10
2.29288e-09
2.23587e-11
-1.39517e-09
2.83982e-09
-3.7901e-10
-2.79565e-09
2.84321e-09
-8.15443e-10
-3.13524e-09
2.37788e-09
-1.17274e-09
-2.18275e-09
1.62694e-09
-1.39566e-09
-7.78434e-11
8.44893e-10
-1.45038e-09
2.57533e-09
1.50787e-10
-1.27137e-09
5.05237e-09
-5.94974e-10
-9.59655e-10
6.73724e-09
-1.43709e-09
-5.67594e-10
8.05e-09
-2.43298e-09
-6.16356e-10
9.84856e-09
-2.02563e-09
-2.28305e-09
3.50217e-09
1.03773e-09
-2.95987e-09
-8.2227e-09
-1.73521e-08
-2.41259e-09
1.27365e-08
4.7417e-09
1.07833e-09
-1.40344e-09
1.07833e-09
-1.74236e-10
1.4669e-09
6.82133e-10
-9.93574e-10
1.62239e-09
5.93279e-10
-1.63269e-09
1.52426e-09
4.2743e-10
-2.21782e-09
1.2748e-09
2.28039e-10
-2.68627e-09
7.51313e-10
-1.85714e-11
-2.95562e-09
-4.42244e-11
-1.82756e-10
-2.96863e-09
-8.80282e-10
-3.21113e-10
-2.61195e-09
-1.692e-09
-4.82865e-10
-1.89542e-09
-2.39302e-09
-5.24544e-10
-9.34822e-10
-2.80957e-09
-4.89716e-10
6.51207e-11
-2.78507e-09
-4.05675e-10
9.21703e-10
-2.21154e-09
-3.45196e-10
1.43259e-09
-1.01261e-09
-3.43156e-10
1.48985e-09
6.19904e-10
-4.50195e-10
1.05187e-09
2.4226e-09
-6.17201e-10
2.80665e-10
3.87231e-09
-7.88509e-10
-5.02815e-10
4.56153e-09
-9.1885e-10
-8.69054e-10
4.26318e-09
-1.03494e-09
-5.05981e-10
3.14801e-09
-1.11509e-09
6.46359e-10
1.65473e-09
-1.16261e-09
2.45559e-09
2.16418e-10
-1.16371e-09
4.5419e-09
-8.1298e-10
-1.10595e-09
6.2827e-09
-1.31885e-09
-1.00088e-09
6.9964e-09
-1.28933e-09
-8.46152e-10
6.42306e-09
-1.36393e-09
-4.81202e-10
6.2249e-09
-1.19843e-09
-6.15281e-10
4.297e-09
4.7779e-09
-1.79915e-09
-5.1253e-09
-4.28858e-09
-3.62842e-09
8.48329e-09
-8.621e-10
8.34013e-10
-3.06201e-09
8.34013e-10
2.60424e-10
1.38085e-09
6.72153e-10
7.57855e-11
1.16192e-09
6.55767e-10
-8.96416e-11
1.09604e-09
6.03636e-10
-3.56369e-10
1.0136e-09
5.37758e-10
-7.32091e-10
6.79512e-10
4.57858e-10
-1.22476e-09
7.89481e-11
3.80828e-10
-1.79775e-09
-6.43916e-10
3.49057e-10
-2.40771e-09
-1.38961e-09
3.21021e-10
-2.94173e-09
-2.09546e-09
2.5072e-10
-3.27258e-09
-2.55181e-09
8.80156e-11
-3.34751e-09
-2.61904e-09
-7.55328e-11
-3.08208e-09
-2.13575e-09
-3.24971e-10
-2.45961e-09
-1.04463e-09
-5.73517e-10
-1.57727e-09
5.15014e-10
-7.60041e-10
-5.82659e-10
2.30184e-09
-8.56268e-10
3.71542e-10
3.73543e-09
-7.99844e-10
1.21363e-09
4.3756e-09
-6.3901e-10
1.96602e-09
3.96524e-09
-4.37791e-10
2.67203e-09
2.72543e-09
-2.67354e-10
3.41619e-09
1.12547e-09
-1.99439e-10
4.20193e-09
-3.19246e-10
-2.35273e-10
4.90399e-09
-1.13987e-09
-3.61118e-10
5.31805e-09
-1.15421e-09
-5.65534e-10
5.20132e-09
-2.62933e-10
-8.97393e-10
3.57416e-09
1.42299e-09
-1.14825e-09
1.24279e-09
2.29764e-09
-1.15386e-09
5.09289e-10
7.97752e-09
-2.45583e-09
-3.71792e-09
4.56606e-09
-4.61743e-09
7.69919e-09
-2.92616e-09
8.67185e-11
-3.22899e-09
8.67185e-11
7.59562e-10
5.28712e-10
1.86267e-10
1.45926e-09
2.0515e-10
2.63002e-10
2.06355e-09
1.75603e-10
3.22141e-10
2.41142e-09
2.41328e-10
4.31114e-10
2.35003e-09
1.97491e-10
5.5137e-10
1.7465e-09
1.51831e-11
6.76711e-10
6.18084e-10
-2.94528e-10
7.8974e-10
-9.47173e-10
-6.61158e-10
8.48613e-10
-2.75797e-09
-1.06627e-09
7.94278e-10
-4.50465e-09
-1.40981e-09
6.18112e-10
-5.73294e-09
-1.63255e-09
2.55984e-10
-6.10865e-09
-1.59958e-09
-1.4555e-10
-5.50643e-09
-1.16893e-09
-4.62423e-10
-4.01917e-09
-3.52068e-10
-6.04425e-10
-1.91235e-09
7.25095e-10
-5.14354e-10
3.7809e-10
1.69321e-09
-2.32656e-10
2.43846e-09
2.17085e-09
1.5968e-10
3.95718e-09
1.94958e-09
5.11817e-10
4.79387e-09
1.10447e-09
7.98509e-10
4.96457e-09
-3.77039e-11
1.00581e-09
4.60743e-09
-9.37993e-10
9.88116e-10
3.86534e-09
-1.19352e-09
8.0675e-10
2.70787e-09
-5.30897e-10
5.44016e-10
1.38719e-09
1.04292e-09
2.37703e-11
-2.73329e-10
3.76344e-09
-6.71691e-10
-2.64058e-09
6.0074e-09
-1.33489e-09
-2.18271e-09
9.75928e-09
-2.23259e-09
-3.09373e-09
8.53502e-09
-3.0513e-09
6.31236e-09
-1.70205e-09
-1.03484e-09
-1.15615e-09
-1.03484e-09
9.23149e-10
-7.93179e-10
-6.33669e-10
2.60662e-09
-9.51914e-10
-5.2403e-10
4.07788e-09
-8.84567e-10
-4.07879e-10
5.14479e-09
-6.34678e-10
-1.86273e-10
5.53175e-09
-2.72427e-10
8.92443e-11
5.03035e-09
1.43592e-10
3.80877e-10
3.61416e-09
5.16303e-10
6.14598e-10
1.42216e-09
7.9961e-10
7.41714e-10
-1.22872e-09
8.89235e-10
7.06908e-10
-3.8552e-09
6.95923e-10
5.33262e-10
-5.88265e-09
1.51745e-10
2.56563e-10
-6.87888e-09
-5.91546e-10
2.27283e-12
-6.6058e-09
-1.28271e-09
-1.44878e-10
-5.12756e-09
-1.6542e-09
-1.61669e-10
-2.79474e-09
-1.66341e-09
6.99903e-11
-1.17881e-10
-1.36136e-09
3.91888e-10
2.36487e-09
-1.08779e-09
7.89859e-10
4.12e-09
-1.01268e-09
1.22058e-09
4.90509e-09
-1.285e-09
1.61689e-09
4.74348e-09
-1.69955e-09
1.83465e-09
3.82876e-09
-1.89409e-09
1.88051e-09
2.3407e-09
-1.4762e-09
1.779e-09
3.96686e-10
-1.45729e-10
1.56592e-09
-1.7013e-09
1.9416e-09
1.20547e-09
-3.14852e-09
4.70096e-09
5.15037e-10
-4.33977e-09
7.22183e-09
-1.86265e-11
-2.96091e-09
8.66673e-09
-2.82437e-10
-1.48072e-09
7.13148e-09
-7.31933e-11
3.62704e-09
1.20721e-09
-1.92357e-09
2.69159e-09
-1.92357e-09
1.07202e-09
-2.40557e-09
-1.3832e-09
3.461e-09
-2.05698e-09
-1.28322e-09
5.50958e-09
-1.8952e-09
-1.03598e-09
7.00095e-09
-1.40565e-09
-7.16789e-10
7.70029e-09
-5.97291e-10
-3.69231e-10
7.38745e-09
5.0133e-10
-3.81219e-11
6.03673e-09
1.74356e-09
1.3162e-10
3.83508e-09
2.75227e-09
2.58561e-10
1.13413e-09
3.30086e-09
3.0016e-10
-1.56169e-09
3.12117e-09
2.82518e-10
-3.77071e-09
2.13368e-09
2.39829e-10
-5.11234e-09
4.89743e-10
2.73532e-10
-5.45441e-09
-1.3057e-09
3.78359e-10
-4.81147e-09
-2.82647e-09
5.42526e-10
-3.37156e-09
-3.81182e-09
7.2165e-10
-1.50996e-09
-4.20349e-09
9.93609e-10
3.02078e-10
-4.16603e-09
1.27901e-09
1.77711e-09
-3.97974e-09
1.50407e-09
2.6272e-09
-3.77228e-09
1.64801e-09
2.71234e-09
-3.47966e-09
1.70434e-09
2.00995e-09
-2.92145e-09
1.73771e-09
6.91408e-10
-1.87246e-09
1.72153e-09
-9.58311e-10
-8.24464e-11
1.59209e-09
-2.63428e-09
2.24082e-09
1.38136e-09
-3.47725e-09
4.41602e-09
1.13144e-09
-3.1537e-09
5.69213e-09
1.20874e-09
-1.15155e-09
4.98882e-09
1.67774e-09
4.5813e-10
2.9417e-09
2.58186e-09
1.28995e-09
2.79701e-09
-2.04987e-09
6.79077e-09
-2.04987e-09
1.32152e-09
-4.43086e-09
-1.34611e-09
3.84848e-09
-3.48241e-09
-1.1007e-09
5.91254e-09
-3.2146e-09
-7.42554e-10
7.30429e-09
-2.41995e-09
-3.73935e-10
7.87609e-09
-1.10871e-09
-5.5545e-11
7.60932e-09
6.56644e-10
1.17697e-10
6.60988e-09
2.51365e-09
2.36963e-10
5.0753e-09
4.06806e-09
2.27872e-10
3.24326e-09
4.88379e-09
2.59469e-10
1.3602e-09
4.62172e-09
3.93788e-10
-3.6287e-10
3.25587e-09
6.12674e-10
-1.84655e-09
1.11503e-09
8.70394e-10
-3.00736e-09
-1.27302e-09
1.14018e-09
-3.77803e-09
-3.38978e-09
1.34607e-09
-4.09919e-09
-4.92465e-09
1.44619e-09
-3.89356e-09
-5.75815e-09
1.36117e-09
-3.16811e-09
-6.02446e-09
1.14463e-09
-2.15219e-09
-5.89709e-09
9.12149e-10
-1.18658e-09
-5.47341e-09
7.45072e-10
-5.57066e-10
-4.76002e-09
6.59272e-10
-4.43708e-10
-3.64375e-09
6.16399e-10
-8.43376e-10
-2.01346e-09
5.47161e-10
-1.4383e-09
6.14966e-11
4.56373e-10
-1.81975e-09
2.23549e-09
3.9086e-10
-1.35983e-09
3.40096e-09
5.57964e-10
-2.00366e-11
3.1808e-09
1.17352e-09
1.33367e-09
1.81486e-09
1.82185e-09
1.19034e-09
9.63471e-10
2.12304e-09
1.27685e-09
1.20498e-09
-5.96414e-10
7.98331e-09
-5.96414e-10
1.89649e-09
-7.13238e-09
2.10258e-10
3.46118e-09
-5.47245e-09
4.27507e-10
4.49538e-09
-4.88948e-09
6.43713e-10
4.98632e-09
-3.7483e-09
8.41445e-10
4.9752e-09
-2.01125e-09
9.18641e-10
4.68595e-09
9.49259e-11
8.57224e-10
4.33005e-09
2.23048e-09
6.46626e-10
4.05522e-09
3.87437e-09
4.77415e-10
3.78803e-09
4.72905e-09
4.31862e-10
3.37136e-09
4.47602e-09
5.72923e-10
2.55913e-09
3.20748e-09
8.71459e-10
1.17769e-09
1.32986e-09
1.17764e-09
-7.76092e-10
-6.26333e-10
1.31835e-09
-2.94489e-09
-2.49936e-09
1.28993e-09
-4.92396e-09
-3.92639e-09
9.92534e-10
-6.23547e-09
-4.93732e-09
5.02179e-10
-6.60776e-09
-5.59677e-09
-4.45972e-11
-6.11989e-09
-5.95574e-09
-4.19318e-10
-5.04279e-09
-5.87947e-09
-6.6199e-10
-3.77253e-09
-5.21443e-09
-8.0748e-10
-2.6951e-09
-3.91732e-09
-7.96243e-10
-1.92993e-09
-2.0105e-09
-7.61601e-10
-1.13215e-09
-8.18633e-11
-6.49287e-10
-8.56629e-11
1.55297e-09
-3.60298e-10
1.21643e-09
1.99744e-09
1.03955e-10
2.32855e-09
1.54494e-09
5.25553e-10
2.1692e-09
1.26871e-09
7.06894e-10
7.84166e-10
2.2751e-09
7.42656e-11
2.57625e-09
-5.15023e-10
1.89928e-09
4.18564e-09
1.89928e-09
2.00177e-09
-9.50819e-09
2.27723e-09
1.52777e-09
-7.63861e-09
2.64393e-09
6.53097e-10
-6.58782e-09
2.57717e-09
-3.29331e-10
-5.09352e-09
2.33247e-09
-1.05757e-09
-3.07393e-09
1.79647e-09
-1.23492e-09
-8.19577e-10
1.0986e-09
-5.94869e-10
1.13106e-09
4.6732e-10
7.10025e-10
2.58456e-09
-6.01129e-12
2.25149e-09
3.3305e-09
-1.33008e-10
3.46939e-09
3.34655e-09
-7.80231e-11
3.70584e-09
2.92928e-09
5.25236e-11
2.6783e-09
2.2325e-09
1.36153e-10
5.81793e-10
1.46257e-09
1.93497e-11
-2.24025e-09
6.28878e-10
-2.94114e-10
-5.08177e-09
-2.7976e-10
-7.93058e-10
-7.20938e-09
-1.48107e-09
-1.31706e-09
-8.19367e-09
-2.84619e-09
-1.75544e-09
-7.97646e-09
-4.08704e-09
-2.07582e-09
-6.85675e-09
-4.838e-09
-2.1517e-09
-5.29086e-09
-4.79483e-09
-1.97675e-09
-3.5991e-09
-3.92489e-09
-1.67658e-09
-1.89553e-09
-2.42963e-09
-1.27839e-09
-1.37767e-10
-1.0002e-09
-8.35019e-10
1.66101e-09
4.34796e-11
-2.86255e-10
3.01561e-09
4.39127e-10
2.05741e-10
3.23943e-09
8.42882e-10
4.79339e-10
2.05407e-09
2.21727e-09
2.36906e-10
6.77893e-10
3.82766e-09
-1.77494e-10
2.97409e-09
2.78117e-10
4.37495e-09
-4.56204e-09
4.37495e-09
9.39671e-10
-1.0047e-08
3.98013e-09
-2.07368e-09
-8.21575e-09
3.59573e-09
-4.80515e-09
-6.64584e-09
2.79478e-09
-7.0363e-09
-4.69407e-09
1.83752e-09
-8.21937e-09
-2.59917e-09
7.14933e-10
-8.02115e-09
-7.44553e-10
-2.65457e-10
-6.35107e-09
4.68345e-10
-9.98373e-10
-3.56692e-09
1.34057e-09
-1.53011e-09
-4.07887e-10
1.85697e-09
-1.67455e-09
2.12106e-09
2.43166e-09
-1.60236e-09
3.30066e-09
3.30255e-09
-1.54039e-09
2.89182e-09
4.29224e-09
-1.63761e-09
1.14996e-09
5.15846e-09
-1.94021e-09
-1.33298e-09
5.48695e-09
-2.36118e-09
-3.81387e-09
4.96848e-09
-2.75368e-09
-5.70677e-09
3.47319e-09
-3.04824e-09
-6.6436e-09
1.2588e-09
-3.15565e-09
-6.59067e-09
-1.08982e-09
-3.03826e-09
-5.83033e-09
-2.87594e-09
-2.71133e-09
-4.62741e-09
-3.74695e-09
-2.24106e-09
-3.06884e-09
-3.73864e-09
-1.73688e-09
-1.19707e-09
-3.088e-09
-1.20742e-09
7.96711e-10
-2.33266e-09
-6.5701e-10
2.59405e-09
-1.64389e-09
-1.07012e-10
3.46227e-09
-7.67039e-10
3.39529e-10
3.16053e-09
5.90017e-10
5.54573e-10
2.14915e-09
2.65667e-09
5.70296e-10
1.39785e-09
3.59669e-09
9.79181e-10
2.72851e-09
1.64025e-09
4.59188e-09
-1.37425e-08
4.59188e-09
-1.64041e-09
-6.27721e-09
2.47094e-09
-6.54558e-09
-4.89264e-09
1.58898e-09
-1.02625e-08
-3.23186e-09
3.09862e-10
-1.28099e-08
-1.46012e-09
-6.79035e-10
-1.36626e-08
-1.32778e-10
-1.60511e-09
-1.26093e-08
6.16259e-10
-2.40432e-09
-9.86237e-09
5.30912e-10
-2.79838e-09
-6.09343e-09
3.75815e-10
-2.79182e-09
-2.26458e-09
6.89786e-10
-2.64807e-09
6.61179e-10
1.9981e-09
-2.47735e-09
2.33475e-09
4.10467e-09
-2.4596e-09
2.57442e-09
6.72e-09
-2.65037e-09
1.77803e-09
8.90041e-09
-2.92803e-09
4.54595e-10
9.96203e-09
-3.13412e-09
-9.09402e-10
9.55144e-09
-3.20168e-09
-2.01485e-09
7.67039e-09
-3.07474e-09
-2.75889e-09
4.75489e-09
-2.73542e-09
-3.22241e-09
1.66779e-09
-2.2782e-09
-3.39496e-09
-8.50052e-10
-1.83882e-09
-3.21242e-09
-2.39026e-09
-1.5267e-09
-2.49844e-09
-3.1433e-09
-1.29904e-09
-1.20915e-09
-3.24302e-09
-1.12607e-09
3.93306e-10
-2.95555e-09
-9.73239e-10
1.7297e-09
-2.17772e-09
-7.98204e-10
2.31154e-09
-6.7745e-10
-6.69326e-10
2.19862e-09
1.37755e-09
-6.74776e-10
2.10182e-09
3.054e-09
-3.02462e-10
1.42741e-09
3.84304e-09
4.251e-10
4.35466e-09
-2.01176e-10
1.60132e-09
-1.69408e-08
1.60132e-09
-5.16203e-09
1.27124e-09
-7.72898e-10
-9.93903e-09
1.45065e-09
-1.55627e-09
-1.31161e-08
2.46223e-09
-2.50687e-09
-1.47086e-08
3.26948e-09
-3.12615e-09
-1.44892e-08
2.98954e-09
-3.32956e-09
-1.24269e-08
1.71011e-09
-3.14276e-09
-9.19541e-09
6.05871e-11
-2.74639e-09
-5.64449e-09
-9.73397e-10
-2.1853e-09
-2.4935e-09
-6.78713e-10
-1.76437e-09
-1.67646e-10
1.2618e-09
-1.5696e-09
1.29151e-09
4.338e-09
-1.67087e-09
2.14411e-09
7.80502e-09
-1.91484e-09
2.60505e-09
1.05461e-08
-2.08325e-09
2.80846e-09
1.17986e-08
-2.01626e-09
2.76491e-09
1.13296e-08
-1.71057e-09
2.33454e-09
9.31951e-09
-1.19464e-09
1.39915e-09
6.32967e-09
-6.15602e-10
6.20363e-11
3.25866e-09
-2.31063e-10
-1.43703e-09
7.74404e-10
-1.04524e-10
-2.54929e-09
-9.78559e-10
-2.80841e-10
-2.93957e-09
-2.06101e-09
-6.75788e-10
-2.48979e-09
-2.57128e-09
-1.1077e-09
-1.57863e-09
-2.38604e-09
-1.46952e-09
-6.59649e-10
-1.30518e-09
-1.7834e-09
-8.11541e-11
8.20189e-10
-2.07105e-09
2.7461e-10
3.15019e-09
-2.12569e-09
3.81248e-10
4.83246e-09
-1.88391e-09
-2.881e-10
6.60143e-09
-2.08861e-09
6.86199e-09
-2.79482e-09
-1.99432e-09
-1.29458e-08
-1.99432e-09
-7.07996e-09
1.01516e-08
-3.7754e-09
-1.0083e-08
8.29881e-09
-3.82901e-09
-1.15305e-08
7.84293e-09
-3.91687e-09
-1.14015e-08
6.65312e-09
-3.49568e-09
-9.86437e-09
4.26685e-09
-2.79632e-09
-7.55117e-09
1.28302e-09
-1.86681e-09
-5.18952e-09
-1.32561e-09
-9.54555e-10
-3.22224e-09
-2.66176e-09
-2.5602e-10
-1.86206e-09
-2.0429e-09
2.92041e-11
-9.44895e-10
4.5205e-10
-7.97755e-11
5.65419e-11
3.82133e-09
-4.54982e-10
1.40392e-09
7.32253e-09
-8.33431e-10
3.02548e-09
9.8491e-09
-8.91802e-10
4.51733e-09
1.09329e-08
-5.92343e-10
5.36048e-09
1.05165e-08
4.5117e-12
5.21573e-09
8.8747e-09
6.24409e-10
3.88875e-09
6.62561e-09
1.06532e-09
1.69141e-09
4.3338e-09
1.1551e-09
-6.76176e-10
2.29392e-09
8.79092e-10
-2.50739e-09
5.23933e-10
3.57564e-10
-3.43057e-09
-1.04231e-09
-6.92082e-11
-3.5318e-09
-2.03051e-09
-4.16299e-10
-3.2787e-09
-1.94157e-09
-6.77951e-10
-3.06476e-09
-5.46143e-10
-9.5708e-10
-2.84342e-09
1.7925e-09
-1.1808e-09
-2.46509e-09
4.01935e-09
-1.23682e-09
-2.29746e-09
6.10596e-09
-1.43193e-09
-1.82757e-09
8.11298e-09
-1.97314e-09
5.94915e-09
-9.0715e-10
-4.19966e-09
-4.53618e-09
-4.19966e-09
-6.02191e-09
1.62631e-08
-4.2574e-09
-6.53141e-09
1.24961e-08
-3.66105e-09
-5.93588e-09
1.03208e-08
-3.04677e-09
-4.46218e-09
7.27512e-09
-2.0687e-09
-2.67309e-09
3.48605e-09
-9.80515e-10
-1.23398e-09
-1.32419e-10
5.31213e-12
-6.80011e-10
-2.4509e-09
6.02158e-10
-8.97037e-10
-3.20842e-09
7.97029e-10
-1.51402e-09
-1.86841e-09
4.78699e-10
-1.7114e-09
8.03011e-10
-1.14357e-10
-9.61776e-10
3.81595e-09
-7.02314e-10
8.16511e-10
6.46064e-09
-8.7208e-10
3.08019e-09
8.28156e-09
-6.49736e-10
5.08368e-09
9.06608e-09
-8.85892e-11
6.08348e-09
9.01065e-09
5.55101e-10
5.7247e-09
8.30055e-09
9.82104e-10
4.12444e-09
7.14585e-09
1.12852e-09
1.89746e-09
5.59908e-09
1.00907e-09
-1.99203e-10
3.66362e-09
7.72878e-10
-1.60946e-09
1.39747e-09
5.80708e-10
-2.35374e-09
-8.81856e-10
6.25071e-10
-2.86834e-09
-2.38644e-09
9.08291e-10
-3.47139e-09
-2.49201e-09
1.18749e-09
-4.10715e-09
-1.1709e-09
1.29126e-09
-4.33304e-09
6.60936e-10
1.38563e-09
-4.0525e-09
2.31002e-09
1.45484e-09
-3.32946e-09
3.91647e-09
1.49088e-09
-1.21155e-09
4.16469e-09
1.85412e-09
9.06077e-10
3.85348e-09
-3.74339e-09
2.96791e-09
-3.74339e-09
-2.61735e-09
1.79876e-08
-2.79898e-09
-1.4465e-09
1.35874e-08
-2.21854e-09
1.64112e-10
1.02997e-08
-1.54659e-09
1.82319e-09
6.45543e-09
-7.96593e-10
2.96866e-09
2.5307e-09
-1.46786e-10
3.09752e-09
-4.22612e-10
2.05955e-10
2.13784e-09
-1.68363e-09
2.39052e-10
4.86355e-10
-1.36787e-09
-1.39678e-10
-9.45911e-10
1.99764e-10
-5.83424e-10
-1.41635e-09
2.24679e-09
-9.17694e-10
-5.88703e-10
3.94211e-09
-8.9512e-10
1.17898e-09
5.29466e-09
-5.4014e-10
3.14083e-09
6.21725e-09
1.66585e-10
4.55199e-09
6.96193e-09
7.5902e-10
4.93691e-09
7.57541e-09
1.1174e-09
4.31258e-09
7.83236e-09
1.15994e-09
3.06433e-09
7.45932e-09
1.00217e-09
1.75434e-09
6.19151e-09
7.84732e-10
7.70045e-10
3.95472e-09
7.59718e-10
1.19568e-10
1.17175e-09
9.41228e-10
-6.52457e-10
-1.34941e-09
1.30221e-09
-1.83944e-09
-2.72403e-09
1.58445e-09
-3.25957e-09
-2.66627e-09
1.65178e-09
-4.33087e-09
-1.6478e-09
1.60354e-09
-4.35499e-09
-1.01371e-09
1.75221e-09
-3.51152e-09
-6.04033e-10
2.12225e-09
-1.71516e-09
-5.31296e-10
2.70214e-09
6.0689e-11
-1.27983e-09
3.71997e-09
-1.82947e-09
2.8436e-09
-2.35042e-09
7.69732e-09
-2.35042e-09
1.27382e-10
1.70471e-08
-1.45674e-09
2.21399e-09
1.28844e-08
-1.31484e-09
3.99279e-09
9.57274e-09
-9.84361e-10
5.44632e-09
5.73212e-09
-6.63238e-10
6.00262e-09
2.43626e-09
-3.94689e-10
5.47971e-09
4.05436e-10
-2.37017e-10
4.14258e-09
-1.17985e-10
-1.58912e-10
2.51247e-09
4.51786e-10
-1.17883e-10
1.25777e-09
1.48117e-09
4.72744e-11
8.90162e-10
2.29179e-09
3.99098e-10
1.34498e-09
2.56166e-09
1.00479e-09
2.09882e-09
2.93566e-09
1.68714e-09
2.57638e-09
3.55423e-09
2.27006e-09
2.54157e-09
4.62444e-09
2.45897e-09
2.07523e-09
5.92197e-09
2.20804e-09
1.52827e-09
6.75035e-09
1.7186e-09
1.21514e-09
6.55096e-09
1.31247e-09
1.12542e-09
5.22046e-09
1.15287e-09
1.00373e-09
2.9866e-09
1.18229e-09
3.15586e-10
6.24257e-10
1.32771e-09
-1.26285e-09
-9.204e-10
1.24082e-09
-3.31107e-09
-1.28147e-09
6.96651e-10
-4.89526e-09
-8.75977e-10
-1.15134e-10
-5.19797e-09
-6.21693e-10
-6.32524e-10
-4.30485e-09
-1.20635e-09
-6.09796e-10
-2.84696e-09
-1.58624e-09
-3.84637e-10
-1.42051e-09
-1.54895e-09
-3.1629e-10
-8.44255e-10
-1.04273e-09
-7.18125e-10
3.62963e-10
-2.94954e-09
-1.28648e-09
1.03156e-08
-1.28648e-09
1.74062e-09
1.49771e-08
-8.36445e-10
4.097e-09
1.14489e-08
-8.16336e-10
6.15606e-09
8.10564e-09
-4.89325e-10
7.65497e-09
4.35838e-09
-2.36613e-11
8.24167e-09
1.50275e-09
4.4732e-10
7.87846e-09
-3.98345e-14
8.68555e-10
6.86681e-09
-2.52086e-10
1.24505e-09
5.69217e-09
6.64068e-11
1.65913e-09
4.77218e-09
2.7456e-10
2.22588e-09
4.04048e-09
1.95782e-10
2.92768e-09
3.14838e-09
-2.04681e-10
3.75977e-09
1.78362e-09
2.21625e-10
4.1821e-09
1.68871e-10
1.38665e-09
3.88778e-09
-1.28723e-09
3.11491e-09
3.0733e-09
-1.97737e-09
4.64879e-09
2.07338e-09
-1.77092e-09
5.34863e-09
1.30804e-09
-1.00863e-09
4.89815e-09
1.00606e-09
-3.65453e-10
3.69605e-09
9.99201e-10
-6.32196e-10
2.31092e-09
1.06247e-09
-2.19329e-09
1.38984e-09
9.17787e-10
-4.5183e-09
1.31315e-09
2.16701e-10
-6.53082e-09
1.74319e-09
-8.8313e-10
-7.14854e-09
1.38667e-09
-1.51196e-09
-6.02548e-09
-1.43757e-10
-1.4641e-09
-4.2941e-09
-1.51847e-09
-1.27797e-09
-2.90074e-09
-1.43377e-09
-1.39927e-09
-2.3302e-09
8.31099e-11
-2.05044e-09
-2.51688e-09
2.8563e-09
-3.55447e-09
1.36855e-09
-3.37902e-09
-4.06036e-10
1.11965e-08
-4.06036e-10
3.0055e-09
1.15136e-08
2.24676e-10
5.75409e-09
8.34127e-09
5.1057e-10
8.08987e-09
4.79052e-09
1.12804e-09
9.62615e-09
1.23141e-09
1.73664e-09
1.02507e-08
-1.24169e-09
2.26213e-09
1.00872e-08
-2.38512e-09
2.68659e-09
9.38968e-09
-2.51492e-09
3.09394e-09
8.41436e-09
-2.41137e-09
3.58234e-09
7.17123e-09
-2.38648e-09
4.02974e-09
5.26006e-09
-2.14909e-09
4.37887e-09
2.44513e-09
-1.39955e-09
4.13104e-09
-6.85693e-10
1.75703e-10
3.29755e-09
-3.39301e-09
2.14083e-09
2.07439e-09
-4.99551e-09
4.07291e-09
7.67184e-10
-5.04066e-09
4.69875e-09
1.20318e-10
-3.86669e-09
4.39673e-09
-9.37278e-11
-2.65214e-09
3.71994e-09
9.57161e-11
-2.4399e-09
3.22451e-09
3.95619e-10
-3.65749e-09
3.35281e-09
3.17359e-10
-5.73036e-09
3.94075e-09
-3.29286e-10
-7.64167e-09
4.47755e-09
-1.09541e-09
-8.08351e-09
3.61704e-09
-1.26421e-09
-6.83478e-09
1.05203e-09
-7.3546e-10
-5.08577e-09
-1.97068e-09
2.68186e-10
-3.97167e-09
-3.11591e-09
6.86155e-10
-3.50287e-09
-2.12012e-09
4.3293e-10
-3.17422e-09
1.89149e-10
-2.07792e-10
-1.94584e-09
2.60457e-09
-7.39412e-10
-8.80064e-10
5.16474e-10
1.0769e-09
9.14225e-09
1.0769e-09
4.91475e-09
5.96891e-09
1.93993e-09
7.77125e-09
3.25152e-09
2.44006e-09
9.87611e-09
-1.56756e-10
3.04453e-09
1.08965e-08
-3.15598e-09
3.56326e-09
1.09107e-08
-4.92442e-09
3.85656e-09
1.0303e-08
-5.39466e-09
3.79564e-09
9.48708e-09
-5.14787e-09
3.61677e-09
8.31107e-09
-4.5123e-09
3.43426e-09
6.4032e-09
-3.51341e-09
3.1822e-09
3.51476e-09
-1.88236e-09
2.76026e-09
-3.21317e-11
4.36883e-10
1.84171e-09
-3.51243e-09
3.11492e-09
6.66814e-10
-5.73203e-09
4.71025e-09
-2.27669e-10
-6.11889e-09
5.02331e-09
-4.42793e-10
-5.11681e-09
4.08566e-09
-2.67471e-10
-3.89297e-09
2.92679e-09
3.70295e-10
-3.69787e-09
2.90422e-09
7.49493e-10
-4.89302e-09
3.8195e-09
7.36315e-10
-6.93508e-09
5.47966e-09
6.18867e-11
-8.55906e-09
6.50822e-09
-7.82853e-10
-8.62207e-09
5.68961e-09
-9.71532e-10
-7.03921e-09
2.44548e-09
-2.14597e-10
-4.99118e-09
-1.86755e-09
1.08942e-09
-4.11216e-09
-4.54069e-09
1.93177e-09
-4.19988e-09
-4.49953e-09
1.73545e-09
-4.12213e-09
-3.23016e-09
1.31847e-09
-3.18933e-09
-1.97803e-09
1.54029e-09
-9.75725e-10
-1.30004e-09
2.01351e-09
-3.33905e-09
1.76985e-09
2.77955e-09
3.71871e-09
2.77955e-09
6.57565e-09
-1.24118e-09
3.70719e-09
9.08592e-09
-3.19453e-09
4.19783e-09
1.03083e-08
-5.54932e-09
4.42473e-09
1.02846e-08
-7.17941e-09
4.29136e-09
9.50551e-09
-7.66187e-09
3.74638e-09
8.58774e-09
-7.37881e-09
3.11486e-09
7.70387e-09
-6.64366e-09
2.57389e-09
6.48588e-09
-5.39494e-09
2.27536e-09
4.43139e-09
-3.29609e-09
1.99258e-09
1.53956e-09
-4.3138e-10
1.57789e-09
-1.55637e-09
2.69679e-09
9.56657e-10
-3.74539e-09
4.68907e-09
7.21822e-10
-4.49079e-09
4.73234e-09
8.19984e-10
-3.92233e-09
3.13029e-09
1.41478e-09
-3.2164e-09
1.28292e-09
2.18442e-09
-3.59364e-09
4.9194e-10
2.90103e-09
-5.38798e-09
1.92379e-09
2.86952e-09
-7.89351e-09
4.4591e-09
1.97162e-09
-9.67428e-09
6.56017e-09
8.22279e-10
-9.84343e-09
6.29808e-09
5.22711e-10
-8.02557e-09
3.01341e-09
1.02779e-09
-5.77731e-09
-1.75373e-09
2.15062e-09
-4.95005e-09
-5.29286e-09
2.83151e-09
-5.5869e-09
-6.12707e-09
2.49261e-09
-6.13075e-09
-5.04341e-09
1.3929e-09
-5.51849e-09
-4.58963e-09
1.08618e-09
-3.75745e-09
-4.6648e-09
1.29445e-09
-1.40081e-09
-4.49779e-09
1.23263e-09
-5.90029e-09
1.5021e-09
4.20935e-09
-4.52889e-09
4.20935e-09
7.13931e-09
-8.46183e-09
4.62914e-09
8.96825e-09
-9.37488e-09
4.65528e-09
9.38051e-09
-1.00708e-08
4.40203e-09
8.7613e-09
-1.01258e-08
3.84259e-09
7.839e-09
-9.66182e-09
3.17774e-09
7.05869e-09
-9.06342e-09
2.69458e-09
6.30441e-09
-8.24476e-09
2.55601e-09
5.13024e-09
-6.61449e-09
2.56347e-09
3.22093e-09
-3.75158e-09
2.50315e-09
9.06044e-10
-2.82481e-10
2.27396e-09
-9.25992e-10
2.51678e-09
2.09228e-09
-1.60557e-09
3.17516e-09
2.24996e-09
-1.22676e-09
1.53776e-09
2.85343e-09
-9.28777e-10
-7.63413e-10
3.62013e-09
-1.97724e-09
-1.92545e-09
4.27389e-09
-4.50064e-09
-8.18399e-10
3.8498e-09
-7.50742e-09
2.0747e-09
2.87794e-09
-9.74676e-09
4.95885e-09
1.77506e-09
-1.00756e-08
5.28017e-09
1.66508e-09
-8.47621e-09
2.29772e-09
2.48509e-09
-6.5286e-09
-2.49953e-09
3.68435e-09
-6.1559e-09
-6.63181e-09
4.66555e-09
-7.6163e-09
-7.90084e-09
4.27447e-09
-8.97493e-09
-7.55206e-09
3.03807e-09
-8.88715e-09
-7.27874e-09
2.45031e-09
-7.5873e-09
-7.77668e-09
2.23543e-09
-5.19868e-09
-8.7146e-09
2.04775e-09
-1.58177e-09
-1.02877e-08
2.58611e-09
-1.17629e-08
4.63204e-09
4.60209e-09
-1.35359e-08
4.60209e-09
6.88835e-09
-1.51412e-08
4.7441e-09
8.31113e-09
-1.50939e-08
4.61206e-09
8.53373e-09
-1.42338e-08
4.24116e-09
7.99893e-09
-1.30579e-08
3.74604e-09
7.33189e-09
-1.20728e-08
3.32792e-09
6.65076e-09
-1.13651e-08
3.19736e-09
5.71523e-09
-1.03522e-08
3.21777e-09
4.17325e-09
-8.06179e-09
3.12144e-09
2.30928e-09
-4.58343e-09
2.78467e-09
8.20867e-10
-1.11646e-09
2.36948e-09
3.51832e-10
7.73903e-10
2.22065e-09
8.1103e-10
1.77866e-10
2.51344e-09
1.06941e-09
-1.86321e-09
3.0906e-09
-4.14433e-11
-3.23401e-09
3.50903e-09
-2.63511e-09
-2.41725e-09
3.0002e-09
-5.81737e-09
2.30065e-10
2.04395e-09
-8.03792e-09
2.90026e-09
1.30942e-09
-8.27534e-09
3.49234e-09
1.63183e-09
-6.74362e-09
9.4545e-10
2.75373e-09
-5.22023e-09
-3.53495e-09
4.29221e-09
-5.55089e-09
-7.60144e-09
5.45652e-09
-7.96815e-09
-9.39777e-09
5.25557e-09
-1.05579e-08
-9.16224e-09
3.97704e-09
-1.12983e-08
-1.01144e-08
3.48489e-09
-1.01947e-08
-1.22747e-08
4.13016e-09
-8.69935e-09
-1.31267e-08
4.14339e-09
-5.07437e-09
-1.55579e-08
3.54737e-09
-1.28518e-10
-2.0436e-08
5.55631e-09
-1.84307e-08
6.82427e-09
4.66381e-09
-2.26609e-08
4.66381e-09
6.63054e-09
-2.14702e-08
4.67675e-09
7.9448e-09
-2.04709e-08
4.34528e-09
8.42821e-09
-1.82953e-08
3.84176e-09
8.32531e-09
-1.61826e-08
3.46417e-09
7.96126e-09
-1.46462e-08
3.13824e-09
7.14259e-09
-1.33833e-08
2.99503e-09
5.61746e-09
-1.14882e-08
2.77151e-09
3.73215e-09
-8.38841e-09
2.27217e-09
1.94539e-09
-4.55893e-09
1.77221e-09
1.36588e-09
-2.23041e-09
1.65529e-09
1.85847e-09
-1.86463e-09
2.06354e-09
2.47618e-09
-3.28015e-09
2.71889e-09
1.99586e-09
-4.75862e-09
3.2217e-09
-1.36141e-10
-4.48794e-09
3.20667e-09
-3.03194e-09
-2.47136e-09
2.75365e-09
-5.18211e-09
-1.72957e-10
2.34893e-09
-5.532e-09
3.84838e-10
2.66267e-09
-4.31475e-09
-1.57632e-09
3.66056e-09
-3.45847e-09
-5.02119e-09
4.9417e-09
-4.47717e-09
-8.22997e-09
5.5772e-09
-7.30129e-09
-9.91347e-09
5.0403e-09
-1.053e-08
-1.01123e-08
3.89468e-09
-1.22487e-08
-1.0401e-08
2.9602e-09
-1.15798e-08
-1.37439e-08
3.01633e-09
-9.78531e-09
-1.78657e-08
3.90226e-09
-7.70256e-09
-1.94231e-08
4.36227e-09
-3.93701e-09
-2.3891e-08
4.74677e-09
-6.61185e-10
-2.88526e-08
5.33339e-09
-2.08779e-08
1.91259e-09
4.28605e-09
-3.10553e-08
4.28605e-09
6.2569e-09
-2.72075e-08
3.98624e-09
7.82221e-09
-2.52805e-08
3.43971e-09
8.90044e-09
-2.2133e-08
2.93335e-09
9.56613e-09
-1.92749e-08
2.57055e-09
9.56004e-09
-1.70398e-08
2.50591e-09
8.6262e-09
-1.48695e-08
2.48248e-09
6.75718e-09
-1.19598e-08
2.35574e-09
4.82178e-09
-8.59526e-09
2.10879e-09
3.84338e-09
-5.82375e-09
2.16227e-09
3.88506e-09
-5.09712e-09
2.69918e-09
4.53928e-09
-6.2246e-09
3.53885e-09
4.5615e-09
-7.83462e-09