/*--------------------------------*- C++ -*----------------------------------*\
| =========                 |                                                 |
| \\      /  F ield         | OpenFOAM: The Open Source CFD Toolbox           |
|  \\    /   O peration     | Version:  2312                                  |
|   \\  /    A nd           | Website:  www.openfoam.com                      |
|    \\/     M anipulation  |                                                 |
\*---------------------------------------------------------------------------*/
FoamFile
{
    version     2.0;
    format      ascii;
    arch        "LSB;label=32;scalar=64";
    class       volVectorField;
    location    "1.2036445";
    object      U;
}
// * * * * * * * * * * * * * * * * * * * * * * * * * * * * * * * * * * * * * //

dimensions      [0 1 -1 0 0 0 0];

internalField   nonuniform List<vector> 
90000
(
(-2.08403e-05 2.87265e-05 -2.08403e-05)
(-1.213e-05 -5.72875e-06 -1.42716e-05)
(1.30605e-05 3.09347e-06 -1.26244e-05)
(1.37996e-05 3.15248e-06 -1.15959e-05)
(2.09163e-05 1.56882e-06 -9.45768e-06)
(2.60244e-05 -1.01698e-06 -7.21217e-06)
(3.1346e-05 -3.51725e-06 -4.65574e-06)
(3.62749e-05 -4.82868e-06 -1.98737e-06)
(3.89531e-05 -4.38284e-06 9.34674e-08)
(3.74195e-05 -2.00946e-06 1.08553e-06)
(3.12377e-05 1.76667e-06 6.39307e-07)
(2.11435e-05 5.8645e-06 -6.02523e-07)
(8.74686e-06 9.10298e-06 -2.7315e-06)
(-2.7245e-06 1.03797e-05 -5.20368e-06)
(-9.92052e-06 9.40234e-06 -7.32098e-06)
(-1.07506e-05 6.65811e-06 -8.51984e-06)
(-4.53625e-06 2.64535e-06 -8.13508e-06)
(5.72355e-06 -1.59449e-06 -6.19601e-06)
(1.48177e-05 -3.85989e-06 -2.57558e-06)
(1.81833e-05 -2.78556e-06 1.41552e-06)
(1.25602e-05 1.2394e-06 4.02125e-06)
(-3.89184e-06 7.10408e-06 4.44749e-06)
(-3.03723e-05 1.26101e-05 2.38078e-06)
(-6.02172e-05 1.53987e-05 -2.39601e-06)
(-8.39361e-05 1.2612e-05 -8.66927e-06)
(-9.07626e-05 3.97104e-06 -1.50054e-05)
(-6.97378e-05 -9.75719e-06 -2.33799e-05)
(-3.1857e-05 -1.86231e-05 -4.61742e-05)
(0.00010057 -1.11093e-05 -9.8056e-05)
(0.000107786 0.000208923 -0.000219957)
(1.24113e-06 5.13361e-05 1.24113e-06)
(1.47349e-06 -1.17091e-05 1.02273e-06)
(2.73027e-08 3.54022e-06 6.23653e-07)
(-3.43635e-07 3.33852e-06 -1.2051e-07)
(1.38488e-07 -7.20634e-07 -5.61709e-07)
(2.06354e-06 -6.0892e-06 -1.01957e-06)
(5.64503e-06 -1.09418e-05 -1.53067e-06)
(1.05747e-05 -1.3397e-05 -2.00801e-06)
(1.62001e-05 -1.22284e-05 -2.34151e-06)
(2.16484e-05 -7.22587e-06 -2.18556e-06)
(2.60342e-05 3.34292e-07 -1.2183e-06)
(2.89489e-05 7.92373e-06 2.04585e-07)
(3.02953e-05 1.31066e-05 2.14153e-06)
(2.98824e-05 1.42497e-05 4.871e-06)
(2.74401e-05 1.10876e-05 7.68352e-06)
(2.24143e-05 4.44606e-06 9.83054e-06)
(1.48794e-05 -3.15103e-06 1.09201e-05)
(6.14557e-06 -9.27798e-06 1.05885e-05)
(-2.73882e-06 -1.07743e-05 8.58596e-06)
(-1.13454e-05 -5.89091e-06 5.73741e-06)
(-1.89829e-05 3.96566e-06 3.12334e-06)
(-2.5606e-05 1.58757e-05 1.09149e-06)
(-3.14639e-05 2.55968e-05 7.35091e-08)
(-3.49615e-05 2.73516e-05 7.51402e-07)
(-3.54227e-05 1.76523e-05 3.61942e-06)
(-3.43611e-05 -3.48019e-06 1.09768e-05)
(-3.20189e-05 -3.68272e-05 2.32557e-05)
(-5.6014e-05 -8.93147e-05 4.95492e-05)
(5.36052e-05 -0.00013673 6.45033e-05)
(9.71025e-05 0.000425991 4.57124e-05)
(7.52762e-06 3.71876e-05 7.52762e-06)
(4.22679e-06 -6.21367e-06 4.34045e-06)
(-8.68576e-06 5.24841e-06 3.3844e-06)
(-1.30763e-05 4.33193e-06 2.10399e-06)
(-1.71763e-05 -8.67216e-07 7.40931e-07)
(-1.95559e-05 -7.07952e-06 -8.72834e-07)
(-1.89931e-05 -1.29272e-05 -2.67726e-06)
(-1.47464e-05 -1.6635e-05 -4.29254e-06)
(-6.60751e-06 -1.70058e-05 -5.26845e-06)
(5.22946e-06 -1.38183e-05 -5.30187e-06)
(1.95166e-05 -8.42667e-06 -4.13435e-06)
(3.39932e-05 -2.89515e-06 -1.49651e-06)
(4.58579e-05 1.13322e-06 2.41919e-06)
(5.19083e-05 2.40666e-06 6.00768e-06)
(4.95146e-05 1.12754e-06 9.31959e-06)
(3.83672e-05 -1.89355e-06 1.12938e-05)
(2.0323e-05 -4.71545e-06 1.10117e-05)
(-1.32444e-06 -5.87853e-06 8.45928e-06)
(-2.10638e-05 -4.05398e-06 4.49152e-06)
(-3.37777e-05 1.24713e-06 -3.14818e-07)
(-3.71473e-05 9.0782e-06 -4.27033e-06)
(-3.02842e-05 1.70125e-05 -5.70223e-06)
(-1.44727e-05 2.15932e-05 -4.99109e-06)
(5.63181e-06 1.73729e-05 -2.44934e-06)
(2.49737e-05 3.74159e-06 5.45009e-07)
(3.97191e-05 -1.56693e-05 2.33196e-06)
(4.29656e-05 -3.70783e-05 9.2838e-06)
(-1.39346e-05 -0.000119831 3.19624e-05)
(-5.02107e-05 -0.000306671 7.90674e-05)
(-1.47974e-05 0.000348935 0.000122042)
(9.01949e-06 1.81426e-05 9.01949e-06)
(4.67132e-06 4.41869e-06 5.62586e-06)
(-1.15065e-05 1.16952e-05 4.77906e-06)
(-1.77349e-05 1.06387e-05 3.56366e-06)
(-2.40568e-05 5.91544e-06 1.97615e-06)
(-2.8993e-05 -7.25913e-07 -3.63694e-08)
(-3.11771e-05 -7.98754e-06 -2.06163e-06)
(-2.92178e-05 -1.41836e-05 -4.01041e-06)
(-2.23914e-05 -1.83987e-05 -5.34195e-06)
(-1.05639e-05 -2.00025e-05 -5.83986e-06)
(5.09304e-06 -1.9285e-05 -5.29402e-06)
(2.19628e-05 -1.6761e-05 -3.72175e-06)
(3.61522e-05 -1.24225e-05 -1.23023e-06)
(4.40505e-05 -6.73564e-06 1.51643e-06)
(4.32917e-05 -2.70709e-07 2.85027e-06)
(3.32626e-05 6.65763e-06 2.715e-06)
(1.59791e-05 1.25058e-05 1.11905e-06)
(-4.47259e-06 1.6328e-05 -1.53925e-06)
(-2.21928e-05 1.76618e-05 -4.39017e-06)
(-3.13435e-05 1.68177e-05 -6.68974e-06)
(-2.86654e-05 1.46856e-05 -8.09171e-06)
(-1.31451e-05 1.22881e-05 -8.14362e-06)
(1.18966e-05 8.45503e-06 -6.40171e-06)
(3.86837e-05 8.72586e-07 -3.14638e-06)
(5.99288e-05 -1.05872e-05 1.5288e-06)
(7.47019e-05 -2.26389e-05 2.36536e-06)
(9.27264e-05 -2.1262e-05 -1.06089e-05)
(9.43091e-05 -2.98552e-05 -1.54801e-05)
(-4.29244e-05 -0.000265272 -2.54203e-06)
(-8.61524e-05 0.000183741 5.19236e-05)
(8.97896e-06 -3.09744e-06 8.97895e-06)
(5.94318e-06 1.26742e-05 6.33318e-06)
(-7.91643e-06 1.58385e-05 5.99696e-06)
(-1.29358e-05 1.48544e-05 5.22474e-06)
(-1.89812e-05 1.16046e-05 4.1996e-06)
(-2.44021e-05 5.65143e-06 2.84522e-06)
(-2.8258e-05 -2.16934e-06 1.4019e-06)
(-2.98873e-05 -1.04523e-05 2.02428e-07)
(-2.83446e-05 -1.78237e-05 -1.31967e-06)
(-2.29355e-05 -2.36828e-05 -2.35889e-06)
(-1.44232e-05 -2.68576e-05 -3.09477e-06)
(-4.24771e-06 -2.61673e-05 -3.53865e-06)
(5.37063e-06 -2.08485e-05 -3.95574e-06)
(1.22656e-05 -1.0262e-05 -4.42082e-06)
(1.52036e-05 4.19319e-06 -5.31761e-06)
(1.32255e-05 1.96816e-05 -6.27061e-06)
(6.83726e-06 3.22204e-05 -6.90602e-06)
(-1.49291e-06 3.87869e-05 -7.32859e-06)
(-7.87174e-06 3.73508e-05 -7.6906e-06)
(-8.48649e-06 2.90838e-05 -7.66464e-06)
(-7.1776e-07 1.71557e-05 -7.1895e-06)
(1.50254e-05 5.16023e-06 -6.23544e-06)
(3.51531e-05 -4.75813e-06 -4.88774e-06)
(5.48565e-05 -1.19204e-05 -3.03613e-06)
(6.77376e-05 -1.64823e-05 4.798e-08)
(6.82589e-05 -2.34004e-05 5.038e-06)
(6.23501e-05 -2.20058e-05 2.54097e-06)
(7.62718e-05 4.14631e-05 -7.62887e-06)
(-1.38186e-05 -0.00010088 -1.64562e-05)
(-6.12358e-05 9.63153e-05 2.3322e-06)
(5.6976e-06 -2.3505e-05 5.6976e-06)
(6.4496e-06 1.5186e-05 4.82515e-06)
(1.28215e-06 1.45214e-05 5.16006e-06)
(1.49643e-07 1.36872e-05 5.36239e-06)
(-1.92742e-06 1.20688e-05 5.58115e-06)
(-5.16942e-06 7.75264e-06 5.59796e-06)
(-9.57453e-06 8.05797e-07 5.4015e-06)
(-1.49377e-05 -7.71349e-06 5.24759e-06)
(-2.09377e-05 -1.61295e-05 4.90674e-06)
(-2.67894e-05 -2.36103e-05 3.8134e-06)
(-3.12255e-05 -2.83777e-05 1.7697e-06)
(-3.33648e-05 -2.86643e-05 -9.21588e-07)
(-3.25139e-05 -2.30009e-05 -3.89391e-06)
(-2.80947e-05 -1.07274e-05 -6.79747e-06)
(-2.04896e-05 6.78605e-06 -9.05527e-06)
(-1.10116e-05 2.56688e-05 -1.03363e-05)
(-1.0025e-06 4.08329e-05 -1.00022e-05)
(8.0185e-06 4.76766e-05 -8.45502e-06)
(1.5805e-05 4.36528e-05 -6.17282e-06)
(2.31459e-05 3.09537e-05 -3.75552e-06)
(3.04979e-05 1.45087e-05 -1.90832e-06)
(3.82505e-05 -9.766e-07 -7.20749e-07)
(4.58611e-05 -1.13523e-05 -4.07037e-07)
(5.16354e-05 -1.43938e-05 -1.12161e-06)
(5.36912e-05 -9.4111e-06 -3.08069e-06)
(4.72744e-05 -1.7846e-06 -4.62336e-06)
(1.47297e-05 1.17686e-06 -4.17509e-06)
(1.85308e-05 6.38434e-05 -1.48579e-05)
(-1.49526e-05 1.0307e-05 -2.73551e-05)
(-4.01184e-05 8.12195e-05 -1.86505e-05)
(-1.27672e-06 -3.42552e-05 -1.27672e-06)
(3.16282e-06 1.05008e-05 1.02472e-07)
(1.17753e-05 7.10146e-06 9.32553e-07)
(1.77443e-05 6.58721e-06 1.59955e-06)
(2.26604e-05 6.47807e-06 3.10737e-06)
(2.42563e-05 4.44211e-06 4.89938e-06)
(2.10699e-05 2.20335e-07 6.61872e-06)
(1.25049e-05 -5.54509e-06 7.95053e-06)
(-1.01994e-06 -1.19126e-05 8.56598e-06)
(-1.81791e-05 -1.78345e-05 7.98122e-06)
(-3.64178e-05 -2.18636e-05 6.24902e-06)
(-5.1754e-05 -2.30058e-05 2.57018e-06)
(-6.01445e-05 -1.96327e-05 -1.84814e-06)
(-5.91504e-05 -1.10298e-05 -5.75689e-06)
(-4.85425e-05 2.17943e-06 -8.20996e-06)
(-3.02307e-05 1.71905e-05 -8.63988e-06)
(-7.56575e-06 2.9607e-05 -7.19027e-06)
(1.4644e-05 3.51272e-05 -4.11872e-06)
(3.26431e-05 3.15533e-05 5.76509e-08)
(4.45355e-05 2.06064e-05 3.63726e-06)
(4.95224e-05 6.36129e-06 5.92338e-06)
(4.84408e-05 -6.12724e-06 6.75273e-06)
(4.2825e-05 -1.18606e-05 6.28874e-06)
(3.32308e-05 -8.62333e-06 4.72564e-06)
(2.0761e-05 4.12729e-06 1.16137e-06)
(7.99254e-06 2.77009e-05 -4.61254e-06)
(-1.69549e-05 4.44923e-05 -9.43926e-06)
(-2.52272e-05 9.23924e-05 -1.66248e-05)
(-2.82896e-05 7.37646e-05 -2.24863e-05)
(-2.15657e-05 7.16775e-05 -1.42628e-05)
(-1.12713e-05 -2.66358e-05 -1.12713e-05)
(-4.31954e-06 -1.26146e-06 -8.29809e-06)
(1.97066e-05 -4.0776e-06 -7.14912e-06)
(3.3404e-05 -3.81613e-06 -5.81347e-06)
(4.63993e-05 -2.22297e-06 -3.36191e-06)
(5.39789e-05 -7.53561e-07 -3.34623e-07)
(5.36706e-05 2.54538e-07 2.99056e-06)
(4.41823e-05 3.16516e-07 5.8581e-06)
(2.60297e-05 -4.12547e-07 7.62573e-06)
(1.47325e-06 -2.08543e-06 7.81472e-06)
(-2.55484e-05 -4.63848e-06 6.50806e-06)
(-4.94678e-05 -8.09671e-06 3.99624e-06)
(-6.50295e-05 -1.11696e-05 1.13922e-06)
(-6.88202e-05 -1.18574e-05 -1.86825e-06)
(-5.98476e-05 -9.17538e-06 -3.48668e-06)
(-4.03346e-05 -3.67635e-06 -3.12855e-06)
(-1.44367e-05 2.46518e-06 -8.55994e-07)
(1.20983e-05 6.04674e-06 2.56815e-06)
(3.36033e-05 5.24982e-06 6.23453e-06)
(4.63489e-05 -2.98401e-07 9.10802e-06)
(4.92927e-05 -8.05264e-06 1.12259e-05)
(4.37306e-05 -1.38142e-05 1.20092e-05)
(3.14388e-05 -1.26821e-05 1.14075e-05)
(1.40357e-05 -2.44869e-06 9.71328e-06)
(-6.86303e-06 1.61912e-05 6.57696e-06)
(-2.52006e-05 4.46532e-05 1.1123e-06)
(-3.96301e-05 7.04644e-05 -3.30023e-06)
(-3.9418e-05 9.62576e-05 -6.9195e-06)
(-2.13327e-05 8.41584e-05 -6.38965e-06)
(-5.46347e-06 5.06601e-05 4.59528e-06)
(-1.95622e-05 4.21126e-06 -1.95622e-05)
(-9.67693e-06 -1.65189e-05 -1.60908e-05)
(2.64953e-05 -1.55222e-05 -1.5067e-05)
(4.46286e-05 -1.41066e-05 -1.26928e-05)
(6.28683e-05 -1.0267e-05 -9.3392e-06)
(7.41361e-05 -4.31747e-06 -5.50911e-06)
(7.63294e-05 3.38839e-06 -1.73507e-06)
(6.8079e-05 1.15344e-05 1.2507e-06)
(5.01523e-05 1.81749e-05 3.61454e-06)
(2.53082e-05 2.1593e-05 5.01456e-06)
(-2.36806e-06 1.98973e-05 5.41334e-06)
(-2.75005e-05 1.2329e-05 5.04367e-06)
(-4.54591e-05 1.92864e-07 4.72576e-06)
(-5.39097e-05 -1.23797e-05 4.5619e-06)
(-5.22188e-05 -2.24736e-05 4.68177e-06)
(-4.14796e-05 -2.79584e-05 5.04039e-06)
(-2.46188e-05 -2.88149e-05 6.40171e-06)
(-5.63702e-06 -2.73628e-05 7.99886e-06)
(1.12932e-05 -2.59297e-05 9.30385e-06)
(2.29968e-05 -2.60068e-05 1.00594e-05)
(2.76861e-05 -2.62275e-05 1.02926e-05)
(2.45511e-05 -2.40052e-05 1.02906e-05)
(1.41776e-05 -1.62422e-05 9.85046e-06)
(-1.17638e-06 -4.19545e-07 8.58045e-06)
(-1.85076e-05 2.22469e-05 6.68716e-06)
(-3.18839e-05 4.72975e-05 4.51842e-06)
(-3.49584e-05 6.68795e-05 4.40744e-06)
(-2.31858e-05 6.99089e-05 7.28115e-06)
(4.09329e-07 5.03044e-05 1.32472e-05)
(7.18299e-06 2.19472e-05 1.61949e-05)
(-2.15604e-05 4.85631e-05 -2.15604e-05)
(-9.43071e-06 -3.40187e-05 -1.69859e-05)
(3.04605e-05 -2.7422e-05 -1.50006e-05)
(4.85703e-05 -2.52599e-05 -1.19479e-05)
(6.64765e-05 -1.86704e-05 -8.32152e-06)
(7.64661e-05 -7.70315e-06 -4.80745e-06)
(7.80425e-05 6.67346e-06 -1.73707e-06)
(7.16453e-05 2.25366e-05 8.43541e-07)
(5.88616e-05 3.56247e-05 2.38845e-06)
(4.18733e-05 4.27755e-05 4.05259e-06)
(2.31135e-05 4.06184e-05 5.969e-06)
(4.68502e-06 2.85388e-05 8.11094e-06)
(-1.14762e-05 8.94384e-06 1.02183e-05)
(-2.44982e-05 -1.30088e-05 1.21364e-05)
(-3.41447e-05 -3.25252e-05 1.33783e-05)
(-3.9685e-05 -4.62023e-05 1.3607e-05)
(-4.03587e-05 -5.28777e-05 1.21954e-05)
(-3.5696e-05 -5.39358e-05 9.68203e-06)
(-2.68324e-05 -5.17755e-05 6.94807e-06)
(-1.67209e-05 -4.77676e-05 4.66951e-06)
(-8.4221e-06 -4.19454e-05 3.02552e-06)
(-4.41493e-06 -3.29522e-05 1.89473e-06)
(-6.01973e-06 -1.92351e-05 7.19552e-07)
(-1.13903e-05 3.1177e-07 -1.61553e-07)
(-1.68305e-05 2.32827e-05 -4.71489e-07)
(-1.72406e-05 3.96702e-05 8.16825e-07)
(-7.614e-06 4.39264e-05 4.89834e-06)
(7.87238e-06 3.04143e-05 9.53186e-06)
(1.53678e-05 1.3069e-05 1.23309e-05)
(7.96476e-06 9.19791e-06 7.01311e-06)
(-1.01792e-05 7.91021e-05 -1.01792e-05)
(2.74361e-06 -5.75561e-05 -4.62324e-06)
(2.97247e-05 -4.43878e-05 -2.00575e-06)
(3.97949e-05 -4.03882e-05 5.01428e-07)
(4.76985e-05 -3.06857e-05 3.08921e-06)
(4.99852e-05 -1.50107e-05 4.44804e-06)
(4.83784e-05 4.81005e-06 4.56908e-06)
(4.50622e-05 2.49701e-05 3.90927e-06)
(4.18983e-05 4.12706e-05 3.75777e-06)
(3.93048e-05 4.98977e-05 4.62742e-06)
(3.60968e-05 4.71427e-05 6.7583e-06)
(3.02495e-05 3.32706e-05 9.96146e-06)
(1.96042e-05 1.17523e-05 1.32248e-05)
(3.04628e-06 -1.24633e-05 1.50392e-05)
(-1.80974e-05 -3.34395e-05 1.53954e-05)
(-3.95535e-05 -4.8826e-05 1.32888e-05)
(-5.64775e-05 -5.8031e-05 9.20211e-06)
(-6.51753e-05 -6.21624e-05 4.05265e-06)
(-6.4543e-05 -6.23067e-05 -1.05509e-06)
(-5.64328e-05 -5.8627e-05 -4.74707e-06)
(-4.43279e-05 -5.08034e-05 -7.03963e-06)
(-3.23108e-05 -3.81328e-05 -8.23317e-06)
(-2.29639e-05 -1.99237e-05 -8.81353e-06)
(-1.52333e-05 1.03351e-06 -8.48223e-06)
(-6.62242e-06 1.9521e-05 -6.66245e-06)
(5.47124e-06 2.67067e-05 -2.95267e-06)
(1.91303e-05 2.16184e-05 1.10422e-06)
(2.45207e-05 1.0683e-05 3.05678e-06)
(1.48335e-05 1.11094e-05 -8.08512e-09)
(3.28799e-06 1.86611e-05 -4.65005e-06)
(1.32346e-05 6.97117e-05 1.32346e-05)
(2.19126e-05 -8.37773e-05 1.6617e-05)
(1.73844e-05 -6.6205e-05 1.95553e-05)
(1.1733e-05 -5.83299e-05 1.90518e-05)
(1.41338e-06 -4.54955e-05 1.75641e-05)
(-7.47681e-06 -2.67616e-05 1.38255e-05)
(-1.24916e-05 -4.55095e-06 8.86191e-06)
(-1.03659e-05 1.67727e-05 4.39116e-06)
(-3.8353e-07 3.28221e-05 1.08871e-06)
(1.45601e-05 4.10385e-05 1.84387e-07)
(2.94207e-05 3.96037e-05 1.62046e-06)
(3.75387e-05 3.0433e-05 4.36707e-06)
(3.38323e-05 1.60267e-05 6.56923e-06)
(1.80677e-05 1.52577e-07 7.29326e-06)
(-7.27563e-06 -1.44639e-05 5.14531e-06)
(-3.66864e-05 -2.65185e-05 1.0225e-06)
(-6.23866e-05 -3.65935e-05 -4.00325e-06)
(-7.84157e-05 -4.53275e-05 -8.62661e-06)
(-8.21382e-05 -5.2231e-05 -1.19368e-05)
(-7.50154e-05 -5.48027e-05 -1.3685e-05)
(-6.11146e-05 -5.0624e-05 -1.40209e-05)
(-4.45111e-05 -3.94819e-05 -1.33424e-05)
(-2.73883e-05 -2.21273e-05 -1.16509e-05)
(-1.01869e-05 -4.25494e-06 -9.07685e-06)
(7.92004e-06 8.18254e-06 -5.28984e-06)
(2.45034e-05 1.15872e-05 -1.28282e-06)
(3.30631e-05 1.06808e-05 1.48443e-06)
(2.75483e-05 1.67903e-05 9.55467e-07)
(1.30331e-05 3.20448e-05 -2.2878e-06)
(2.97352e-06 2.84118e-05 1.00898e-06)
(3.85084e-05 4.10129e-06 3.85084e-05)
(3.47169e-05 -0.000101497 3.59652e-05)
(-1.20966e-05 -8.30739e-05 3.33446e-05)
(-3.34541e-05 -7.01003e-05 2.74627e-05)
(-5.99398e-05 -5.30404e-05 2.02638e-05)
(-7.75343e-05 -3.23715e-05 1.14365e-05)
(-8.28082e-05 -1.15112e-05 2.59976e-06)
(-7.34386e-05 6.79961e-06 -4.84575e-06)
(-5.05865e-05 1.95626e-05 -9.27128e-06)
(-1.97806e-05 2.60452e-05 -1.07708e-05)
(1.02631e-05 2.87384e-05 -1.02816e-05)
(2.97834e-05 3.06572e-05 -9.36244e-06)
(3.34937e-05 3.16324e-05 -8.8953e-06)
(2.2113e-05 3.18336e-05 -9.83248e-06)
(1.35831e-08 2.87496e-05 -1.19862e-05)
(-2.5864e-05 2.1504e-05 -1.43307e-05)
(-4.85801e-05 8.88718e-06 -1.62242e-05)
(-6.30124e-05 -7.98846e-06 -1.73394e-05)
(-6.72404e-05 -2.54496e-05 -1.73213e-05)
(-6.27229e-05 -3.84325e-05 -1.61533e-05)
(-5.25802e-05 -4.28365e-05 -1.40207e-05)
(-3.86229e-05 -3.84979e-05 -1.14702e-05)
(-2.14072e-05 -2.79298e-05 -8.43991e-06)
(-1.88554e-06 -1.69288e-05 -4.9643e-06)
(1.75839e-05 -9.28033e-06 -1.15155e-06)
(3.14674e-05 -3.80244e-06 2.71518e-06)
(3.42185e-05 6.87169e-06 4.77801e-06)
(2.66965e-05 2.54485e-05 5.05919e-06)
(1.87668e-05 3.87745e-05 7.05768e-06)
(8.72264e-06 2.77183e-05 1.227e-05)
(4.73175e-05 -9.56019e-05 4.73175e-05)
(2.70732e-05 -8.92045e-05 3.22472e-05)
(-5.14126e-05 -7.22224e-05 2.57813e-05)
(-8.42482e-05 -5.53701e-05 1.65319e-05)
(-0.000116593 -3.55479e-05 6.11944e-06)
(-0.000134081 -1.66712e-05 -3.74401e-06)
(-0.000133331 -2.72736e-06 -1.16545e-05)
(-0.00011396 4.65025e-06 -1.58096e-05)
(-8.04602e-05 8.87888e-06 -1.75074e-05)
(-4.15769e-05 1.28812e-05 -1.75758e-05)
(-5.7635e-06 2.21861e-05 -1.65486e-05)
(1.81172e-05 3.75138e-05 -1.57974e-05)
(2.66792e-05 5.59084e-05 -1.61608e-05)
(2.31043e-05 7.18688e-05 -1.70712e-05)
(1.16272e-05 7.95651e-05 -1.77407e-05)
(-2.59629e-06 7.556e-05 -1.78054e-05)
(-1.53065e-05 5.88986e-05 -1.68841e-05)
(-2.43739e-05 3.28886e-05 -1.47423e-05)
(-3.02074e-05 5.05857e-06 -1.18035e-05)
(-3.32719e-05 -1.75175e-05 -8.94862e-06)
(-3.3264e-05 -3.08331e-05 -6.77678e-06)
(-2.90133e-05 -3.50041e-05 -5.20879e-06)
(-1.91597e-05 -3.27179e-05 -4.1103e-06)
(-4.34499e-06 -2.80915e-05 -3.16502e-06)
(1.10221e-05 -2.24331e-05 -2.07207e-06)
(2.09688e-05 -1.07538e-05 -1.05731e-06)
(2.31339e-05 9.05254e-06 -7.10735e-07)
(2.21924e-05 2.78201e-05 2.11407e-06)
(1.90751e-05 3.43848e-05 7.13304e-06)
(8.52003e-06 3.34553e-05 2.54387e-06)
(2.94876e-05 -0.000163682 2.94876e-05)
(-5.96751e-06 -3.01309e-05 1.1373e-05)
(-8.44726e-05 -2.11347e-05 3.25626e-06)
(-0.000116157 -6.71497e-06 -6.16271e-06)
(-0.000140602 7.96029e-06 -1.29685e-05)
(-0.000147764 1.51934e-05 -1.60958e-05)
(-0.000136189 1.32878e-05 -1.68053e-05)
(-0.00010901 4.51206e-06 -1.61194e-05)
(-7.43776e-05 -2.06176e-06 -1.37518e-05)
(-4.02137e-05 5.58967e-07 -1.17367e-05)
(-1.18083e-05 1.66695e-05 -1.04706e-05)
(7.24819e-06 4.29946e-05 -1.0835e-05)
(1.80379e-05 7.42077e-05 -1.19405e-05)
(2.4169e-05 9.99281e-05 -1.26123e-05)
(2.72469e-05 0.000112291 -1.17488e-05)
(2.80028e-05 0.000108125 -9.35101e-06)
(2.57961e-05 8.82532e-05 -5.54133e-06)
(1.9142e-05 5.77703e-05 -1.31214e-06)
(7.80833e-06 2.58329e-05 2.32777e-06)
(-6.65914e-06 -2.50909e-07 4.18118e-06)
(-2.07565e-05 -1.76759e-05 3.56705e-06)
(-2.89227e-05 -2.69798e-05 1.14456e-06)
(-2.83007e-05 -3.01128e-05 -1.91018e-06)
(-2.09655e-05 -2.80495e-05 -4.35441e-06)
(-1.10423e-05 -1.92255e-05 -6.25529e-06)
(-3.10715e-06 -9.82967e-07 -8.25674e-06)
(1.47195e-06 2.16383e-05 -9.09585e-06)
(5.848e-06 3.75907e-05 -8.01306e-06)
(-3.2447e-07 4.93219e-05 -9.2909e-06)
(-4.68611e-06 5.7884e-05 -1.67309e-05)
(-1.97613e-06 -0.000159087 -1.97613e-06)
(-4.17614e-05 5.76634e-05 -1.61613e-05)
(-9.05226e-05 5.05636e-05 -1.77269e-05)
(-0.000109177 5.37955e-05 -1.94722e-05)
(-0.000116146 5.248e-05 -1.81627e-05)
(-0.00010753 3.91309e-05 -1.51762e-05)
(-8.76502e-05 1.7263e-05 -1.04228e-05)
(-6.37882e-05 -5.35626e-06 -5.32766e-06)
(-4.15107e-05 -1.85808e-05 -1.21997e-06)
(-2.46473e-05 -1.49113e-05 8.94116e-07)
(-1.37047e-05 6.82644e-06 1.56187e-07)
(-4.67932e-06 4.03012e-05 -2.23095e-06)
(6.68925e-06 7.63674e-05 -4.82216e-06)
(2.17978e-05 0.00010357 -5.2565e-06)
(3.78818e-05 0.000115643 -3.35412e-06)
(5.00148e-05 0.000111046 7.36831e-07)
(5.40089e-05 9.22172e-05 5.89688e-06)
(4.68937e-05 6.51301e-05 9.92153e-06)
(2.88079e-05 3.75538e-05 1.16633e-05)
(4.85738e-06 1.4492e-05 1.06537e-05)
(-1.75806e-05 -2.88775e-06 7.81387e-06)
(-3.16402e-05 -1.51076e-05 4.47816e-06)
(-3.58898e-05 -2.20986e-05 1.9119e-06)
(-3.43945e-05 -2.0459e-05 8.34005e-08)
(-3.16579e-05 -7.52801e-06 -1.79506e-06)
(-2.93414e-05 1.41635e-05 -3.83152e-06)
(-2.60403e-05 3.65962e-05 -5.29022e-06)
(-2.30356e-05 5.57236e-05 -7.62339e-06)
(-2.361e-05 7.77852e-05 -1.26483e-05)
(-1.32194e-05 6.97165e-05 -8.25035e-06)
(-2.30382e-05 -9.03921e-05 -2.30382e-05)
(-5.3358e-05 0.000135795 -2.4231e-05)
(-6.41703e-05 0.000107893 -2.12741e-05)
(-6.34183e-05 9.47427e-05 -1.86713e-05)
(-5.27933e-05 7.29041e-05 -1.30106e-05)
(-3.58454e-05 4.05864e-05 -6.22935e-06)
(-1.89864e-05 5.37551e-06 1.3979e-07)
(-8.49658e-06 -2.22257e-05 5.03274e-06)
(-6.81457e-06 -3.35638e-05 6.95172e-06)
(-1.17337e-05 -2.42278e-05 4.89204e-06)
(-1.69279e-05 2.65976e-06 3.1546e-07)
(-1.4918e-05 3.70208e-05 -4.20768e-06)
(-2.4904e-06 6.89354e-05 -6.30021e-06)
(1.85957e-05 9.11387e-05 -5.77646e-06)
(4.12448e-05 0.000100494 -2.31411e-06)
(5.702e-05 9.79637e-05 2.48654e-06)
(6.06407e-05 8.60236e-05 6.14541e-06)
(5.06163e-05 6.87299e-05 8.01942e-06)
(3.07406e-05 4.95376e-05 8.29883e-06)
(8.28454e-06 3.02844e-05 7.82869e-06)
(-1.01969e-05 1.08597e-05 7.33677e-06)
(-2.10763e-05 -7.41015e-06 7.99393e-06)
(-2.61835e-05 -2.03467e-05 9.96998e-06)
(-3.11678e-05 -2.08235e-05 1.16786e-05)
(-3.77185e-05 -7.20767e-06 1.19567e-05)
(-4.22517e-05 1.3389e-05 1.16246e-05)
(-4.22217e-05 3.35081e-05 1.06194e-05)
(-3.84681e-05 5.38838e-05 9.10026e-06)
(-2.37871e-05 6.80784e-05 9.50161e-06)
(-6.47367e-06 3.65612e-05 2.35134e-05)
(-2.66936e-05 -4.7099e-06 -2.66936e-05)
(-3.78399e-05 0.000175374 -2.05437e-05)
(-1.97714e-05 0.000134169 -1.72458e-05)
(-7.17979e-06 0.000106156 -1.30936e-05)
(1.00129e-05 7.01573e-05 -7.87793e-06)
(2.52154e-05 3.00198e-05 -2.83207e-06)
(3.2423e-05 -5.16941e-06 3.72194e-07)
(2.82385e-05 -2.49776e-05 1.27126e-06)
(1.39272e-05 -2.63568e-05 -9.29816e-07)
(-3.0428e-06 -1.05675e-05 -4.34551e-06)
(-1.36727e-05 1.46796e-05 -7.66924e-06)
(-1.23028e-05 3.95363e-05 -8.97238e-06)
(1.46905e-06 5.96519e-05 -8.12433e-06)
(2.12972e-05 7.30467e-05 -4.75781e-06)
(3.91836e-05 8.0422e-05 -2.97032e-07)
(4.86044e-05 8.31344e-05 2.97778e-06)
(4.74601e-05 8.10105e-05 4.6286e-06)
(3.77176e-05 7.38469e-05 4.70567e-06)
(2.43469e-05 6.04875e-05 4.09574e-06)
(1.25172e-05 4.01913e-05 4.86062e-06)
(4.25503e-06 1.46822e-05 7.22896e-06)
(-2.37075e-06 -1.07433e-05 1.04392e-05)
(-1.16362e-05 -2.75872e-05 1.32028e-05)
(-2.51734e-05 -2.90695e-05 1.42688e-05)
(-3.85628e-05 -1.73952e-05 1.38719e-05)
(-4.43668e-05 -3.31803e-06 1.40142e-05)
(-4.06514e-05 8.08462e-06 1.53763e-05)
(-2.83444e-05 1.62907e-05 1.85685e-05)
(-4.89058e-06 6.74277e-06 2.55093e-05)
(4.93991e-06 -1.4828e-05 2.3151e-05)
(-2.25597e-05 5.67877e-05 -2.25597e-05)
(-1.5485e-05 0.000178644 -1.57156e-05)
(1.59756e-05 0.000135349 -1.46932e-05)
(2.98044e-05 0.000101294 -1.23179e-05)
(4.78784e-05 6.17224e-05 -9.52887e-06)
(5.84751e-05 2.48907e-05 -7.28994e-06)
(5.87692e-05 -4.23247e-07 -5.85644e-06)
(4.90075e-05 -8.30925e-06 -5.13983e-06)
(3.30755e-05 -2.45077e-06 -5.24349e-06)
(1.73576e-05 1.16549e-05 -5.28809e-06)
(8.56615e-06 2.59184e-05 -3.61189e-06)
(9.43426e-06 3.50209e-05 1.25468e-07)
(1.6671e-05 4.26325e-05 4.97123e-06)
(2.36167e-05 4.91877e-05 9.39981e-06)
(2.60609e-05 5.78848e-05 1.13649e-05)
(2.3574e-05 6.74861e-05 1.05015e-05)
(1.84137e-05 7.32567e-05 7.9592e-06)
(1.39558e-05 7.10888e-05 5.87565e-06)
(1.18732e-05 5.86451e-05 5.45923e-06)
(1.09499e-05 3.59822e-05 6.54646e-06)
(7.35213e-06 8.54491e-06 8.52723e-06)
(-3.57339e-06 -1.47093e-05 9.27827e-06)
(-2.23964e-05 -2.50587e-05 6.81396e-06)
(-4.20406e-05 -2.12056e-05 7.79824e-07)
(-5.21995e-05 -1.38659e-05 -3.64897e-06)
(-4.89567e-05 -1.18936e-05 -4.21392e-06)
(-3.68936e-05 -1.22761e-05 -2.78658e-06)
(-1.98798e-05 -1.57323e-05 -1.00862e-06)
(-9.82602e-06 -2.47546e-05 -9.97457e-07)
(-4.78422e-06 -1.58025e-05 -1.5743e-05)
(-1.70251e-05 9.27767e-05 -1.7025e-05)
(-2.29487e-06 0.000162994 -1.33923e-05)
(3.36507e-05 0.000123473 -1.31252e-05)
(5.0487e-05 8.9867e-05 -1.11402e-05)
(6.98172e-05 5.20397e-05 -8.49956e-06)
(8.07202e-05 2.11393e-05 -5.20943e-06)
(8.17257e-05 4.25254e-06 -1.71775e-06)
(7.42958e-05 1.83414e-06 1.68656e-06)
(6.25787e-05 7.05816e-06 5.04292e-06)
(5.15928e-05 1.29354e-05 9.53532e-06)
(4.33659e-05 1.53795e-05 1.44746e-05)
(3.5976e-05 1.25731e-05 1.94867e-05)
(2.50243e-05 1.32545e-05 2.28187e-05)
(9.68321e-06 2.10982e-05 2.19141e-05)
(-6.20629e-06 3.56023e-05 1.71887e-05)
(-1.75815e-05 5.14298e-05 1.12316e-05)
(-1.97824e-05 6.01642e-05 6.49468e-06)
(-1.40722e-05 5.7166e-05 4.26783e-06)
(-6.07277e-06 4.40606e-05 4.7384e-06)
(-3.07204e-06 2.4751e-05 5.92968e-06)
(-1.19313e-05 6.86946e-06 5.75208e-06)
(-3.26518e-05 -1.30273e-06 1.4184e-06)
(-5.6158e-05 3.69173e-07 -6.1684e-06)
(-7.04491e-05 4.13073e-06 -1.17714e-05)
(-6.76646e-05 -1.21911e-06 -1.29745e-05)
(-5.2128e-05 -1.18128e-05 -1.23572e-05)
(-3.55389e-05 -1.50017e-05 -1.19462e-05)
(-2.30266e-05 -9.68123e-06 -1.39192e-05)
(-2.56349e-05 8.44858e-06 -2.32222e-05)
(-1.71511e-05 1.15168e-05 -2.43516e-05)
(-1.16679e-05 0.000110231 -1.16679e-05)
(8.25063e-06 0.000134356 -7.94232e-06)
(4.80852e-05 0.000100681 -5.99184e-06)
(6.93292e-05 6.60851e-05 -1.57444e-06)
(8.94558e-05 2.95561e-05 3.49764e-06)
(0.000100489 2.81349e-06 8.40734e-06)
(0.000102526 -9.50816e-06 1.22264e-05)
(9.77523e-05 -1.16831e-05 1.55392e-05)
(8.91328e-05 -1.01658e-05 1.89743e-05)
(7.80159e-05 -1.09929e-05 2.26627e-05)
(6.26113e-05 -1.35601e-05 2.59735e-05)
(3.91118e-05 -1.4821e-05 2.53081e-05)
(8.72084e-06 -6.18024e-06 2.0879e-05)
(-2.13594e-05 1.14696e-05 1.34891e-05)
(-4.35278e-05 3.26271e-05 4.34662e-06)
(-5.15852e-05 4.54791e-05 -1.4128e-06)
(-4.502e-05 4.83366e-05 -3.00429e-06)
(-3.12575e-05 4.21917e-05 -2.2979e-06)
(-2.27207e-05 3.29947e-05 5.30568e-08)
(-2.77189e-05 2.60027e-05 -7.98342e-08)
(-4.55657e-05 2.48011e-05 -3.86724e-06)
(-6.78221e-05 2.9224e-05 -9.62675e-06)
(-8.07861e-05 2.96255e-05 -1.27221e-05)
(-7.61686e-05 1.61085e-05 -1.1354e-05)
(-5.94154e-05 -7.95327e-06 -6.31706e-06)
(-4.40298e-05 -2.2256e-05 -1.85715e-06)
(-3.586e-05 -1.75858e-05 -2.18525e-06)
(-3.33294e-05 2.50921e-06 -5.45478e-06)
(-2.70688e-05 3.14771e-05 -9.95055e-06)
(-1.07428e-05 4.62911e-06 -2.21076e-06)
(-1.29673e-06 0.00010547 -1.29673e-06)
(2.60761e-05 8.89921e-05 4.96983e-06)
(6.63467e-05 5.94472e-05 8.97815e-06)
(8.89727e-05 2.40344e-05 1.38618e-05)
(0.000104927 -9.7267e-06 1.76928e-05)
(0.000109866 -3.15116e-05 2.01926e-05)
(0.000106479 -3.96962e-05 2.0953e-05)
(9.91159e-05 -4.00456e-05 2.07121e-05)
(8.91895e-05 -3.72725e-05 2.04251e-05)
(7.41423e-05 -3.3578e-05 1.97821e-05)
(5.06324e-05 -2.57243e-05 1.799e-05)
(1.79013e-05 -1.06095e-05 1.24957e-05)
(-1.85772e-05 1.28781e-05 4.33498e-06)
(-4.81696e-05 3.3978e-05 -2.73692e-06)
(-6.10727e-05 4.74538e-05 -5.34508e-06)
(-5.68158e-05 4.57656e-05 -5.5569e-06)
(-4.42128e-05 3.74005e-05 -2.39751e-06)
(-3.5248e-05 3.27442e-05 9.71309e-07)
(-4.00569e-05 3.45838e-05 1.23798e-06)
(-5.80962e-05 4.40394e-05 -3.51934e-06)
(-7.88702e-05 5.42857e-05 -9.99352e-06)
(-8.89493e-05 5.48285e-05 -1.31463e-05)
(-8.02776e-05 3.49273e-05 -1.00976e-05)
(-5.91782e-05 -1.65574e-06 -1.84097e-06)
(-4.24858e-05 -3.29681e-05 6.10376e-06)
(-3.97584e-05 -3.93315e-05 6.35587e-06)
(-4.1804e-05 -2.70824e-05 3.48196e-06)
(-3.92502e-05 -7.83963e-06 4.1253e-06)
(-2.02004e-05 8.10441e-06 7.10359e-06)
(-1.89856e-06 -2.09777e-05 5.72162e-06)
(1.17131e-05 6.78661e-05 1.17131e-05)
(4.59111e-05 2.45783e-05 1.79334e-05)
(8.04105e-05 7.68106e-07 2.1482e-05)
(9.82277e-05 -2.90669e-05 2.388e-05)
(0.000104061 -5.35371e-05 2.41624e-05)
(9.93478e-05 -6.52049e-05 2.17648e-05)
(9.03302e-05 -6.60963e-05 1.84137e-05)
(8.13076e-05 -6.07492e-05 1.53415e-05)
(7.12815e-05 -5.10411e-05 1.34448e-05)
(5.54304e-05 -3.51401e-05 1.18458e-05)
(3.05933e-05 -1.06794e-05 8.91465e-06)
(-3.66947e-07 1.81587e-05 4.44077e-06)
(-2.78669e-05 4.29208e-05 1.726e-06)
(-4.28321e-05 5.22133e-05 1.18427e-06)
(-4.29086e-05 4.56211e-05 4.32743e-06)
(-3.50754e-05 2.95875e-05 9.20229e-06)
(-3.18591e-05 1.74471e-05 1.45579e-05)
(-4.26847e-05 2.2935e-05 1.50618e-05)
(-6.58837e-05 4.2099e-05 8.83493e-06)
(-8.93877e-05 6.257e-05 -4.4772e-08)
(-0.00010023 6.85493e-05 -5.00682e-06)
(-9.10998e-05 4.85159e-05 -3.04379e-06)
(-6.71976e-05 6.09346e-06 4.98572e-06)
(-4.91853e-05 -3.65069e-05 1.0935e-05)
(-5.0364e-05 -5.48806e-05 9.92263e-06)
(-5.96484e-05 -4.81522e-05 2.43327e-06)
(-6.01206e-05 -3.7997e-05 -1.61687e-06)
(-4.79909e-05 -3.21186e-05 -1.12953e-06)
(-2.48441e-05 -2.67445e-05 -1.46552e-06)
(-5.29187e-06 -4.32599e-05 -1.35526e-06)
(2.16042e-05 -2.33822e-06 2.16042e-05)
(5.77631e-05 -4.86889e-05 2.4804e-05)
(8.23473e-05 -6.33501e-05 2.61313e-05)
(9.33437e-05 -7.9488e-05 2.56431e-05)
(9.16273e-05 -8.82389e-05 2.29485e-05)
(8.27173e-05 -8.77919e-05 1.91555e-05)
(7.35837e-05 -8.21203e-05 1.60969e-05)
(6.6394e-05 -7.3621e-05 1.47334e-05)
(5.74024e-05 -5.89288e-05 1.44323e-05)
(4.2043e-05 -3.41888e-05 1.38195e-05)
(2.04781e-05 -1.26324e-06 1.20657e-05)
(-1.06854e-06 2.88509e-05 1.04937e-05)
(-1.40454e-05 4.26304e-05 1.09365e-05)
(-1.48413e-05 3.41391e-05 1.45368e-05)
(-9.75762e-06 1.12376e-05 1.95349e-05)
(-1.16469e-05 -6.65559e-06 2.41884e-05)
(-3.02916e-05 -7.61113e-06 2.27512e-05)
(-6.0063e-05 1.74639e-05 1.66099e-05)
(-8.82085e-05 4.90953e-05 7.73101e-06)
(-0.000102001 6.28953e-05 4.83414e-06)
(-9.39964e-05 4.69643e-05 8.59184e-06)
(-7.29248e-05 4.6656e-06 1.7243e-05)
(-5.87641e-05 -4.33274e-05 2.39179e-05)
(-6.62699e-05 -6.90566e-05 2.23139e-05)
(-8.38958e-05 -6.78562e-05 1.45306e-05)
(-9.08911e-05 -5.83735e-05 9.00141e-06)
(-8.34214e-05 -5.88809e-05 5.6413e-06)
(-6.86647e-05 -6.37176e-05 2.5326e-06)
(-3.20118e-05 -6.51106e-05 5.22959e-06)
(-1.81655e-06 -8.38047e-05 2.27362e-05)
(2.56684e-05 -8.95389e-05 2.56684e-05)
(6.00153e-05 -0.000119185 2.72436e-05)
(7.74402e-05 -0.000123905 2.76017e-05)
(8.57272e-05 -0.000123162 2.62459e-05)
(8.31216e-05 -0.000116818 2.36602e-05)
(7.62005e-05 -0.000108967 2.13643e-05)
(6.95374e-05 -0.000102415 1.99758e-05)
(6.18604e-05 -9.36687e-05 1.9721e-05)
(4.95975e-05 -7.4824e-05 1.88816e-05)
(3.21642e-05 -4.27226e-05 1.64521e-05)
(1.47207e-05 -7.03941e-06 1.28461e-05)
(4.60174e-06 1.76856e-05 1.1172e-05)
(5.19181e-06 1.75956e-05 1.26734e-05)
(1.05744e-05 -2.5999e-06 1.60549e-05)
(8.67495e-06 -2.42907e-05 1.9333e-05)
(-1.0741e-05 -2.64841e-05 1.69137e-05)
(-4.24958e-05 -6.0832e-06 1.04188e-05)
(-7.10619e-05 2.61622e-05 4.62736e-06)
(-8.45225e-05 4.59265e-05 5.47481e-06)
(-7.65749e-05 3.42049e-05 1.25645e-05)
(-5.76957e-05 -5.99271e-06 2.27277e-05)
(-4.97994e-05 -5.50358e-05 3.12601e-05)
(-6.4922e-05 -8.62733e-05 3.17762e-05)