/*--------------------------------*- C++ -*----------------------------------*\
| =========                 |                                                 |
| \\      /  F ield         | OpenFOAM: The Open Source CFD Toolbox           |
|  \\    /   O peration     | Version:  2312                                  |
|   \\  /    A nd           | Website:  www.openfoam.com                      |
|    \\/     M anipulation  |                                                 |
\*---------------------------------------------------------------------------*/
FoamFile
{
    version     2.0;
    format      ascii;
    arch        "LSB;label=32;scalar=64";
    class       surfaceScalarField;
    location    "0.862544";
    object      alphaPhi0.water;
}
// * * * * * * * * * * * * * * * * * * * * * * * * * * * * * * * * * * * * * //

dimensions      [0 3 -1 0 0 0 0];

oriented        oriented;

internalField   nonuniform List<scalar> 
263100
(
-5.79721e-10
1.15939e-09
-5.79721e-10
-1.25672e-09
1.2356e-09
-8.51468e-10
-2.04014e-09
1.3446e-09
-7.97331e-10
-2.45341e-09
1.06087e-09
-8.46878e-10
-2.56995e-09
7.43389e-10
-7.74652e-10
-2.34345e-09
3.48204e-10
-6.58899e-10
-1.866e-09
-7.20381e-12
-4.8404e-10
-1.27347e-09
-2.28681e-10
-3.05287e-10
-7.53736e-10
-2.29676e-10
-1.6143e-10
-4.12211e-10
-4.00575e-11
-1.08891e-10
-2.56331e-10
2.71465e-10
-1.80644e-10
-2.25842e-10
6.2096e-10
-3.64239e-10
-1.68207e-10
8.60984e-10
-6.07952e-10
3.58114e-11
9.38883e-10
-8.28187e-10
5.0926e-10
8.21218e-10
-9.95573e-10
1.2466e-09
5.5587e-10
-1.02686e-09
2.13385e-09
2.14236e-10
-8.79267e-10
2.87101e-09
1.82907e-11
-5.80545e-10
3.1593e-09
3.20844e-11
-1.86514e-10
2.81701e-09
2.87748e-10
1.62406e-10
1.7933e-09
7.68359e-10
3.58091e-10
1.23536e-10
1.37046e-09
4.18516e-10
-1.90629e-09
1.85432e-09
3.27137e-10
-3.90629e-09
2.04824e-09
1.39625e-10
-5.27902e-09
1.67822e-09
-9.32922e-11
-5.44267e-09
7.58359e-10
-3.84717e-10
-4.36943e-09
-3.68219e-10
-5.31036e-10
-2.13168e-09
-1.67183e-09
-4.56753e-10
1.2519e-09
-1.81985e-09
-1.53065e-09
3.58331e-09
-2.36224e-09
-3.34584e-10
1.52647e-09
-3.34584e-10
-9.80198e-10
1.78458e-09
-3.30953e-10
-1.29991e-09
1.67366e-09
-3.48898e-10
-1.53725e-09
1.35059e-09
-3.06594e-10
-1.61319e-09
9.06521e-10
-2.3674e-10
-1.55601e-09
4.32739e-10
-1.74844e-10
-1.36476e-09
2.86663e-11
-1.40574e-10
-1.07941e-09
-1.81666e-10
-1.3019e-10
-7.25794e-10
-1.48886e-10
-1.27094e-10
-3.38296e-10
1.04916e-10
-1.36472e-10
8.2807e-11
4.54824e-10
-1.4198e-10
5.4599e-10
7.49547e-10
-9.00839e-11
9.92426e-10
9.12343e-10
1.25276e-11
1.40112e-09
8.54049e-10
1.64407e-10
1.7242e-09
6.08972e-10
3.28886e-10
1.85052e-09
3.30095e-10
4.72974e-10
1.75996e-09
6.37715e-11
5.43207e-10
1.5093e-09
2.98161e-11
4.79089e-10
1.12967e-09
3.13283e-10
2.98144e-10
6.68774e-10
8.68813e-10
6.96518e-11
1.54064e-10
1.59338e-09
-9.92771e-11
-3.25498e-10
2.31308e-09
-2.08302e-10
-6.64702e-10
2.73154e-09
-2.34441e-10
-7.53644e-10
2.58894e-09
-1.16734e-10
-5.69951e-10
1.67432e-09
1.48853e-10
-2.66421e-10
1.47429e-10
5.82775e-10
5.00549e-11
-1.79431e-09
1.29813e-09
5.45434e-10
-4.13761e-09
2.08954e-09
2.85246e-09
-6.57603e-09
2.62015e-09
3.9937e-09
3.01979e-09
-6.81168e-11
1.43401e-09
-6.81168e-11
-2.44866e-10
1.73102e-09
-5.558e-11
-2.98063e-10
1.52315e-09
-2.06422e-11
-3.9092e-10
1.25968e-09
1.96465e-11
-5.28971e-10
9.16969e-10
3.35427e-11
-6.78887e-10
5.47411e-10
1.55706e-11
-7.93736e-10
2.46396e-10
-4.92393e-11
-7.86254e-10
7.90135e-11
-1.46262e-10
-5.7799e-10
5.88226e-11
-2.34018e-10
-1.30694e-10
1.54061e-10
-2.65266e-10
4.92225e-10
3.05952e-10
-2.06963e-10
1.18852e-09
3.96082e-10
-5.52077e-11
1.81066e-09
4.12263e-10
1.69715e-10
2.15522e-09
3.66084e-10
4.23705e-10
2.08544e-09
3.17735e-10
6.17167e-10
1.61206e-09
3.51335e-10
6.7653e-10
8.39765e-10
4.74035e-10
5.53295e-10
-5.2883e-12
7.69782e-10
2.68277e-10
-6.37702e-10
1.17174e-09
-8.07944e-11
-8.84824e-10
1.64694e-09
-3.90979e-10
-5.76581e-10
2.12393e-09
-6.92239e-10
2.54782e-10
2.45534e-09
-8.13709e-10
1.40703e-09
2.48463e-09
-7.33754e-10
2.68366e-09
1.98319e-09
-4.9953e-10
3.76925e-09
1.01138e-09
-2.72301e-10
4.40622e-09
-2.77474e-10
-1.09893e-10
3.8118e-09
-1.44971e-09
2.64519e-10
2.30563e-09
-3.13988e-09
3.62747e-10
7.96289e-10
-7.38139e-09
1.93328e-09
3.21561e-09
1.66493e-09
2.09787e-10
8.5439e-10
2.09787e-10
4.29691e-10
1.05929e-09
3.24636e-10
6.30622e-10
8.97164e-10
3.29232e-10
6.75118e-10
7.96473e-10
3.56297e-10
5.32192e-10
7.00277e-10
3.30774e-10
2.53265e-10
5.81295e-10
2.46602e-10
-6.36712e-11
4.58282e-10
1.31643e-10
-2.90441e-10
3.64459e-10
-1.29687e-11
-3.05101e-10
2.80941e-10
-1.48103e-10
-7.00577e-11
1.82118e-10
-1.9451e-10
3.79789e-10
7.49614e-11
-1.442e-10
9.21345e-10
-3.4755e-11
-3.1911e-11
1.36672e-09
-7.33139e-11
1.22512e-10
1.51677e-09
4.16436e-11
2.607e-10
1.28545e-09
3.40458e-10
3.00011e-10
7.31028e-10
7.72539e-10
2.30473e-10
-1.8154e-11
1.29225e-09
3.30495e-11
-7.20557e-10
1.77759e-09
-2.02314e-10
-1.0645e-09
2.10164e-09
-4.88858e-10
-8.4848e-10
2.20887e-09
-6.96126e-10
2.31574e-11
2.12281e-09
-8.13501e-10
1.41197e-09
1.90342e-09
-8.12067e-10
3.05612e-09
1.51266e-09
-6.82567e-10
4.49596e-09
1.01194e-09
-5.11497e-10
5.32853e-09
4.7252e-10
-3.59099e-10
5.49209e-09
-1.22903e-10
-3.82908e-10
5.41133e-09
-4.1005e-10
-9.80645e-10
3.54861e-09
3.45254e-10
-1.58768e-09
-1.23777e-09
-1.73066e-09
-9.99443e-10
2.83308e-09
-8.30274e-10
4.05969e-10
-2.05452e-11
4.05969e-10
1.02748e-09
-7.06644e-11
5.72628e-10
1.47106e-09
-7.0593e-11
5.84275e-10
1.68506e-09
4.73231e-11
5.98914e-10
1.62534e-09
2.57835e-10
5.61191e-10
1.34099e-09
4.56348e-10
4.5403e-10
9.11482e-10
5.93637e-10
3.16005e-10
4.68462e-10
6.28588e-10
1.72013e-10
1.17191e-10
5.35643e-10
5.90342e-11
-9.15142e-11
3.23113e-10
2.25027e-12
-1.63336e-10
9.39385e-11
-3.30555e-11
-1.42091e-10
-1.0848e-10
-4.21486e-11
-1.24832e-10
-1.18912e-10
-6.04831e-11
-1.50457e-10
1.23486e-10
-1.24279e-10
-2.73388e-10
6.61894e-10
-2.33906e-10
-4.32867e-10
1.31393e-09
-3.79535e-10
-5.91007e-10
1.98724e-09
-5.01704e-10
-6.19674e-10
2.42313e-09
-5.65307e-10
-3.64658e-10
2.46628e-09
-5.77708e-10
2.68909e-10
2.13258e-09
-5.55236e-10
1.24731e-09
1.59017e-09
-5.1028e-10
2.48475e-09
9.71718e-10
-4.51304e-10
3.67475e-09
5.24149e-10
-4.24536e-10
4.50985e-09
3.61477e-10
-4.62793e-10
4.67497e-09
5.77345e-10
-5.6923e-10
4.03647e-09
9.29568e-10
-7.00724e-10
2.91094e-09
1.41476e-09
-9.32947e-10
1.70942e-09
3.05274e-09
-1.6076e-09
-1.45889e-09
3.36599e-09
-2.02128e-09
3.99754e-09
-2.64169e-09
3.86053e-10
-7.39576e-10
3.86053e-10
1.37633e-09
-1.37499e-09
5.77293e-10
2.03772e-09
-1.11787e-09
6.11356e-10
2.46074e-09
-7.6274e-10
5.90642e-10
2.60613e-09
-2.50912e-10
5.31007e-10
2.46861e-09
2.74848e-10
4.37098e-10
2.07997e-09
6.97605e-10
3.43058e-10
1.49568e-09
9.37277e-10
2.69372e-10
7.69273e-10
9.7862e-10
2.14256e-10
-2.6389e-11
8.32754e-10
1.62868e-10
-7.95138e-10
6.01274e-10
1.00475e-10
-1.45089e-09
4.10755e-10
-4.015e-11
-1.88856e-09
3.61115e-10
-2.09744e-10
-2.01999e-09
5.3809e-10
-4.1767e-10
-1.83126e-09
9.50239e-10
-5.62012e-10
-1.40171e-09
1.46385e-09
-6.10448e-10
-7.44515e-10
1.90693e-09
-5.6534e-10
7.78428e-13
2.11652e-09
-4.12232e-10
7.87131e-10
1.88804e-09
-2.05841e-10
1.52959e-09
1.34522e-09
-1.84345e-11
2.21019e-09
6.74169e-10
7.44939e-11
2.70057e-09
1.29869e-10
8.16099e-11
2.94725e-09
-3.0787e-11
-5.51815e-11
2.87901e-09
3.46544e-10
-3.32647e-10
2.45807e-09
1.29511e-09
-7.07641e-10
1.48744e-09
2.69812e-09
-1.15252e-09
3.75912e-11
4.18026e-09
-1.59437e-09
-5.8665e-10
5.87758e-09
-2.36447e-09
-1.87125e-09
7.24486e-09
-2.68984e-09
4.8603e-09
-2.76423e-09
7.75189e-11
-7.23472e-10
7.75189e-11
1.3329e-09
-2.48433e-09
2.92422e-10
2.20199e-09
-1.90076e-09
2.89256e-10
2.89707e-09
-1.33028e-09
2.09381e-10
3.35836e-09
-5.87608e-10
1.57328e-10
3.5169e-09
1.9708e-10
1.31024e-10
3.30678e-09
9.08501e-10
1.30854e-10
2.68239e-09
1.43758e-09
1.72404e-10
1.68154e-09
1.72302e-09
2.26346e-10
3.9139e-10
1.80229e-09
2.25628e-10
-1.00589e-09
1.71888e-09
1.41276e-10
-2.24733e-09
1.52459e-09
-2.70915e-11
-3.06502e-09
1.24428e-09
-2.07788e-10
-3.29116e-09
1.04654e-09
-3.87376e-10
-2.8975e-09
9.71031e-10
-4.67164e-10
-1.99502e-09
9.57615e-10
-3.96232e-10
-8.22978e-10
9.46942e-10
-1.75796e-10
3.97101e-10
8.4229e-10
9.51985e-11
1.41317e-09
5.51503e-10
3.26729e-10
2.02157e-09
1.20921e-10
5.50235e-10
2.1638e-09
-3.13557e-10
6.85095e-10
1.91485e-09
-5.02235e-10
6.26386e-10
1.36586e-09
-2.08438e-10
4.03433e-10
5.94853e-10
7.05157e-10
6.49269e-11
-2.62411e-10
2.19486e-09
-3.62844e-10
-1.07139e-09
4.12586e-09
-8.66048e-10
-1.82175e-09
6.11558e-09
-1.34537e-09
-1.90656e-09
7.6066e-09
-1.71588e-09
-1.31947e-09
8.34561e-09
-1.69341e-09
4.83727e-09
-1.24788e-09
-3.59689e-10
2.67322e-10
-3.59689e-10
1.03521e-09
-3.10389e-09
-2.16693e-10
2.05055e-09
-2.15529e-09
-2.78112e-10
3.00549e-09
-1.48518e-09
-3.63216e-10
3.80305e-09
-6.46167e-10
-3.64723e-10
4.29842e-09
2.88765e-10
-2.89988e-10
4.34296e-09
1.22545e-09
-1.5014e-10
3.82469e-09
2.08027e-09
3.64572e-13
2.74197e-09
2.73714e-09
1.14794e-10
1.21914e-09
3.11404e-09
1.9483e-10
-4.70076e-10
3.1638e-09
1.88551e-10
-1.98511e-09
2.84866e-09
1.22172e-10
-3.02688e-09
2.20665e-09
2.30766e-11
-3.41761e-09
1.41222e-09
7.85996e-13
-3.11076e-09
6.20388e-10
6.08682e-11
-2.25032e-09
-3.0884e-11
1.82939e-10
-1.10847e-09
-5.09827e-10
3.9176e-10
-2.071e-11
-8.28852e-10
6.57978e-10
7.40433e-10
-1.08029e-09
9.17535e-10
1.04895e-09
-1.26796e-09
1.08122e-09
8.9113e-10
-1.28821e-09
1.08325e-09
3.64966e-10
-1.01593e-09
9.53704e-10
-3.99502e-10
-2.96957e-10
7.57305e-10
-1.24057e-09
9.34702e-10
5.38607e-10
-1.99989e-09
2.61926e-09
3.09768e-10
-2.45826e-09
4.48597e-09
1.35604e-10
-2.41564e-09
6.17086e-09
1.82242e-12
-1.71829e-09
7.01323e-09
4.51295e-11
-3.03096e-10
6.8258e-09
2.88957e-10
3.84527e-09
8.81796e-10
-9.02509e-10
2.408e-09
-9.02509e-10
6.21075e-10
-3.22381e-09
-8.05236e-10
1.72641e-09
-1.91577e-09
-8.22672e-10
2.87076e-09
-1.35662e-09
-7.9791e-10
3.87034e-09
-5.48129e-10
-6.85785e-10
4.57293e-09
4.1694e-10
-4.9516e-10
4.8145e-09
1.49198e-09
-2.54711e-10
4.48294e-09
2.62058e-09
-3.53762e-11
3.59655e-09
3.60507e-09
1.22074e-10
2.27336e-09
4.23689e-09
2.51084e-10
7.64576e-10
4.34743e-09
3.43696e-10
-6.41915e-10
3.8351e-09
4.26923e-10
-1.72615e-09
2.78474e-09
5.18239e-10
-2.35969e-09
1.42939e-09
6.43985e-10
-2.55432e-09
6.86803e-11
7.92143e-10
-2.39096e-09
-1.08191e-09
9.47697e-10
-2.0318e-09
-1.89653e-09
1.0945e-09
-1.63653e-09
-2.33875e-09
1.18226e-09
-1.32611e-09
-2.48631e-09
1.16328e-09
-1.17104e-09
-2.39554e-09
1.04781e-09
-1.18665e-09
-2.07425e-09
8.99637e-10
-1.39488e-09
-1.45671e-09
7.87795e-10
-1.70826e-09
-4.97468e-10
7.08006e-10
-2.04033e-09
8.01692e-10
7.19729e-10
-2.26206e-09
2.37753e-09
7.70429e-10
-2.16511e-09
3.85786e-09
8.72302e-10
-1.54917e-09
4.87809e-09
1.03397e-09
-4.58072e-10
4.94961e-09
1.3289e-09
6.39718e-10
4.3449e-09
1.72709e-09
2.76238e-09
1.99561e-09
-9.55361e-10
4.66915e-09
-9.55361e-10
3.61497e-10
-3.17775e-09
-8.19447e-10
1.34443e-09
-1.68637e-09
-7.35543e-10
2.35447e-09
-1.32526e-09
-6.11634e-10
3.24557e-09
-6.72813e-10
-3.98572e-10
3.88535e-09
2.42534e-10
-1.69864e-10
4.14984e-09
1.39834e-09
4.99095e-11
4.08102e-09
2.64365e-09
1.97342e-10
3.63965e-09
3.83989e-09
3.00902e-10
2.94648e-09
4.5708e-09
4.11348e-10
2.09476e-09
4.66437e-09
5.59111e-10
1.16643e-09
4.00647e-09
7.6442e-10
2.09689e-10
2.73909e-09
9.98301e-10
-7.55601e-10
1.15721e-09
1.22242e-09
-1.76784e-09
-3.34046e-10
1.38771e-09
-2.71138e-09
-1.60347e-09
1.42686e-09
-3.48399e-09
-2.46239e-09
1.29723e-09
-3.93327e-09
-2.92068e-09
1.00424e-09
-4.02499e-09
-3.03456e-09
6.529e-10
-3.8068e-09
-2.88861e-09
3.56684e-10
-3.36635e-09
-2.51419e-09
1.74497e-10
-2.8424e-09
-1.84861e-09
1.47e-10
-2.36319e-09
-8.46708e-10
2.4489e-10
-1.95091e-09
4.26599e-10
4.0704e-10
-1.47614e-09
1.74858e-09
6.30969e-10
-8.29258e-10
2.81657e-09
8.65897e-10
5.99455e-11
3.25074e-09
1.17711e-09
8.05276e-10
3.07248e-09
1.52034e-09
9.47516e-10
2.91301e-09
1.61616e-09
2.74024e-09
1.16728e-09
-2.19565e-10
5.41775e-09
-2.19565e-10
4.20034e-10
-3.35952e-09
-6.66367e-11
8.40276e-10
-1.87495e-09
1.08498e-10
1.22745e-09
-1.67715e-09
2.57634e-10
1.52518e-09
-1.20667e-09
4.69302e-10
1.71977e-09
-3.74995e-10
5.90639e-10
1.85984e-09
7.69087e-10
5.93865e-10
2.01103e-09
2.03548e-09
5.07581e-10
2.29236e-09
3.14944e-09
4.1756e-10
2.55406e-09
3.85849e-09
4.2758e-10
2.67535e-09
3.95133e-09
5.42874e-10
2.46101e-09
3.39784e-09
7.4758e-10
1.72663e-09
2.38575e-09
9.8029e-10
4.30448e-10
1.19014e-09
1.11787e-09
-1.29331e-09
1.32851e-10
1.07339e-09
-3.15175e-09
-7.89196e-10
8.33912e-10
-4.76675e-09
-1.47257e-09
4.13647e-10
-5.78755e-09
-1.96694e-09
-1.08114e-10
-6.09607e-09
-2.38712e-09
-4.35289e-10
-5.6776e-09
-2.59712e-09
-6.91463e-10
-4.72073e-09
-2.56177e-09
-7.57825e-10
-3.55323e-09
-2.11979e-09
-6.18659e-10
-2.43447e-09
-1.24296e-09
-3.50269e-10
-1.4389e-09
-8.07691e-11
-6.86746e-11
-4.77177e-10
1.0668e-09
1.38558e-10
4.20514e-10
1.90874e-09
3.88976e-10
1.04475e-09
2.35568e-09
5.85918e-10
1.1007e-09
2.63506e-09
6.1967e-10
5.94528e-10
3.27095e-09
3.06723e-10
3.26894e-09
1.21607e-10
1.18553e-09
3.25904e-09
1.18553e-09
4.11249e-10
-3.71781e-09
1.2854e-09
-2.10849e-10
-2.65166e-09
1.52019e-09
-8.84118e-10
-2.39581e-09
1.468e-09
-1.49775e-09
-1.96115e-09
1.39246e-09
-1.89329e-09
-1.14879e-09
1.14384e-09
-1.87271e-09
-9.90323e-11
7.80906e-10
-1.33887e-09
1.02883e-09
3.76837e-10
-2.96247e-10
1.93537e-09
5.61685e-11
1.0156e-09
2.52406e-09
-1.08162e-10
2.17019e-09
2.73223e-09
-8.59594e-11
2.68445e-09
2.67206e-09
3.03808e-11
2.2915e-09
2.46979e-09
8.45819e-11
9.82946e-10
2.22793e-09
-3.56006e-12
-9.26669e-10
1.93957e-09
-2.1583e-10
-3.12054e-09
1.59809e-09
-5.34235e-10
-5.02367e-09
1.01323e-09
-9.0793e-10
-6.13202e-09
1.59734e-10
-1.28244e-09
-6.34869e-09
-8.22428e-10
-1.50932e-09
-5.74275e-09
-1.7329e-09
-1.50367e-09
-4.61464e-09
-2.29145e-09
-1.30424e-09
-3.29183e-09
-2.27185e-09
-9.74934e-10
-1.99485e-09
-1.67151e-09
-6.14138e-10
-8.22807e-10
-6.92451e-10
-2.94115e-10
2.3627e-10
3.21938e-10
-7.32683e-11
1.05412e-09
1.15658e-09
1.27049e-10
1.35636e-09
1.96948e-09
2.18353e-10
1.08171e-09
2.86235e-09
1.24282e-10
6.77759e-10
3.68793e-09
2.40177e-11
3.56865e-09
4.05359e-10
2.6113e-09
-1.89734e-09
2.6113e-09
9.18431e-11
-3.61921e-09
2.27986e-09
-1.84847e-09
-2.98903e-09
2.12867e-09
-3.62882e-09
-2.58302e-09
1.78346e-09
-5.11568e-09
-1.99576e-09
1.30679e-09
-6.0116e-09
-1.18659e-09
7.00669e-10
-5.99809e-09
-4.02187e-10
5.32251e-11
-4.99684e-09
2.56194e-10
-4.55761e-10
-3.18081e-09
7.5361e-10
-8.4684e-10
-9.6237e-10
1.11216e-09
-1.00893e-09
9.82489e-10
1.59636e-09
-1.0147e-09
2.11025e-09
2.3125e-09
-9.9465e-10
2.14648e-09
3.22312e-09
-1.05083e-09
1.1864e-09
4.13986e-09
-1.25124e-09
-4.25782e-10
4.75979e-09
-1.53321e-09
-2.17008e-09
4.79749e-09
-1.77847e-09
-3.61551e-09
4.10043e-09
-1.92671e-09
-4.38549e-09
2.6691e-09
-1.95086e-09
-4.41367e-09
8.82234e-10
-1.79259e-09
-3.92216e-09
-7.80035e-10
-1.46406e-09
-3.17263e-09
-1.92444e-09
-1.05959e-09
-2.289e-09
-2.37034e-09
-6.84367e-10
-1.37736e-09
-2.08988e-09
-3.82014e-10
-4.19146e-10
-1.39644e-09
-1.55552e-10
5.00688e-10
-5.76389e-10
5.52674e-11
1.16858e-09
3.23146e-10
2.21065e-10
1.4112e-09
1.41788e-09
3.49772e-10
1.30145e-09
2.51032e-09
5.02691e-10
1.14002e-09
3.07126e-09
8.46745e-10
3.42697e-09
1.39584e-09
2.88133e-09
-7.77049e-09
2.88133e-09
-1.13739e-09
-1.8216e-09
1.78602e-09
-4.03546e-09
-1.86737e-09
1.36143e-09
-6.42127e-09
-1.33196e-09
7.08745e-10
-8.16298e-09
-6.75164e-10
2.2194e-12
-8.98354e-09
-1.66636e-10
-5.89479e-10
-8.68538e-09
4.20424e-11
-1.08596e-09
-7.17548e-09
-1.3185e-10
-1.41011e-09
-4.8188e-09
-3.42068e-10
-1.49699e-09
-2.23423e-09
-2.10767e-10
-1.45915e-09
-6.30533e-11
6.12294e-10
-1.36616e-09
1.34479e-09
2.07083e-09
-1.34568e-09
1.77864e-09
4.05667e-09
-1.45808e-09
1.45473e-09
5.88673e-09
-1.62306e-09
6.96902e-10
7.05241e-09
-1.73024e-09
-1.03223e-10
7.21525e-09
-1.78768e-09
-7.25696e-10
6.26728e-09
-1.67042e-09
-1.10135e-09
4.3311e-09
-1.36123e-09
-1.3033e-09
2.00662e-09
-9.54816e-10
-1.40563e-09
-1.14815e-10
-5.74684e-10
-1.44428e-09
-1.62488e-09
-2.78274e-10
-1.43264e-09
-2.34053e-09
-8.25138e-11
-1.16227e-09
-2.41538e-09
-1.16664e-11
-5.67815e-10
-2.0402e-09
-2.99113e-11
1.79819e-10
-1.41315e-09
1.71009e-11
7.89427e-10
-5.03182e-10
1.68216e-10
1.15795e-09
6.24293e-10
4.10993e-10
1.33611e-09
1.53681e-09
8.25212e-10
1.09184e-09
2.09428e-09
1.29832e-09
3.55314e-09
1.03501e-09
1.42111e-09
-1.08964e-08
1.42111e-09
-2.82163e-09
1.69295e-09
7.77538e-11
-5.6715e-09
8.47183e-10
-4.63053e-10
-7.7738e-09
1.13621e-09
-9.37907e-10
-9.0889e-09
1.45373e-09
-1.33131e-09
-9.36119e-09
1.18898e-09
-1.52242e-09
-8.48718e-09
3.58311e-10
-1.53888e-09
-6.62117e-09
-8.27518e-10
-1.43079e-09
-4.37221e-09
-1.62753e-09
-1.15067e-09
-2.20801e-09
-1.59808e-09
-9.12728e-10
-4.95862e-10
-4.35237e-10
-7.70792e-10
6.42217e-10
1.63823e-09
-7.9648e-10
1.34226e-09
4.20742e-09
-9.30382e-10
1.76313e-09
6.47542e-09
-1.07228e-09
2.03476e-09
7.80214e-09
-1.05909e-09
2.23067e-09
7.86389e-09
-8.55623e-10
2.29253e-09
6.69979e-09
-4.90237e-10
2.06103e-09
4.59373e-09
-3.7922e-11
1.45816e-09
2.19363e-09
3.64014e-10
5.31806e-10
1.06031e-10
5.79323e-10
-4.9887e-10
-1.36583e-09
5.60726e-10
-1.2778e-09
-2.16211e-09
3.20236e-10
-1.53425e-09
-2.48005e-09
7.54913e-12
-1.25535e-09
-2.40589e-09
-2.18639e-10
-7.0377e-10
-1.96152e-09
-2.70842e-10
-1.85749e-10
-1.05457e-09
-1.86682e-10
1.50367e-10
1.17282e-10
-8.12463e-12
1.60991e-10
1.19291e-09
1.76571e-10
-4.03994e-10
2.54894e-09
-6.20192e-11
3.73445e-09
-8.35954e-10
-7.83106e-10
-9.73393e-09
-7.83106e-10
-3.80731e-09
5.7869e-09
-1.77369e-09
-5.68271e-09
3.93098e-09
-1.83008e-09
-6.80468e-09
3.67752e-09
-1.97425e-09
-7.08068e-09
3.0945e-09
-1.82635e-09
-6.46532e-09
1.76203e-09
-1.54347e-09
-5.20962e-09
-5.97923e-11
-1.0904e-09
-3.73967e-09
-1.88809e-09
-5.78517e-10
-2.36355e-09
-2.96515e-09
-1.50096e-10
-1.33911e-09
-2.79904e-09
9.81309e-11
-6.46627e-10
-1.29909e-09
1.11254e-10
-4.74769e-11
1.10067e-09
-1.05692e-10
7.3644e-10
3.72e-09
-3.17521e-10
1.76333e-09
5.88551e-09
-4.2723e-10
2.85673e-09
7.04771e-09
-3.01094e-10
3.73801e-09
7.02096e-09
6.39848e-12
4.11667e-09
5.90368e-09
4.29414e-10
3.73314e-09
4.13773e-09
7.70653e-10
2.61014e-09
2.21722e-09
9.10472e-10
1.06677e-09
5.16389e-10
8.10574e-10
-4.44507e-10
-7.98089e-10
5.08382e-10
-1.49026e-09
-1.77161e-09
1.555e-10
-1.92385e-09
-2.46421e-09
-9.11967e-11
-1.90362e-09
-2.75655e-09
-1.48217e-10
-1.74373e-09
-2.44032e-09
-1.19304e-10
-1.6459e-09
-1.46565e-09
-1.00791e-10
-1.68006e-09
-1.05539e-10
-1.6333e-10
-1.94848e-09
1.47077e-09
-4.72864e-10
-2.06918e-09
3.15878e-09
-1.03226e-09
2.19227e-09
-1.07469e-09
-2.343e-09
-5.465e-09
-2.343e-09
-3.41041e-09
8.83691e-09
-2.53207e-09
-3.82941e-09
6.16628e-09
-2.2678e-09
-3.58688e-09
5.12789e-09
-2.0537e-09
-2.77154e-09
3.55593e-09
-1.53706e-09
-1.68561e-09
1.38872e-09
-8.81434e-10
-6.40357e-10
-9.81879e-10
-2.25914e-10
-5.49338e-11
-2.83031e-09
2.87185e-10
-2.20036e-11
-3.61524e-09
5.51832e-10
-4.10886e-10
-3.00676e-09
5.20788e-10
-7.60597e-10
-1.2584e-09
2.26297e-10
-5.86247e-10
1.05586e-09
-2.01159e-10
2.11234e-10
3.27434e-09
-3.91073e-10
1.51047e-09
4.94856e-09
-3.59387e-10
2.91966e-09
5.82427e-09
-1.5349e-10
3.9399e-09
5.86063e-09
1.64292e-10
4.19807e-09
5.16711e-09
4.42903e-10
3.56727e-09
4.04603e-09
5.81459e-10
2.29819e-09
2.6928e-09
5.2672e-10
8.16616e-10
1.27815e-09
3.42968e-10
-4.76731e-10
-8.5968e-11
1.39452e-10
-1.35318e-09
-1.45583e-09
1.07283e-10
-1.8548e-09
-2.61786e-09
2.26303e-10
-2.25204e-09
-3.18654e-09
4.26256e-10
-2.73849e-09
-2.86991e-09
5.1869e-10
-3.23267e-09
-1.85237e-09
4.53983e-10
-3.54611e-09
-4.85291e-10
2.12882e-10
-3.48672e-09
9.9829e-10
-1.2567e-10
-2.34554e-09
1.59328e-09
-1.43151e-10
-1.01368e-09
4.7991e-10
-2.49574e-09
-7.73396e-10
-2.49574e-09
-1.6938e-09
9.8265e-09
-2.01994e-09
-7.39046e-10
6.79008e-09
-1.72294e-09
4.09071e-10
5.2687e-09
-1.35405e-09
1.66596e-09
3.12083e-09
-8.23051e-10
2.73899e-09
6.28634e-10
-2.82558e-10
3.21081e-09
-1.5162e-09
8.50491e-11
2.80455e-09
-2.75824e-09
3.15104e-10
1.70193e-09
-2.85257e-09
2.63365e-10
4.26898e-10
-1.87196e-09
1.46057e-11
-4.39564e-10
-3.11167e-10
-2.25387e-10
-4.87818e-10
1.34807e-09
-3.68188e-10
1.98812e-10
2.84745e-09
-3.32076e-10
1.33305e-09
3.94075e-09
-1.38549e-10
2.44061e-09
4.61508e-09
1.29516e-10
3.08162e-09
4.86643e-09
3.80518e-10
3.04892e-09
4.68025e-09
5.04825e-10
2.40113e-09
4.12049e-09
4.94719e-10
1.40448e-09
3.1603e-09
3.96381e-10
3.91436e-10
1.802e-09
3.37358e-10
-4.57952e-10
2.58027e-10
3.73695e-10
-1.14459e-09
-1.40677e-09
5.44541e-10
-1.91796e-09
-2.66488e-09
7.51225e-10
-2.87743e-09
-3.12573e-09
8.14636e-10
-3.80719e-09
-2.75796e-09
6.82862e-10
-4.34361e-09
-1.98677e-09
4.77607e-10
-4.22226e-09
-1.20554e-09
3.76486e-10
-3.23584e-09
-7.42158e-10
5.6059e-10
-1.20391e-09
-1.58285e-09
1.06107e-09
-3.49118e-09
1.42602e-09
-1.66985e-09
2.47793e-09
-1.66985e-09
4.10394e-10
8.89011e-09
-1.02368e-09
1.93589e-09
6.32136e-09
-9.00325e-10
3.46851e-09
4.50324e-09
-5.8092e-10
4.84359e-09
2.18294e-09
-2.55016e-10
5.65112e-09
-7.68628e-12
-3.35095e-11
5.57119e-09
-1.52986e-09
1.52675e-10
4.62768e-09
-2.0668e-09
2.16741e-10
3.15889e-09
-1.67955e-09
1.76427e-10
1.70617e-09
-7.20029e-10
1.32711e-10
7.46555e-10
3.2329e-10
1.57678e-10
4.73212e-10
1.19051e-09
3.09802e-10
7.04416e-10
1.99127e-09
5.75455e-10
1.12339e-09
2.65127e-09
8.88964e-10
1.41908e-09
3.26463e-09
1.11482e-09
1.44139e-09
3.74249e-09
1.17216e-09
1.17049e-09
3.95817e-09
1.05848e-09
7.32734e-10
3.72927e-09
9.00329e-10
2.13172e-10
2.96775e-09
8.1936e-10
-3.83977e-10
1.7518e-09
8.17544e-10
-1.05444e-09
2.36041e-10
9.25488e-10
-1.99791e-09
-1.16055e-09
9.56498e-10
-3.25042e-09
-1.95034e-09
7.65763e-10
-4.46433e-09
-2.046e-09
2.8683e-10
-5.08504e-09
-1.90997e-09
-1.46948e-10
-4.85633e-09
-1.92594e-09
-2.26271e-10
-3.77528e-09
-2.0889e-09
-7.02713e-11
-2.00202e-09
-2.48051e-09
2.24687e-10
-5.52732e-10
-3.11078e-09
4.88998e-10
-3.52933e-09
-9.99985e-11
-5.60839e-10
3.71861e-09
-5.60839e-10
1.89217e-09
6.9228e-09
-1.55566e-10
3.74994e-09
4.86735e-09
-1.02122e-10
5.51659e-09
2.93433e-09
7.15298e-11
6.883e-09
7.30359e-10
2.91849e-10
7.52722e-09
-1.07907e-09
5.43647e-10
7.29087e-09
-2.02004e-09
7.44093e-10
6.29865e-09
-2.03197e-09
8.88716e-10
4.94103e-09
-1.44053e-09
9.9757e-10
3.61979e-09
-6.85856e-10
1.15984e-09
2.5541e-09
-1.37008e-10
1.43532e-09
1.73282e-09
2.18719e-10
1.76236e-09
9.93531e-10
6.90722e-10
2.06531e-09
3.09052e-10
1.32003e-09
2.07253e-09
-3.32604e-10
2.11346e-09
1.85337e-09
-7.95208e-10
2.73597e-09
1.5238e-09
-1.04846e-09
3.09372e-09
1.18498e-09
-1.2199e-09
3.03547e-09
9.82121e-10
-1.45371e-09
2.49757e-09
9.00245e-10
-1.94069e-09
1.59481e-09
9.15448e-10
-2.87495e-09
6.1947e-10
8.50666e-10
-4.20899e-09
-7.19299e-11
5.04252e-10
-5.49003e-09
-4.69466e-10
-3.25247e-11
-6.16246e-09
-9.59015e-10
-3.32667e-10
-5.80408e-09
-1.82779e-09
-3.76552e-10
-4.60046e-09
-2.73178e-09
-2.60839e-10
-2.96348e-09
-3.36479e-09
-9.6327e-11
-1.47714e-09
-3.57078e-09
-2.64502e-11
-8.9732e-10
-2.99915e-09
-3.22025e-10
-3.79456e-09
-4.93806e-10
2.25445e-10
3.48479e-09
2.25445e-10
3.03031e-09
3.85474e-09
5.89434e-10
5.16115e-09
2.22999e-09
7.60359e-10
7.01937e-09
2.20393e-10
1.04446e-09
8.31116e-09
-1.79352e-09
1.34591e-09
8.81462e-09
-3.14328e-09
1.60187e-09
8.52004e-09
-3.51907e-09
1.77963e-09
7.62832e-09
-3.14485e-09
1.96689e-09
6.43835e-09
-2.38373e-09
2.10834e-09
5.13116e-09
-1.64915e-09
2.2867e-09
3.71607e-09
-1.1346e-09
2.47599e-09
2.11808e-09
-5.52176e-10
2.45769e-09
4.17652e-10
2.69352e-10
2.19536e-09
-1.10568e-09
1.14934e-09
1.71398e-09
-2.17419e-09
2.01357e-09
1.12261e-09
-2.6972e-09
2.50287e-09
6.70365e-10
-2.82514e-09
2.6742e-09
4.74495e-10
-2.90588e-09
2.72068e-09
3.8435e-10
-3.25757e-09
2.518e-09
3.94499e-10
-4.09932e-09
2.25397e-09
2.8362e-10
-5.30195e-09
1.91823e-09
-2.27854e-11
-6.50312e-09
1.44452e-09
-3.19074e-10
-7.05969e-09
4.45246e-10
-4.31563e-10
-6.59806e-09
-1.18732e-09
-3.07711e-10
-5.34978e-09
-3.10617e-09
4.08623e-11
-3.91749e-09
-4.52385e-09
4.91344e-10
-2.72537e-09
-5.05663e-09
6.97514e-10
-1.85882e-09
-4.8108e-09
5.18125e-10
-1.12237e-09
-3.89322e-09
1.50795e-10
-5.27444e-09
2.22182e-10
1.17305e-09
1.31679e-09
1.17305e-09
4.15756e-09
-5.53858e-10
1.61845e-09
6.48055e-09
-1.85188e-09
1.88637e-09
8.26392e-09
-3.68372e-09
2.19935e-09
9.24694e-09
-5.22558e-09
2.48905e-09
9.36714e-09
-5.86935e-09
2.62754e-09
8.85183e-09
-5.56196e-09
2.59011e-09
7.95986e-09
-4.62768e-09
2.44614e-09
6.8462e-09
-3.44697e-09
2.30442e-09
5.44445e-09
-2.2509e-09
2.17838e-09
3.63156e-09
-1.08529e-09
1.94614e-09
1.50231e-09
1.43629e-10
1.56292e-09
-6.27248e-10
1.42275e-09
9.9526e-10
-2.26252e-09
2.13214e-09
5.36904e-10
-3.18006e-09
2.39324e-09
3.13111e-10
-3.52628e-09
2.34278e-09
2.38626e-10
-3.71987e-09
2.32236e-09
3.08488e-10
-4.17043e-09
2.636e-09
3.6997e-10
-5.10783e-09
3.07877e-09
2.711e-10
-6.31142e-09
3.37888e-09
-1.58026e-11
-7.38247e-09
3.19375e-09
-3.28266e-10
-7.79352e-09
2.11772e-09
-4.05309e-10
-7.22483e-09
4.12524e-12
-2.25723e-10
-5.93389e-09
-2.82269e-09
3.65101e-10
-4.72537e-09
-5.20357e-09
1.04269e-09
-3.99256e-09
-6.37554e-09
1.32266e-09
-3.35001e-09
-6.75309e-09
1.176e-09
-2.53872e-09
-6.61269e-09
9.65656e-10
-1.2377e-09
-6.17361e-09
8.91417e-10
-7.31033e-09
8.52797e-10
2.14623e-09
-2.89338e-09
2.14623e-09
5.24547e-09
-6.13981e-09
2.59473e-09
7.57653e-09
-7.01102e-09
2.90659e-09
9.01053e-09
-8.21974e-09
3.16515e-09
9.45126e-09
-8.77595e-09
3.16661e-09
9.09742e-09
-8.37564e-09
2.92912e-09
8.35129e-09
-7.21352e-09
2.50212e-09
7.48962e-09
-5.71761e-09
2.10843e-09
6.44108e-09
-4.03056e-09
1.83621e-09
5.01968e-09
-2.23488e-09
1.6196e-09
3.12942e-09
-3.83997e-10
1.34898e-09
1.01423e-09
1.24495e-09
1.05142e-09
-8.01945e-10
2.27169e-09
8.43466e-10
-2.03406e-09
2.37278e-09
7.20921e-10
-2.75595e-09
1.9686e-09
7.95185e-10
-3.30518e-09
1.55855e-09
9.86957e-10
-4.13536e-09
1.63996e-09
1.232e-09
-5.40856e-09
2.4567e-09
1.24669e-09
-6.86637e-09
3.48328e-09
8.89206e-10
-8.02101e-09
3.89911e-09
4.80472e-10
-8.50978e-09
3.18302e-09
3.69243e-10
-8.01487e-09
9.8763e-10
5.90837e-10
-6.85817e-09
-2.19316e-09
1.14537e-09
-5.95035e-09
-5.20914e-09
1.7309e-09
-5.6896e-09
-7.11728e-09
1.95698e-09
-5.49131e-09
-7.93457e-09
1.57447e-09
-4.84765e-09
-8.49428e-09
1.16347e-09
-3.46916e-09
-9.01114e-09
1.06038e-09
-1.5643e-09
-9.04377e-09
1.16449e-09
-1.0072e-08
1.51122e-09
2.97352e-09
-8.7959e-09
2.97352e-09
6.055e-09
-1.24757e-08
3.41086e-09
8.193e-09
-1.26685e-08
3.66147e-09
9.19694e-09
-1.27321e-08
3.63048e-09
9.19202e-09
-1.20044e-08
3.32923e-09
8.62605e-09
-1.05725e-08
2.84394e-09
7.94507e-09
-8.86218e-09
2.41867e-09
7.1868e-09
-6.97228e-09
2.12617e-09
6.22682e-09
-4.9035e-09
1.9611e-09
4.86285e-09
-2.59481e-09
1.82584e-09
3.16968e-09
-3.11791e-10
1.63757e-09
1.45991e-09
1.37221e-09
1.46825e-09
1.17031e-10
1.93432e-09
1.43338e-09
-8.36657e-10
1.43514e-09
1.56137e-09
-1.65295e-09
5.68107e-10
1.88034e-09
-2.90698e-09
3.72786e-10
2.15716e-09
-4.6446e-09
1.06874e-09
2.09144e-09
-6.52373e-09
2.46522e-09
1.68621e-09
-7.9471e-09
3.4254e-09
1.29683e-09
-8.62553e-09
3.10806e-09
1.29783e-09
-8.35685e-09
1.15978e-09
1.66053e-09
-7.61615e-09
-2.02357e-09
2.32136e-09
-7.22002e-09
-5.36855e-09
2.97383e-09
-7.56616e-09
-7.71287e-09
3.09116e-09
-7.93156e-09
-9.21876e-09
2.62437e-09
-7.63872e-09
-1.03319e-08
2.12303e-09
-6.50091e-09
-1.14419e-08
1.80036e-09
-4.40275e-09
-1.26965e-08
1.7546e-09
-1.31305e-09
-1.39879e-08
2.18738e-09
-1.48092e-08
3.5893e-09
3.6932e-09
-1.60838e-08
3.6932e-09
6.52519e-09
-1.91122e-08
4.06438e-09
8.42175e-09
-1.84341e-08
4.07805e-09
9.17738e-09
-1.71525e-08
3.80265e-09
9.09158e-09
-1.52573e-08
3.39552e-09
8.66352e-09
-1.31141e-08
2.96725e-09
8.13405e-09
-1.09933e-08
2.63678e-09
7.47175e-09
-8.76793e-09
2.44019e-09
6.47622e-09
-6.20129e-09
2.27854e-09
5.13141e-09
-3.34349e-09
2.04833e-09
3.70022e-09
-7.5628e-10
1.76019e-09
2.46557e-09
7.67828e-10
1.63865e-09
1.56583e-09
8.70563e-10
1.70645e-09
6.14414e-10
2.09679e-10
1.91991e-09
-8.72881e-10
-2.58861e-10
2.1039e-09
-2.97658e-09
2.88712e-10
2.02522e-09
-5.25113e-09
1.57286e-09
1.61186e-09
-6.96928e-09
2.61349e-09
1.3691e-09
-7.83509e-09
2.52937e-09
1.52333e-09
-7.79979e-09
8.14549e-10
2.04982e-09
-7.47882e-09
-2.13374e-09
2.87504e-09
-7.61907e-09
-5.46772e-09
3.61621e-09
-8.56552e-09
-8.15691e-09
3.81888e-09
-9.75422e-09
-9.8853e-09
3.37126e-09
-1.00325e-08
-1.20176e-08
2.96548e-09
-9.13538e-09
-1.4411e-08
3.04824e-09
-7.46864e-09
-1.61063e-08
3.0098e-09
-4.69055e-09
-1.83348e-08
3.04721e-09
-7.40734e-10
-2.1701e-08
3.87437e-09
-2.0615e-08
4.99398e-09
4.3057e-09
-2.45254e-08
4.3057e-09
6.69311e-09
-2.55877e-08
4.36925e-09
8.37483e-09
-2.40221e-08
4.08662e-09
9.23715e-09
-2.16237e-08
3.67578e-09
9.52797e-09
-1.88001e-08
3.21565e-09
9.5143e-09
-1.60321e-08
2.83447e-09
9.22216e-09
-1.33971e-08
2.58659e-09
8.50609e-09
-1.05285e-08
2.38084e-09
7.35438e-09
-7.23403e-09
2.09326e-09
6.00104e-09
-3.84142e-09
1.73574e-09
4.81487e-09
-1.31333e-09
1.58435e-09
3.95721e-09
-2.08181e-10
1.64641e-09
3.09217e-09
-2.90901e-10
1.85482e-09
1.69671e-09
-6.51433e-10
2.13937e-09
-5.34574e-10
-3.04192e-10
2.20975e-09
-3.07145e-09
7.19227e-10
2.0363e-09
-5.22674e-09
1.68827e-09
1.90405e-09
-6.49172e-09
1.63946e-09
2.02622e-09
-6.91994e-09
2.26088e-10
2.50708e-09
-7.05462e-09
-2.43369e-09
3.24285e-09
-7.76122e-09
-5.23231e-09
3.78985e-09
-9.22783e-09
-7.72558e-09
3.77552e-09
-1.08332e-08
-9.96061e-09
3.42331e-09
-1.17488e-08
-1.21035e-08
3.04466e-09
-1.1368e-08
-1.54537e-08
2.92661e-09
-9.80055e-09
-1.93273e-08
3.33764e-09
-7.57123e-09
-2.20116e-08
3.80915e-09
-4.59916e-09
-2.53702e-08
4.13547e-09
-1.48058e-09
-2.92331e-08
4.30027e-09
-2.49124e-08
2.81321e-09
4.33626e-09
-3.3023e-08
4.33626e-09
6.59788e-09
-3.17066e-08
4.04513e-09
8.49131e-09
-2.93947e-08
3.56215e-09
9.91599e-09
-2.61295e-08
3.06777e-09
1.09481e-08
-2.26166e-08
2.70583e-09
1.15254e-08
-1.92492e-08
2.54098e-09
1.14278e-08
-1.58636e-08
2.47487e-09
1.05869e-08
-1.21204e-08
2.35264e-09
9.29232e-09
-8.17377e-09
2.13967e-09
8.0455e-09
-4.75512e-09
2.03277e-09
7.10909e-09
-2.59967e-09
2.07435e-09
6.30399e-09
-1.87473e-09
2.34816e-09
4.97787e-09
-1.73728e-09
2.72002e-09
2.76944e-09
-1.39014e-09