/*--------------------------------*- C++ -*----------------------------------*\
| =========                 |                                                 |
| \\      /  F ield         | OpenFOAM: The Open Source CFD Toolbox           |
|  \\    /   O peration     | Version:  2312                                  |
|   \\  /    A nd           | Website:  www.openfoam.com                      |
|    \\/     M anipulation  |                                                 |
\*---------------------------------------------------------------------------*/
FoamFile
{
    version     2.0;
    format      ascii;
    arch        "LSB;label=32;scalar=64";
    class       volScalarField;
    location    "0.862544";
    object      alpha.water;
}
// * * * * * * * * * * * * * * * * * * * * * * * * * * * * * * * * * * * * * //

dimensions      [0 0 0 0 0 0 0];

internalField   nonuniform List<scalar> 
90000
(
1
1.00004
1.00004
1.00003
1.00003
1.00002
1.00002
1.00001
1.00001
0.999998
0.999991
0.999986
0.999985
0.999987
0.999992
0.999999
1.00001
1.00002
1.00002
1.00002
1.00002
1.00001
1
0.999999
0.999998
1
1.00001
1.00002
1.00003
1.00004
1.00005
1.00007
1.00006
1.00005
1.00004
1.00003
1.00002
1.00001
1
0.99999
0.999982
0.999979
0.999981
0.999988
0.999999
1.00001
1.00002
1.00003
1.00003
1.00003
1.00002
1.00001
1
1
1.00001
1.00002
1.00003
1.00002
0.99995
0.999685
1.00003
1.00004
1.00004
1.00003
1.00003
1.00002
1.00002
1.00001
1.00001
1
0.999998
0.999995
0.999995
0.999997
1
1
1.00001
1.00001
1.00001
1.00001
1
1
1
1.00001
1.00001
1.00003
1.00006
1.00014
1.00027
0.999987
1.00002
1.00002
1.00001
1.00001
1.00002
1.00002
1.00002
1.00002
1.00002
1.00002
1.00002
1.00001
1.00001
1.00001
1
0.999995
0.99999
0.999987
0.999987
0.999989
0.999993
0.999999
1.00001
1.00001
1.00002
1.00002
1
0.999984
1.0001
1.00001
1.00001
0.999992
0.999995
0.999998
1
1.00001
1.00002
1.00002
1.00003
1.00003
1.00003
1.00003
1.00002
1.00001
1
0.999988
0.999979
0.999974
0.999975
0.999982
0.999991
1
1.00001
1.00002
1.00002
1.00003
1.00003
0.999989
1.00001
0.999982
0.999992
0.999972
0.999977
0.999983
0.99999
1
1.00001
1.00002
1.00003
1.00004
1.00004
1.00004
1.00003
1.00002
1
0.999989
0.999979
0.999975
0.999977
0.999986
0.999997
1.00001
1.00002
1.00002
1.00001
1
1
0.999975
0.999967
0.999958
0.99998
0.999959
0.999965
0.999971
0.999978
0.999988
0.999999
1.00001
1.00002
1.00003
1.00003
1.00003
1.00002
1.00002
1.00001
0.999997
0.99999
0.999988
0.999991
0.999998
1.00001
1.00001
1.00002
1.00001
1.00001
0.999991
0.999977
0.999961
0.999953
0.999962
0.999973
0.999956
0.999962
0.999965
0.999971
0.999978
0.999986
0.999994
1
1.00001
1.00001
1.00002
1.00002
1.00002
1.00002
1.00001
1.00001
1.00001
1.00001
1.00001
1.00001
1.00001
1.00001
1
0.999992
0.999981
0.99997
0.999966
0.99997
0.999989
0.999973
0.999968
0.999971
0.999973
0.999976
0.999979
0.999983
0.999986
0.99999
0.999995
1
1.00001
1.00001
1.00002
1.00003
1.00003
1.00003
1.00003
1.00003
1.00002
1.00001
1
0.999994
0.999985
0.999977
0.999973
0.999974
0.999982
0.999995
1.00001
0.999982
0.999996
0.999996
0.999997
0.999997
0.999996
0.999994
0.999992
0.999991
0.999992
0.999996
1
1.00002
1.00003
1.00004
1.00005
1.00005
1.00004
1.00003
1.00002
1
0.999991
0.99998
0.999972
0.999968
0.999971
0.999979
0.999992
1
0.999996
1
1.00004
1.00003
1.00003
1.00003
1.00002
1.00001
1.00001
0.999999
0.999995
0.999997
1
1.00001
1.00003
1.00004
1.00004
1.00004
1.00003
1.00002
1.00001
0.999995
0.999984
0.999975
0.999972
0.999973
0.999979
0.999987
0.999992
0.999987
0.99998
1.00003
1.00007
1.00006
1.00006
1.00005
1.00004
1.00003
1.00001
1
0.999993
0.99999
0.999992
0.999998
1
1.00001
1.00001
1.00001
1.00001
1
0.999996
0.99999
0.999987
0.999986
0.999987
0.99999
0.999994
0.999996
0.999991
0.999982
0.999984
1.00005
1.00008
1.00007
1.00006
1.00005
1.00004
1.00002
1
0.999991
0.999982
0.999977
0.999975
0.999974
0.999975
0.999976
0.999977
0.999979
0.999982
0.999987
0.999992
0.999997
1
1.00001
1.00001
1.00001
1.00001
1
0.999994
0.999992
1
1.00005
1.00006
1.00005
1.00004
1.00002
1.00001
0.999997
0.999988
0.99998
0.999975
0.999971
0.999966
0.999962
0.999959
0.999957
0.999959
0.999966
0.999977
0.99999
1
1.00002
1.00002
1.00002
1.00002
1.00002
1.00001
1
0.999996
1
1
1.00003
1.00001
1
0.999993
0.999986
0.999982
0.999981
0.999982
0.999983
0.999984
0.999982
0.999977
0.99997
0.999964
0.999961
0.999965
0.999975
0.999989
1.00001
1.00002
1.00003
1.00003
1.00003
1.00002
1.00002
1.00001
1
1
1
0.999989
0.999998
0.99996
0.999961
0.999961
0.999963
0.99997
0.999979
0.99999
0.999998
1
0.999999
0.999992
0.999983
0.999975
0.999972
0.999975
0.999984
0.999997
1.00001
1.00002
1.00003
1.00003
1.00003
1.00002
1.00002
1.00001
1.00001
1.00001
1
0.999993
0.999971
0.999932
0.999941
0.999947
0.999957
0.999969
0.999984
0.999996
1
1.00001
1
0.999994
0.999984
0.999977
0.999974
0.999975
0.99998
0.999987
0.999994
0.999999
1
1.00001
1.00001
1.00002
1.00002
1.00002
1.00002
1.00001
1.00001
1.00001
0.999958
0.999925
0.999936
0.999945
0.999956
0.999968
0.999981
0.999991
0.999997
0.999998
0.999995
0.999989
0.999984
0.999979
0.999976
0.999975
0.999974
0.999974
0.999975
0.999977
0.999981
0.999988
0.999995
1
1
1
1
0.999997
1
1.00001
0.999957
0.99993
0.99994
0.999947
0.999957
0.999968
0.999979
0.999987
0.999993
0.999997
0.999999
1
0.999999
0.999997
0.999993
0.999987
0.999981
0.999975
0.999972
0.999972
0.999976
0.99998
0.999982
0.99998
0.999975
0.999971
0.999967
0.999965
0.999969
0.999962
0.99996
0.999942
0.99995
0.999959
0.999969
0.999981
0.999992
1
1.00001
1.00001
1.00002
1.00002
1.00002
1.00002
1.00001
0.999999
0.99999
0.999983
0.99998
0.999979
0.99998
0.999978
0.999973
0.999967
0.999963
0.999961
0.999959
0.999957
0.999952
0.99995
0.999968
0.999964
0.999974
0.999985
0.999997
1.00001
1.00002
1.00002
1.00002
1.00003
1.00003
1.00002
1.00002
1.00001
1
0.999995
0.99999
0.999987
0.999986
0.999984
0.999981
0.999975
0.99997
0.99997
0.999976
0.999981
0.999982
0.999979
0.999972
0.999984
0.999983
0.999993
1
1.00001
1.00002
1.00003
1.00003
1.00002
1.00002
1.00001
1.00001
1
0.999995
0.999992
0.999992
0.999994
0.999997
0.999998
0.999996
0.999989
0.999981
0.999975
0.999977
0.999986
0.999995
0.999998
0.999996
0.999994
0.999992
0.999997
1
1.00001
1.00002
1.00002
1.00002
1.00002
1.00002
1.00001
1
0.999992
0.999987
0.999986
0.999988
0.999995
1.00001
1.00001
1.00002
1.00002
1.00001
0.999998
0.999991
0.999991
0.999999
1.00001
1.00001
1
0.999995
0.999992
0.999986
0.999981
1.00001
1.00001
1.00001
1.00002
1.00002
1.00001
1.00001
1
0.999997
0.999993
0.999991
0.999994
1
1.00001
1.00002
1.00003
1.00003
1.00002
1.00001
1
1.00001
1.00002
1.00003
1.00003
1.00002
1.00001
1.00001
1
0.999992
1.00001
1.00001
1.00001
1.00001
1.00001
1.00001
1.00001
1.00001
1.00001
1
0.999998
0.999996
0.999998
1
1.00001
1.00002
1.00001
1.00001
1
0.999999
1.00001
1.00002
1.00003
1.00003
1.00002
1.00002
1.00002
1.00003
1.00002
1.00003
1.00005
1
1
1
1.00001
1.00001
1.00001
1.00001
1
0.999995
0.999989
0.999986
0.999988
0.999994
0.999998
0.999999
0.999996
0.999993
0.999996
1.00001
1.00002
1.00002
1.00002
1.00001
1.00001
1.00001
1.00002
1.00002
1.00003
1.00006
1.00003
1
0.999996
0.999997
0.999995
0.999994
0.999992
0.999989
0.999986
0.999983
0.999982
0.999985
0.999991
0.999998
1
1
1
1
1.00001
1.00002
1.00002
1.00001
0.999999
0.999993
0.999996
1.00001
1.00002
1.00001
1.00003
1.00003
0.999987
0.999996
0.999986
0.999984
0.999982
0.99998
0.99998
0.999981
0.999982
0.999985
0.99999
0.999996
1
1
1
0.999999
1
1.00001
1.00001
1.00001
0.999996
0.999983
0.999981
0.999992
1
1.00001
1.00001
1.00001
1.00001
0.999996
1.00001
0.999989
0.999983
0.999984
0.999983
0.999983
0.999983
0.999982
0.999983
0.999986
0.99999
0.999994
0.999995
0.999991
0.999988
0.999988
0.999993
0.999997
0.999993
0.999982
0.999971
0.999969
0.99998
0.999997
0.999998
0.999992
0.999999
1
0.999989
1
1.00003
0.99999
0.999997
0.999997
0.999993
0.999986
0.999979
0.999974
0.999973
0.999977
0.999983
0.999988
0.999988
0.999987
0.999988
0.999993
0.999998
0.999995
0.999984
0.999973
0.999975
0.999984
0.999987
0.999991
0.999982
0.999975
0.999989
0.999996
0.999993
1.00002
1
1
1.00001
1
0.99999
0.999979
0.999971
0.999969
0.999973
0.999982
0.999991
0.999996
0.999997
0.999998
0.999999
1
0.999998
0.999989
0.999979
0.999977
0.999988
0.999998
0.999982
0.999974
0.999979
0.999981
0.999991
1
1.00001
1
0.999991
1.00001
1.00001
0.999998
0.999989
0.999982
0.99998
0.999981
0.999985
0.999991
0.999994
0.999994
0.999993
0.999994
0.999995
0.999993
0.999986
0.99998
0.999983
0.999989
0.999993
0.999993
0.999969
0.999969
0.99999
0.99999
0.999988
1.00001
1
0.999977
1
1.00001
1.00001
1
1
0.999995
0.99999
0.999985
0.999982
0.999982
0.999982
0.999984
0.999988
0.999994
0.999999
0.999998
0.999993
0.999992
1
1
0.999984
0.999979
0.999969
0.99998
0.999996
0.999985
0.999981
0.999998
0.999984
0.999998
1.00001
1.00001
1.00002
1.00001
1.00001
0.999996
0.999986
0.999979
0.999979
0.999981
0.999987
0.999994
1
1.00001
1.00001
1
0.999998
0.999993
0.999996
0.999992
0.999965
0.999975
0.999989
0.999993
0.999987
0.999983
0.999992
1
1
1.00001
1.00001
1.00001
1.00002
1.00001
1
0.999994
0.99999
0.99999
0.999992
0.999994
0.999996
1
1
0.999999
0.999991
0.999987
0.999991
0.999988
0.999987
0.999992
0.999981
1
1.00002
0.999998
0.999986
1
1.00001
1.00001
1.00001
1
1.00001
1.00001
1.00001
1.00001
1
1
1
0.999998
0.999996
0.999993
0.999992
0.999992
0.999993
0.999994
0.999992
0.999992
1.00001
1.00001
0.999998
1.00001
1.00001
1.00002
1.00001
0.999989
0.999999
1.00003
1.00001
1
0.999995
1.00001
1.00001
1.00001
1.00001
1.00001
1.00001
1
0.999999
0.999997
0.999996
0.999995
0.999995
0.999996
0.999997
1
1.00001
1.00001
1.00002
1.00001
0.999996
1.00001
1.00001
1
0.99999
0.999993
1.00002
1.00002
0.999992
0.999995
1.00001
1.00002
1.00001
1.00001
1.00001
1.00001
1
1
1
1
0.999999
0.999995
0.999996
1
1
1
1.00001
1
1.00001
1
1
1.00001
1.00001
0.999997
1
1.00002
1.00002
0.999994
0.99999
1.00001
1.00002
1.00001
1.00001
1.00001
1.00001
1.00001
1.00001
1.00001
1
0.999998
0.999994
0.999994
0.999997
1
1.00001
0.999997
1.00001
0.999995
1
0.999997
1.00001
1.00002
1
0.999996
1.00001
1.00002
0.999995
0.999989
1.00001
1.00002
1
1.00001
1.00002
1
1.00001
1.00001
1.00001
1
0.999996
0.999996
1
1
1
1
1.00001
1
1.00001
0.999995
1
0.999998
1
1.00001
0.999996
1
1.00002
1.00001
0.999999
1.00001
1.00002
1
1
1.00003
1.00003
1.00001
1.00001
1
1
1
1.00001
1
0.999995
1
1.00001
1.00001
1
1
1.00001
1
1.00001
1.00002
1
1.00001
1
1.00002
1.00002
0.999998
1.00001
1.00001
0.999999
1.00001
1.00003
1.00003
1.00001
1.00001
1
1.00001
1.00001
1.00001
1
1
1
1.00001
0.999994
1.00001
0.999992
1.00001
1.00001
1.00001
0.999987
1.00001
1
1.00001
1
1.00001
1.00001
1
1.00001
1
0.999996
1.00001
1.00001
0.999997
0.999994
1
1.00001
1.00001
1
1
1
1.00001
1.00001
1.00001
0.999989
1.00001
1.00001
0.999997
0.99998
1
1.00001
1
0.999999
1.00001
1.00001
1.00001
1
1.00001
0.999996
0.999995
1.00001
0.999999
1.00001
1.00002
0.999997
1.00001
0.999999
0.999994
1.00001
1.00002
0.999997
1.00001
1
1
0.999998
0.999991
0.999994
1.00001
1.00002
0.999995
0.999998
1.00001
1.00001
1.00001
0.999997
1.00001
0.999999
0.999999
0.999991
1
1.00001
1
1.00002
1.00001
0.999982
0.999997
1
1
0.999995
1.00001
1.00002
1
0.999986
1
1.00002
0.999994
1
1.00001
0.999995
0.999991
1.00001
1.00002
0.999995
0.999989
1
1.00001
0.999999
0.999998
1.00001
0.999993
0.999996
1.00001
1
0.999981
0.999967
0.999995
0.999999
0.999997
0.999986
1
0.999999
0.999993
1.00002
0.999987
0.999983
1.00002
0.999996
0.99999
1
0.999993
1
0.999998
0.999997
0.999995
1.00001
0.999989
0.999998
1
0.999991
1
0.999997
0.999993
0.999999
0.999987
0.999926
0.999975
0.999949
0.999967
0.999979
0.999993
0.999994
0.999996
0.999999
0.999998
0.999996
0.99999
0.999984
1.00001
0.999988
0.999985
1.00001
0.999996
1.00001
1
0.999992
1.00001
1
0.999995
0.999995
0.999996
0.999986
0.999987
0.999986
0.999944
0.999909
0.999709
0.999259
0.999725
0.999856
0.999751
0.999893
0.999888
0.999964
0.999993
0.999996
0.999993
0.999995
1
0.999997
0.999981
0.999974
0.999998
0.999989
1
0.999996
1
0.999992
0.999961
0.999886
0.999896
0.999743
0.999864
0.999726
0.999291
0.999678
0.997513
0.992939
0.997414
0.998561
0.996217
0.998087
0.999702
0.994832
0.999315
0.999944
0.997798
0.999983
0.999998
0.999979
0.99998
0.99998
0.999973
0.999985
0.999991
0.997823
0.999951
0.999302
0.994764
0.999696
0.998069
0.996235
0.998637
0.997416
0.992996
0.997502
0.76649
0.596572
0.758977
0.820739
0.588932
0.649797
0.842714
0.557816
0.596117
0.838154
0.544448
0.776992
0.82289
0.651043
0.782137
0.778309
0.654525
0.818671
0.784069
0.545459
0.838306
0.595532
0.557419
0.843104
0.648153
0.589381
0.819884
0.75928
0.597437
0.766443
0.193122
0.0637536
0.148654
0.234143
0.0656805
0.0600189
0.22702
0.0429026
0.0437349
0.275541
0.0158067
0.110562
0.13605
0.0136902
0.102961
0.0976034
0.0139301
0.129015
0.11533
0.0161601
0.275914
0.0439524
0.042471
0.228223
0.0602939
0.06462
0.232827
0.149112
0.063909
0.192771
9.9726e-05
0.000421552
0.000923196
0.00635926
0.00385753
0.0078457
0.0205164
0.00596567
0.0113707
0.0146247
0.0042767
0.00237903
0.00548617
0.00130745
0.00316816
0.00316277
0.000812627
0.00537691
0.00189031
0.00423016
0.0150277
0.0113099
0.0059267
0.0207258
0.00796496
0.00385428
0.00596528
0.000868876
0.000412365
9.87633e-05
9.0155e-05
5.81414e-05
0.000147379
0.000393719
0.000247686
0.000832741
0.00203761
0.00052578
0.0013468
0.00295709
0.000435011
4.74303e-05
-3.56061e-05
0.000300471
0.000159622
8.07384e-05
0.00010482
-3.15423e-05
7.78885e-06
0.000395366
0.00295787
0.00123262
0.000515925
0.0020465
0.000838993
0.000250417
0.000353659
0.00013879
5.77993e-05
8.93257e-05
6.47796e-05
4.34326e-05
5.41552e-05
1.79481e-05
3.701e-05
0.000384019
0.000122352
4.52723e-05
0.000886596
0.000286867
0.000195875
7.60219e-06
1.58814e-05
9.69493e-05
3.63567e-05
2.73402e-05
8.72441e-05
1.51101e-05
7.42077e-06
0.000189326
0.000285115
0.000898199
4.51046e-05
0.000122622
0.000384482
3.86937e-05
1.7175e-05
5.38378e-05
4.37712e-05
6.44985e-05
1.28271e-06
2.47796e-06
3.46192e-06
4.59081e-06
9.46054e-06
2.97246e-05
6.04108e-06
1.91493e-05
7.0512e-05
3.12081e-05
1.65604e-05
6.30528e-06
1.58946e-05
1.49932e-05
1.34277e-05
1.28294e-05
1.77285e-05
1.55314e-05
6.33762e-06
1.67115e-05
3.0921e-05
7.39126e-05
1.97603e-05
5.9755e-06
2.97146e-05
9.51361e-06
4.67067e-06
3.62383e-06
2.68614e-06
1.25884e-06
1.14696e-06
2.2713e-06
2.02697e-06
1.13903e-06
6.13339e-07
4.95578e-07
2.68715e-07
3.3114e-07
1.29254e-06
3.08059e-06
1.23126e-06
3.10543e-06
6.5579e-06
8.45952e-06
1.13421e-05
1.15858e-05
8.50933e-06
6.58171e-06
3.16711e-06
1.23076e-06
3.04268e-06
1.42357e-06
3.27169e-07
2.64216e-07
4.8504e-07
6.19512e-07
1.15422e-06
2.03549e-06
2.19491e-06
1.12143e-06
1.47453e-07
2.18268e-07
1.90343e-07
1.38957e-07
7.22796e-08
1.86954e-08
1.68178e-08
1.63378e-08
7.24703e-08
2.23877e-07
1.32454e-07
2.0813e-07
2.18429e-07
8.78211e-07
2.54994e-06
2.92391e-06
8.97686e-07
2.12199e-07
2.17347e-07
1.31109e-07
2.20629e-07
7.16524e-08
1.61366e-08
1.62778e-08
1.88636e-08
7.20135e-08
1.40356e-07
1.90607e-07
2.25082e-07
1.51309e-07
1.35067e-08
4.13905e-08
2.36831e-08
1.43503e-08
6.92523e-09
2.15378e-09
9.60313e-10
6.95872e-10
3.33958e-09
1.19398e-08
9.69543e-09
1.04257e-08
3.27597e-08
8.3516e-08
1.36953e-07
1.27942e-07
7.91716e-08
3.18687e-08
1.03463e-08
9.56139e-09
1.16736e-08
3.2508e-09
7.42298e-10
9.16036e-10
2.0469e-09
6.97012e-09
1.42237e-08
2.37865e-08
4.14844e-08
1.3432e-08
1.66584e-09
4.02299e-09
2.44374e-09
1.18321e-09
5.49283e-10
2.82551e-10
1.03648e-10
8.96707e-11
1.37877e-10
5.34805e-10
5.26667e-10
7.83885e-10
3.21236e-09
1.03148e-08
1.9644e-08
1.83341e-08
9.76354e-09
3.13966e-09
7.80985e-10
5.14389e-10
5.1926e-10
1.33987e-10
8.89717e-11
9.36033e-11
2.58824e-10
5.46843e-10
1.20156e-09
2.48484e-09
4.08528e-09
1.64411e-09
2.57846e-10
4.95576e-10
2.97183e-10
1.50769e-10
7.53721e-11
4.02098e-11
2.38946e-11
1.08578e-11
9.74926e-12
2.45105e-11
3.07799e-11
5.00187e-11
2.12024e-10
8.04433e-10
1.77014e-09
1.65232e-09
7.62132e-10
2.0776e-10
5.12142e-11
3.11612e-11
2.3776e-11
9.53701e-12
1.06863e-11
2.19091e-11
3.47476e-11
7.00667e-11
1.51107e-10
2.97838e-10
4.97657e-10
2.60471e-10
3.22041e-11
6.11943e-11
3.44139e-11
1.70223e-11
9.36543e-12
3.89113e-12
1.90193e-12
1.30455e-12
1.10464e-12
1.87138e-12
3.12224e-12
5.86909e-12
1.76092e-11
4.62568e-11
1.05899e-10
9.91857e-11
4.5018e-11
1.75634e-11
5.92506e-12
3.15916e-12
1.84431e-12
1.14853e-12
1.25308e-12
1.65493e-12
3.45279e-12
8.57531e-12
1.61499e-11
3.46456e-11
6.19334e-11
3.24036e-11
3.65248e-12
6.44672e-12
3.73177e-12
1.47213e-12
9.75657e-13
4.99932e-13
2.44477e-13
2.01221e-13
2.79225e-13
5.91425e-13
1.24387e-12
2.60293e-12
5.35266e-12
6.35092e-12
9.57902e-12
9.29564e-12
6.27301e-12
5.42202e-12
2.62501e-12
1.26702e-12
6.01245e-13
2.84484e-13
2.00059e-13
2.30233e-13
4.51224e-13
8.77287e-13
1.43808e-12
3.76707e-12
6.51049e-12
3.6645e-12
2.80315e-13
4.65385e-13
4.02453e-13
1.64475e-13
6.07237e-14
2.25834e-14
1.00896e-14
9.19444e-15
1.67341e-14
4.28492e-14
1.13639e-13
3.0744e-13
6.63552e-13
1.15563e-12
1.67407e-12
1.6719e-12
1.15989e-12
6.72244e-13
3.1133e-13
1.16308e-13
4.40691e-14
1.71227e-14
9.29678e-15
9.60659e-15
2.04291e-14
5.64098e-14
1.62641e-13
4.06219e-13
4.70571e-13
2.82599e-13
1.26831e-14
2.90409e-14
1.7171e-14
5.93551e-15
1.68257e-15
5.10992e-16
2.23679e-16
2.41293e-16
4.8462e-16
1.34528e-15
4.3669e-15
1.45373e-14
3.6929e-14
7.92168e-14
1.23594e-13
1.22994e-13
7.94746e-14
3.74175e-14
1.48082e-14
4.47796e-15
1.38809e-15
5.00228e-16
2.44045e-16
2.11097e-16
4.54421e-16
1.56182e-15
5.83289e-15
1.7536e-14
2.96391e-14
1.28002e-14
2.87021e-16
7.93413e-16
3.86354e-16
1.16406e-16
3.3455e-17
9.78009e-18
4.79659e-18
6.56311e-18
1.42561e-17
3.99404e-17
1.29097e-16
4.30748e-16
1.20406e-15
2.77054e-15
4.51301e-15
4.50331e-15
2.78104e-15
1.2176e-15
4.4095e-16
1.33573e-16
4.14415e-17
1.48e-17
6.65952e-18
4.56615e-18
8.55292e-18
3.03863e-17
1.1584e-16
3.94053e-16
8.10053e-16
2.90549e-16
4.91499e-18
1.45283e-17
7.08747e-18
2.05133e-18
5.5958e-19
1.60955e-19
9.85338e-20
1.68533e-19
3.84817e-19
1.06165e-18
3.28863e-18
1.06039e-17
2.90544e-17
6.54467e-17
1.06777e-16
1.07379e-16
6.61312e-17
2.93755e-17
1.08648e-17
3.41736e-18
1.09955e-18
3.98466e-19
1.72406e-19
9.50634e-20
1.40934e-19
5.04948e-19
2.02339e-18
7.21058e-18
1.49152e-17
4.96098e-18
6.8874e-20
2.28738e-19
1.06754e-19
2.99771e-20
7.65155e-21
2.30779e-21
1.91015e-21
3.86078e-21
8.95486e-21
2.38891e-20
7.15775e-20
2.22359e-19
5.86334e-19
1.29127e-18
2.08857e-18
2.0898e-18
1.29902e-18
5.96542e-19
2.28257e-19
7.41438e-20
2.47996e-20
9.3063e-21
4.00541e-21
1.87902e-21
2.01649e-21
6.96797e-21
2.93603e-20
1.09889e-19
2.33858e-19
7.06522e-20
7.86553e-22
2.92876e-21
1.34634e-21
3.52134e-22
8.95011e-23
2.96127e-23
3.46292e-23
7.83568e-23
1.77637e-22
4.50732e-22
1.28354e-21
3.79179e-21
9.72011e-21
2.10175e-20
3.33639e-20
3.33072e-20
2.11026e-20
9.90934e-21
3.89265e-21
1.32289e-21
4.66108e-22
1.83981e-22
8.13501e-23
3.51429e-23
2.59579e-23
7.94715e-23
3.49868e-22
1.3728e-21
3.01994e-21
8.22634e-22
7.57812e-24
2.98861e-23
1.39542e-23
3.51223e-24
8.72629e-25
3.43321e-25
5.82107e-25
1.36721e-24
2.95163e-24
7.01128e-24
1.87637e-23
5.27155e-23
1.2939e-22
2.6724e-22
4.1509e-22
4.17785e-22
2.70064e-22
1.30611e-22
5.37158e-23
1.95238e-23
7.33461e-24
3.07814e-24
1.42145e-24
6.0646e-25
3.1922e-25
7.54557e-25
3.42003e-24
1.40836e-23
3.18345e-23
7.80042e-24
5.60859e-26
2.6725e-25
1.13944e-25
2.88233e-26
6.93596e-27
3.96923e-27
8.83413e-27
2.00049e-26
4.03706e-26
8.95105e-26
2.24643e-25
5.89585e-25
1.35562e-24
2.68563e-24
4.15477e-24
4.21457e-24
2.76117e-24
1.38383e-24
6.02137e-25
2.34447e-25
9.43401e-26
4.26328e-26
2.10271e-26
9.21342e-27
3.87253e-27
6.1184e-27
2.75353e-26
1.18442e-25
2.73812e-25
6.01943e-26
3.48355e-28
1.84616e-27
7.8966e-28
1.90809e-28
5.01501e-29
4.52725e-29
1.12768e-28
2.43406e-28
4.62951e-28
9.49774e-28
2.16425e-27
5.10044e-27
1.09166e-26
2.08786e-26
3.16132e-26
3.15697e-26
2.11212e-26
1.13065e-26
5.353e-27
2.27782e-27
9.99895e-28
4.93539e-28
2.62605e-28
1.20439e-28
4.54673e-29
4.41625e-29
1.83598e-28
8.1579e-28
1.92587e-27
3.79806e-28
1.94358e-30
1.00864e-29
4.74801e-30
1.08696e-30
3.38333e-31
4.60589e-31
1.2059e-30
2.50561e-30
4.41436e-30
8.12698e-30
1.64806e-29
3.51881e-29
7.10485e-29
1.28865e-28
1.86338e-28
1.86587e-28
1.32421e-28
7.6516e-29
3.87559e-29
1.78636e-29
8.65754e-30
4.7408e-30
2.73735e-30
1.32583e-30
4.8927e-31
2.98339e-31
1.01557e-30
4.61104e-30
1.11301e-29
1.97101e-30
7.62342e-33
5.19837e-32
2.20781e-32
5.33856e-33
2.13712e-33
4.33624e-33
1.13844e-32
2.17161e-32
3.38628e-32
5.48682e-32
1.00321e-31
1.97328e-31
3.65595e-31
6.06659e-31
8.39349e-31
8.61029e-31
6.40845e-31
3.89175e-31
2.13087e-31
1.11286e-31
6.16151e-32
3.75244e-32
2.34156e-32
1.20879e-32
4.63071e-33
2.02904e-33
4.81938e-33
2.1713e-32
5.28054e-32
8.40717e-33
2.81691e-35
2.16827e-34
8.57739e-35
2.28414e-35
1.36718e-35
3.5762e-35
8.76601e-35
1.51477e-34
2.13824e-34
3.16962e-34
5.24486e-34
8.93537e-34
1.41265e-33
2.12068e-33
2.89713e-33
3.07961e-33
2.40765e-33
1.5827e-33
9.8253e-34
5.87623e-34
3.62794e-34
2.41991e-34
1.65283e-34
9.36562e-35
3.84858e-35
1.41485e-35
2.05076e-35
8.51117e-35
2.03573e-34
2.99392e-35
1.04901e-37
6.51768e-37
3.19161e-37
9.11951e-38
8.75941e-38
2.39193e-37
5.52425e-37
8.98423e-37
1.18536e-36
1.59684e-36
2.25687e-36
3.21015e-36
4.54483e-36
6.64339e-36
8.91016e-36
9.11929e-36
7.19959e-36
5.21227e-36
3.7291e-36
2.5346e-36
1.74705e-36
1.30556e-36
1.00158e-36
6.28153e-37
2.74244e-37
9.35366e-38
8.04541e-38
2.77536e-37
6.57812e-37
9.41528e-38
2.50709e-40
1.94758e-39
1.0147e-39
3.60065e-40
4.96897e-40
1.42184e-39
3.21027e-39
4.80764e-39
5.61952e-39
6.34694e-39
7.36241e-39
9.28457e-39
1.25865e-38
1.69492e-38
1.96017e-38
1.83549e-38
1.57749e-38
1.3867e-38
1.18057e-38
9.05065e-39
6.97681e-39
5.91177e-39
5.12518e-39
3.53438e-39
1.63058e-39
5.52804e-40
3.20951e-40
8.17838e-40
1.9125e-39
2.71847e-40
6.30753e-43
6.22738e-42
2.77891e-42
1.39155e-42
2.52465e-42
7.46679e-42
1.52948e-41
2.03432e-41
2.06824e-41
2.01866e-41
2.13697e-41
2.57802e-41
3.08405e-41
3.33299e-41
3.27922e-41
3.19879e-41
3.27227e-41
3.29635e-41
3.01608e-41
2.51789e-41
2.24542e-41
2.24683e-41
2.2539e-41
1.71008e-41
8.32071e-42
2.90203e-42
1.36772e-42
2.37441e-42
5.09501e-42
7.23854e-43
2.15021e-45
1.40687e-44
7.56651e-45
5.3176e-45
1.19285e-44
3.149e-44
5.74939e-44
7.06427e-44
6.46095e-44
5.81149e-44
5.78136e-44
6.03164e-44
5.50987e-44
4.7785e-44
4.6042e-44
5.06349e-44
5.50732e-44
5.57873e-44
5.49367e-44
5.57409e-44
6.29476e-44
7.51287e-44
8.53714e-44
6.88177e-44
3.51144e-44
1.29518e-44
5.72762e-45
6.99765e-45
1.25612e-44
1.8487e-45
4.40943e-48
2.84995e-47
2.03504e-47
1.96465e-47
4.39854e-47
1.06003e-46
1.92272e-46
2.18538e-46
1.83535e-46
1.44872e-46
1.21541e-46
9.79601e-47
7.1905e-47
5.7569e-47
5.84055e-47
6.39525e-47
6.50657e-47
6.75576e-47
8.14866e-47
1.07739e-46
1.48336e-46
2.01114e-46
2.39411e-46
2.13446e-46
1.20807e-46
4.95745e-47
2.22446e-47
2.13972e-47
3.02845e-47
4.74265e-48
1.05016e-50
6.90552e-50
5.51071e-50
5.88921e-50
1.19726e-49
2.94182e-49
5.15217e-49
4.99579e-49
3.83771e-49
2.54871e-49
1.81727e-49
1.30007e-49
9.2379e-50
7.34139e-50
6.64458e-50
5.92225e-50
5.56008e-50
6.7839e-50
1.06268e-49
1.72636e-49
2.68775e-49
4.09945e-49
5.25265e-49
5.64645e-49
3.70389e-49
1.6671e-49
7.53919e-50
6.29563e-50
7.17017e-50
1.19114e-50
2.6551e-53
1.46184e-52
1.33504e-52
1.37733e-52
2.91208e-52
6.82616e-52
1.02475e-51
9.0487e-52
6.03058e-52
3.59737e-52
2.42875e-52
1.73377e-52
1.18715e-52
7.86588e-53
5.39326e-53
4.17156e-53
4.55545e-53
7.44709e-53
1.421e-52
2.54988e-52
4.23352e-52
7.0659e-52
1.07272e-51
1.2791e-51
9.47282e-52
4.40018e-52
1.98626e-52
1.56844e-52
1.58921e-52
2.80441e-53
4.19147e-56
2.83801e-55
2.37694e-55
2.73514e-55
5.8664e-55
1.22999e-54
1.74674e-54
1.52342e-54
9.40556e-55
5.36793e-55
3.55983e-55
2.37111e-55
1.35204e-55
7.15426e-56
4.42264e-56
3.89852e-56
5.28503e-56
9.54004e-56
1.81753e-55
3.21742e-55
5.54348e-55
1.02305e-54
1.80069e-54
2.29058e-54
1.81886e-54
8.59136e-55
4.04105e-55
3.28156e-55
3.28944e-55
6.0425e-56
8.25241e-59
5.10162e-58
3.92379e-58
5.03263e-58
9.18344e-58
1.90216e-57
2.68049e-57
2.24732e-57
1.27197e-57
7.06061e-58
4.42711e-58
2.55756e-58
1.24866e-58
6.44022e-59
4.54763e-59
4.60372e-59
6.13819e-59
9.92778e-59
1.79848e-58
3.34193e-58
6.53396e-58
1.39253e-57
2.75591e-57
3.58379e-57
2.90079e-57
1.38775e-57
7.01632e-58
6.05575e-58
6.23587e-58
1.14854e-58
2.20993e-61
6.1487e-61
7.91613e-61
9.39537e-61
1.61467e-60
3.48945e-60
4.16067e-60
3.16098e-60
1.6288e-60
8.59949e-61
4.80964e-61
2.45678e-61
1.17561e-61
6.86347e-62
5.42828e-62
5.35515e-62
6.44924e-62
9.85698e-62
1.94996e-61
4.25821e-61
9.53822e-61
2.16521e-60
4.26753e-60
5.2609e-60
4.094e-60
1.98438e-60
1.09053e-60
9.9438e-61
1.05425e-60
1.92334e-61
1.79475e-64
1.14812e-63
1.66447e-63
1.72454e-63
3.11722e-63
6.13807e-63
6.11214e-63
4.58611e-63
2.30518e-63
1.14984e-63
5.76294e-64
2.73943e-64
1.3392e-64
8.13829e-65
6.12873e-65
5.5178e-65
6.56046e-65
1.10816e-64
2.5379e-64
6.1009e-64
1.37267e-63
2.92591e-63
5.4675e-63
6.39535e-63
5.14225e-63
2.71038e-63
1.63198e-63
1.55352e-63
1.66714e-63
2.97411e-64
2.96884e-67
3.37281e-66
2.80611e-66
2.76408e-66
4.57264e-66
7.56728e-66
7.20628e-66
5.71582e-66
2.87866e-66
1.32914e-66
6.0377e-67
2.68803e-67
1.24639e-67
6.86102e-68
4.59363e-68
4.04459e-68
5.42116e-68
1.09014e-67
2.7726e-67
6.6751e-67
1.42071e-66
2.9362e-66
5.85997e-66
7.34858e-66
7.0076e-66
4.11399e-66
2.55961e-66
2.42527e-66
2.53071e-66
4.33686e-67
9.60667e-70
4.72171e-69
3.57949e-69
3.62547e-69
5.47001e-69
8.47872e-69
8.25405e-69
6.43366e-69
2.9847e-69
1.20841e-69
4.90895e-70
2.02747e-70
8.65219e-71
4.2874e-71
2.77262e-71
2.75407e-71
4.47794e-71
1.02617e-70
2.64648e-70
6.10471e-70
1.28715e-69
2.87133e-69
6.65592e-69
9.71745e-69
1.02525e-68
6.15052e-69
3.70192e-69
3.41638e-69
3.53629e-69
5.97697e-70
1.01185e-72
3.42994e-72
3.98497e-72
4.26877e-72
6.62438e-72
1.00602e-71
9.61795e-72
6.71154e-72
2.74483e-72
9.73266e-73
3.72066e-73
1.5488e-73
6.70257e-74
3.42827e-74
2.4339e-74
2.73277e-74
4.69647e-74
1.03157e-73
2.43297e-73
5.3201e-73
1.16818e-72
2.89377e-72
7.39105e-72
1.14356e-71
1.17914e-71
6.81552e-72
4.18844e-72
4.04276e-72
4.60138e-72
8.08372e-73
5.77342e-76
5.8451e-75
5.80468e-75
5.68435e-75
7.69998e-75
1.00379e-74
9.35636e-75
6.08103e-75
2.30527e-75
7.88796e-76
3.20429e-76
1.46385e-76
6.79366e-77
3.66547e-77
2.69138e-77
2.91045e-77
4.45096e-77
8.37548e-77
1.78447e-76
3.9376e-76
9.42465e-76
2.54139e-75
6.62961e-75
9.75137e-75
9.51026e-75
5.59334e-75
3.99427e-75
4.41113e-75
5.88323e-75
1.06923e-75
1.49098e-78
1.38153e-77
8.76963e-78
7.29656e-78
7.74188e-78
9.30054e-78
9.33436e-78
6.15247e-78
2.30357e-78
8.33102e-79
3.70874e-79
1.76153e-79
8.0187e-80
4.13065e-80
2.80157e-80
2.65588e-80
3.48055e-80
5.88854e-80
1.25739e-79
3.0604e-79
8.08207e-79
2.24844e-78
5.59444e-78
7.5521e-78
7.13021e-78
4.64096e-78
3.73527e-78
4.78685e-78
6.98461e-78
1.2406e-78
4.4196e-81
1.3648e-80
9.23838e-81
6.33968e-81
6.90209e-81
1.02072e-80
1.09247e-80
7.12233e-81
2.68008e-81
1.03318e-81
4.66035e-82
2.0754e-82
8.63066e-83
4.13118e-83
2.64359e-83
2.35592e-83
2.9812e-83
5.15945e-83
1.19183e-82
3.15302e-82
8.50522e-82
2.24903e-81
5.12274e-81
6.58842e-81
6.1476e-81
4.30492e-81
3.56853e-81
4.68357e-81
6.66727e-81
1.11394e-81
1.89113e-84
6.46426e-84
7.08919e-84
5.70089e-84
7.69031e-84
1.24268e-83
1.16269e-83
6.44863e-84
2.38742e-84
9.08017e-85
3.73028e-85
1.46011e-85
5.68666e-86
2.80408e-86
1.9414e-86
1.88126e-86
2.56525e-86
4.74418e-86
1.14026e-85
3.0226e-85
7.84962e-85
1.97294e-84
4.39267e-84
5.86744e-84
5.67814e-84
4.09915e-84
3.24345e-84
3.92609e-84
4.92792e-84
7.78487e-85
1.00638e-87
1.11397e-86
1.00187e-86
8.37411e-87
1.22783e-86
1.46914e-86
9.8829e-87
4.31923e-87
1.4675e-87
4.72802e-88
1.53636e-88
5.11608e-89
2.03157e-89
1.18574e-89
9.81593e-90
1.07758e-89
1.57131e-89
2.97121e-89
7.08886e-89
1.85164e-88
4.8796e-88
1.31662e-87
3.32361e-87
5.3071e-87
5.72002e-87
4.17215e-87
3.05249e-87
3.16311e-87
3.2952e-87
4.99312e-88
2.38761e-90
2.28483e-89
1.57895e-89
1.35461e-89
1.6369e-89
1.34959e-89
7.90858e-90
3.25212e-90
9.86212e-91
2.51712e-91
6.56486e-92
2.06023e-92
8.60218e-93
5.35743e-93
4.56191e-93
4.93844e-93
6.97443e-93
1.28634e-92
3.05836e-92
8.37145e-92
2.53989e-91
8.50027e-91
2.71862e-90
5.44998e-90
6.52131e-90
4.69311e-90
3.0698e-90
2.73067e-90
2.40996e-90
3.59141e-91
4.92289e-93
1.81872e-92
1.36228e-92
1.07999e-92
1.22369e-92
1.082e-92
7.58554e-93
3.19729e-93
8.54948e-94
1.88487e-94
4.61873e-95
1.4413e-95
5.96041e-96
3.3478e-96
2.39409e-96
2.28949e-96
3.10591e-96
5.88099e-96
1.4822e-95
4.44557e-95
1.53809e-94
6.10397e-94
2.32787e-93
5.44368e-93
6.89127e-93
4.86294e-93
2.9529e-93
2.50227e-93
2.13946e-93
3.32071e-94
1.84204e-96
8.44616e-96
9.95698e-96
8.71673e-96
1.02906e-95
1.1177e-95
8.10942e-96
2.88689e-96
6.37938e-97
1.31309e-97
3.3483e-98
1.05032e-98
3.86287e-99
1.76713e-99
1.06933e-99
1.00243e-99
1.49515e-99
3.19333e-99
8.77587e-99
2.72985e-98
9.59338e-98
3.86927e-97
1.55177e-96
3.9493e-96
5.27662e-96
4.0249e-96
2.66387e-96
2.47483e-96
2.42844e-96
4.06147e-97
1.2735e-99
1.4627e-98
1.40738e-98
1.1428e-98
1.4416e-98
1.45565e-98
7.34365e-99
1.7589e-99
3.1563e-100
6.4654e-101
1.72044e-101
5.20192e-102
1.71358e-102
7.18966e-103
4.56162e-103
4.63245e-103
7.44645e-103
1.72612e-102
4.82709e-102
1.41748e-101
4.5308e-101
1.70348e-100
6.81395e-100
1.96019e-99
3.04642e-99
3.0431e-99
2.49229e-99
2.84113e-99
3.37383e-99
5.90939e-100
2.8979e-102
2.59169e-101
1.84481e-101
1.4983e-101
1.82483e-101
1.50438e-101
4.68772e-102
7.94961e-103
1.42016e-103
3.23015e-104
9.25131e-105
3.05138e-105
1.16957e-105
5.69668e-106
3.68647e-106
3.32437e-106
4.4671e-106
8.74159e-106
2.17831e-105
5.77087e-105
1.71254e-104
6.34592e-104
2.70226e-103
9.28178e-103
1.97542e-102
2.61355e-102
2.61826e-102
3.56202e-102
4.80464e-102
8.31475e-103
4.82807e-105
2.02812e-104
1.40984e-104
1.24831e-104
1.38791e-104
8.77076e-105
2.4018e-105
4.70602e-106
1.0112e-106
2.36509e-107
6.91722e-108
2.6811e-108
1.21307e-108
6.19907e-109
3.84664e-109
3.00346e-109
3.01816e-109
3.9439e-109
8.20512e-109
2.23199e-108
7.65199e-108
3.21402e-107
1.53679e-106
6.34469e-106
1.66444e-105
2.54603e-105
2.77147e-105
3.99554e-105
5.58013e-105
9.26812e-106
1.71598e-105
1.71614e-105
4.61531e-105