/*--------------------------------*- C++ -*----------------------------------*\
| =========                 |                                                 |
| \\      /  F ield         | OpenFOAM: The Open Source CFD Toolbox           |
|  \\    /   O peration     | Version:  2312                                  |
|   \\  /    A nd           | Website:  www.openfoam.com                      |
|    \\/     M anipulation  |                                                 |
\*---------------------------------------------------------------------------*/
FoamFile
{
    version     2.0;
    format      ascii;
    arch        "LSB;label=32;scalar=64";
    class       volScalarField;
    location    "0.862544";
    object      epsilon;
}
// * * * * * * * * * * * * * * * * * * * * * * * * * * * * * * * * * * * * * //

dimensions      [0 2 -3 0 0 0 0];

internalField   nonuniform List<scalar> 
90000
(
1.06161e-05
1.06174e-05
1.0618e-05
1.06182e-05
1.06184e-05
1.06184e-05
1.06183e-05
1.06181e-05
1.06179e-05
1.06177e-05
1.06177e-05
1.06177e-05
1.06177e-05
1.06177e-05
1.06178e-05
1.06179e-05
1.06183e-05
1.06186e-05
1.06188e-05
1.06188e-05
1.06185e-05
1.0618e-05
1.06179e-05
1.06187e-05
1.06194e-05
1.06198e-05
1.06197e-05
1.06194e-05
1.06193e-05
1.06197e-05
1.06172e-05
1.06522e-05
1.06542e-05
1.06542e-05
1.06541e-05
1.06541e-05
1.06541e-05
1.06541e-05
1.06541e-05
1.06541e-05
1.06541e-05
1.06541e-05
1.06542e-05
1.06542e-05
1.06543e-05
1.06544e-05
1.06545e-05
1.06545e-05
1.06545e-05
1.06544e-05
1.06545e-05
1.06547e-05
1.06547e-05
1.06546e-05
1.06543e-05
1.06538e-05
1.0654e-05
1.06547e-05
1.06527e-05
1.0624e-05
1.06179e-05
1.06547e-05
1.06567e-05
1.06567e-05
1.06566e-05
1.06565e-05
1.06564e-05
1.06564e-05
1.06565e-05
1.06566e-05
1.06565e-05
1.06565e-05
1.06565e-05
1.06567e-05
1.06567e-05
1.06567e-05
1.06565e-05
1.06564e-05
1.06566e-05
1.0657e-05
1.06572e-05
1.06574e-05
1.06574e-05
1.06574e-05
1.06576e-05
1.06578e-05
1.06581e-05
1.06584e-05
1.06563e-05
1.06222e-05
1.06182e-05
1.06548e-05
1.06571e-05
1.06573e-05
1.06573e-05
1.06572e-05
1.0657e-05
1.06569e-05
1.06568e-05
1.06568e-05
1.06567e-05
1.06566e-05
1.06566e-05
1.06566e-05
1.06566e-05
1.06565e-05
1.06565e-05
1.06568e-05
1.06572e-05
1.06573e-05
1.06573e-05
1.06573e-05
1.06576e-05
1.06581e-05
1.06586e-05
1.06588e-05
1.06587e-05
1.06585e-05
1.06563e-05
1.06192e-05
1.06184e-05
1.06548e-05
1.06575e-05
1.06577e-05
1.06578e-05
1.06577e-05
1.06575e-05
1.06573e-05
1.06571e-05
1.06569e-05
1.06568e-05
1.06567e-05
1.06566e-05
1.06565e-05
1.06564e-05
1.06565e-05
1.06568e-05
1.06571e-05
1.06572e-05
1.06571e-05
1.0657e-05
1.06572e-05
1.06577e-05
1.06582e-05
1.06586e-05
1.06587e-05
1.06584e-05
1.06573e-05
1.06563e-05
1.06189e-05
1.06185e-05
1.06554e-05
1.06578e-05
1.0658e-05
1.0658e-05
1.0658e-05
1.06578e-05
1.06576e-05
1.06574e-05
1.0657e-05
1.06567e-05
1.06567e-05
1.06567e-05
1.06568e-05
1.06568e-05
1.06569e-05
1.06569e-05
1.06569e-05
1.06569e-05
1.06568e-05
1.06569e-05
1.06572e-05
1.06576e-05
1.06578e-05
1.06579e-05
1.0658e-05
1.06585e-05
1.06587e-05
1.06577e-05
1.06198e-05
1.06187e-05
1.06561e-05
1.06582e-05
1.06582e-05
1.06582e-05
1.06582e-05
1.06581e-05
1.0658e-05
1.06577e-05
1.06573e-05
1.06569e-05
1.06567e-05
1.06569e-05
1.06571e-05
1.06571e-05
1.0657e-05
1.06568e-05
1.06565e-05
1.06565e-05
1.06568e-05
1.06571e-05
1.06573e-05
1.06573e-05
1.06572e-05
1.06575e-05
1.06584e-05
1.06595e-05
1.066e-05
1.06583e-05
1.06202e-05
1.0619e-05
1.06567e-05
1.06585e-05
1.06584e-05
1.06583e-05
1.06584e-05
1.06584e-05
1.06584e-05
1.06582e-05
1.06578e-05
1.06573e-05
1.0657e-05
1.0657e-05
1.06571e-05
1.06572e-05
1.0657e-05
1.06567e-05
1.06565e-05
1.06566e-05
1.06569e-05
1.06572e-05
1.06572e-05
1.06571e-05
1.06574e-05
1.06581e-05
1.0659e-05
1.06599e-05
1.06602e-05
1.06579e-05
1.06201e-05
1.06193e-05
1.06572e-05
1.06589e-05
1.06587e-05
1.06585e-05
1.06585e-05
1.06586e-05
1.06587e-05
1.06586e-05
1.06583e-05
1.0658e-05
1.06575e-05
1.06571e-05
1.0657e-05
1.0657e-05
1.06571e-05
1.06572e-05
1.06573e-05
1.06575e-05
1.06576e-05
1.06576e-05
1.06575e-05
1.06576e-05
1.06579e-05
1.06586e-05
1.06592e-05
1.06597e-05
1.06598e-05
1.06573e-05
1.062e-05
1.06197e-05
1.06575e-05
1.06592e-05
1.0659e-05
1.06587e-05
1.06585e-05
1.06585e-05
1.06586e-05
1.06587e-05
1.06587e-05
1.06585e-05
1.06581e-05
1.06575e-05
1.06569e-05
1.06568e-05
1.06573e-05
1.06579e-05
1.06583e-05
1.06586e-05
1.06587e-05
1.06586e-05
1.06583e-05
1.06582e-05
1.06583e-05
1.06586e-05
1.0659e-05
1.06593e-05
1.06593e-05
1.06569e-05
1.06201e-05
1.06203e-05
1.06576e-05
1.06593e-05
1.06591e-05
1.06588e-05
1.06584e-05
1.06582e-05
1.06582e-05
1.06584e-05
1.06586e-05
1.06586e-05
1.06583e-05
1.06578e-05
1.06571e-05
1.06567e-05
1.06573e-05
1.06581e-05
1.06589e-05
1.06595e-05
1.06597e-05
1.06595e-05
1.06592e-05
1.06588e-05
1.06586e-05
1.06586e-05
1.06588e-05
1.06591e-05
1.06592e-05
1.06569e-05
1.06204e-05
1.06207e-05
1.06577e-05
1.06596e-05
1.06595e-05
1.06593e-05
1.06591e-05
1.06587e-05
1.06584e-05
1.06582e-05
1.06583e-05
1.06584e-05
1.06583e-05
1.0658e-05
1.06575e-05
1.06568e-05
1.06571e-05
1.06581e-05
1.0659e-05
1.06597e-05
1.06599e-05
1.06598e-05
1.06595e-05
1.06591e-05
1.06589e-05
1.06589e-05
1.0659e-05
1.06593e-05
1.06594e-05
1.06572e-05
1.06208e-05
1.06214e-05
1.06581e-05
1.06601e-05
1.06602e-05
1.06603e-05
1.06604e-05
1.06603e-05
1.06599e-05
1.06594e-05
1.06586e-05
1.06582e-05
1.06583e-05
1.06583e-05
1.06581e-05
1.06578e-05
1.06578e-05
1.06582e-05
1.06586e-05
1.06589e-05
1.06591e-05
1.06593e-05
1.06593e-05
1.06592e-05
1.06592e-05
1.06593e-05
1.06594e-05
1.06596e-05
1.06597e-05
1.06576e-05
1.06213e-05
1.06228e-05
1.06584e-05
1.06607e-05
1.0661e-05
1.06614e-05
1.06617e-05
1.06617e-05
1.06613e-05
1.06604e-05
1.06593e-05
1.06583e-05
1.06582e-05
1.06585e-05
1.06588e-05
1.06588e-05
1.06588e-05
1.06587e-05
1.06583e-05
1.0658e-05
1.06583e-05
1.06588e-05
1.06593e-05
1.06596e-05
1.06598e-05
1.06599e-05
1.066e-05
1.06601e-05
1.06601e-05
1.06579e-05
1.06217e-05
1.06245e-05
1.06586e-05
1.06614e-05
1.06619e-05
1.06624e-05
1.06626e-05
1.06624e-05
1.06618e-05
1.06608e-05
1.06597e-05
1.06587e-05
1.06582e-05
1.06586e-05
1.06591e-05
1.06594e-05
1.06595e-05
1.06592e-05
1.06586e-05
1.06582e-05
1.06584e-05
1.06591e-05
1.06598e-05
1.06603e-05
1.06607e-05
1.06608e-05
1.06609e-05
1.06609e-05
1.06609e-05
1.06586e-05
1.06225e-05
1.06257e-05
1.06596e-05
1.06625e-05
1.06629e-05
1.06629e-05
1.06627e-05
1.06621e-05
1.06615e-05
1.0661e-05
1.06603e-05
1.06594e-05
1.06584e-05
1.06586e-05
1.06591e-05
1.06595e-05
1.06596e-05
1.06594e-05
1.06591e-05
1.06588e-05
1.06589e-05
1.06597e-05
1.06605e-05
1.06612e-05
1.06617e-05
1.0662e-05
1.06622e-05
1.06622e-05
1.06623e-05
1.06602e-05
1.06238e-05
1.06266e-05
1.06621e-05
1.06639e-05
1.06636e-05
1.0663e-05
1.06625e-05
1.06622e-05
1.06621e-05
1.06618e-05
1.06611e-05
1.06601e-05
1.06589e-05
1.06587e-05
1.06589e-05
1.06591e-05
1.06592e-05
1.06592e-05
1.06592e-05
1.06591e-05
1.06594e-05
1.06602e-05
1.06612e-05
1.06621e-05
1.06628e-05
1.06633e-05
1.06636e-05
1.06639e-05
1.06641e-05
1.06618e-05
1.06253e-05
1.06273e-05
1.0664e-05
1.06652e-05
1.06648e-05
1.06645e-05
1.06642e-05
1.06639e-05
1.06635e-05
1.06628e-05
1.06619e-05
1.06606e-05
1.06595e-05
1.06589e-05
1.06587e-05
1.06586e-05
1.06586e-05
1.06589e-05
1.06592e-05
1.06595e-05
1.06601e-05
1.06611e-05
1.06622e-05
1.06632e-05
1.0664e-05
1.06646e-05
1.06652e-05
1.06656e-05
1.06656e-05
1.06632e-05
1.06272e-05
1.06287e-05
1.06652e-05
1.0667e-05
1.06669e-05
1.06668e-05
1.06665e-05
1.06661e-05
1.06653e-05
1.06642e-05
1.06629e-05
1.06615e-05
1.06603e-05
1.06593e-05
1.06585e-05
1.0658e-05
1.06581e-05
1.06586e-05
1.06594e-05
1.06602e-05
1.06613e-05
1.06625e-05
1.06636e-05
1.06647e-05
1.06656e-05
1.06664e-05
1.0667e-05
1.06673e-05
1.06673e-05
1.06651e-05
1.06294e-05
1.06308e-05
1.06668e-05
1.06693e-05
1.06694e-05
1.06694e-05
1.06691e-05
1.06685e-05
1.06674e-05
1.06661e-05
1.06646e-05
1.0663e-05
1.06615e-05
1.06601e-05
1.06587e-05
1.06578e-05
1.06579e-05
1.06589e-05
1.06602e-05
1.06616e-05
1.0663e-05
1.06643e-05
1.06655e-05
1.06667e-05
1.06678e-05
1.06687e-05
1.06693e-05
1.06696e-05
1.06699e-05
1.06678e-05
1.0632e-05
1.06338e-05
1.06696e-05
1.06722e-05
1.06724e-05
1.06723e-05
1.06719e-05
1.06711e-05
1.06699e-05
1.06684e-05
1.06667e-05
1.06649e-05
1.0663e-05
1.06611e-05
1.06593e-05
1.06582e-05
1.06586e-05
1.066e-05
1.06616e-05
1.06633e-05
1.06649e-05
1.06664e-05
1.06679e-05
1.06692e-05
1.06704e-05
1.06714e-05
1.06721e-05
1.06728e-05
1.06731e-05
1.06709e-05
1.06351e-05
1.06376e-05
1.06735e-05
1.06761e-05
1.06762e-05
1.06759e-05
1.06753e-05
1.06742e-05
1.06727e-05
1.06709e-05
1.0669e-05
1.06669e-05
1.06646e-05
1.06623e-05
1.06602e-05
1.06592e-05
1.06596e-05
1.06612e-05
1.06631e-05
1.06651e-05
1.0667e-05
1.06688e-05
1.06704e-05
1.06719e-05
1.06733e-05
1.06746e-05
1.06756e-05
1.06765e-05
1.06768e-05
1.06745e-05
1.06388e-05
1.06425e-05
1.06785e-05
1.06809e-05
1.06808e-05
1.06803e-05
1.06792e-05
1.06777e-05
1.06759e-05
1.06738e-05
1.06716e-05
1.06691e-05
1.06664e-05
1.06637e-05
1.06614e-05
1.06602e-05
1.06605e-05
1.06624e-05
1.06647e-05
1.06671e-05
1.06694e-05
1.06715e-05
1.06735e-05
1.06753e-05
1.0677e-05
1.06787e-05
1.068e-05
1.06809e-05
1.06812e-05
1.0679e-05
1.06438e-05
1.06487e-05
1.06847e-05
1.06869e-05
1.06865e-05
1.06855e-05
1.0684e-05
1.06821e-05
1.06799e-05
1.06774e-05
1.06747e-05
1.06717e-05
1.06686e-05
1.06656e-05
1.0663e-05
1.06613e-05
1.06616e-05
1.06638e-05
1.06666e-05
1.06695e-05
1.06723e-05
1.06749e-05
1.06773e-05
1.06798e-05
1.0682e-05
1.0684e-05
1.06854e-05
1.06864e-05
1.0687e-05
1.06854e-05
1.06506e-05
1.06565e-05
1.06925e-05
1.06944e-05
1.06935e-05
1.0692e-05
1.069e-05
1.06877e-05
1.0685e-05
1.0682e-05
1.06786e-05
1.0675e-05
1.06714e-05
1.0668e-05
1.0665e-05
1.06629e-05
1.06631e-05
1.06656e-05
1.0669e-05
1.06724e-05
1.06757e-05
1.0679e-05
1.06822e-05
1.06853e-05
1.0688e-05
1.06903e-05
1.0692e-05
1.06934e-05
1.06947e-05
1.06937e-05
1.06587e-05
1.06663e-05
1.0702e-05
1.07035e-05
1.07021e-05
1.07001e-05
1.06976e-05
1.06947e-05
1.06914e-05
1.06877e-05
1.06836e-05
1.06794e-05
1.06752e-05
1.06713e-05
1.06677e-05
1.0665e-05
1.06651e-05
1.06679e-05
1.06718e-05
1.06759e-05
1.068e-05
1.06841e-05
1.06881e-05
1.06917e-05
1.06948e-05
1.06975e-05
1.06998e-05
1.07019e-05
1.07038e-05
1.0703e-05
1.06672e-05
1.06781e-05
1.07132e-05
1.07143e-05
1.07124e-05
1.07099e-05
1.07069e-05
1.07035e-05
1.06995e-05
1.0695e-05
1.06901e-05
1.06852e-05
1.06804e-05
1.06757e-05
1.06713e-05
1.06679e-05
1.06677e-05
1.06709e-05
1.06754e-05
1.06804e-05
1.06855e-05
1.06905e-05
1.06952e-05
1.06994e-05
1.07031e-05
1.07064e-05
1.07094e-05
1.07121e-05
1.07142e-05
1.07127e-05
1.06769e-05
1.06919e-05
1.07261e-05
1.07269e-05
1.07246e-05
1.07217e-05
1.07182e-05
1.07141e-05
1.07094e-05
1.07041e-05
1.06986e-05
1.06929e-05
1.06872e-05
1.06814e-05
1.06759e-05
1.06716e-05
1.06712e-05
1.0675e-05
1.06805e-05
1.06866e-05
1.06929e-05
1.06989e-05
1.07044e-05
1.07094e-05
1.07139e-05
1.07179e-05
1.07216e-05
1.07247e-05
1.07262e-05
1.07244e-05
1.06898e-05
1.07078e-05
1.07411e-05
1.07417e-05
1.07391e-05
1.07358e-05
1.07318e-05
1.0727e-05
1.07215e-05
1.07154e-05
1.0709e-05
1.07023e-05
1.06954e-05
1.06882e-05
1.06814e-05
1.06763e-05
1.0676e-05
1.06806e-05
1.06874e-05
1.06949e-05
1.07024e-05
1.07095e-05
1.07161e-05
1.0722e-05
1.07274e-05
1.07323e-05
1.07366e-05
1.07397e-05
1.0741e-05
1.074e-05
1.07066e-05
1.07265e-05
1.07591e-05
1.07594e-05
1.07566e-05
1.07529e-05
1.07482e-05
1.07426e-05
1.07361e-05
1.07291e-05
1.07215e-05
1.07135e-05
1.0705e-05
1.06963e-05
1.06882e-05
1.06824e-05
1.06824e-05
1.06881e-05
1.06962e-05
1.07052e-05
1.07141e-05
1.07224e-05
1.07301e-05
1.07371e-05
1.07437e-05
1.07495e-05
1.07542e-05
1.07576e-05
1.07597e-05
1.07597e-05
1.07265e-05
1.07488e-05
1.0781e-05
1.07812e-05
1.07781e-05
1.07737e-05
1.07682e-05
1.07616e-05
1.0754e-05
1.07458e-05
1.07368e-05
1.07271e-05
1.07169e-05
1.07065e-05
1.0697e-05
1.06905e-05
1.06906e-05
1.06974e-05
1.07071e-05
1.07176e-05
1.0728e-05
1.07378e-05
1.07468e-05
1.07552e-05
1.07631e-05
1.07697e-05
1.07749e-05
1.07792e-05
1.07827e-05
1.0783e-05
1.07499e-05
1.07761e-05
1.08082e-05
1.08082e-05
1.08045e-05
1.07993e-05
1.07928e-05
1.0785e-05
1.07761e-05
1.07664e-05
1.07557e-05
1.07441e-05
1.07318e-05
1.07195e-05
1.07084e-05
1.07009e-05
1.0701e-05
1.07089e-05
1.07202e-05
1.07324e-05
1.07446e-05
1.07562e-05
1.0767e-05
1.0777e-05
1.07861e-05
1.07937e-05
1.07996e-05
1.08054e-05
1.08102e-05
1.08106e-05
1.07782e-05
1.08094e-05
1.08416e-05
1.0841e-05
1.08367e-05
1.08305e-05
1.08228e-05
1.08136e-05
1.08032e-05
1.07917e-05
1.0779e-05
1.07651e-05
1.07505e-05
1.07361e-05
1.07232e-05
1.07143e-05
1.07144e-05
1.07234e-05
1.07363e-05
1.07504e-05
1.07647e-05
1.07784e-05
1.07913e-05
1.08031e-05
1.08135e-05
1.08223e-05
1.08298e-05
1.08372e-05
1.08427e-05
1.08437e-05
1.0812e-05
1.08498e-05
1.08817e-05
1.08804e-05
1.08752e-05
1.0868e-05
1.08589e-05
1.08481e-05
1.08359e-05
1.08222e-05
1.08071e-05
1.07908e-05
1.07738e-05
1.0757e-05
1.07421e-05
1.07318e-05
1.07319e-05
1.07421e-05
1.07568e-05
1.0773e-05
1.07895e-05
1.08056e-05
1.08209e-05
1.08345e-05
1.08466e-05
1.08576e-05
1.08671e-05
1.08754e-05
1.08814e-05
1.08828e-05
1.08514e-05
1.0898e-05
1.09291e-05
1.09271e-05
1.09209e-05
1.09124e-05
1.09018e-05
1.08892e-05
1.08749e-05
1.08588e-05
1.08412e-05
1.08222e-05
1.08025e-05
1.07833e-05
1.07662e-05
1.07547e-05
1.07549e-05
1.07664e-05
1.07833e-05
1.08019e-05
1.08212e-05
1.084e-05
1.08579e-05
1.08737e-05
1.08879e-05
1.09013e-05
1.09123e-05
1.0921e-05
1.09271e-05
1.09286e-05
1.08983e-05
1.09552e-05
1.09852e-05
1.09825e-05
1.09753e-05
1.09655e-05
1.09534e-05
1.0939e-05
1.09225e-05
1.0904e-05
1.08837e-05
1.08618e-05
1.08391e-05
1.08171e-05
1.07977e-05
1.07846e-05
1.07851e-05
1.07983e-05
1.08177e-05
1.08394e-05
1.0862e-05
1.08837e-05
1.09041e-05
1.09224e-05
1.09391e-05
1.09544e-05
1.0966e-05
1.0975e-05
1.09815e-05
1.09838e-05
1.09552e-05
1.10234e-05
1.10522e-05
1.10487e-05
1.10406e-05
1.10298e-05
1.10164e-05
1.10005e-05
1.09818e-05
1.09607e-05
1.09374e-05
1.09123e-05
1.08864e-05
1.08614e-05
1.08396e-05
1.08243e-05
1.08249e-05
1.08398e-05
1.0862e-05
1.08872e-05
1.09133e-05
1.0938e-05
1.09612e-05
1.09822e-05
1.10011e-05
1.10175e-05
1.103e-05
1.104e-05
1.10477e-05
1.10514e-05
1.1024e-05
1.1105e-05
1.11324e-05
1.11282e-05
1.11195e-05
1.11078e-05
1.10931e-05
1.10752e-05
1.10542e-05
1.10302e-05
1.1004e-05
1.09758e-05
1.09468e-05
1.09186e-05
1.08943e-05
1.08766e-05
1.08768e-05
1.08936e-05
1.09188e-05
1.09474e-05
1.09769e-05
1.10046e-05
1.10307e-05
1.10546e-05
1.10753e-05
1.1093e-05
1.11071e-05
1.11189e-05
1.11282e-05
1.11327e-05
1.11061e-05
1.12017e-05
1.12277e-05
1.12231e-05
1.12137e-05
1.12007e-05
1.11841e-05
1.11642e-05
1.1141e-05
1.11147e-05
1.10857e-05
1.10545e-05
1.10223e-05
1.09904e-05
1.09634e-05
1.09435e-05
1.09433e-05
1.09627e-05
1.09907e-05
1.10226e-05
1.10551e-05
1.10858e-05
1.11151e-05
1.11416e-05
1.11642e-05
1.11836e-05
1.11997e-05
1.12131e-05
1.12233e-05
1.12281e-05
1.12024e-05
1.1316e-05
1.13407e-05
1.13352e-05
1.13247e-05
1.13106e-05
1.12927e-05
1.12716e-05
1.12468e-05
1.12184e-05
1.11866e-05
1.11522e-05
1.11169e-05
1.10814e-05
1.10512e-05
1.10297e-05
1.1029e-05
1.10509e-05
1.10819e-05
1.11169e-05
1.11522e-05
1.11866e-05
1.12187e-05
1.12472e-05
1.12717e-05
1.1293e-05
1.13106e-05
1.13248e-05
1.13352e-05
1.13404e-05
1.13155e-05
1.14504e-05
1.14741e-05
1.14679e-05
1.14571e-05
1.14428e-05
1.14248e-05
1.14029e-05
1.13769e-05
1.13467e-05
1.13126e-05
1.12753e-05
1.12378e-05
1.11993e-05
1.1165e-05
1.11419e-05
1.11409e-05
1.11649e-05
1.11991e-05
1.12375e-05
1.12754e-05
1.13126e-05
1.13466e-05
1.13764e-05
1.14028e-05
1.14253e-05
1.14434e-05
1.14577e-05
1.14676e-05
1.14734e-05
1.14497e-05
1.16095e-05
1.16328e-05
1.16262e-05
1.16158e-05
1.1602e-05
1.1584e-05
1.15613e-05
1.15346e-05
1.15039e-05
1.1469e-05
1.143e-05
1.139e-05
1.13504e-05
1.13125e-05
1.12869e-05
1.12872e-05
1.13133e-05
1.13494e-05
1.13903e-05
1.14303e-05
1.1469e-05
1.15039e-05
1.15345e-05
1.15617e-05
1.15839e-05
1.16015e-05
1.16155e-05
1.16259e-05
1.16325e-05
1.161e-05
1.17988e-05
1.18218e-05
1.18148e-05
1.18049e-05
1.17912e-05
1.17737e-05
1.17518e-05
1.17264e-05
1.16965e-05
1.16622e-05
1.16243e-05
1.15825e-05
1.15423e-05
1.15038e-05
1.14752e-05
1.14761e-05
1.15043e-05
1.15416e-05
1.15834e-05
1.16245e-05
1.16627e-05
1.1697e-05
1.1727e-05
1.17529e-05
1.17736e-05
1.17907e-05
1.18044e-05
1.1816e-05
1.18223e-05
1.17982e-05
1.20255e-05
1.20484e-05
1.20414e-05
1.20315e-05
1.20186e-05
1.20041e-05
1.19859e-05
1.19634e-05
1.19362e-05
1.19049e-05
1.18716e-05
1.1833e-05
1.17925e-05
1.17574e-05
1.17298e-05
1.173e-05
1.17573e-05
1.17938e-05
1.18329e-05
1.18714e-05
1.19063e-05
1.19364e-05
1.19634e-05
1.19855e-05
1.20036e-05
1.20197e-05
1.20321e-05
1.20425e-05
1.2048e-05
1.20228e-05
1.23006e-05
1.23265e-05
1.23187e-05
1.23099e-05
1.23003e-05
1.229e-05
1.22765e-05
1.22608e-05
1.22459e-05
1.22291e-05
1.22129e-05
1.22021e-05
1.21918e-05
1.21873e-05
1.21906e-05
1.21921e-05
1.21883e-05
1.21916e-05
1.2201e-05
1.22151e-05
1.22301e-05
1.22461e-05
1.22623e-05
1.22756e-05
1.22884e-05
1.23014e-05
1.23106e-05
1.2318e-05
1.2325e-05
1.22996e-05
1.26461e-05
1.26902e-05
1.26816e-05
1.2681e-05
1.26854e-05
1.26817e-05
1.26901e-05
1.27163e-05
1.27608e-05
1.2844e-05
1.3005e-05
1.32465e-05
1.35711e-05
1.39549e-05
1.43178e-05
1.43207e-05
1.3956e-05
1.35713e-05
1.32487e-05
1.30074e-05
1.28445e-05
1.27624e-05
1.27163e-05
1.26902e-05
1.26828e-05
1.26847e-05
1.26801e-05
1.26823e-05
1.26896e-05
1.26435e-05
1.31744e-05
1.33326e-05
1.33336e-05
1.3375e-05
1.35316e-05
1.35781e-05
1.37158e-05
1.4115e-05
1.46639e-05
1.55723e-05
1.74448e-05
2.01818e-05
2.37272e-05
2.79052e-05
3.17685e-05
3.17845e-05
2.79108e-05
2.37378e-05
2.02058e-05
1.74656e-05
1.55829e-05
1.46728e-05
1.41201e-05
1.37171e-05
1.35803e-05
1.3531e-05
1.33757e-05
1.33344e-05
1.33312e-05
1.31713e-05
1.43739e-05
1.52702e-05
1.53403e-05
1.57217e-05
1.74973e-05
1.78352e-05
1.87124e-05
2.33626e-05
2.78e-05
3.4455e-05
5.27295e-05
7.56058e-05
0.000106183
0.000141803
0.000172372
0.000172458
0.000141848
0.000106361
7.57928e-05
5.28843e-05
3.45569e-05
2.78826e-05
2.33966e-05
1.87312e-05
1.78614e-05
1.74851e-05
1.57276e-05
1.53458e-05
1.52619e-05
1.43668e-05
1.81067e-05
2.33854e-05
2.38187e-05
2.67062e-05
4.46356e-05
4.69827e-05
4.92201e-05
0.000110697
0.00013948
0.000166366
0.000330793
0.000435403
0.000602613
0.000787715
0.000914647
0.000915266
0.000787799
0.000604062
0.000436329
0.000331921
0.000167016
0.00014025
0.000110944
4.93536e-05
4.72816e-05
4.44834e-05
2.6762e-05
2.38505e-05
2.33616e-05
1.8087e-05
3.07765e-05
5.66217e-05
6.03265e-05
8.37877e-05
0.000210795
0.000235377
0.000303264
0.000753588
0.000890284
0.001053
0.00179978
0.00187412
0.00238393
0.00285156
0.00312629
0.00312864
0.00285132
0.00238476
0.00187594
0.00180488
0.00105675
0.000895499
0.000756102
0.000304362
0.000238155
0.000209924
8.42114e-05
6.05441e-05
5.65781e-05
3.0732e-05
7.5243e-05
0.000153326
0.000192949
0.000416586
0.000685427
0.000953253
0.00149458
0.00238896
0.0029078
0.00323081
0.00463298
0.00444142
0.00519565
0.00562626
0.00593224
0.00592944
0.00562099
0.00518553
0.00445092
0.0046452
0.00324304
0.00291956
0.00240221
0.00149808
0.000961395
0.000685222
0.000417084
0.000193759
0.000153325
7.51977e-05
0.000125382
0.000231211
0.000260223
0.000432724
0.000855564
0.00117855
0.00193242
0.00315734
0.00390997
0.00430596
0.00588301
0.00601941
0.00633016
0.00688411
0.00719572
0.00719959
0.00689178
0.00634186
0.00600836
0.00589809
0.00431936
0.00392527
0.00317825
0.00193693
0.0011909
0.000855493
0.000432196
0.000259451
0.000231419
0.000126074
0.000228225
0.000284176
0.000435618
0.000640228
0.00116049
0.00158693
0.00206772
0.00331218
0.00392106
0.00439859
0.00584865
0.00630273
0.00719965
0.00803131
0.00848553
0.0084915
0.00803683
0.00723322
0.0063039
0.00587768
0.00442878
0.00391781
0.00334096
0.00207327
0.00159546
0.00116133
0.000648892
0.000434994
0.00028545
0.00022825
0.000252697
0.000294513
0.000450428
0.000772816
0.00121888
0.00163363
0.00196431
0.00232594
0.00284433
0.00342442
0.00420257
0.00504384
0.00578925
0.00626549
0.00668992
0.00668762
0.00627474
0.00581429
0.00506975
0.00421387
0.00344543
0.00284689
0.00234557
0.0019753
0.00164172
0.00122126
0.000781741
0.000452016
0.000294422
0.000250778
0.00026094
0.000290202
0.000394176
0.000606039
0.000921963
0.0012921
0.00163188
0.0019004
0.00221819
0.00251357
0.00285576
0.00328576
0.00370636
0.00406634
0.00434403
0.00435118
0.00407859
0.00373758
0.00329552
0.00287286
0.00253532
0.00221751
0.00191779
0.00163498
0.00130052
0.000933303
0.000614781
0.000397232
0.000295012
0.000262886
0.000222806
0.000230105
0.00025955
0.000324272
0.0004513
0.000645501
0.00092293
0.00129468
0.00169314
0.00209025
0.00249119
0.00283161
0.00312147
0.00329337
0.00337178
0.0033849
0.00330382
0.00313596
0.00284974
0.00249528
0.00210309
0.00170337
0.00129944
0.000928444
0.000653641
0.000455596
0.000328232
0.00025825
0.000230549
0.00022497
0.000182709
0.000181938
0.000184923
0.000198405
0.000226761
0.000280118
0.00037561
0.000542028
0.000820524
0.00125834
0.00183292
0.00245838
0.0029209
0.0031615
0.00327082
0.0032752
0.00317096
0.00291991
0.00246719
0.00184603
0.00126249
0.000827554
0.00054991
0.000379228
0.000282384
0.000230229
0.000200339
0.000185154
0.00018118
0.000182944
0.000147629
0.00014214
0.000140066
0.000143757
0.000150734
0.000163403
0.000186619
0.000231991
0.000317286
0.000493494
0.000862474
0.00147946
0.00218166
0.00270066
0.00300905
0.00301312
0.00270927
0.00218347
0.0014846
0.000867914
0.000498751
0.000318109
0.00023345
0.000187785
0.000164179
0.000150848
0.000144484
0.000141866
0.000143109
0.000147876
0.000121815
0.000114517
0.000113948
0.000113442
0.000114412
0.000117147
0.00012402
0.000135455
0.000154419
0.000195248
0.00030041
0.000547035
0.00100076
0.00158197
0.00205721
0.00205519
0.00158357
0.00100478
0.00054833
0.000300709
0.000196545
0.000154985
0.00013555
0.000124625
0.00011796
0.000114595
0.000113581
0.00011347
0.000115054
0.00012215
0.000102175
9.62865e-05
9.50071e-05
9.45033e-05
9.52291e-05
9.62503e-05
9.84346e-05
0.00010197
0.000106893
0.000115977
0.000134999
0.000184745
0.00029731
0.000504813
0.000763185
0.000762174
0.000503835
0.000297802
0.000185036
0.000135859
0.000116309
0.000107423
0.000101663
9.82587e-05
9.61414e-05
9.51887e-05
9.47188e-05
9.51818e-05
9.61194e-05
0.000102673
8.78808e-05
8.19186e-05
8.05838e-05
8.11044e-05
8.11093e-05
8.18608e-05
8.32848e-05
8.46333e-05
8.65722e-05
8.91737e-05
9.27335e-05
0.000100427
0.00011717
0.000149244
0.00019479
0.000194824
0.000149411
0.000117686
0.000100622
9.3424e-05
8.93197e-05
8.69358e-05
8.49267e-05
8.33425e-05
8.20317e-05
8.15895e-05
8.11901e-05
8.09494e-05
8.18765e-05
8.75865e-05
7.50592e-05
7.01777e-05
6.96297e-05
6.99472e-05
7.03992e-05
7.11493e-05
7.19622e-05
7.26626e-05
7.3713e-05
7.45639e-05
7.52143e-05
7.61852e-05
7.8117e-05
8.15816e-05
8.68045e-05
8.68763e-05
8.18169e-05
7.8365e-05
7.62376e-05
7.53051e-05
7.44409e-05
7.36022e-05
7.27688e-05
7.18815e-05
7.09828e-05
7.03012e-05
6.99738e-05
6.96486e-05
7.06104e-05
7.55777e-05
6.5169e-05
6.08337e-05
6.05695e-05
6.08062e-05
6.11581e-05
6.15557e-05
6.18526e-05
6.22346e-05
6.26235e-05
6.27183e-05
6.27191e-05
6.261e-05
6.23217e-05
6.21421e-05
6.22951e-05
6.22691e-05
6.22162e-05
6.22681e-05
6.26371e-05
6.28951e-05
6.30025e-05
6.28622e-05
6.24724e-05
6.17878e-05
6.12327e-05
6.08209e-05
6.0652e-05
6.05705e-05
6.13722e-05
6.56646e-05
5.69094e-05
5.31565e-05
5.27458e-05
5.29489e-05
5.31173e-05
5.3199e-05
5.32412e-05
5.32938e-05
5.3263e-05
5.30468e-05
5.26712e-05
5.21545e-05
5.14687e-05
5.08576e-05
5.04636e-05
5.04486e-05
5.10102e-05
5.15558e-05
5.2256e-05
5.28603e-05
5.33247e-05
5.35183e-05
5.34856e-05
5.32874e-05
5.30978e-05
5.3046e-05
5.29636e-05
5.29258e-05
5.34832e-05
5.72613e-05
4.96776e-05
4.65241e-05
4.61467e-05
4.62794e-05
4.63103e-05
4.62948e-05
4.62331e-05
4.60906e-05
4.57465e-05
4.51633e-05
4.44815e-05
4.37792e-05
4.3029e-05
4.23531e-05
4.18665e-05
4.18272e-05
4.23905e-05
4.30726e-05
4.3841e-05
4.45939e-05
4.5251e-05
4.57748e-05
4.60914e-05
4.62467e-05
4.63231e-05
4.63663e-05
4.63364e-05
4.63006e-05
4.6707e-05
4.99019e-05
4.36626e-05
4.07916e-05
4.04728e-05
4.04823e-05
4.04502e-05
4.04088e-05
4.02236e-05
3.98497e-05
3.92683e-05
3.8548e-05
3.77966e-05
3.70344e-05
3.6214e-05
3.54783e-05
3.49845e-05
3.49737e-05
3.54846e-05
3.6199e-05
3.70266e-05
3.79119e-05
3.87306e-05
3.94004e-05
3.99065e-05
4.02257e-05
4.04228e-05
4.05235e-05
4.05154e-05
4.05029e-05
4.08599e-05
4.35512e-05
3.82232e-05
3.59198e-05
3.55838e-05
3.55022e-05
3.5457e-05
3.53203e-05
3.49871e-05
3.44689e-05
3.38008e-05
3.304e-05
3.22806e-05
3.14959e-05
3.06721e-05
2.99666e-05
2.95387e-05
2.95613e-05
3.00138e-05
3.06862e-05
3.15042e-05
3.24203e-05
3.3297e-05
3.40409e-05
3.46307e-05
3.50454e-05
3.52994e-05
3.54375e-05
3.55014e-05
3.55505e-05
3.59059e-05
3.82298e-05
3.38557e-05
3.17268e-05
3.14345e-05
3.14211e-05
3.13448e-05
3.10695e-05
3.06263e-05
3.00572e-05
2.94141e-05
2.8714e-05
2.79495e-05
2.71211e-05
2.62997e-05
2.56537e-05
2.52732e-05
2.52774e-05
2.56662e-05
2.6303e-05
2.71136e-05
2.80151e-05
2.88795e-05
2.96156e-05
3.02041e-05
3.06426e-05
3.09627e-05
3.11821e-05
3.13319e-05
3.14471e-05
3.17893e-05
3.38119e-05
2.98592e-05
2.82022e-05
2.80457e-05
2.80044e-05
2.77625e-05
2.74171e-05
2.69911e-05
2.6502e-05
2.59572e-05
2.52957e-05
2.45042e-05
2.36668e-05
2.29078e-05
2.23346e-05
2.19802e-05
2.19542e-05
2.22983e-05
2.29029e-05
2.36687e-05
2.4496e-05
2.52854e-05
2.59769e-05
2.65539e-05
2.70211e-05
2.7395e-05
2.76824e-05
2.78832e-05
2.80298e-05
2.83405e-05
3.00413e-05
2.66409e-05
2.53989e-05
2.52168e-05
2.49794e-05
2.46722e-05
2.43636e-05
2.39859e-05
2.35571e-05
2.30511e-05
2.24049e-05
2.16503e-05
2.08929e-05
2.02156e-05
1.96667e-05
1.93054e-05
1.92631e-05
1.95915e-05
2.01766e-05
2.08948e-05
2.16517e-05
2.23762e-05
2.30298e-05
2.35989e-05
2.40752e-05
2.44636e-05
2.47658e-05
2.4986e-05
2.51485e-05
2.54239e-05
2.68057e-05
2.40713e-05
2.30243e-05
2.2697e-05
2.24224e-05
2.21937e-05
2.19158e-05
2.15575e-05
2.11451e-05
2.06483e-05
2.00415e-05
1.93774e-05
1.87155e-05
1.80933e-05
1.75648e-05
1.72233e-05
1.72019e-05
1.75254e-05
1.80738e-05
1.87282e-05
1.94063e-05
2.00614e-05
2.06727e-05
2.12184e-05
2.16774e-05
2.2043e-05
2.23239e-05
2.25334e-05
2.26921e-05
2.29314e-05
2.40564e-05
2.17652e-05
2.08904e-05
2.05583e-05
2.0412e-05
2.02402e-05
1.99585e-05
1.96105e-05
1.92098e-05
1.8746e-05
1.82103e-05
1.76315e-05
1.70345e-05
1.64577e-05
1.59756e-05
1.5684e-05
1.56876e-05
1.5985e-05
1.6468e-05
1.70416e-05
1.76423e-05
1.82319e-05
1.87887e-05
1.92853e-05
1.97009e-05
2.00271e-05
2.02779e-05
2.04696e-05
2.06192e-05
2.08316e-05
2.17525e-05
1.98956e-05
1.90402e-05
1.88839e-05
1.87875e-05
1.85893e-05
1.83201e-05
1.80131e-05
1.76635e-05
1.72617e-05
1.67919e-05
1.62618e-05
1.57053e-05
1.51793e-05
1.47601e-05
1.45206e-05
1.4539e-05
1.48027e-05
1.52201e-05
1.57187e-05
1.62457e-05
1.67676e-05
1.72605e-05
1.77013e-05
1.80728e-05
1.83685e-05
1.85974e-05
1.87728e-05
1.89089e-05
1.90871e-05
1.98278e-05
1.82132e-05
1.75331e-05
1.74595e-05
1.73381e-05
1.71661e-05
1.69661e-05
1.67245e-05
1.64303e-05
1.60701e-05
1.5638e-05
1.51543e-05
1.46639e-05
1.42159e-05
1.38622e-05
1.36555e-05
1.36677e-05
1.389e-05
1.4245e-05
1.46761e-05
1.51368e-05
1.55976e-05
1.60341e-05
1.64265e-05
1.6757e-05
1.7021e-05
1.72237e-05
1.73755e-05
1.7489e-05
1.763e-05
1.82184e-05
1.67647e-05
1.63695e-05
1.62336e-05
1.61331e-05
1.60264e-05
1.58763e-05
1.56696e-05
1.54e-05
1.50647e-05
1.46786e-05
1.42704e-05
1.38685e-05
1.34929e-05
1.31777e-05
1.29798e-05
1.29774e-05
1.31684e-05
1.34825e-05
1.38639e-05
1.42699e-05
1.4672e-05
1.50476e-05
1.53821e-05
1.56656e-05
1.58942e-05
1.60712e-05
1.62029e-05
1.62995e-05
1.64152e-05
1.68849e-05
1.57566e-05
1.53857e-05
1.526e-05
1.52052e-05
1.51117e-05
1.49634e-05
1.47682e-05
1.45193e-05
1.42252e-05
1.3909e-05
1.3584e-05
1.32499e-05
1.29163e-05
1.26219e-05
1.2436e-05
1.24348e-05
1.26107e-05
1.28931e-05
1.3226e-05
1.35721e-05
1.39086e-05
1.42225e-05
1.45041e-05
1.47487e-05
1.49526e-05
1.51138e-05
1.52341e-05
1.53213e-05
1.54191e-05
1.579e-05
1.48772e-05
1.45171e-05
1.4485e-05
1.4432e-05
1.43203e-05
1.41809e-05
1.40102e-05
1.37984e-05
1.35608e-05
1.33105e-05
1.30398e-05
1.27427e-05
1.24404e-05
1.21791e-05
1.20213e-05
1.20259e-05
1.21804e-05
1.24213e-05
1.27024e-05
1.29965e-05
1.32847e-05
1.35565e-05
1.3804e-05
1.40205e-05
1.42009e-05
1.43425e-05
1.44468e-05
1.45213e-05
1.46011e-05
1.48873e-05
1.40415e-05
1.3882e-05
1.3856e-05
1.377e-05
1.36652e-05
1.35558e-05
1.34153e-05
1.32411e-05
1.30465e-05
1.28309e-05
1.25856e-05
1.23191e-05
1.20604e-05
1.18485e-05
1.17223e-05
1.17229e-05
1.18479e-05
1.20507e-05
1.22941e-05
1.25548e-05
1.2814e-05
1.30551e-05
1.32684e-05
1.3448e-05
1.35923e-05
1.37041e-05
1.37885e-05
1.38522e-05
1.392e-05
1.41408e-05
1.34807e-05
1.34246e-05
1.3329e-05
1.3238e-05
1.3165e-05
1.3078e-05
1.2956e-05
1.28075e-05
1.26373e-05
1.24403e-05
1.22203e-05
1.19961e-05
1.17918e-05
1.16258e-05
1.15197e-05
1.15108e-05
1.16087e-05
1.17815e-05
1.19958e-05
1.22258e-05
1.24498e-05
1.26514e-05
1.28212e-05
1.29586e-05
1.30689e-05
1.3159e-05
1.3234e-05
1.32966e-05
1.33601e-05
1.35316e-05
1.30865e-05
1.2953e-05
1.28545e-05
1.28053e-05
1.27581e-05
1.26788e-05
1.25722e-05
1.24472e-05
1.22998e-05
1.21287e-05
1.19465e-05
1.17702e-05
1.16098e-05
1.14696e-05
1.13693e-05
1.13516e-05
1.14305e-05
1.15773e-05
1.17594e-05
1.1951e-05
1.21326e-05
1.22923e-05
1.24268e-05
1.25396e-05
1.26361e-05
1.27201e-05
1.27933e-05
1.28548e-05
1.29108e-05
1.30363e-05
1.26456e-05
1.24922e-05
1.24653e-05
1.24522e-05
1.24065e-05
1.23306e-05
1.22415e-05
1.21392e-05
1.20165e-05
1.18772e-05
1.17325e-05
1.15909e-05
1.14538e-05
1.13254e-05
1.12308e-05
1.12145e-05
1.12844e-05
1.14097e-05
1.15613e-05
1.1717e-05
1.18634e-05
1.1996e-05
1.2115e-05
1.22205e-05
1.23118e-05
1.23891e-05
1.24535e-05
1.25034e-05
1.25413e-05
1.26214e-05
1.22382e-05
1.21826e-05
1.21975e-05
1.21778e-05
1.21208e-05
1.20514e-05
1.19782e-05
1.18925e-05
1.17906e-05
1.16774e-05
1.15586e-05
1.14364e-05
1.13123e-05
1.11969e-05
1.11162e-05
1.11096e-05
1.11784e-05
1.12872e-05
1.14127e-05
1.154e-05
1.16629e-05
1.178e-05
1.1888e-05
1.19825e-05
1.20615e-05
1.21245e-05
1.21712e-05
1.2201e-05
1.22184e-05
1.22635e-05
1.19753e-05