/*--------------------------------*- C++ -*----------------------------------*\
| =========                 |                                                 |
| \\      /  F ield         | OpenFOAM: The Open Source CFD Toolbox           |
|  \\    /   O peration     | Version:  2312                                  |
|   \\  /    A nd           | Website:  www.openfoam.com                      |
|    \\/     M anipulation  |                                                 |
\*---------------------------------------------------------------------------*/
FoamFile
{
    version     2.0;
    format      ascii;
    arch        "LSB;label=32;scalar=64";
    class       volScalarField;
    location    "0.862544";
    object      k;
}
// * * * * * * * * * * * * * * * * * * * * * * * * * * * * * * * * * * * * * //

dimensions      [0 2 -2 0 0 0 0];

internalField   nonuniform List<scalar> 
90000
(
2.55611e-05
2.55634e-05
2.55644e-05
2.55648e-05
2.55651e-05
2.55651e-05
2.55648e-05
2.55645e-05
2.5564e-05
2.55637e-05
2.55635e-05
2.55635e-05
2.55635e-05
2.55636e-05
2.55637e-05
2.55641e-05
2.55647e-05
2.55654e-05
2.55659e-05
2.55659e-05
2.55653e-05
2.55642e-05
2.55641e-05
2.55654e-05
2.55667e-05
2.55673e-05
2.55671e-05
2.55662e-05
2.55657e-05
2.55662e-05
2.55631e-05
2.5624e-05
2.56277e-05
2.56277e-05
2.56275e-05
2.56273e-05
2.56273e-05
2.56273e-05
2.56273e-05
2.56271e-05
2.5627e-05
2.56271e-05
2.56272e-05
2.56274e-05
2.56277e-05
2.5628e-05
2.56282e-05
2.56283e-05
2.56282e-05
2.56281e-05
2.56281e-05
2.56283e-05
2.56284e-05
2.56281e-05
2.56273e-05
2.56263e-05
2.56264e-05
2.56276e-05
2.5624e-05
2.55734e-05
2.55644e-05
2.56286e-05
2.56325e-05
2.56324e-05
2.56321e-05
2.56319e-05
2.56318e-05
2.56319e-05
2.5632e-05
2.5632e-05
2.56319e-05
2.56319e-05
2.56321e-05
2.56324e-05
2.56326e-05
2.56325e-05
2.56323e-05
2.56321e-05
2.56326e-05
2.56332e-05
2.56336e-05
2.56338e-05
2.56339e-05
2.56339e-05
2.56341e-05
2.56345e-05
2.56348e-05
2.56351e-05
2.56314e-05
2.55713e-05
2.5565e-05
2.56288e-05
2.56332e-05
2.56334e-05
2.56334e-05
2.56332e-05
2.5633e-05
2.56328e-05
2.56327e-05
2.56327e-05
2.56326e-05
2.56325e-05
2.56326e-05
2.56327e-05
2.56327e-05
2.56325e-05
2.56325e-05
2.56331e-05
2.56337e-05
2.5634e-05
2.56341e-05
2.56341e-05
2.56346e-05
2.56356e-05
2.56366e-05
2.56369e-05
2.56367e-05
2.56361e-05
2.56319e-05
2.55671e-05
2.55652e-05
2.56287e-05
2.56335e-05
2.5634e-05
2.56342e-05
2.56341e-05
2.56338e-05
2.56334e-05
2.56331e-05
2.56329e-05
2.56327e-05
2.56326e-05
2.56325e-05
2.56323e-05
2.56322e-05
2.56325e-05
2.5633e-05
2.56334e-05
2.56336e-05
2.56334e-05
2.56333e-05
2.56337e-05
2.56347e-05
2.56358e-05
2.56365e-05
2.56366e-05
2.5636e-05
2.56341e-05
2.56317e-05
2.55667e-05
2.55651e-05
2.56294e-05
2.56339e-05
2.56343e-05
2.56345e-05
2.56345e-05
2.56343e-05
2.5634e-05
2.56336e-05
2.5633e-05
2.56326e-05
2.56326e-05
2.56328e-05
2.56329e-05
2.56329e-05
2.56329e-05
2.56329e-05
2.56328e-05
2.56325e-05
2.56324e-05
2.56327e-05
2.56334e-05
2.5634e-05
2.56345e-05
2.56346e-05
2.56347e-05
2.56357e-05
2.56363e-05
2.56344e-05
2.55682e-05
2.55652e-05
2.56306e-05
2.56346e-05
2.56347e-05
2.56348e-05
2.56348e-05
2.56349e-05
2.56347e-05
2.56343e-05
2.56336e-05
2.56329e-05
2.56328e-05
2.56331e-05
2.56335e-05
2.56334e-05
2.5633e-05
2.56323e-05
2.56318e-05
2.56317e-05
2.56322e-05
2.56327e-05
2.56331e-05
2.56331e-05
2.56329e-05
2.56334e-05
2.56351e-05
2.56374e-05
2.56387e-05
2.56358e-05
2.55689e-05
2.55658e-05
2.56321e-05
2.56355e-05
2.56355e-05
2.56354e-05
2.56355e-05
2.56357e-05
2.56357e-05
2.56353e-05
2.56347e-05
2.56339e-05
2.56334e-05
2.56334e-05
2.56336e-05
2.56335e-05
2.5633e-05
2.56322e-05
2.56317e-05
2.56319e-05
2.56326e-05
2.56331e-05
2.56331e-05
2.56329e-05
2.56333e-05
2.56348e-05
2.56366e-05
2.56384e-05
2.56393e-05
2.56352e-05
2.55687e-05
2.55666e-05
2.56337e-05
2.56368e-05
2.56365e-05
2.56362e-05
2.56362e-05
2.56363e-05
2.56364e-05
2.56363e-05
2.56359e-05
2.56352e-05
2.56344e-05
2.56337e-05
2.56333e-05
2.56332e-05
2.56332e-05
2.56333e-05
2.56335e-05
2.56338e-05
2.56341e-05
2.56342e-05
2.56341e-05
2.56341e-05
2.56347e-05
2.5636e-05
2.56374e-05
2.56385e-05
2.56386e-05
2.5634e-05
2.55683e-05
2.55678e-05
2.56346e-05
2.56376e-05
2.56371e-05
2.56364e-05
2.56361e-05
2.5636e-05
2.56362e-05
2.56364e-05
2.56364e-05
2.56361e-05
2.56352e-05
2.56341e-05
2.5633e-05
2.56328e-05
2.56337e-05
2.56348e-05
2.56357e-05
2.56363e-05
2.56365e-05
2.56363e-05
2.56358e-05
2.56355e-05
2.56356e-05
2.56364e-05
2.56373e-05
2.56378e-05
2.56375e-05
2.56329e-05
2.55683e-05
2.55692e-05
2.56345e-05
2.56375e-05
2.5637e-05
2.56362e-05
2.56354e-05
2.56349e-05
2.5635e-05
2.56355e-05
2.5636e-05
2.56361e-05
2.56355e-05
2.56345e-05
2.56332e-05
2.56326e-05
2.56338e-05
2.56356e-05
2.56371e-05
2.56383e-05
2.56386e-05
2.56382e-05
2.56373e-05
2.56365e-05
2.56361e-05
2.56362e-05
2.56366e-05
2.5637e-05
2.56369e-05
2.56327e-05
2.55688e-05
2.55697e-05
2.56341e-05
2.56374e-05
2.56372e-05
2.56368e-05
2.56362e-05
2.56357e-05
2.56352e-05
2.56351e-05
2.56352e-05
2.56354e-05
2.56353e-05
2.56348e-05
2.56338e-05
2.56328e-05
2.56336e-05
2.56356e-05
2.56375e-05
2.56386e-05
2.56389e-05
2.56384e-05
2.56376e-05
2.56368e-05
2.56364e-05
2.56362e-05
2.56364e-05
2.56368e-05
2.5637e-05
2.56332e-05
2.55695e-05
2.55702e-05
2.56342e-05
2.56379e-05
2.56381e-05
2.56384e-05
2.56387e-05
2.56387e-05
2.56383e-05
2.56373e-05
2.56359e-05
2.5635e-05
2.56351e-05
2.56352e-05
2.56351e-05
2.56348e-05
2.56349e-05
2.56357e-05
2.56365e-05
2.56368e-05
2.56369e-05
2.56368e-05
2.56367e-05
2.56366e-05
2.56366e-05
2.56366e-05
2.56367e-05
2.5637e-05
2.56373e-05
2.56335e-05
2.55698e-05
2.55725e-05
2.56343e-05
2.56387e-05
2.56395e-05
2.56405e-05
2.56414e-05
2.56416e-05
2.5641e-05
2.56393e-05
2.5637e-05
2.5635e-05
2.56348e-05
2.56355e-05
2.56362e-05
2.56366e-05
2.56367e-05
2.56363e-05
2.56352e-05
2.56342e-05
2.56344e-05
2.56353e-05
2.56362e-05
2.56369e-05
2.56373e-05
2.56373e-05
2.56372e-05
2.56374e-05
2.56377e-05
2.56336e-05
2.55702e-05
2.55755e-05
2.56344e-05
2.564e-05
2.56413e-05
2.56425e-05
2.56431e-05
2.56427e-05
2.56415e-05
2.56395e-05
2.56372e-05
2.56351e-05
2.56345e-05
2.56355e-05
2.56368e-05
2.56376e-05
2.56376e-05
2.56368e-05
2.56353e-05
2.5634e-05
2.56342e-05
2.56356e-05
2.5637e-05
2.5638e-05
2.56385e-05
2.56386e-05
2.56386e-05
2.56387e-05
2.56388e-05
2.56346e-05
2.55718e-05
2.55776e-05
2.56368e-05
2.56422e-05
2.56431e-05
2.56434e-05
2.56428e-05
2.56417e-05
2.56404e-05
2.56392e-05
2.56379e-05
2.56362e-05
2.56349e-05
2.56357e-05
2.5637e-05
2.56378e-05
2.56378e-05
2.56372e-05
2.56362e-05
2.56355e-05
2.56356e-05
2.56369e-05
2.56385e-05
2.56396e-05
2.56403e-05
2.56406e-05
2.56409e-05
2.56411e-05
2.56414e-05
2.5638e-05
2.55747e-05
2.55788e-05
2.56417e-05
2.56449e-05
2.56445e-05
2.56433e-05
2.5642e-05
2.56412e-05
2.56408e-05
2.56404e-05
2.56394e-05
2.56378e-05
2.56362e-05
2.56363e-05
2.56371e-05
2.56375e-05
2.56375e-05
2.56373e-05
2.5637e-05
2.56368e-05
2.56372e-05
2.56385e-05
2.56401e-05
2.56413e-05
2.56422e-05
2.5643e-05
2.56437e-05
2.56443e-05
2.56448e-05
2.56411e-05
2.5577e-05
2.55799e-05
2.56455e-05
2.56476e-05
2.56467e-05
2.56457e-05
2.56448e-05
2.56442e-05
2.56436e-05
2.56426e-05
2.56411e-05
2.56392e-05
2.56375e-05
2.56369e-05
2.56368e-05
2.56365e-05
2.56365e-05
2.56369e-05
2.56375e-05
2.56381e-05
2.5639e-05
2.56403e-05
2.56418e-05
2.56431e-05
2.56444e-05
2.56457e-05
2.56467e-05
2.56475e-05
2.56476e-05
2.5643e-05
2.55794e-05
2.55822e-05
2.56479e-05
2.56507e-05
2.56502e-05
2.56496e-05
2.56489e-05
2.56481e-05
2.56468e-05
2.5645e-05
2.56429e-05
2.56407e-05
2.56387e-05
2.56372e-05
2.5636e-05
2.56352e-05
2.56353e-05
2.56364e-05
2.56379e-05
2.56394e-05
2.56408e-05
2.56423e-05
2.56439e-05
2.56456e-05
2.56474e-05
2.56491e-05
2.56502e-05
2.56505e-05
2.56503e-05
2.56457e-05
2.55826e-05
2.55861e-05
2.56502e-05
2.56541e-05
2.56539e-05
2.56536e-05
2.5653e-05
2.5652e-05
2.56503e-05
2.56481e-05
2.56456e-05
2.5643e-05
2.56404e-05
2.56379e-05
2.56357e-05
2.56343e-05
2.56347e-05
2.56367e-05
2.5639e-05
2.56411e-05
2.5643e-05
2.56448e-05
2.56469e-05
2.56493e-05
2.56516e-05
2.56532e-05
2.5654e-05
2.56542e-05
2.56542e-05
2.56497e-05
2.55872e-05
2.55907e-05
2.56536e-05
2.5658e-05
2.56581e-05
2.5658e-05
2.56575e-05
2.56563e-05
2.56544e-05
2.56519e-05
2.5649e-05
2.5646e-05
2.56427e-05
2.56394e-05
2.56365e-05
2.5635e-05
2.56358e-05
2.56383e-05
2.56409e-05
2.56435e-05
2.56458e-05
2.56483e-05
2.5651e-05
2.56538e-05
2.5656e-05
2.56573e-05
2.56582e-05
2.56589e-05
2.56592e-05
2.56549e-05
2.55928e-05
2.55962e-05
2.56585e-05
2.56633e-05
2.56638e-05
2.56638e-05
2.5663e-05
2.56614e-05
2.5659e-05
2.56562e-05
2.56529e-05
2.56492e-05
2.56452e-05
2.56413e-05
2.56382e-05
2.56368e-05
2.56375e-05
2.56401e-05
2.56431e-05
2.56462e-05
2.56493e-05
2.56525e-05
2.56556e-05
2.56582e-05
2.56602e-05
2.56618e-05
2.56634e-05
2.56645e-05
2.56648e-05
2.56608e-05
2.55988e-05
2.56035e-05
2.56663e-05
2.56711e-05
2.56715e-05
2.5671e-05
2.56696e-05
2.56673e-05
2.56643e-05
2.56609e-05
2.5657e-05
2.56527e-05
2.56481e-05
2.56437e-05
2.564e-05
2.56381e-05
2.56387e-05
2.56417e-05
2.56455e-05
2.56496e-05
2.56536e-05
2.56573e-05
2.56605e-05
2.56632e-05
2.56656e-05
2.56681e-05
2.56702e-05
2.56715e-05
2.56719e-05
2.56683e-05
2.56066e-05
2.56138e-05
2.5677e-05
2.56815e-05
2.56813e-05
2.56798e-05
2.56774e-05
2.56743e-05
2.56706e-05
2.56665e-05
2.56619e-05
2.56568e-05
2.56516e-05
2.56465e-05
2.56422e-05
2.56395e-05
2.56401e-05
2.56439e-05
2.56487e-05
2.56537e-05
2.56584e-05
2.56625e-05
2.56663e-05
2.56699e-05
2.56735e-05
2.56768e-05
2.56793e-05
2.56808e-05
2.56818e-05
2.56789e-05
2.56176e-05
2.56272e-05
2.56906e-05
2.56942e-05
2.56929e-05
2.56904e-05
2.56871e-05
2.56832e-05
2.56788e-05
2.56738e-05
2.56682e-05
2.56621e-05
2.5656e-05
2.56503e-05
2.56453e-05
2.5642e-05
2.56425e-05
2.5647e-05
2.56526e-05
2.56582e-05
2.56635e-05
2.56686e-05
2.56737e-05
2.56788e-05
2.56835e-05
2.56874e-05
2.56903e-05
2.56926e-05
2.56948e-05
2.56928e-05
2.5631e-05
2.56441e-05
2.57066e-05
2.57093e-05
2.57069e-05
2.57035e-05
2.56994e-05
2.56948e-05
2.56894e-05
2.56832e-05
2.56763e-05
2.56691e-05
2.56622e-05
2.56558e-05
2.56501e-05
2.56458e-05
2.5646e-05
2.56508e-05
2.56569e-05
2.56633e-05
2.56699e-05
2.56766e-05
2.56833e-05
2.56894e-05
2.56948e-05
2.56991e-05
2.57029e-05
2.57065e-05
2.571e-05
2.5708e-05
2.56453e-05
2.56639e-05
2.57249e-05
2.5727e-05
2.57238e-05
2.57197e-05
2.57148e-05
2.57092e-05
2.57025e-05
2.56949e-05
2.56868e-05
2.56787e-05
2.5671e-05
2.56636e-05
2.56566e-05
2.56509e-05
2.56504e-05
2.56554e-05
2.56625e-05
2.56705e-05
2.5679e-05
2.56875e-05
2.56953e-05
2.57022e-05
2.57082e-05
2.57134e-05
2.57185e-05
2.57236e-05
2.5727e-05
2.5724e-05
2.56618e-05
2.56868e-05
2.57461e-05
2.57477e-05
2.57439e-05
2.57391e-05
2.57334e-05
2.57266e-05
2.57185e-05
2.57096e-05
2.57005e-05
2.56914e-05
2.56824e-05
2.56732e-05
2.56641e-05
2.56567e-05
2.56557e-05
2.56616e-05
2.56706e-05
2.56809e-05
2.56915e-05
2.57016e-05
2.57106e-05
2.57185e-05
2.57258e-05
2.57324e-05
2.57391e-05
2.57446e-05
2.57467e-05
2.57436e-05
2.56836e-05
2.5713e-05
2.57709e-05
2.57722e-05
2.5768e-05
2.57625e-05
2.57557e-05
2.57475e-05
2.57381e-05
2.57279e-05
2.57175e-05
2.57069e-05
2.56958e-05
2.56841e-05
2.56726e-05
2.56637e-05
2.5663e-05
2.56707e-05
2.56821e-05
2.56948e-05
2.57072e-05
2.57188e-05
2.57293e-05
2.57389e-05
2.57481e-05
2.57566e-05
2.57643e-05
2.57695e-05
2.57712e-05
2.57697e-05
2.57112e-05
2.57439e-05
2.58007e-05
2.58017e-05
2.5797e-05
2.57906e-05
2.57825e-05
2.57729e-05
2.57621e-05
2.57504e-05
2.57383e-05
2.57254e-05
2.57115e-05
2.5697e-05
2.56833e-05
2.56735e-05
2.56734e-05
2.5683e-05
2.56966e-05
2.57115e-05
2.57258e-05
2.57392e-05
2.57518e-05
2.57636e-05
2.5775e-05
2.5785e-05
2.57933e-05
2.57987e-05
2.58023e-05
2.58024e-05
2.57441e-05
2.5781e-05
2.58373e-05
2.58378e-05
2.58324e-05
2.58249e-05
2.58154e-05
2.58042e-05
2.57916e-05
2.57781e-05
2.57635e-05
2.57477e-05
2.57307e-05
2.57134e-05
2.56976e-05
2.56867e-05
2.56869e-05
2.56982e-05
2.57141e-05
2.57312e-05
2.57482e-05
2.57642e-05
2.57794e-05
2.57936e-05
2.58072e-05
2.58182e-05
2.58268e-05
2.58341e-05
2.58406e-05
2.58409e-05
2.5783e-05
2.58262e-05
2.58822e-05
2.58821e-05
2.58758e-05
2.5867e-05
2.58558e-05
2.58427e-05
2.5828e-05
2.5812e-05
2.57945e-05
2.57752e-05
2.57548e-05
2.57343e-05
2.57159e-05
2.57034e-05
2.57037e-05
2.57168e-05
2.57352e-05
2.57553e-05
2.57757e-05
2.57949e-05
2.58131e-05
2.58297e-05
2.58452e-05
2.58573e-05
2.58672e-05
2.58774e-05
2.5886e-05
2.58862e-05
2.58298e-05
2.58813e-05
2.59371e-05
2.59362e-05
2.59288e-05
2.59183e-05
2.59052e-05
2.58898e-05
2.58725e-05
2.58534e-05
2.58323e-05
2.58092e-05
2.57849e-05
2.57609e-05
2.57397e-05
2.57251e-05
2.57253e-05
2.57404e-05
2.57617e-05
2.5785e-05
2.58087e-05
2.58314e-05
2.5853e-05
2.58721e-05
2.589e-05
2.59044e-05
2.5917e-05
2.59299e-05
2.59393e-05
2.59404e-05
2.58856e-05
2.59481e-05
2.60035e-05
2.60016e-05
2.59927e-05
2.59802e-05
2.59646e-05
2.59465e-05
2.5926e-05
2.59033e-05
2.58781e-05
2.58509e-05
2.58227e-05
2.5795e-05
2.57705e-05
2.57537e-05
2.57538e-05
2.57707e-05
2.5795e-05
2.58218e-05
2.58491e-05
2.58756e-05
2.59015e-05
2.59237e-05
2.59444e-05
2.59626e-05
2.59786e-05
2.59929e-05
2.60029e-05
2.60048e-05
2.59511e-05
2.60284e-05
2.60826e-05
2.60793e-05
2.60685e-05
2.60536e-05
2.60354e-05
2.60142e-05
2.59902e-05
2.59634e-05
2.59339e-05
2.59024e-05
2.58699e-05
2.5838e-05
2.58098e-05
2.57907e-05
2.57909e-05
2.58102e-05
2.58382e-05
2.58692e-05
2.5901e-05
2.59319e-05
2.59624e-05
2.59881e-05
2.60123e-05
2.60346e-05
2.60533e-05
2.60682e-05
2.60786e-05
2.60812e-05
2.60291e-05
2.61242e-05
2.61759e-05
2.61708e-05
2.61581e-05
2.61412e-05
2.61207e-05
2.60965e-05
2.60688e-05
2.60376e-05
2.60035e-05
2.5967e-05
2.59295e-05
2.58928e-05
2.58607e-05
2.58392e-05
2.58398e-05
2.58623e-05
2.58942e-05
2.59301e-05
2.59674e-05
2.60031e-05
2.60383e-05
2.60681e-05
2.60963e-05
2.6122e-05
2.61423e-05
2.61577e-05
2.61691e-05
2.61733e-05
2.61239e-05
2.62378e-05
2.62868e-05
2.62804e-05
2.62665e-05
2.62482e-05
2.62254e-05
2.6198e-05
2.61661e-05
2.61302e-05
2.60909e-05
2.6049e-05
2.60061e-05
2.59646e-05
2.59285e-05
2.59041e-05
2.59043e-05
2.59296e-05
2.59659e-05
2.60071e-05
2.6051e-05
2.6092e-05
2.61315e-05
2.61662e-05
2.61983e-05
2.62265e-05
2.62485e-05
2.62658e-05
2.62794e-05
2.62861e-05
2.62388e-05
2.63736e-05
2.64207e-05
2.64138e-05
2.63989e-05
2.63782e-05
2.63521e-05
2.63207e-05
2.62845e-05
2.62439e-05
2.61997e-05
2.61525e-05
2.61044e-05
2.60577e-05
2.60168e-05
2.59889e-05
2.5988e-05
2.6016e-05
2.60579e-05
2.61048e-05
2.61546e-05
2.62007e-05
2.62449e-05
2.62849e-05
2.6321e-05
2.63518e-05
2.63765e-05
2.63974e-05
2.64137e-05
2.64222e-05
2.63765e-05
2.65361e-05
2.6582e-05
2.65734e-05
2.65559e-05
2.65318e-05
2.65023e-05
2.64676e-05
2.64276e-05
2.63825e-05
2.63332e-05
2.62805e-05
2.62267e-05
2.61741e-05
2.61279e-05
2.60967e-05
2.6096e-05
2.61269e-05
2.61741e-05
2.62269e-05
2.62815e-05
2.63331e-05
2.63829e-05
2.64282e-05
2.64678e-05
2.65024e-05
2.65304e-05
2.65545e-05
2.6573e-05
2.65821e-05
2.65381e-05
2.67295e-05
2.67725e-05
2.67606e-05
2.67406e-05
2.67151e-05
2.66834e-05
2.66457e-05
2.66018e-05
2.65521e-05
2.64975e-05
2.6439e-05
2.63792e-05
2.6321e-05
2.62701e-05
2.62353e-05
2.62352e-05
2.62698e-05
2.63211e-05
2.63795e-05
2.64396e-05
2.64972e-05
2.65524e-05
2.66022e-05
2.66452e-05
2.66841e-05
2.67153e-05
2.67412e-05
2.67613e-05
2.67716e-05
2.67282e-05
2.69567e-05
2.69968e-05
2.69839e-05
2.69639e-05
2.69373e-05
2.69031e-05
2.68621e-05
2.68152e-05
2.67617e-05
2.67023e-05
2.66386e-05
2.6574e-05
2.65108e-05
2.64548e-05
2.64161e-05
2.64149e-05
2.64537e-05
2.65104e-05
2.65737e-05
2.66385e-05
2.67019e-05
2.67611e-05
2.68149e-05
2.68621e-05
2.69036e-05
2.69376e-05
2.69644e-05
2.69845e-05
2.69976e-05
2.69545e-05
2.72262e-05
2.72676e-05
2.72536e-05
2.7232e-05
2.72031e-05
2.71673e-05
2.71243e-05
2.70749e-05
2.70182e-05
2.69553e-05
2.68879e-05
2.68196e-05
2.6753e-05
2.66904e-05
2.66484e-05
2.66495e-05
2.66914e-05
2.67516e-05
2.68194e-05
2.68884e-05
2.69558e-05
2.7018e-05
2.70739e-05
2.71252e-05
2.71671e-05
2.72026e-05
2.72313e-05
2.7252e-05
2.7268e-05
2.72265e-05
2.75506e-05
2.75927e-05
2.75741e-05
2.75507e-05
2.75214e-05
2.74847e-05
2.74396e-05
2.7389e-05
2.73312e-05
2.72677e-05
2.72004e-05
2.71278e-05
2.70595e-05
2.69957e-05
2.69504e-05
2.69516e-05
2.69967e-05
2.70591e-05
2.71292e-05
2.72004e-05
2.72682e-05
2.73325e-05
2.73896e-05
2.74419e-05
2.74843e-05
2.75205e-05
2.75507e-05
2.75762e-05
2.75925e-05
2.7547e-05
2.79417e-05
2.79837e-05
2.79628e-05
2.79381e-05
2.79061e-05
2.78697e-05
2.78271e-05
2.77776e-05
2.77208e-05
2.76588e-05
2.75959e-05
2.75257e-05
2.74585e-05
2.73993e-05
2.73543e-05
2.73544e-05
2.73984e-05
2.74599e-05
2.75262e-05
2.75949e-05
2.76604e-05
2.7721e-05
2.77777e-05
2.78267e-05
2.78687e-05
2.79075e-05
2.79391e-05
2.7965e-05
2.79834e-05
2.79331e-05
2.84202e-05
2.84746e-05
2.84485e-05
2.84192e-05
2.83876e-05
2.83538e-05
2.83117e-05
2.82659e-05
2.8223e-05
2.81755e-05
2.81358e-05
2.81084e-05
2.80843e-05
2.80716e-05
2.80735e-05
2.80763e-05
2.80736e-05
2.80836e-05
2.81055e-05
2.81393e-05
2.81783e-05
2.82213e-05
2.82689e-05
2.83106e-05
2.83494e-05
2.83899e-05
2.84219e-05
2.84458e-05
2.8473e-05
2.84148e-05
2.90524e-05
2.91585e-05
2.91229e-05
2.91087e-05
2.90955e-05
2.90489e-05
2.90299e-05
2.90344e-05
2.90591e-05
2.91381e-05
2.93564e-05
2.96964e-05
3.01648e-05
3.07215e-05
3.12448e-05
3.12494e-05
3.07227e-05
3.01651e-05
2.97015e-05
2.9359e-05
2.91383e-05
2.90628e-05
2.90347e-05
2.903e-05
2.90508e-05
2.90927e-05
2.91082e-05
2.9127e-05
2.9159e-05
2.90436e-05
3.01983e-05
3.05586e-05
3.05807e-05
3.07303e-05
3.09264e-05
3.08341e-05
3.10193e-05
3.14581e-05
3.20503e-05
3.3149e-05
3.56463e-05
3.91767e-05
4.35574e-05
4.84546e-05
5.27919e-05
5.28102e-05
4.84593e-05
4.35679e-05
3.92091e-05
3.5673e-05
3.31638e-05
3.20647e-05
3.14643e-05
3.10229e-05
3.08412e-05
3.09208e-05
3.07303e-05
3.05848e-05
3.05606e-05
3.01918e-05
3.35259e-05
3.48334e-05
3.56556e-05
3.75698e-05
3.92042e-05
3.8746e-05
4.12626e-05
4.51051e-05
4.89242e-05
5.66876e-05
7.36364e-05
9.31713e-05
0.000116455
0.000140508
0.000160087
0.00016012
0.000140534
0.000116553
9.33507e-05
7.37699e-05
5.68327e-05
4.9019e-05
4.51377e-05
4.13086e-05
3.87988e-05
3.91474e-05
3.75773e-05
3.56774e-05
3.48261e-05
3.35094e-05
4.51722e-05
4.76186e-05
5.48316e-05
6.96328e-05
7.50915e-05
7.40511e-05
0.000101556
0.000123828
0.000144083
0.000190849
0.000251964
0.000301857
0.000395969
0.000449121
0.000483178
0.000481692
0.000448864
0.000393506
0.000306277
0.000252437
0.000191462
0.000144601
0.000124028
0.000101847
7.44048e-05
7.47076e-05
6.96971e-05
5.49637e-05
4.75922e-05
4.50843e-05
7.78315e-05
8.09976e-05
0.000110382
0.000167331
0.000195162
0.00021904
0.000344962
0.000418545
0.000475712
0.000649481
0.000751782
0.00086366
0.00109357
0.0011033
0.00119308
0.00118187
0.00110304
0.0010879
0.000878067
0.000753313
0.000650817
0.000477152
0.000419369
0.000345611
0.00022002
0.00019367
0.000167675
0.00011086
8.09513e-05
7.75662e-05
0.000145009
0.000160858
0.000219192
0.000332912
0.00043047
0.000597736
0.000787468
0.000970235
0.00105829
0.00122555
0.00126699
0.00151908
0.00179654
0.00181243
0.00186885
0.00185534
0.00182749
0.00179715
0.00153995
0.00127057
0.00122899
0.00106106
0.00097381
0.000788901
0.000600941
0.000429536
0.000333978
0.00022019
0.000160936
0.000144557
0.000213955
0.000252461
0.000268809
0.000386307
0.000541265
0.000662093
0.0010374
0.00125911
0.00146523
0.00168839
0.00184012
0.00226765
0.00224127
0.00191123
0.00227432
0.00225044
0.00194348
0.00224324
0.00221415
0.0018328
0.00169214
0.00147122
0.00126432
0.00104133
0.000666549
0.000541528
0.000389404
0.000270673
0.00025281
0.000213496
0.000282267
0.000286097
0.00037875
0.00049822
0.000694046
0.000749484
0.00101833
0.00150578
0.0013894
0.00158913
0.00200761
0.0019658
0.00218825
0.00201178
0.00239405
0.00251586
0.00204498
0.00221646
0.00204082
0.00203612
0.00160103
0.00139421
0.00150973
0.00102095
0.000752347
0.000695123
0.0005063
0.000380395
0.000286829
0.000281317
0.000244799
0.000257574
0.000353709
0.000523313
0.000678656
0.000792993
0.000933331
0.0010504
0.0011314
0.00137483
0.00172653
0.00160227
0.00171811
0.00179503
0.00187642
0.00186172
0.0017969
0.0017164
0.00160588
0.00174488
0.00138282
0.00113428
0.00105189
0.000936852
0.000795314
0.00068098
0.00052383
0.000353682
0.000258517
0.000243626
0.000232975
0.000245322
0.000309865
0.000419175
0.000551034
0.000677086
0.000790889
0.000870851
0.000919628
0.0010461
0.00113661
0.00116869
0.00126461
0.00133781
0.00140903
0.00140157
0.00134245
0.00127309
0.00116917
0.00114499
0.00105191
0.000920023
0.000873478
0.000793325
0.000679792
0.000556126
0.000422035
0.000311039
0.000246975
0.000233253
0.000200647
0.000201539
0.000221793
0.000265634
0.000339207
0.000434865
0.000552903
0.000671233
0.000776775
0.000889016
0.000981894
0.00104409
0.00110893
0.00114742
0.00116855
0.0011695
0.00114796
0.00110988
0.00104714
0.000982243
0.000891258
0.000778802
0.000672792
0.000554542
0.000436461
0.000341681
0.000267176
0.00022134
0.000202019
0.000201725
0.000172773
0.000169216
0.000171701
0.000182589
0.000205156
0.000241868
0.00030183
0.000388202
0.00050389
0.000654749
0.000814404
0.00096183
0.00106206
0.00110731
0.0011297
0.00113085
0.00111097
0.00106139
0.000963391
0.000817804
0.000656029
0.000505664
0.000391125
0.000303784
0.000243493
0.000206695
0.00018407
0.000172135
0.000169088
0.000172884
0.000148288
0.000142406
0.000141164
0.000144999
0.000151237
0.000161812
0.000180063
0.000213605
0.000268372
0.000365152
0.000523798
0.0007228
0.000903897
0.00102146
0.00108312
0.00108384
0.00102316
0.000905021
0.000724143
0.000524898
0.000367981
0.000268898
0.000214139
0.000181247
0.000162534
0.000151557
0.000145385
0.000142447
0.000142915
0.000148452
0.000129523
0.000122597
0.00012296
0.000123279
0.000124897
0.000127917
0.000134402
0.00014379
0.00015983
0.000193489
0.000265522
0.000399545
0.000581429
0.000757781
0.000879277
0.00087918
0.000758862
0.000582301
0.000399591
0.000266064
0.000193821
0.000160342
0.000143789
0.000134621
0.000128581
0.000125032
0.000123358
0.000122566
0.000122996
0.000129398
0.000114003
0.000109864
0.000109223
0.00010936
0.000110675
0.00011199
0.000113949
0.000117281
0.000122007
0.000130638
0.000149082
0.00019239
0.000273525
0.000389397
0.00050144
0.000500375
0.000389087
0.000274274
0.000192308
0.0001496
0.000130889
0.000122345
0.000117255
0.000113941
0.000111739
0.000110717
0.00010958
0.000109293
0.000109921
0.000114309
0.000103221
9.93123e-05
9.84419e-05
9.9276e-05
9.95465e-05
0.000100349
0.000101857
0.000103206
0.000105077
0.000107611
0.000111497
0.000120177
0.000138759
0.000171138
0.000210189
0.000209849
0.000171033
0.000139295
0.000120314
0.000111953
0.000107797
0.000105168
0.000103394
0.000102025
0.000100591
9.98859e-05
9.9263e-05
9.86788e-05
9.94355e-05
0.000102898
9.34056e-05
9.00852e-05
8.97148e-05
8.99418e-05
9.07282e-05
9.13952e-05
9.23503e-05
9.3079e-05
9.40644e-05
9.48417e-05
9.56948e-05
9.72368e-05
0.000100011
0.000104866
0.000111709
0.000111907
0.000105292
0.000100109
9.7118e-05
9.58179e-05
9.49586e-05
9.39369e-05
9.30813e-05
9.21952e-05
9.14224e-05
9.06178e-05
9.01621e-05
8.98067e-05
9.04679e-05
9.39398e-05
8.5537e-05
8.20567e-05
8.19393e-05
8.2162e-05
8.2614e-05
8.30484e-05
8.35424e-05
8.37421e-05
8.41611e-05
8.44087e-05
8.45015e-05
8.44905e-05
8.4394e-05
8.46711e-05
8.5361e-05
8.53049e-05
8.48768e-05
8.44037e-05
8.45713e-05
8.46461e-05
8.45225e-05
8.4358e-05
8.41223e-05
8.34252e-05
8.27964e-05
8.23123e-05
8.21062e-05
8.20093e-05
8.26218e-05
8.59127e-05
7.82594e-05
7.51316e-05
7.48217e-05
7.49764e-05
7.52171e-05
7.53793e-05
7.54179e-05
7.5501e-05
7.55866e-05
7.53625e-05
7.49131e-05
7.44694e-05
7.39874e-05
7.35292e-05
7.32052e-05
7.31096e-05
7.36003e-05
7.40529e-05
7.47014e-05
7.52199e-05
7.55297e-05
7.57879e-05
7.57766e-05
7.55205e-05
7.52438e-05
7.51391e-05
7.50991e-05
7.49685e-05
7.55151e-05
7.86399e-05
7.15493e-05
6.88755e-05
6.84592e-05
6.85441e-05
6.86166e-05
6.86714e-05
6.85597e-05
6.84766e-05
6.81137e-05
6.74856e-05
6.6833e-05
6.61928e-05
6.54633e-05
6.47585e-05
6.42265e-05
6.42553e-05
6.48459e-05
6.55007e-05
6.62088e-05
6.69126e-05
6.75848e-05
6.82493e-05
6.8541e-05
6.86424e-05
6.87066e-05
6.87279e-05
6.87144e-05
6.86119e-05
6.90793e-05
7.18906e-05
6.57405e-05
6.30749e-05
6.27259e-05
6.26857e-05
6.27251e-05
6.26558e-05
6.24626e-05
6.20845e-05
6.14596e-05
6.07107e-05
5.99138e-05
5.90638e-05
5.81385e-05
5.73602e-05
5.68327e-05
5.69046e-05
5.74328e-05
5.81591e-05
5.90798e-05
6.00326e-05
6.09134e-05
6.16706e-05
6.21606e-05
6.24747e-05
6.27239e-05
6.28493e-05
6.28169e-05
6.27786e-05
6.31988e-05
6.57278e-05
6.0197e-05
5.79375e-05
5.75341e-05
5.74893e-05
5.73885e-05
5.72275e-05
5.69082e-05
5.63237e-05
5.55831e-05
5.47292e-05
5.385e-05
5.29366e-05
5.20013e-05
5.12268e-05
5.07151e-05
5.07554e-05
5.12527e-05
5.20038e-05
5.29752e-05
5.40031e-05
5.49866e-05
5.58547e-05
5.65174e-05
5.6984e-05
5.7275e-05
5.74236e-05
5.74646e-05
5.75415e-05
5.79753e-05
6.02964e-05
5.55393e-05
5.33325e-05
5.29861e-05
5.29594e-05
5.28056e-05
5.25784e-05
5.20402e-05
5.13515e-05
5.06114e-05
4.97677e-05
4.88525e-05
4.78784e-05
4.69122e-05
4.61225e-05
4.56231e-05
4.56404e-05
4.61197e-05
4.68892e-05
4.78811e-05
4.89447e-05
4.99892e-05
5.09041e-05
5.15892e-05
5.20702e-05
5.24263e-05
5.26814e-05
5.28556e-05
5.30221e-05
5.34401e-05
5.55538e-05
5.11107e-05
4.92375e-05
4.91006e-05
4.89661e-05
4.87415e-05
4.83505e-05
4.77779e-05
4.72147e-05
4.65581e-05
4.57252e-05
4.47632e-05
4.3732e-05
4.2764e-05
4.20051e-05
4.15404e-05
4.15416e-05
4.19882e-05
4.27375e-05
4.3702e-05
4.47266e-05
4.57179e-05
4.66012e-05
4.73119e-05
4.78598e-05
4.82975e-05
4.86432e-05
4.88986e-05
4.90926e-05
4.9463e-05
5.13305e-05
4.73308e-05
4.59347e-05
4.56809e-05
4.53933e-05
4.50619e-05
4.46245e-05
4.4174e-05
4.36718e-05
4.29947e-05
4.21397e-05
4.11829e-05
4.01967e-05
3.92973e-05
3.85752e-05
3.81086e-05
3.80674e-05
3.8482e-05
3.92257e-05
4.01775e-05
4.11814e-05
4.21385e-05
4.29909e-05
4.37052e-05
4.42865e-05
4.47706e-05
4.5156e-05
4.54365e-05
4.5635e-05
4.59753e-05
4.7586e-05
4.42439e-05
4.30145e-05
4.25713e-05
4.2258e-05
4.19324e-05
4.15882e-05
4.1176e-05
4.06162e-05
3.99227e-05
3.91169e-05
3.825e-05
3.73554e-05
3.651e-05
3.57993e-05
3.53307e-05
3.52905e-05
3.57131e-05
3.64558e-05
3.73671e-05
3.82969e-05
3.91709e-05
3.99701e-05
4.06788e-05
4.12782e-05
4.17592e-05
4.21225e-05
4.239e-05
4.25968e-05
4.29161e-05
4.42823e-05
4.13955e-05
4.0235e-05
3.98627e-05
3.96349e-05
3.9408e-05
3.90934e-05
3.86133e-05
3.80437e-05
3.74218e-05
3.67076e-05
3.59196e-05
3.50843e-05
3.42807e-05
3.3608e-05
3.31825e-05
3.31699e-05
3.35814e-05
3.42693e-05
3.50889e-05
3.59238e-05
3.67238e-05
3.74766e-05
3.81547e-05
3.87241e-05
3.91658e-05
3.94984e-05
3.97539e-05
3.99573e-05
4.0242e-05
4.13912e-05
3.89327e-05
3.78567e-05
3.76374e-05
3.74853e-05
3.72582e-05
3.6895e-05
3.64419e-05
3.59782e-05
3.54364e-05
3.47689e-05
3.40093e-05
3.32146e-05
3.24731e-05
3.18745e-05
3.15154e-05
3.15331e-05
3.19192e-05
3.253e-05
3.32441e-05
3.39815e-05
3.47118e-05
3.54131e-05
3.60448e-05
3.65679e-05
3.69701e-05
3.72731e-05
3.7507e-05
3.76929e-05
3.79369e-05
3.88969e-05
3.66999e-05
3.58457e-05
3.5689e-05
3.55455e-05
3.53091e-05
3.50055e-05
3.46836e-05
3.42962e-05
3.37727e-05
3.31333e-05
3.24314e-05
3.17319e-05
3.10975e-05
3.05818e-05
3.02623e-05
3.02695e-05
3.05989e-05
3.1125e-05
3.17514e-05
3.24149e-05
3.3085e-05
3.37254e-05
3.4292e-05
3.47528e-05
3.51096e-05
3.53841e-05
3.55987e-05
3.57669e-05
3.59705e-05
3.67553e-05
3.47688e-05
3.41584e-05
3.40027e-05
3.38592e-05
3.36906e-05
3.34893e-05
3.32217e-05
3.2821e-05
3.23127e-05
3.17453e-05
3.11549e-05
3.05801e-05
3.00386e-05
2.95635e-05
2.92493e-05
2.92367e-05
2.95281e-05
3.00054e-05
3.0573e-05
3.11689e-05
3.17592e-05
3.23102e-05
3.27929e-05
3.31941e-05
3.35183e-05
3.37767e-05
3.39758e-05
3.41227e-05
3.42876e-05
3.49207e-05
3.33025e-05
3.27733e-05
3.26254e-05
3.25271e-05
3.24017e-05
3.22112e-05
3.19183e-05
3.15265e-05
3.10934e-05
3.06327e-05
3.01565e-05
2.9672e-05
2.91796e-05
2.8727e-05
2.8433e-05
2.84282e-05
2.87004e-05
2.91336e-05
2.96358e-05
3.01517e-05
3.0651e-05
3.11139e-05
3.15249e-05
3.18804e-05
3.21809e-05
3.24227e-05
3.26021e-05
3.27265e-05
3.28601e-05
3.3368e-05
3.20287e-05
3.15714e-05
3.14895e-05
3.14153e-05
3.12635e-05
3.10561e-05
3.07828e-05
3.04713e-05
3.01357e-05
2.97642e-05
2.93609e-05
2.89227e-05
2.84646e-05
2.80571e-05
2.78107e-05
2.78197e-05
2.80617e-05
2.84359e-05
2.88681e-05
2.9314e-05
2.97443e-05
3.01439e-05
3.05047e-05
3.08229e-05
3.10931e-05
3.13056e-05
3.14559e-05
3.15555e-05
3.16613e-05
3.20626e-05
3.08666e-05
3.05993e-05
3.05576e-05
3.04424e-05
3.02854e-05
3.01133e-05
2.99043e-05
2.96629e-05
2.93744e-05
2.90422e-05
2.86763e-05
2.82778e-05
2.78787e-05
2.75489e-05
2.73565e-05
2.73614e-05
2.75565e-05
2.78712e-05
2.82478e-05
2.86464e-05
2.90358e-05
2.93941e-05
2.9712e-05
2.99835e-05
3.02036e-05
3.03695e-05
3.04843e-05
3.05629e-05
3.06501e-05
3.09678e-05
3.00163e-05
2.98945e-05
2.97855e-05
2.96488e-05
2.95383e-05
2.94105e-05
2.92378e-05
2.90138e-05
2.87401e-05
2.84406e-05
2.81216e-05
2.7787e-05
2.74711e-05
2.72141e-05
2.70514e-05
2.70365e-05
2.71845e-05
2.74501e-05
2.77828e-05
2.81387e-05
2.84823e-05
2.87906e-05
2.90523e-05
2.92646e-05
2.94305e-05
2.95575e-05
2.96538e-05
2.97297e-05
2.98133e-05
3.00671e-05
2.94045e-05
2.92414e-05
2.90861e-05
2.90033e-05
2.89357e-05
2.88222e-05
2.86591e-05
2.84501e-05
2.82175e-05
2.79769e-05
2.77208e-05
2.74552e-05
2.72039e-05
2.69848e-05
2.68285e-05
2.67984e-05
2.6918e-05
2.71444e-05
2.7426e-05
2.77209e-05
2.79996e-05
2.82466e-05
2.84572e-05
2.86322e-05
2.87759e-05
2.88933e-05
2.89898e-05
2.90693e-05
2.91458e-05
2.93349e-05
2.87825e-05
2.85575e-05
2.84909e-05
2.84712e-05
2.84112e-05
2.82976e-05
2.81471e-05
2.79769e-05
2.7804e-05
2.7618e-05
2.74054e-05
2.71794e-05
2.69594e-05
2.67597e-05
2.6616e-05
2.65941e-05
2.6705e-05
2.68978e-05
2.71262e-05
2.73583e-05
2.7579e-05
2.77854e-05
2.79757e-05
2.81435e-05
2.82838e-05
2.83963e-05
2.84851e-05
2.85509e-05
2.86e-05
2.8719e-05
2.81684e-05
2.80488e-05
2.80769e-05
2.80602e-05
2.79858e-05
2.78741e-05
2.77471e-05
2.76209e-05
2.74889e-05
2.73261e-05
2.71312e-05
2.69261e-05
2.67289e-05
2.65558e-05
2.64401e-05
2.64379e-05
2.65479e-05
2.67129e-05
2.68975e-05
2.70847e-05
2.72714e-05
2.74572e-05
2.76328e-05
2.77855e-05