/*--------------------------------*- C++ -*----------------------------------*\
| =========                 |                                                 |
| \\      /  F ield         | OpenFOAM: The Open Source CFD Toolbox           |
|  \\    /   O peration     | Version:  2312                                  |
|   \\  /    A nd           | Website:  www.openfoam.com                      |
|    \\/     M anipulation  |                                                 |
\*---------------------------------------------------------------------------*/
FoamFile
{
    version     2.0;
    format      ascii;
    arch        "LSB;label=32;scalar=64";
    class       volScalarField;
    location    "0.862544";
    object      nut;
}
// * * * * * * * * * * * * * * * * * * * * * * * * * * * * * * * * * * * * * //

dimensions      [0 2 -1 0 0 0 0];

internalField   nonuniform List<scalar> 
90000
(
5.53908e-06
5.53937e-06
5.53952e-06
5.53957e-06
5.53959e-06
5.53958e-06
5.53953e-06
5.53947e-06
5.5394e-06
5.53934e-06
5.53931e-06
5.5393e-06
5.5393e-06
5.53931e-06
5.53933e-06
5.5394e-06
5.53951e-06
5.53964e-06
5.53972e-06
5.53972e-06
5.53963e-06
5.53946e-06
5.53944e-06
5.53962e-06
5.53978e-06
5.53985e-06
5.53978e-06
5.53959e-06
5.53939e-06
5.53937e-06
5.53936e-06
5.54749e-06
5.54807e-06
5.54805e-06
5.54801e-06
5.54797e-06
5.54794e-06
5.54793e-06
5.5479e-06
5.54786e-06
5.54783e-06
5.54784e-06
5.54787e-06
5.54791e-06
5.54797e-06
5.54805e-06
5.54811e-06
5.54815e-06
5.54814e-06
5.5481e-06
5.54809e-06
5.54809e-06
5.54806e-06
5.54799e-06
5.54784e-06
5.54765e-06
5.54761e-06
5.54773e-06
5.54724e-06
5.54025e-06
5.53955e-06
5.54821e-06
5.5488e-06
5.54878e-06
5.54874e-06
5.5487e-06
5.54868e-06
5.5487e-06
5.54872e-06
5.5487e-06
5.54868e-06
5.54869e-06
5.54874e-06
5.5488e-06
5.54885e-06
5.54887e-06
5.54885e-06
5.54882e-06
5.54888e-06
5.54898e-06
5.54905e-06
5.54907e-06
5.54906e-06
5.54905e-06
5.54906e-06
5.54909e-06
5.54909e-06
5.54909e-06
5.54858e-06
5.54029e-06
5.53964e-06
5.54825e-06
5.54889e-06
5.54892e-06
5.54893e-06
5.54891e-06
5.54888e-06
5.54886e-06
5.54887e-06
5.54887e-06
5.54886e-06
5.54888e-06
5.54891e-06
5.54895e-06
5.54896e-06
5.54894e-06
5.54894e-06
5.54902e-06
5.54912e-06
5.54917e-06
5.54919e-06
5.5492e-06
5.5493e-06
5.54946e-06
5.54959e-06
5.54964e-06
5.5496e-06
5.54945e-06
5.54875e-06
5.54002e-06
5.53965e-06
5.54817e-06
5.54888e-06
5.54896e-06
5.549e-06
5.549e-06
5.54898e-06
5.54895e-06
5.54892e-06
5.5489e-06
5.5489e-06
5.54891e-06
5.54891e-06
5.54889e-06
5.54887e-06
5.54892e-06
5.54898e-06
5.54902e-06
5.54904e-06
5.54902e-06
5.54902e-06
5.5491e-06
5.54928e-06
5.54947e-06
5.54957e-06
5.54956e-06
5.54944e-06
5.54919e-06
5.54869e-06
5.54004e-06
5.53956e-06
5.54816e-06
5.54886e-06
5.54895e-06
5.549e-06
5.54902e-06
5.54902e-06
5.549e-06
5.54895e-06
5.54889e-06
5.54887e-06
5.54891e-06
5.54896e-06
5.54898e-06
5.54896e-06
5.54892e-06
5.54887e-06
5.54882e-06
5.54877e-06
5.54875e-06
5.54881e-06
5.54893e-06
5.54905e-06
5.54912e-06
5.54913e-06
5.54913e-06
5.54925e-06
5.54944e-06
5.54917e-06
5.54024e-06
5.5395e-06
5.54832e-06
5.54894e-06
5.549e-06
5.54905e-06
5.54909e-06
5.54912e-06
5.54912e-06
5.54907e-06
5.54899e-06
5.54891e-06
5.54894e-06
5.54902e-06
5.54906e-06
5.54901e-06
5.54888e-06
5.54872e-06
5.5486e-06
5.54857e-06
5.54865e-06
5.54875e-06
5.54882e-06
5.54881e-06
5.54876e-06
5.54883e-06
5.5491e-06
5.54948e-06
5.54979e-06
5.54942e-06
5.54033e-06
5.53958e-06
5.54864e-06
5.54919e-06
5.54922e-06
5.54924e-06
5.54928e-06
5.54932e-06
5.54933e-06
5.54929e-06
5.54921e-06
5.54912e-06
5.54907e-06
5.54909e-06
5.54909e-06
5.54901e-06
5.54887e-06
5.54871e-06
5.54858e-06
5.54862e-06
5.54874e-06
5.54883e-06
5.54884e-06
5.54878e-06
5.54884e-06
5.54906e-06
5.54939e-06
5.54974e-06
5.54995e-06
5.54936e-06
5.54028e-06
5.5398e-06
5.54905e-06
5.54954e-06
5.54951e-06
5.54947e-06
5.54947e-06
5.54948e-06
5.54949e-06
5.54948e-06
5.54943e-06
5.54935e-06
5.54923e-06
5.54912e-06
5.54903e-06
5.54897e-06
5.54893e-06
5.54892e-06
5.54895e-06
5.54901e-06
5.54907e-06
5.5491e-06
5.54907e-06
5.54905e-06
5.54915e-06
5.54938e-06
5.54965e-06
5.54988e-06
5.5499e-06
5.54915e-06
5.54015e-06
5.54013e-06
5.54932e-06
5.54973e-06
5.54963e-06
5.54951e-06
5.54943e-06
5.54941e-06
5.54943e-06
5.54948e-06
5.54949e-06
5.54945e-06
5.54932e-06
5.54912e-06
5.54892e-06
5.5489e-06
5.54904e-06
5.54922e-06
5.54939e-06
5.54951e-06
5.54956e-06
5.54952e-06
5.54942e-06
5.54933e-06
5.54935e-06
5.54951e-06
5.54969e-06
5.54977e-06
5.54966e-06
5.54889e-06
5.5401e-06
5.54038e-06
5.54927e-06
5.54964e-06
5.54951e-06
5.54935e-06
5.5492e-06
5.54912e-06
5.54916e-06
5.54927e-06
5.54936e-06
5.54938e-06
5.5493e-06
5.54913e-06
5.54894e-06
5.54887e-06
5.5491e-06
5.54941e-06
5.54969e-06
5.54988e-06
5.54992e-06
5.54982e-06
5.54964e-06
5.54948e-06
5.5494e-06
5.54945e-06
5.54953e-06
5.54953e-06
5.54944e-06
5.54879e-06
5.54018e-06
5.54036e-06
5.54904e-06
5.54946e-06
5.54939e-06
5.5493e-06
5.54922e-06
5.54916e-06
5.54913e-06
5.54915e-06
5.5492e-06
5.54923e-06
5.54921e-06
5.54914e-06
5.54902e-06
5.54889e-06
5.5491e-06
5.54948e-06
5.54979e-06
5.54994e-06
5.54992e-06
5.54976e-06
5.54958e-06
5.54944e-06
5.54937e-06
5.54933e-06
5.54935e-06
5.54936e-06
5.54936e-06
5.54885e-06
5.54024e-06
5.54024e-06
5.54884e-06
5.54938e-06
5.54942e-06
5.54951e-06
5.54962e-06
5.54968e-06
5.54966e-06
5.54952e-06
5.54929e-06
5.54914e-06
5.54915e-06
5.54919e-06
5.54921e-06
5.54923e-06
5.54932e-06
5.54947e-06
5.54956e-06
5.54954e-06
5.54945e-06
5.54935e-06
5.5493e-06
5.54931e-06
5.54931e-06
5.54928e-06
5.54923e-06
5.54924e-06
5.54933e-06
5.54882e-06
5.54016e-06
5.54052e-06
5.54873e-06
5.54943e-06
5.54963e-06
5.54987e-06
5.55009e-06
5.55019e-06
5.5501e-06
5.54981e-06
5.54941e-06
5.54905e-06
5.54904e-06
5.54919e-06
5.54937e-06
5.5495e-06
5.54954e-06
5.54944e-06
5.54918e-06
5.5489e-06
5.54883e-06
5.54893e-06
5.5491e-06
5.54925e-06
5.54929e-06
5.54924e-06
5.54917e-06
5.54921e-06
5.5493e-06
5.54869e-06
5.54009e-06
5.54093e-06
5.54865e-06
5.54962e-06
5.54993e-06
5.5502e-06
5.55035e-06
5.55031e-06
5.55007e-06
5.5497e-06
5.5493e-06
5.54893e-06
5.5489e-06
5.54916e-06
5.54945e-06
5.54962e-06
5.54961e-06
5.5494e-06
5.54904e-06
5.54873e-06
5.54867e-06
5.54891e-06
5.54918e-06
5.54935e-06
5.54939e-06
5.54933e-06
5.54929e-06
5.54931e-06
5.54936e-06
5.54875e-06
5.54038e-06
5.54121e-06
5.54917e-06
5.55001e-06
5.55021e-06
5.55029e-06
5.55021e-06
5.54999e-06
5.54972e-06
5.54948e-06
5.54927e-06
5.54904e-06
5.54897e-06
5.54925e-06
5.54955e-06
5.5497e-06
5.54966e-06
5.54946e-06
5.54921e-06
5.54903e-06
5.54901e-06
5.54921e-06
5.54946e-06
5.54958e-06
5.54959e-06
5.54957e-06
5.54961e-06
5.54968e-06
5.54977e-06
5.54938e-06
5.54094e-06
5.54129e-06
5.55001e-06
5.55047e-06
5.55043e-06
5.55022e-06
5.54994e-06
5.5497e-06
5.54965e-06
5.54962e-06
5.54954e-06
5.54938e-06
5.54927e-06
5.54948e-06
5.54968e-06
5.54974e-06
5.54968e-06
5.54958e-06
5.54948e-06
5.54944e-06
5.54948e-06
5.54959e-06
5.54978e-06
5.54983e-06
5.54985e-06
5.54994e-06
5.55008e-06
5.5502e-06
5.55033e-06
5.54989e-06
5.54117e-06
5.54133e-06
5.55066e-06
5.55093e-06
5.55075e-06
5.55049e-06
5.55023e-06
5.55013e-06
5.55008e-06
5.54999e-06
5.54985e-06
5.54967e-06
5.54956e-06
5.54961e-06
5.54964e-06
5.5496e-06
5.54958e-06
5.54962e-06
5.5497e-06
5.5498e-06
5.54988e-06
5.54992e-06
5.54999e-06
5.55005e-06
5.55019e-06
5.5504e-06
5.55058e-06
5.55068e-06
5.55071e-06
5.55002e-06
5.54123e-06
5.54165e-06
5.55107e-06
5.55137e-06
5.55119e-06
5.55098e-06
5.55082e-06
5.55069e-06
5.55054e-06
5.55034e-06
5.5501e-06
5.54985e-06
5.54965e-06
5.54951e-06
5.54938e-06
5.5493e-06
5.54934e-06
5.54953e-06
5.54977e-06
5.54996e-06
5.55005e-06
5.55006e-06
5.55015e-06
5.55035e-06
5.55067e-06
5.55097e-06
5.55112e-06
5.5511e-06
5.55098e-06
5.55015e-06
5.54147e-06
5.54221e-06
5.55124e-06
5.55165e-06
5.5515e-06
5.55137e-06
5.55127e-06
5.55115e-06
5.55096e-06
5.5507e-06
5.5504e-06
5.55008e-06
5.54975e-06
5.54943e-06
5.54917e-06
5.54904e-06
5.54917e-06
5.54948e-06
5.5498e-06
5.55001e-06
5.55011e-06
5.55022e-06
5.55047e-06
5.55088e-06
5.55131e-06
5.55156e-06
5.55157e-06
5.5515e-06
5.55136e-06
5.55053e-06
5.5421e-06
5.54268e-06
5.55125e-06
5.55177e-06
5.55175e-06
5.55175e-06
5.55172e-06
5.55162e-06
5.55143e-06
5.55115e-06
5.5508e-06
5.55039e-06
5.54996e-06
5.54953e-06
5.5492e-06
5.54912e-06
5.5493e-06
5.54962e-06
5.54992e-06
5.55013e-06
5.55032e-06
5.5506e-06
5.55105e-06
5.55153e-06
5.55185e-06
5.55193e-06
5.55192e-06
5.55191e-06
5.55182e-06
5.55112e-06
5.54289e-06
5.54304e-06
5.55136e-06
5.55211e-06
5.55225e-06
5.55235e-06
5.55236e-06
5.55224e-06
5.55201e-06
5.55167e-06
5.55125e-06
5.55077e-06
5.55024e-06
5.54972e-06
5.54944e-06
5.54936e-06
5.54949e-06
5.54977e-06
5.55008e-06
5.55039e-06
5.55075e-06
5.55121e-06
5.5517e-06
5.55204e-06
5.55217e-06
5.55223e-06
5.55233e-06
5.5524e-06
5.55237e-06
5.55182e-06
5.54356e-06
5.54367e-06
5.55213e-06
5.55297e-06
5.55318e-06
5.55326e-06
5.55318e-06
5.55295e-06
5.55261e-06
5.55219e-06
5.5517e-06
5.55114e-06
5.55053e-06
5.55e-06
5.54963e-06
5.54944e-06
5.54953e-06
5.54987e-06
5.55032e-06
5.55082e-06
5.55135e-06
5.55186e-06
5.55224e-06
5.55244e-06
5.55259e-06
5.55281e-06
5.55305e-06
5.55314e-06
5.55316e-06
5.5527e-06
5.54435e-06
5.54487e-06
5.55353e-06
5.55433e-06
5.55443e-06
5.55434e-06
5.55408e-06
5.55371e-06
5.55327e-06
5.55277e-06
5.5522e-06
5.55155e-06
5.55088e-06
5.55026e-06
5.54975e-06
5.54946e-06
5.54959e-06
5.55008e-06
5.55069e-06
5.55133e-06
5.5519e-06
5.55236e-06
5.5527e-06
5.55303e-06
5.55342e-06
5.55383e-06
5.55416e-06
5.55428e-06
5.55441e-06
5.55398e-06
5.54558e-06
5.54663e-06
5.55532e-06
5.55596e-06
5.55584e-06
5.55554e-06
5.55513e-06
5.55467e-06
5.55416e-06
5.55357e-06
5.55288e-06
5.55211e-06
5.55134e-06
5.55064e-06
5.55007e-06
5.54972e-06
5.54986e-06
5.55044e-06
5.55112e-06
5.55176e-06
5.55233e-06
5.55284e-06
5.55338e-06
5.55399e-06
5.5546e-06
5.55512e-06
5.55547e-06
5.55573e-06
5.55604e-06
5.55565e-06
5.54716e-06
5.54882e-06
5.55731e-06
5.55775e-06
5.55744e-06
5.55701e-06
5.55652e-06
5.556e-06
5.55539e-06
5.55465e-06
5.55378e-06
5.55289e-06
5.55207e-06
5.55135e-06
5.55073e-06
5.55027e-06
5.55034e-06
5.5509e-06
5.55155e-06
5.55221e-06
5.55291e-06
5.55369e-06
5.55448e-06
5.55526e-06
5.55594e-06
5.55643e-06
5.55686e-06
5.55737e-06
5.55786e-06
5.55742e-06
5.5489e-06
5.55129e-06
5.55945e-06
5.55978e-06
5.55938e-06
5.55888e-06
5.55833e-06
5.55768e-06
5.55689e-06
5.55595e-06
5.55494e-06
5.554e-06
5.55317e-06
5.55241e-06
5.55165e-06
5.55096e-06
5.55085e-06
5.55135e-06
5.55208e-06
5.55297e-06
5.55399e-06
5.55504e-06
5.55599e-06
5.55679e-06
5.55746e-06
5.558e-06
5.55865e-06
5.55941e-06
5.55983e-06
5.55929e-06
5.55102e-06
5.55401e-06
5.5619e-06
5.56219e-06
5.56174e-06
5.56117e-06
5.56049e-06
5.55966e-06
5.55865e-06
5.55754e-06
5.55646e-06
5.55548e-06
5.55457e-06
5.55361e-06
5.55254e-06
5.55155e-06
5.55131e-06
5.55192e-06
5.55296e-06
5.55424e-06
5.55556e-06
5.55679e-06
5.55781e-06
5.55864e-06
5.55945e-06
5.56027e-06
5.5612e-06
5.56198e-06
5.56213e-06
5.5617e-06
5.55371e-06
5.5571e-06
5.56483e-06
5.5651e-06
5.5646e-06
5.56392e-06
5.56307e-06
5.56202e-06
5.56082e-06
5.55959e-06
5.55842e-06
5.5573e-06
5.55612e-06
5.55478e-06
5.55334e-06
5.55215e-06
5.55199e-06
5.5529e-06
5.55432e-06
5.55592e-06
5.5574e-06
5.55869e-06
5.55985e-06
5.5609e-06
5.56207e-06
5.56324e-06
5.56433e-06
5.56494e-06
5.56502e-06
5.56489e-06
5.55694e-06
5.56076e-06
5.56842e-06
5.56865e-06
5.56806e-06
5.56724e-06
5.5662e-06
5.56495e-06
5.5636e-06
5.56223e-06
5.56087e-06
5.55946e-06
5.55788e-06
5.55615e-06
5.55445e-06
5.55321e-06
5.55318e-06
5.55436e-06
5.55602e-06
5.55778e-06
5.55937e-06
5.5608e-06
5.56229e-06
5.56373e-06
5.56527e-06
5.5666e-06
5.56768e-06
5.56829e-06
5.56877e-06
5.56879e-06
5.56082e-06
5.5652e-06
5.57282e-06
5.57296e-06
5.57225e-06
5.57126e-06
5.57003e-06
5.56861e-06
5.56709e-06
5.56552e-06
5.56388e-06
5.56207e-06
5.56007e-06
5.55798e-06
5.55605e-06
5.55472e-06
5.55473e-06
5.5561e-06
5.55793e-06
5.55989e-06
5.56182e-06
5.56364e-06
5.56555e-06
5.56734e-06
5.56911e-06
5.57042e-06
5.57146e-06
5.57241e-06
5.57339e-06
5.57333e-06
5.56549e-06
5.57061e-06
5.57813e-06
5.57816e-06
5.57732e-06
5.57617e-06
5.57474e-06
5.57312e-06
5.57136e-06
5.5695e-06
5.56746e-06
5.56518e-06
5.56271e-06
5.56024e-06
5.55804e-06
5.55653e-06
5.55657e-06
5.55816e-06
5.56028e-06
5.56262e-06
5.56508e-06
5.56738e-06
5.56964e-06
5.57162e-06
5.5736e-06
5.57494e-06
5.57612e-06
5.57754e-06
5.57874e-06
5.57865e-06
5.57103e-06
5.57715e-06
5.58459e-06
5.58452e-06
5.58356e-06
5.58222e-06
5.58054e-06
5.57862e-06
5.57653e-06
5.57426e-06
5.57173e-06
5.56893e-06
5.56599e-06
5.56313e-06
5.56064e-06
5.55895e-06
5.55901e-06
5.56084e-06
5.56333e-06
5.56608e-06
5.56897e-06
5.57166e-06
5.57428e-06
5.57647e-06
5.5788e-06
5.58047e-06
5.58202e-06
5.58375e-06
5.58499e-06
5.58494e-06
5.57765e-06
5.58512e-06
5.59256e-06
5.59239e-06
5.59124e-06
5.5896e-06
5.58757e-06
5.58528e-06
5.58276e-06
5.58e-06
5.57695e-06
5.57365e-06
5.57028e-06
5.56703e-06
5.56418e-06
5.56222e-06
5.5622e-06
5.56423e-06
5.56712e-06
5.57031e-06
5.57356e-06
5.57668e-06
5.57989e-06
5.58245e-06
5.58519e-06
5.58735e-06
5.58935e-06
5.59121e-06
5.59246e-06
5.59256e-06
5.58556e-06
5.59488e-06
5.60224e-06
5.60182e-06
5.60033e-06
5.59832e-06
5.59593e-06
5.59327e-06
5.59031e-06
5.58703e-06
5.58345e-06
5.57965e-06
5.57578e-06
5.57199e-06
5.56864e-06
5.56637e-06
5.56631e-06
5.56869e-06
5.57205e-06
5.57582e-06
5.57954e-06
5.58316e-06
5.58709e-06
5.59003e-06
5.59313e-06
5.59582e-06
5.59824e-06
5.60017e-06
5.60149e-06
5.60187e-06
5.59503e-06
5.60667e-06
5.61355e-06
5.61276e-06
5.61097e-06
5.60874e-06
5.60613e-06
5.60312e-06
5.59964e-06
5.59575e-06
5.59153e-06
5.58709e-06
5.58258e-06
5.57815e-06
5.57431e-06
5.57185e-06
5.57183e-06
5.57471e-06
5.57845e-06
5.58271e-06
5.58714e-06
5.59135e-06
5.59597e-06
5.59942e-06
5.60297e-06
5.60619e-06
5.60895e-06
5.61097e-06
5.61251e-06
5.61316e-06
5.60658e-06
5.62059e-06
5.62688e-06
5.62593e-06
5.62411e-06
5.62179e-06
5.61885e-06
5.61525e-06
5.61106e-06
5.60646e-06
5.60156e-06
5.59641e-06
5.59125e-06
5.58625e-06
5.58194e-06
5.5793e-06
5.57908e-06
5.5823e-06
5.58649e-06
5.59126e-06
5.59672e-06
5.60166e-06
5.60681e-06
5.61093e-06
5.61506e-06
5.61875e-06
5.62181e-06
5.62414e-06
5.62605e-06
5.62703e-06
5.62073e-06
5.63722e-06
5.64343e-06
5.64258e-06
5.64063e-06
5.63775e-06
5.63404e-06
5.62971e-06
5.6249e-06
5.61972e-06
5.61417e-06
5.60831e-06
5.6025e-06
5.59689e-06
5.59183e-06
5.5889e-06
5.5884e-06
5.59179e-06
5.5969e-06
5.60236e-06
5.60866e-06
5.61431e-06
5.61989e-06
5.62488e-06
5.62975e-06
5.63396e-06
5.63737e-06
5.64032e-06
5.64258e-06
5.64391e-06
5.63788e-06
5.6576e-06
5.66403e-06
5.66272e-06
5.65999e-06
5.65632e-06
5.65206e-06
5.64734e-06
5.64202e-06
5.63611e-06
5.62972e-06
5.62302e-06
5.6164e-06
5.61011e-06
5.60412e-06
5.60087e-06
5.60067e-06
5.60407e-06
5.60995e-06
5.61632e-06
5.6232e-06
5.62963e-06
5.63605e-06
5.64197e-06
5.64746e-06
5.65237e-06
5.65617e-06
5.6597e-06
5.66243e-06
5.66388e-06
5.65812e-06
5.68241e-06
5.68828e-06
5.68598e-06
5.68273e-06
5.67897e-06
5.67449e-06
5.66908e-06
5.66282e-06
5.65597e-06
5.64876e-06
5.64123e-06
5.63352e-06
5.62672e-06
5.62024e-06
5.61631e-06
5.61663e-06
5.62032e-06
5.62646e-06
5.63372e-06
5.64146e-06
5.64865e-06
5.65598e-06
5.66283e-06
5.66883e-06
5.67464e-06
5.67905e-06
5.68294e-06
5.68629e-06
5.68803e-06
5.6821e-06
5.71155e-06
5.71676e-06
5.71436e-06
5.7113e-06
5.70713e-06
5.70163e-06
5.69519e-06
5.68827e-06
5.6807e-06
5.67254e-06
5.66421e-06
5.65554e-06
5.64803e-06
5.64148e-06
5.63662e-06
5.63664e-06
5.64107e-06
5.64798e-06
5.65559e-06
5.66413e-06
5.67234e-06
5.68049e-06
5.6884e-06
5.69525e-06
5.7016e-06
5.70696e-06
5.71123e-06
5.71478e-06
5.71746e-06
5.711e-06
5.74648e-06
5.75242e-06
5.7498e-06
5.74582e-06
5.74046e-06
5.73427e-06
5.72738e-06
5.71971e-06
5.71097e-06
5.70171e-06
5.6926e-06
5.6836e-06
5.6751e-06
5.66754e-06
5.66254e-06
5.66284e-06
5.66756e-06
5.67506e-06
5.68335e-06
5.69261e-06
5.70193e-06
5.71088e-06
5.71932e-06
5.72753e-06
5.73422e-06
5.74049e-06
5.74566e-06
5.74925e-06
5.75274e-06
5.74641e-06
5.78987e-06
5.79627e-06
5.79187e-06
5.78691e-06
5.7813e-06
5.77446e-06
5.76627e-06
5.75747e-06
5.74783e-06
5.73801e-06
5.7283e-06
5.7183e-06
5.70941e-06
5.7015e-06
5.69654e-06
5.69661e-06
5.70169e-06
5.70957e-06
5.71851e-06
5.72822e-06
5.73794e-06
5.74813e-06
5.7574e-06
5.7667e-06
5.77435e-06
5.78119e-06
5.78715e-06
5.79216e-06
5.79591e-06
5.78866e-06
5.84315e-06
5.84955e-06
5.84425e-06
5.83872e-06
5.83158e-06
5.82342e-06
5.81444e-06
5.80466e-06
5.79412e-06
5.78339e-06
5.77326e-06
5.76264e-06
5.75426e-06
5.74659e-06
5.74121e-06
5.74111e-06
5.74626e-06
5.75419e-06
5.76294e-06
5.77294e-06
5.78339e-06
5.79415e-06
5.80469e-06
5.81445e-06
5.82323e-06
5.83165e-06
5.83881e-06
5.84459e-06
5.84966e-06
5.84084e-06
5.90975e-06
5.91996e-06
5.91286e-06
5.90487e-06
5.89639e-06
5.88727e-06
5.87627e-06
5.86473e-06
5.85406e-06
5.84239e-06
5.83367e-06
5.82743e-06
5.82238e-06
5.81927e-06
5.81848e-06
5.81897e-06
5.81963e-06
5.82222e-06
5.82683e-06
5.83408e-06
5.84308e-06
5.85326e-06
5.86526e-06
5.87618e-06
5.8862e-06
5.89682e-06
5.90569e-06
5.91208e-06
5.92001e-06
5.90803e-06
6.00686e-06
6.02981e-06
6.01917e-06
6.01362e-06
6.00604e-06
5.98858e-06
5.97678e-06
5.96635e-06
5.95566e-06
5.94927e-06
5.964e-06
5.99168e-06
6.03433e-06
6.08696e-06
6.13652e-06
6.13709e-06
6.08697e-06
6.03435e-06
5.99271e-06
5.96395e-06
5.94911e-06
5.95641e-06
5.96645e-06
5.97678e-06
5.98885e-06
6.00524e-06
6.01381e-06
6.02053e-06
6.03033e-06
6.00448e-06
6.22984e-06
6.30366e-06
6.31231e-06
6.35451e-06
6.36138e-06
6.30183e-06
6.31373e-06
6.30992e-06
6.30461e-06
6.35084e-06
6.55552e-06
6.84443e-06
7.1965e-06
7.57228e-06
7.8955e-06
7.89702e-06
7.57225e-06
7.19671e-06
6.84763e-06
6.55753e-06
6.35221e-06
6.30646e-06
6.31019e-06
6.31459e-06
6.30369e-06
6.35934e-06
6.35418e-06
6.31367e-06
6.30516e-06
6.22864e-06
7.03768e-06
7.15138e-06
7.45873e-06
8.08016e-06
7.90562e-06
7.57563e-06
8.18892e-06
7.83744e-06
7.74901e-06
8.39393e-06
9.25495e-06
1.03336e-05
1.14948e-05
1.25302e-05
1.33809e-05
1.33797e-05
1.25309e-05
1.14949e-05
1.03478e-05
9.26136e-06
8.4121e-06
7.756e-06
7.83733e-06
8.19894e-06
7.58514e-06
7.88825e-06
8.0804e-06
7.46518e-06
7.15229e-06
7.0342e-06
1.01425e-05
8.72674e-06
1.13602e-05
1.63402e-05
1.13695e-05
1.05043e-05
1.88586e-05
1.24665e-05
1.33953e-05
1.97041e-05
1.72728e-05
1.88344e-05
2.34168e-05
2.30462e-05
2.29722e-05
2.28157e-05
2.30174e-05
2.30709e-05
1.93489e-05
1.72788e-05
1.97536e-05
1.34178e-05
1.24789e-05
1.89156e-05
1.05379e-05
1.12921e-05
1.63363e-05
1.13998e-05
8.72594e-06
1.01141e-05
1.77147e-05
1.04281e-05
1.81775e-05
3.00757e-05
1.6262e-05
1.83453e-05
3.53154e-05
2.09215e-05
2.28771e-05
3.60534e-05
2.82622e-05
3.58204e-05
4.51487e-05
3.84189e-05
4.09783e-05
4.01812e-05
3.84041e-05
4.46656e-05
3.69895e-05
2.82973e-05
3.60734e-05
2.28818e-05
2.09341e-05
3.53206e-05
1.8294e-05
1.60807e-05
3.00475e-05
1.82692e-05
1.04242e-05
1.76197e-05
2.51516e-05
1.51884e-05
2.24104e-05
2.3944e-05
2.43313e-05
3.37329e-05
3.73413e-05
3.5464e-05
3.46647e-05
4.18404e-05
3.1184e-05
4.67609e-05
5.59081e-05
5.25465e-05
5.29871e-05
5.22488e-05
5.34735e-05
5.60552e-05
4.7952e-05
3.12776e-05
4.1917e-05
3.4706e-05
3.55288e-05
3.73898e-05
3.38068e-05
2.42332e-05
2.40688e-05
2.25204e-05
1.52032e-05
2.50103e-05
3.28586e-05
2.48097e-05
2.4991e-05
3.10382e-05
3.08184e-05
3.34758e-05
5.01223e-05
4.51907e-05
4.94177e-05
5.95826e-05
5.18006e-05
7.68847e-05
7.14191e-05
4.77554e-05
6.46951e-05
6.33096e-05
4.93256e-05
7.14128e-05
7.34343e-05
5.12581e-05
5.96619e-05
4.96279e-05
4.52654e-05
5.03849e-05
3.35763e-05
3.08509e-05
3.15763e-05
2.54142e-05
2.4856e-05
3.25384e-05
3.14197e-05
2.59229e-05
2.96376e-05
3.48939e-05
3.73573e-05
3.18573e-05
4.51362e-05
6.16103e-05
4.43091e-05
5.16713e-05
6.20221e-05
5.51814e-05
5.98583e-05
4.53541e-05
6.07894e-05
6.70858e-05
4.68311e-05
6.11267e-05
5.94622e-05
6.34808e-05
5.20906e-05
4.46537e-05
6.14001e-05
4.52479e-05
3.19297e-05
3.74463e-05
3.55538e-05
2.99383e-05
2.59394e-05
3.12048e-05
2.13434e-05
2.02742e-05
2.49982e-05
3.18926e-05
3.4008e-05
3.46438e-05
3.99121e-05
4.26925e-05
4.05036e-05
4.9677e-05
6.38374e-05
4.58091e-05
4.58904e-05
4.62842e-05
4.73679e-05
4.66443e-05
4.63124e-05
4.5602e-05
4.57806e-05
6.50266e-05
4.99492e-05
4.06735e-05
4.24559e-05
3.99901e-05
3.46753e-05
3.41745e-05
3.15908e-05
2.49067e-05
2.04291e-05
2.1301e-05
1.87207e-05
1.86644e-05
2.19229e-05
2.60935e-05
2.96406e-05
3.19326e-05
3.44973e-05
3.59158e-05
3.43138e-05
3.9183e-05
4.07136e-05
3.74112e-05
3.88337e-05
3.9612e-05
4.11329e-05
4.06318e-05
3.97678e-05
3.90274e-05
3.73312e-05
4.1071e-05
3.92798e-05
3.43537e-05
3.58052e-05
3.46444e-05
3.19801e-05
2.9824e-05
2.60747e-05
2.19194e-05
1.86084e-05
1.86264e-05
1.62622e-05
1.58868e-05
1.70576e-05
1.9584e-05
2.29459e-05
2.63666e-05
2.98106e-05
3.13203e-05
3.2073e-05
3.40301e-05
3.48309e-05
3.46486e-05
3.54558e-05
3.59789e-05
3.64484e-05
3.63658e-05
3.58988e-05
3.53527e-05
3.46297e-05
3.47985e-05
3.39932e-05
3.20469e-05
3.13508e-05
2.98096e-05
2.62298e-05
2.30624e-05
1.95729e-05
1.70735e-05
1.59318e-05
1.62793e-05
1.47039e-05
1.41645e-05
1.43483e-05
1.5123e-05
1.67049e-05
1.87957e-05
2.18288e-05
2.50228e-05
2.78499e-05
3.06617e-05
3.25671e-05
3.38681e-05
3.47558e-05
3.49048e-05
3.51167e-05
3.5141e-05
3.50315e-05
3.47234e-05
3.38568e-05
3.26064e-05
3.06804e-05
2.78081e-05
2.5037e-05
2.19014e-05
1.88963e-05
1.6701e-05
1.5221e-05
1.44029e-05
1.42022e-05
1.47039e-05
1.34055e-05
1.28406e-05
1.28043e-05
1.31626e-05
1.36568e-05
1.44212e-05
1.56363e-05
1.77008e-05
2.04298e-05
2.43169e-05
2.86302e-05
3.17817e-05
3.37049e-05
3.47705e-05
3.50886e-05
3.50881e-05
3.47758e-05
3.37607e-05
3.17893e-05
2.85704e-05
2.44348e-05
2.04569e-05
1.76782e-05
1.57443e-05
1.44814e-05
1.37043e-05
1.31664e-05
1.28727e-05
1.2845e-05
1.34127e-05
1.23946e-05
1.18122e-05
1.19417e-05
1.20572e-05
1.22708e-05
1.25709e-05
1.31088e-05
1.37374e-05
1.48887e-05
1.72572e-05
2.11217e-05
2.62639e-05
3.04022e-05
3.26687e-05
3.38232e-05
3.3849e-05
3.2729e-05
3.03715e-05
2.62079e-05
2.11868e-05
1.72021e-05
1.49296e-05
1.37275e-05
1.30877e-05
1.26144e-05
1.22778e-05
1.20579e-05
1.19151e-05
1.18337e-05
1.23369e-05
1.1448e-05
1.1282e-05
1.1301e-05
1.13898e-05
1.15764e-05
1.17272e-05
1.18718e-05
1.21403e-05
1.25333e-05
1.32436e-05
1.4817e-05
1.80316e-05
2.26479e-05
2.70332e-05
2.96518e-05
2.95651e-05
2.70426e-05
2.27344e-05
1.79879e-05
1.48259e-05
1.32567e-05
1.25406e-05
1.21715e-05
1.18913e-05
1.1688e-05
1.15901e-05
1.14096e-05
1.12947e-05
1.13134e-05
1.14538e-05
1.09115e-05
1.08359e-05
1.08232e-05
1.09367e-05
1.09957e-05
1.10712e-05
1.12113e-05
1.13268e-05
1.14783e-05
1.16874e-05
1.2065e-05
1.2943e-05
1.47894e-05
1.7662e-05
2.04125e-05
2.0343e-05
1.76206e-05
1.48385e-05
1.29473e-05
1.20741e-05
1.17086e-05
1.14502e-05
1.1329e-05
1.12405e-05
1.11014e-05
1.10057e-05
1.09223e-05
1.08262e-05
1.08684e-05
1.08797e-05
1.04613e-05
1.04076e-05
1.04034e-05
1.04087e-05
1.05235e-05
1.05662e-05
1.06663e-05
1.07309e-05
1.08031e-05
1.08571e-05
1.09577e-05
1.11695e-05
1.15236e-05
1.21316e-05
1.29383e-05
1.29736e-05
1.21951e-05
1.15097e-05
1.11345e-05
1.09726e-05
1.09018e-05
1.079e-05
1.07157e-05
1.06425e-05
1.05973e-05
1.05125e-05
1.04558e-05
1.04219e-05
1.04319e-05
1.05087e-05
1.01044e-05
9.96152e-06
9.97639e-06
9.99164e-06
1.00437e-05
1.00841e-05
1.01554e-05
1.01414e-05
1.01796e-05
1.0224e-05
1.02464e-05
1.02616e-05
1.02855e-05
1.03831e-05
1.05271e-05
1.05176e-05
1.04212e-05
1.02967e-05
1.02768e-05
1.02527e-05
1.02054e-05
1.01884e-05
1.01947e-05
1.01376e-05
1.00759e-05
1.00258e-05
1.00034e-05
9.99327e-06
1.00106e-05
1.01164e-05
9.68572e-06
9.55721e-06
9.55233e-06
9.55509e-06
9.58604e-06
9.61265e-06
9.61488e-06
9.62656e-06
9.65398e-06
9.63592e-06
9.58924e-06
9.56986e-06
9.57228e-06
9.56768e-06
9.5576e-06
9.53547e-06
9.5575e-06
9.57304e-06
9.61089e-06
9.63339e-06
9.6283e-06
9.65918e-06
9.6622e-06
9.6327e-06
9.59637e-06
9.57904e-06
9.58374e-06
9.55723e-06
9.59606e-06
9.72002e-06
9.27455e-06
9.17686e-06
9.1404e-06
9.13681e-06
9.15003e-06
9.16775e-06
9.15014e-06
9.15617e-06
9.12753e-06
9.07566e-06
9.03743e-06
9.00734e-06
8.96349e-06
8.91149e-06
8.86755e-06
8.88387e-06
8.92771e-06
8.96465e-06
8.99899e-06
9.03613e-06
9.08473e-06
9.15824e-06
9.17326e-06
9.16953e-06
9.17152e-06
9.16869e-06
9.17098e-06
9.15071e-06
9.19509e-06
9.32116e-06
8.90837e-06
8.77778e-06
8.74929e-06
8.73604e-06
8.75395e-06
8.74359e-06
8.72975e-06
8.70529e-06
8.65724e-06
8.60539e-06
8.54757e-06
8.47776e-06
8.40028e-06
8.34642e-06
8.30928e-06
8.33291e-06
8.36608e-06
8.40972e-06
8.48412e-06
8.5554e-06
8.62211e-06
8.68758e-06
8.71426e-06
8.73267e-06
8.75955e-06
8.77277e-06
8.76546e-06
8.75749e-06
8.79758e-06
8.92771e-06
8.53228e-06
8.41063e-06
8.37222e-06
8.37841e-06
8.35968e-06
8.34501e-06
8.33076e-06
8.28319e-06
8.22624e-06
8.15907e-06
8.08485e-06
8.00758e-06
7.93466e-06
7.88132e-06
7.83658e-06
7.84301e-06
7.87689e-06
7.93177e-06
8.01715e-06
8.09585e-06
8.17243e-06
8.24824e-06
8.30129e-06
8.33905e-06
8.36384e-06
8.37453e-06
8.3714e-06
8.38222e-06
8.42487e-06
8.559e-06
8.19996e-06
8.06865e-06
8.03823e-06
8.03353e-06
8.00641e-06
8.00799e-06
7.95842e-06
7.89587e-06
7.83763e-06
7.76327e-06
7.68497e-06
7.60702e-06
7.53118e-06
7.46307e-06
7.41226e-06
7.41668e-06
7.45855e-06
7.52285e-06
7.60998e-06
7.69593e-06
7.78762e-06
7.87456e-06
7.93039e-06
7.96336e-06
7.98918e-06
8.01037e-06
8.02487e-06
8.04593e-06
8.08531e-06
8.21487e-06
7.87389e-06
7.73662e-06
7.73659e-06
7.70562e-06
7.70161e-06
7.67403e-06
7.6116e-06
7.57038e-06
7.51579e-06
7.43886e-06
7.35941e-06
7.27282e-06
7.18483e-06
7.10998e-06
7.06565e-06
7.07442e-06
7.11583e-06
7.17743e-06
7.26222e-06
7.34985e-06
7.43953e-06
7.524e-06
7.58674e-06
7.62923e-06
7.66338e-06
7.69275e-06
7.71776e-06
7.73845e-06
7.76956e-06
7.89361e-06
7.56801e-06
7.47667e-06
7.4477e-06
7.42411e-06
7.40719e-06
7.3561e-06
7.32183e-06
7.28656e-06
7.21739e-06
7.13319e-06
7.05039e-06
6.96024e-06
6.87516e-06
6.80968e-06
6.77035e-06
6.77055e-06
6.80285e-06
6.86337e-06
6.95297e-06
7.04941e-06
7.14189e-06
7.22281e-06
7.28479e-06
7.33187e-06
7.37409e-06
7.41005e-06
7.43627e-06
7.45294e-06
7.48256e-06
7.6028e-06
7.31897e-06
7.23245e-06
7.18636e-06
7.1677e-06
7.13037e-06
7.10271e-06
7.07834e-06
7.02151e-06
6.94701e-06
6.87134e-06
6.79532e-06
6.71041e-06
6.63053e-06
6.56672e-06
6.52275e-06
6.51599e-06
6.54982e-06
6.61799e-06
6.71005e-06
6.80184e-06
6.88347e-06
6.95532e-06
7.01886e-06
7.07419e-06
7.11992e-06
7.15321e-06
7.17699e-06
7.19653e-06
7.22856e-06
7.33623e-06
7.08575e-06
6.97436e-06
6.95648e-06
6.92649e-06
6.90552e-06
6.89162e-06
6.84271e-06
6.78085e-06
6.72332e-06
6.65942e-06
6.58593e-06
6.50338e-06
6.42647e-06
6.36313e-06
6.31835e-06
6.31211e-06
6.34932e-06
6.41818e-06
6.50236e-06
6.58345e-06
6.65742e-06
6.72769e-06
6.79382e-06
6.85044e-06
6.89346e-06
6.92435e-06
6.94852e-06
6.96889e-06
6.99645e-06
7.08844e-06
6.85669e-06
6.77416e-06
6.75133e-06
6.73123e-06
6.72084e-06
6.68727e-06
6.63524e-06
6.59545e-06
6.54722e-06
6.47926e-06
6.4013e-06
6.32201e-06
6.25226e-06
6.195e-06
6.1561e-06
6.15518e-06
6.19451e-06
6.25739e-06
6.32785e-06
6.3972e-06
6.46732e-06
6.5391e-06
6.60577e-06
6.65914e-06
6.69686e-06
6.72331e-06
6.74432e-06
6.76232e-06
6.78621e-06
6.86747e-06
6.65557e-06
6.59565e-06
6.56568e-06
6.55858e-06
6.53649e-06
6.5003e-06
6.47345e-06
6.44304e-06
6.38785e-06
6.31816e-06
6.24654e-06
6.17995e-06
6.12238e-06
6.07205e-06
6.03584e-06
6.03333e-06
6.06672e-06
6.12064e-06
6.18243e-06
6.24742e-06
6.31608e-06
6.38428e-06
6.44292e-06
6.48674e-06
6.51791e-06
6.54235e-06
6.56408e-06
6.58323e-06
6.60516e-06
6.67377e-06
6.4897e-06
6.41508e-06
6.40994e-06
6.39556e-06
6.37419e-06
6.3578e-06
6.33909e-06
6.2954e-06
6.23776e-06
6.17901e-06
6.12155e-06
6.06864e-06
6.01863e-06
5.96917e-06
5.93206e-06
5.92805e-06
5.95908e-06
6.00996e-06
6.0678e-06
6.12724e-06
6.18719e-06
6.24389e-06
6.29199e-06
6.3302e-06
6.36162e-06
6.38893e-06
6.41194e-06
6.42917e-06
6.4457e-06
6.49996e-06
6.33485e-06
6.28297e-06
6.2777e-06
6.26239e-06
6.25265e-06
6.24057e-06
6.20863e-06
6.16098e-06
6.11672e-06
6.07182e-06
6.0253e-06
5.98033e-06
5.93287e-06
5.88435e-06
5.8507e-06
5.84926e-06
5.87869e-06
5.92482e-06
5.97651e-06
6.02862e-06
6.07923e-06
6.12598e-06
6.16678e-06
6.20206e-06
6.23338e-06
6.25991e-06
6.27938e-06
6.29141e-06
6.30264e-06
6.34631e-06
6.20583e-06
6.17945e-06
6.16105e-06
6.15457e-06
6.14276e-06
6.12114e-06
6.08713e-06
6.05617e-06
6.02727e-06
5.99011e-06
5.9499e-06
5.90823e-06
5.86161e-06
5.81721e-06
5.79047e-06
5.79205e-06
5.81849e-06
5.85881e-06
5.90465e-06
5.95069e-06
5.99375e-06
6.03243e-06
6.06697e-06
6.09856e-06
6.1271e-06
6.14982e-06
6.16419e-06
6.17143e-06
6.17896e-06
6.21475e-06
6.1067e-06
6.07035e-06
6.06516e-06
6.05715e-06
6.04076e-06
6.02055e-06
5.99943e-06
5.9806e-06
5.95236e-06
5.91626e-06
5.88051e-06
5.84191e-06
5.79997e-06
5.76482e-06
5.74579e-06
5.74758e-06
5.76831e-06
5.80152e-06
5.8414e-06
5.88268e-06
5.9214e-06
5.95637e-06
5.98808e-06
6.0166e-06
6.04042e-06
6.05709e-06
6.06569e-06
6.06892e-06
6.07391e-06
6.10363e-06
6.01512e-06
5.99133e-06
5.99042e-06
5.97636e-06
5.96477e-06
5.95259e-06
5.9383e-06
5.91544e-06
5.88254e-06
5.85177e-06
5.82426e-06
5.79276e-06
5.75988e-06
5.73332e-06
5.71717e-06
5.71528e-06
5.72928e-06
5.75616e-06
5.79116e-06
5.82874e-06
5.86447e-06
5.89665e-06
5.92481e-06
5.94796e-06
5.96485e-06
5.97524e-06
5.98015e-06
5.98251e-06
5.98758e-06
6.01283e-06
5.94633e-06
5.94111e-06
5.92321e-06
5.91217e-06
5.90645e-06
5.89682e-06
5.87971e-06
5.85244e-06
5.82613e-06
5.80802e-06
5.78914e-06
5.76377e-06
5.73695e-06
5.7139e-06
5.69771e-06
5.69381e-06
5.7051e-06
5.72788e-06
5.75682e-06
5.78699e-06
5.81555e-06
5.84173e-06
5.86499e-06
5.88396e-06
5.89777e-06
5.9067e-06
5.91221e-06
5.91626e-06
5.92162e-06
5.94095e-06
5.89604e-06
5.87548e-06
5.8607e-06
5.85878e-06
5.85561e-06
5.84467e-06
5.82474e-06
5.80297e-06
5.78997e-06
5.77979e-06
5.76134e-06
5.73593e-06
5.71102e-06
5.69051e-06
5.67699e-06
5.6759e-06
5.68784e-06
5.70692e-06
5.72812e-06
5.74914e-06
5.7702e-06
5.79217e-06
5.81407e-06
5.83325e-06
5.84787e-06
5.8577e-06
5.86388e-06
5.86752e-06
5.86994e-06
5.8813e-06
5.83514e-06
5.81207e-06
5.8166e-06
5.8191e-06
5.8155e-06
5.80241e-06
5.78477e-06
5.77356e-06
5.76792e-06
5.7551e-06
5.73157e-06
5.70556e-06
5.68403e-06
5.66842e-06
5.65992e-06