/*--------------------------------*- C++ -*----------------------------------*\
| =========                 |                                                 |
| \\      /  F ield         | OpenFOAM: The Open Source CFD Toolbox           |
|  \\    /   O peration     | Version:  2312                                  |
|   \\  /    A nd           | Website:  www.openfoam.com                      |
|    \\/     M anipulation  |                                                 |
\*---------------------------------------------------------------------------*/
FoamFile
{
    version     2.0;
    format      ascii;
    arch        "LSB;label=32;scalar=64";
    class       volScalarField;
    location    "0.862544";
    object      p;
}
// * * * * * * * * * * * * * * * * * * * * * * * * * * * * * * * * * * * * * //

dimensions      [1 -1 -2 0 0 0 0];

internalField   nonuniform List<scalar> 
90000
(
4851.86
4851.86
4851.86
4851.86
4851.86
4851.86
4851.86
4851.86
4851.86
4851.86
4851.86
4851.86
4851.86
4851.86
4851.86
4851.86
4851.86
4851.86
4851.86
4851.86
4851.86
4851.86
4851.86
4851.86
4851.86
4851.86
4851.86
4851.86
4851.86
4851.86
4753.76
4753.76
4753.76
4753.76
4753.76
4753.76
4753.76
4753.76
4753.76
4753.76
4753.76
4753.76
4753.76
4753.76
4753.76
4753.76
4753.75
4753.75
4753.75
4753.75
4753.75
4753.75
4753.75
4753.75
4753.76
4753.76
4753.76
4753.76
4753.76
4753.76
4655.65
4655.65
4655.65
4655.65
4655.65
4655.65
4655.65
4655.66
4655.66
4655.66
4655.66
4655.66
4655.66
4655.66
4655.65
4655.65
4655.65
4655.65
4655.65
4655.65
4655.65
4655.65
4655.65
4655.65
4655.65
4655.65
4655.65
4655.65
4655.66
4655.66
4557.55
4557.55
4557.55
4557.55
4557.55
4557.55
4557.55
4557.55
4557.55
4557.55
4557.55
4557.56
4557.55
4557.55
4557.55
4557.55
4557.55
4557.55
4557.55
4557.55
4557.55
4557.55
4557.55
4557.55
4557.55
4557.55
4557.54
4557.54
4557.54
4557.54
4459.44
4459.44
4459.44
4459.44
4459.44
4459.44
4459.45
4459.45
4459.45
4459.45
4459.45
4459.45
4459.45
4459.45
4459.45
4459.45
4459.45
4459.45
4459.45
4459.45
4459.45
4459.45
4459.44
4459.44
4459.44
4459.44
4459.44
4459.44
4459.44
4459.44
4361.34
4361.34
4361.34
4361.34
4361.34
4361.34
4361.34
4361.34
4361.34
4361.34
4361.35
4361.35
4361.35
4361.35
4361.35
4361.35
4361.35
4361.35
4361.35
4361.35
4361.34
4361.34
4361.34
4361.34
4361.34
4361.34
4361.34
4361.34
4361.34
4361.34
4263.24
4263.24
4263.24
4263.24
4263.24
4263.24
4263.24
4263.24
4263.24
4263.24
4263.24
4263.24
4263.24
4263.24
4263.25
4263.25
4263.25
4263.25
4263.25
4263.24
4263.24
4263.24
4263.24
4263.24
4263.24
4263.23
4263.23
4263.23
4263.23
4263.23
4165.14
4165.14
4165.14
4165.14
4165.14
4165.14
4165.14
4165.14
4165.13
4165.13
4165.14
4165.14
4165.14
4165.14
4165.14
4165.14
4165.14
4165.14
4165.14
4165.14
4165.14
4165.13
4165.13
4165.13
4165.13
4165.13
4165.13
4165.13
4165.13
4165.13
4067.04
4067.04
4067.04
4067.04
4067.04
4067.04
4067.03
4067.03
4067.03
4067.03
4067.03
4067.03
4067.03
4067.03
4067.04
4067.04
4067.04
4067.04
4067.04
4067.03
4067.03
4067.03
4067.03
4067.03
4067.03
4067.03
4067.03
4067.03
4067.03
4067.03
3968.93
3968.93
3968.93
3968.93
3968.93
3968.93
3968.93
3968.93
3968.93
3968.93
3968.93
3968.93
3968.93
3968.93
3968.93
3968.93
3968.93
3968.93
3968.93
3968.93
3968.93
3968.93
3968.93
3968.93
3968.93
3968.92
3968.92
3968.92
3968.92
3968.92
3870.83
3870.83
3870.83
3870.83
3870.83
3870.83
3870.83
3870.83
3870.82
3870.82
3870.82
3870.82
3870.82
3870.82
3870.82
3870.82
3870.82
3870.82
3870.82
3870.83
3870.83
3870.83
3870.83
3870.83
3870.82
3870.82
3870.82
3870.82
3870.82
3870.82
3772.72
3772.72
3772.72
3772.72
3772.72
3772.72
3772.72
3772.72
3772.72
3772.72
3772.72
3772.72
3772.72
3772.72
3772.72
3772.72
3772.72
3772.72
3772.72
3772.72
3772.73
3772.73
3772.73
3772.72
3772.72
3772.72
3772.72
3772.72
3772.72
3772.72
3674.61
3674.61
3674.61
3674.61
3674.61
3674.61
3674.61
3674.61
3674.61
3674.62
3674.62
3674.62
3674.62
3674.61
3674.61
3674.61
3674.62
3674.62
3674.62
3674.62
3674.62
3674.62
3674.62
3674.62
3674.62
3674.62
3674.61
3674.61
3674.61
3674.61
3576.49
3576.49
3576.49
3576.5
3576.5
3576.5
3576.5
3576.51
3576.51
3576.51
3576.51
3576.51
3576.51
3576.51
3576.51
3576.51
3576.52
3576.52
3576.52
3576.52
3576.52
3576.52
3576.52
3576.51
3576.51
3576.51
3576.51
3576.51
3576.51
3576.51
3478.38
3478.38
3478.38
3478.39
3478.39
3478.4
3478.4
3478.4
3478.41
3478.41
3478.41
3478.41
3478.41
3478.41
3478.41
3478.41
3478.41
3478.41
3478.41
3478.41
3478.41
3478.41
3478.41
3478.41
3478.4
3478.4
3478.4
3478.4
3478.4
3478.4
3380.27
3380.28
3380.28
3380.28
3380.29
3380.29
3380.29
3380.3
3380.3
3380.31
3380.31
3380.31
3380.31
3380.31
3380.31
3380.31
3380.31
3380.31
3380.3
3380.3
3380.3
3380.3
3380.3
3380.3
3380.29
3380.29
3380.29
3380.29
3380.29
3380.29
3282.17
3282.17
3282.17
3282.17
3282.18
3282.18
3282.19
3282.19
3282.2
3282.2
3282.2
3282.2
3282.2
3282.2
3282.2
3282.2
3282.2
3282.2
3282.2
3282.19
3282.19
3282.19
3282.19
3282.19
3282.18
3282.18
3282.18
3282.18
3282.18
3282.18
3184.06
3184.06
3184.07
3184.07
3184.07
3184.08
3184.08
3184.09
3184.09
3184.09
3184.09
3184.1
3184.1
3184.1
3184.1
3184.1
3184.1
3184.09
3184.09
3184.09
3184.08
3184.08
3184.08
3184.08
3184.07
3184.07
3184.07
3184.07
3184.06
3184.06
3085.95
3085.96
3085.96
3085.96
3085.97
3085.97
3085.97
3085.98
3085.98
3085.99
3085.99
3085.99
3085.99
3086
3086
3086
3085.99
3085.99
3085.99
3085.98
3085.98
3085.98
3085.97
3085.97
3085.96
3085.96
3085.96
3085.96
3085.96
3085.96
2987.84
2987.85
2987.85
2987.85
2987.86
2987.86
2987.87
2987.87
2987.87
2987.88
2987.88
2987.89
2987.89
2987.89
2987.89
2987.89
2987.89
2987.89
2987.88
2987.88
2987.88
2987.87
2987.86
2987.86
2987.86
2987.85
2987.85
2987.85
2987.85
2987.85
2889.73
2889.74
2889.74
2889.74
2889.75
2889.75
2889.75
2889.76
2889.76
2889.77
2889.77
2889.78
2889.78
2889.79
2889.79
2889.79
2889.79
2889.78
2889.78
2889.78
2889.77
2889.76
2889.76
2889.75
2889.75
2889.74
2889.74
2889.74
2889.74
2889.73
2791.62
2791.62
2791.62
2791.63
2791.63
2791.64
2791.64
2791.65
2791.65
2791.66
2791.67
2791.67
2791.68
2791.68
2791.69
2791.69
2791.68
2791.68
2791.68
2791.67
2791.66
2791.66
2791.65
2791.64
2791.64
2791.63
2791.63
2791.62
2791.62
2791.62
2693.5
2693.5
2693.5
2693.51
2693.51
2693.52
2693.53
2693.53
2693.54
2693.55
2693.56
2693.57
2693.57
2693.58
2693.58
2693.58
2693.58
2693.58
2693.57
2693.56
2693.56
2693.55
2693.54
2693.53
2693.52
2693.52
2693.51
2693.5
2693.5
2693.5
2595.37
2595.37
2595.38
2595.38
2595.39
2595.4
2595.41
2595.42
2595.43
2595.44
2595.45
2595.46
2595.47
2595.47
2595.48
2595.48
2595.47
2595.47
2595.46
2595.45
2595.45
2595.44
2595.42
2595.41
2595.4
2595.39
2595.39
2595.38
2595.38
2595.38
2497.24
2497.24
2497.25
2497.26
2497.26
2497.28
2497.29
2497.3
2497.32
2497.33
2497.34
2497.35
2497.36
2497.37
2497.37
2497.37
2497.37
2497.36
2497.36
2497.35
2497.33
2497.32
2497.31
2497.29
2497.28
2497.27
2497.26
2497.25
2497.25
2497.25
2399.11
2399.11
2399.12
2399.12
2399.14
2399.15
2399.16
2399.18
2399.2
2399.22
2399.23
2399.24
2399.25
2399.26
2399.27
2399.27
2399.26
2399.26
2399.25
2399.23
2399.22
2399.2
2399.18
2399.17
2399.15
2399.14
2399.13
2399.12
2399.11
2399.11
2300.96
2300.97
2300.98
2300.99
2301
2301.02
2301.04
2301.06
2301.08
2301.1
2301.12
2301.13
2301.15
2301.16
2301.16
2301.16
2301.16
2301.15
2301.14
2301.12
2301.1
2301.08
2301.06
2301.04
2301.02
2301
2300.99
2300.98
2300.97
2300.96
2202.82
2202.82
2202.83
2202.84
2202.86
2202.88
2202.91
2202.93
2202.96
2202.98
2203
2203.02
2203.04
2203.05
2203.05
2203.05
2203.05
2203.04
2203.02
2203
2202.98
2202.96
2202.93
2202.91
2202.88
2202.86
2202.84
2202.83
2202.82
2202.81
2104.66
2104.66
2104.67
2104.69
2104.71
2104.74
2104.77
2104.8
2104.83
2104.86
2104.89
2104.91
2104.93
2104.94
2104.95
2104.95
2104.94
2104.93
2104.91
2104.88
2104.86
2104.83
2104.8
2104.77
2104.74
2104.71
2104.69
2104.67
2104.66
2104.65
2006.48
2006.49
2006.51
2006.53
2006.55
2006.59
2006.62
2006.66
2006.69
2006.73
2006.76
2006.79
2006.81
2006.83
2006.84
2006.84
2006.83
2006.81
2006.79
2006.76
2006.73
2006.69
2006.66
2006.62
2006.58
2006.55
2006.52
2006.5
2006.49
2006.48
1908.3
1908.31
1908.32
1908.35
1908.38
1908.42
1908.46
1908.51
1908.55
1908.59
1908.63
1908.67
1908.69
1908.71
1908.72
1908.72
1908.71
1908.69
1908.67
1908.63
1908.59
1908.55
1908.5
1908.46
1908.42
1908.38
1908.35
1908.32
1908.3
1908.29
1810.09
1810.1
1810.12
1810.16
1810.19
1810.24
1810.29
1810.34
1810.4
1810.45
1810.49
1810.53
1810.57
1810.59
1810.6
1810.6
1810.59
1810.57
1810.54
1810.49
1810.45
1810.4
1810.34
1810.29
1810.24
1810.19
1810.15
1810.12
1810.1
1810.09
1711.86
1711.88
1711.9
1711.94
1711.99
1712.04
1712.1
1712.17
1712.23
1712.29
1712.35
1712.39
1712.43
1712.46
1712.47
1712.47
1712.46
1712.43
1712.39
1712.34
1712.29
1712.23
1712.16
1712.1
1712.04
1711.98
1711.93
1711.9
1711.87
1711.86
1613.61
1613.62
1613.65
1613.7
1613.76
1613.82
1613.89
1613.97
1614.05
1614.12
1614.18
1614.24
1614.28
1614.31
1614.33
1614.33
1614.31
1614.28
1614.24
1614.18
1614.12
1614.04
1613.97
1613.89
1613.82
1613.75
1613.69
1613.65
1613.62
1613.6
1515.32
1515.34
1515.38
1515.43
1515.5
1515.57
1515.66
1515.75
1515.84
1515.92
1516
1516.07
1516.12
1516.16
1516.18
1516.18
1516.16
1516.12
1516.07
1516
1515.92
1515.84
1515.75
1515.66
1515.57
1515.49
1515.42
1515.37
1515.33
1515.31
1416.99
1417.02
1417.06
1417.12
1417.2
1417.3
1417.4
1417.5
1417.61
1417.71
1417.8
1417.88
1417.94
1417.98
1418
1418
1417.98
1417.94
1417.87
1417.8
1417.7
1417.6
1417.5
1417.39
1417.29
1417.2
1417.12
1417.05
1417.01
1416.99
1318.63
1318.65
1318.7
1318.78
1318.87
1318.98
1319.1
1319.22
1319.34
1319.46
1319.56
1319.65
1319.73
1319.78
1319.8
1319.8
1319.77
1319.72
1319.65
1319.56
1319.45
1319.34
1319.21
1319.09
1318.97
1318.86
1318.77
1318.7
1318.64
1318.62
1220.2
1220.23
1220.29
1220.38
1220.49
1220.61
1220.75
1220.89
1221.03
1221.17
1221.29
1221.4
1221.48
1221.54
1221.56
1221.56
1221.53
1221.48
1221.39
1221.29
1221.16
1221.03
1220.89
1220.74
1220.61
1220.48
1220.37
1220.28
1220.22
1220.19
1121.72
1121.75
1121.82
1121.92
1122.05
1122.19
1122.35
1122.51
1122.68
1122.83
1122.97
1123.09
1123.18
1123.25
1123.28
1123.28
1123.25
1123.18
1123.08
1122.96
1122.82
1122.67
1122.51
1122.34
1122.18
1122.04
1121.91
1121.81
1121.74
1121.71
1023.16
1023.2
1023.28
1023.4
1023.54
1023.71
1023.89
1024.07
1024.25
1024.43
1024.58
1024.72
1024.82
1024.9
1024.93
1024.93
1024.89
1024.82
1024.71
1024.58
1024.42
1024.25
1024.06
1023.88
1023.7
1023.53
1023.39
1023.27
1023.19
1023.15
924.517
924.566
924.658
924.789
924.953
925.141
925.343
925.549
925.752
925.943
926.116
926.263
926.379
926.459
926.5
926.498
926.456
926.374
926.256
926.108
925.934
925.742
925.538
925.331
925.129
924.941
924.778
924.647
924.554
924.505
825.777
825.833
825.938
826.088
826.273
826.483
826.706
826.932
827.152
827.357
827.541
827.699
827.823
827.909
827.953
827.951
827.905
827.816
827.69
827.531
827.346
827.139
826.919
826.692
826.469
826.26
826.075
825.926
825.821
825.765
726.922
726.987
727.108
727.277
727.485
727.716
727.959
728.199
728.428
728.64
728.828
728.989
729.117
729.207
729.252
729.251
729.201
729.109
728.979
728.816
728.626
728.413
728.184
727.943
727.701
727.47
727.263
727.095
726.976
726.911
627.932
628.01
628.148
628.34
628.572
628.825
629.082
629.327
629.552
629.755
629.933
630.087
630.21
630.299
630.345
630.343
630.293
630.2
630.073
629.917
629.738
629.534
629.308
629.064
628.807
628.555
628.325
628.135
627.998
627.922
528.787
528.878
529.038
529.259
529.518
529.794
530.059
530.29
530.487
530.657
530.797
530.925
531.034
531.115
531.162
531.159
531.107
531.021
530.908
530.778
530.635
530.465
530.267
530.037
529.773
529.499
529.243
529.025
528.867
528.779
429.456
429.566
429.758
430.02
430.309
430.608
430.878
431.055
431.184
431.284
431.338
431.418
431.498
431.56
431.616
431.611
431.548
431.48
431.397
431.315
431.259
431.157
431.027
430.853
430.585
430.287
430.002
429.746
429.559
429.454
329.872
329.99
330.251
330.589
330.902
331.236
331.54
331.557
331.551
331.569
331.415
331.451
331.489
331.48
331.592
331.583
331.462
331.464
331.426
331.39
331.541
331.519
331.525
331.51
331.207
330.876
330.57
330.242
329.991
329.88
230.066
229.952
230.475
231.092
231.119
231.485
232.148
231.538
231.274
231.477
230.669
230.896
230.94
230.54
230.978
230.955
230.512
230.898
230.876
230.65
231.448
231.24
231.501
232.116
231.453
231.084
231.066
230.469
229.964
230.088
130.67
128.519
130.743
132.497
129.841
130.298
133.304
129.804
128.941
131.532
127.51
129.834
130.37
127.516
129.933
129.848
127.487
130.274
129.887
127.536
131.515
128.911
129.764
133.278
130.264
129.788
132.447
130.743
128.549
130.706
46.2841
42.0777
44.6147
48.141
42.9997
41.5116
47.3565
42.0677
39.6728
43.8336
36.7393
40.86
41.8361
34.5998
40.7632
40.5574
34.5358
41.6422
40.9934
36.835
43.8294
39.6901
42.0517
47.3404
41.5467
42.9125
48.0828
44.6263
42.0914
46.3012
2.2636
-1.39345
0.957502
1.59057
-1.99941
-3.49224
-2.2946
-3.20126
-4.11189
-3.07295
-2.22654
-1.847
-1.1912
-2.38046
-0.97496
-1.04031
-2.48256
-1.25431
-1.89069
-2.27137
-3.12169
-4.13851
-3.23045
-2.39542
-3.60188
-2.05015
1.56127
0.973752
-1.38964
2.26798
-5.12801
-5.13376
-5.19183
-5.1643
-5.41622
-5.9004
-6.18678
-5.66683
-6.58176
-6.8833
-5.27661
-5.27217
-5.14657
-4.82831
-5.01694
-4.97784
-4.84717
-5.10925
-5.27876
-5.30892
-6.92007
-6.6093
-5.67427
-6.22853
-5.94414
-5.41387
-5.15513
-5.18819
-5.13061
-5.12467
-5.11929
-5.1096
-5.12285
-5.13873
-5.09407
-5.08076
-5.13436
-5.03192
-5.00481
-5.04212
-5.11188
-5.12177
-5.12416
-5.07574
-5.10733
-5.10803
-5.08079
-5.12412
-5.1239
-5.11511
-5.0445
-5.00859
-5.033
-5.13507
-5.08007
-5.0939
-5.1362
-5.12128
-5.10803
-5.11745
-5.20789
-5.20155
-5.20372
-5.20356
-5.19526
-5.18292
-5.17902
-5.16982
-5.15204
-5.16234
-5.18035
-5.19478
-5.19526
-5.19669
-5.19867
-5.20026
-5.19682
-5.19607
-5.19499
-5.18024
-5.16183
-5.15095
-5.16907
-5.17779
-5.18167
-5.19455
-5.20259
-5.20255
-5.20036
-5.20659
-5.30561
-5.30333
-5.30307
-5.30295
-5.30217
-5.30206
-5.29909
-5.29447
-5.29721
-5.29511
-5.29687
-5.30068
-5.30236
-5.3041
-5.30449
-5.30467
-5.30415
-5.30245
-5.30048
-5.29648
-5.29451
-5.29659
-5.29365
-5.29815
-5.30105
-5.30131
-5.3019
-5.30192
-5.30209
-5.30438
-5.40539
-5.40475
-5.40452
-5.40469
-5.405
-5.40532
-5.4044
-5.40348
-5.40437
-5.40397
-5.40474
-5.40654
-5.40791
-5.40871
-5.40904
-5.40904
-5.40865
-5.40771
-5.40619
-5.40426
-5.40335
-5.4037
-5.4027
-5.4035
-5.4043
-5.40406
-5.40365
-5.40348
-5.40364
-5.40425
-5.50661
-5.50656
-5.5066
-5.50687
-5.50735
-5.5077
-5.50773
-5.50777
-5.50807
-5.50843
-5.50927
-5.51057
-5.51171
-5.51248
-5.51293
-5.5129
-5.51238
-5.51146
-5.51017
-5.50876
-5.50783
-5.50738
-5.50698
-5.50689
-5.50679
-5.50637
-5.50588
-5.50562
-5.50557
-5.5056
-5.60827
-5.60836
-5.60855
-5.6089
-5.60936
-5.60985
-5.61027
-5.61066
-5.61107
-5.61156
-5.61226
-5.61316
-5.61407
-5.61481
-5.6152
-5.61516
-5.61464
-5.61381
-5.61276
-5.61174
-5.61097
-5.61041
-5.6099
-5.60947
-5.609
-5.60846
-5.60793
-5.60756
-5.60735
-5.60727
-5.70985
-5.70995
-5.71021
-5.7106
-5.7111
-5.71167
-5.71224
-5.71277
-5.71336
-5.71399
-5.71458
-5.71525
-5.71587
-5.71635
-5.71663
-5.71659
-5.71619
-5.71559
-5.71485
-5.71409
-5.71338
-5.71271
-5.71206
-5.71144
-5.71085
-5.71025
-5.70969
-5.70929
-5.70902
-5.70886
-5.81115
-5.8113
-5.81161
-5.81201
-5.81253
-5.81313
-5.81373
-5.81436
-5.81503
-5.81568
-5.81634
-5.8169
-5.81736
-5.81771
-5.81788
-5.81781
-5.81755
-5.8171
-5.81652
-5.81585
-5.81513
-5.81439
-5.8137
-5.81299
-5.81233
-5.81172
-5.81117
-5.81071
-5.81046
-5.81028
-5.91226
-5.91243
-5.91272
-5.91311
-5.91364
-5.91422
-5.91485
-5.91552
-5.9162
-5.91686
-5.91749
-5.91804
-5.91848
-5.91879
-5.91891
-5.91885
-5.91865
-5.91825
-5.9177
-5.91703
-5.91634
-5.91559
-5.91486
-5.91416
-5.91348
-5.91285
-5.9123
-5.91187
-5.9116
-5.91144
-6.01309
-6.01323
-6.01349
-6.01387
-6.0144
-6.01496
-6.0156
-6.01627
-6.01693
-6.01758
-6.01819
-6.01873
-6.01914
-6.01944
-6.01956
-6.01953
-6.01932
-6.01892
-6.01841
-6.01778
-6.01711
-6.01638
-6.01565
-6.01496
-6.0143
-6.01368
-6.01314
-6.01275
-6.01245
-6.01231
-6.11362
-6.11371
-6.11398
-6.11436
-6.11484
-6.11539
-6.11601
-6.11663
-6.11727
-6.11791
-6.11849
-6.11898
-6.11938
-6.11967
-6.1198
-6.11977
-6.11956
-6.1192
-6.11872
-6.11813
-6.11746
-6.11677
-6.11609
-6.11543
-6.11478
-6.11418
-6.11368
-6.1133
-6.11301
-6.11288
-6.2138
-6.21393
-6.21419
-6.21453
-6.21498
-6.21551
-6.21608
-6.21668
-6.21729
-6.21788
-6.21841
-6.21888
-6.21928
-6.21954
-6.21965
-6.21961
-6.21942
-6.21911
-6.21867
-6.21811
-6.21749
-6.21685
-6.21621
-6.21558
-6.21496
-6.2144
-6.21393
-6.21356
-6.2133
-6.21318
-6.31376
-6.3139
-6.31412
-6.31442
-6.31485
-6.31535
-6.31588
-6.31643
-6.31699
-6.31754
-6.31804
-6.31848
-6.31883
-6.31906
-6.31917
-6.31916
-6.319
-6.31871
-6.31829
-6.31778
-6.31721
-6.31663
-6.31603
-6.31544
-6.31488
-6.31436
-6.31392
-6.31357
-6.31334
-6.31322
-6.41347
-6.41359
-6.41378
-6.41408
-6.41449
-6.41494
-6.41542
-6.41594
-6.41646
-6.41695
-6.4174
-6.41779
-6.4181
-6.41833
-6.41844
-6.41843
-6.41828
-6.41802
-6.41766
-6.4172
-6.41668
-6.41615
-6.4156
-6.41505
-6.41454
-6.41406
-6.41365
-6.41333
-6.41312
-6.41301
-6.51296
-6.51306
-6.51325
-6.51355
-6.51389
-6.5143
-6.51476
-6.51523
-6.51568
-6.51612
-6.51652
-6.51688
-6.51718
-6.51739
-6.51748
-6.51747
-6.51735
-6.51712
-6.5168
-6.51638
-6.51591
-6.51543
-6.51493
-6.51444
-6.51396
-6.51353
-6.51316
-6.51288
-6.51268
-6.51257
-6.61225
-6.61236
-6.61254
-6.61279
-6.6131
-6.61349
-6.6139
-6.61431
-6.6147
-6.61509
-6.61547
-6.61581
-6.61608
-6.61625
-6.61633
-6.61634
-6.61624
-6.61603
-6.61574
-6.61536
-6.61495
-6.61453
-6.61408
-6.61363
-6.6132
-6.61282
-6.61249
-6.61222
-6.61204
-6.61193
-6.71139
-6.71147
-6.71163
-6.71185
-6.71216
-6.71251
-6.71287
-6.71323
-6.71358
-6.71393
-6.71428
-6.71459
-6.71482
-6.71496
-6.71505
-6.71507
-6.71498
-6.71478
-6.71452
-6.7142
-6.71384
-6.71346
-6.71306
-6.71265
-6.71227
-6.71193
-6.71164
-6.71139
-6.71121
-6.71112
-6.81036
-6.81043
-6.81057
-6.81079
-6.81107
-6.81137
-6.8117
-6.81202
-6.81233
-6.81264
-6.81295
-6.81322
-6.81342
-6.81357
-6.81366
-6.81366
-6.81357
-6.8134
-6.81318
-6.81291
-6.8126
-6.81225
-6.81188
-6.81152
-6.81119
-6.81089
-6.81063
-6.81041
-6.81026
-6.81018
-6.90919
-6.90926
-6.9094
-6.90961
-6.90984
-6.91011
-6.91042
-6.9107
-6.91096
-6.91124
-6.91152
-6.91175
-6.91195
-6.91209
-6.91215
-6.91214
-6.91206
-6.91192
-6.91174
-6.91151
-6.91122
-6.9109
-6.91058
-6.91027
-6.90998
-6.90973
-6.9095
-6.90931
-6.90918
-6.90912
-7.00792
-7.00797
-7.00812
-7.00828
-7.0085
-7.00876
-7.00902
-7.00926
-7.00951
-7.00976
-7.01
-7.01022
-7.01039
-7.01051
-7.01056
-7.01054
-7.01047
-7.01036
-7.01021
-7.01001
-7.00975
-7.00947
-7.00919
-7.00893
-7.00868
-7.00845
-7.00825
-7.00809
-7.00798
-7.00793
-7.10653
-7.1066
-7.10671
-7.10686
-7.10708
-7.10731
-7.10753
-7.10776
-7.10799
-7.10821
-7.10842
-7.10861
-7.10876
-7.10886
-7.1089
-7.10889
-7.10884
-7.10875
-7.10861
-7.10843
-7.10821
-7.10798
-7.10774
-7.10751
-7.10728
-7.10707
-7.1069
-7.10677
-7.10668
-7.10664
-7.20508
-7.20513
-7.20522
-7.20538
-7.20557
-7.20577
-7.20598
-7.20619
-7.20639
-7.20659
-7.20677
-7.20694
-7.20707
-7.20717
-7.2072
-7.2072
-7.20716
-7.20708
-7.20695
-7.2068
-7.20662
-7.20643
-7.20622
-7.20601
-7.2058
-7.20562
-7.20548
-7.20538
-7.20531
-7.20527
-7.30354
-7.30357
-7.30368
-7.30382
-7.30398
-7.30416
-7.30436
-7.30455
-7.30474
-7.30492
-7.30507
-7.30522
-7.30535
-7.30544
-7.30548
-7.30548
-7.30544
-7.30536
-7.30526
-7.30512
-7.30498
-7.30482
-7.30464
-7.30445
-7.30428
-7.30413
-7.30401
-7.30392
-7.30385
-7.30381
-7.40194
-7.40199
-7.40209
-7.4022
-7.40236
-7.40253
-7.4027
-7.40288
-7.40305
-7.40321
-7.40335
-7.40349
-7.40361
-7.4037
-7.40374
-7.40374
-7.40371
-7.40364
-7.40355
-7.40344
-7.40332
-7.40318
-7.40302
-7.40286
-7.40271
-7.40258
-7.40247
-7.40238
-7.40231
-7.40227
-7.50033
-7.50038
-7.50044
-7.50056
-7.5007
-7.50085
-7.501
-7.50118
-7.50134
-7.50149
-7.50162
-7.50176
-7.50187
-7.50195
-7.50199
-7.50199
-7.50197
-7.50193
-7.50186
-7.50176
-7.50164
-7.50151
-7.50137
-7.50123
-7.5011
-7.50098
-7.50087
-7.50077
-7.5007
-7.50066
-7.59869
-7.59869
-7.59876
-7.59888
-7.59901
-7.59914
-7.59929
-7.59946
-7.59961
-7.59975
-7.59989
-7.60002
-7.60011
-7.60018
-7.60022
-7.60023
-7.60023
-7.6002
-7.60014
-7.60005
-7.59994
-7.59982
-7.59969
-7.59958
-7.59946
-7.59934
-7.59923
-7.59913
-7.59905
-7.59902
-7.69698
-7.697
-7.69709
-7.6972
-7.69731
-7.69744
-7.69758
-7.69772
-7.69786
-7.69801
-7.69815
-7.69827
-7.69835
-7.69841
-7.69845
-7.69847
-7.69847
-7.69845
-7.6984
-7.69833
-7.69824
-7.69814
-7.69804
-7.69793
-7.69781
-7.69769
-7.69756
-7.69745
-7.69738
-7.69735
-7.79533
-7.79538
-7.79545
-7.79553
-7.79562
-7.79574
-7.79586
-7.79599
-7.79612
-7.79627
-7.79641
-7.79652
-7.7966
-7.79666
-7.7967
-7.79673
-7.79674
-7.79672
-7.79668
-7.79662
-7.79655
-7.79646
-7.79637
-7.79625
-7.79612
-7.79599
-7.79586
-7.79576
-7.7957
-7.79567
-7.89372
-7.89375
-7.89378
-7.89384
-7.89393
-7.89404
-7.89415
-7.89427
-7.89441
-7.89456
-7.89469
-7.89479
-7.89487
-7.89493
-7.89498
-7.89501
-7.89502
-7.895
-7.89496
-7.89491
-7.89484
-7.89476
-7.89466
-7.89454
-7.8944
-7.89427
-7.89415
-7.89407
-7.89402
-7.894
-7.99208
-7.99207
-7.99209
-7.99215
-7.99224
-7.99234
-7.99245
-7.99257
-7.99271
-7.99284
-7.99296
-7.99305
-7.99313
-7.99321
-7.99326
-7.99329
-7.99329
-7.99328
-7.99324
-7.99319
-7.99312
-7.99304
-7.99294
-7.99281
-7.99268
-7.99256
-7.99246
-7.99239
-7.99235
-7.99234
-8.09039
-8.09039
-8.09042
-8.09048
-8.09056
-8.09064
-8.09074
-8.09087
-8.091
-8.09112
-8.09122
-8.09131
-8.0914
-8.09147
-8.09153
-8.09156
-8.09156
-8.09155
-8.09152
-8.09147
-8.0914
-8.09131
-8.09121
-8.09109
-8.09097
-8.09087
-8.09078
-8.09072
-8.09067
-8.09065
-8.1887
-8.18871
-8.18875
-8.1888
-8.18886
-8.18894
-8.18905
-8.18917
-8.1893
-8.18941
-8.1895
-8.1896
-8.18968
-8.18975
-8.18979
-8.18982
-8.18983
-8.18982
-8.18979
-8.18973
-8.18966
-8.18957
-8.18946
-8.18935
-8.18925
-8.18916
-8.18908
-8.18902
-8.18897
-8.18895
-8.287
-8.28701
-8.28704
-8.28708
-8.28714
-8.28723
-8.28735
-8.28748
-8.2876
-8.28771
-8.28781
-8.2879
-8.28798
-8.28804
-8.28808
-8.2881
-8.2881
-8.28809
-8.28804
-8.28798
-8.28789
-8.2878
-8.2877
-8.2876
-8.28752
-8.28744
-8.28736
-8.2873
-8.28726
-8.28724
-8.38527
-8.38527
-8.3853
-8.38534
-8.38541
-8.38552
-8.38564
-8.38576
-8.38588
-8.38599
-8.3861
-8.38619
-8.38626
-8.38632
-8.38635
-8.38637
-8.38637
-8.38634
-8.38628
-8.38621
-8.38612
-8.38603
-8.38594
-8.38585
-8.38578
-8.3857
-8.38564
-8.38558
-8.38554
-8.38553
-8.48352
-8.48353
-8.48356
-8.48362
-8.4837
-8.4838
-8.48391
-8.48401
-8.48412
-8.48423
-8.48434
-8.48443
-8.48451
-8.48457
-8.48461
-8.48463
-8.48461
-8.48457
-8.48451
-8.48444
-8.48435
-8.48427
-8.48418
-8.48411
-8.48403
-8.48396
-8.4839
-8.48385
-8.48382
-8.48381
-8.58179
-8.5818
-8.58185
-8.58191
-8.58199
-8.58208
-8.58217
-8.58226
-8.58235
-8.58245
-8.58255
-8.58265
-8.58273
-8.58279
-8.58284
-8.58285
-8.58284
-8.5828
-8.58274
-8.58267
-8.58259
-8.58251
-8.58242
-8.58234
-8.58226
-8.58219
-8.58214
-8.58211
-8.58209
-8.58209
-8.68007
-8.68009
-8.68013
-8.68019
-8.68026
-8.68034
-8.68041
-8.6805
-8.68059
-8.68068
-8.68077
-8.68086
-8.68094
-8.681
-8.68104
-8.68105
-8.68104
-8.681
-8.68095
-8.68089
-8.68081
-8.68073
-8.68064
-8.68054
-8.68046
-8.6804
-8.68037
-8.68035
-8.68035
-8.68036
-8.77836
-8.77838
-8.77841
-8.77845
-8.77851
-8.77857
-8.77864
-8.77872
-8.77881
-8.7789
-8.77899
-8.77908
-8.77915
-8.7792
-8.77922
-8.77923
-8.77921
-8.77919
-8.77915
-8.77909
-8.77901
-8.77892
-8.77883
-8.77874
-8.77867
-8.77862
-8.7786
-8.7786
-8.77861
-8.77862
-8.87666
-8.87667
-8.87668
-8.8767
-8.87674
-8.87678
-8.87685
-8.87693
-8.87702
-8.87711
-8.8772
-8.87727
-8.87733
-8.87737
-8.87738
-8.87738
-8.87737
-8.87735
-8.87732
-8.87726
-8.87719
-8.87711
-8.87702
-8.87695
-8.87689
-8.87686
-8.87686
-8.87686
-8.87687
-8.87687
-8.97494
-8.97493
-8.97493
-8.97495
-8.97497
-8.97501
-8.97508
-8.97516
-8.97524
-8.97532
-8.97539
-8.97545
-8.97549
-8.97552
-8.97553
-8.97553
-8.97552
-8.9755
-8.97547
-8.97542
-8.97536
-8.97529
-8.97523
-8.97517
-8.97514
-8.97512
-8.97512
-8.97511
-8.97511
-8.97511
-9.07317
-9.07315
-9.07316
-9.07318
-9.07321
-9.07326
-9.07332
-9.07338
-9.07345
-9.07351
-9.07357
-9.07361
-9.07365
-9.07366
-9.07367
-9.07367
-9.07366
-9.07364
-9.07361
-9.07357
-9.07352
-9.07348
-9.07344
-9.07341
-9.07339
-9.07337
-9.07336
-9.07335
-9.07333
-9.07333
-9.17138
-9.17138
-9.1714
-9.17142
-9.17145
-9.1715
-9.17154
-9.17159
-9.17164
-9.17168
-9.17173
-9.17177
-9.1718
-9.17182
-9.17183
-9.17183
-9.17182
-9.1718
-9.17176
-9.17173
-9.1717
-9.17167
-9.17165
-9.17163
-9.17161
-9.1716
-9.17157
-9.17155
-9.17153
-9.17152
-9.26964
-9.26965
-9.26965
-9.26967
-9.2697
-9.26973
-9.26975
-9.26978
-9.26981
-9.26986
-9.2699
-9.26994
-9.26998
-9.27
-9.27002
-9.27002
-9.27
-9.26998
-9.26995
-9.26992
-9.26989
-9.26987
-9.26986
-9.26984
-9.26982
-9.2698
-9.26977
-9.26974
-9.26971
-9.2697
-9.36792
-9.36793
-9.36793
-9.36794
-9.36795
-9.36795
-9.36796
-9.36798
-9.36801
-9.36805
-9.36808
-9.36812
-9.36816
-9.36819
-9.36821
-9.36821
-9.3682
-9.36818
-9.36816
-9.36813
-9.36811
-9.36809
-9.36807
-9.36805
-9.36803
-9.368
-9.36797
-9.36793
-9.36791
-9.3679
-9.46621
-9.4662
-9.46621
-9.46621
-9.46621
-9.4662
-9.4662
-9.46622
-9.46624
-9.46626
-9.46629
-9.46631
-9.46634
-9.46637
-9.46639
-9.46641
-9.46641
-9.46639
-9.46638
-9.46636
-9.46634
-9.46632
-9.4663
-9.46627
-9.46625
-9.46621
-9.46618
-9.46616
-9.46614
-9.46613
-9.56447
-9.56447
-9.56448
-9.56448
-9.56447
-9.56446
-9.56447
-9.56448
-9.56449
-9.56449
-9.56449
-9.5645
-9.56451
-9.56454
-9.56456
-9.56458
-9.56459
-9.56459
-9.56459
-9.56458
-9.56456
-9.56454
-9.56452
-9.5645
-9.56447
-9.56445
-9.56442
-9.5644
-9.56438
-9.56438
-9.6627
-9.66271
-9.66272
-9.66271
-9.66271
-9.66271
-9.66271
-9.66272
-9.66272
-9.6627
-9.66269
-9.66269
-9.66269
-9.66271
-9.66273
-9.66275
-9.66276
-9.66277
-9.66277
-9.66277
-9.66276
-9.66275
-9.66273
-9.66271
-9.6627
-9.66268
-9.66266
-9.66265
-9.66264
-9.66263
-9.7609
-9.76091
-9.76091
-9.76091
-9.76091
-9.76091
-9.76091
-9.76092
-9.76091
-9.7609
-9.76089
-9.76089
-9.76089
-9.7609
-9.76091
-9.76092
-9.76092
-9.76093
-9.76093
-9.76093
-9.76092
-9.76092
-9.76091
-9.76091
-9.7609
-9.76089
-9.76089
-9.76088
-9.76088
-9.76088
4851.86
4851.86
4851.86
4851.86
4851.86
4851.86
4851.86
4851.86
4851.86
4851.86
4851.86
4851.86
4851.86
4851.86
4851.86
4851.86
4851.86
4851.86
4851.86
4851.86
4851.86
4851.86
4851.86
4851.86
4851.86
4851.86
4851.86
4851.86
4851.87
4851.87
4753.76
4753.76
4753.76
4753.76
4753.76
4753.76
4753.76
4753.76
4753.76
4753.76
4753.76
4753.76
4753.76
4753.76
4753.76
4753.76
4753.75
4753.75
4753.75
4753.75
4753.75
4753.75
4753.75
4753.75
4753.75
4753.76
4753.76
4753.76
4753.76
4753.75
4655.65
4655.65
4655.65
4655.65
4655.65
4655.65
4655.65
4655.66
4655.66
4655.66
4655.66
4655.66
4655.66
4655.66
4655.65
4655.65
4655.65
4655.65
4655.65
4655.65
4655.65
4655.65
4655.65
4655.65
4655.65
4655.65
4655.65
4655.65
4655.65
4655.65
4557.55
4557.55
4557.55
4557.55
4557.55
4557.55
4557.55
4557.55
4557.55
4557.55
4557.56
4557.56
4557.55
4557.55
4557.55
4557.55
4557.55
4557.55
4557.55
4557.55
4557.55
4557.55
4557.55
4557.55
4557.55
4557.55
4557.54
4557.54
4557.54
4557.54
4459.44
4459.44
4459.44
4459.44
4459.44
4459.44
4459.45
4459.45
4459.45
4459.45
4459.45
4459.45
4459.45
4459.45
4459.45
4459.45
4459.45
4459.45
4459.45
4459.45
4459.45
4459.45
4459.45
4459.44
4459.44
4459.44
4459.44
4459.44
4459.44
4459.44
4361.34
4361.34
4361.34
4361.34
4361.34
4361.34
4361.34
4361.34
4361.34
4361.34
4361.35
4361.35
4361.35
4361.35
4361.35
4361.35
4361.35
4361.35
4361.35
4361.35
4361.35
4361.34
4361.34
4361.34
4361.34
4361.34
4361.34
4361.34
4361.34
4361.34
4263.24
4263.24
4263.24
4263.24
4263.24
4263.24
4263.24
4263.24
4263.24
4263.24
4263.24
4263.24
4263.24
4263.25
4263.25
4263.25
4263.25
4263.25
4263.25
4263.24
4263.24
4263.24
4263.24
4263.24
4263.24
4263.24
4263.23
4263.24
4263.24
4263.24
4165.14
4165.14
4165.14
4165.14
4165.14
4165.14
4165.14
4165.14
4165.13
4165.13
4165.14
4165.14
4165.14
4165.14
4165.14
4165.14
4165.14
4165.14
4165.14
4165.14
4165.14
4165.13
4165.13
4165.13
4165.13
4165.13
4165.13
4165.13
4165.13
4165.13
4067.04
4067.04
4067.04
4067.04
4067.04
4067.04
4067.03
4067.03
4067.03
4067.03
4067.03
4067.03
4067.03
4067.03
4067.04
4067.04
4067.04
4067.04
4067.03
4067.03
4067.03
4067.03
4067.03
4067.03
4067.03
4067.03
4067.03
4067.03
4067.03
4067.03
3968.93
3968.94
3968.94
3968.93
3968.93
3968.93
3968.93
3968.93
3968.93
3968.93
3968.93
3968.93
3968.93
3968.93
3968.93
3968.93
3968.93
3968.93
3968.93
3968.93
3968.93
3968.93
3968.93
3968.93
3968.93
3968.92
3968.92
3968.92
3968.92
3968.92
3870.83
3870.83
3870.83
3870.83
3870.83
3870.83
3870.83
3870.83
3870.82
3870.82
3870.82
3870.82
3870.82
3870.82
3870.82
3870.82
3870.82
3870.82
3870.82
3870.83
3870.83
3870.83
3870.83
3870.83
3870.82
3870.82
3870.82
3870.82
3870.82
3870.82
3772.72
3772.72
3772.72
3772.72
3772.72
3772.72
3772.72
3772.72
3772.72
3772.72
3772.72
3772.72
3772.72
3772.72
3772.72
3772.72
3772.72
3772.72
3772.72
3772.72
3772.73
3772.73
3772.73
3772.72
3772.72
3772.72
3772.72
3772.72
3772.72
3772.72
3674.61
3674.61
3674.61
3674.61
3674.61
3674.61
3674.61
3674.61
3674.62
3674.62
3674.62
3674.62
3674.62
3674.61
3674.61
3674.62
3674.62
3674.62
3674.62
3674.62
3674.62
3674.62
3674.62
3674.62
3674.62
3674.62
3674.62
3674.61
3674.61
3674.61
3576.49
3576.49
3576.49
3576.5
3576.5
3576.5
3576.51
3576.51
3576.51
3576.51
3576.52
3576.52
3576.52
3576.52
3576.52
3576.52
3576.52
3576.52
3576.52
3576.52
3576.52
3576.52
3576.52
3576.51
3576.51
3576.51
3576.51
3576.51
3576.51
3576.5
3478.38
3478.38
3478.38
3478.39
3478.39
3478.4
3478.4
3478.41
3478.41
3478.41
3478.41
3478.41
3478.41
3478.41
3478.41
3478.41
3478.41
3478.41
3478.41
3478.41
3478.41
3478.41
3478.41
3478.41
3478.41
3478.4
3478.4
3478.4
3478.4
3478.4
3380.28
3380.28
3380.28
3380.28
3380.29
3380.29
3380.3
3380.3
3380.3
3380.31
3380.31
3380.31
3380.31
3380.31
3380.31
3380.31
3380.31
3380.31
3380.3
3380.3
3380.3
3380.3
3380.3
3380.3
3380.3
3380.29
3380.29
3380.29
3380.29
3380.29
3282.17
3282.17
3282.17
3282.18
3282.18
3282.18
3282.19
3282.19
3282.2
3282.2
3282.2
3282.2
3282.2
3282.21
3282.2