/*--------------------------------*- C++ -*----------------------------------*\
| =========                 |                                                 |
| \\      /  F ield         | OpenFOAM: The Open Source CFD Toolbox           |
|  \\    /   O peration     | Version:  2312                                  |
|   \\  /    A nd           | Website:  www.openfoam.com                      |
|    \\/     M anipulation  |                                                 |
\*---------------------------------------------------------------------------*/
FoamFile
{
    version     2.0;
    format      ascii;
    arch        "LSB;label=32;scalar=64";
    class       volScalarField;
    location    "0.862544";
    object      p_rgh;
}
// * * * * * * * * * * * * * * * * * * * * * * * * * * * * * * * * * * * * * //

dimensions      [1 -1 -2 0 0 0 0];

internalField   nonuniform List<scalar> 
90000
(
4900.91
4900.92
4900.91
4900.91
4900.91
4900.91
4900.91
4900.91
4900.91
4900.91
4900.91
4900.91
4900.91
4900.91
4900.91
4900.91
4900.91
4900.91
4900.91
4900.91
4900.91
4900.91
4900.91
4900.91
4900.91
4900.91
4900.91
4900.91
4900.91
4900.91
4900.91
4900.92
4900.92
4900.91
4900.91
4900.91
4900.91
4900.91
4900.91
4900.91
4900.91
4900.91
4900.9
4900.91
4900.91
4900.91
4900.91
4900.91
4900.91
4900.91
4900.91
4900.9
4900.9
4900.9
4900.91
4900.91
4900.91
4900.91
4900.9
4900.86
4900.91
4900.91
4900.91
4900.91
4900.91
4900.91
4900.91
4900.91
4900.91
4900.91
4900.91
4900.91
4900.91
4900.91
4900.9
4900.9
4900.9
4900.9
4900.9
4900.9
4900.9
4900.9
4900.9
4900.9
4900.9
4900.91
4900.92
4900.94
4900.97
4900.9
4900.9
4900.9
4900.9
4900.9
4900.9
4900.9
4900.91
4900.91
4900.91
4900.91
4900.91
4900.91
4900.91
4900.91
4900.9
4900.9
4900.9
4900.9
4900.89
4900.89
4900.9
4900.9
4900.9
4900.9
4900.9
4900.9
4900.9
4900.89
4900.93
4900.9
4900.9
4900.89
4900.89
4900.89
4900.9
4900.9
4900.9
4900.91
4900.91
4900.91
4900.91
4900.91
4900.91
4900.91
4900.9
4900.9
4900.89
4900.89
4900.89
4900.89
4900.89
4900.9
4900.9
4900.9
4900.9
4900.9
4900.9
4900.88
4900.89
4900.88
4900.89
4900.88
4900.88
4900.88
4900.89
4900.89
4900.9
4900.9
4900.91
4900.91
4900.92
4900.92
4900.91
4900.91
4900.9
4900.89
4900.89
4900.89
4900.89
4900.89
4900.89
4900.9
4900.9
4900.9
4900.9
4900.89
4900.89
4900.87
4900.87
4900.86
4900.88
4900.86
4900.87
4900.87
4900.88
4900.88
4900.89
4900.89
4900.9
4900.91
4900.91
4900.91
4900.91
4900.91
4900.9
4900.9
4900.89
4900.89
4900.89
4900.89
4900.89
4900.9
4900.9
4900.89
4900.89
4900.88
4900.87
4900.86
4900.85
4900.86
4900.87
4900.86
4900.86
4900.86
4900.87
4900.87
4900.88
4900.88
4900.89
4900.89
4900.9
4900.9
4900.9
4900.9
4900.9
4900.9
4900.9
4900.9
4900.9
4900.9
4900.9
4900.89
4900.89
4900.88
4900.88
4900.87
4900.86
4900.86
4900.86
4900.87
4900.86
4900.86
4900.86
4900.86
4900.87
4900.87
4900.87
4900.87
4900.87
4900.88
4900.88
4900.89
4900.89
4900.9
4900.91
4900.91
4900.91
4900.91
4900.91
4900.9
4900.89
4900.88
4900.87
4900.87
4900.86
4900.85
4900.85
4900.86
4900.87
4900.88
4900.87
4900.88
4900.88
4900.88
4900.88
4900.88
4900.88
4900.87
4900.87
4900.87
4900.87
4900.88
4900.89
4900.9
4900.91
4900.92
4900.92
4900.92
4900.91
4900.9
4900.88
4900.87
4900.86
4900.85
4900.85
4900.85
4900.85
4900.86
4900.87
4900.87
4900.88
4900.91
4900.91
4900.91
4900.91
4900.9
4900.89
4900.88
4900.87
4900.87
4900.87
4900.88
4900.89
4900.9
4900.91
4900.91
4900.91
4900.91
4900.9
4900.88
4900.87
4900.86
4900.85
4900.85
4900.85
4900.85
4900.86
4900.86
4900.86
4900.85
4900.9
4900.95
4900.94
4900.94
4900.93
4900.92
4900.9
4900.88
4900.87
4900.86
4900.86
4900.86
4900.86
4900.87
4900.88
4900.88
4900.88
4900.88
4900.87
4900.87
4900.86
4900.86
4900.86
4900.86
4900.86
4900.86
4900.86
4900.86
4900.85
4900.85
4900.91
4900.95
4900.94
4900.93
4900.92
4900.9
4900.89
4900.87
4900.85
4900.84
4900.84
4900.83
4900.83
4900.83
4900.83
4900.84
4900.84
4900.85
4900.85
4900.86
4900.87
4900.88
4900.88
4900.88
4900.88
4900.88
4900.87
4900.86
4900.85
4900.87
4900.91
4900.92
4900.9
4900.89
4900.88
4900.86
4900.85
4900.84
4900.84
4900.83
4900.83
4900.82
4900.81
4900.81
4900.81
4900.81
4900.82
4900.84
4900.85
4900.87
4900.89
4900.9
4900.9
4900.89
4900.88
4900.87
4900.86
4900.85
4900.86
4900.86
4900.88
4900.84
4900.84
4900.83
4900.82
4900.82
4900.82
4900.83
4900.83
4900.84
4900.84
4900.83
4900.82
4900.81
4900.81
4900.81
4900.83
4900.85
4900.87
4900.89
4900.9
4900.91
4900.9
4900.89
4900.88
4900.86
4900.85
4900.85
4900.85
4900.83
4900.82
4900.76
4900.77
4900.77
4900.78
4900.79
4900.81
4900.83
4900.85
4900.86
4900.86
4900.85
4900.83
4900.82
4900.82
4900.82
4900.83
4900.85
4900.87
4900.88
4900.89
4900.89
4900.89
4900.88
4900.87
4900.86
4900.86
4900.85
4900.84
4900.83
4900.77
4900.71
4900.73
4900.74
4900.76
4900.78
4900.81
4900.84
4900.85
4900.86
4900.85
4900.84
4900.83
4900.82
4900.81
4900.81
4900.82
4900.83
4900.84
4900.84
4900.85
4900.85
4900.86
4900.86
4900.86
4900.86
4900.86
4900.85
4900.84
4900.85
4900.74
4900.68
4900.71
4900.72
4900.75
4900.77
4900.8
4900.82
4900.83
4900.84
4900.84
4900.83
4900.82
4900.81
4900.81
4900.81
4900.8
4900.8
4900.8
4900.8
4900.8
4900.81
4900.82
4900.83
4900.83
4900.82
4900.82
4900.81
4900.81
4900.82
4900.73
4900.68
4900.7
4900.71
4900.74
4900.76
4900.78
4900.81
4900.82
4900.83
4900.84
4900.84
4900.84
4900.84
4900.83
4900.82
4900.81
4900.8
4900.79
4900.78
4900.79
4900.79
4900.79
4900.78
4900.77
4900.76
4900.75
4900.74
4900.75
4900.74
4900.72
4900.69
4900.7
4900.72
4900.75
4900.78
4900.8
4900.82
4900.84
4900.86
4900.87
4900.88
4900.88
4900.87
4900.86
4900.84
4900.82
4900.81
4900.8
4900.79
4900.79
4900.78
4900.76
4900.75
4900.73
4900.73
4900.72
4900.72
4900.7
4900.7
4900.72
4900.71
4900.74
4900.76
4900.79
4900.82
4900.84
4900.85
4900.86
4900.87
4900.88
4900.88
4900.87
4900.86
4900.84
4900.83
4900.82
4900.81
4900.8
4900.79
4900.78
4900.76
4900.75
4900.74
4900.75
4900.76
4900.75
4900.74
4900.73
4900.75
4900.73
4900.76
4900.78
4900.8
4900.82
4900.84
4900.85
4900.85
4900.84
4900.83
4900.83
4900.82
4900.82
4900.82
4900.82
4900.82
4900.83
4900.83
4900.82
4900.8
4900.77
4900.75
4900.75
4900.76
4900.78
4900.78
4900.77
4900.76
4900.75
4900.76
4900.75
4900.78
4900.79
4900.8
4900.81
4900.82
4900.81
4900.8
4900.79
4900.78
4900.78
4900.79
4900.8
4900.82
4900.84
4900.86
4900.87
4900.86
4900.84
4900.81
4900.79
4900.78
4900.79
4900.8
4900.79
4900.76
4900.75
4900.74
4900.72
4900.71
4900.74
4900.75
4900.76
4900.77
4900.78
4900.78
4900.78
4900.77
4900.77
4900.78
4900.78
4900.8
4900.82
4900.85
4900.88
4900.9
4900.89
4900.86
4900.83
4900.81
4900.81
4900.82
4900.83
4900.82
4900.79
4900.76
4900.75
4900.74
4900.71
4900.74
4900.71
4900.71
4900.72
4900.73
4900.74
4900.75
4900.76
4900.77
4900.77
4900.78
4900.78
4900.8
4900.82
4900.85
4900.86
4900.85
4900.84
4900.81
4900.8
4900.81
4900.83
4900.84
4900.83
4900.8
4900.78
4900.77
4900.77
4900.76
4900.78
4900.82
4900.66
4900.66
4900.68
4900.69
4900.71
4900.72
4900.73
4900.73
4900.74
4900.74
4900.75
4900.77
4900.79
4900.81
4900.81
4900.81
4900.8
4900.8
4900.81
4900.82
4900.83
4900.8
4900.76
4900.73
4900.74
4900.75
4900.74
4900.75
4900.8
4900.73
4900.61
4900.61
4900.62
4900.63
4900.63
4900.65
4900.66
4900.67
4900.68
4900.7
4900.73
4900.76
4900.79
4900.81
4900.81
4900.81
4900.82
4900.83
4900.84
4900.82
4900.78
4900.73
4900.69
4900.68
4900.7
4900.69
4900.67
4900.7
4900.69
4900.58
4900.56
4900.53
4900.54
4900.54
4900.56
4900.58
4900.61
4900.63
4900.67
4900.7
4900.74
4900.78
4900.8
4900.8
4900.8
4900.81
4900.82
4900.82
4900.79
4900.74
4900.68
4900.66
4900.66
4900.66
4900.65
4900.64
4900.62
4900.61
4900.56
4900.59
4900.48
4900.46
4900.48
4900.49
4900.52
4900.54
4900.57
4900.6
4900.64
4900.68
4900.72
4900.74
4900.75
4900.75
4900.76
4900.78
4900.78
4900.76
4900.71
4900.65
4900.62
4900.62
4900.64
4900.61
4900.56
4900.56
4900.54
4900.49
4900.52
4900.59
4900.41
4900.43
4900.45
4900.46
4900.46
4900.48
4900.5
4900.53
4900.58
4900.63
4900.68
4900.71
4900.73
4900.74
4900.77
4900.78
4900.76
4900.72
4900.66
4900.64
4900.63
4900.61
4900.58
4900.52
4900.46
4900.47
4900.46
4900.43
4900.5
4900.44
4900.35
4900.39
4900.38
4900.37
4900.37
4900.38
4900.42
4900.48
4900.55
4900.62
4900.67
4900.71
4900.74
4900.76
4900.77
4900.76
4900.73
4900.68
4900.65
4900.65
4900.64
4900.55
4900.48
4900.45
4900.41
4900.4
4900.41
4900.4
4900.36
4900.31
4900.27
4900.28
4900.27
4900.27
4900.29
4900.33
4900.38
4900.45
4900.52
4900.58
4900.63
4900.66
4900.7
4900.72
4900.73
4900.71
4900.68
4900.66
4900.65
4900.62
4900.58
4900.45
4900.4
4900.41
4900.36
4900.3
4900.32
4900.27
4900.18
4900.24
4900.13
4900.15
4900.16
4900.19
4900.22
4900.26
4900.31
4900.36
4900.42
4900.48
4900.55
4900.61
4900.66
4900.7
4900.71
4900.7
4900.68
4900.69
4900.65
4900.54
4900.47
4900.38
4900.35
4900.34
4900.24
4900.17
4900.18
4900.1
4900.11
4900.12
4899.98
4900.03
4900.05
4900.07
4900.09
4900.13
4900.18
4900.25
4900.33
4900.42
4900.52
4900.6
4900.66
4900.69
4900.69
4900.67
4900.64
4900.62
4900.56
4900.42
4900.38
4900.36
4900.29
4900.2
4900.11
4900.07
4900.04
4900.01
4900.01
4899.97
4899.81
4899.85
4899.86
4899.88
4899.93
4899.99
4900.08
4900.17
4900.27
4900.36
4900.45
4900.53
4900.57
4900.58
4900.58
4900.6
4900.57
4900.52
4900.49
4900.39
4900.39
4900.35
4900.19
4900.06
4900.03
4899.98
4899.9
4899.86
4899.79
4899.79
4899.58
4899.6
4899.63
4899.69
4899.76
4899.85
4899.94
4900.04
4900.13
4900.23
4900.32
4900.4
4900.47
4900.5
4900.52
4900.58
4900.55
4900.48
4900.46
4900.38
4900.33
4900.2
4900.01
4899.94
4899.93
4899.78
4899.67
4899.59
4899.58
4899.56
4899.29
4899.35
4899.39
4899.45
4899.53
4899.62
4899.73
4899.85
4899.97
4900.09
4900.2
4900.29
4900.39
4900.46
4900.47
4900.51
4900.45
4900.36
4900.33
4900.24
4900.11
4899.95
4899.84
4899.8
4899.69
4899.48
4899.4
4899.37
4899.36
4899.31
4898.98
4899.03
4899.06
4899.14
4899.25
4899.38
4899.51
4899.64
4899.77
4899.9
4900.04
4900.15
4900.24
4900.34
4900.33
4900.34
4900.29
4900.24
4900.2
4900.08
4899.9
4899.78
4899.7
4899.55
4899.33
4899.19
4899.15
4899.11
4899
4898.99
4898.59
4898.62
4898.69
4898.8
4898.93
4899.06
4899.19
4899.34
4899.5
4899.67
4899.83
4899.97
4900.02
4900.12
4900.11
4900.14
4900.08
4900.07
4900
4899.83
4899.66
4899.57
4899.42
4899.17
4898.99
4898.93
4898.83
4898.66
4898.62
4898.64
4898.12
4898.19
4898.28
4898.37
4898.49
4898.64
4898.82
4899.02
4899.22
4899.38
4899.53
4899.69
4899.78
4899.88
4899.86
4899.89
4899.84
4899.78
4899.68
4899.51
4899.38
4899.26
4899.03
4898.82
4898.69
4898.55
4898.35
4898.22
4898.26
4898.21
4897.6
4897.66
4897.72
4897.84
4898.02
4898.22
4898.4
4898.58
4898.81
4899.02
4899.21
4899.32
4899.44
4899.54
4899.56
4899.58
4899.58
4899.44
4899.33
4899.17
4899.05
4898.86
4898.58
4898.43
4898.23
4897.99
4897.85
4897.8
4897.7
4897.6
4896.95
4896.99
4897.12
4897.28
4897.44
4897.63
4897.87
4898.09
4898.33
4898.48
4898.72
4898.82
4899
4899.1
4899.12
4899.05
4899.08
4898.98
4898.87
4898.7
4898.54
4898.33
4898.08
4897.89
4897.63
4897.39
4897.27
4897.13
4896.96
4896.89
4896.18
4896.27
4896.39
4896.54
4896.73
4896.97
4897.25
4897.47
4897.73
4897.84
4898.11
4898.26
4898.35
4898.37
4898.51
4898.54
4898.46
4898.36
4898.29
4898.11
4897.91
4897.68
4897.48
4897.18
4896.93
4896.75
4896.51
4896.4
4896.32
4896.15
4895.31
4895.36
4895.47
4895.74
4895.99
4896.16
4896.46
4896.68
4896.91
4897.1
4897.24
4897.41
4897.62
4897.74
4897.67
4897.68
4897.68
4897.58
4897.47
4897.25
4897.12
4896.88
4896.65
4896.37
4896.17
4895.97
4895.68
4895.58
4895.37
4895.2
4894.23
4894.33
4894.5
4894.69
4894.99
4895.33
4895.52
4895.68
4895.95
4896.21
4896.22
4896.4
4896.54
4896.54
4896.57
4896.65
4896.63
4896.45
4896.31
4896.23
4896.14
4895.91
4895.71
4895.52
4895.19
4894.93
4894.73
4894.47
4894.23
4894.08
4892.99
4893.11
4893.3
4893.51
4893.86
4894.15
4894.4
4894.69
4894.68
4894.76
4894.99
4894.95
4895
4895.11
4895.14
4895.18
4895.09
4895.02
4894.93
4894.92
4894.76
4894.7
4894.59
4894.36
4894.13
4893.82
4893.52
4893.29
4893.05
4892.67
4891.41
4891.41
4891.75
4892.15
4892.52
4892.86
4893.17
4893.2
4893.19
4893.2
4893.02
4893.03
4893.17
4893.08
4893.17
4893.27
4893.1
4893.14
4893.08
4893.01
4893.24
4893.17
4893.15
4893.14
4892.84
4892.46
4892.16
4891.83
4891.39
4891.12
4888.46
4886.25
4888.95
4890.17
4889.71
4890.74
4891.38
4891.12
4890.99
4891.21
4890.38
4890.62
4890.69
4890.28
4890.64
4890.59
4890.25
4890.59
4890.63
4890.38
4891.2
4890.95
4891.07
4891.33
4890.72
4889.64
4890.18
4888.94
4886.42
4888.34
4876.7
4852.81
4876.3
4883.51
4869.71
4879.06
4889.74
4863.09
4883.53
4889.12
4874.89
4887.6
4888.21
4885.27
4887.69
4887.6
4885.21
4888.05
4887.69
4875.04
4889.13
4883.44
4862.73
4889.68
4878.93
4869.74
4883.82
4876.31
4853.11
4876.68
3769.45
2940.96
3731.34
4034.48
2904.82
3198.59
4140.3
2752.94
2936.35
4114.66
2682.76
3814.98
4038.61
3197.73
3839.84
3821.06
3214.55
4017.95
3849.44
2687.76
4115.39
2933.53
2751
4142.17
3190.65
2906.91
4030.27
3732.82
2945.17
3769.24
962.996
319.083
741.616
1165.34
328.014
298.501
1126.2
214.082
217.29
1365.56
80.9564
550.289
677.088
70.3277
513.542
486.962
71.413
642.205
573.845
82.6604
1367.36
218.34
211.917
1132.06
299.753
322.715
1158.8
743.9
319.856
961.262
0.42747
2.046
4.51978
31.9837
19.1053
38.7497
102.413
29.4947
55.8596
71.9809
21.3605
11.7872
27.5948
6.82266
16.0252
16.0371
4.30639
27.0807
9.31399
21.0933
73.9786
55.5248
29.2905
103.429
39.3079
19.0912
30.0044
4.24926
2.00278
0.425948
0.494812
0.33979
0.785685
2.03724
1.33055
4.35402
10.4996
2.82352
7.07486
15.3226
2.27655
0.272511
-0.157107
1.62046
0.864191
0.457626
0.608772
-0.136162
0.0664197
2.06934
15.3243
6.48363
2.77173
10.5446
4.38688
1.34477
1.83366
0.743059
0.339606
0.492388
0.380106
0.274522
0.328572
0.138892
0.247139
2.07888
0.710833
0.315895
4.74482
1.59008
1.095
0.0934297
0.136356
0.559978
0.240304
0.191442
0.508956
0.131503
0.0922691
1.06076
1.5814
4.80675
0.315766
0.713479
2.08256
0.256679
0.135805
0.328078
0.277491
0.379931
0.0476938
0.0563521
0.0618725
0.068023
0.094805
0.203149
0.0796257
0.154258
0.425852
0.218028
0.138031
0.0794444
0.128985
0.122425
0.113677
0.110303
0.136991
0.12695
0.0798214
0.139223
0.217094
0.444638
0.158344
0.0802159
0.204113
0.0959548
0.0695011
0.0638834
0.0587076
0.0487896
0.0454032
0.0521509
0.0510548
0.0460596
0.0428881
0.0419298
0.0416145
0.042872
0.0472103
0.0573352
0.0465064
0.0548972
0.0723046
0.0818549
0.0971999
0.0985281
0.0821871
0.0726428
0.0555884
0.0469811
0.0577523
0.0485894
0.0436333
0.0424829
0.0428896
0.0438625
0.0471731
0.0521449
0.0528455
0.0464037
0.0368542
0.0372938
0.0371051
0.0365524
0.0357043
0.0350529
0.0350099
0.0349696
0.0349768
0.0354576
0.0341161
0.0332364
0.0321496
0.0350295
0.0438415
0.0459393
0.0352423
0.0323623
0.0336808
0.0346125
0.0360408
0.035669
0.0357558
0.0358482
0.035968
0.0366752
0.0375433
0.0380848
0.0383306
0.0378927
0.0325559
0.0326265
0.0323349
0.0319353
0.0314248
0.0309089
0.0304867
0.0300904
0.0296965
0.0292584
0.0285404
0.0276507
0.0268621
0.0264113
0.0263202
0.026315
0.0265538
0.0271203
0.0280518
0.0290606
0.0298483
0.0303534
0.0308592
0.0312884
0.0317622
0.0323246
0.0329034
0.0333254
0.0336288
0.0335605
0.0290123
0.0289246
0.0286565
0.0282602
0.027749
0.0271785
0.0266131
0.0260767
0.0254882
0.0248641
0.0242752
0.0235997
0.0229961
0.0225595
0.0223281
0.0223693
0.0227143
0.023282
0.0240053
0.0247588
0.0254759
0.026139
0.0267948
0.0274073
0.0280028
0.028607
0.0291661
0.0295779
0.0298491
0.0299965
0.025802
0.0256528
0.0253464
0.0249373
0.0244193
0.0238194
0.0232167
0.0225899
0.0219226
0.0212664
0.0206137
0.0200455
0.0195922
0.0192485
0.0190791
0.0191468
0.0194062
0.0198475
0.0204268
0.021097
0.021824
0.0225598
0.0232528
0.0239589
0.0246215
0.0252285
0.025785
0.026241
0.0264928
0.0266755
0.0227908
0.0226221
0.0223329
0.0219404
0.0214139
0.0208334
0.0202019
0.0195282
0.0188469
0.0181866
0.0175563
0.0170103
0.0165683
0.0162553
0.0161382
0.0161956
0.0163992
0.0168022
0.0173513
0.0180184
0.0187065
0.0194643
0.020185
0.0208858
0.0215652
0.0222035
0.0227462
0.0231758
0.0234493
0.0236128
0.0200624
0.0199171
0.0196625
0.0192782
0.0187484
0.0181895
0.0175482
0.0168757
0.0162155
0.0155671
0.0149555
0.014423
0.0140052
0.0137142
0.013589
0.0136205
0.013826
0.0142304
0.0147434
0.0153679
0.0160354
0.0167736
0.0174964
0.0181925
0.0188497
0.0194745
0.0200087
0.0204023
0.0206995
0.0208437
0.0176305
0.0175388
0.0172737
0.0168909
0.0164072
0.0158606
0.0152381
0.0146178
0.0139791
0.0133387
0.0127623
0.0122727
0.0118701
0.0115799
0.0114479
0.0114845
0.0116895
0.0120521
0.0125334
0.0131245
0.013792
0.0144825
0.0151551
0.0158211
0.0164687
0.0170679
0.0175696
0.0179517
0.0182366
0.0183682
0.0155453
0.01542
0.0151578
0.0148162
0.0143727
0.0138428
0.0132682
0.0126726
0.0120605
0.0114731
0.0109427
0.01047
0.0100742
0.00981224
0.00969962
0.00973578
0.00992603
0.0102393
0.0106833
0.0112365
0.0118649
0.0125011
0.0131411
0.0137723
0.0143856
0.0149522
0.0154166
0.0157902
0.0160452
0.0161698
0.0136933
0.0135486
0.0133338
0.0130307
0.0126003
0.0120998
0.0115743
0.0110179
0.0104557
0.00991078
0.00940669
0.00896847
0.00861834
0.008386
0.00827617
0.00828692
0.00845321
0.00874201
0.00915531
0.00966943
0.0102368
0.0108153
0.011416
0.0120054
0.0125694
0.0130934
0.0135304
0.0138839
0.0141144
0.0142336
0.0120789
0.0119595
0.0117687
0.0114668
0.0110587
0.0106134
0.0101258
0.00961109
0.00909404
0.00859821
0.00815131
0.00776436
0.00744511
0.00722065
0.00711153
0.00711504
0.00726567
0.00752637
0.00788902
0.00835468
0.00887022
0.00940115
0.00995376
0.0104954
0.0110108
0.011489
0.0118979
0.01222
0.0124308
0.0125421
0.0106874
0.0105908
0.0104017
0.010104
0.00975747
0.00934805
0.00888911
0.00842311
0.0079656
0.00753127
0.0071316
0.0067708
0.0064667
0.00626113
0.00616979
0.00617601
0.00630136
0.00652868
0.00685218
0.00727419
0.00773924
0.00821853
0.00871781
0.00921342
0.00968594
0.0101174
0.0104872
0.0107738
0.01097
0.0110781
0.00949633
0.00939421
0.0092119
0.00896489
0.00865179
0.00825671
0.00784815
0.00744215
0.00704553
0.00666009
0.00628412
0.00594127
0.00566743
0.00549686
0.00541665
0.0054097
0.00550906
0.00571526
0.00601304
0.00638878
0.00679538
0.00721911
0.00766996
0.00812365
0.00855091
0.00893394
0.0092635
0.00952542
0.00971477
0.00982076
0.00845596
0.00837634
0.00821891
0.00800301
0.00768899
0.00733779
0.00698321
0.00662137
0.00627216
0.0059209
0.00556988
0.00526381
0.005033
0.00488675
0.00480311
0.00478477
0.00487419
0.00506589
0.00532932
0.00565079
0.00600547
0.00638647
0.00679353
0.00720145
0.00758152
0.00792046
0.00821427
0.00845641
0.00863568
0.00872984
0.00758894
0.00751958
0.00738301
0.00715715
0.00687517
0.00657787
0.00625205
0.00592741
0.00562314
0.00531075
0.00499988
0.00473492
0.00452763
0.00438098
0.00429499
0.00428626
0.00437925
0.00455146
0.00477155
0.0050402
0.00535364
0.00570331
0.00607323
0.00643411
0.006763
0.00705678
0.00731697
0.00753548
0.0076932
0.0077693
0.00685714
0.006793
0.00664895
0.00644256
0.00621185
0.00593528
0.00563487
0.0053546
0.00508685
0.00480759
0.00453297
0.0042962
0.00410237
0.00396403
0.00389677
0.00390708
0.00399405
0.00413326
0.00431095
0.0045412
0.00482576
0.00514587
0.00547352
0.00578363
0.00606577
0.00632182
0.00654953
0.00673726
0.00686892
0.00693294
0.00622825
0.00617553
0.0060318
0.00587093
0.00565471
0.00538976
0.00513007
0.00488503
0.00464039
0.00438997
0.00414703
0.00393294
0.00375688
0.00363938
0.0035947
0.00361316
0.00368142
0.00378838
0.00393756
0.00414191
0.00439573
0.00467539
0.00495654
0.00522419
0.00547328
0.00570085
0.00589872
0.00605666
0.00616582
0.0062194
0.00571607
0.00564541
0.00553927
0.00538748
0.00517256
0.00494051
0.00471501
0.00448728
0.0042635
0.00404409
0.0038319
0.00364149
0.00348608
0.00338671
0.00335126
0.00336385
0.00341318
0.00350204
0.0036379
0.00382038
0.0040357
0.00426771
0.00450648
0.00474486
0.00497349
0.00517986
0.00535112
0.00548038
0.00556561
0.00560536
0.00527398
0.00521972
0.0051264
0.00496809
0.00478128
0.0045839
0.00437401
0.00416051
0.00395751
0.00376265
0.00357806
0.00341261
0.00327535
0.00318419
0.00314661
0.00315105
0.0031914
0.00327286
0.00339673
0.00355307
0.00372937
0.00392122
0.00412842
0.00434361
0.00454996
0.00472917
0.00487012
0.00497261
0.00504119
0.00507601
0.0049087
0.00487848
0.00476562
0.00462792
0.00446962
0.00428553
0.00408912
0.00389596
0.00370938
0.00353461
0.00337622
0.00323115
0.00310411
0.00301414
0.00297256
0.00297315
0.00301046
0.00308521
0.00319383
0.00332532
0.00347155
0.00363325
0.00381126
0.00399605
0.00417027
0.00431956
0.00443889
0.00453117
0.00459925
0.0046383
0.0046109
0.00455642
0.00445769
0.00434565
0.0041948
0.00402284
0.00384891
0.00367197
0.00349684
0.00334093
0.00320073
0.00306451
0.0029404
0.00285188
0.00281048
0.00281055
0.00284425
0.00290771
0.00299708
0.00310632
0.00323184
0.00337377
0.00352901
0.00368704
0.00383514
0.00396623
0.00407905
0.00417329
0.00424486
0.00428437
0.00431852
0.00426723
0.00420554
0.00409463
0.00395083
0.00380192
0.00364566
0.00347449
0.0033083
0.00316383
0.00302807
0.0028941
0.0027787
0.00270036
0.00266186
0.00265632
0.00267728
0.00272257
0.002793
0.00288866
0.00300708
0.00314218
0.0032841
0.00342247
0.00355166
0.00367171
0.00378279
0.00387949
0.00395142
0.00398745
0.00406428
0.00405738
0.00398955
0.00386977
0.0037412
0.00360855
0.00345742
0.00329347
0.0031399
0.00299856
0.00285957
0.00273273
0.00263568
0.00257186
0.00253363
0.00251711
0.00252266
0.00255274
0.00261131
0.00269925
0.00281032
0.00293283
0.00305568
0.0031738
0.00328904
0.00340517
0.00351992
0.00362165
0.00369513
0.00372924
0.00386511
0.00384999
0.00375828
0.00364913
0.00353897
0.00341354
0.00327055
0.00312602
0.00298608
0.00284147
0.00269929
0.00258315
0.00250168
0.00244417
0.00240325
0.00237908
0.00237672
0.0023983
0.00244712
0.00252112
0.00261262
0.00271197
0.00281431
0.00292166
0.00303843
0.0031642
0.00328918
0.00339591
0.0034682
0.00349873
0.00362306
0.00357311
0.00350041
0.00342483
0.00333055
0.00321254
0.00308623
0.00296124
0.00282556
0.00267581
0.00253582
0.0024287
0.00235116
0.00229127
0.00224521
0.00221698
0.00221205
0.00223039
0.00227133
0.00233087
0.00240383
0.00248719
0.00258303
0.00269599
0.00282628
0.0029637
0.00309142
0.00319163
0.00325346
0.00327667
0.0033278
0.00329594
0.003266
0.00321264
0.00312219
0.00301148
0.00289908
0.00277961
0.00263983
0.0024922
0.00236368
0.00226432
0.00218478
0.00211768
0.00206589
0.00203613
0.00203174
0.00205088
0.00208941
0.0021427
0.00220851
0.00228895
0.0023889
0.00251053
0.00264634
0.00278109
0.00289688
0.00298134
0.00303011
0.00304689
0.00307237
0.00307619
0.00305689
0.00300049
0.00290955
0.00280936
0.00270443
0.00258116
0.00244079
0.00230641
0.00219437
0.00210101
0.00201753
0.00194462
0.00188974
0.00185956
0.00185543
0.00187429
0.00191162
0.00196287
0.00202812
0.00211106
0.00221474
0.00233656
0.00246546
0.00258623
0.00268527
0.00275595
0.00279859
0.00281494
0.0028646
0.00286323
0.00283327
0.00277177
0.00269349
0.00260895
0.00250645
0.00238
0.00224739
0.0021296
0.00202899
0.00193707
0.00185131
0.00177797
0.00172412
0.00169356
0.00168642
0.00170092
0.00173432
0.00178409
0.00185185
0.00193902
0.0020441
0.00216049
0.00227712
0.00238254
0.00246921
0.00253437
0.00257759
0.00259754
0.00265026
0.00263697
0.00260377
0.00255159
0.00249162
0.00241329
0.00230422
0.00217576
0.00205196
0.0019434
0.00184501
0.0017525
0.00166981
0.00160314
0.00155519
0.00152687
0.00151794
0.00152968
0.00156217
0.00161606
0.00169097
0.00178376
0.00188809
0.00199574
0.00209845
0.00219058
0.00226943
0.00233316
0.00237819
0.0023993
0.00244702
0.00244079
0.00241005
0.00236823
0.00231095
0.00222148
0.00210077
0.00197138
0.00185122
0.00174172
0.00163973
0.0015479
0.00147218
0.00141494
0.00137492
0.00135171
0.00134719
0.00136475
0.00140645
0.00147159
0.00155577
0.00165177
0.00175041
0.00184568
0.00193394
0.00201447
0.00208678
0.00214764
0.00219067
0.00220969
0.00228352
0.0022814
0.00224989
0.00220537
0.00213648
0.00203467
0.00191295
0.00179007
0.00167243
0.001559
0.00145313
0.00136186
0.00128907
0.00123426
0.00119663
0.00117783
0.0011819
0.00121208
0.00126746
0.0013433
0.00143155
0.00152321
0.00161251
0.00169595
0.00177348
0.00184608
0.00191255
0.00196801
0.00200567
0.00202096
0.00213072
0.00212142
0.00208519
0.0020298
0.00195044
0.00185093
0.0017444
0.00163708
0.00152749
0.00141706
0.00131224
0.00122004
0.00114292
0.00108203
0.00104078
0.00102398
0.00103552
0.00107502
0.00113738
0.0012148
0.00129892
0.00138368
0.00146591
0.00154489
0.0016203
0.00169005
0.0017508
0.00179733
0.00182559
0.00183525
0.00195883
0.00194612
0.00190344
0.00184
0.00175922
0.00167124
0.00158361
0.0014932
0.00139618
0.00129521
0.00119634
0.00110437
0.00102265
0.000956574
0.000913437
0.000898737
0.000913461
0.000953472
0.00101201
0.0010826
0.00116058
0.00124334
0.00132865
0.00141253
0.00149098
0.0015585
0.00160957
0.00164162
0.00165622
0.00165829
0.00177641
0.00176216
0.00171863
0.0016585
0.0015859
0.00151098
0.00143535
0.00135369
0.00126426
0.0011708
0.00107766
0.000988482
0.000908941
0.00084706
0.000810007
0.000800109
0.000814813
0.00084891
0.000898073
0.000960367
0.00103534
0.00112172
0.00121482
0.00130619
0.00138593
0.00144558
0.00148145
0.00149584
0.00149591
0.00149084
0.00158695
0.00156746
0.001538
0.00149529
0.00144148
0.00138147
0.00131227
0.00123114
0.00114168
0.00104927
0.000958396
0.000874212
0.000803905
0.000754354
0.000728714
0.000724357
0.000736998
0.000763393
0.000803769
0.000860664
0.000935547
0.00102536
0.00112149
0.00121116
0.00128227
0.00132749
0.00134664
0.00134662
0.0013379
0.00132987
0.00138855
0.00137665
0.00136731
0.00134523
0.00131242
0.00126532
0.00119909
0.00111676
0.00102674
0.000936111
0.000850381
0.000775902
0.000719316
0.000684151
0.000668832
0.000667901
0.00067763
0.000698065
0.000732842
0.000785966
0.000857733
0.000942149
0.00102816
0.00110281
0.00115653
0.00118574
0.00119395
0.00118953
0.00118166
0.0011763
0.00121149
0.0012186
0.00121666
0.00120393
0.00117979
0.00113569
0.00107047
0.000992562
0.000910979
0.000831414
0.000758807
0.000698981
0.000656797
0.000632669
0.000623538
0.000623922
0.000632196
0.000650467
0.000682515
0.000730452
0.000792046
0.000859703
0.000923633
0.00097513
0.00100966
0.00102789
0.00103462
0.0010361
0.00103722
0.00103825
0.00108213
0.00109523
0.00108608
0.00106993
0.00104041
0.000992006
0.000931046
0.00086645
0.000802391
0.000740448
0.000683565
0.00063702
0.000604314
0.000585503
0.000578211
0.000579352
0.000589051
0.00060899
0.000640357
0.000681697
0.000728417
0.000774098
0.000813077
0.000842533
0.000863198
0.000878214
0.000891147
0.000904291
0.000917155
0.000924553
0.000966258
0.000966973
0.000952567
0.000931931
0.000897147
0.000852498
0.0008059
0.000760641
0.000714615
0.000666413
0.000619065
0.00057788
0.000546589
0.000526254
0.000516787
0.000518154
0.000530833
0.000554305
0.000585976
0.000621161
0.00065453
0.000682187
0.000703212
0.000719789
0.000735738
0.00075433
0.000776736
0.000800507
0.000821088
0.000832893
0.000814421
0.00080458
0.0007967
0.000778778
0.000751862
0.000724638
0.000699612
0.000671796
0.000636663
0.000594523
0.000550477
0.00050934
0.000474475
0.000448527
0.000434195
0.0004336
0.00044724
0.000472304
0.000503376
0.000534103
0.000559682
0.000578661
0.000593253
0.000607912
0.000626864
0.000652022
0.000681759
0.000711495
0.000735183
0.000747467
0.000627091
0.000623409
0.000621203
0.000610728
0.00060109
0.000595918
0.000587863
0.000569098
0.000539163
0.00050291
0.00046504
0.000427665
0.000392275
0.000362151
0.000342145
0.000336302
0.000345571
0.000366647
0.000393478
0.000419851
0.000442073
0.000460035
0.000476688
0.000496101
0.000520839
0.000551379
0.000584497
0.000615092
0.000637476
0.000647306
0.000442745
0.000447075
0.00044169
0.000437752
0.000442896
0.000449808
0.000446669
0.000430785
0.000408369
0.000385782
0.000363959
0.000339787
0.000311592
0.000282301
0.000257983
0.00024442
0.000244182
0.000255314
0.000273142
0.000292972
0.000312149
0.000330864
0.000351112
0.000375065
0.000403524
0.00043528
0.000467033
0.000494479
0.00051315
0.000520066
0.000283973
0.000282775
0.000272519
0.000273859
0.000284259
0.000290311
0.000284446
0.000271817
0.000262118
0.000259326
0.000258781
0.000252405
0.000235938
0.00021168
0.000186312
0.00016669
0.000156638
0.000156301
0.000163171
0.000174506
0.000188719
0.000205645
0.00022585
0.000249617
0.000276287
0.000304023
0.000330112
0.000351801
0.000365966
0.000370752
0.000148829
0.000139606
0.000132018
0.000136824
0.000144284
0.000144448
0.000137125
0.000131032
0.000133837
0.00014526
0.000157728
0.000162489
0.000155509
0.00013874
0.00011788
9.88438e-05
8.53461e-05
7.86301e-05
7.8036e-05
8.23785e-05
9.07369e-05
0.00010264
0.0001177
0.000135287
0.000154303
0.000173134
0.000189715
0.000203588
0.000212718
0.00021604
4.52447e-05
3.89248e-05
3.68892e-05
3.95752e-05
4.12098e-05
3.90629e-05
3.53518e-05
3.46785e-05
3.94467e-05
4.8013e-05
5.61182e-05
5.97813e-05
5.75926e-05
5.07215e-05
4.17489e-05
3.31986e-05
2.66919e-05
2.28805e-05
2.16546e-05
2.26551e-05
2.55149e-05
2.99508e-05
3.56058e-05
4.20859e-05
4.8879e-05
5.53598e-05
6.06774e-05
6.53238e-05
6.84599e-05
6.97775e-05
4900.92
4900.92
4900.92
4900.92
4900.91
4900.91
4900.91
4900.91
4900.91
4900.91
4900.91
4900.91
4900.91
4900.91
4900.91
4900.91
4900.91
4900.91
4900.91
4900.91
4900.91
4900.91
4900.91
4900.91
4900.91
4900.91
4900.91
4900.92
4900.93
4900.94
4900.92
4900.92
4900.92
4900.92
4900.91
4900.91
4900.91
4900.91
4900.91
4900.91
4900.91
4900.9
4900.9
4900.91
4900.91
4900.91
4900.91
4900.91
4900.91
4900.91
4900.91
4900.9
4900.9
4900.9
4900.91
4900.91
4900.91
4900.92
4900.92
4900.91
4900.91
4900.91
4900.91
4900.91
4900.91
4900.91
4900.91
4900.91
4900.91
4900.91
4900.91
4900.91
4900.91
4900.91
4900.9
4900.9
4900.9
4900.9
4900.9
4900.9
4900.9
4900.9
4900.9
4900.9
4900.91
4900.91
4900.9
4900.9
4900.93
4900.91
4900.9
4900.9
4900.9
4900.9
4900.9
4900.91
4900.91
4900.91
4900.91
4900.92
4900.92
4900.91
4900.91
4900.91
4900.9
4900.9
4900.89
4900.89
4900.89
4900.89
4900.9
4900.9
4900.9
4900.91
4900.91
4900.91
4900.91
4900.89
4900.91
4900.89
4900.89
4900.88
4900.89
4900.89
4900.9
4900.9
4900.91
4900.91
4900.92
4900.92
4900.92
4900.92
4900.91
4900.91
4900.9
4900.89
4900.89
4900.88
4900.89
4900.89
4900.9
4900.9
4900.9
4900.9
4900.9
4900.9
4900.9
4900.88
4900.88
4900.87
4900.88
4900.87
4900.87
4900.88
4900.88
4900.89
4900.9
4900.91
4900.92
4900.92
4900.92
4900.92
4900.92
4900.91
4900.9
4900.89
4900.89
4900.88
4900.89
4900.89
4900.9
4900.9