/*--------------------------------*- C++ -*----------------------------------*\
| =========                 |                                                 |
| \\      /  F ield         | OpenFOAM: The Open Source CFD Toolbox           |
|  \\    /   O peration     | Version:  2312                                  |
|   \\  /    A nd           | Website:  www.openfoam.com                      |
|    \\/     M anipulation  |                                                 |
\*---------------------------------------------------------------------------*/
FoamFile
{
    version     2.0;
    format      ascii;
    arch        "LSB;label=32;scalar=64";
    class       surfaceScalarField;
    location    "0.862544";
    object      phi;
}
// * * * * * * * * * * * * * * * * * * * * * * * * * * * * * * * * * * * * * //

dimensions      [0 3 -1 0 0 0 0];

oriented        oriented;

internalField   nonuniform List<scalar> 
263100
(
-7.10432e-10
1.42086e-09
-7.10432e-10
-9.6509e-10
1.28402e-09
-8.98566e-10
-1.57164e-09
1.51742e-09
-8.01758e-10
-1.83643e-09
1.22346e-09
-8.44431e-10
-1.85059e-09
8.89125e-10
-7.48594e-10
-1.57692e-09
4.74774e-10
-6.08443e-10
-1.1108e-09
9.86619e-11
-4.12697e-10
-5.78825e-10
-1.49389e-10
-2.19301e-10
-1.54186e-10
-1.79749e-10
-6.77047e-11
8.2141e-11
-2.0435e-11
-1.87238e-11
1.46012e-10
2.65654e-10
-1.0629e-10
9.03836e-11
6.07922e-10
-3.01464e-10
5.57531e-11
8.6169e-10
-5.54937e-10
1.64112e-10
9.66937e-10
-7.96325e-10
5.20425e-10
8.89806e-10
-9.79939e-10
1.1277e-09
6.61409e-10
-1.03485e-09
1.89298e-09
3.3407e-10
-9.11256e-10
2.53335e-09
1.44089e-10
-6.44374e-10
2.77242e-09
1.38965e-10
-2.74917e-10
2.40641e-09
3.68189e-10
8.66654e-11
1.37911e-09
8.24351e-10
3.06368e-10
-2.88179e-10
1.40773e-09
4.04916e-10
-2.32739e-09
1.88688e-09
3.5847e-10
-4.36506e-09
2.10188e-09
2.09865e-10
-5.80318e-09
1.79074e-09
-1.30422e-11
-6.03272e-09
9.4853e-10
-3.19921e-10
-4.96567e-09
-9.69146e-11
-5.15503e-10
-2.59005e-09
-1.33459e-09
-5.32175e-10
1.05825e-09
-1.38728e-09
-1.70335e-09
4.3705e-09
-2.72577e-09
-2.47402e-10
2.0641e-09
-2.47402e-10
-6.8152e-10
2.11356e-09
-1.99961e-10
-8.31834e-10
2.04707e-09
-1.94837e-10
-9.52186e-10
1.68007e-09
-1.37221e-10
-9.60773e-10
1.16519e-09
-5.01162e-11
-8.97884e-10
6.24968e-10
2.03071e-11
-7.6943e-10
1.67894e-10
4.96986e-11
-5.8854e-10
-1.00735e-10
3.51569e-11
-3.58856e-10
-1.17531e-10
-8.69262e-13
-9.43084e-11
1.03939e-10
-6.16612e-11
2.22008e-10
4.39907e-10
-1.2364e-10
6.08678e-10
7.46076e-10
-1.26836e-10
1.00613e-09
9.54051e-10
-8.24006e-11
1.37935e-09
9.52386e-10
2.78983e-11
1.66444e-09
7.67207e-10
1.72737e-10
1.77015e-09
5.05028e-10
3.13446e-10
1.64947e-09
2.56118e-10
3.8505e-10
1.36222e-09
1.95376e-10
3.62645e-10
9.44399e-10
4.20187e-10
2.38048e-10
4.36029e-10
9.39704e-10
5.70421e-11
-1.31408e-10
1.63245e-09
-6.00437e-11
-6.81419e-10
2.35303e-09
-1.25362e-10
-1.10907e-09
2.80803e-09
-1.2324e-10
-1.28755e-09
2.74659e-09
7.6265e-13
-1.17788e-09
1.98054e-09
2.55451e-10
-8.99372e-10
6.42242e-10
6.65814e-10
-5.13591e-10
-1.14149e-09
1.38097e-09
2.21366e-10
-3.44086e-09
2.17515e-09
2.96042e-09
-5.96554e-09
2.70401e-09
4.9339e-09
3.06402e-09
2.45923e-11
2.10244e-09
2.45923e-11
2.42342e-11
2.15801e-09
5.08526e-11
1.10693e-10
1.94216e-09
1.02314e-10
1.1058e-10
1.60189e-09
1.63475e-10
-8.15893e-14
1.17025e-09
1.88318e-10
-1.97199e-10
7.15807e-10
1.8033e-10
-4.11181e-10
3.38862e-10
1.06072e-10
-5.3268e-10
1.02912e-10
-2.52488e-11
-4.65714e-10
2.8391e-11
-1.51894e-10
-1.35299e-10
8.22692e-11
-2.33643e-10
4.179e-10
2.089e-10
-2.29533e-10
1.09343e-09
2.9805e-10
-1.23947e-10
1.72985e-09
3.45001e-10
7.118e-11
2.10398e-09
3.44232e-10
3.07232e-10
2.07858e-09
3.17871e-10
5.04596e-10
1.62672e-09
3.48283e-10
5.85592e-10
8.56531e-10
4.48582e-10
5.04367e-10
-1.44224e-11
6.99288e-10
2.57704e-10
-7.06688e-10
1.04652e-09
-5.74247e-11
-1.02961e-09
1.47893e-09
-3.30956e-10
-8.15661e-10
1.93474e-09
-6.05869e-10
-8.00456e-11
2.26792e-09
-7.09238e-10
9.74043e-10
2.34291e-09
-6.19696e-10
2.17143e-09
1.93233e-09
-3.89921e-10
3.23281e-09
1.09924e-09
-1.58485e-10
3.94129e-09
-1.2236e-11
1.43321e-11
3.52196e-09
-1.00851e-09
4.2828e-10
2.18189e-09
-2.48548e-09
6.18455e-10
1.02847e-09
-6.77413e-09
2.27464e-09
4.14234e-09
2.02587e-09
2.18067e-10
1.69023e-09
2.18067e-10
6.06504e-10
1.47671e-09
3.48289e-10
9.21091e-10
1.30777e-09
3.66947e-10
1.02543e-09
1.12747e-09
4.0775e-10
8.79981e-10
9.40104e-10
3.9137e-10
5.3279e-10
7.40631e-10
3.06605e-10
1.13548e-10
5.37507e-10
1.71416e-10
-2.24481e-10
3.58915e-10
5.69747e-12
-3.33781e-10
1.98663e-10
-1.54017e-10
-1.53493e-10
2.79029e-11
-2.26866e-10
2.91479e-10
-1.34271e-10
-2.07802e-10
8.57933e-10
-2.73541e-10
-1.09788e-10
1.33832e-09
-3.19172e-10
5.22787e-11
1.53639e-09
-2.16738e-10
2.07953e-10
1.34085e-09
5.83668e-11
2.74468e-10
7.82615e-10
4.71391e-10
2.32725e-10
6.27646e-12
9.59207e-10
4.96406e-11
-7.49821e-10
1.40791e-09
-1.7366e-10
-1.17044e-09
1.70596e-09
-4.60399e-10
-1.03807e-09
1.79426e-09
-6.72312e-10
-2.37467e-10
1.69821e-09
-8.0171e-10
1.10029e-09
1.4788e-09
-8.12553e-10
2.72554e-09
1.10881e-09
-6.89777e-10
4.20641e-09
6.36499e-10
-5.12649e-10
5.12497e-09
1.63917e-10
-3.14434e-10
5.40515e-09
-3.2757e-10
-2.5903e-10
5.53015e-09
-4.80562e-10
-8.71061e-10
3.70476e-09
5.61768e-10
-1.34857e-09
-1.03466e-09
-1.40333e-09
-6.86109e-10
3.50788e-09
-4.75692e-10
3.65901e-10
9.72952e-10
3.65901e-10
1.11107e-09
3.11948e-10
5.50158e-10
1.61359e-09
3.57292e-10
5.71114e-10
1.83539e-09
4.21604e-10
5.90868e-10
1.7425e-09
5.55892e-10
5.49072e-10
1.40203e-09
6.74976e-10
4.32353e-10
9.14017e-10
7.22528e-10
2.82308e-10
4.21606e-10
6.60138e-10
1.29459e-10
5.63416e-11
4.71175e-10
-2.14548e-12
-1.25664e-10
1.64364e-10
-7.68957e-11
-1.56241e-10
-1.53654e-10
-9.76472e-11
-9.2521e-11
-4.34046e-10
-7.44903e-11
-4.49706e-11
-5.02789e-10
-5.41239e-11
-6.57836e-11
-3.06831e-10
-8.74611e-11
-2.13578e-10
1.9451e-10
-1.78853e-10
-4.254e-10
8.3334e-10
-3.16051e-10
-6.48876e-10
1.51237e-09
-4.60305e-10
-7.56923e-10
1.96193e-09
-5.42406e-10
-5.7424e-10
2.03585e-09
-5.90116e-10
1.48696e-11
1.72975e-09
-6.09735e-10
9.92811e-10
1.19476e-09
-5.96779e-10
2.27282e-09
5.73275e-10
-5.55464e-10
3.55998e-09
1.00318e-10
-5.2123e-10
4.53836e-09
-1.10855e-10
-5.14324e-10
4.86008e-09
9.78495e-11
-5.40382e-10
4.3391e-09
5.15016e-10
-5.67138e-10
3.28736e-09
1.14754e-09
-7.64216e-10
2.00664e-09
3.04696e-09
-1.35358e-09
-1.26296e-09
3.46967e-09
-1.75488e-09
4.4894e-09
-2.40926e-09
4.16423e-10
2.33518e-10
4.16423e-10
1.39669e-09
-1.03168e-09
6.23392e-10
2.02345e-09
-6.76899e-10
6.503e-10
2.39001e-09
-3.47213e-10
6.19666e-10
2.47937e-09
1.05649e-10
5.3592e-10
2.30676e-09
5.54658e-10
4.17921e-10
1.91813e-09
8.82285e-10
3.04018e-10
1.3727e-09
1.01458e-09
2.19852e-10
7.18505e-10
9.41727e-10
1.69195e-10
6.30605e-12
6.80407e-10
1.39882e-10
-6.96539e-10
3.42085e-10
1.11998e-10
-1.31494e-09
5.70794e-11
2.7091e-12
-1.76545e-09
-4.43973e-11
-1.42521e-10
-1.95301e-09
1.01316e-10
-3.36779e-10
-1.84012e-09
5.04824e-10
-4.89585e-10
-1.48785e-09
1.05423e-09
-5.65499e-10
-8.98655e-10
1.57051e-09
-5.58246e-10
-2.02811e-10
1.86497e-09
-4.42799e-10
5.73121e-10
1.72815e-09
-2.78637e-10
1.35022e-09
1.2558e-09
-1.22071e-10
2.10334e-09
6.22254e-10
-4.35725e-11
2.71912e-09
6.70739e-11
-3.15318e-11
3.12897e-09
-1.55405e-10
-1.2317e-10
3.2115e-09
1.62242e-10
-3.39388e-10
2.89834e-09
1.10838e-09
-6.63048e-10
1.935e-09
2.57994e-09
-1.04158e-09
4.23515e-10
4.17672e-09
-1.46474e-09
-2.99748e-10
6.02289e-09
-2.26788e-09
-1.75326e-09
7.44047e-09
-2.64287e-09
5.30531e-09
-2.74399e-09
2.68595e-10
-1.12523e-10
2.68595e-10
1.3204e-09
-2.252e-09
4.41086e-10
2.03505e-09
-1.55309e-09
3.99437e-10
2.60765e-09
-1.01015e-09
2.9114e-10
2.99031e-09
-3.18421e-10
2.00032e-10
3.13598e-09
3.88296e-10
1.37883e-10
2.98601e-09
1.00059e-09
1.09519e-10
2.47348e-09
1.42708e-09
1.37985e-10
1.60351e-09
1.60804e-09
1.98079e-10
4.2974e-10
1.58464e-09
2.17542e-10
-8.95246e-10
1.4144e-09
1.58883e-10
-2.13189e-09
1.16037e-09
1.56784e-11
-2.99287e-09
8.63113e-10
-1.55874e-10
-3.28003e-09
6.8774e-10
-3.59505e-10
-2.95762e-09
6.74052e-10
-4.65174e-10
-2.11256e-09
7.656e-10
-4.2213e-10
-9.61449e-10
8.86743e-10
-2.29825e-10
2.78989e-10
9.17053e-10
1.73603e-11
1.35797e-09
7.43744e-10
2.40596e-10
2.06385e-09
3.94018e-10
4.70625e-10
2.33037e-09
1.76035e-12
6.2239e-10
2.19741e-09
-1.811e-10
6.07472e-10
1.7414e-09
1.00451e-10
4.1367e-10
1.02655e-09
1.01972e-09
9.02715e-11
1.73849e-10
2.55208e-09
-3.33886e-10
-6.97591e-10
4.55742e-09
-8.67325e-10
-1.59277e-09
6.60943e-09
-1.39525e-09
-1.80316e-09
8.02696e-09
-1.81299e-09
-1.36725e-09
8.65158e-09
-1.82073e-09
5.18725e-09
-1.44657e-09
-7.61237e-11
2.18644e-10
-7.61237e-11
9.14904e-10
-3.1757e-09
-1.74908e-11
1.68575e-09
-2.1865e-09
-1.25375e-10
2.47852e-09
-1.54646e-09
-2.78612e-10
3.21205e-09
-7.51184e-10
-3.43772e-10
3.74381e-09
1.27236e-10
-3.2434e-10
3.89903e-09
1.00669e-09
-2.2422e-10
3.5262e-09
1.80203e-09
-8.24147e-11
2.59695e-09
2.38506e-09
4.20402e-11
1.18924e-09
2.70808e-09
1.36285e-10
-4.56733e-10
2.73552e-09
1.44937e-10
-1.98637e-09
2.43336e-09
6.87918e-11
-3.06363e-09
1.83002e-09
-4.66359e-11
-3.49623e-09
1.11084e-09
-7.43601e-11
-3.19895e-09
4.35566e-10
-3.89776e-11
-2.29481e-09
-7.8094e-11
6.86317e-11
-1.06022e-09
-4.18425e-10
2.84828e-10
1.49842e-10
-6.18274e-10
5.77953e-10
1.03292e-09
-7.74885e-10
8.7503e-10
1.438e-09
-9.02194e-10
1.08248e-09
1.34056e-09
-8.8805e-10
1.12771e-09
8.31622e-10
-5.6864e-10
1.01451e-09
4.12497e-11
2.17918e-10
8.07278e-10
-8.63464e-10
1.54486e-09
5.45808e-10
-1.72162e-09
3.32387e-09
2.50863e-10
-2.29226e-09
5.22312e-09
-8.75932e-12
-2.37311e-09
6.83067e-09
-2.03934e-10
-1.80122e-09
7.45164e-09
-2.13433e-10
-4.69074e-10
7.04756e-09
-1.22069e-11
3.9877e-09
5.31843e-10
-6.59354e-10
1.536e-09
-6.59354e-10
3.50143e-10
-3.8183e-09
-6.8428e-10
1.18449e-09
-2.55569e-09
-7.85069e-10
2.16776e-09
-2.00858e-09
-8.3716e-10
3.12991e-09
-1.20964e-09
-7.88941e-10
3.90517e-09
-2.49469e-10
-6.4144e-10
4.2949e-09
8.26345e-10
-4.17333e-10
4.12737e-09
1.9732e-09
-1.9773e-10
3.3722e-09
2.97023e-09
-3.3639e-11
2.11648e-09
3.62518e-09
1.12477e-10
6.15962e-10
3.77964e-09
2.14079e-10
-8.04349e-10
3.33242e-09
2.88721e-10
-1.88531e-09
2.35856e-09
3.6614e-10
-2.47636e-09
1.10413e-09
4.89256e-10
-2.56288e-09
-1.37119e-10
6.39546e-10
-2.22903e-09
-1.17266e-09
8.12058e-10
-1.67942e-09
-1.90013e-09
1.01128e-09
-1.11918e-09
-2.29469e-09
1.17047e-09
-7.13382e-10
-2.42022e-09
1.22924e-09
-5.36239e-10
-2.32131e-09
1.15933e-09
-6.02782e-10
-1.96517e-09
1.01663e-09
-9.17289e-10
-1.25175e-09
8.72069e-10
-1.35933e-09
-1.58632e-10
7.24163e-10
-1.82471e-09
1.28273e-09
6.47141e-10
-2.17462e-09
2.94142e-09
6.02596e-10
-2.19832e-09
4.35545e-09
6.4639e-10
-1.66173e-09
5.1731e-09
7.57784e-10
-6.30763e-10
5.0023e-09
1.02454e-09
4.53054e-10
4.2403e-09
1.41672e-09
2.60907e-09
1.68384e-09
-9.15157e-10
3.11599e-09
-9.15157e-10
-4.47378e-11
-4.35079e-09
-9.01487e-10
7.36534e-10
-2.95269e-09
-8.8363e-10
1.65896e-09
-2.55284e-09
-8.09083e-10
2.57294e-09
-1.83652e-09
-6.27366e-10
3.31256e-09
-8.37152e-10
-4.04126e-10
3.70325e-09
4.12881e-10
-1.66492e-10
3.74967e-09
1.75491e-09
9.83854e-12
3.37948e-09
3.03282e-09
1.42184e-10
2.70183e-09
3.85165e-09
2.69544e-10
1.83823e-09
4.0326e-09
4.21919e-10
9.16384e-10
3.4594e-09
6.23881e-10
1.75744e-11
2.27379e-09
8.56366e-10
-8.11918e-10
7.684e-10
1.09279e-09
-1.61366e-09
-6.60786e-10
1.2932e-09
-2.32219e-09
-1.89282e-09
1.3977e-09
-2.89489e-09
-2.75786e-09
1.35117e-09
-3.22066e-09
-3.26087e-09
1.12655e-09
-3.28549e-09
-3.42285e-09
8.09874e-10
-3.14013e-09
-3.29445e-09
5.10159e-10
-2.83492e-09
-2.87474e-09
2.81212e-10
-2.45757e-09
-2.09417e-09
1.78782e-10
-2.10785e-09
-9.57591e-10
1.9597e-10
-1.8021e-09
4.03981e-10
2.97434e-10
-1.42915e-09
1.7055e-09
4.98922e-10
-8.56834e-10
2.61032e-09
7.10791e-10
-2.83999e-11
2.8428e-09
1.02477e-09
6.92864e-10
2.5433e-09
1.3685e-09
8.47922e-10
2.37358e-09
1.49349e-09
2.22454e-09
1.10374e-09
-4.23929e-10
3.58734e-09
-4.23929e-10
-3.21604e-12
-4.92967e-09
-3.20026e-10
3.49773e-10
-3.50531e-09
-1.64431e-10
7.53119e-10
-3.19534e-09
-1.50165e-11
1.12624e-09
-2.56629e-09
2.09178e-10
1.41885e-09
-1.5659e-09
3.6825e-10
1.63834e-09
-2.59251e-10
4.23385e-10
1.8252e-09
1.15275e-09
3.85936e-10
2.08519e-09
2.38951e-09
3.31555e-10
2.32087e-09
3.18992e-09
3.52185e-10
2.42924e-09
3.36879e-09
4.77358e-10
2.25672e-09
2.88183e-09
6.89496e-10
1.63839e-09
1.91726e-09
9.40631e-10
5.22439e-10
7.44127e-10
1.11746e-09
-9.95717e-10
-3.2501e-10
1.13299e-09
-2.67395e-09
-1.29671e-09
9.58865e-10
-4.17742e-09
-2.06553e-09
5.80317e-10
-5.17438e-09
-2.66749e-09
6.63206e-11
-5.53238e-09
-3.17589e-09
-2.89556e-10
-5.19975e-09
-3.41829e-09
-6.03552e-10
-4.33967e-09
-3.32085e-09
-7.44708e-10
-3.22891e-09
-2.80819e-09
-6.55499e-10
-2.14454e-09
-1.87544e-09
-4.07255e-10
-1.18172e-09
-7.46236e-10
-1.14041e-10
-2.73555e-10
2.82135e-10
1.20836e-10
5.54421e-10
9.55363e-10
4.01463e-10
1.11337e-09
1.32136e-09
6.22207e-10
1.12232e-09
1.64962e-09
6.82827e-10
5.94092e-10
2.36047e-09
3.91735e-10
2.4214e-09
2.1064e-10
8.20212e-10
1.67618e-09
8.20212e-10
1.51777e-10
-5.29359e-09
9.19973e-10
-3.97398e-10
-4.16197e-09
1.18822e-09
-9.76464e-10
-3.76636e-09
1.21072e-09
-1.51424e-09
-3.14306e-09
1.21949e-09
-1.87239e-09
-2.14711e-09
1.04612e-09
-1.86463e-09
-9.36029e-10
7.41895e-10
-1.38685e-09
3.22087e-10
3.76156e-10
-4.10921e-10
1.32348e-09
7.25821e-11
8.50693e-10
1.98274e-09
-8.60575e-11
2.00877e-09
2.24922e-09
-5.57574e-11
2.59994e-09
2.224e-09
7.59547e-11
2.34006e-09
2.03337e-09
1.63836e-10
1.1798e-09
1.7713e-09
1.21865e-10
-6.14901e-10
1.42274e-09
-4.75796e-11
-2.76167e-09
9.82346e-10
-3.46193e-10
-4.68824e-09
2.70439e-10
-7.38592e-10
-5.86455e-09
-7.07198e-10
-1.17527e-09
-6.14884e-09
-1.76801e-09
-1.4912e-09
-5.54398e-09
-2.73064e-09
-1.55895e-09
-4.35134e-09
-3.274e-09
-1.38215e-09
-2.93639e-09
-3.24919e-09
-1.04545e-09
-1.56919e-09
-2.70222e-09
-6.36797e-10
-3.81718e-10
-1.86402e-09
-2.55173e-10
6.22729e-10
-9.83208e-10
1.62136e-11
1.3326e-09
-1.91492e-10
2.36585e-10
1.53119e-09
6.94884e-10
3.37594e-10
1.18346e-09
1.70259e-09
2.48861e-10
6.90047e-10
2.5821e-09
1.41185e-10
2.48369e-09
4.63968e-10
2.21859e-09
-2.77524e-09
2.21859e-09
2.14213e-11
-4.84362e-09
2.01109e-09
-1.73796e-09
-4.08774e-09
1.95605e-09
-3.39294e-09
-3.53878e-09
1.67989e-09
-4.82065e-09
-2.81106e-09
1.28353e-09
-5.7377e-09
-1.8798e-09
7.43074e-10
-5.81019e-09
-1.00186e-09
1.36961e-10
-4.92271e-09
-2.72449e-10
-3.57954e-10
-3.20092e-09
2.75515e-10
-7.51679e-10
-1.01243e-09
6.66929e-10
-9.13866e-10
9.75594e-10
1.18917e-09
-9.06852e-10
2.19658e-09
1.93447e-09
-8.60159e-10
2.32907e-09
2.85017e-09
-8.7534e-10
1.41572e-09
3.73396e-09
-1.03604e-09
-2.30252e-10
4.28168e-09
-1.30872e-09
-2.08551e-09
4.2231e-09
-1.59425e-09
-3.66982e-09
3.40841e-09
-1.82212e-09
-4.53795e-09
1.86351e-09
-1.93552e-09
-4.54857e-09
-7.65518e-12
-1.85367e-09
-3.91448e-09
-1.72883e-09
-1.57302e-09
-2.9601e-09
-2.90112e-09
-1.14612e-09
-1.87826e-09
-3.43515e-09
-7.07504e-10
-8.58283e-10
-3.29311e-09
-3.30274e-10
8.4265e-11
-2.73976e-09
-6.22968e-11
9.04662e-10
-1.96265e-09
1.58809e-10
1.44737e-09
-9.59851e-10
3.05704e-10
1.59739e-09
2.8165e-10
3.93801e-10
1.40479e-09
1.44369e-09
5.17735e-10
1.13073e-09
2.02291e-09
8.16533e-10
2.40179e-09
1.28518e-09
2.66074e-09
-7.89444e-09
2.66074e-09
-9.49064e-10
-2.50864e-09
1.69368e-09
-3.65399e-09
-2.39226e-09
1.34378e-09
-5.94595e-09
-1.79071e-09
7.68907e-10
-7.69559e-09
-1.10019e-09
1.24857e-10
-8.61158e-09
-5.77349e-10
-4.3066e-10
-8.44677e-09
-3.80657e-10
-9.1147e-10
-7.05625e-09
-5.41522e-10
-1.25368e-09
-4.75464e-09
-7.33782e-10
-1.35826e-09
-2.14512e-09
-5.71638e-10
-1.32737e-09
1.07798e-10
2.98439e-10
-1.21349e-09
1.59882e-09
1.80217e-09
-1.15573e-09
2.0526e-09
3.81253e-09
-1.23407e-09
1.65017e-09
5.63036e-09
-1.39717e-09
7.17517e-10
6.74265e-09
-1.53543e-09
-3.08894e-10
6.83341e-09
-1.65017e-09
-1.1088e-09
5.79856e-09
-1.61983e-09
-1.51859e-09
3.7786e-09
-1.39533e-09
-1.59731e-09
1.39732e-09
-1.0259e-09
-1.47292e-09
-7.73895e-10
-6.30025e-10
-1.25681e-09
-2.36448e-09
-2.74185e-10
-1.07417e-09
-3.21502e-09
-1.81817e-11
-7.62935e-10
-3.44036e-09
8.95645e-11
-2.34561e-10
-3.13166e-09
6.03949e-11
4.2152e-10
-2.43334e-09
5.77457e-11
9.77951e-10
-1.36819e-09
1.50012e-10
1.31328e-09
-1.53487e-10
3.56147e-10
1.436e-09
7.57528e-10
7.31845e-10
1.12368e-09
1.3889e-09
1.14623e-09
2.89518e-09
9.11864e-10
1.41712e-09
-1.04652e-08
1.41712e-09
-2.49366e-09
1.56433e-09
1.8048e-10
-5.19628e-09
8.3572e-10
-2.96321e-10
-7.2708e-09
1.09393e-09
-7.11022e-10
-8.65812e-09
1.33777e-09
-1.07786e-09
-9.06166e-09
1.01494e-09
-1.29424e-09
-8.31745e-09
1.17438e-10
-1.34692e-09
-6.52229e-09
-1.10064e-09
-1.25848e-09
-4.25343e-09
-1.90042e-09
-9.91411e-10
-1.98825e-09
-1.84559e-09
-7.48083e-10
-1.63539e-10
-6.23158e-10
-5.81116e-10
1.02743e-09
1.50346e-09
-5.75086e-10
1.66693e-09
4.10326e-09
-6.94018e-10
1.90372e-09
6.37242e-09
-8.5405e-10
1.91663e-09
7.66998e-09
-8.90339e-10
1.87324e-09
7.71001e-09
-7.64014e-10
1.8092e-09
6.53138e-09
-4.70926e-10
1.6144e-09
4.41724e-09
-5.37696e-11
1.18352e-09
2.01392e-09
3.67401e-10
4.74264e-10
-1.0182e-10
6.35865e-10
-3.93282e-10
-1.65869e-09
6.69441e-10
-1.12794e-09
-2.58051e-09
4.57825e-10
-1.4156e-09
-2.98519e-09
1.03141e-10
-1.16493e-09
-2.88761e-09
-1.92449e-10
-5.84949e-10
-2.34843e-09
-2.89614e-10
2.44008e-12
-1.39001e-09
-2.05738e-10
3.69698e-10
-2.61926e-10
-9.01551e-12
3.58047e-10
7.94798e-10
1.67317e-10
-1.83482e-10
2.20592e-09
-4.12958e-11
3.51012e-09
-7.09642e-10
-5.45899e-10
-9.16859e-09
-5.45899e-10
-3.44209e-09
6.08161e-09
-1.4642e-09
-5.2808e-09
4.285e-09
-1.53275e-09
-6.45208e-09
3.94104e-09
-1.68311e-09
-6.85798e-09
3.24668e-09
-1.56192e-09
-6.38969e-09
1.80238e-09
-1.30107e-09
-5.21171e-09
-1.26985e-10
-8.95023e-10
-3.71506e-09
-2.01521e-09
-4.16554e-10
-2.22032e-09
-3.10679e-09
-2.95731e-12
-1.03632e-09
-2.93671e-09
2.53295e-10
-2.20516e-10
-1.41761e-09
2.96276e-10
3.96506e-10
1.00044e-09
9.33003e-11
1.06952e-09
3.62343e-09
-1.3189e-10
1.8849e-09
5.78681e-09
-2.81967e-10
2.7324e-09
6.95735e-09
-2.07274e-10
3.44423e-09
6.97309e-09
4.67582e-11
3.79028e-09
5.9267e-09
4.49905e-10
3.48531e-09
4.2497e-09
8.20501e-10
2.47752e-09
2.40607e-09
1.01589e-09
1.008e-09
7.29426e-10
9.56556e-10
-5.08502e-10
-6.19931e-10
6.48343e-10
-1.60569e-09
-1.64036e-09
2.42114e-10
-2.05398e-09
-2.32804e-09
-6.91727e-11
-1.94777e-09
-2.55722e-09
-1.6352e-10
-1.6353e-09
-2.22163e-09
-1.08614e-10
-1.40116e-09
-1.3388e-09
-4.52015e-11
-1.38297e-09
-9.1153e-11
-7.98821e-11
-1.65035e-09
1.4694e-09
-3.63041e-10
-1.75648e-09
3.13102e-09
-9.03264e-10
2.31431e-09
-9.20404e-10
-1.96569e-09
-5.13597e-09
-1.96569e-09
-3.10205e-09
9.34062e-09
-2.2144e-09
-3.64106e-09
6.65865e-09
-1.95504e-09
-3.55863e-09
5.47995e-09
-1.76483e-09
-2.89281e-09
3.769e-09
-1.30135e-09
-1.87968e-09
1.47218e-09
-7.07674e-10
-8.09288e-10
-9.99457e-10
-1.02244e-10
-9.56861e-11
-2.91523e-09
3.86542e-10
1.24862e-10
-3.74196e-09
6.53978e-10
-7.5631e-11
-3.18231e-09
6.31928e-10
-3.12092e-10
-1.47281e-09
3.40322e-10
-1.40545e-10
7.93689e-10
-9.13869e-11
5.46167e-10
2.97184e-09
-3.08952e-10
1.68142e-09
4.63686e-09
-3.19131e-10
2.94588e-09
5.55102e-09
-1.41672e-10
3.90247e-09
5.68326e-09
1.78503e-10
4.18248e-09
5.13872e-09
4.80895e-10
3.58982e-09
4.17518e-09
6.79035e-10
2.3082e-09
2.94417e-09
6.71017e-10
7.27547e-10
1.60116e-09
4.89011e-10
-7.02103e-10
2.72018e-10
2.36916e-10
-1.64741e-09
-1.05712e-09
1.44229e-10
-2.07918e-09
-2.14703e-09
2.39506e-10
-2.28639e-09
-2.65748e-09
4.59678e-10
-2.57217e-09
-2.40278e-09
6.08164e-10
-2.9495e-09
-1.53923e-09
5.87775e-10
-3.23837e-09
-2.57243e-10
3.58314e-10
-3.19675e-09
1.21682e-09
6.79888e-12
-2.17296e-09
1.68656e-09
-1.81905e-11
-8.30288e-10
5.13336e-10
-2.13809e-09
-9.15521e-10
-2.13809e-09
-1.64358e-09
1.01462e-08
-1.73605e-09
-8.837e-10
6.97384e-09
-1.49234e-09
9.76693e-11
5.33367e-09
-1.21225e-09
1.26069e-09
3.08481e-09
-7.51511e-10
2.348e-09
5.15026e-10
-2.62056e-10
2.94639e-09
-1.68403e-09
8.08251e-11
2.74559e-09
-2.97354e-09
3.15857e-10
1.86839e-09
-3.12232e-09
2.84456e-10
7.67495e-10
-2.22352e-09
5.56668e-11
-1.47528e-11
-7.57226e-10
-1.74409e-10
-7.83347e-11
8.08788e-10
-3.28979e-10
5.29984e-10
2.24327e-09
-3.23108e-10
1.58631e-09
3.32315e-09
-1.60953e-10
2.66649e-09
4.04644e-09
9.60139e-11
3.33599e-09
4.40546e-09
3.67385e-10
3.33409e-09
4.36181e-09
5.46303e-10
2.6427e-09
3.95238e-09
5.77654e-10
1.50759e-09
3.11339e-09
4.64821e-10
2.88139e-10
1.83606e-09
3.82871e-10
-7.23099e-10
3.69897e-10
3.84624e-10
-1.42205e-09
-1.19626e-09
5.40396e-10
-2.06058e-09
-2.36078e-09
7.8294e-10
-2.83859e-09
-2.79865e-09
9.06092e-10
-3.65606e-09
-2.51252e-09
8.0211e-10
-4.17439e-09
-1.83284e-09
5.7052e-10
-4.10263e-09
-1.03182e-09
4.16479e-10
-3.20864e-09
-6.02154e-10
5.59125e-10
-1.36178e-09
-1.56284e-09
9.87702e-10
-3.46134e-09
1.20496e-09
-1.47322e-09
1.73287e-09
-1.47322e-09
2.13707e-10
8.63274e-09
-9.54201e-10
1.53192e-09
5.87515e-09
-9.08435e-10
2.95122e-09
4.00874e-09
-6.59755e-10
4.32947e-09
1.68225e-09
-3.62999e-10
5.25457e-09
-4.80195e-10
-1.39293e-10
5.37334e-09
-1.96813e-09
7.80569e-11
4.65675e-09
-2.4976e-09
1.88744e-10
3.38528e-09
-2.13948e-09
1.90733e-10
2.02758e-09
-1.22924e-09
1.75302e-10
1.08662e-09
-2.80951e-10
1.93016e-10
7.70979e-10
5.04142e-10
3.13812e-10
9.64787e-10
1.23042e-09
5.40742e-10
1.39382e-09
1.85677e-09
8.277e-10
1.75639e-09
2.47959e-09
1.0499e-09
1.85632e-09
3.00975e-09
1.12231e-09
1.60076e-09
3.2935e-09
1.0291e-09
1.05928e-09
3.14282e-09
8.75241e-10
3.28221e-10
2.46124e-09
7.76829e-10
-4.74812e-10
1.32118e-09
7.41235e-10
-1.22681e-09
-9.08228e-11
8.31855e-10
-2.11801e-09
-1.34016e-09
8.75057e-10
-3.25959e-09
-2.05935e-09
7.41044e-10
-4.41208e-09
-2.17355e-09
2.90762e-10
-5.06027e-09
-2.10494e-09
-1.67123e-10
-4.90593e-09
-2.13666e-09
-3.0108e-10
-3.89475e-09
-2.28659e-09
-1.71735e-10
-2.22273e-09
-2.74537e-09
1.05177e-10
-8.65639e-10
-3.33645e-09
3.0399e-10
-3.9042e-09
-2.07799e-10
-6.14981e-10
2.4389e-09
-6.14981e-10
1.53559e-09
5.95497e-09
-3.22161e-10
3.28476e-09
3.77639e-09
-3.13688e-10
5.06241e-09
1.91218e-09
-1.438e-10
6.54915e-09
-1.6937e-10
1.10798e-10
7.38652e-09
-1.83434e-09
4.22332e-10
7.35495e-09
-2.6486e-09
6.95372e-10
6.52481e-09
-2.59117e-09
9.07319e-10
5.23237e-09
-1.95718e-09
1.05113e-09
3.89148e-09
-1.21517e-09
1.22709e-09
2.75497e-09
-7.19646e-10
1.47004e-09
1.84963e-09
-4.2203e-10
1.76404e-09
1.10079e-09
-2.8716e-11
2.00067e-09
5.0236e-10
5.20377e-10
1.96851e-09
-3.89177e-12
1.25981e-09
1.73623e-09
-3.6315e-10
1.85332e-09
1.41619e-09
-6.26382e-10
2.20696e-09
1.08466e-09
-9.22575e-10
2.16948e-09
8.69753e-10
-1.33032e-09
1.70012e-09
7.62551e-10
-1.94051e-09
9.08077e-10
7.58796e-10
-2.88805e-09
6.94536e-11
7.00734e-10
-4.16249e-09
-5.18309e-10
4.01495e-10
-5.42366e-09
-9.26328e-10
-1.00587e-10
-6.15798e-09
-1.51396e-09
-4.01479e-10
-5.89783e-09
-2.46134e-09
-4.8206e-10
-4.76155e-09
-3.40741e-09
-3.75541e-10
-3.18234e-09
-4.08697e-09
-1.90775e-10
-1.73515e-09
-4.33877e-09
-1.04938e-10
-1.05831e-09
-3.65893e-09
-3.05567e-10
-4.63382e-09
-3.29553e-10
-1.04005e-11
1.93612e-09
-1.04005e-11
2.70362e-09
2.44169e-09
3.19487e-10
4.86056e-09
8.42142e-10
5.10403e-10
6.84199e-09
-9.99828e-10
8.47406e-10
8.3203e-09
-2.82474e-09
1.22315e-09
9.02365e-09
-3.99735e-09
1.55475e-09
8.86715e-09
-4.20526e-09
1.78643e-09
8.02148e-09
-3.74631e-09
2.01789e-09
6.76573e-09
-2.91725e-09
2.18484e-09
5.31539e-09
-2.16393e-09
2.35632e-09
3.73471e-09
-1.64744e-09
2.49384e-09
2.03687e-09
-1.11053e-09
2.42143e-09
3.64065e-10
-4.06459e-10
2.12577e-09
-1.02888e-09
3.66233e-10
1.62062e-09
-1.93311e-09
1.12081e-09
1.05467e-09
-2.33254e-09
1.49895e-09
6.56339e-10
-2.47609e-09
1.67563e-09
4.77371e-10
-2.67029e-09
1.7667e-09
3.82593e-10
-3.14072e-09
1.66654e-09
3.85255e-10
-4.01701e-09
1.52476e-09
2.74313e-10
-5.18801e-09
1.27478e-09
1.08935e-12
-6.3754e-09
7.78803e-10
-2.52789e-10
-7.01855e-09
-3.13968e-10
-3.83676e-10
-6.69404e-09
-2.07446e-09
-3.17318e-10
-5.55083e-09
-4.06563e-09
-1.10425e-11
-4.15627e-09
-5.54855e-09
4.29437e-10
-2.93793e-09
-6.17688e-09
6.67954e-10
-1.96731e-09
-5.9133e-09
5.49645e-10
-1.03544e-09
-4.92047e-09
3.25819e-10
-6.45357e-09
5.0594e-10
9.44861e-10
-1.84737e-10
9.44861e-10
4.01626e-09
-1.97257e-09
1.43249e-09
6.44805e-09
-3.14318e-09
1.74553e-09
8.39248e-09
-4.80733e-09
2.10138e-09
9.56372e-09
-6.2098e-09
2.42305e-09
9.84103e-09
-6.75595e-09
2.60454e-09
9.39796e-09
-6.36534e-09
2.6224e-09
8.45614e-09
-5.362e-09
2.49352e-09
7.17928e-09
-4.09633e-09
2.35133e-09
5.55329e-09
-2.84224e-09
2.20212e-09
3.55611e-09
-1.66724e-09
1.94588e-09
1.33994e-09
-4.63297e-10
1.53827e-09
-7.1678e-10
6.45411e-10
1.00488e-09
-2.18442e-09
1.23519e-09
6.02919e-10
-2.92158e-09
1.38058e-09
4.52961e-10
-3.21088e-09
1.30858e-09
4.11729e-10
-3.45512e-09
1.3198e-09
5.16706e-10
-4.01171e-09
1.70733e-09
5.78751e-10
-4.99787e-09
2.2124e-09
4.8106e-10
-6.17531e-09
2.5503e-09
2.01791e-10
-7.23589e-09
2.33002e-09
-8.67409e-11
-7.72754e-09
1.13754e-09
-1.9139e-10
-7.32615e-09
-1.09926e-09
-6.5779e-11
-6.19891e-09
-4.00057e-09
4.56878e-10
-5.06926e-09
-6.39302e-09
1.07352e-09
-4.2966e-09
-7.63663e-09
1.32997e-09
-3.52043e-09
-8.07121e-09
1.22272e-09
-2.50808e-09
-7.86379e-09
1.10513e-09
-1.09034e-09
-7.47419e-09
1.11233e-09
-8.68635e-09
9.55143e-10
2.06971e-09
-4.1919e-09
2.06971e-09
5.29266e-09
-7.34365e-09
2.5624e-09
7.73179e-09
-8.12016e-09
2.88541e-09
9.31452e-09
-9.28234e-09
3.14568e-09
9.92142e-09
-9.8419e-09
3.15405e-09
9.70024e-09
-9.44278e-09
2.91579e-09
8.99312e-09
-8.23937e-09
2.49806e-09
8.04041e-09
-6.66208e-09
2.11803e-09
6.79563e-09
-4.86227e-09
1.8577e-09
5.13793e-09
-2.97379e-09
1.64243e-09
3.07558e-09
-1.102e-09
1.37803e-09
9.32191e-10
4.93637e-10
1.11662e-09
-8.00068e-10
1.43196e-09
9.37507e-10
-1.87596e-09
1.46422e-09
8.89868e-10
-2.52084e-09
1.05562e-09
1.03245e-09
-3.09725e-09
6.68396e-10
1.27072e-09
-4.01744e-09
7.51797e-10
1.53318e-09
-5.36516e-09
1.58468e-09
1.51857e-09
-6.82106e-09
2.56462e-09
1.13036e-09
-7.94076e-09
2.86753e-09
7.27157e-10
-8.46667e-09
2.01641e-09
6.01098e-10
-8.11929e-09
-3.05647e-10
7.65757e-10
-7.15935e-09
-3.53794e-09
1.25258e-09
-6.39328e-09
-6.53405e-09
1.77926e-09
-6.13416e-09
-8.427e-09
1.94165e-09
-5.81452e-09
-9.33208e-09
1.56603e-09
-4.95379e-09
-9.91054e-09
1.23786e-09
-3.42854e-09
-1.03525e-08
1.22069e-09
-1.64747e-09
-1.04549e-08
1.22169e-09
-1.16692e-08
1.40781e-09
3.05299e-09
-1.00198e-08
3.05299e-09
6.19454e-09
-1.36332e-08
3.4869e-09
8.41004e-09
-1.38264e-08
3.69651e-09
9.55058e-09
-1.39447e-08
3.62337e-09
9.71294e-09
-1.32771e-08
3.29393e-09
9.28616e-09
-1.18563e-08
2.81031e-09
8.6513e-09
-1.00768e-08
2.41083e-09
7.804e-09
-8.05464e-09
2.15146e-09
6.65089e-09
-5.83183e-09
2.0086e-09
5.07849e-09
-3.40717e-09
1.88368e-09
3.25145e-09
-1.0708e-09
1.70856e-09
1.54586e-09
6.24418e-10
1.57343e-09
2.77157e-10
1.20191e-09
1.60697e-09
-6.19373e-10
7.40617e-10
1.80986e-09
-1.48172e-09
-5.79247e-11
2.18181e-09
-2.87148e-09
-2.42506e-10
2.46594e-09
-4.74818e-09
4.21336e-10
2.31459e-09
-6.65402e-09
1.6757e-09
1.86856e-09
-8.0227e-09
2.45068e-09
1.46885e-09
-8.68514e-09
1.94789e-09
1.4788e-09
-8.50645e-09
-1.14297e-10
1.79833e-09
-7.95971e-09
-3.31779e-09
2.38503e-09
-7.73502e-09
-6.62694e-09
2.95319e-09
-8.10064e-09
-8.98793e-09
3.02849e-09
-8.36172e-09
-1.05688e-08
2.58713e-09
-7.89804e-09
-1.18368e-08
2.16727e-09
-6.59713e-09
-1.29718e-08
1.94847e-09
-4.52103e-09
-1.41984e-08
1.9119e-09
-1.57547e-09
-1.55638e-08
2.17862e-09
-1.65311e-08
3.53478e-09
3.82758e-09
-1.74987e-08
3.82758e-09
6.65772e-09
-2.04668e-08
4.13391e-09
8.63895e-09
-1.98328e-08
4.09494e-09
9.55674e-09
-1.86015e-08
3.79294e-09
9.6617e-09
-1.67181e-08
3.39189e-09
9.37664e-09
-1.45218e-08
3.00004e-09
8.87959e-09
-1.22804e-08
2.71429e-09
8.12802e-09
-9.89627e-09
2.5434e-09
6.98094e-09
-7.18072e-09
2.38706e-09
5.50706e-09
-4.21013e-09
2.15912e-09
4.02584e-09
-1.53425e-09
1.89529e-09
2.80941e-09
9.42855e-11
1.82153e-09
1.89112e-09
3.48699e-10
1.96224e-09
8.28188e-10
-1.84714e-10
2.22214e-09
-8.61226e-10
-5.80302e-10
2.40458e-09
-3.15038e-09
-9.51281e-11
2.25844e-09
-5.50187e-09
1.02926e-09
1.80907e-09
-7.17349e-09
1.81269e-09
1.58708e-09
-7.97912e-09
1.53298e-09
1.77192e-09
-8.00822e-09
-2.76777e-10
2.29959e-09
-7.88266e-09
-3.24482e-09
3.08978e-09
-8.23935e-09
-6.52767e-09
3.74543e-09
-9.2646e-09
-9.24518e-09
3.86911e-09
-1.0335e-08
-1.11723e-08
3.41889e-09
-1.03961e-08
-1.35372e-08
3.13335e-09
-9.3738e-09
-1.60305e-08
3.27489e-09
-7.71517e-09
-1.77289e-08
3.20516e-09
-5.01402e-09
-2.00355e-08
3.13923e-09
-9.63112e-10
-2.34576e-08
3.93763e-09
-2.23222e-08
5.19205e-09
4.41337e-09
-2.62808e-08
4.41337e-09
6.85379e-09
-2.72528e-08
4.42439e-09
8.68316e-09
-2.5694e-08
4.13119e-09
9.74162e-09
-2.3279e-08
3.7456e-09
1.02141e-08
-2.04004e-08
3.33308e-09
1.03024e-08
-1.75363e-08
2.99735e-09
1.00053e-08
-1.47734e-08
2.76888e-09
9.21325e-09
-1.17709e-08
2.55043e-09
7.98081e-09
-8.35204e-09
2.24029e-09
6.60352e-09
-4.847e-09
1.88203e-09
5.42332e-09
-2.15997e-09
1.76717e-09
4.53718e-09
-8.46892e-10
1.88135e-09
3.52849e-09
-7.06747e-10
2.14338e-09
1.83905e-09
-8.90404e-10
2.41751e-09
-6.84138e-10
-5.47868e-10
2.43196e-09
-3.39032e-09
3.28906e-10
2.20058e-09
-5.52146e-09
1.06118e-09
2.08293e-09
-6.69744e-09
8.19288e-10
2.25548e-09
-7.13944e-09
-6.81839e-10
2.81086e-09
-7.46075e-09
-3.35465e-09
3.56849e-09
-8.43039e-09
-6.14481e-09
4.03814e-09
-1.00243e-08
-8.70383e-09
3.95381e-09
-1.15944e-08
-1.11115e-08
3.59226e-09
-1.23399e-08
-1.35785e-08
3.2576e-09
-1.17569e-08
-1.71397e-08
3.2363e-09
-1.01956e-08
-2.09429e-08
3.65478e-09
-8.0985e-09
-2.36363e-08
3.9651e-09
-5.01562e-09
-2.72551e-08
4.19667e-09
-1.52444e-09
-3.11176e-08
4.53106e-09
-2.66388e-08
3.09993e-09
4.43794e-09
-3.51172e-08
4.43794e-09
6.88981e-09
-3.36927e-08
4.15134e-09
8.9995e-09
-3.13447e-08
3.71517e-09
1.06156e-08
-2.80195e-08
3.27994e-09
1.17624e-08
-2.44205e-08
2.96341e-09
1.23608e-08
-2.09386e-08
2.79838e-09
1.22221e-08
-1.74179e-08
2.68807e-09
1.13539e-08
-1.3547e-08
2.50467e-09
1.00875e-08
-9.47506e-09
2.26732e-09
8.90579e-09
-5.89672e-09
2.16509e-09
7.99193e-09
-3.52794e-09
2.25133e-09
7.04866e-09
-2.53853e-09
2.56535e-09
5.41104e-09
-2.19028e-09
2.93741e-09
2.81354e-09