/*--------------------------------*- C++ -*----------------------------------*\
| =========                 |                                                 |
| \\      /  F ield         | OpenFOAM: The Open Source CFD Toolbox           |
|  \\    /   O peration     | Version:  2312                                  |
|   \\  /    A nd           | Website:  www.openfoam.com                      |
|    \\/     M anipulation  |                                                 |
\*---------------------------------------------------------------------------*/
FoamFile
{
    version     2.0;
    format      ascii;
    arch        "LSB;label=32;scalar=64";
    class       volVectorField;
    location    "0.862544";
    object      U;
}
// * * * * * * * * * * * * * * * * * * * * * * * * * * * * * * * * * * * * * //

dimensions      [0 1 -1 0 0 0 0];

internalField   nonuniform List<vector> 
90000
(
(-8.36611e-07 5.18605e-06 -8.36611e-07)
(-6.985e-06 7.34902e-06 -3.00899e-06)
(-1.39742e-05 8.34899e-06 -3.1504e-06)
(-1.71993e-05 6.79482e-06 -4.14996e-06)
(-1.86529e-05 5.13636e-06 -4.33373e-06)
(-1.73254e-05 3.02683e-06 -4.42747e-06)
(-1.35489e-05 9.11671e-07 -4.22934e-06)
(-8.47284e-06 -4.89807e-07 -3.75905e-06)
(-3.59567e-06 -7.54784e-07 -3.22157e-06)
(-1.94278e-07 2.13286e-07 -2.94526e-06)
(1.29899e-06 1.93835e-06 -3.17166e-06)
(1.22691e-06 3.84402e-06 -3.97084e-06)
(5.48405e-07 5.40025e-06 -5.08707e-06)
(7.29629e-07 6.10618e-06 -6.16655e-06)
(3.11575e-06 5.7437e-06 -6.98715e-06)
(8.12943e-06 4.49557e-06 -7.1038e-06)
(1.51527e-05 2.7433e-06 -6.15781e-06)
(2.23262e-05 1.19548e-06 -4.26432e-06)
(2.69109e-05 5.59008e-07 -1.82018e-06)
(2.64163e-05 1.54992e-06 5.47414e-07)
(1.95166e-05 4.06527e-06 2.15725e-06)
(6.22986e-06 7.40738e-06 2.49413e-06)
(-1.26185e-05 1.03491e-05 1.43356e-06)
(-3.36689e-05 1.21323e-05 -1.0626e-06)
(-5.14633e-05 1.11337e-05 -4.73275e-06)
(-5.9979e-05 7.35613e-06 -8.42407e-06)
(-5.5625e-05 1.3783e-06 -1.12668e-05)
(-3.70972e-05 -8.86363e-06 -1.19167e-05)
(-5.84035e-06 -8.55188e-06 -1.13433e-05)
(5.7587e-06 2.30121e-05 -5.44177e-06)
(-1.48321e-06 1.65462e-05 -1.48321e-06)
(-4.85946e-06 1.83519e-05 -1.33075e-06)
(-7.63208e-06 1.89817e-05 -1.38384e-06)
(-8.95467e-06 1.54644e-05 -1.06693e-06)
(-9.60607e-06 1.10358e-05 -5.98709e-07)
(-9.33157e-06 5.91868e-06 -3.07387e-07)
(-8.3702e-06 1.37534e-06 -2.29208e-07)
(-6.82005e-06 -1.4138e-06 -3.973e-07)
(-4.77175e-06 -1.70827e-06 -7.89262e-07)
(-2.31476e-06 4.74735e-07 -1.22916e-06)
(5.71795e-07 4.04192e-06 -1.43151e-06)
(4.09202e-06 7.67196e-06 -1.24729e-06)
(8.04188e-06 1.01677e-05 -7.32976e-07)
(1.19329e-05 1.07458e-05 2.18929e-07)
(1.52814e-05 9.26083e-06 1.39129e-06)
(1.72824e-05 6.22469e-06 2.45219e-06)
(1.7207e-05 3.06961e-06 3.03518e-06)
(1.51567e-05 1.24634e-06 2.92349e-06)
(1.16432e-05 2.13536e-06 2.13849e-06)
(6.9721e-06 6.20737e-06 9.37931e-07)
(1.5376e-06 1.24178e-05 -3.44069e-07)
(-4.11435e-06 1.95387e-05 -1.07389e-06)
(-9.1649e-06 2.48406e-05 -1.13511e-06)
(-1.23412e-05 2.61725e-05 -3.87607e-07)
(-1.29055e-05 2.09437e-05 1.22431e-06)
(-1.0415e-05 9.57122e-06 3.39827e-06)
(-1.01498e-05 -5.19275e-06 6.58318e-06)
(7.11702e-07 -2.36369e-05 9.89553e-06)
(1.76507e-05 -3.88012e-05 1.48802e-05)
(1.0685e-05 4.10742e-05 1.7498e-05)
(-1.36272e-06 2.20701e-05 -1.36272e-06)
(-4.10718e-07 2.25186e-05 -9.4876e-07)
(1.45628e-06 2.08748e-05 -4.84588e-07)
(1.27619e-06 1.70827e-05 2.89776e-07)
(7.74701e-07 1.2016e-05 8.23091e-07)
(-8.71073e-07 6.60057e-06 1.01239e-06)
(-3.03548e-06 2.15166e-06 7.15725e-07)
(-4.89139e-06 -5.31648e-07 3.54566e-08)
(-5.30809e-06 -9.42881e-07 -7.21276e-07)
(-3.43844e-06 5.80968e-07 -1.25908e-06)
(9.99284e-07 3.05618e-06 -1.34609e-06)
(7.39016e-06 5.24183e-06 -6.91536e-07)
(1.41925e-05 6.41799e-06 6.47882e-07)
(1.93992e-05 6.2701e-06 2.20278e-06)
(2.12149e-05 4.97793e-06 3.60932e-06)
(1.88099e-05 3.27166e-06 4.31949e-06)
(1.2569e-05 2.49967e-06 3.97395e-06)
(4.15197e-06 3.50642e-06 2.62284e-06)
(-3.98134e-06 6.85868e-06 4.88008e-07)
(-9.31365e-06 1.226e-05 -1.87919e-06)
(-9.96164e-06 1.84171e-05 -3.63107e-06)
(-5.23265e-06 2.40059e-05 -4.21823e-06)
(4.06293e-06 2.67804e-05 -3.50981e-06)
(1.57618e-05 2.4158e-05 -1.43317e-06)
(2.73009e-05 1.53628e-05 1.67068e-06)
(3.63641e-05 1.30294e-06 4.80331e-06)
(3.59486e-05 -1.3113e-05 8.27005e-06)
(3.09722e-05 -2.87182e-05 8.36398e-06)
(1.9986e-05 -6.41584e-05 1.70573e-05)
(5.46411e-06 4.03697e-05 1.05168e-05)
(-1.12854e-06 1.95828e-05 -1.12854e-06)
(2.90233e-06 1.90594e-05 5.01359e-07)
(8.62931e-06 1.69117e-05 1.11193e-06)
(1.00101e-05 1.41268e-05 1.85513e-06)
(9.84263e-06 1.08305e-05 2.13091e-06)
(7.25158e-06 7.44914e-06 1.95921e-06)
(3.30848e-06 4.39069e-06 1.42084e-06)
(-7.15161e-07 2.14541e-06 6.54957e-07)
(-3.16476e-06 8.69532e-07 -1.50011e-07)
(-2.85041e-06 2.1112e-07 -7.89635e-07)
(3.24243e-07 -9.35387e-08 -8.68985e-07)
(5.57009e-06 -3.82264e-07 -2.79285e-07)
(1.11129e-05 -4.39301e-07 6.94806e-07)
(1.46647e-05 -4.98365e-09 1.58737e-06)
(1.4717e-05 1.28653e-06 2.03797e-06)
(1.09041e-05 3.65667e-06 1.89032e-06)
(4.04465e-06 6.93137e-06 9.2817e-07)
(-3.92689e-06 1.06514e-05 -7.18786e-07)
(-1.01586e-05 1.41064e-05 -2.49918e-06)
(-1.18299e-05 1.68614e-05 -3.79682e-06)
(-7.43201e-06 1.8719e-05 -4.54131e-06)
(3.59616e-06 1.92813e-05 -4.42849e-06)
(1.90823e-05 1.75974e-05 -3.41948e-06)
(3.49114e-05 1.27857e-05 -1.37748e-06)
(4.73203e-05 5.54458e-06 1.5698e-06)
(5.37455e-05 -3.28498e-06 3.94825e-06)
(5.49892e-05 -1.09961e-05 2.97069e-06)
(4.53345e-05 -1.39126e-05 1.0564e-06)
(9.00736e-06 -4.12533e-05 1.85066e-06)
(-8.72877e-06 4.18154e-05 -3.1448e-06)
(8.61848e-08 1.38483e-05 8.61848e-08)
(6.43826e-06 9.35829e-06 2.06702e-06)
(1.44991e-05 8.63045e-06 2.61317e-06)
(1.7487e-05 7.97905e-06 3.09113e-06)
(1.8162e-05 7.65061e-06 3.17044e-06)
(1.59043e-05 7.21938e-06 2.87349e-06)
(1.1634e-05 6.37562e-06 2.34079e-06)
(6.60503e-06 5.06821e-06 1.74937e-06)
(2.2013e-06 3.19061e-06 1.23695e-06)
(-5.71408e-07 6.11511e-07 7.75655e-07)
(-1.6235e-06 -2.18574e-06 4.02729e-07)
(-1.38189e-06 -4.29835e-06 2.47241e-07)
(-6.3374e-07 -4.87094e-06 3.66258e-08)
(-3.71416e-07 -3.2229e-06 -4.39614e-07)
(-1.22338e-06 9.168e-07 -1.22271e-06)
(-3.10449e-06 6.83704e-06 -2.14845e-06)
(-5.41414e-06 1.28045e-05 -3.03537e-06)
(-7.27376e-06 1.75231e-05 -3.47627e-06)
(-7.13679e-06 1.94671e-05 -3.68698e-06)
(-3.49382e-06 1.82774e-05 -3.59727e-06)
(4.50638e-06 1.48943e-05 -3.20347e-06)
(1.62024e-05 1.03908e-05 -2.57289e-06)
(2.92829e-05 5.50179e-06 -1.81696e-06)
(4.08155e-05 1.59666e-06 -1.01842e-06)
(4.74924e-05 -1.0946e-07 -3.55731e-07)
(4.68943e-05 -8.30544e-08 3.2977e-07)
(4.09421e-05 1.62768e-06 -1.00363e-06)
(2.33395e-05 1.55681e-05 -3.43918e-06)
(-1.82905e-06 9.44626e-06 -6.78464e-06)
(-6.45544e-06 4.13755e-05 -1.36401e-05)
(1.00761e-06 6.17621e-06 1.00761e-06)
(8.50058e-06 -3.81852e-06 2.90031e-06)
(1.77186e-05 -1.80451e-06 3.32602e-06)
(2.22309e-05 2.43543e-07 3.36937e-06)
(2.45183e-05 3.27812e-06 3.17846e-06)
(2.40671e-05 6.1497e-06 2.83529e-06)
(2.12156e-05 8.02585e-06 2.59136e-06)
(1.65079e-05 8.3459e-06 2.47343e-06)
(1.0481e-05 6.8876e-06 2.38387e-06)
(3.62113e-06 3.8683e-06 2.18532e-06)
(-3.50886e-06 1.95429e-07 1.7994e-06)
(-1.01604e-05 -2.71965e-06 7.7902e-07)
(-1.5542e-05 -3.47308e-06 -7.10903e-07)
(-1.87648e-05 -1.3903e-06 -2.31275e-06)
(-1.91381e-05 3.56403e-06 -3.68747e-06)
(-1.67975e-05 1.02735e-05 -4.53917e-06)
(-1.20818e-05 1.65581e-05 -4.71409e-06)
(-5.66023e-06 2.02154e-05 -4.04468e-06)
(1.69899e-06 1.97757e-05 -2.86335e-06)
(9.5437e-06 1.55413e-05 -1.36929e-06)
(1.73105e-05 9.31732e-06 -3.92935e-08)
(2.42342e-05 2.9208e-06 7.65184e-07)
(2.94777e-05 -1.17973e-06 7.87404e-07)
(3.20579e-05 -8.10078e-07 -1.03075e-07)
(3.08916e-05 4.95032e-06 -2.01996e-06)
(2.42597e-05 1.49682e-05 -4.6263e-06)
(1.38898e-05 2.73139e-05 -7.58819e-06)
(-9.55788e-07 4.67751e-05 -1.1801e-05)
(-1.37759e-05 5.52771e-05 -1.41889e-05)
(-8.75336e-06 5.06591e-05 -1.61891e-05)
(5.62924e-07 6.77309e-08 5.62924e-07)
(7.44428e-06 -1.71361e-05 1.96473e-06)
(1.71217e-05 -1.17993e-05 1.88114e-06)
(2.32328e-05 -7.20408e-06 1.37648e-06)
(2.80272e-05 -1.28682e-06 1.0189e-06)
(3.07297e-05 4.68666e-06 9.60808e-07)
(3.07693e-05 9.446e-06 1.30974e-06)
(2.75328e-05 1.22146e-05 1.90944e-06)
(2.06491e-05 1.26098e-05 2.51801e-06)
(1.03686e-05 1.10581e-05 2.68229e-06)
(-2.27136e-06 8.39821e-06 2.16279e-06)
(-1.5256e-05 5.51893e-06 9.59215e-07)
(-2.59318e-05 3.76801e-06 -6.77347e-07)
(-3.17911e-05 3.88612e-06 -2.55657e-06)
(-3.15953e-05 6.18028e-06 -3.90137e-06)
(-2.56632e-05 9.79881e-06 -4.29344e-06)
(-1.558e-05 1.33528e-05 -3.58221e-06)
(-3.4484e-06 1.48529e-05 -1.78883e-06)
(8.37568e-06 1.31176e-05 5.62851e-07)
(1.74121e-05 8.61343e-06 2.48363e-06)
(2.23199e-05 3.03985e-06 3.80312e-06)
(2.29657e-05 -1.02713e-06 4.15091e-06)
(1.99459e-05 -7.32167e-07 3.30467e-06)
(1.40738e-05 5.71808e-06 1.37811e-06)
(6.26118e-06 1.8412e-05 -1.48947e-06)
(-3.21741e-06 3.62743e-05 -5.05198e-06)
(-1.15146e-05 5.52636e-05 -8.83198e-06)
(-1.78983e-05 7.25072e-05 -1.11512e-05)
(-1.72566e-05 8.22873e-05 -1.19742e-05)
(-6.86706e-06 5.36397e-05 -1.02867e-05)
(-2.00682e-06 -8.42528e-07 -2.00682e-06)
(2.85216e-06 -2.81123e-05 -1.5103e-06)
(1.31974e-05 -1.95388e-05 -2.1275e-06)
(2.06726e-05 -1.33569e-05 -2.68948e-06)
(2.84069e-05 -5.59193e-06 -2.74149e-06)
(3.48631e-05 2.57599e-06 -2.26025e-06)
(3.84383e-05 1.01545e-05 -1.33898e-06)
(3.74748e-05 1.62661e-05 9.44442e-08)
(3.10146e-05 2.00599e-05 1.39409e-06)
(1.92785e-05 2.15185e-05 2.13902e-06)
(3.77827e-06 2.07687e-05 2.23736e-06)
(-1.23996e-05 1.79153e-05 1.54517e-06)
(-2.56555e-05 1.36475e-05 4.62819e-07)
(-3.33279e-05 9.2754e-06 -3.756e-07)
(-3.39681e-05 5.93991e-06 -8.92124e-07)
(-2.78279e-05 3.79383e-06 -5.17468e-07)
(-1.69756e-05 2.63946e-06 7.59735e-07)
(-4.49651e-06 1.72558e-06 2.57163e-06)
(6.36158e-06 -3.49824e-08 4.50402e-06)
(1.29277e-05 -2.58912e-06 5.88641e-06)
(1.44658e-05 -4.66923e-06 6.38615e-06)
(1.14548e-05 -3.99753e-06 5.89891e-06)
(4.68167e-06 1.65616e-06 4.6702e-06)
(-4.09485e-06 1.33203e-05 2.96329e-06)
(-1.30797e-05 3.02416e-05 5.93077e-07)
(-2.06079e-05 5.01047e-05 -2.14892e-06)
(-2.38455e-05 6.86863e-05 -4.17483e-06)
(-2.19687e-05 7.93455e-05 -4.85193e-06)
(-1.06329e-05 7.98263e-05 -3.81208e-06)
(-6.89125e-07 4.64889e-05 1.19284e-06)
(-5.25413e-06 7.27566e-06 -5.25413e-06)
(-2.92589e-06 -3.57861e-05 -5.42734e-06)
(7.91144e-06 -2.43468e-05 -6.10477e-06)
(1.63957e-05 -1.80935e-05 -6.37512e-06)
(2.63799e-05 -9.84205e-06 -5.90309e-06)
(3.52587e-05 -4.80707e-07 -4.72867e-06)
(4.12561e-05 9.4945e-06 -2.98956e-06)
(4.2502e-05 1.91879e-05 -1.17593e-06)
(3.79159e-05 2.71038e-05 4.55087e-07)
(2.77806e-05 3.20576e-05 1.77331e-06)
(1.38216e-05 3.29683e-05 2.59059e-06)
(-1.05797e-06 2.92434e-05 3.06643e-06)
(-1.37961e-05 2.13689e-05 3.34652e-06)
(-2.22064e-05 1.13628e-05 3.72317e-06)
(-2.55406e-05 1.51904e-06 4.2629e-06)
(-2.42204e-05 -6.64345e-06 4.95412e-06)
(-1.96838e-05 -1.2161e-05 5.8612e-06)
(-1.39973e-05 -1.52206e-05 6.56466e-06)
(-8.97576e-06 -1.6561e-05 6.76984e-06)
(-5.93744e-06 -1.65823e-05 6.2596e-06)
(-5.3861e-06 -1.45033e-05 5.32745e-06)
(-7.26208e-06 -9.08507e-06 4.36835e-06)
(-1.11665e-05 6.67424e-07 3.25892e-06)
(-1.59311e-05 1.49976e-05 2.48155e-06)
(-2.01653e-05 3.22344e-05 1.92686e-06)
(-2.22666e-05 4.88878e-05 1.83874e-06)
(-1.96718e-05 6.08101e-05 2.1156e-06)
(-1.21501e-05 6.29864e-05 3.78913e-06)
(1.12977e-06 5.66266e-05 6.283e-06)
(4.95619e-06 3.27824e-05 8.24543e-06)
(-6.64488e-06 2.34144e-05 -6.64488e-06)
(-5.91647e-06 -4.1105e-05 -6.681e-06)
(3.92855e-06 -2.76555e-05 -6.77785e-06)
(1.15538e-05 -2.27539e-05 -6.44289e-06)
(2.10821e-05 -1.51117e-05 -5.22791e-06)
(2.95192e-05 -5.23808e-06 -3.67443e-06)
(3.52933e-05 6.65805e-06 -1.97242e-06)
(3.75427e-05 1.94738e-05 -3.0821e-07)
(3.59198e-05 3.05188e-05 9.4781e-07)
(3.0636e-05 3.80564e-05 2.20859e-06)
(2.28491e-05 3.97037e-05 3.44429e-06)
(1.3824e-05 3.44667e-05 4.91041e-06)
(4.66437e-06 2.3449e-05 6.49765e-06)
(-4.00133e-06 9.27754e-06 7.93312e-06)
(-1.21861e-05 -4.94575e-06 9.0234e-06)
(-1.9782e-05 -1.68258e-05 9.43181e-06)
(-2.62376e-05 -2.49263e-05 8.81224e-06)
(-3.07621e-05 -2.9229e-05 7.04643e-06)
(-3.26795e-05 -3.03692e-05 4.65886e-06)
(-3.22172e-05 -2.88e-05 2.27216e-06)
(-2.98854e-05 -2.45351e-05 3.3608e-07)
(-2.63959e-05 -1.67468e-05 -8.17105e-07)
(-2.27326e-05 -5.32148e-06 -1.08403e-06)
(-1.94971e-05 9.06508e-06 -6.32209e-07)
(-1.62099e-05 2.39111e-05 4.69785e-07)
(-1.15932e-05 3.52071e-05 1.8388e-06)
(-4.49739e-06 4.01073e-05 3.87163e-06)
(3.40561e-06 3.72063e-05 6.14329e-06)
(9.03936e-06 3.20364e-05 7.14162e-06)
(5.66764e-06 2.35455e-05 5.32463e-06)
(-3.04212e-06 3.60364e-05 -3.04212e-06)
(-2.59194e-06 -4.63001e-05 -2.49458e-06)
(1.83249e-06 -3.20775e-05 -1.66452e-06)
(5.24615e-06 -2.86463e-05 -8.51683e-07)
(9.3657e-06 -2.19649e-05 5.26261e-07)
(1.27208e-05 -1.19625e-05 1.53678e-06)
(1.53233e-05 9.70675e-07 1.95004e-06)
(1.73331e-05 1.52097e-05 1.84605e-06)
(1.95537e-05 2.75511e-05 1.65869e-06)
(2.21061e-05 3.58284e-05 1.99606e-06)
(2.39355e-05 3.7627e-05 3.11051e-06)
(2.37326e-05 3.20726e-05 4.74245e-06)
(1.99365e-05 2.08079e-05 6.76292e-06)
(1.13902e-05 6.70749e-06 8.29638e-06)
(-2.0252e-06 -7.23688e-06 8.69777e-06)
(-1.83659e-05 -1.83562e-05 7.69759e-06)
(-3.44574e-05 -2.63544e-05 5.26955e-06)
(-4.71418e-05 -3.15819e-05 1.95645e-06)
(-5.39723e-05 -3.42445e-05 -1.68277e-06)
(-5.39964e-05 -3.42909e-05 -4.50374e-06)
(-4.78711e-05 -3.13805e-05 -6.14258e-06)
(-3.78786e-05 -2.47393e-05 -6.37448e-06)
(-2.67635e-05 -1.41025e-05 -5.62787e-06)
(-1.64845e-05 -1.51887e-06 -4.31367e-06)
(-7.18402e-06 1.02791e-05 -2.46565e-06)
(1.71955e-06 1.77172e-05 -3.10288e-07)
(8.91623e-06 2.0153e-05 1.4455e-06)
(1.15982e-05 2.01152e-05 2.25012e-06)
(9.28214e-06 2.27092e-05 9.72266e-07)
(3.68916e-06 2.28512e-05 2.1016e-07)
(6.59941e-06 3.14506e-05 6.59941e-06)
(6.24355e-06 -5.11003e-05 7.21394e-06)
(-2.20941e-06 -3.83015e-05 8.75716e-06)
(-6.78402e-06 -3.49545e-05 8.53375e-06)
(-1.2512e-05 -2.88587e-05 8.33898e-06)
(-1.71136e-05 -1.8954e-05 6.9354e-06)
(-1.90324e-05 -6.24486e-06 4.69836e-06)
(-1.67048e-05 7.28347e-06 2.10999e-06)
(-9.46033e-06 1.87727e-05 -1.3115e-07)
(1.99536e-06 2.62021e-05 -1.14947e-06)
(1.46177e-05 2.84489e-05 -6.76228e-07)
(2.37832e-05 2.56726e-05 7.6161e-07)
(2.56942e-05 1.93744e-05 1.95657e-06)
(1.85132e-05 1.15401e-05 2.51815e-06)
(3.3674e-06 3.5082e-06 1.9921e-06)
(-1.67746e-05 -3.60482e-06 -3.33747e-07)
(-3.75448e-05 -1.04795e-05 -3.39961e-06)
(-5.33069e-05 -1.78641e-05 -6.27284e-06)
(-6.06244e-05 -2.53142e-05 -8.63744e-06)
(-5.8876e-05 -3.10917e-05 -9.74184e-06)
(-4.96997e-05 -3.31156e-05 -9.60338e-06)
(-3.64763e-05 -3.04663e-05 -8.41875e-06)
(-2.24561e-05 -2.29291e-05 -6.58345e-06)
(-9.62508e-06 -1.30977e-05 -4.65718e-06)
(1.54298e-06 -3.50266e-06 -2.79286e-06)
(1.02482e-05 3.70836e-06 -1.07811e-06)
(1.48288e-05 9.63163e-06 1.11056e-08)
(1.39297e-05 1.69159e-05 -5.41802e-08)
(1.01341e-05 2.53327e-05 -2.91864e-07)
(4.32107e-06 2.46207e-05 1.96199e-06)
(1.79705e-05 -1.25738e-06 1.79705e-05)
(1.4416e-05 -5.13769e-05 1.65457e-05)
(-1.17667e-05 -4.1957e-05 1.61188e-05)
(-2.54824e-05 -3.72869e-05 1.40434e-05)
(-4.12702e-05 -3.06748e-05 1.10499e-05)
(-5.32178e-05 -2.10571e-05 6.94475e-06)
(-5.83603e-05 -1.02178e-05 2.35066e-06)
(-5.44085e-05 -4.52549e-09 -2.01249e-06)
(-4.11471e-05 8.13857e-06 -5.08892e-06)
(-2.11304e-05 1.35185e-05 -6.54474e-06)
(3.58752e-07 1.73632e-05 -6.57629e-06)
(1.69602e-05 2.08525e-05 -5.91106e-06)
(2.39409e-05 2.42986e-05 -5.29439e-06)
(1.97597e-05 2.72971e-05 -5.59471e-06)
(6.58308e-06 2.83472e-05 -6.79452e-06)
(-1.13687e-05 2.57629e-05 -8.26554e-06)
(-2.91169e-05 1.85753e-05 -9.55604e-06)
(-4.15373e-05 6.55326e-06 -1.04492e-05)
(-4.58967e-05 -8.18361e-06 -1.03357e-05)
(-4.26496e-05 -2.18137e-05 -9.18878e-06)
(-3.45367e-05 -3.07045e-05 -7.26226e-06)
(-2.42468e-05 -3.33077e-05 -5.15495e-06)
(-1.37083e-05 -3.00768e-05 -3.18539e-06)
(-3.89516e-06 -2.30818e-05 -1.54591e-06)
(5.04597e-06 -1.47068e-05 -2.20784e-07)
(1.2042e-05 -5.68051e-06 9.1341e-07)
(1.56058e-05 5.21994e-06 1.73091e-06)
(1.53213e-05 1.66212e-05 2.79209e-06)
(1.37987e-05 2.39287e-05 4.72728e-06)
(6.91789e-06 2.4547e-05 7.96218e-06)
(2.34798e-05 -5.31351e-05 2.34798e-05)
(1.37508e-05 -3.85393e-05 1.70205e-05)
(-2.74603e-05 -3.39333e-05 1.4675e-05)
(-4.80113e-05 -2.82003e-05 1.06696e-05)
(-6.85508e-05 -2.06222e-05 6.02851e-06)
(-8.21736e-05 -1.30125e-05 7.66973e-07)
(-8.62152e-05 -7.16535e-06 -3.86708e-06)
(-7.83458e-05 -4.03631e-06 -6.88551e-06)
(-5.94509e-05 -2.06331e-06 -8.55632e-06)
(-3.44894e-05 7.01705e-07 -9.01493e-06)
(-9.40852e-06 7.6132e-06 -8.46713e-06)
(9.81289e-06 1.92716e-05 -7.85486e-06)
(1.94215e-05 3.36387e-05 -7.78248e-06)
(1.93293e-05 4.736e-05 -8.15472e-06)
(1.21439e-05 5.59822e-05 -8.47977e-06)
(1.91326e-06 5.64494e-05 -8.84515e-06)
(-7.38255e-06 4.73756e-05 -8.49891e-06)
(-1.33324e-05 2.96765e-05 -7.15964e-06)
(-1.57045e-05 8.21613e-06 -4.89624e-06)
(-1.54146e-05 -1.18342e-05 -2.35261e-06)
(-1.37008e-05 -2.63046e-05 -1.76712e-08)
(-1.17736e-05 -3.34e-05 1.55228e-06)
(-9.42257e-06 -3.3976e-05 2.10934e-06)
(-5.25103e-06 -2.95498e-05 1.92204e-06)
(8.20931e-07 -2.20621e-05 1.97114e-06)
(7.26663e-06 -1.16342e-05 2.59304e-06)
(1.19117e-05 7.89871e-07 3.83081e-06)
(1.42416e-05 1.10689e-05 6.15823e-06)
(1.3551e-05 1.62603e-05 8.74218e-06)
(6.26868e-06 2.60421e-05 7.19664e-06)
(1.66904e-05 -9.49742e-05 1.66904e-05)
(8.70501e-08 -6.23094e-06 8.94951e-06)
(-4.2288e-05 -8.99686e-06 5.59177e-06)
(-6.25716e-05 -4.54608e-06 1.07699e-06)
(-8.00986e-05 9.8545e-07 -2.71503e-06)
(-8.92541e-05 2.46847e-06 -5.36468e-06)
(-8.76326e-05 -8.94543e-07 -6.69062e-06)
(-7.47314e-05 -7.72321e-06 -6.9038e-06)
(-5.40455e-05 -1.30943e-05 -6.03337e-06)
(-3.09997e-05 -1.21778e-05 -5.1225e-06)
(-9.99911e-06 -1.75509e-06 -4.20059e-06)
(5.16461e-06 1.69479e-05 -4.01806e-06)
(1.39881e-05 3.99456e-05 -4.44033e-06)
(1.8149e-05 6.07374e-05 -5.06599e-06)
(1.92093e-05 7.31342e-05 -4.93784e-06)
(1.89943e-05 7.39779e-05 -3.86605e-06)
(1.85054e-05 6.28139e-05 -1.61949e-06)
(1.73106e-05 4.19256e-05 1.27774e-06)
(1.42746e-05 1.75269e-05 4.22023e-06)
(8.52188e-06 -4.55478e-06 6.3129e-06)
(3.82327e-07 -2.06292e-05 6.93547e-06)
(-7.96872e-06 -2.96418e-05 5.9438e-06)
(-1.32479e-05 -3.26354e-05 3.9507e-06)
(-1.3323e-05 -3.05702e-05 2.5075e-06)
(-8.91499e-06 -2.42272e-05 1.9878e-06)
(-2.74669e-06 -1.41868e-05 2.31462e-06)
(2.29509e-06 -2.89191e-06 3.25311e-06)
(4.71396e-06 6.73919e-06 4.11344e-06)
(2.05232e-07 1.66951e-05 2.74426e-06)
(-2.41781e-06 3.32745e-05 -2.49421e-06)
(2.72653e-06 -0.000103093 2.72653e-06)
(-1.68344e-05 3.84109e-05 -4.80152e-06)
(-4.59968e-05 2.70856e-05 -5.92717e-06)
(-5.90507e-05 2.67355e-05 -7.67871e-06)
(-6.71216e-05 2.4631e-05 -7.61027e-06)
(-6.6821e-05 1.55114e-05 -6.54877e-06)
(-5.83432e-05 5.7926e-07 -4.57453e-06)
(-4.4735e-05 -1.53209e-05 -2.02117e-06)
(-2.92076e-05 -2.54869e-05 3.44596e-07)
(-1.56177e-05 -2.49041e-05 1.89381e-06)
(-6.0325e-06 -1.13508e-05 2.10087e-06)
(9.05693e-07 1.17648e-05 9.11321e-07)
(7.23022e-06 3.86436e-05 -6.45458e-07)
(1.46456e-05 6.12047e-05 -1.56579e-06)
(2.3079e-05 7.37663e-05 -1.0966e-06)
(3.10622e-05 7.40538e-05 7.83821e-07)
(3.65635e-05 6.27223e-05 3.44966e-06)
(3.69958e-05 4.34193e-05 6.20981e-06)
(3.03193e-05 2.17331e-05 7.99763e-06)
(1.7593e-05 2.555e-06 8.25503e-06)
(2.29244e-06 -1.19495e-05 6.89715e-06)
(-1.11502e-05 -2.15243e-05 4.85773e-06)
(-1.88779e-05 -2.68572e-05 3.16755e-06)
(-2.02871e-05 -2.77539e-05 2.66039e-06)
(-1.79203e-05 -2.33328e-05 2.83118e-06)
(-1.49905e-05 -1.43214e-05 2.99635e-06)
(-1.36981e-05 -2.92429e-06 2.42192e-06)
(-1.50085e-05 1.08148e-05 1.23583e-07)
(-1.92526e-05 2.79535e-05 -4.19813e-06)
(-1.14031e-05 3.1907e-05 -5.35945e-06)
(-1.01218e-05 -7.43704e-05 -1.01218e-05)
(-2.5928e-05 7.8947e-05 -1.19163e-05)
(-3.43514e-05 5.77869e-05 -1.07013e-05)
(-3.64172e-05 5.02933e-05 -1.01975e-05)
(-3.26547e-05 3.76693e-05 -7.7234e-06)
(-2.39477e-05 1.76587e-05 -4.3166e-06)
(-1.31544e-05 -5.45261e-06 -4.93349e-07)
(-4.04456e-06 -2.51751e-05 2.68446e-06)
(7.61646e-07 -3.54036e-05 4.53041e-06)
(6.08811e-07 -3.25048e-05 4.51673e-06)
(-2.13879e-06 -1.61185e-05 2.69491e-06)
(-2.87467e-06 7.8377e-06 -1.67767e-07)
(1.27403e-06 3.28663e-05 -2.1144e-06)
(1.06891e-05 5.23614e-05 -2.65393e-06)
(2.313e-05 6.27926e-05 -1.4865e-06)
(3.45754e-05 6.34808e-05 8.68334e-07)
(4.10467e-05 5.54504e-05 2.83255e-06)
(3.95531e-05 4.20317e-05 4.38477e-06)
(2.99045e-05 2.6591e-05 4.88925e-06)
(1.52263e-05 1.19538e-05 4.41792e-06)
(-2.15761e-07 -1.44414e-06 3.32499e-06)
(-1.22669e-05 -1.31931e-05 3.09623e-06)
(-1.89278e-05 -2.2301e-05 3.82307e-06)
(-2.18661e-05 -2.63283e-05 5.15261e-06)
(-2.42029e-05 -2.3506e-05 5.9273e-06)
(-2.75205e-05 -1.47871e-05 5.36164e-06)
(-3.10946e-05 -1.92909e-06 3.25346e-06)
(-3.28314e-05 1.48427e-05 2.46315e-07)
(-2.85617e-05 2.76554e-05 -6.84639e-07)
(-1.25043e-05 8.72088e-06 1.92037e-06)
(-1.46343e-05 -2.94923e-05 -1.46343e-05)
(-2.1759e-05 9.99813e-05 -1.2147e-05)
(-1.21016e-05 7.14703e-05 -1.0858e-05)
(-4.33384e-06 5.7002e-05 -9.38385e-06)
(6.69076e-06 3.5784e-05 -6.56408e-06)
(1.82766e-05 1.03224e-05 -3.0454e-06)
(2.70382e-05 -1.35556e-05 1.29659e-07)
(2.90927e-05 -3.01199e-05 1.93068e-06)
(2.34532e-05 -3.5308e-05 1.98914e-06)
(1.31863e-05 -2.8198e-05 5.88366e-07)
(3.08858e-06 -1.18088e-05 -1.57153e-06)
(-1.48842e-06 8.09599e-06 -3.14253e-06)
(1.50779e-06 2.64257e-05 -3.70537e-06)
(1.02002e-05 4.00904e-05 -2.6853e-06)
(2.1323e-05 4.81796e-05 -7.45476e-07)
(3.04038e-05 5.05781e-05 1.17492e-06)
(3.40149e-05 4.7667e-05 2.65199e-06)
(3.04839e-05 4.09351e-05 3.15421e-06)
(2.09859e-05 3.1078e-05 2.77408e-06)
(8.98356e-06 1.86759e-05 2.61625e-06)
(-2.29365e-06 4.0275e-06 2.9832e-06)
(-1.08585e-05 -1.08284e-05 4.09592e-06)
(-1.73776e-05 -2.24941e-05 5.70602e-06)
(-2.43809e-05 -2.74785e-05 6.53594e-06)
(-3.25164e-05 -2.4787e-05 5.69531e-06)
(-3.94661e-05 -1.67601e-05 3.74487e-06)
(-4.22249e-05 -5.49877e-06 2.08425e-06)
(-3.76645e-05 4.92626e-06 2.46912e-06)
(-2.30822e-05 2.6352e-06 4.68415e-06)
(-6.77437e-06 -2.18542e-05 6.52751e-06)
(-1.35838e-05 6.36411e-06 -1.35838e-05)
(-1.04762e-05 9.70547e-05 -1.01652e-05)
(1.03937e-05 6.72343e-05 -9.66641e-06)
(2.22884e-05 4.86367e-05 -8.14402e-06)
(3.6549e-05 2.46018e-05 -5.56539e-06)
(4.83627e-05 4.44461e-07 -3.05227e-06)
(5.37674e-05 -1.82354e-05 -9.61709e-07)
(5.06783e-05 -2.74491e-05 1.57703e-07)
(4.0438e-05 -2.62012e-05 2.21941e-07)
(2.68888e-05 -1.68123e-05 6.86184e-09)
(1.50023e-05 -4.39185e-06 -1.20902e-07)
(8.64679e-06 7.8907e-06 4.51813e-07)
(8.19391e-06 1.81645e-05 1.6856e-06)
(1.15747e-05 2.6086e-05 3.43534e-06)
(1.58358e-05 3.26621e-05 4.78707e-06)
(1.83655e-05 3.7074e-05 5.34264e-06)
(1.76584e-05 3.83418e-05 5.07006e-06)
(1.35595e-05 3.58013e-05 4.54392e-06)
(7.07357e-06 2.872e-05 4.18023e-06)
(-6.86425e-07 1.67648e-05 4.16178e-06)
(-8.47839e-06 1.67267e-06 4.91424e-06)
(-1.65722e-05 -1.28488e-05 5.3869e-06)
(-2.67267e-05 -2.26151e-05 4.71557e-06)
(-3.84386e-05 -2.52581e-05 2.03018e-06)
(-4.7905e-05 -2.29451e-05 -1.01443e-06)
(-5.06492e-05 -1.90814e-05 -2.28014e-06)
(-4.49028e-05 -1.53219e-05 -1.75109e-06)
(-3.10738e-05 -1.61616e-05 7.28857e-08)
(-1.46077e-05 -2.50777e-05 1.64895e-06)
(-3.60482e-06 -3.77915e-05 -8.39938e-07)
(-9.4329e-06 2.30506e-05 -9.4329e-06)
(-1.22986e-07 7.58026e-05 -6.73109e-06)
(2.55435e-05 4.98348e-05 -5.95117e-06)
(4.17566e-05 3.06603e-05 -4.44618e-06)
(5.83953e-05 8.3029e-06 -2.39e-06)
(7.04493e-05 -1.10765e-05 -2.97593e-08)
(7.44952e-05 -2.26687e-05 1.92677e-06)
(6.98099e-05 -2.48902e-05 3.58344e-06)
(5.89053e-05 -1.96222e-05 4.62291e-06)
(4.54881e-05 -1.11313e-05 5.68703e-06)
(3.2793e-05 -3.89974e-06 7.02009e-06)
(2.24315e-05 1.3442e-06 8.61606e-06)
(1.43285e-05 6.19496e-06 1.00465e-05)
(7.85004e-06 1.13042e-05 1.01952e-05)
(2.36669e-06 1.74586e-05 9.06893e-06)
(-1.92352e-06 2.36225e-05 7.39675e-06)
(-4.88857e-06 2.72311e-05 5.61699e-06)
(-7.65978e-06 2.63572e-05 4.467e-06)
(-1.1168e-05 2.06279e-05 3.8927e-06)
(-1.61824e-05 1.08238e-05 3.94772e-06)
(-2.38907e-05 -5.6306e-07 3.73374e-06)
(-3.50949e-05 -9.75093e-06 2.10124e-06)
(-4.80281e-05 -1.52796e-05 -9.99279e-07)
(-5.82807e-05 -1.81916e-05 -4.06179e-06)
(-6.10469e-05 -2.19758e-05 -5.26426e-06)
(-5.41369e-05 -2.67205e-05 -4.61296e-06)
(-4.00314e-05 -3.12507e-05 -2.6761e-06)
(-2.40673e-05 -3.60047e-05 -1.19669e-06)
(-1.33286e-05 -3.60715e-05 -2.26165e-06)
(-5.25536e-06 -4.31331e-05 -3.40305e-06)
(-4.11088e-06 2.37859e-05 -4.11088e-06)
(1.0407e-05 4.35568e-05 -1.41178e-06)
(3.8799e-05 2.42546e-05 -2.64337e-07)
(5.86672e-05 5.52556e-06 1.81463e-06)
(7.6307e-05 -1.43362e-05 4.34656e-06)
(8.75058e-05 -2.86898e-05 6.67605e-06)
(9.00747e-05 -3.38194e-05 8.32532e-06)
(8.47118e-05 -3.10708e-05 9.8256e-06)
(7.40154e-05 -2.3613e-05 1.08575e-05)
(6.03745e-05 -1.62027e-05 1.20621e-05)
(4.51876e-05 -1.1481e-05 1.31608e-05)
(2.8774e-05 -7.84884e-06 1.30466e-05)
(1.18856e-05 -3.01529e-06 1.15795e-05)
(-3.67132e-06 3.10469e-06 8.81785e-06)
(-1.52676e-05 1.03253e-05 5.62633e-06)
(-2.15499e-05 1.60765e-05 3.40571e-06)
(-2.40748e-05 1.91507e-05 2.31351e-06)
(-2.56652e-05 1.89221e-05 1.69879e-06)
(-2.89122e-05 1.62365e-05 1.46508e-06)
(-3.56059e-05 1.17485e-05 7.74279e-07)
(-4.59017e-05 6.6882e-06 -9.28036e-07)
(-5.79016e-05 1.75128e-06 -3.46991e-06)
(-6.73222e-05 -5.16141e-06 -5.49421e-06)
(-6.90447e-05 -1.66174e-05 -5.56097e-06)
(-6.15975e-05 -3.15452e-05 -3.17667e-06)
(-4.86583e-05 -4.42619e-05 2.79151e-08)
(-3.50974e-05 -5.14104e-05 2.09674e-06)
(-2.38947e-05 -5.18584e-05 2.07864e-06)
(-1.4932e-05 -4.30347e-05 4.80965e-07)
(-5.49972e-06 -5.51879e-05 1.29393e-06)
(2.1482e-06 1.02014e-05 2.1482e-06)
(2.28139e-05 3.48221e-06 5.10091e-06)
(5.30859e-05 -1.04884e-05 7.19275e-06)
(7.45793e-05 -2.83994e-05 9.5455e-06)
(9.03345e-05 -4.48362e-05 1.15922e-05)
(9.75171e-05 -5.35933e-05 1.29075e-05)
(9.65001e-05 -5.26777e-05 1.34536e-05)
(8.94099e-05 -4.52907e-05 1.30473e-05)
(7.82461e-05 -3.48458e-05 1.25336e-05)
(6.37473e-05 -2.49068e-05 1.19977e-05)
(4.5652e-05 -1.67016e-05 1.08184e-05)
(2.45173e-05 -8.34452e-06 8.68205e-06)
(2.9018e-06 4.92025e-07 5.73702e-06)
(-1.5347e-05 7.82014e-06 3.25599e-06)
(-2.63072e-05 1.3287e-05 2.26476e-06)
(-3.08156e-05 1.47254e-05 1.78962e-06)
(-3.33082e-05 1.54176e-05 2.2254e-06)
(-3.7236e-05 1.70395e-05 2.44447e-06)
(-4.49375e-05 1.93588e-05 1.59684e-06)
(-5.58115e-05 2.06452e-05 -3.24522e-07)
(-6.71604e-05 1.94608e-05 -2.86793e-06)
(-7.51141e-05 1.16102e-05 -4.70035e-06)
(-7.56412e-05 -5.24826e-06 -4.10975e-06)
(-6.78763e-05 -2.91544e-05 -8.13736e-07)
(-5.6368e-05 -5.17219e-05 3.1555e-06)
(-4.64944e-05 -6.58387e-05 5.29947e-06)
(-3.8668e-05 -7.13299e-05 4.96056e-06)
(-3.02413e-05 -6.86976e-05 4.12178e-06)
(-1.80641e-05 -6.1093e-05 3.55261e-06)
(-5.46263e-06 -7.51325e-05 2.74403e-06)
(8.86958e-06 -2.03791e-05 8.86958e-06)
(3.57361e-05 -4.57063e-05 1.19408e-05)
(6.59746e-05 -5.56292e-05 1.40785e-05)
(8.58358e-05 -7.01881e-05 1.58064e-05)
(9.67636e-05 -8.02548e-05 1.64391e-05)
(9.84647e-05 -8.11248e-05 1.56047e-05)
(9.35855e-05 -7.32464e-05 1.36535e-05)
(8.51954e-05 -6.00617e-05 1.17052e-05)
(7.426e-05 -4.47557e-05 1.0363e-05)
(5.98396e-05 -2.90614e-05 9.26065e-06)
(4.12237e-05 -1.38547e-05 7.82606e-06)
(2.00381e-05 2.73707e-07 6.16618e-06)
(4.35443e-07 1.08903e-05 4.99107e-06)
(-1.40167e-05 1.49006e-05 4.56902e-06)
(-2.24749e-05 1.38297e-05 5.19454e-06)
(-2.80811e-05 1.07831e-05 6.38193e-06)
(-3.5482e-05 1.08663e-05 7.74328e-06)
(-4.68445e-05 1.68647e-05 7.61559e-06)
(-6.09589e-05 2.4743e-05 5.35372e-06)
(-7.39658e-05 2.88775e-05 2.5562e-06)
(-8.23143e-05 2.4225e-05 1.00044e-06)
(-8.32177e-05 6.34784e-06 1.48259e-06)
(-7.65368e-05 -2.19834e-05 4.26047e-06)
(-6.76439e-05 -5.22323e-05 7.48362e-06)
(-6.22575e-05 -7.41242e-05 8.8074e-06)
(-5.95407e-05 -8.48101e-05 6.95795e-06)
(-5.40673e-05 -8.96646e-05 4.53661e-06)
(-4.24506e-05 -9.04457e-05 3.61656e-06)
(-2.50254e-05 -8.84934e-05 3.28808e-06)
(-7.73926e-06 -0.000101011 4.53275e-06)
(1.48841e-05 -6.96486e-05 1.48841e-05)
(4.61377e-05 -0.000104434 1.76568e-05)
(7.39905e-05 -0.000109532 1.9328e-05)
(9.05247e-05 -0.000116254 1.95401e-05)
(9.68079e-05 -0.000115911 1.83129e-05)
(9.51748e-05 -0.000106955 1.57828e-05)
(8.95892e-05 -9.17959e-05 1.34193e-05)
(8.21802e-05 -7.35004e-05 1.17831e-05)
(7.2383e-05 -5.33724e-05 1.09056e-05)
(5.88168e-05 -3.18031e-05 1.01534e-05)
(4.17495e-05 -1.06563e-05 9.08962e-06)
(2.39235e-05 6.09801e-06 8.23399e-06)
(8.91404e-06 1.417e-05 8.31369e-06)
(-1.84806e-06 1.22273e-05 9.30157e-06)
(-1.04196e-05 5.79543e-06 1.12115e-05)
(-2.14271e-05 2.22381e-06 1.27343e-05)
(-3.7869e-05 5.77854e-06 1.19259e-05)
(-5.71194e-05 1.68123e-05 9.47199e-06)
(-7.36324e-05 2.698e-05 7.13954e-06)
(-8.38424e-05 2.66365e-05 6.74744e-06)
(-8.61864e-05 1.15729e-05 8.12365e-06)
(-8.23381e-05 -1.70678e-05 1.12472e-05)
(-7.82659e-05 -5.04615e-05 1.45673e-05)
(-7.89836e-05 -7.76611e-05 1.51862e-05)
(-8.23406e-05 -9.5067e-05 1.29729e-05)
(-8.15534e-05 -0.000105568 1.0473e-05)
(-7.29798e-05 -0.000113827 8.52514e-06)
(-5.64517e-05 -0.000121815 7.49529e-06)
(-2.95254e-05 -0.000128898 8.85469e-06)
(-6.57286e-06 -0.000140378 1.73597e-05)
(1.97316e-05 -0.000136736 1.97316e-05)
(5.30093e-05 -0.000170733 2.20887e-05)
(7.7272e-05 -0.000168737 2.27163e-05)
(9.16381e-05 -0.000163292 2.13384e-05)
(9.64348e-05 -0.000150514 1.8981e-05)
(9.52707e-05 -0.000132253 1.65956e-05)
(9.13127e-05 -0.000111675 1.47771e-05)
(8.5172e-05 -8.96432e-05 1.36726e-05)
(7.5762e-05 -6.49907e-05 1.27211e-05)
(6.26147e-05 -3.79694e-05 1.13823e-05)
(4.77093e-05 -1.27135e-05 9.87198e-06)
(3.41073e-05 4.21618e-06 9.41256e-06)
(2.34603e-05 8.4776e-06 1.00992e-05)
(1.38549e-05 3.23597e-06 1.14418e-05)
(3.4446e-07 -2.8948e-06 1.24374e-05)
(-1.9781e-05 -1.71366e-06 1.17215e-05)
(-4.33823e-05 7.5503e-06 9.3338e-06)
(-6.3717e-05 1.85219e-05 8.05225e-06)
(-7.62729e-05 2.19729e-05 8.8134e-06)
(-8.02876e-05 1.00851e-05 1.14648e-05)
(-7.94495e-05 -1.59068e-05 1.55814e-05)
(-8.04477e-05 -4.89965e-05 1.94139e-05)
(-8.73491e-05 -7.94484e-05 2.04593e-05)
(-9.80666e-05 -0.000101005 1.81932e-05)
(-0.000104205 -0.000120476 1.64338e-05)
(-9.95566e-05 -0.000138906 1.6891e-05)