/*--------------------------------*- C++ -*----------------------------------*\
| =========                 |                                                 |
| \\      /  F ield         | OpenFOAM: The Open Source CFD Toolbox           |
|  \\    /   O peration     | Version:  2312                                  |
|   \\  /    A nd           | Website:  www.openfoam.com                      |
|    \\/     M anipulation  |                                                 |
\*---------------------------------------------------------------------------*/
FoamFile
{
    version     2.0;
    format      ascii;
    arch        "LSB;label=32;scalar=64";
    class       surfaceScalarField;
    location    "1.1552399";
    object      alphaPhi0.water;
}
// * * * * * * * * * * * * * * * * * * * * * * * * * * * * * * * * * * * * * //

dimensions      [0 3 -1 0 0 0 0];

oriented        oriented;

internalField   nonuniform List<scalar> 
263100
(
-2.07224e-09
4.14428e-09
-2.07224e-09
-6.58586e-11
-4.97319e-10
-1.51288e-09
5.96602e-10
5.96121e-10
-1.26205e-09
1.02725e-09
5.85059e-10
-1.01917e-09
1.44737e-09
2.48968e-10
-6.72486e-10
1.9223e-09
-1.78695e-10
-2.99464e-10
2.4123e-09
-5.82908e-10
8.99422e-11
2.85224e-09
-7.9851e-10
3.55943e-10
3.01407e-09
-7.21192e-10
5.57153e-10
2.74809e-09
-3.45407e-10
6.09598e-10
2.09794e-09
1.84456e-10
4.64324e-10
1.14526e-09
7.9056e-10
1.61115e-10
1.2343e-10
1.22604e-09
-2.04992e-10
-6.30924e-10
1.3552e-09
-6.01491e-10
-8.65728e-10
1.14589e-09
-9.11732e-10
-4.80628e-10
6.62061e-10
-1.0479e-09
4.25503e-10
2.8057e-11
-9.35066e-10
1.48148e-09
-4.37066e-10
-6.19975e-10
2.15541e-09
-6.16919e-10
-5.83318e-11
2.06826e-09
-3.34134e-10
4.19583e-10
1.00417e-09
3.25145e-10
7.36794e-10
-1.10353e-09
1.26325e-09
8.41786e-10
-3.88932e-09
2.07116e-09
7.114e-10
-6.6172e-09
2.35335e-09
3.70708e-10
-8.2894e-09
1.74369e-09
-7.59219e-11
-7.84958e-09
1.94121e-10
-6.38914e-10
-4.64444e-09
-2.04394e-09
-1.16657e-09
2.41472e-09
-4.37722e-09
-2.68758e-09
1.20573e-08
-6.008e-09
-3.6403e-09
3.31293e-08
-2.10827e-08
-2.62152e-11
4.19244e-09
-2.62152e-11
-1.45627e-10
-3.54538e-10
-2.87714e-11
-2.9013e-10
7.63062e-10
-2.78038e-11
-3.37788e-10
6.795e-10
-5.21012e-11
-2.48343e-10
1.7218e-10
-1.77123e-11
-7.05175e-12
-4.3848e-10
1.38813e-11
3.87752e-10
-1.01081e-09
2.91012e-11
8.95838e-10
-1.33497e-09
2.51147e-11
1.45216e-09
-1.2902e-09
1.01685e-11
1.96061e-09
-8.8119e-10
2.56153e-11
2.35335e-09
-3.10508e-10
1.01154e-10
2.61835e-09
3.06309e-10
2.1874e-10
2.74701e-09
7.10658e-10
3.86502e-10
2.70608e-09
7.42763e-10
6.53239e-10
2.45879e-09
4.61876e-10
9.31101e-10
1.93391e-09
4.77332e-11
1.13886e-09
1.21026e-09
-4.76561e-10
1.22761e-09
4.36236e-10
-8.22974e-10
1.15878e-09
-3.4513e-10
-7.50637e-10
9.13259e-10
-1.10713e-09
-1.50655e-10
5.75864e-10
-1.73918e-09
6.6405e-10
2.89555e-10
-2.30489e-09
1.73528e-09
8.90333e-11
-2.77887e-09
2.4928e-09
4.661e-11
-2.93543e-09
2.36719e-09
1.359e-10
-2.85147e-09
1.1899e-09
4.6204e-10
-2.94504e-09
-8.47725e-10
1.12684e-09
-3.18236e-09
-3.84668e-09
2.03089e-09
-3.48309e-10
-1.09708e-08
3.74919e-09
9.32492e-09
-2.20015e-08
6.30519e-09
3.91874e-08
3.25012e-09
5.87066e-10
3.01538e-09
5.87066e-10
-3.99549e-10
4.24418e-10
2.06576e-10
-9.71949e-10
1.21867e-09
1.151e-10
-1.38128e-09
1.05576e-09
3.14095e-11
-1.70869e-09
5.72888e-10
-7.46844e-11
-1.80041e-09
-1.23225e-10
-2.24426e-10
-1.59962e-09
-7.93471e-10
-4.18411e-10
-1.04708e-09
-1.311e-09
-5.76024e-10
-1.3816e-10
-1.55267e-09
-6.45209e-10
1.07665e-09
-1.49923e-09
-5.94717e-10
2.4281e-09
-1.25917e-09
-4.00023e-10
3.70306e-09
-9.367e-10
-2.856e-11
4.59081e-09
-5.97958e-10
4.24708e-10
4.81103e-09
-2.92646e-10
8.19294e-10
4.17644e-09
-5.91005e-11
1.15979e-09
2.81895e-09
1.16466e-10
1.2929e-09
9.51963e-10
2.54246e-10
1.14003e-09
-1.00802e-09
4.09705e-10
7.30651e-10
-2.52372e-09
6.1595e-10
1.51794e-10
-3.22491e-09
8.91372e-10
-3.38991e-10
-3.01684e-09
1.23073e-09
-7.73884e-10
-1.84292e-09
1.54911e-09
-9.87956e-10
-5.40335e-11
1.61268e-09
-9.1006e-10
1.89889e-09
1.03403e-09
-6.22135e-10
3.59614e-09
-1.43801e-10
-3.66912e-10
4.42808e-09
-1.48271e-09
-2.01157e-10
2.3679e-09
-2.2374e-09
4.46171e-10
-3.5741e-09
-7.59053e-09
2.55708e-09
-2.68334e-09
-2.94866e-08
6.59314e-09
2.4101e-08
1.2406e-08
8.02078e-10
1.41047e-09
8.02078e-10
-3.81922e-10
1.19329e-09
4.20461e-10
-1.10741e-09
1.63369e-09
3.14307e-10
-1.69999e-09
1.51016e-09
1.42046e-10
-2.19914e-09
1.09929e-09
-2.30345e-11
-2.56753e-09
4.653e-10
-2.15348e-10
-2.6176e-09
-2.62475e-10
-4.75432e-10
-2.26962e-09
-9.55038e-10
-6.976e-10
-1.46171e-09
-1.54132e-09
-8.12031e-10
-2.22635e-10
-1.93506e-09
-7.95107e-10
1.27382e-09
-2.11165e-09
-6.34967e-10
2.7258e-09
-2.02949e-09
-3.49404e-10
3.75044e-09
-1.63346e-09
2.13684e-11
4.08441e-09
-8.78473e-10
2.62905e-10
3.56019e-09
9.62463e-11
3.8021e-10
2.25339e-09
1.15502e-09
2.79577e-10
4.63636e-10
2.06608e-09
-1.10595e-11
-1.34821e-09
2.62108e-09
-3.89041e-10
-2.59223e-09
2.67912e-09
-8.09414e-10
-2.83307e-09
2.29536e-09
-1.15433e-09
-1.86213e-09
1.63285e-09
-1.36532e-09
1.58947e-10
9.42212e-10
-1.4076e-09
2.73262e-09
2.82733e-10
-1.23838e-09
5.09691e-09
-3.86146e-10
-9.40013e-10
6.67864e-09
-1.1504e-09
-5.72213e-10
7.87675e-09
-2.03812e-09
-6.40862e-10
9.49972e-09
-1.63792e-09
-2.22161e-09
3.53962e-09
1.36267e-09
-2.99287e-09
-7.78106e-09
-1.57621e-08
-2.40201e-09
1.21588e-08
4.1629e-09
9.57241e-10
-5.01068e-10
9.57241e-10
1.5386e-11
1.47599e-09
6.74303e-10
-6.06598e-10
1.6685e-09
5.99592e-10
-1.12384e-09
1.57432e-09
4.65481e-10
-1.6407e-09
1.34333e-09
2.85606e-10
-2.08617e-09
8.72309e-10
5.18783e-11
-2.39679e-09
1.71775e-10
-1.09451e-10
-2.48345e-09
-6.07837e-10
-2.45425e-10
-2.24094e-09
-1.36252e-09
-4.0522e-10
-1.67064e-09
-2.03259e-09
-4.55621e-10
-8.72451e-10
-2.45809e-09
-4.33518e-10
-2.1178e-11
-2.49069e-09
-3.7081e-10
7.03876e-10
-2.0074e-09
-3.30919e-10
1.13561e-09
-9.41418e-10
-3.47832e-10
1.17146e-09
5.50652e-10
-4.68808e-10
7.75683e-10
2.21339e-09
-6.40946e-10
9.6602e-11
3.57373e-09
-8.06988e-10
-5.66267e-10
4.24207e-09
-9.37022e-10
-8.23113e-10
3.99217e-09
-1.03591e-09
-3.94905e-10
2.98065e-09
-1.09425e-09
7.56782e-10
1.62306e-09
-1.12381e-09
2.5125e-09
3.12255e-10
-1.10897e-09
4.47543e-09
-6.15452e-10
-1.04929e-09
6.09065e-09
-1.02748e-09
-9.59799e-10
6.70495e-09
-9.0755e-10
-8.44363e-10
6.07279e-09
-8.41059e-10
-5.53246e-10
5.75878e-09
-5.78867e-10
-7.34345e-10
4.00296e-09
5.04623e-09
-1.91773e-09
-4.87786e-09
-3.26419e-09
-3.60675e-09
8.33693e-09
-1.04635e-09
8.02255e-10
-2.09697e-09
8.02255e-10
4.20663e-10
1.18031e-09
7.06632e-10
3.61478e-10
1.05991e-09
6.92668e-10
2.64153e-10
1.05224e-09
6.44144e-10
3.18579e-11
1.02763e-09
5.73009e-10
-3.39904e-10
7.89237e-10
4.80461e-10
-8.37463e-10
3.02609e-10
3.93089e-10
-1.44161e-09
-3.16865e-10
3.40478e-10
-2.09364e-09
-9.7864e-10
2.96506e-10
-2.68767e-09
-1.632e-09
2.22966e-10
-3.0995e-09
-2.07589e-09
6.04498e-11
-3.26213e-09
-2.17342e-09
-1.22574e-10
-3.09e-09
-1.76953e-09
-3.76766e-10
-2.55287e-09
-8.09269e-10
-6.35077e-10
-1.73462e-09
5.96652e-10
-8.29371e-10
-7.6945e-10
2.21261e-09
-9.29085e-10
1.93957e-10
3.51399e-09
-8.68347e-10
1.07161e-09
4.10013e-09
-7.00687e-10
1.86852e-09
3.71292e-09
-4.83234e-10
2.60378e-09
2.56804e-09
-2.89097e-10
3.34027e-09
1.116e-09
-1.97006e-10
4.06399e-09
-1.62121e-10
-2.18136e-10
4.67237e-09
-8.49888e-10
-3.44082e-10
4.98013e-09
-7.42856e-10
-5.63873e-10
4.78631e-09
2.38417e-10
-9.24917e-10
3.21043e-09
1.97838e-09
-1.21743e-09
9.84024e-10
2.91542e-09
-1.24258e-09
3.06044e-10
8.30209e-09
-2.55306e-09
-3.56849e-09
5.19828e-09
-4.56313e-09
7.72093e-09
-2.9297e-09
1.49363e-10
-2.37896e-09
1.49363e-10
8.47098e-10
2.73834e-10
2.57488e-10
1.52552e-09
1.22178e-10
3.01295e-10
2.09281e-09
1.90589e-10
3.35913e-10
2.41646e-09
3.29161e-10
4.1649e-10
2.34272e-09
4.02971e-10
5.02072e-10
1.75728e-09
3.38671e-10
5.92033e-10
6.7158e-10
1.34642e-10
6.77695e-10
-8.4673e-10
-1.37653e-10
7.21836e-10
-2.60393e-09
-4.86951e-10
6.57836e-10
-4.30822e-09
-8.04275e-10
4.79695e-10
-5.51835e-09
-1.03457e-09
1.19629e-10
-5.92307e-09
-1.04359e-09
-2.71571e-10
-5.37718e-09
-7.24893e-10
-5.79503e-10
-3.96325e-09
-5.04691e-11
-7.15119e-10
-1.93383e-09
8.5457e-10
-6.19066e-10
2.91932e-10
1.6715e-09
-3.30588e-10
2.28859e-09
2.05809e-09
9.80973e-11
3.77855e-09
1.84372e-09
4.31737e-10
4.58962e-09
1.08512e-09
7.2381e-10
4.72686e-09
9.4107e-11
9.35837e-10
4.32811e-09
-6.36645e-10
9.23572e-10
3.53985e-09
-7.41159e-10
7.28857e-10
2.36584e-09
4.23118e-11
4.37181e-10
1.06174e-09
1.65207e-09
-6.20939e-11
-4.58793e-10
4.33102e-09
-7.85378e-10
-2.64278e-09
6.56048e-09
-1.41479e-09
-2.04447e-09
9.97357e-09
-2.22379e-09
-2.8171e-09
8.91005e-09
-2.89252e-09
6.54834e-09
-1.60205e-09
-9.24666e-10
-5.01832e-10
-9.24666e-10
8.82688e-10
-9.02435e-10
-5.57142e-10
2.40879e-09
-8.51323e-10
-4.88318e-10
3.76075e-09
-6.90742e-10
-4.07123e-10
4.7326e-09
-3.47191e-10
-2.32201e-10
5.08742e-09
1.0746e-10
4.03447e-12
4.62826e-09
6.00654e-10
2.60766e-10
3.30275e-09
1.04745e-09
4.76757e-10
1.24894e-09
1.38849e-09
5.92496e-10
-1.24927e-09
1.51906e-09
5.57872e-10
-3.73255e-09
1.35475e-09
3.90985e-10
-5.63701e-09
8.19881e-10
1.17882e-10
-6.58787e-09
4.66938e-11
-7.03743e-11
-6.30119e-09
-6.87603e-10
-2.53777e-10
-4.86981e-09
-1.16431e-09
-2.46258e-10
-2.63056e-09
-1.31954e-09
7.10273e-12
-7.31321e-11
-1.14505e-09
3.3216e-10
2.2811e-09
-9.46923e-10
7.2441e-10
3.92376e-09
-8.70479e-10
1.14558e-09
4.61589e-09
-1.06183e-09
1.52906e-09
4.39316e-09
-1.33426e-09
1.72541e-09
3.4549e-09
-1.36308e-09
1.73899e-09
1.99266e-09
-8.12071e-10
1.60741e-09
1.47535e-10
5.77489e-10
1.3842e-09
-1.79718e-09
2.63925e-09
1.03188e-09
-3.07843e-09
5.27328e-09
4.13543e-10
-4.05666e-09
7.6513e-09
-3.77846e-11
-2.68864e-09
8.91638e-09
-2.35152e-10
-1.19263e-09
7.48451e-09
6.39918e-12
4.20232e-09
1.22248e-09
-1.8318e-09
3.20402e-09
-1.8318e-09
8.72151e-10
-2.12741e-09
-1.37376e-09
3.01937e-09
-1.60937e-09
-1.29701e-09
4.89003e-09
-1.38733e-09
-1.08307e-09
6.2742e-09
-8.4661e-10
-7.94345e-10
6.94384e-09
-8.64242e-12
-4.63715e-10
6.67739e-09
1.10505e-09
-1.48608e-10
5.44791e-09
2.34406e-09
2.18414e-11
3.42312e-09
3.35064e-09
1.51505e-10
9.21255e-10
3.9048e-09
2.05017e-10
-1.57567e-09
3.7409e-09
1.9999e-10
-3.60819e-09
2.77309e-09
1.68991e-10
-4.82326e-09
1.13444e-09
2.17657e-10
-5.08498e-09
-6.78918e-10
3.44227e-10
-4.43425e-09
-2.24594e-09
5.23154e-10
-3.0606e-09
-3.30616e-09
7.06457e-10
-1.3293e-09
-3.76664e-09
9.85109e-10
3.13195e-10
-3.75841e-09
1.26521e-09
1.61903e-09
-3.54271e-09
1.4641e-09
2.33196e-09
-3.24339e-09
1.56787e-09
2.34498e-09
-2.82033e-09
1.57387e-09
1.65672e-09
-2.13934e-09
1.56703e-09
4.43017e-10
-1.02591e-09
1.53186e-09
-1.0182e-09
7.23225e-10
1.42165e-09
-2.48606e-09
2.95738e-09
1.25778e-09
-3.17382e-09
4.98128e-09
1.08974e-09
-2.77312e-09
6.15931e-09
1.20351e-09
-8.83088e-10
5.47439e-09
1.66662e-09
6.0887e-10
3.59724e-09
2.51232e-09
2.18382e-09
2.73168e-09
-2.03956e-09
7.34342e-09
-2.03956e-09
9.91752e-10
-3.59636e-09
-1.42036e-09
3.25969e-09
-2.55739e-09
-1.19449e-09
5.14083e-09
-2.28644e-09
-8.58231e-10
6.43344e-09
-1.5163e-09
-5.00405e-10
6.99967e-09
-2.65162e-10
-1.88769e-10
6.78153e-09
1.42524e-09
1.71504e-11
5.90353e-09
3.19965e-09
1.39831e-10
4.52948e-09
4.69142e-09
1.48954e-10
2.8829e-09
5.46465e-09
2.00751e-10
1.19825e-09
5.19502e-09
3.4316e-10
-3.26709e-10
3.8415e-09
5.68278e-10
-1.63144e-09
1.72137e-09
8.29092e-10
-2.65797e-09
-6.52125e-10
1.11112e-09
-3.36002e-09
-2.76414e-09
1.33235e-09
-3.70086e-09
-4.29895e-09
1.44703e-09
-3.59971e-09
-5.10925e-09
1.35674e-09
-3.03642e-09
-5.31946e-09
1.1155e-09
-2.19504e-09
-5.10718e-09
8.43829e-10
-1.35728e-09
-4.58616e-09
6.29332e-10
-7.66166e-10
-3.79005e-09
5.06993e-10
-5.86346e-10
-2.63351e-09
4.47203e-10
-8.33155e-10
-1.04357e-09
4.02109e-10
-1.25821e-09
9.21603e-10
3.69302e-10
-1.48983e-09
2.95273e-09
3.83931e-10
-1.00247e-09
4.06832e-09
5.7836e-10
2.46475e-10
3.90158e-09
1.16661e-09
1.44831e-09
2.66496e-09
1.77004e-09
1.2488e-09
1.93825e-09
2.02506e-09
2.46039e-09
1.11944e-09
-7.48922e-10
8.92287e-09
-7.48922e-10
1.46521e-09
-5.64159e-09
1.40909e-11
2.83625e-09
-3.99325e-09
2.27621e-10
3.75333e-09
-3.47497e-09
4.31968e-10
4.1982e-09
-2.43417e-09
6.31149e-10
4.19728e-09
-8.36191e-10
7.26861e-10
3.95123e-09
1.13625e-09
6.8612e-10
3.67334e-09
3.12057e-09
5.03804e-10
3.49625e-09
4.65687e-09
3.54161e-10
3.35767e-09
5.42921e-09
3.12277e-10
3.09591e-09
5.12962e-09
4.61422e-10
2.46255e-09
3.84177e-09
7.64044e-10
1.27721e-09
1.9593e-09
1.0759e-09
-5.1248e-10
4.41568e-11
1.22049e-09
-2.56304e-09
-1.79176e-09
1.20503e-09
-4.50295e-09
-3.14185e-09
9.10679e-10
-5.85927e-09
-4.02588e-09
4.03139e-10
-6.33892e-09
-4.55298e-09
-1.52958e-10
-5.9627e-09
-4.79167e-09
-5.52826e-10
-4.94976e-09
-4.62696e-09
-8.26976e-10
-3.6672e-09
-3.93675e-09
-9.83214e-10
-2.49384e-09
-2.69665e-09
-9.49139e-10
-1.59328e-09
-9.1126e-10
-8.62685e-10
-7.39904e-10
9.50382e-10
-7.02383e-10
2.73443e-10
2.52011e-09
-3.91089e-10
1.48966e-09
3.0055e-09
4.58647e-11
2.44785e-09
2.73378e-09
4.17704e-10
2.19137e-09
2.59051e-09
5.46825e-10
8.13745e-10
3.62407e-09
-8.59255e-11
4.10663e-09
-6.37671e-10
1.54636e-09
5.93578e-09
1.54636e-09
1.53489e-09
-7.30361e-09
1.89698e-09
9.97266e-10
-5.51468e-09
2.25932e-09
1.16443e-10
-4.61642e-09
2.21946e-09
-8.55132e-10
-3.28749e-09
2.01819e-09
-1.56921e-09
-1.46242e-09
1.52805e-09
-1.72469e-09
5.96208e-10
8.76476e-10
-1.07036e-09
2.37061e-09
2.68835e-10
2.44857e-10
3.67009e-09
-1.63363e-10
1.82921e-09
4.29649e-09
-2.94692e-10
3.13476e-09
4.20941e-09
-2.36037e-10
3.50111e-09
3.71713e-09
-9.91896e-11
2.65075e-09
2.98437e-09
-3.76821e-11
7.26982e-10
2.21698e-09
-1.15843e-10
-1.95799e-09
1.44784e-09
-4.23298e-10
-4.69625e-09
6.33546e-10
-9.05625e-10
-6.81322e-09
-3.28552e-10
-1.4464e-09
-7.80028e-09
-1.52188e-09
-1.90518e-09
-7.57945e-09
-2.60947e-09
-2.25691e-09
-6.42186e-09
-3.29714e-09
-2.33183e-09
-4.78692e-09
-3.26548e-09
-2.13901e-09
-3.02884e-09
-2.46676e-09
-1.80742e-09
-1.31867e-09
-1.03817e-09
-1.388e-09
3.75322e-10
4.05736e-10
-9.38539e-10
2.02614e-09
1.54394e-09
-4.4802e-10
3.20468e-09
2.07405e-09
-5.18509e-12
3.30914e-09
2.6805e-09
2.04655e-10
2.11608e-09
4.09983e-09
-4.85826e-11
7.57031e-10
5.66823e-09
-4.08606e-10
5.047e-09
5.65098e-11
3.87658e-09
-1.68842e-09
3.87658e-09
5.45458e-10
-7.24085e-09
3.52446e-09
-2.41119e-09
-5.51182e-09
3.185e-09
-5.09285e-09
-4.15135e-09
2.44364e-09
-7.28584e-09
-2.41954e-09
1.54618e-09
-8.46742e-09
-5.40881e-10
4.7266e-10
-8.27462e-09
1.03461e-09
-4.29263e-10
-6.66717e-09
2.10067e-09
-1.1476e-09
-3.93914e-09
2.78572e-09
-1.6666e-09
-7.98919e-10
3.12439e-09
-1.80403e-09
1.76366e-09
3.52728e-09
-1.72881e-09
3.03457e-09
4.24438e-09
-1.65775e-09
2.76055e-09
5.12639e-09
-1.73705e-09
1.16655e-09
5.96374e-09
-2.02896e-09
-1.17677e-09
6.3623e-09
-2.45169e-09
-3.56162e-09
5.99971e-09
-2.86308e-09
-5.32907e-09
4.7205e-09
-3.16121e-09
-6.15022e-09
2.70267e-09
-3.27724e-09
-5.95791e-09
4.91917e-10
-3.15818e-09
-5.06353e-09
-1.21969e-09
-2.8235e-09
-3.76717e-09
-2.06444e-09
-2.33306e-09
-2.19775e-09
-2.02899e-09
-1.82411e-09
-4.17312e-10
-1.29288e-09
-1.32181e-09
1.40029e-09
-3.60711e-10
-8.25068e-10
2.94878e-09
5.89175e-10
-3.45184e-10
3.72247e-09
1.5338e-09
3.67124e-11
3.37603e-09
3.10913e-09
2.07233e-10
2.37311e-09
5.1432e-09
2.64699e-10
1.58623e-09
6.04972e-09
7.21536e-10
5.46545e-09
1.43768e-09
4.12976e-09
-9.80025e-09
4.12976e-09
-1.93129e-09
-3.06388e-09
2.15417e-09
-6.70428e-09
-1.81346e-09
1.32045e-09
-1.03492e-08
-3.42788e-10
7.67315e-11
-1.28954e-08
1.15688e-09
-7.9826e-10
-1.37819e-08
2.24614e-09
-1.68048e-09
-1.28503e-08
2.78536e-09
-2.47707e-09
-1.02065e-08
2.51081e-09
-2.86558e-09
-6.5164e-09
2.13497e-09
-2.86904e-09
-2.72333e-09
2.20837e-09
-2.72519e-09
2.25773e-10
3.26145e-09
-2.54919e-09
1.9768e-09
5.12531e-09
-2.51413e-09
2.32543e-09
7.5791e-09
-2.6973e-09
1.65317e-09
9.699e-09
-2.96979e-09
4.6477e-10
1.08173e-08
-3.18072e-09
-7.43525e-10
1.05553e-08
-3.26453e-09
-1.6464e-09
8.86117e-09
-3.15371e-09
-2.14645e-09
6.11181e-09
-2.81888e-09
-2.3588e-09
3.15469e-09
-2.34932e-09
-2.32662e-09
7.53888e-10
-1.88913e-09
-2.04676e-09
-6.45231e-10
-1.56264e-09
-1.35995e-09
-1.21403e-09
-1.34188e-09
-2.1069e-10
-1.0555e-09
-1.20043e-09
1.2019e-09
-4.63203e-10
-1.09588e-09
2.37614e-09
6.22645e-10
-9.65288e-10
2.85597e-09
2.17516e-09
-8.51968e-10
2.72482e-09
4.31146e-09
-7.78439e-10
2.55423e-09
5.98017e-09
-3.55098e-10
1.739e-09
6.80364e-09
3.84123e-10
7.67591e-09
-2.02592e-10
1.35054e-09
-1.23459e-08
1.35054e-09
-5.29122e-09
4.69191e-09
-8.60412e-10
-1.00281e-08
4.73881e-09
-1.58252e-09
-1.32352e-08
5.57064e-09
-2.48047e-09
-1.49323e-08
6.18617e-09
-3.11725e-09
-1.48533e-08
5.71544e-09
-3.34833e-09
-1.29378e-08
4.24643e-09
-3.19561e-09
-9.82438e-09
2.38656e-09
-2.83021e-09
-6.31993e-09
1.06401e-09
-2.29761e-09
-3.14966e-09
1.03805e-09
-1.88757e-09
-7.55846e-10
2.63764e-09
-1.68044e-09
7.82957e-10
5.41918e-09
-1.76405e-09
1.73276e-09
8.68004e-09
-2.00021e-09
2.30945e-09
1.1336e-08
-2.17747e-09
2.67077e-09
1.26148e-08
-2.13247e-09
2.85622e-09
1.2245e-08
-1.85377e-09
2.73914e-09
1.0352e-08
-1.35204e-09
2.16477e-09
7.48726e-09
-7.73311e-10
1.17235e-09
4.55882e-09
-3.72307e-10
-6.44521e-11
2.26568e-09
-2.18581e-10
-1.06151e-09
8.14533e-10
-3.84375e-10
-1.47226e-09
7.92611e-11
-7.78105e-10
-1.13118e-09
-4.99534e-11
-1.21301e-09
-3.35769e-10
4.76473e-10
-1.57061e-09
5.12847e-10
1.81843e-09
-1.84916e-09
9.72498e-10
4.01069e-09
-2.07127e-09
1.20014e-09
6.36931e-09
-2.0372e-09
1.0787e-09
8.13783e-09
-1.77031e-09
9.35153e-11
1.00276e-08
-1.96396e-09
1.07094e-08
-2.7223e-09
-1.9976e-09
-8.20609e-09
-1.9976e-09
-7.20417e-09
1.38224e-08
-3.72778e-09
-1.03742e-08
1.19145e-08
-3.82313e-09
-1.20332e-08
1.13381e-08
-3.93388e-09
-1.21399e-08
1.00124e-08
-3.55878e-09
-1.08117e-08
7.4587e-09
-2.92926e-09
-8.63532e-09
4.25546e-09
-2.0655e-09
-6.31375e-09
1.35253e-09
-1.1927e-09
-4.29799e-09
-3.69933e-10
-5.13723e-10
-2.82843e-09
-1.67796e-10
-2.227e-10
-1.78483e-09
1.91728e-09
-3.08484e-10
-6.64897e-10
4.95548e-09
-6.65453e-10
8.08373e-10
8.22158e-09
-1.04474e-09
2.57641e-09
1.0647e-08
-1.12559e-09
4.29116e-09
1.17065e-08
-8.64392e-10
5.46048e-09
1.1312e-08
-3.00314e-10
5.74393e-09
9.72683e-09
2.77613e-10
4.85571e-09
7.57942e-09
7.37479e-10
3.04417e-09
5.48149e-09
8.4152e-10
9.28249e-10
3.76255e-09
5.88246e-10
-7.24476e-10
2.40901e-09
4.86618e-11
-1.63241e-09
1.3645e-09
-3.61964e-10
-1.74556e-09
8.03581e-10
-6.97679e-10
-1.49971e-09
1.22627e-09
-9.24688e-10
-1.34363e-09
2.91265e-09
-1.15203e-09
-1.26676e-09
5.36543e-09
-1.30921e-09
-1.19196e-09
7.76821e-09
-1.33255e-09
-1.46607e-09
1.01171e-08
-1.55277e-09
-1.54358e-09
1.23859e-08
-2.1264e-09
1.05318e-08
-1.26301e-09
-4.21598e-09
3.35015e-10
-4.21598e-09
-6.44019e-09
2.04965e-08
-4.35683e-09
-7.33937e-09
1.67047e-08
-3.8026e-09
-7.09785e-09
1.44398e-08
-3.26534e-09
-5.91673e-09
1.12545e-08
-2.36042e-09
-4.32211e-09
7.23933e-09
-1.33188e-09
-2.94834e-09
3.27996e-09
-3.78078e-10
-2.34722e-09
5.64245e-10
1.81607e-10
-2.41361e-09
-7.24663e-10
3.88272e-10
-2.84286e-09
7.86629e-11
1.22538e-10
-2.8741e-09
2.29178e-09
-4.29801e-10
-1.96181e-09
4.9537e-09
-1.02092e-09
-2.29096e-11
7.36738e-09
-1.21551e-09
2.48854e-09
9.03228e-09
-1.04342e-09
4.84239e-09
9.7351e-09
-5.40219e-10
6.28566e-09
9.61785e-09
8.74285e-11
6.43378e-09
8.91418e-09
5.00814e-10
5.31431e-09
7.88092e-09
6.59258e-10
3.4763e-09
6.62868e-09
5.41854e-10
1.63527e-09
5.17689e-09
2.91483e-10
3.57758e-10
3.49294e-09
7.51901e-11
-2.76525e-10
1.8149e-09
8.41446e-11
-7.12996e-10
8.16721e-10
3.42713e-10
-1.29524e-09
1.08579e-09
6.60146e-10
-1.97415e-09
2.70956e-09
8.34709e-10
-2.48508e-09
4.88807e-09
9.51842e-10
-2.70291e-09
6.98913e-09
9.65364e-10
-2.57265e-09
9.05522e-09
8.97895e-10
-1.05723e-09
9.64833e-09
1.17884e-09
6.41883e-09
2.9776e-09
-3.96839e-09
8.3174e-09
-3.96839e-09
-3.48122e-09
2.30593e-08
-3.10979e-09
-2.79776e-09
1.85596e-08
-2.58843e-09
-1.61261e-09
1.51685e-08
-1.97378e-09
-2.61824e-10
1.109e-08
-1.26032e-09
7.01899e-10
6.79087e-09
-6.06675e-10
7.93574e-10
3.31014e-09
-2.33164e-10
-5.44139e-11
1.44183e-09
-1.62579e-10
-1.5464e-09
1.12651e-09
-5.14761e-10
-2.76942e-09
2.09069e-09
-9.67073e-10
-3.03979e-09
3.68183e-09
-1.3191e-09
-2.01367e-09
5.05979e-09
-1.35079e-09
3.2951e-11
6.15221e-09
-1.066e-09
2.43562e-09
6.85096e-09
-4.68073e-10
4.36458e-09
7.38204e-09
1.69516e-10
5.33808e-09
7.86588e-09
5.20445e-10
5.29277e-09
8.11785e-09
5.84405e-10
4.53022e-09
7.94312e-09
4.47612e-10
3.57606e-09
7.10546e-09
2.31793e-10
2.84039e-09
5.47966e-09
1.95848e-10
2.36965e-09
3.37929e-09
3.55852e-10
1.82171e-09
1.42595e-09
7.15186e-10
7.23636e-10
6.80088e-10
1.01667e-09
-7.15371e-10
1.19334e-09
1.11257e-09
-1.95685e-09
2.63915e-09
1.08653e-09
-2.48065e-09
4.00501e-09
1.16896e-09
-2.27459e-09
5.10349e-09
1.42321e-09
-1.12617e-09
5.69933e-09
1.92781e-09
2.76173e-10
4.98956e-09
2.95079e-09
4.13723e-09
2.2476e-09
-2.71999e-09
1.37124e-08
-2.71999e-09
-9.09916e-10
2.29351e-08
-1.93102e-09
4.80498e-10
1.87218e-08
-1.77124e-09
1.74753e-09
1.51366e-08
-1.4606e-09
2.85014e-09
1.08864e-08
-1.13359e-09
3.20828e-09
7.05981e-09
-8.71302e-10
2.60202e-09
4.39026e-09
-7.28276e-10
1.29872e-09
3.15775e-09
-6.77638e-10
-2.2673e-10
3.02495e-09
-6.48873e-10
-1.30817e-09
3.44716e-09
-5.61588e-10
-1.46544e-09
3.77296e-09
-2.30509e-10
-6.58158e-10
3.60931e-09
3.37756e-10
6.28066e-10
3.62951e-09
9.23988e-10
1.80318e-09
3.92318e-09
1.43547e-09
2.52801e-09
4.68831e-09
1.64963e-09
2.80279e-09
5.79869e-09
1.47369e-09
2.8848e-09
6.66012e-09
1.05966e-09
3.05174e-09
6.76232e-09
7.01683e-10
3.32057e-09
5.96812e-09
5.59736e-10
3.50049e-09
4.39819e-09
5.93728e-10
3.12237e-09
2.68593e-09
7.60204e-10
1.78974e-09
1.70084e-09
7.36579e-10
-8.21623e-11
1.92456e-09
2.88223e-10
-1.77494e-09
2.95523e-09
-4.35599e-10
-2.51595e-09
3.9889e-09
-1.01164e-09
-2.18945e-09
4.2649e-09
-1.03342e-09
-1.28613e-09
4.51956e-09
-8.15146e-10
-2.92915e-10
4.82641e-09
-6.65336e-10
-2.03262e-10
5.30683e-09
-9.96213e-10
6.36984e-09
-2.98583e-09
-1.76285e-09
1.70844e-08
-1.76285e-09
3.50369e-10
2.17337e-08
-1.35176e-09
2.00569e-09
1.79934e-08
-1.32155e-09
3.45659e-09
1.43155e-08
-1.02403e-09
4.51341e-09
1.00621e-08
-6.24671e-10
4.77678e-09
6.55408e-09
-1.44614e-10
4.197e-09
4.30966e-09
2.81004e-10
3.12305e-09
3.27024e-09
5.91064e-10
2.00193e-09
2.85984e-09
9.25253e-10
1.27129e-09
2.43309e-09
1.39283e-09
9.25149e-10
1.7937e-09
1.98184e-09
6.23318e-10
8.64052e-10
2.71085e-09
1.26805e-10
6.59144e-10
3.13717e-09
-5.26663e-10
1.32859e-09
2.92439e-09
-1.01974e-09
2.65081e-09
2.21264e-09
-8.63193e-10
3.99626e-09
1.33327e-09
-3.95481e-12
4.84503e-09
6.47657e-10
1.26927e-09
4.81129e-09
3.71837e-10
2.37324e-09
4.20874e-09
3.47331e-10
2.57994e-09
3.44504e-09
4.29695e-10
1.43643e-09
3.15053e-09
3.44229e-10
-5.85537e-10
3.64233e-09
-2.83968e-10
-2.5489e-09
4.75053e-09
-1.27035e-09
-3.42287e-09
5.25551e-09
-1.8913e-09
-2.81028e-09
4.68025e-09
-1.83881e-09
-1.63501e-09
4.11513e-09
-1.63861e-09
-7.55294e-10
4.63449e-09
-1.6881e-09
-7.32527e-10
6.22267e-09
-2.18649e-09
-1.56348e-09
8.83352e-09
-3.52029e-09
7.50268e-09
-3.43189e-09
-9.84685e-10
1.87883e-08
-9.84685e-10
1.36563e-09
1.92123e-08
-4.43326e-10
3.23519e-09
1.57112e-08
-1.37005e-10
4.78377e-09
1.17341e-08
4.96543e-10
5.7121e-09
7.60113e-09
1.01597e-09
5.90259e-09
4.43538e-09
1.43914e-09
5.41883e-09
2.56121e-09
1.77662e-09
4.62062e-09
1.51482e-09
2.13496e-09
3.73166e-09
8.35907e-10
2.53204e-09
2.83391e-09
8.73523e-11
2.89907e-09
1.55364e-09
-4.18736e-10
3.18156e-09
-3.28619e-10
-4.84416e-10
2.94857e-09
-2.37499e-09
2.23804e-10
2.22375e-09
-3.94676e-09
1.51855e-09
1.14315e-09
-4.51423e-09
3.00605e-09
-1.19238e-11
-3.66525e-09
3.626e-09
-6.92997e-10
-1.79213e-09
3.64096e-09
-8.78696e-10
5.19534e-11
3.50661e-09
-7.50866e-10
9.18689e-10
3.59107e-09
-4.70316e-10
3.42708e-10
4.29025e-09
-5.11019e-10
-1.21888e-09
5.46913e-09
-1.03297e-09
-2.88301e-09
6.71636e-09
-1.73626e-09
-3.43714e-09
6.80714e-09
-1.89715e-09
-2.59894e-09
5.36645e-09
-1.42933e-09
-1.32086e-09
3.3736e-09
-5.50641e-10
-7.04671e-10
2.8039e-09
9.69986e-12
-7.97013e-10
4.05891e-09
-1.20867e-10
-1.22388e-09
6.48869e-09
-7.16277e-10
-1.04998e-09
8.998e-09
-1.27585e-09
5.882e-09
-2.28512e-10
3.64734e-10
1.76965e-08
3.64733e-10
2.85344e-09
1.48695e-08
1.11474e-09
4.62979e-09
1.17696e-08
1.50818e-09
5.8152e-09
7.87753e-09
2.0437e-09
6.13526e-09
4.18034e-09
2.51524e-09
5.6271e-09
1.66913e-09
2.74398e-09
4.74329e-09
3.26904e-10
2.6524e-09
3.82217e-09
-3.60177e-10
2.40057e-09
2.82645e-09
-6.69147e-10
2.17663e-09
1.42324e-09
-6.81029e-10
1.91601e-09
-5.99853e-10
-1.31216e-10
1.5425e-09
-3.0278e-09
1.12453e-09
6.80018e-10
-5.2828e-09
2.75519e-09
-3.71235e-10
-6.32441e-09
3.71027e-09
-1.21112e-09
-5.68181e-09
3.77753e-09
-1.45181e-09
-3.77084e-09
3.02158e-09
-1.33119e-09
-1.63059e-09
2.30714e-09
-8.28379e-10
-5.20668e-10
2.76028e-09
-3.93685e-10
-7.99347e-10
4.22572e-09
-4.06594e-10
-2.01773e-09
6.43926e-09
-1.0161e-09
-3.12399e-09
8.19098e-09
-1.75256e-09
-3.09802e-09
8.41081e-09
-1.92733e-09
-1.7893e-09
6.45703e-09
-1.25402e-09
-1.79416e-10
3.28679e-09
6.96654e-11
2.93554e-10
1.50816e-09
8.76654e-10
-3.41355e-10
2.03742e-09
7.68168e-10
-1.02131e-09
3.54717e-09
4.5171e-10
-1.10802e-09
5.17649e-09
5.76801e-10
-1.68435e-10
6.29332e-09
8.98668e-10
4.47816e-09
5.39337e-10
1.67662e-09
1.39147e-08
1.67662e-09
3.99084e-09
9.2793e-09
2.4796e-09
5.30188e-09
6.848e-09
2.9087e-09
5.5455e-09
3.87181e-09
3.10676e-09
4.73824e-09
1.45289e-09
2.94361e-09
3.40758e-09
8.11719e-11
2.40933e-09
2.16292e-09
-6.32291e-10
1.78919e-09
1.21341e-09
-9.47695e-10
1.22412e-09
2.71663e-10
-8.45167e-10
9.07997e-10
-1.11622e-09
1.46373e-12
5.94632e-10
-3.07133e-09
1.61906e-09
1.84346e-10
-4.99223e-09
3.45902e-09
-3.56218e-10
-5.95608e-09
4.4906e-09
-6.50753e-10
-5.51304e-09
4.02485e-09
-5.89429e-10
-3.82988e-09
2.39227e-09
-9.88028e-11
-1.95491e-09
7.66238e-10
5.9455e-10
-1.08248e-09
4.20826e-10
1.22697e-09
-1.49892e-09
2.15002e-09
1.22259e-09
-2.84026e-09
5.26586e-09
4.63309e-10
-3.7585e-09
8.01007e-09
-5.41644e-10
-3.47827e-09
8.83812e-09
-8.85428e-10
-1.72174e-09
6.87728e-09
-2.66941e-10
2.19769e-10
3.5157e-09
8.55344e-10
6.8299e-10
1.05126e-09
1.51764e-09
-4.12865e-10
9.96815e-10
1.24082e-09
-1.666e-09
2.55788e-09
2.63911e-10
-2.09035e-09
3.59476e-09
-1.72771e-10
-1.56386e-09
4.05802e-09
-5.19044e-12
-4.9714e-10
4.73263e-09
-1.10295e-10
3.3187e-09
2.3435e-10
2.72639e-09
8.00687e-09
2.72639e-09
4.10349e-09
4.03746e-09
3.08775e-09
4.60952e-09
2.54054e-09
3.12222e-09
3.90948e-09
1.06737e-09
2.88396e-09
2.39953e-09
7.94839e-11
2.34231e-09
8.36414e-10
-4.81176e-10
1.68356e-09
-3.35716e-10
-9.65358e-10
1.17666e-09
-1.14521e-09
-1.32245e-09
9.76938e-10
-1.98762e-09
-9.99169e-10
9.11764e-10
-3.16994e-09
4.20099e-10
7.96878e-10
-4.42741e-09
2.44933e-09
5.68086e-10
-5.07214e-09
3.9805e-09
3.57359e-10
-4.50882e-09
3.7796e-09
4.57599e-10
-2.82823e-09
1.76024e-09
9.50075e-10
-1.10881e-09
-5.03957e-10
1.57865e-09
-6.06781e-10
-1.48382e-09
2.16461e-09
-1.38349e-09
-1.87246e-10
1.79494e-09
-2.75661e-09
2.89959e-09
1.00619e-09
-3.71353e-09
6.44149e-09
1.15423e-10
-3.23438e-09
7.77788e-09
1.94306e-11
-1.32616e-09
6.20986e-09
9.01812e-10
6.02753e-10
3.02774e-09
2.00555e-09
8.55822e-10
2.82129e-10
2.96332e-09
-8.92351e-10
1.09802e-11
2.67333e-09
-2.86233e-09
1.18301e-09
1.58592e-09
-3.76978e-09
2.19e-09
1.02087e-09
-3.66754e-09
2.42792e-09
7.88334e-10
-2.57767e-09
2.11937e-09
5.88597e-10
-3.86728e-10
1.20648e-09
1.12396e-09
-1.28898e-10
2.99869e-09
2.83517e-09
1.89761e-09
2.83517e-09
3.41979e-09
-2.18343e-10
2.99099e-09
3.32542e-09
-8.34015e-10
2.87836e-09
2.23067e-09
-8.83223e-10
2.516e-09
6.26231e-10
-7.59569e-10
1.99484e-09
-8.19091e-10
-9.07565e-10
1.52152e-09
-1.94312e-09
-1.40516e-09
1.3248e-09
-2.89124e-09
-1.74282e-09
1.24752e-09
-3.99571e-09
-9.76515e-10
1.08005e-09
-5.00875e-09
8.12305e-10
7.33774e-10
-5.37631e-09
2.68823e-09
3.46908e-10
-4.59655e-09
3.36602e-09
1.44694e-10
-2.73603e-09
1.91994e-09
3.83755e-10
-8.92385e-10
-4.97517e-10
8.53624e-10
-1.46226e-10
-2.00487e-09
1.2275e-09
-7.03058e-10
-1.26018e-09
8.15917e-10
-1.91509e-09
1.47673e-09
1.64993e-11
-2.46827e-09
4.5233e-09
-6.40962e-10
-1.4928e-09
6.10101e-09
-2.67684e-10
7.56277e-10
4.99771e-09
8.15673e-10
2.75903e-09
2.11577e-09
2.27965e-09
2.6754e-09
-1.54348e-10
3.35377e-09
3.23585e-10
-5.99516e-10
3.23035e-09
-2.59235e-09
7.13389e-10
2.14314e-09
-4.1393e-09
8.84747e-10
1.74493e-09
-4.26657e-09
-9.64329e-11
2.32972e-09
-4.14068e-09
-3.01571e-11
2.31086e-09
-2.01236e-09
-1.6999e-09
1.76745e-09
1.41315e-09
-5.75585e-09
3.72296e-09
-3.43039e-09
4.99135e-09
2.62541e-09
-3.7323e-09
2.62541e-09
2.60428e-09
-3.34284e-09
2.63779e-09
2.11257e-09
-3.0803e-09
2.30029e-09
1.02799e-09
-1.93148e-09
1.74685e-09
-3.68997e-10
-1.01971e-09
1.33532e-09
-1.63387e-09
-8.12086e-10
9.22535e-10
-2.88369e-09
-1.03473e-09
7.14956e-10
-4.31981e-09
-8.57576e-10
4.7283e-10
-5.65062e-09
3.39321e-10
2.40212e-11
-6.43583e-09
2.26494e-09
-5.74056e-10
-5.93556e-09
3.14801e-09
-7.8816e-10
-4.01823e-09
2.07571e-09
-3.86209e-10
-1.69522e-09
-1.92842e-10
8.67304e-11
-1.93118e-10
-2.2408e-09
5.77904e-10
-8.02943e-11
-2.34186e-09
5.80963e-10
-6.27573e-10
-5.26241e-10
1.67645e-10
-6.82818e-10
2.01212e-09
-1.53099e-10
7.23782e-10
3.26396e-09
1.27087e-10
3.0944e-09
2.76076e-09
1.16813e-09
5.06777e-09
7.82461e-10
2.34707e-09
4.72665e-09
-5.63091e-10
3.02443e-09
2.44627e-09
-5.41406e-10
2.57907e-09
-6.95842e-10
7.33755e-10
1.65441e-09
-2.94589e-09
2.00267e-09
7.8597e-10
-3.30128e-09
2.11379e-10
8.92976e-10
-2.89934e-09
-2.27607e-09
1.74314e-09
-2.35142e-09
-2.69057e-09
2.22876e-09
-3.60194e-10
-6.01397e-09
2.61041e-09
1.08552e-09
-9.84549e-09
3.0808e-09
-2.18447e-09
2.86985e-10
1.84875e-09
-7.70404e-09
1.84875e-09
1.49517e-09
-4.8012e-09
1.5442e-09
9.3214e-10
-3.71557e-09
9.72293e-10
1.37423e-10
-1.77944e-09
4.47149e-10
-7.11713e-10
-3.76203e-10
4.02995e-11
-1.72728e-09
1.88705e-10
-1.21057e-10
-3.09879e-09
4.47031e-10
-2.16974e-10
-4.83138e-09
1.20665e-09
-4.08902e-10
-6.21473e-09
2.42025e-09
-7.44015e-10
-6.28276e-09
3.04888e-09
-7.29992e-10
-4.74044e-09
1.91543e-09
-2.90677e-10
-2.42133e-09
-5.36866e-10
3.43973e-10
-3.86231e-10
-3.19825e-09
1.04657e-09
4.29282e-10
-4.47183e-09
1.50695e-09