/*--------------------------------*- C++ -*----------------------------------*\
| =========                 |                                                 |
| \\      /  F ield         | OpenFOAM: The Open Source CFD Toolbox           |
|  \\    /   O peration     | Version:  2312                                  |
|   \\  /    A nd           | Website:  www.openfoam.com                      |
|    \\/     M anipulation  |                                                 |
\*---------------------------------------------------------------------------*/
FoamFile
{
    version     2.0;
    format      ascii;
    arch        "LSB;label=32;scalar=64";
    class       volScalarField;
    location    "1.1552399";
    object      alpha.water;
}
// * * * * * * * * * * * * * * * * * * * * * * * * * * * * * * * * * * * * * //

dimensions      [0 0 0 0 0 0 0];

internalField   nonuniform List<scalar> 
90000
(
1
1.00005
1.00004
1.00004
1.00003
1.00003
1.00002
1.00001
1
0.999997
0.999992
0.999989
0.999989
0.999991
0.999996
1
1.00001
1.00001
1.00002
1.00002
1.00001
1.00001
1.00001
1
1
1.00001
1.00001
1.00002
1.00002
1.00002
1.00005
1.00007
1.00006
1.00005
1.00004
1.00003
1.00002
1.00001
0.999997
0.999989
0.999983
0.999982
0.999984
0.99999
0.999999
1.00001
1.00002
1.00002
1.00002
1.00002
1.00001
1.00001
1
1.00001
1.00001
1.00002
1.00002
1.00001
0.999966
0.999803
1.00004
1.00005
1.00004
1.00004
1.00003
1.00002
1.00001
1.00001
0.999999
0.999992
0.999987
0.999984
0.999983
0.999984
0.999987
0.99999
0.999994
0.999997
0.999998
0.999999
0.999998
0.999998
0.999999
1
1.00001
1.00002
1.00004
1.00009
1.00017
0.999993
1.00003
1.00003
1.00002
1.00002
1.00002
1.00001
1.00001
1.00001
1
0.999999
0.999994
0.999989
0.999984
0.99998
0.999977
0.999975
0.999975
0.999977
0.99998
0.999984
0.999989
0.999993
0.999998
1
1.00001
1.00001
1
0.999995
1.00007
1.00002
1.00001
0.999999
0.999999
0.999999
1
1
1.00001
1.00001
1.00001
1.00001
1.00001
1
0.999994
0.999986
0.999979
0.999973
0.99997
0.999971
0.999975
0.999981
0.999988
0.999995
1
1
1.00001
1.00002
1.00002
1.00001
1.00003
1
0.999996
0.999972
0.999977
0.999981
0.999987
0.999995
1
1.00001
1.00002
1.00002
1.00002
1.00002
1.00001
1
0.999992
0.999985
0.999979
0.999978
0.999981
0.999987
0.999994
1
1.00001
1.00001
1.00001
1.00001
1.00001
1
0.999997
0.999987
0.99998
0.999953
0.99996
0.999967
0.999976
0.999987
0.999999
1.00001
1.00002
1.00002
1.00003
1.00003
1.00002
1.00001
1.00001
0.999999
0.999993
0.999989
0.99999
0.999994
0.999999
1.00001
1.00001
1.00001
1.00001
1.00001
1
0.999991
0.999983
0.999984
0.999969
0.999945
0.999954
0.999961
0.99997
0.99998
0.99999
1
1.00001
1.00001
1.00002
1.00002
1.00002
1.00002
1.00001
1.00001
1
0.999996
0.999995
0.999996
1
1.00001
1.00001
1.00001
1.00001
1
0.999994
0.999987
0.999987
0.999996
0.999966
0.999955
0.999962
0.999967
0.999973
0.999979
0.999984
0.999989
0.999994
0.999998
1
1.00001
1.00001
1.00001
1.00001
1.00001
1
0.999999
0.999997
0.999996
0.999997
0.999999
1
0.999999
0.999994
0.999989
0.999984
0.999987
0.999995
1
0.999973
0.999981
0.999985
0.999987
0.999989
0.999988
0.999987
0.999986
0.999985
0.999987
0.99999
0.999995
1
1
1.00001
1.00001
1
1
0.999999
0.999997
0.999994
0.999991
0.999986
0.99998
0.999974
0.999972
0.999975
0.999985
0.999994
0.999994
0.999992
1.00002
1.00002
1.00002
1.00001
1.00001
0.999998
0.99999
0.999985
0.999983
0.999984
0.999987
0.999992
0.999997
1
1
1
1
1
0.999998
0.999992
0.999984
0.999976
0.999968
0.999964
0.999966
0.999974
0.999983
0.999984
0.99998
1.00002
1.00005
1.00004
1.00004
1.00003
1.00002
1.00001
0.999994
0.999986
0.999982
0.99998
0.999981
0.999984
0.999987
0.999991
0.999996
0.999999
1
1
0.999997
0.99999
0.999981
0.999973
0.999968
0.999969
0.999975
0.999981
0.999981
0.999975
0.999976
1.00003
1.00005
1.00005
1.00004
1.00002
1.00001
0.999998
0.999989
0.999982
0.999977
0.999974
0.999973
0.999973
0.999975
0.999979
0.999984
0.99999
0.999994
0.999996
0.999994
0.999988
0.999982
0.999978
0.999977
0.999979
0.999982
0.99998
0.999973
0.999968
0.999975
1.00003
1.00003
1.00002
1.00001
0.999996
0.999987
0.999981
0.999977
0.999976
0.999974
0.999972
0.99997
0.999969
0.99997
0.999974
0.99998
0.999986
0.999992
0.999994
0.999993
0.99999
0.999987
0.999985
0.999985
0.999983
0.999978
0.999968
0.999958
0.999956
0.999961
1.00001
0.99998
0.999975
0.999969
0.999966
0.999967
0.999971
0.999976
0.999981
0.999983
0.999982
0.99998
0.999978
0.999979
0.999982
0.999988
0.999993
0.999997
0.999999
0.999999
0.999998
0.999997
0.999996
0.999994
0.999986
0.999974
0.999962
0.999955
0.999954
0.999958
0.999982
0.999942
0.999946
0.999949
0.999957
0.999968
0.999979
0.99999
0.999996
0.999998
0.999997
0.999994
0.999993
0.999993
0.999996
0.999999
1
1
1
1
1.00001
1.00001
1.00001
1.00001
1
0.999991
0.999985
0.999985
0.999985
0.999997
0.999961
0.999934
0.999946
0.999956
0.99997
0.999983
0.999995
1
1
1
1
0.999999
0.999999
1
1
1
1
1
1
1
1.00001
1.00001
1.00002
1.00002
1.00002
1.00002
1.00002
1.00003
1.00004
1.00005
0.999962
0.999952
0.999964
0.999975
0.999985
0.999993
0.999998
0.999999
0.999997
0.999995
0.999995
0.999998
1
1.00001
1.00001
1
0.999998
0.999994
0.999994
0.999997
1
1.00001
1.00001
1.00001
1.00001
1.00002
1.00003
1.00004
1.00004
1.00003
0.999975
0.999973
0.99998
0.999985
0.999989
0.999991
0.99999
0.999989
0.999988
0.999991
0.999998
1.00001
1.00001
1.00002
1.00001
1
0.999995
0.99999
0.99999
0.999993
0.999997
0.999998
0.999996
0.999992
0.999993
0.999997
1
1
0.999994
0.999966
0.999987
0.999985
0.999986
0.999988
0.99999
0.999992
0.999993
0.999995
0.999999
1.00001
1.00002
1.00002
1.00003
1.00002
1.00001
0.999998
0.99999
0.999988
0.99999
0.999993
0.999992
0.999988
0.999982
0.99998
0.999983
0.999986
0.999983
0.999971
0.999952
0.999944
0.999991
0.999993
0.999996
1
1
1.00001
1.00001
1.00002
1.00002
1.00002
1.00003
1.00002
1.00002
1
0.99999
0.999983
0.999984
0.999989
0.999995
0.999995
0.999991
0.999986
0.999984
0.99999
0.999999
1
0.999995
0.999982
0.999974
0.999996
0.999997
1.00001
1.00001
1.00002
1.00003
1.00003
1.00003
1.00003
1.00003
1.00002
1.00002
1
0.999991
0.99998
0.999977
0.999983
0.999995
1
1.00001
1
0.999995
0.999991
0.999997
1.00001
1.00001
1.00001
1
1
1.00001
1.00002
1.00001
1.00003
1.00003
1.00003
1.00003
1.00003
1.00003
1.00002
1.00002
1.00001
1
0.999991
0.999982
0.999981
0.999991
1.00001
1.00002
1.00002
1.00002
1.00001
1
1
1.00001
1.00002
1.00001
1
0.999998
1
1
0.99999
1.00002
1.00003
1.00003
1.00002
1.00002
1.00002
1.00002
1.00002
1.00002
1.00001
1
0.999993
0.99999
0.999996
1.00001
1.00002
1.00002
1.00001
0.999999
0.999995
1
1.00002
1.00003
1.00003
1.00001
1
1
1
0.999988
0.999993
1.00002
1.00001
1.00001
1.00001
1.00001
1.00001
1.00001
1.00002
1.00002
1.00001
1
0.999992
0.99999
0.999995
0.999999
0.999996
0.999986
0.999976
0.999975
0.999988
1.00001
1.00003
1.00003
1.00002
1.00001
1.00001
1.00001
1.00001
1.00001
1.00003
1
0.999994
0.999994
0.999994
0.999996
1
1.00001
1.00001
1.00001
0.999998
0.99999
0.999987
0.999989
0.999993
0.999992
0.999984
0.999976
0.999975
0.999988
1.00001
1.00003
1.00003
1.00002
1.00001
1.00001
1.00001
1
1.00001
1.00003
1.00001
0.999994
0.999981
0.999982
0.999983
0.999986
0.999991
0.999996
0.999997
0.999994
0.999992
0.999993
1
1.00001
1.00002
1.00001
1.00001
1
1.00001
1.00003
1.00003
1.00003
1.00001
0.999998
0.999993
0.999997
0.999997
0.999992
1
1
0.999961
0.999988
0.999973
0.999975
0.999976
0.99998
0.999985
0.999988
0.99999
0.999991
0.999996
1.00001
1.00002
1.00003
1.00003
1.00002
1.00002
1.00002
1.00003
1.00003
1.00002
1
0.999992
0.999994
0.999998
1
1
1.00001
0.999999
0.99997
0.999985
0.999984
0.999973
0.999976
0.999978
0.99998
0.999981
0.999981
0.99998
0.999984
0.999993
1
1.00001
1.00001
1.00001
1
1.00001
1.00001
1.00001
1
0.999991
0.99998
0.999983
0.999998
1
1
1.00001
1.00001
0.999983
0.999986
1.00003
0.999985
0.99998
0.999982
0.99998
0.999976
0.999972
0.999968
0.999968
0.999975
0.999987
0.999999
1
1
1
1
1.00001
1.00001
1
0.999992
0.999987
0.999987
0.999988
0.999995
0.999996
0.999993
0.999999
0.999996
0.999984
1.00002
1.00002
0.99999
0.999984
0.999981
0.999976
0.999971
0.999969
0.99997
0.999978
0.99999
1
1.00001
1.00001
1.00001
1.00001
1.00002
1.00002
1.00001
1.00001
0.999997
1
1
0.999989
0.999982
0.999989
0.999986
0.999979
0.999988
1.00001
1.00002
1
0.999991
0.999982
0.999981
0.999981
0.999984
0.999988
0.999992
0.999997
1
1
1
1
1
1
1.00001
1.00001
1
1
1
1
0.999998
0.999977
0.999971
0.999985
0.999976
0.99996
0.999993
1.00001
0.999993
1
0.99999
0.999989
0.999994
1
1
1
0.999994
0.999986
0.999979
0.999974
0.999974
0.999978
0.999987
0.999996
0.999999
0.999996
0.999992
1
0.999995
0.999976
0.999969
0.999964
0.999964
0.99997
0.99996
0.99996
1
0.999998
0.999993
0.999992
0.999995
1
1.00001
1.00001
1
0.999988
0.999975
0.999967
0.999964
0.999968
0.999979
0.999992
1
1
0.999998
0.999992
0.99998
0.99998
0.99997
0.999945
0.999952
0.999973
0.999966
0.999953
0.999966
0.99999
1.00001
0.999997
0.999993
0.999988
1
1.00001
1.00001
1
0.999994
0.999985
0.999978
0.999976
0.999981
0.99999
1
1.00001
1
0.999993
0.999981
0.999988
0.999978
0.999975
0.999976
0.999969
0.999987
1.00001
0.999983
0.999968
1.00001
1.00002
1
0.999993
0.999983
1
1
1.00001
1.00001
1
0.999997
0.99999
0.999985
0.999985
0.999988
0.999992
0.999993
0.99999
0.999984
0.999983
0.99998
1.00001
1
0.999995
1.00001
1.00001
1.00002
1.00002
0.999991
0.999998
1.00004
1.00002
0.999987
0.999982
1
1.00001
1.00001
1.00001
1.00001
0.999998
0.999988
0.999982
0.999981
0.999983
0.999984
0.999983
0.999978
0.999976
0.999977
1
1
1.00002
1.00001
0.999996
1.00001
1.00002
1
1
0.999998
1.00002
1.00003
0.999991
0.999987
1
1.00002
1.00001
1.00001
1
0.999992
0.999985
0.999986
0.999991
0.999994
0.99999
0.999986
0.999983
0.999984
0.999992
0.999986
1.00002
1.00001
1.00001
1.00001
1.00001
1.00002
1.00003
0.99999
1
1.00002
1.00001
0.999995
0.999984
1
1.00001
0.999993
1
1
0.999986
0.999989
0.999997
1
1.00001
1
0.999998
0.999998
0.999999
0.999999
1.00002
0.999991
1.00001
1.00002
0.999998
0.999997
1.00001
1.00001
1.00001
0.999979
1.00001
1.00001
0.999986
0.999981
1
1
0.999983
0.999995
1.00003
0.999992
0.999993
1
1
1
1
1
1
1.00001
1
0.999983
1.00001
1
0.999988
1.00001
0.999987
0.999977
0.999989
1
0.999989
0.999986
1.00001
1.00001
0.999989
0.999996
1.00002
0.999986
0.999989
1.00005
1.00004
0.999997
0.999995
0.999994
0.999999
1
1
0.999991
0.999984
0.999988
1
0.99999
0.999983
1.00002
0.99997
0.999993
0.999997
1
0.999992
1.00002
0.999997
0.999997
1
1.00001
1.00001
0.999989
0.999999
1.00001
1.00003
1.00003
1.00001
0.999994
0.999994
1.00001
1.00001
0.999992
0.999979
0.99999
1
1
1
1.00002
0.999971
1.00003
1.00001
1
0.99999
1.00002
0.999991
1.00001
0.999996
1
1.00001
1.00001
1.00002
0.999982
0.999978
1.00003
1.00003
0.999974
0.999964
0.999997
1.00002
1.00001
0.999987
0.999986
1
1.00002
1.00001
1.00002
1
1.00001
0.999994
1.00001
0.999997
0.999991
0.999984
1.00002
1
0.999991
0.999986
1.00002
1.00002
0.999974
0.99996
1.00002
1.00001
0.999977
0.999993
1.00002
0.999985
1.00001
1
0.999977
1
1.00003
0.999992
0.999993
1.00001
0.999992
0.999994
0.999966
1.00002
1.00001
0.999959
0.999992
1.00001
0.999981
0.999981
1.00001
1
0.999973
0.999986
1.00002
0.999962
0.999995
1.00002
0.999975
0.999998
1.00002
0.999963
0.999997
0.999981
1.00001
1.00001
0.999983
0.999999
1.00002
0.999993
0.99997
1.00008
0.999995
0.999958
1.00003
0.999996
0.999982
1
0.999999
1.00001
0.999987
0.999985
1.00002
0.999987
0.999989
1.00002
0.99997
0.999976
1.00002
1.00003
0.999964
0.999882
0.999985
1.00001
1.00001
0.999955
0.999993
1.00002
0.999987
1.00004
0.999967
0.99997
1.00003
0.999988
1.00001
0.999998
0.999949
1.00001
1.00001
0.999981
0.999985
0.999994
0.999975
1.00002
0.999983
0.999981
0.999994
1
0.999999
0.999997
1.00002
0.999848
1
0.999983
0.999978
0.999966
0.999989
1.00001
0.999983
1.00001
0.999991
0.999981
0.999998
0.999981
0.999992
0.999958
0.999994
1.00002
0.999963
0.999985
1.00002
1.00001
0.99999
0.999986
0.999994
1.00002
0.999995
0.999954
0.999998
0.99999
1.00001
0.999882
0.999989
0.99966
0.99994
0.999974
0.999849
0.999953
0.999979
1.00001
0.999975
1.00002
0.999994
0.999979
0.999997
0.999997
0.999997
0.999975
1
1.00001
0.999994
0.99999
1.00002
1.00001
0.999997
0.999991
0.999942
0.999844
0.999986
0.99993
0.999763
0.999909
0.999987
0.999973
0.99997
0.999993
0.999996
1
1.00002
1
1
1.00001
1
0.999998
0.999996
0.999997
0.999997
0.999986
0.999996
1
1
1.00001
1
1
1
1
1
0.999996
0.999992
0.999973
0.999976
0.999937
0.908064
0.876858
0.891471
0.873941
0.896316
0.882153
0.888524
0.87036
0.863035
0.86543
0.830289
0.847267
0.815996
0.807527
0.832092
0.83166
0.810175
0.815622
0.845626
0.83385
0.866265
0.862491
0.870016
0.887637
0.882414
0.89744
0.873532
0.890848
0.878016
0.907882
0.345598
0.25318
0.324661
0.2386
0.267333
0.213915
0.231949
0.187841
0.15946
0.171009
0.148782
0.165037
0.11739
0.101744
0.156199
0.151756
0.10479
0.115825
0.162746
0.151798
0.171916
0.158183
0.186932
0.230621
0.213347
0.270136
0.237573
0.325808
0.253078
0.345415
0.00100902
0.000619606
0.000861511
0.000587813
0.00015683
9.16206e-05
2.95249e-05
2.71822e-05
3.78448e-05
5.25222e-05
3.29898e-05
1.48445e-05
1.45932e-05
5.30182e-06
1.30428e-05
2.05126e-06
5.70161e-06
1.67708e-05
1.46709e-05
3.38478e-05
4.5635e-05
2.55859e-05
1.95684e-05
2.55859e-05
0.000148906
0.000169207
0.000342967
0.000895128
0.000624226
0.0010621
0.000781079
0.000605332
0.000734934
0.000946371
9.36082e-05
5.60923e-05
2.94808e-05
2.68585e-05
9.05196e-05
6.55139e-05
4.17822e-05
2.54684e-05
2.24684e-05
4.25556e-06
1.09408e-06
1.78991e-06
7.4456e-06
3.09232e-05
1.63823e-05
3.43221e-05
5.68484e-05
5.78534e-05
1.66897e-05
2.40116e-05
5.94709e-05
0.000137947
0.00119698
0.000579911
0.000599583
0.000959101
4.97138e-05
0.00012954
0.000174747
0.000137532
2.0186e-05
6.12448e-05
6.95539e-05
8.56951e-06
1.4873e-05
2.1611e-05
4.15605e-05
5.18321e-06
3.14713e-05
5.38252e-06
7.3251e-07
1.74939e-06
1.41795e-05
4.16473e-05
7.30788e-06
4.20226e-05
1.92191e-05
2.16434e-05
9.45718e-06
7.83866e-05
6.83151e-05
3.46862e-05
0.000138442
0.000230308
0.000123026
4.7204e-05
6.37605e-07
8.28093e-06
3.3925e-05
5.81378e-07
1.29746e-07
5.50011e-07
3.482e-06
1.87823e-06
1.70604e-06
3.50488e-06
6.31455e-06
2.78398e-06
7.78579e-06
1.12457e-05
3.37216e-06
3.54792e-06
1.3594e-05
1.08043e-05
5.21125e-06
5.61384e-06
9.06308e-07
1.42648e-06
1.68135e-06
3.66852e-06
3.99523e-07
1.35179e-07
5.93167e-07
3.57173e-05
7.98172e-06
7.01559e-07
2.92714e-07
5.05267e-07
1.73626e-06
4.43004e-07
5.71695e-08
4.17588e-08
5.01618e-10
1.47164e-07
1.16015e-06
8.11643e-07
2.86186e-08
2.40193e-06
5.75077e-06
7.53158e-06
5.92146e-06
5.71756e-06
6.06878e-06
5.49528e-06
3.40304e-06
2.30069e-07
6.49054e-07
1.0124e-06
1.32468e-07
4.61689e-10
4.51167e-08
6.17344e-08
4.96978e-07
1.63193e-06
4.12923e-07
3.03217e-07
1.67132e-08
3.70064e-08
1.39193e-07
2.55688e-07
1.42236e-07
1.10991e-08
3.54305e-10
5.17357e-09
3.5692e-08
6.62785e-10
1.54666e-08
4.67077e-07
5.37904e-07
8.97987e-07
4.94646e-06
5.52575e-06
6.50893e-07
5.32262e-08
2.53143e-07
9.95087e-09
4.69203e-08
3.96078e-08
4.19386e-09
3.41999e-10
1.38137e-08
1.93838e-07
3.03316e-07
1.36607e-07
3.54848e-08
1.7001e-08
1.25285e-09
5.18951e-09
7.54424e-09
3.77869e-08
4.70428e-08
3.39413e-09
3.76276e-10
8.16043e-11
2.97723e-11
7.81174e-11
4.73836e-10
7.41486e-10
1.71928e-09
3.87802e-09
4.97037e-07
8.13679e-07
3.38126e-09
9.81597e-10
5.36621e-10
7.36936e-11
5.23899e-11
2.9002e-11
9.40883e-11
3.40016e-10
3.72367e-09
5.99631e-08
4.63397e-08
8.14138e-09
4.80354e-09
1.21849e-09
3.78707e-10
9.96826e-10
5.16415e-10
2.08925e-09
8.66319e-10
3.71925e-10
1.32211e-10
4.4127e-11
2.8773e-11
5.87821e-11
3.42823e-11
3.15691e-11
1.13384e-10
3.41691e-10
1.64654e-09
2.26419e-09
3.62531e-10
1.80518e-10
2.92425e-11
3.57148e-11
4.18791e-11
2.77451e-11
4.29988e-11
1.15152e-10
3.29338e-10
9.3914e-10
2.53761e-09
5.40194e-10
9.32861e-10
3.74752e-10
2.37007e-10
3.27294e-10
1.32449e-10
1.09799e-10
6.35136e-11
5.53773e-11
3.06092e-11
1.24419e-11
9.09156e-12
1.22839e-11
9.94936e-12
8.48871e-12
2.41779e-11
4.74142e-11
7.06955e-11
9.20512e-11
4.68578e-11
3.38347e-11
1.01711e-11
1.05652e-11
1.15932e-11
8.85038e-12
1.1982e-11
2.74377e-11
4.80203e-11
4.65462e-11
1.2578e-10
1.34546e-10
3.21872e-10
2.39997e-10
4.82445e-11
8.05384e-11
3.95132e-11
1.89457e-11
1.51386e-11
6.16414e-12
2.96461e-12
1.6477e-12
1.23776e-12
1.87138e-12
3.03294e-12
5.54112e-12
1.26293e-11
1.75372e-11
1.34203e-11
1.33788e-11
2.07592e-11
1.31452e-11
5.53406e-12
3.10108e-12
1.85829e-12
1.26748e-12
1.56808e-12
2.62271e-12
5.48579e-12
1.43355e-11
1.97652e-11
3.88549e-11
8.15106e-11
4.90792e-11
4.8244e-12
1.00899e-11
5.99633e-12
2.25702e-12
1.54047e-12
6.70702e-13
2.97149e-13
2.14735e-13
2.60591e-13
5.22012e-13
1.11301e-12
2.40953e-12
5.10416e-12
5.70663e-12
8.0107e-12
7.33268e-12
5.30626e-12
5.16311e-12
2.42527e-12
1.13411e-12
5.30413e-13
2.65165e-13
2.11798e-13
2.75328e-13
6.06274e-13
1.48395e-12
2.10619e-12
5.99537e-12
1.03027e-11
4.87943e-12
3.55807e-13
7.03837e-13
5.65895e-13
2.42409e-13
9.4331e-14
3.5618e-14
1.44819e-14
1.18478e-14
1.93893e-14
4.70472e-14
1.23506e-13
3.21901e-13
6.99442e-13
1.12972e-12
1.69597e-12
1.66949e-12
1.10972e-12
7.0937e-13
3.26846e-13
1.26135e-13
4.85096e-14
1.97944e-14
1.19902e-14
1.37597e-14
3.23637e-14
8.97113e-14
2.42375e-13
5.75489e-13
7.17434e-13
3.604e-13
1.61904e-14
3.92039e-14
2.71162e-14
1.05193e-14
2.90373e-15
8.4681e-16
3.26054e-16
3.02949e-16
5.45622e-16
1.44837e-15
4.55199e-15
1.48728e-14
3.72556e-14
8.15204e-14
1.26831e-13
1.27171e-13
8.29297e-14
3.778e-14
1.51503e-14
4.66265e-15
1.49855e-15
5.6305e-16
3.07036e-16
3.08794e-16
7.66031e-16
2.77257e-15
1.07796e-14
2.78331e-14
4.01979e-14
1.64507e-14
3.80144e-16
1.17265e-15
6.31379e-16
2.09243e-16
5.66583e-17
1.5492e-17
6.45204e-18
7.41137e-18
1.44436e-17
3.88395e-17
1.23745e-16
4.15119e-16
1.16212e-15
2.72065e-15
4.45609e-15
4.45054e-15
2.74645e-15
1.17881e-15
4.25697e-16
1.28129e-16
4.03868e-17
1.50186e-17
7.49712e-18
6.12745e-18
1.38637e-17
5.39591e-17
2.14956e-16
6.52617e-16
1.21209e-15
3.88817e-16
6.35811e-18
2.13956e-17
1.1079e-17
3.55124e-18
9.58199e-19
2.59823e-19
1.27812e-19
1.82902e-19
3.84585e-19
1.02393e-18
3.11496e-18
9.98204e-18
2.74803e-17
6.23991e-17
1.02655e-16
1.03209e-16
6.30824e-17
2.78035e-17
1.0232e-17
3.23885e-18
1.06249e-18
3.98977e-19
1.86342e-19
1.2276e-19
2.33106e-19
9.17219e-19
3.66696e-18
1.14686e-17
2.21976e-17
6.50706e-18
8.9696e-20
3.30534e-19
1.69652e-19
5.37387e-20
1.39254e-20
3.80757e-21
2.35973e-21
4.06957e-21
8.90138e-21
2.3078e-20
6.78521e-20
2.08778e-19
5.50181e-19
1.21348e-18
1.97223e-18
1.97343e-18
1.22117e-18
5.60119e-19
2.14817e-19
7.05296e-20
2.40429e-20
9.28762e-21
4.21894e-21
2.31752e-21
3.4381e-21
1.35834e-20
5.63469e-20
1.78433e-19
3.44813e-19
9.34294e-20
1.06251e-21
4.32264e-21
2.22546e-21
6.83975e-22
1.73683e-22
4.86056e-23
4.03495e-23
8.04995e-23
1.75916e-22
4.36583e-22
1.22365e-21
3.58272e-21
9.15265e-21
1.97755e-20
3.14708e-20
3.14145e-20
1.98732e-20
9.355e-21
3.69212e-21
1.26544e-21
4.52871e-22
1.83088e-22
8.39739e-23
4.09655e-23
4.44438e-23
1.7043e-22
7.34806e-22
2.35679e-21
4.60512e-21
1.12573e-21
1.04556e-23
4.68952e-23
2.44408e-23
7.43483e-24
1.82374e-24
5.44599e-25
6.4296e-25
1.38768e-24
2.92693e-24
6.82798e-24
1.80261e-23
5.02359e-23
1.22905e-22
2.53575e-22
3.94277e-22
3.96757e-22
2.56386e-22
1.24294e-22
5.12837e-23
1.87617e-23
7.14334e-24
3.05759e-24
1.44892e-24
6.70117e-25
5.21115e-25
1.81167e-24
8.07847e-24
2.61134e-23
5.12382e-23
1.12322e-23
8.38321e-26
4.44248e-25
2.211e-25
6.77426e-26
1.59435e-26
5.75146e-27
9.36699e-27
2.02038e-26
4.00954e-26
8.75602e-26
2.17178e-25
5.66151e-25
1.29795e-24
2.56507e-24
3.969e-24
4.028e-24
2.64057e-24
1.32658e-24
5.78785e-25
2.2673e-25
9.22818e-26
4.23624e-26
2.1272e-26
9.79815e-27
5.73404e-27
1.64566e-26
7.49791e-26
2.4267e-25
4.74504e-25
9.30067e-26
5.80115e-28
3.27931e-27
1.67368e-27
5.02597e-28
1.18926e-28
5.82432e-29
1.17117e-28
2.45167e-28
4.60233e-28
9.32773e-28
2.10603e-27
4.93812e-27
1.05407e-26
2.01075e-26
3.04589e-26
3.04353e-26
2.03687e-26
1.09224e-26
5.18216e-27
2.2164e-27
9.82012e-28
4.90754e-28
2.64488e-28
1.25247e-28
5.98051e-29
1.27602e-28
5.8188e-28
1.88281e-27
3.66359e-27
6.4264e-28
3.26262e-30
1.95427e-29
1.06951e-29
3.14002e-30
7.72342e-31
5.41598e-31
1.23697e-30
2.51454e-30
4.38769e-30
8.00254e-30
1.61154e-29
3.42659e-29
6.90093e-29
1.249e-28
1.80645e-28
1.80868e-28
1.2836e-28
7.43394e-29
3.77728e-29
1.74978e-29
8.54417e-30
4.72235e-30
2.75093e-30
1.36035e-30
5.7843e-31
8.33405e-31
3.71161e-30
1.21503e-29
2.36767e-29
3.73379e-30
1.45055e-32
1.11813e-31
5.79554e-32
1.75047e-32
4.61265e-33
4.78983e-33
1.15577e-32
2.17541e-32
3.37059e-32
5.42289e-32
9.86047e-32
1.93231e-31
3.57221e-31
5.9173e-31
8.18628e-31
8.39652e-31
6.25306e-31
3.80871e-31
2.09125e-31
1.09559e-31
6.0968e-32
3.74001e-32
2.35028e-32
1.22967e-32
5.08514e-33
4.78238e-33
1.97895e-32
6.60183e-32
1.28491e-31
1.82864e-32
6.58748e-35
5.25015e-34
2.68301e-34
8.33045e-35
2.51338e-35
3.77628e-35
8.86895e-35
1.519e-34
2.13308e-34
3.14258e-34
5.17713e-34
8.79772e-34
1.38885e-33
2.0808e-33
2.84003e-33
3.01704e-33
2.3594e-33
1.55461e-33
9.67042e-34
5.79886e-34
3.59729e-34
2.41516e-34
1.65916e-34
9.48522e-35
4.04766e-35
2.62604e-35
9.08369e-35
3.02032e-34
5.76597e-34
7.48779e-35
2.43582e-37
1.74397e-36
1.01871e-36
3.08502e-37
1.24322e-37
2.45811e-37
5.56568e-37
8.9952e-37
1.18183e-36
1.58458e-36
2.23289e-36
3.1699e-36
4.47961e-36
6.53161e-36
8.75258e-36
8.96102e-36
7.08386e-36
5.14121e-36
3.68567e-36
2.51098e-36
1.73744e-36
1.3047e-36
1.00506e-36
6.33773e-37
2.82273e-37
1.3836e-37
3.48536e-37
1.12169e-36
2.09823e-36
2.5566e-37
6.04195e-40
5.56655e-39
3.29203e-39
9.95913e-40
5.97264e-40
1.44343e-39
3.22064e-39
4.80864e-39
5.60542e-39
6.31093e-39
7.30394e-39
9.19327e-39
1.24402e-38
1.67237e-38
1.93472e-38
1.81364e-38
1.5603e-38
1.3732e-38
1.17003e-38
8.98485e-39
6.94646e-39
5.908e-39
5.13787e-39
3.5557e-39
1.65845e-39
6.77562e-40
1.08952e-39
3.35065e-39
6.33405e-39
7.46114e-40
1.71961e-42
1.91027e-41
9.57967e-42
3.19688e-42
2.81332e-42
7.54526e-42
1.53706e-41
2.03979e-41
2.06761e-41
2.01155e-41
2.12359e-41
2.55698e-41
3.05578e-41
3.30134e-41
3.24948e-41
3.17058e-41
3.24245e-41
3.26706e-41
2.992e-41
2.50247e-41
2.23698e-41
2.24425e-41
2.25583e-41
1.71603e-41
8.40068e-42
3.16064e-42
3.09964e-42
8.67664e-42
1.68724e-41
1.94883e-42
5.47518e-45
4.74919e-44
2.39909e-44
9.69784e-45
1.26145e-44
3.17578e-44
5.77698e-44
7.07188e-44
6.45129e-44
5.78847e-44
5.74757e-44
5.99222e-44
5.47557e-44
4.74849e-44
4.57407e-44
5.02908e-44
5.46701e-44
5.54089e-44
5.46251e-44
5.55e-44
6.27595e-44
7.50424e-44
8.53657e-44
6.89891e-44
3.53503e-44
1.34378e-44
9.2344e-45
2.11881e-44
4.06703e-44
4.60883e-45
1.05598e-47
8.50403e-47
5.19779e-47
2.77128e-47
4.51902e-47
1.06745e-46
1.92534e-46
2.18175e-46
1.83002e-46
1.44345e-46
1.21069e-46
9.76373e-47
7.16892e-47
5.73561e-47
5.81567e-47
6.36468e-47
6.47583e-47
6.73086e-47
8.12235e-47
1.0746e-46
1.48089e-46
2.01042e-46
2.39686e-46
2.14088e-46
1.21578e-46
5.05211e-47
2.86056e-47
4.83908e-47
8.30316e-47
9.47194e-48
1.87194e-50
1.66459e-49
1.13909e-49
7.1701e-50
1.21829e-49
2.96143e-49
5.15868e-49
4.99854e-49
3.83806e-49
2.54985e-49
1.81754e-49
1.30004e-49
9.22948e-50
7.32287e-50
6.62381e-50
5.90481e-50
5.54764e-50
6.77362e-50
1.06122e-49
1.72438e-49
2.68673e-49
4.10067e-49
5.26364e-49
5.66254e-49
3.72525e-49
1.68558e-49
8.37373e-50
9.77299e-50
1.36268e-49
1.73529e-50
4.02856e-53
3.43806e-52
2.33956e-52
1.56949e-52
2.94872e-52
6.86639e-52
1.02874e-51
9.0861e-52
6.06048e-52
3.61349e-52
2.43535e-52
1.73567e-52
1.18656e-52
7.85395e-53
5.3868e-53
4.16878e-53
4.5528e-53
7.44139e-53
1.41982e-52
2.54794e-52
4.23266e-52
7.07055e-52
1.07458e-51
1.28295e-51
9.52077e-52
4.43505e-52
2.05865e-52
1.85504e-52
2.12508e-52
3.27938e-53
6.58923e-56
5.78727e-55
3.60426e-55
2.98029e-55
5.92789e-55
1.23858e-54
1.75724e-54
1.53306e-54
9.46481e-55
5.3904e-55
3.5647e-55
2.37086e-55
1.35112e-55
7.14934e-56
4.42085e-56
3.89604e-56
5.27835e-56
9.52813e-56
1.81573e-55
3.21537e-55
5.54432e-55
1.02426e-54
1.80474e-54
2.29782e-54
1.82715e-54
8.64529e-55
4.09774e-55
3.48985e-55
3.72475e-55
6.47474e-56
1.10943e-58
7.67807e-58
5.02422e-58
5.29696e-58
9.28576e-58
1.91638e-57
2.6971e-57
2.25994e-57
1.27735e-57
7.06987e-58
4.42462e-58
2.55539e-58
1.24795e-58
6.43592e-59
4.54371e-59
4.59762e-59
6.12829e-59
9.91597e-59
1.79719e-58
3.34061e-58
6.53525e-58
1.39394e-57
2.76062e-57
3.59294e-57
2.91138e-57
1.39505e-57
7.07613e-58
6.24251e-58
6.67533e-58
1.19598e-58
2.42277e-61
8.51393e-61
9.10517e-61
9.69848e-61
1.63012e-60
3.50776e-60
4.18e-60
3.17069e-60
1.63069e-60
8.59469e-61
4.80473e-61
2.45504e-61
1.17503e-61
6.85669e-62
5.42107e-62
5.34713e-62
6.43902e-62
9.84438e-62
1.94781e-61
4.25378e-61
9.53267e-61
2.16601e-60
4.27319e-60
5.27531e-60
4.11233e-60
1.99707e-60
1.09974e-60
1.0153e-60
1.10022e-60
1.97627e-61
2.05091e-64
1.50094e-63
1.84476e-63
1.76395e-63
3.13727e-63
6.1612e-63
6.13171e-63
4.59113e-63
2.30518e-63
1.14884e-63
5.75803e-64
2.73766e-64
1.33831e-64
8.12957e-65
6.12223e-65
5.51294e-65
6.55388e-65
1.10694e-64
2.5351e-64
6.09612e-64
1.37274e-63
2.93002e-63
5.48154e-63
6.42385e-63
5.17234e-63
2.72953e-63
1.64466e-63
1.57407e-63
1.70371e-63
3.01724e-64
3.3307e-67
3.92448e-66
3.0489e-66
2.81478e-66
4.60765e-66
7.60893e-66
7.23628e-66
5.72588e-66
2.8821e-66
1.33003e-66
6.04052e-67
2.68933e-67
1.24714e-67
6.86632e-68
4.59926e-68
4.04983e-68
5.42425e-68
1.09035e-67
2.77315e-67
6.67934e-67
1.42273e-66
2.94312e-66
5.87541e-66
7.37699e-66
7.03359e-66
4.13318e-66
2.57113e-66
2.43922e-66
2.55076e-66
4.36064e-67
9.93857e-70
5.18522e-69
3.75828e-69
3.67236e-69
5.51216e-69
8.52521e-69
8.29133e-69
6.4523e-69
2.99442e-69
1.21218e-69
4.92342e-70
2.03301e-70
8.67566e-71
4.29947e-71
2.781e-71
2.76063e-71
4.48219e-71
1.0267e-70
2.64746e-70
6.1076e-70
1.28796e-69
2.87367e-69
6.65964e-69
9.72728e-69
1.02613e-68
6.1623e-69
3.70771e-69
3.42231e-69
3.54284e-69
5.98445e-70
1.03451e-72
3.69393e-72
4.05477e-72
4.29233e-72
6.65017e-72
1.00875e-71
9.64796e-72
6.73272e-72
2.75683e-72
9.77636e-73
3.73608e-73
1.55368e-73
6.71953e-74
3.43571e-74
2.43886e-74
2.73633e-74
4.69816e-74
1.03177e-73
2.43339e-73
5.3208e-73
1.168e-72
2.89303e-72
7.38661e-72
1.14335e-71
1.17903e-71
6.82281e-72
4.18961e-72
4.0428e-72
4.59799e-72
8.08036e-73
5.87387e-76
5.88036e-75
5.81499e-75
5.68377e-75
7.70146e-75
1.00456e-74
9.37176e-75
6.09471e-75
2.31328e-75
7.91283e-76
3.21227e-76
1.46636e-76
6.80431e-77
3.67137e-77
2.69587e-77
2.91457e-77
4.45614e-77
8.38673e-77
1.78698e-76
3.94145e-76
9.42653e-76
2.54143e-75
6.62653e-75
9.75114e-75
9.50838e-75
5.59583e-75
3.99127e-75
4.40697e-75
5.87417e-75
1.06813e-75
1.49869e-78
1.37904e-77
8.75521e-78
7.28349e-78
7.73781e-78
9.29952e-78
9.33299e-78
6.15035e-78
2.30405e-78
8.33086e-79
3.70871e-79
1.76191e-79
8.02564e-80
4.13633e-80
2.80668e-80
2.66127e-80
3.48804e-80
5.90204e-80
1.25976e-79
3.06277e-79
8.07971e-79
2.24762e-78
5.58842e-78
7.54585e-78
7.12094e-78
4.63538e-78
3.72887e-78
4.77924e-78
6.9727e-78
1.23902e-78
4.40587e-81
1.3625e-80
9.22586e-81
6.33946e-81
6.90367e-81
1.01957e-80
1.09066e-80
7.10705e-81
2.67535e-81
1.03132e-81
4.65426e-82
2.07445e-82
8.63559e-83
4.13625e-83
2.64796e-83
2.36005e-83
2.98593e-83
5.16567e-83
1.19211e-82
3.14988e-82
8.48971e-82
2.2448e-81
5.10916e-81
6.57063e-81
6.12837e-81
4.292e-81
3.55859e-81
4.67365e-81
6.65335e-81
1.11188e-81
1.9037e-84
6.47447e-84
7.0892e-84
5.69738e-84
7.68047e-84
1.23957e-83
1.15988e-83
6.43464e-84
2.38324e-84
9.06923e-85
3.73018e-85
1.46238e-85
5.70266e-86
2.81251e-86
1.94677e-86
1.88524e-86
2.56877e-86
4.74712e-86
1.13976e-85
3.01789e-85
7.83088e-85
1.9674e-84
4.37616e-84
5.84282e-84
5.65213e-84
4.08159e-84
3.23093e-84
3.91317e-84
4.91247e-84
7.76585e-85
1.00818e-87
1.11058e-86
9.99336e-87
8.34742e-87
1.2227e-86
1.46334e-86
9.85258e-87
4.31001e-87
1.46598e-87
4.73204e-88
1.54239e-88
5.15438e-89
2.05031e-89
1.19503e-89
9.87498e-90
1.08242e-89
1.57655e-89
2.97845e-89
7.09701e-89
1.85107e-88
4.8717e-88
1.31314e-87
3.31051e-87
5.28169e-87
5.6904e-87
4.15178e-87
3.03891e-87
3.15036e-87
3.28244e-87
4.9811e-88
2.38384e-90
2.27639e-89
1.57193e-89
1.34725e-89
1.62779e-89
1.34344e-89
7.87798e-90
3.24231e-90
9.84624e-91
2.51915e-91
6.59816e-92
2.08028e-92
8.70208e-93
5.41055e-93
4.59897e-93
4.97302e-93
7.01769e-93
1.29324e-92
3.06923e-92
8.38212e-92
2.53769e-91
8.48015e-91
2.70837e-90
5.42392e-90
6.48813e-90
4.67132e-90
3.05679e-90
2.71938e-90
2.40042e-90
3.58205e-91
4.90626e-93
1.81233e-92
1.35588e-92
1.07502e-92
1.21794e-92
1.07709e-92
7.55162e-93
3.18642e-93
8.53122e-94
1.8837e-94
4.62778e-95
1.4483e-95
5.99732e-96
3.36879e-96
2.41055e-96
2.30608e-96
3.12705e-96
5.91458e-96
1.48737e-95
4.44949e-95
1.5362e-94
6.089e-94
2.31986e-93
5.42068e-93
6.86155e-93
4.84389e-93
2.94212e-93
2.49267e-93
2.13085e-93
3.31019e-94
1.84871e-96
8.42385e-96
9.91322e-96
8.68018e-96
1.02448e-95
1.11242e-95
8.07492e-96
2.87932e-96
6.36922e-97
1.31196e-97
3.34843e-98
1.05169e-98
3.87344e-99
1.77467e-99
1.0757e-99
1.00862e-99
1.50221e-99
3.2026e-99
8.78361e-99
2.72752e-98
9.57454e-98
3.86009e-97
1.54744e-96
3.93602e-96
5.25803e-96
4.0108e-96
2.65451e-96
2.46544e-96
2.41831e-96
4.0483e-97
1.27141e-99
1.45648e-98
1.40261e-98
1.13927e-98
1.43554e-98
1.44903e-98
7.32122e-99
1.75709e-99
3.15621e-100
6.4677e-101
1.72157e-101
5.20985e-102
1.71876e-102
7.22176e-103
4.58324e-103
4.64954e-103
7.4615e-103
1.72696e-102
4.82432e-102
1.41592e-101
4.52595e-101
1.70238e-100
6.81019e-100
1.95764e-99
3.04061e-99
3.03507e-99
2.4855e-99
2.83233e-99
3.36187e-99
5.89304e-100
2.8944e-102
2.58865e-101
1.84506e-101
1.49684e-101
1.81963e-101
1.49943e-101
4.68558e-102
7.96363e-103
1.42269e-103
3.23415e-104
9.25736e-105
3.05186e-105
1.16905e-105
5.69113e-106
3.6816e-106
3.32014e-106
4.46316e-106
8.73923e-106
2.17903e-105
5.77892e-105
1.71798e-104
6.37866e-104
2.71786e-103
9.31767e-103
1.97775e-102
2.61264e-102
2.61607e-102
3.55709e-102
4.79509e-102
8.30414e-103
4.82819e-105
2.03973e-104
1.42289e-104
1.25779e-104
1.39406e-104
8.80448e-105
2.41466e-105
4.72815e-106
1.01362e-106
2.36918e-107
6.92489e-108
2.68066e-108
1.21164e-108
6.19075e-109
3.84173e-109
3.00039e-109
3.0184e-109
3.9579e-109
8.25589e-109
2.2527e-108
7.74982e-108
3.2688e-107
1.56565e-106
6.43708e-106
1.68111e-105
2.56789e-105
2.79549e-105
4.0191e-105
5.58634e-105