/*--------------------------------*- C++ -*----------------------------------*\
| =========                 |                                                 |
| \\      /  F ield         | OpenFOAM: The Open Source CFD Toolbox           |
|  \\    /   O peration     | Version:  2312                                  |
|   \\  /    A nd           | Website:  www.openfoam.com                      |
|    \\/     M anipulation  |                                                 |
\*---------------------------------------------------------------------------*/
FoamFile
{
    version     2.0;
    format      ascii;
    arch        "LSB;label=32;scalar=64";
    class       volScalarField;
    location    "1.1552399";
    object      epsilon;
}
// * * * * * * * * * * * * * * * * * * * * * * * * * * * * * * * * * * * * * //

dimensions      [0 2 -3 0 0 0 0];

internalField   nonuniform List<scalar> 
90000
(
8.81411e-06
8.81664e-06
8.81714e-06
8.81734e-06
8.8174e-06
8.81729e-06
8.8171e-06
8.81688e-06
8.81668e-06
8.81647e-06
8.81627e-06
8.81611e-06
8.81605e-06
8.81613e-06
8.81624e-06
8.8164e-06
8.81673e-06
8.81731e-06
8.8178e-06
8.81785e-06
8.81732e-06
8.8164e-06
8.81671e-06
8.81831e-06
8.81976e-06
8.82042e-06
8.81996e-06
8.81902e-06
8.82008e-06
8.82327e-06
8.81736e-06
8.86671e-06
8.87099e-06
8.87095e-06
8.87065e-06
8.87035e-06
8.87021e-06
8.87014e-06
8.87003e-06
8.86987e-06
8.86984e-06
8.87002e-06
8.87024e-06
8.87041e-06
8.87055e-06
8.87062e-06
8.87061e-06
8.87051e-06
8.8703e-06
8.87004e-06
8.87026e-06
8.87072e-06
8.87109e-06
8.87109e-06
8.87056e-06
8.86981e-06
8.8705e-06
8.87265e-06
8.87043e-06
8.83124e-06
8.8179e-06
8.8711e-06
8.87563e-06
8.8756e-06
8.87532e-06
8.87513e-06
8.8751e-06
8.87514e-06
8.87509e-06
8.87489e-06
8.87482e-06
8.87511e-06
8.87555e-06
8.87597e-06
8.87609e-06
8.87583e-06
8.87528e-06
8.87473e-06
8.87516e-06
8.87597e-06
8.87651e-06
8.87669e-06
8.87667e-06
8.87666e-06
8.877e-06
8.87768e-06
8.87808e-06
8.87945e-06
8.88031e-06
8.82892e-06
8.81775e-06
8.87122e-06
8.87593e-06
8.87607e-06
8.87594e-06
8.8758e-06
8.87574e-06
8.87574e-06
8.87571e-06
8.87556e-06
8.8754e-06
8.87554e-06
8.87585e-06
8.87613e-06
8.87612e-06
8.8758e-06
8.87549e-06
8.87589e-06
8.87667e-06
8.87715e-06
8.87717e-06
8.87699e-06
8.87744e-06
8.87858e-06
8.87966e-06
8.8804e-06
8.88117e-06
8.88091e-06
8.87964e-06
8.82355e-06
8.81725e-06
8.87098e-06
8.87591e-06
8.87624e-06
8.87625e-06
8.87611e-06
8.87594e-06
8.87584e-06
8.87582e-06
8.8758e-06
8.87576e-06
8.8757e-06
8.87557e-06
8.87534e-06
8.87527e-06
8.87574e-06
8.87639e-06
8.87689e-06
8.87707e-06
8.87689e-06
8.87657e-06
8.87688e-06
8.87798e-06
8.87917e-06
8.87994e-06
8.87994e-06
8.87947e-06
8.87908e-06
8.87516e-06
8.8211e-06
8.81683e-06
8.87104e-06
8.87594e-06
8.87635e-06
8.87646e-06
8.8764e-06
8.87621e-06
8.87599e-06
8.87587e-06
8.87589e-06
8.876e-06
8.87623e-06
8.87645e-06
8.87646e-06
8.87635e-06
8.87642e-06
8.87663e-06
8.87671e-06
8.87654e-06
8.87632e-06
8.87644e-06
8.87698e-06
8.87765e-06
8.8781e-06
8.87826e-06
8.87817e-06
8.87805e-06
8.88015e-06
8.87618e-06
8.82126e-06
8.81712e-06
8.87148e-06
8.87625e-06
8.87668e-06
8.87693e-06
8.87711e-06
8.8771e-06
8.87682e-06
8.8763e-06
8.87599e-06
8.87613e-06
8.87663e-06
8.87723e-06
8.87749e-06
8.87723e-06
8.87655e-06
8.87586e-06
8.87554e-06
8.87577e-06
8.87628e-06
8.87674e-06
8.87695e-06
8.87676e-06
8.87627e-06
8.87635e-06
8.87799e-06
8.87998e-06
8.88197e-06
8.87777e-06
8.82099e-06
8.81748e-06
8.87249e-06
8.87694e-06
8.87736e-06
8.87771e-06
8.87804e-06
8.87821e-06
8.87804e-06
8.87746e-06
8.87665e-06
8.87643e-06
8.87675e-06
8.87726e-06
8.8775e-06
8.87716e-06
8.87626e-06
8.87515e-06
8.87468e-06
8.87549e-06
8.87627e-06
8.87667e-06
8.87654e-06
8.87596e-06
8.87578e-06
8.87707e-06
8.87898e-06
8.88076e-06
8.8816e-06
8.87659e-06
8.82015e-06
8.81808e-06
8.87377e-06
8.87786e-06
8.87811e-06
8.87839e-06
8.87872e-06
8.87896e-06
8.87894e-06
8.87863e-06
8.87805e-06
8.8774e-06
8.87695e-06
8.8767e-06
8.87661e-06
8.87656e-06
8.87647e-06
8.87633e-06
8.8763e-06
8.8765e-06
8.87674e-06
8.87675e-06
8.8764e-06
8.87594e-06
8.87642e-06
8.87781e-06
8.8793e-06
8.88033e-06
8.88021e-06
8.87488e-06
8.81942e-06
8.81969e-06
8.87429e-06
8.87806e-06
8.87816e-06
8.87821e-06
8.87834e-06
8.87853e-06
8.87882e-06
8.87901e-06
8.87897e-06
8.87852e-06
8.87758e-06
8.87636e-06
8.87565e-06
8.87612e-06
8.87716e-06
8.8781e-06
8.8787e-06
8.87891e-06
8.87874e-06
8.87824e-06
8.87748e-06
8.8768e-06
8.87684e-06
8.87773e-06
8.87863e-06
8.87903e-06
8.87854e-06
8.87355e-06
8.8192e-06
8.8211e-06
8.87405e-06
8.87761e-06
8.8776e-06
8.87731e-06
8.877e-06
8.87698e-06
8.87749e-06
8.87824e-06
8.87879e-06
8.8788e-06
8.87817e-06
8.87702e-06
8.8759e-06
8.87605e-06
8.8775e-06
8.8791e-06
8.88034e-06
8.88106e-06
8.88102e-06
8.88029e-06
8.87908e-06
8.87783e-06
8.87709e-06
8.87734e-06
8.87789e-06
8.87828e-06
8.87809e-06
8.87354e-06
8.81984e-06
8.82123e-06
8.87441e-06
8.87806e-06
8.87799e-06
8.87768e-06
8.87731e-06
8.87714e-06
8.87726e-06
8.87758e-06
8.87799e-06
8.87824e-06
8.87818e-06
8.87765e-06
8.87665e-06
8.87578e-06
8.87725e-06
8.87937e-06
8.88105e-06
8.88188e-06
8.88173e-06
8.88081e-06
8.87947e-06
8.87809e-06
8.87705e-06
8.87724e-06
8.87786e-06
8.87841e-06
8.87855e-06
8.87457e-06
8.82057e-06
8.82063e-06
8.87522e-06
8.87914e-06
8.87956e-06
8.88024e-06
8.88086e-06
8.88118e-06
8.88098e-06
8.88008e-06
8.87874e-06
8.87803e-06
8.87841e-06
8.8787e-06
8.87862e-06
8.87839e-06
8.87871e-06
8.87951e-06
8.88008e-06
8.88015e-06
8.87983e-06
8.87927e-06
8.87857e-06
8.87782e-06
8.87728e-06
8.87759e-06
8.87809e-06
8.87861e-06
8.87901e-06
8.87494e-06
8.82094e-06
8.82286e-06
8.87524e-06
8.88024e-06
8.88163e-06
8.8833e-06
8.88458e-06
8.885e-06
8.88422e-06
8.88232e-06
8.87994e-06
8.87811e-06
8.87839e-06
8.87951e-06
8.88051e-06
8.88103e-06
8.88098e-06
8.88021e-06
8.87869e-06
8.87717e-06
8.87676e-06
8.8773e-06
8.87782e-06
8.87802e-06
8.87798e-06
8.87805e-06
8.87836e-06
8.8789e-06
8.87927e-06
8.87493e-06
8.82145e-06
8.82601e-06
8.87445e-06
8.88206e-06
8.88427e-06
8.88594e-06
8.8866e-06
8.88604e-06
8.88436e-06
8.88201e-06
8.87961e-06
8.87769e-06
8.87784e-06
8.87952e-06
8.8812e-06
8.88211e-06
8.88195e-06
8.88072e-06
8.87873e-06
8.87688e-06
8.87612e-06
8.87683e-06
8.87796e-06
8.87866e-06
8.8788e-06
8.87862e-06
8.87905e-06
8.87978e-06
8.88015e-06
8.87611e-06
8.82318e-06
8.8272e-06
8.87944e-06
8.88526e-06
8.88639e-06
8.88655e-06
8.88563e-06
8.88387e-06
8.88194e-06
8.88033e-06
8.87896e-06
8.87769e-06
8.8776e-06
8.87925e-06
8.88097e-06
8.8819e-06
8.88182e-06
8.88097e-06
8.87973e-06
8.87846e-06
8.87764e-06
8.87759e-06
8.87842e-06
8.87927e-06
8.87957e-06
8.87972e-06
8.88038e-06
8.88131e-06
8.88227e-06
8.87929e-06
8.82526e-06
8.82622e-06
8.88476e-06
8.88792e-06
8.88726e-06
8.88553e-06
8.88325e-06
8.88111e-06
8.88003e-06
8.87992e-06
8.87946e-06
8.87867e-06
8.87848e-06
8.87946e-06
8.88058e-06
8.88118e-06
8.88125e-06
8.88101e-06
8.88042e-06
8.87963e-06
8.87901e-06
8.87893e-06
8.87914e-06
8.87959e-06
8.88011e-06
8.8808e-06
8.88188e-06
8.88312e-06
8.88428e-06
8.88062e-06
8.82562e-06
8.82629e-06
8.88774e-06
8.88962e-06
8.88805e-06
8.88585e-06
8.88353e-06
8.88164e-06
8.88071e-06
8.88057e-06
8.88019e-06
8.87976e-06
8.87943e-06
8.8795e-06
8.87968e-06
8.87985e-06
8.8802e-06
8.88052e-06
8.88063e-06
8.88049e-06
8.88032e-06
8.88024e-06
8.88028e-06
8.88054e-06
8.88105e-06
8.88217e-06
8.88353e-06
8.88465e-06
8.88513e-06
8.88018e-06
8.82529e-06
8.82944e-06
8.88897e-06
8.89115e-06
8.88962e-06
8.88766e-06
8.88586e-06
8.88439e-06
8.8831e-06
8.88182e-06
8.88084e-06
8.88009e-06
8.87927e-06
8.87865e-06
8.87826e-06
8.87823e-06
8.87871e-06
8.87953e-06
8.88031e-06
8.88082e-06
8.88103e-06
8.88105e-06
8.88115e-06
8.88146e-06
8.88287e-06
8.88469e-06
8.88577e-06
8.8861e-06
8.88563e-06
8.8804e-06
8.82646e-06
8.83284e-06
8.88954e-06
8.89244e-06
8.8911e-06
8.88944e-06
8.88797e-06
8.88671e-06
8.88534e-06
8.88381e-06
8.88228e-06
8.88082e-06
8.8794e-06
8.87817e-06
8.87724e-06
8.87688e-06
8.87751e-06
8.8788e-06
8.88003e-06
8.88093e-06
8.88147e-06
8.88187e-06
8.88264e-06
8.88451e-06
8.88653e-06
8.88763e-06
8.88778e-06
8.88766e-06
8.88744e-06
8.88324e-06
8.82937e-06
8.83601e-06
8.8901e-06
8.89341e-06
8.89233e-06
8.89112e-06
8.89008e-06
8.88899e-06
8.8876e-06
8.88592e-06
8.88404e-06
8.88207e-06
8.88016e-06
8.87869e-06
8.8778e-06
8.87762e-06
8.87835e-06
8.87952e-06
8.88067e-06
8.88178e-06
8.88292e-06
8.88441e-06
8.88648e-06
8.8884e-06
8.8893e-06
8.88916e-06
8.88891e-06
8.88919e-06
8.88966e-06
8.88598e-06
8.83235e-06
8.83889e-06
8.89114e-06
8.89503e-06
8.89429e-06
8.89334e-06
8.89233e-06
8.89106e-06
8.88944e-06
8.88756e-06
8.88546e-06
8.88327e-06
8.88161e-06
8.88059e-06
8.88001e-06
8.87965e-06
8.87972e-06
8.88037e-06
8.88164e-06
8.88349e-06
8.88574e-06
8.8882e-06
8.8902e-06
8.89105e-06
8.89072e-06
8.89056e-06
8.89105e-06
8.89188e-06
8.89251e-06
8.88877e-06
8.83555e-06
8.84188e-06
8.89338e-06
8.89763e-06
8.89709e-06
8.8961e-06
8.89476e-06
8.89306e-06
8.89116e-06
8.88916e-06
8.88721e-06
8.88561e-06
8.88424e-06
8.88286e-06
8.88128e-06
8.87989e-06
8.87954e-06
8.88058e-06
8.88278e-06
8.88566e-06
8.88879e-06
8.89124e-06
8.89238e-06
8.89254e-06
8.89268e-06
8.89338e-06
8.89466e-06
8.89581e-06
8.89634e-06
8.89256e-06
8.83961e-06
8.8456e-06
8.89708e-06
8.90146e-06
8.90089e-06
8.89958e-06
8.89783e-06
8.8959e-06
8.89399e-06
8.89211e-06
8.89027e-06
8.88847e-06
8.88651e-06
8.8842e-06
8.88159e-06
8.87958e-06
8.87963e-06
8.88144e-06
8.88452e-06
8.88817e-06
8.89118e-06
8.89305e-06
8.89401e-06
8.89485e-06
8.89606e-06
8.89781e-06
8.89964e-06
8.90073e-06
8.9013e-06
8.89733e-06
8.84468e-06
8.85059e-06
8.90255e-06
8.90673e-06
8.90591e-06
8.90429e-06
8.90237e-06
8.90046e-06
8.89848e-06
8.89634e-06
8.89409e-06
8.89166e-06
8.88885e-06
8.88556e-06
8.88236e-06
8.88068e-06
8.88096e-06
8.88299e-06
8.88664e-06
8.8901e-06
8.89272e-06
8.89479e-06
8.89682e-06
8.89875e-06
8.90081e-06
8.90317e-06
8.90495e-06
8.90628e-06
8.90711e-06
8.90312e-06
8.85104e-06
8.85758e-06
8.90996e-06
8.91364e-06
8.91248e-06
8.91072e-06
8.90878e-06
8.90668e-06
8.90436e-06
8.90179e-06
8.89904e-06
8.89579e-06
8.89191e-06
8.88786e-06
8.88475e-06
8.88278e-06
8.88258e-06
8.8847e-06
8.88828e-06
8.89182e-06
8.89528e-06
8.89863e-06
8.90139e-06
8.90379e-06
8.90659e-06
8.9088e-06
8.91055e-06
8.91249e-06
8.91396e-06
8.9112e-06
8.85774e-06
8.8672e-06
8.91904e-06
8.9224e-06
8.92111e-06
8.91932e-06
8.9171e-06
8.91449e-06
8.91157e-06
8.90845e-06
8.90476e-06
8.90038e-06
8.89567e-06
8.89156e-06
8.8883e-06
8.88543e-06
8.88478e-06
8.88707e-06
8.89103e-06
8.89565e-06
8.90014e-06
8.90392e-06
8.90712e-06
8.91032e-06
8.91347e-06
8.9158e-06
8.91822e-06
8.92083e-06
8.92267e-06
8.91925e-06
8.86647e-06
8.87898e-06
8.93007e-06
8.93351e-06
8.93202e-06
8.92975e-06
8.92689e-06
8.92357e-06
8.91991e-06
8.91589e-06
8.91121e-06
8.90601e-06
8.90113e-06
8.89691e-06
8.89263e-06
8.88877e-06
8.88804e-06
8.89109e-06
8.89601e-06
8.90135e-06
8.90633e-06
8.91097e-06
8.91536e-06
8.91887e-06
8.92243e-06
8.92562e-06
8.92877e-06
8.93163e-06
8.93263e-06
8.92913e-06
8.8775e-06
8.89272e-06
8.94334e-06
8.94636e-06
8.94442e-06
8.94166e-06
8.9383e-06
8.93445e-06
8.93015e-06
8.92523e-06
8.91959e-06
8.91379e-06
8.9085e-06
8.90313e-06
8.89758e-06
8.89306e-06
8.89257e-06
8.89651e-06
8.90231e-06
8.90857e-06
8.9146e-06
8.92024e-06
8.92567e-06
8.93003e-06
8.93439e-06
8.93856e-06
8.94198e-06
8.94463e-06
8.94544e-06
8.94182e-06
8.89168e-06
8.90894e-06
8.95873e-06
8.96151e-06
8.95934e-06
8.95631e-06
8.95264e-06
8.9483e-06
8.94318e-06
8.93711e-06
8.93031e-06
8.92359e-06
8.91703e-06
8.91012e-06
8.90329e-06
8.89822e-06
8.89807e-06
8.90284e-06
8.90954e-06
8.91688e-06
8.92416e-06
8.93085e-06
8.93773e-06
8.94376e-06
8.94911e-06
8.95383e-06
8.95742e-06
8.96006e-06
8.96153e-06
8.95888e-06
8.90893e-06
8.92856e-06
8.97767e-06
8.98045e-06
8.97804e-06
8.97462e-06
8.9703e-06
8.96505e-06
8.95879e-06
8.95133e-06
8.94323e-06
8.93523e-06
8.92706e-06
8.91862e-06
8.91063e-06
8.90504e-06
8.90515e-06
8.91072e-06
8.91835e-06
8.92689e-06
8.93563e-06
8.94375e-06
8.95244e-06
8.96019e-06
8.9661e-06
8.9714e-06
8.97562e-06
8.97874e-06
8.98162e-06
8.97946e-06
8.92956e-06
8.95279e-06
9.00144e-06
9.00395e-06
9.00096e-06
8.99675e-06
8.99149e-06
8.98515e-06
8.97764e-06
8.9689e-06
8.95952e-06
8.94993e-06
8.93994e-06
8.92977e-06
8.92049e-06
8.91415e-06
8.91428e-06
8.92076e-06
8.92977e-06
8.93965e-06
8.94997e-06
8.95984e-06
8.97017e-06
8.97888e-06
8.98571e-06
8.99207e-06
8.99759e-06
9.00161e-06
9.00574e-06
9.00386e-06
8.95454e-06
8.98271e-06
9.03044e-06
9.03237e-06
9.02867e-06
9.02359e-06
9.01736e-06
9.00992e-06
9.00114e-06
8.99103e-06
8.97991e-06
8.96806e-06
8.95577e-06
8.94376e-06
8.93322e-06
8.92608e-06
8.92616e-06
8.93357e-06
8.94412e-06
8.95545e-06
8.96756e-06
8.97928e-06
8.99064e-06
9.0006e-06
9.00934e-06
9.01728e-06
9.02403e-06
9.02928e-06
9.03421e-06
9.03244e-06
8.98453e-06
9.01908e-06
9.06543e-06
9.06684e-06
9.06252e-06
9.05649e-06
9.04898e-06
9.03998e-06
9.0294e-06
9.01732e-06
9.00397e-06
8.98987e-06
8.97559e-06
8.96186e-06
8.95001e-06
8.94198e-06
8.94184e-06
8.94995e-06
8.96206e-06
8.97511e-06
8.98921e-06
9.00275e-06
9.01575e-06
9.02764e-06
9.03869e-06
9.04796e-06
9.05607e-06
9.06276e-06
9.06799e-06
9.06661e-06
9.02006e-06
9.06285e-06
9.1078e-06
9.10868e-06
9.10336e-06
9.09594e-06
9.08673e-06
9.07578e-06
9.06309e-06
9.0489e-06
9.03345e-06
9.01732e-06
9.00109e-06
8.98541e-06
8.97167e-06
8.9624e-06
8.96231e-06
8.97135e-06
8.98511e-06
9.0003e-06
9.01663e-06
9.03227e-06
9.04754e-06
9.06167e-06
9.07463e-06
9.08528e-06
9.09531e-06
9.10335e-06
9.10894e-06
9.10781e-06
9.06265e-06
9.1156e-06
9.15861e-06
9.1586e-06
9.15206e-06
9.14326e-06
9.13245e-06
9.11959e-06
9.10478e-06
9.08843e-06
9.07079e-06
9.05237e-06
9.03376e-06
9.0156e-06
8.99958e-06
8.989e-06
8.98936e-06
9.00004e-06
9.01569e-06
9.0333e-06
9.05217e-06
9.0701e-06
9.08797e-06
9.10426e-06
9.11881e-06
9.13136e-06
9.14342e-06
9.1523e-06
9.15822e-06
9.15723e-06
9.11476e-06
9.17899e-06
9.21931e-06
9.2187e-06
9.21143e-06
9.20143e-06
9.18891e-06
9.17395e-06
9.15693e-06
9.13827e-06
9.1182e-06
9.09705e-06
9.07567e-06
9.05501e-06
9.03708e-06
9.02511e-06
9.02555e-06
9.03784e-06
9.05556e-06
9.07579e-06
9.09774e-06
9.11827e-06
9.13851e-06
9.15678e-06
9.17342e-06
9.18833e-06
9.20186e-06
9.2113e-06
9.21795e-06
9.21841e-06
9.17857e-06
9.25543e-06
9.29324e-06
9.29244e-06
9.28419e-06
9.27246e-06
9.25775e-06
9.24059e-06
9.22135e-06
9.20026e-06
9.17757e-06
9.15363e-06
9.12961e-06
9.10657e-06
9.08675e-06
9.07319e-06
9.0729e-06
9.08645e-06
9.10689e-06
9.12993e-06
9.15489e-06
9.17807e-06
9.20045e-06
9.22092e-06
9.24053e-06
9.25791e-06
9.27219e-06
9.28337e-06
9.29203e-06
9.29391e-06
9.2559e-06
9.34799e-06
9.38358e-06
9.38181e-06
9.37161e-06
9.35776e-06
9.34094e-06
9.32165e-06
9.30001e-06
9.27618e-06
9.25074e-06
9.22413e-06
9.19766e-06
9.17192e-06
9.14965e-06
9.13466e-06
9.13393e-06
9.14907e-06
9.17239e-06
9.19826e-06
9.22553e-06
9.25114e-06
9.27593e-06
9.29923e-06
9.32177e-06
9.34147e-06
9.35693e-06
9.37099e-06
9.38194e-06
9.38331e-06
9.34779e-06
9.45985e-06
9.49164e-06
9.48842e-06
9.47661e-06
9.46113e-06
9.44259e-06
9.42095e-06
9.3966e-06
9.36991e-06
9.34188e-06
9.31258e-06
9.28351e-06
9.2552e-06
9.22995e-06
9.21367e-06
9.21309e-06
9.23008e-06
9.25573e-06
9.28413e-06
9.31346e-06
9.34182e-06
9.36954e-06
9.39608e-06
9.42065e-06
9.44292e-06
9.46069e-06
9.47684e-06
9.48864e-06
9.48988e-06
9.45803e-06
9.59408e-06
9.62122e-06
9.61736e-06
9.60492e-06
9.58825e-06
9.56765e-06
9.54324e-06
9.5165e-06
9.48758e-06
9.45756e-06
9.42576e-06
9.3938e-06
9.36358e-06
9.33518e-06
9.31696e-06
9.31655e-06
9.33532e-06
9.36317e-06
9.394e-06
9.42541e-06
9.45682e-06
9.48726e-06
9.51649e-06
9.54264e-06
9.56739e-06
9.5884e-06
9.60487e-06
9.61676e-06
9.62054e-06
9.5927e-06
9.75617e-06
9.77961e-06
9.77567e-06
9.76208e-06
9.74329e-06
9.72029e-06
9.69361e-06
9.66524e-06
9.63431e-06
9.60234e-06
9.56898e-06
9.53466e-06
9.50307e-06
9.47234e-06
9.45153e-06
9.45241e-06
9.47297e-06
9.50216e-06
9.5353e-06
9.56868e-06
9.60221e-06
9.634e-06
9.66499e-06
9.69407e-06
9.71985e-06
9.74335e-06
9.76116e-06
9.77405e-06
9.78022e-06
9.75738e-06
9.95452e-06
9.97423e-06
9.96916e-06
9.95337e-06
9.93221e-06
9.90777e-06
9.87933e-06
9.84952e-06
9.81732e-06
9.78404e-06
9.75135e-06
9.71576e-06
9.68223e-06
9.65166e-06
9.62936e-06
9.63037e-06
9.65251e-06
9.68263e-06
9.71628e-06
9.7507e-06
9.7848e-06
9.8176e-06
9.8495e-06
9.88138e-06
9.9079e-06
9.93193e-06
9.95349e-06
9.969e-06
9.97517e-06
9.95568e-06
1.01991e-05
1.02149e-05
1.02079e-05
1.01907e-05
1.01679e-05
1.01423e-05
1.01128e-05
1.00825e-05
1.00507e-05
1.00179e-05
9.98716e-06
9.95436e-06
9.92299e-06
9.89633e-06
9.87667e-06
9.87709e-06
9.89626e-06
9.92462e-06
9.95516e-06
9.98621e-06
1.00183e-05
1.00509e-05
1.00824e-05
1.01127e-05
1.01421e-05
1.01686e-05
1.01917e-05
1.02076e-05
1.02147e-05
1.02e-05
1.05066e-05
1.05236e-05
1.05132e-05
1.04954e-05
1.04727e-05
1.04456e-05
1.04139e-05
1.03849e-05
1.03613e-05
1.0337e-05
1.03242e-05
1.03242e-05
1.03368e-05
1.03549e-05
1.03811e-05
1.03854e-05
1.03573e-05
1.03363e-05
1.03252e-05
1.03264e-05
1.03378e-05
1.036e-05
1.03872e-05
1.04134e-05
1.04439e-05
1.04736e-05
1.04958e-05
1.0511e-05
1.05221e-05
1.05107e-05
1.09363e-05
1.09793e-05
1.0966e-05
1.09623e-05
1.09411e-05
1.09055e-05
1.08791e-05
1.08751e-05
1.08956e-05
1.09529e-05
1.11375e-05
1.14685e-05
1.19515e-05
1.2471e-05
1.30206e-05
1.30383e-05
1.24846e-05
1.19539e-05
1.14802e-05
1.11407e-05
1.09563e-05
1.0896e-05
1.08751e-05
1.08792e-05
1.0907e-05
1.09398e-05
1.09612e-05
1.09671e-05
1.09788e-05
1.09396e-05
1.17583e-05
1.19303e-05
1.20179e-05
1.21963e-05
1.21304e-05
1.20608e-05
1.22059e-05
1.23762e-05
1.2746e-05
1.36196e-05
1.56192e-05
1.90681e-05
2.4124e-05
2.92613e-05
3.44193e-05
3.45808e-05
2.93997e-05
2.41531e-05
1.92063e-05
1.56421e-05
1.36377e-05
1.27541e-05
1.23801e-05
1.22086e-05
1.20658e-05
1.21248e-05
1.2196e-05
1.20229e-05
1.19294e-05
1.17626e-05
1.44179e-05
1.50438e-05
1.61799e-05
1.85896e-05
1.73641e-05
1.73753e-05
2.1274e-05
2.19961e-05
2.46689e-05
3.38187e-05
5.28598e-05
7.92436e-05
0.000126043
0.000166921
0.000194715
0.000195579
0.000167347
0.00012693
8.07203e-05
5.28481e-05
3.39347e-05
2.47552e-05
2.20335e-05
2.13403e-05
1.74196e-05
1.73493e-05
1.85858e-05
1.62062e-05
1.50522e-05
1.44076e-05
2.51973e-05
3.07056e-05
3.74644e-05
5.87492e-05
4.84462e-05
5.64311e-05
0.000107532
0.000114441
0.000149084
0.000267022
0.000404949
0.000521419
0.000787972
0.000980542
0.00106441
0.00106031
0.000975413
0.000796097
0.000528572
0.000402806
0.000267597
0.000149983
0.000114985
0.000108424
5.68714e-05
4.86728e-05
5.92554e-05
3.75867e-05
3.0848e-05
2.51111e-05
8.03467e-05
0.000156497
0.000164186
0.000361944
0.000315545
0.000435593
0.000613372
0.00080125
0.00113589
0.00149453
0.00216636
0.00217486
0.0029099
0.00331869
0.00305292
0.00303574
0.00327186
0.00293471
0.00218509
0.00206711
0.00147541
0.00114388
0.00081046
0.000620296
0.000435614
0.000320147
0.000370126
0.000165036
0.000156582
8.01687e-05
0.000272133
0.000609878
0.000735899
0.00138264
0.00174475
0.00230717
0.0028675
0.00396139
0.00429936
0.00493685
0.00590523
0.00564378
0.00631446
0.00689902
0.00643676
0.00635361
0.00682084
0.00634739
0.00556123
0.00559188
0.0048159
0.00430298
0.00399638
0.00290754
0.00235618
0.00178629
0.00142191
0.000745862
0.000608516
0.000275905
0.000435839
0.000752342
0.000995449
0.00188997
0.00264078
0.00382871
0.00433035
0.00500975
0.00583879
0.00732403
0.00814728
0.00741233
0.00745722
0.00801833
0.00748137
0.00737153
0.00801447
0.00757878
0.00688042
0.00737597
0.00715351
0.00590399
0.00504218
0.00444419
0.00395653
0.00278546
0.00201242
0.00100976
0.000761363
0.000438559
0.000622678
0.000846701
0.00102798
0.0019491
0.00253762
0.00284852
0.0038498
0.00503181
0.0055943
0.00732968
0.00673322
0.00604337
0.0067402
0.00719122
0.00621689
0.00624481
0.00735949
0.00707698
0.00606108
0.00672835
0.00758509
0.00594506
0.00524622
0.00392362
0.00288973
0.00261021
0.00204538
0.00106049
0.000855165
0.000617525
0.000647606
0.000772842
0.000985572
0.00180163
0.00207222
0.00204457
0.00254576
0.00324442
0.00379255
0.00476094
0.00427088
0.00430897
0.00440404
0.00480051
0.00546287
0.00555608
0.00496298
0.00450471
0.00457824
0.00434918
0.00497756
0.0038261
0.00330476
0.00259768
0.00207113
0.00211873
0.00184184
0.0009804
0.000788399
0.000641758
0.000482598
0.000601791
0.000808587
0.00145242
0.00139511
0.00122476
0.00157915
0.00188039
0.00211789
0.00283179
0.00258613
0.00272853
0.00298282
0.00326781
0.00368178
0.00370268
0.00334562
0.00304127
0.00282076
0.0025799
0.00295333
0.0021634
0.00193842
0.00161289
0.001244
0.00141298
0.00147756
0.000820469
0.000627454
0.000487836
0.000316851
0.000410662
0.000523822
0.000909957
0.000784588
0.000613725
0.000894898
0.00113104
0.00135549
0.00177878
0.00179044
0.00181316
0.00182311
0.00197639
0.00205711
0.00205404
0.00201772
0.00183229
0.0018061
0.00175416
0.00182678
0.00137762
0.00114477
0.000909575
0.000620247
0.00078962
0.00092866
0.000529392
0.00042452
0.00032572
0.000210082
0.000266146
0.000310912
0.000458939
0.000395872
0.00030104
0.000376298
0.000528739
0.000772164
0.00116114
0.00140566
0.00155366
0.00162379
0.00169599
0.00168595
0.00168079
0.00171556
0.00162977
0.00154254
0.0013878
0.00116997
0.000776687
0.00053563
0.000381678
0.000303791
0.00040223
0.000468253
0.000312498
0.000271538
0.000212514
0.000150173
0.000175237
0.000187486
0.000221181
0.000204104
0.000177912
0.000185493
0.000223527
0.000316072
0.00054957
0.000877396
0.00121774
0.00147435
0.00162892
0.00165941
0.00165652
0.00163843
0.00147769
0.00121238
0.000869886
0.000552053
0.000317075
0.000225133
0.000187823
0.000179655
0.000207424
0.000224677
0.000188955
0.000178222
0.00015101
0.000114331
0.000124434
0.000125976
0.000130157
0.000125469
0.000120071
0.000121157
0.00012874
0.00015007
0.000217492
0.000377307
0.000663253
0.00101667
0.00131313
0.00145959
0.0014575
0.00131803
0.00102008
0.000660604
0.000374444
0.000218474
0.000150936
0.000129507
0.000121465
0.000120488
0.000127172
0.000131523
0.000126383
0.000125813
0.000115225
9.13491e-05
9.57626e-05
9.48401e-05
9.4675e-05
9.34469e-05
9.22793e-05
9.25472e-05
9.48018e-05
0.000100083
0.000114664
0.000154336
0.00025596
0.000450321
0.000712235
0.000917161
0.000915061
0.000713279
0.000451983
0.000255192
0.000153859
0.000115415
0.000100604
9.51458e-05
9.27266e-05
9.23715e-05
9.3883e-05
9.52521e-05
9.55209e-05
9.63568e-05
9.18476e-05
7.55788e-05
7.71085e-05
7.64502e-05
7.64366e-05
7.60865e-05
7.60254e-05
7.66949e-05
7.7769e-05
7.95587e-05
8.30412e-05
9.09584e-05
0.000111656
0.000159971
0.000244749
0.000340325
0.00033943
0.00024432
0.000160254
0.000111534
9.12363e-05
8.33888e-05
7.98209e-05
7.80351e-05
7.69519e-05
7.63902e-05
7.65374e-05
7.65561e-05
7.70442e-05
7.76672e-05
7.5644e-05
6.38531e-05
6.38185e-05
6.36527e-05
6.3756e-05
6.40155e-05
6.44889e-05
6.54072e-05
6.61497e-05
6.70385e-05
6.80822e-05
6.97222e-05
7.3168e-05
8.09028e-05
9.54344e-05
0.000113942
0.000113995
9.56363e-05
8.11598e-05
7.31898e-05
6.99894e-05
6.83378e-05
6.71886e-05
6.63035e-05
6.54874e-05
6.47885e-05
6.42387e-05
6.38746e-05
6.38932e-05
6.44911e-05
6.44427e-05
5.5596e-05
5.41137e-05
5.40285e-05
5.42365e-05
5.46081e-05
5.52684e-05
5.60246e-05
5.64464e-05
5.69091e-05
5.72083e-05
5.73748e-05
5.76338e-05
5.83987e-05
6.00822e-05
6.23963e-05
6.23586e-05
6.02343e-05
5.86476e-05
5.78779e-05
5.75983e-05
5.73121e-05
5.70369e-05
5.66953e-05
5.60304e-05
5.53148e-05
5.46388e-05
5.4342e-05
5.42087e-05
5.47463e-05
5.61204e-05
4.88476e-05
4.66945e-05
4.63912e-05
4.65583e-05
4.70218e-05
4.75708e-05
4.79618e-05
4.81994e-05
4.83257e-05
4.81618e-05
4.77944e-05
4.74323e-05
4.71171e-05
4.68834e-05
4.68278e-05
4.67929e-05
4.70049e-05
4.73037e-05
4.76856e-05
4.80436e-05
4.83133e-05
4.84767e-05
4.8384e-05
4.80169e-05
4.75746e-05
4.71497e-05
4.68836e-05
4.66446e-05
4.71044e-05
4.91642e-05
4.3001e-05
4.06169e-05
4.0222e-05
4.04433e-05
4.08315e-05
4.11585e-05
4.12769e-05
4.12716e-05
4.10349e-05
4.05883e-05
4.00671e-05
3.95196e-05
3.88936e-05
3.83029e-05
3.79442e-05
3.80079e-05
3.85004e-05
3.90603e-05
3.96367e-05
4.02198e-05
4.07805e-05
4.12246e-05
4.13665e-05
4.13053e-05
4.11445e-05
4.09391e-05
4.0711e-05
4.04944e-05
4.09189e-05
4.31736e-05
3.78224e-05
3.55504e-05
3.52485e-05
3.54225e-05
3.55931e-05
3.56592e-05
3.55744e-05
3.53345e-05
3.49293e-05
3.44173e-05
3.3804e-05
3.31024e-05
3.23421e-05
3.17163e-05
3.13749e-05
3.1463e-05
3.18953e-05
3.24757e-05
3.31777e-05
3.39311e-05
3.46302e-05
3.51675e-05
3.54704e-05
3.56212e-05
3.56626e-05
3.56043e-05
3.54489e-05
3.53486e-05
3.57847e-05
3.79386e-05
3.3279e-05
3.1411e-05
3.10874e-05
3.10731e-05
3.10364e-05
3.09471e-05
3.0746e-05
3.03897e-05
2.99282e-05
2.93492e-05
2.86668e-05
2.79341e-05
2.72128e-05
2.66333e-05
2.62971e-05
2.63389e-05
2.67138e-05
2.7298e-05
2.80348e-05
2.88212e-05
2.9555e-05
3.01481e-05
3.05629e-05
3.08424e-05
3.09973e-05
3.10449e-05
3.10096e-05
3.10322e-05
3.14744e-05
3.34597e-05
2.95728e-05
2.77968e-05
2.74226e-05
2.73316e-05
2.72533e-05
2.7112e-05
2.68053e-05
2.63884e-05
2.58965e-05
2.52883e-05
2.45983e-05
2.38898e-05
2.32133e-05
2.26561e-05
2.23097e-05
2.2313e-05
2.26577e-05
2.32388e-05
2.3973e-05
2.47426e-05
2.5466e-05
2.60741e-05
2.6536e-05
2.68722e-05
2.71132e-05
2.72581e-05
2.73268e-05
2.74156e-05
2.78206e-05
2.96224e-05
2.61751e-05
2.45956e-05
2.43151e-05
2.42238e-05
2.40991e-05
2.38732e-05
2.35266e-05
2.31354e-05
2.26647e-05
2.20805e-05
2.14267e-05
2.0752e-05
2.01092e-05
1.95766e-05
1.92442e-05
1.92369e-05
1.95534e-05
2.0094e-05
2.07692e-05
2.14731e-05
2.21455e-05
2.27425e-05
2.32317e-05
2.36045e-05
2.38857e-05
2.4088e-05
2.42243e-05
2.43488e-05
2.47126e-05
2.6289e-05
2.32658e-05
2.20492e-05
2.17704e-05
2.16101e-05
2.14053e-05
2.11385e-05
2.08245e-05
2.0462e-05
2.00083e-05
1.94631e-05
1.8861e-05
1.82338e-05
1.76333e-05
1.7127e-05
1.68065e-05
1.67865e-05
1.70715e-05
1.75698e-05
1.81926e-05
1.88494e-05
1.94818e-05
2.00488e-05
2.0521e-05
2.08927e-05
2.11926e-05
2.14341e-05
2.16173e-05
2.1769e-05
2.21e-05
2.3431e-05
2.09324e-05
1.99305e-05
1.95931e-05
1.93805e-05
1.91704e-05
1.89408e-05
1.86579e-05
1.83011e-05
1.78695e-05
1.73707e-05
1.68243e-05
1.62494e-05
1.56962e-05
1.52298e-05
1.49383e-05
1.49281e-05
1.51974e-05
1.56583e-05
1.62243e-05
1.68139e-05
1.73751e-05
1.78849e-05
1.83284e-05
1.87e-05
1.90083e-05
1.92582e-05
1.94521e-05
1.96087e-05
1.98944e-05
2.09862e-05
1.89183e-05
1.80178e-05
1.77173e-05
1.75443e-05
1.7395e-05
1.71979e-05
1.69144e-05
1.65726e-05
1.61812e-05
1.57255e-05
1.52205e-05
1.46929e-05
1.41952e-05
1.37853e-05
1.35361e-05
1.35397e-05
1.37862e-05
1.41959e-05
1.4694e-05
1.52133e-05
1.57119e-05
1.61742e-05
1.65876e-05
1.69431e-05
1.72356e-05
1.74688e-05
1.76474e-05
1.77866e-05
1.80186e-05
1.8903e-05
1.71817e-05
1.64011e-05
1.61915e-05
1.60843e-05
1.59557e-05
1.57521e-05
1.54863e-05
1.51888e-05
1.48376e-05
1.44174e-05
1.39498e-05
1.34718e-05
1.30317e-05
1.26757e-05
1.24615e-05
1.24717e-05
1.26966e-05
1.30599e-05
1.34954e-05
1.39497e-05
1.43932e-05
1.4811e-05
1.51892e-05
1.55144e-05
1.57779e-05
1.5982e-05
1.6134e-05
1.62504e-05
1.64388e-05
1.71579e-05
1.56763e-05
1.50843e-05
1.49396e-05
1.48549e-05
1.47232e-05
1.4537e-05
1.43202e-05
1.40621e-05
1.37382e-05
1.33586e-05
1.29462e-05
1.25339e-05
1.21567e-05
1.18473e-05
1.16566e-05
1.16641e-05
1.18628e-05
1.21809e-05
1.25589e-05
1.29538e-05
1.33442e-05
1.37147e-05
1.40503e-05
1.43356e-05
1.45638e-05
1.47391e-05
1.48707e-05
1.49738e-05
1.51318e-05
1.57129e-05
1.44435e-05
1.40182e-05
1.38945e-05
1.38081e-05
1.36969e-05
1.35525e-05
1.33697e-05
1.31267e-05
1.28332e-05
1.25058e-05
1.21588e-05
1.18138e-05
1.14884e-05
1.12093e-05
1.10348e-05
1.1041e-05
1.12191e-05
1.14998e-05
1.18263e-05
1.21644e-05
1.24985e-05
1.28158e-05
1.31037e-05
1.33503e-05
1.35506e-05
1.37071e-05
1.38264e-05
1.39197e-05
1.40509e-05
1.45109e-05
1.34918e-05
1.31297e-05
1.3018e-05
1.2953e-05
1.28676e-05
1.27423e-05
1.25666e-05
1.23433e-05
1.2094e-05
1.18232e-05
1.15388e-05
1.125e-05
1.09651e-05
1.07142e-05
1.05619e-05
1.057e-05
1.07264e-05
1.09665e-05
1.12413e-05
1.15259e-05
1.18087e-05
1.20802e-05
1.23268e-05
1.25398e-05
1.27165e-05
1.28565e-05
1.29624e-05
1.30432e-05
1.31488e-05
1.3505e-05
1.26757e-05
1.23655e-05
1.22988e-05
1.22531e-05
1.21658e-05
1.20433e-05
1.18838e-05
1.16992e-05
1.14965e-05
1.1275e-05
1.1041e-05
1.0796e-05
1.0549e-05
1.03343e-05
1.02066e-05
1.02116e-05
1.03381e-05
1.05353e-05
1.07667e-05
1.10129e-05
1.12594e-05
1.14944e-05
1.17064e-05
1.18888e-05
1.2039e-05
1.2157e-05
1.22448e-05
1.23104e-05
1.23926e-05
1.26635e-05
1.19532e-05
1.17626e-05
1.1731e-05
1.16705e-05
1.158e-05
1.14727e-05
1.13436e-05
1.11959e-05
1.10252e-05
1.0837e-05
1.06372e-05
1.04254e-05
1.02145e-05
1.00376e-05
9.93173e-06
9.92751e-06
1.00242e-05
1.01882e-05
1.03912e-05
1.06118e-05
1.08317e-05
1.10351e-05
1.12143e-05
1.13653e-05
1.14867e-05
1.15798e-05
1.16479e-05
1.16989e-05
1.17625e-05
1.19705e-05
1.14215e-05
1.13331e-05
1.12721e-05
1.1194e-05
1.11174e-05
1.10322e-05
1.093e-05
1.08053e-05
1.06579e-05
1.04983e-05
1.03281e-05
1.01477e-05
9.97218e-06
9.82682e-06
9.73441e-06
9.72109e-06
9.79489e-06
9.93433e-06
1.01132e-05
1.03065e-05
1.04951e-05
1.06658e-05
1.0812e-05
1.09323e-05
1.1028e-05
1.1102e-05
1.1158e-05
1.1201e-05
1.1252e-05
1.14086e-05
1.10341e-05
1.09402e-05
1.08528e-05
1.07958e-05
1.07439e-05
1.06785e-05
1.05957e-05
1.04914e-05
1.03721e-05
1.02432e-05
1.01013e-05
9.95055e-06
9.80655e-06
9.68515e-06
9.60096e-06
9.58401e-06
9.64448e-06
9.76211e-06
9.91048e-06
1.00672e-05
1.02177e-05
1.03541e-05
1.04734e-05
1.05743e-05
1.06569e-05
1.07221e-05
1.07719e-05
1.08092e-05
1.08469e-05
1.09561e-05
1.06707e-05
1.0551e-05
1.05069e-05
1.04849e-05
1.04491e-05
1.03956e-05
1.03248e-05
1.0239e-05
1.01443e-05
1.00379e-05
9.91646e-06
9.78929e-06
9.6704e-06
9.56775e-06
9.49608e-06
9.48495e-06
9.53944e-06
9.63586e-06
9.75205e-06
9.87256e-06
9.99007e-06
1.01024e-05
1.0207e-05
1.02991e-05
1.03745e-05
1.04329e-05
1.04754e-05
1.05038e-05
1.05264e-05
1.05953e-05
1.0321e-05
1.02617e-05
1.027e-05
1.02579e-05
1.02236e-05
1.0172e-05
1.01071e-05
1.00358e-05
9.95772e-06
9.86417e-06
9.75751e-06
9.65112e-06
9.5531e-06
9.46885e-06
9.41215e-06
9.40828e-06
9.45893e-06
9.53865e-06
9.63006e-06
9.72522e-06
9.82226e-06
9.91953e-06
1.00114e-05
1.00908e-05
1.01542e-05
1.02009e-05
1.02316e-05
1.02477e-05
1.02556e-05
1.02907e-05
1.00705e-05