/*--------------------------------*- C++ -*----------------------------------*\
| =========                 |                                                 |
| \\      /  F ield         | OpenFOAM: The Open Source CFD Toolbox           |
|  \\    /   O peration     | Version:  2312                                  |
|   \\  /    A nd           | Website:  www.openfoam.com                      |
|    \\/     M anipulation  |                                                 |
\*---------------------------------------------------------------------------*/
FoamFile
{
    version     2.0;
    format      ascii;
    arch        "LSB;label=32;scalar=64";
    class       volScalarField;
    location    "1.1552399";
    object      k;
}
// * * * * * * * * * * * * * * * * * * * * * * * * * * * * * * * * * * * * * //

dimensions      [0 2 -2 0 0 0 0];

internalField   nonuniform List<scalar> 
90000
(
2.2787e-05
2.27915e-05
2.27923e-05
2.27927e-05
2.27928e-05
2.27926e-05
2.27923e-05
2.2792e-05
2.27916e-05
2.27913e-05
2.27909e-05
2.27906e-05
2.27904e-05
2.27906e-05
2.27908e-05
2.27911e-05
2.27916e-05
2.27926e-05
2.27935e-05
2.27936e-05
2.27927e-05
2.2791e-05
2.27917e-05
2.27946e-05
2.27972e-05
2.27983e-05
2.27975e-05
2.27958e-05
2.2798e-05
2.28042e-05
2.27928e-05
2.288e-05
2.28877e-05
2.28877e-05
2.28871e-05
2.28866e-05
2.28864e-05
2.28863e-05
2.28861e-05
2.28859e-05
2.28859e-05
2.28862e-05
2.28866e-05
2.28869e-05
2.28871e-05
2.28872e-05
2.28872e-05
2.2887e-05
2.28866e-05
2.28861e-05
2.28865e-05
2.28874e-05
2.28881e-05
2.28881e-05
2.28871e-05
2.28859e-05
2.28871e-05
2.28911e-05
2.28872e-05
2.28186e-05
2.27938e-05
2.28879e-05
2.28961e-05
2.2896e-05
2.28956e-05
2.28953e-05
2.28952e-05
2.28953e-05
2.28952e-05
2.28949e-05
2.28948e-05
2.28953e-05
2.28961e-05
2.28969e-05
2.28971e-05
2.28966e-05
2.28955e-05
2.28945e-05
2.28953e-05
2.28968e-05
2.28977e-05
2.28981e-05
2.2898e-05
2.28979e-05
2.28985e-05
2.28998e-05
2.29005e-05
2.29032e-05
2.29052e-05
2.28143e-05
2.27934e-05
2.28881e-05
2.28966e-05
2.28969e-05
2.28967e-05
2.28965e-05
2.28964e-05
2.28964e-05
2.28964e-05
2.28961e-05
2.28958e-05
2.28961e-05
2.28966e-05
2.28971e-05
2.28971e-05
2.28965e-05
2.28959e-05
2.28966e-05
2.2898e-05
2.28989e-05
2.28989e-05
2.28985e-05
2.28993e-05
2.29013e-05
2.29033e-05
2.29046e-05
2.29061e-05
2.29057e-05
2.29039e-05
2.28043e-05
2.27925e-05
2.28878e-05
2.28966e-05
2.28972e-05
2.28972e-05
2.2897e-05
2.28967e-05
2.28966e-05
2.28965e-05
2.28965e-05
2.28965e-05
2.28963e-05
2.28961e-05
2.28957e-05
2.28955e-05
2.28964e-05
2.28975e-05
2.28984e-05
2.28987e-05
2.28984e-05
2.28978e-05
2.28983e-05
2.29003e-05
2.29024e-05
2.29038e-05
2.29038e-05
2.2903e-05
2.29025e-05
2.28955e-05
2.27996e-05
2.27918e-05
2.28879e-05
2.28966e-05
2.28973e-05
2.28975e-05
2.28974e-05
2.28971e-05
2.28967e-05
2.28966e-05
2.28967e-05
2.28969e-05
2.28973e-05
2.28977e-05
2.28977e-05
2.28975e-05
2.28976e-05
2.2898e-05
2.28981e-05
2.28979e-05
2.28974e-05
2.28976e-05
2.28986e-05
2.28998e-05
2.29006e-05
2.29009e-05
2.29007e-05
2.29003e-05
2.29042e-05
2.2897e-05
2.27998e-05
2.27924e-05
2.28886e-05
2.28971e-05
2.28979e-05
2.28984e-05
2.28987e-05
2.28987e-05
2.28982e-05
2.28973e-05
2.28968e-05
2.28971e-05
2.2898e-05
2.28991e-05
2.28996e-05
2.28991e-05
2.28978e-05
2.28966e-05
2.28961e-05
2.28965e-05
2.28974e-05
2.28982e-05
2.28985e-05
2.28982e-05
2.28973e-05
2.28974e-05
2.29003e-05
2.29038e-05
2.29075e-05
2.28998e-05
2.27993e-05
2.2793e-05
2.28903e-05
2.28984e-05
2.28992e-05
2.28998e-05
2.29004e-05
2.29007e-05
2.29004e-05
2.28993e-05
2.28978e-05
2.28975e-05
2.28982e-05
2.28992e-05
2.28996e-05
2.2899e-05
2.28973e-05
2.28953e-05
2.28945e-05
2.2896e-05
2.28974e-05
2.28981e-05
2.28978e-05
2.28968e-05
2.28964e-05
2.28986e-05
2.2902e-05
2.29052e-05
2.29068e-05
2.28977e-05
2.27977e-05
2.2794e-05
2.28926e-05
2.29001e-05
2.29006e-05
2.29011e-05
2.29017e-05
2.29021e-05
2.2902e-05
2.29014e-05
2.29003e-05
2.28992e-05
2.28985e-05
2.28981e-05
2.2898e-05
2.28979e-05
2.28977e-05
2.28974e-05
2.28974e-05
2.28977e-05
2.28981e-05
2.28982e-05
2.28975e-05
2.28967e-05
2.28974e-05
2.28999e-05
2.29026e-05
2.29045e-05
2.29042e-05
2.28946e-05
2.27963e-05
2.27969e-05
2.28936e-05
2.29004e-05
2.29007e-05
2.29008e-05
2.2901e-05
2.29014e-05
2.29018e-05
2.29022e-05
2.2902e-05
2.29012e-05
2.28995e-05
2.28974e-05
2.28962e-05
2.28971e-05
2.2899e-05
2.29006e-05
2.29016e-05
2.2902e-05
2.29016e-05
2.29007e-05
2.28994e-05
2.28981e-05
2.28982e-05
2.28998e-05
2.29014e-05
2.29021e-05
2.29012e-05
2.28922e-05
2.27959e-05
2.27995e-05
2.28932e-05
2.28997e-05
2.28997e-05
2.28992e-05
2.28986e-05
2.28986e-05
2.28995e-05
2.29008e-05
2.29018e-05
2.29018e-05
2.29006e-05
2.28985e-05
2.28966e-05
2.2897e-05
2.28996e-05
2.29024e-05
2.29046e-05
2.29058e-05
2.29057e-05
2.29044e-05
2.29022e-05
2.29e-05
2.28986e-05
2.28991e-05
2.29001e-05
2.29007e-05
2.29004e-05
2.28922e-05
2.2797e-05
2.27997e-05
2.28939e-05
2.29005e-05
2.29004e-05
2.28998e-05
2.28991e-05
2.28987e-05
2.2899e-05
2.28996e-05
2.29003e-05
2.29007e-05
2.29006e-05
2.28997e-05
2.28979e-05
2.28964e-05
2.28991e-05
2.29029e-05
2.29059e-05
2.29073e-05
2.2907e-05
2.29054e-05
2.2903e-05
2.29005e-05
2.28986e-05
2.28989e-05
2.29e-05
2.2901e-05
2.29012e-05
2.2894e-05
2.27983e-05
2.27985e-05
2.28954e-05
2.29024e-05
2.29031e-05
2.29043e-05
2.29054e-05
2.2906e-05
2.29056e-05
2.2904e-05
2.29016e-05
2.29004e-05
2.29011e-05
2.29016e-05
2.29014e-05
2.2901e-05
2.29016e-05
2.29031e-05
2.29041e-05
2.29043e-05
2.29037e-05
2.29027e-05
2.29014e-05
2.29e-05
2.2899e-05
2.28995e-05
2.29004e-05
2.29013e-05
2.2902e-05
2.28947e-05
2.2799e-05
2.28026e-05
2.28954e-05
2.29043e-05
2.29068e-05
2.29098e-05
2.29121e-05
2.29129e-05
2.29115e-05
2.29081e-05
2.29038e-05
2.29005e-05
2.29011e-05
2.29031e-05
2.29049e-05
2.29058e-05
2.29057e-05
2.29043e-05
2.29016e-05
2.28989e-05
2.28982e-05
2.28991e-05
2.29e-05
2.29003e-05
2.29002e-05
2.29003e-05
2.29009e-05
2.29018e-05
2.29025e-05
2.28947e-05
2.27999e-05
2.28082e-05
2.28938e-05
2.29075e-05
2.29115e-05
2.29146e-05
2.29158e-05
2.29147e-05
2.29117e-05
2.29075e-05
2.29032e-05
2.28998e-05
2.29001e-05
2.29031e-05
2.29062e-05
2.29078e-05
2.29075e-05
2.29053e-05
2.29017e-05
2.28983e-05
2.28969e-05
2.28982e-05
2.29002e-05
2.29014e-05
2.29016e-05
2.29013e-05
2.2902e-05
2.29034e-05
2.29041e-05
2.28968e-05
2.2803e-05
2.28102e-05
2.29028e-05
2.29133e-05
2.29153e-05
2.29156e-05
2.29139e-05
2.29108e-05
2.29073e-05
2.29044e-05
2.29019e-05
2.28997e-05
2.28997e-05
2.29027e-05
2.29058e-05
2.29074e-05
2.29073e-05
2.29057e-05
2.29035e-05
2.29012e-05
2.28996e-05
2.28994e-05
2.29009e-05
2.29024e-05
2.29029e-05
2.29031e-05
2.29044e-05
2.29061e-05
2.29078e-05
2.29024e-05
2.28066e-05
2.28082e-05
2.29123e-05
2.2918e-05
2.29168e-05
2.29137e-05
2.29095e-05
2.29056e-05
2.29037e-05
2.29036e-05
2.29028e-05
2.29014e-05
2.29012e-05
2.2903e-05
2.2905e-05
2.29061e-05
2.29062e-05
2.29058e-05
2.29047e-05
2.29032e-05
2.2902e-05
2.29018e-05
2.29021e-05
2.29029e-05
2.29038e-05
2.2905e-05
2.29069e-05
2.29091e-05
2.29112e-05
2.29046e-05
2.28071e-05
2.28082e-05
2.29175e-05
2.29209e-05
2.29181e-05
2.29141e-05
2.29099e-05
2.29064e-05
2.29048e-05
2.29046e-05
2.2904e-05
2.29034e-05
2.29029e-05
2.29031e-05
2.29034e-05
2.29037e-05
2.29044e-05
2.29049e-05
2.29051e-05
2.29048e-05
2.29044e-05
2.29041e-05
2.29041e-05
2.29045e-05
2.29054e-05
2.29073e-05
2.29097e-05
2.29117e-05
2.29125e-05
2.29036e-05
2.28064e-05
2.28139e-05
2.29197e-05
2.29236e-05
2.29208e-05
2.29172e-05
2.29139e-05
2.29113e-05
2.2909e-05
2.29068e-05
2.29051e-05
2.29039e-05
2.29025e-05
2.29015e-05
2.29009e-05
2.29009e-05
2.29018e-05
2.29032e-05
2.29045e-05
2.29054e-05
2.29056e-05
2.29056e-05
2.29057e-05
2.29061e-05
2.29086e-05
2.29118e-05
2.29136e-05
2.29142e-05
2.29133e-05
2.29039e-05
2.28084e-05
2.282e-05
2.29206e-05
2.29257e-05
2.29233e-05
2.29203e-05
2.29176e-05
2.29153e-05
2.2913e-05
2.29103e-05
2.29077e-05
2.29052e-05
2.29027e-05
2.29006e-05
2.28991e-05
2.28985e-05
2.28997e-05
2.29019e-05
2.2904e-05
2.29055e-05
2.29064e-05
2.2907e-05
2.29082e-05
2.29116e-05
2.29151e-05
2.2917e-05
2.29172e-05
2.29169e-05
2.29166e-05
2.29091e-05
2.28136e-05
2.28256e-05
2.29215e-05
2.29273e-05
2.29253e-05
2.29231e-05
2.29212e-05
2.29193e-05
2.29169e-05
2.2914e-05
2.29108e-05
2.29074e-05
2.29041e-05
2.29016e-05
2.29001e-05
2.28999e-05
2.29012e-05
2.29032e-05
2.29051e-05
2.2907e-05
2.29089e-05
2.29115e-05
2.29151e-05
2.29185e-05
2.292e-05
2.29196e-05
2.29191e-05
2.29196e-05
2.29205e-05
2.29139e-05
2.28188e-05
2.28305e-05
2.29231e-05
2.293e-05
2.29286e-05
2.29269e-05
2.29251e-05
2.29229e-05
2.29201e-05
2.29169e-05
2.29132e-05
2.29095e-05
2.29066e-05
2.2905e-05
2.29042e-05
2.29036e-05
2.29037e-05
2.29047e-05
2.29068e-05
2.29099e-05
2.29139e-05
2.29183e-05
2.29217e-05
2.29231e-05
2.29223e-05
2.29219e-05
2.29227e-05
2.29242e-05
2.29254e-05
2.29188e-05
2.28244e-05
2.28356e-05
2.29268e-05
2.29344e-05
2.29334e-05
2.29316e-05
2.29292e-05
2.29263e-05
2.2923e-05
2.29196e-05
2.29162e-05
2.29135e-05
2.29113e-05
2.2909e-05
2.29064e-05
2.29039e-05
2.29032e-05
2.29049e-05
2.29087e-05
2.29137e-05
2.29193e-05
2.29236e-05
2.29254e-05
2.29255e-05
2.29256e-05
2.29268e-05
2.2929e-05
2.29311e-05
2.29321e-05
2.29253e-05
2.28314e-05
2.28418e-05
2.2933e-05
2.29408e-05
2.29398e-05
2.29375e-05
2.29344e-05
2.29311e-05
2.29278e-05
2.29246e-05
2.29215e-05
2.29185e-05
2.29152e-05
2.29112e-05
2.29067e-05
2.29032e-05
2.29033e-05
2.29064e-05
2.29116e-05
2.29181e-05
2.29233e-05
2.29265e-05
2.2928e-05
2.29293e-05
2.29314e-05
2.29344e-05
2.29377e-05
2.29397e-05
2.29407e-05
2.29335e-05
2.28401e-05
2.28501e-05
2.29423e-05
2.29498e-05
2.29484e-05
2.29455e-05
2.29422e-05
2.2939e-05
2.29356e-05
2.2932e-05
2.29281e-05
2.2924e-05
2.29191e-05
2.29134e-05
2.29079e-05
2.29051e-05
2.29056e-05
2.29089e-05
2.29152e-05
2.29212e-05
2.29257e-05
2.29292e-05
2.29327e-05
2.29361e-05
2.29395e-05
2.29437e-05
2.29468e-05
2.29492e-05
2.29506e-05
2.29435e-05
2.28513e-05
2.2862e-05
2.2955e-05
2.29616e-05
2.29596e-05
2.29565e-05
2.29532e-05
2.29497e-05
2.29457e-05
2.29413e-05
2.29366e-05
2.29311e-05
2.29243e-05
2.29172e-05
2.29119e-05
2.29086e-05
2.29082e-05
2.29116e-05
2.29178e-05
2.29239e-05
2.29299e-05
2.29358e-05
2.29405e-05
2.29445e-05
2.29493e-05
2.29532e-05
2.29564e-05
2.29598e-05
2.29625e-05
2.29577e-05
2.28627e-05
2.28788e-05
2.29707e-05
2.29767e-05
2.29744e-05
2.29712e-05
2.29674e-05
2.2963e-05
2.2958e-05
2.29527e-05
2.29463e-05
2.29387e-05
2.29305e-05
2.29235e-05
2.29179e-05
2.2913e-05
2.29117e-05
2.29155e-05
2.29224e-05
2.29304e-05
2.29382e-05
2.29446e-05
2.295e-05
2.29554e-05
2.29609e-05
2.29651e-05
2.29694e-05
2.2974e-05
2.29774e-05
2.29714e-05
2.28775e-05
2.28991e-05
2.29895e-05
2.29956e-05
2.2993e-05
2.2989e-05
2.2984e-05
2.29783e-05
2.29721e-05
2.29652e-05
2.29571e-05
2.29481e-05
2.29398e-05
2.29326e-05
2.29253e-05
2.29186e-05
2.29172e-05
2.29224e-05
2.29309e-05
2.29401e-05
2.29486e-05
2.29564e-05
2.29639e-05
2.29699e-05
2.29761e-05
2.29817e-05
2.29874e-05
2.29925e-05
2.29942e-05
2.29879e-05
2.28963e-05
2.29227e-05
2.30121e-05
2.30175e-05
2.30141e-05
2.30092e-05
2.30033e-05
2.29968e-05
2.29895e-05
2.2981e-05
2.29713e-05
2.29613e-05
2.29524e-05
2.29432e-05
2.29337e-05
2.29259e-05
2.2925e-05
2.29318e-05
2.29417e-05
2.29524e-05
2.29627e-05
2.29723e-05
2.29816e-05
2.2989e-05
2.29965e-05
2.30037e-05
2.30098e-05
2.30145e-05
2.30157e-05
2.30092e-05
2.29206e-05
2.29503e-05
2.30383e-05
2.30433e-05
2.30395e-05
2.30341e-05
2.30278e-05
2.30204e-05
2.30117e-05
2.30013e-05
2.29895e-05
2.2978e-05
2.29669e-05
2.29551e-05
2.29434e-05
2.29347e-05
2.29344e-05
2.29426e-05
2.29541e-05
2.29666e-05
2.2979e-05
2.29905e-05
2.30023e-05
2.30126e-05
2.30217e-05
2.30297e-05
2.30361e-05
2.30407e-05
2.3043e-05
2.30383e-05
2.29499e-05
2.29837e-05
2.30705e-05
2.30755e-05
2.30712e-05
2.30652e-05
2.30579e-05
2.30491e-05
2.30384e-05
2.30255e-05
2.30115e-05
2.29979e-05
2.2984e-05
2.29696e-05
2.2956e-05
2.29464e-05
2.29466e-05
2.29562e-05
2.29692e-05
2.29838e-05
2.29988e-05
2.30127e-05
2.30277e-05
2.3041e-05
2.30509e-05
2.30599e-05
2.3067e-05
2.30725e-05
2.30773e-05
2.30733e-05
2.2985e-05
2.3025e-05
2.31108e-05
2.31153e-05
2.31101e-05
2.31028e-05
2.3094e-05
2.30834e-05
2.30706e-05
2.30556e-05
2.30395e-05
2.30231e-05
2.30061e-05
2.29888e-05
2.29729e-05
2.29621e-05
2.29624e-05
2.29734e-05
2.29888e-05
2.30057e-05
2.30234e-05
2.30404e-05
2.30583e-05
2.30731e-05
2.30844e-05
2.30952e-05
2.31045e-05
2.31114e-05
2.31185e-05
2.31147e-05
2.30278e-05
2.30759e-05
2.316e-05
2.31635e-05
2.31572e-05
2.31484e-05
2.31381e-05
2.31256e-05
2.31108e-05
2.30936e-05
2.30746e-05
2.30544e-05
2.30333e-05
2.30128e-05
2.29947e-05
2.29825e-05
2.29827e-05
2.29954e-05
2.30134e-05
2.30328e-05
2.30537e-05
2.30739e-05
2.30932e-05
2.31101e-05
2.31247e-05
2.31382e-05
2.31496e-05
2.31585e-05
2.31668e-05
2.31634e-05
2.30791e-05
2.31377e-05
2.32193e-05
2.3222e-05
2.32147e-05
2.32044e-05
2.3192e-05
2.31769e-05
2.31591e-05
2.31386e-05
2.31158e-05
2.30917e-05
2.30672e-05
2.30437e-05
2.30235e-05
2.30098e-05
2.30095e-05
2.30233e-05
2.3044e-05
2.30664e-05
2.30908e-05
2.31138e-05
2.31357e-05
2.3156e-05
2.31748e-05
2.31903e-05
2.32039e-05
2.32153e-05
2.32242e-05
2.32215e-05
2.31397e-05
2.32121e-05
2.32913e-05
2.32931e-05
2.3284e-05
2.32715e-05
2.32562e-05
2.32379e-05
2.32164e-05
2.31924e-05
2.31661e-05
2.31385e-05
2.31107e-05
2.3084e-05
2.30606e-05
2.30448e-05
2.30444e-05
2.30598e-05
2.30834e-05
2.31093e-05
2.31373e-05
2.31637e-05
2.31895e-05
2.32138e-05
2.32358e-05
2.32533e-05
2.32704e-05
2.3284e-05
2.32936e-05
2.32915e-05
2.32121e-05
2.33017e-05
2.33775e-05
2.33777e-05
2.33665e-05
2.33518e-05
2.33338e-05
2.33122e-05
2.32872e-05
2.32596e-05
2.32296e-05
2.31982e-05
2.31665e-05
2.31356e-05
2.31082e-05
2.30902e-05
2.30905e-05
2.31087e-05
2.31356e-05
2.31655e-05
2.31975e-05
2.32279e-05
2.32582e-05
2.32861e-05
2.33105e-05
2.33314e-05
2.33518e-05
2.3367e-05
2.33771e-05
2.33752e-05
2.33005e-05
2.34093e-05
2.34803e-05
2.34794e-05
2.3467e-05
2.34503e-05
2.34293e-05
2.34042e-05
2.33756e-05
2.33441e-05
2.33101e-05
2.32742e-05
2.32379e-05
2.32028e-05
2.3172e-05
2.31517e-05
2.31523e-05
2.31734e-05
2.32037e-05
2.32378e-05
2.32749e-05
2.33099e-05
2.33442e-05
2.33751e-05
2.34029e-05
2.34279e-05
2.34511e-05
2.34669e-05
2.34782e-05
2.34788e-05
2.34086e-05
2.35386e-05
2.36052e-05
2.36039e-05
2.35899e-05
2.35702e-05
2.35456e-05
2.35168e-05
2.34845e-05
2.34491e-05
2.34107e-05
2.33703e-05
2.33295e-05
2.32906e-05
2.32567e-05
2.32337e-05
2.32333e-05
2.32565e-05
2.32911e-05
2.333e-05
2.33722e-05
2.34117e-05
2.34493e-05
2.34836e-05
2.35166e-05
2.3546e-05
2.35701e-05
2.35887e-05
2.36033e-05
2.36064e-05
2.35396e-05
2.36948e-05
2.37574e-05
2.37544e-05
2.37372e-05
2.3714e-05
2.36859e-05
2.36536e-05
2.36174e-05
2.35774e-05
2.35346e-05
2.34899e-05
2.34451e-05
2.34017e-05
2.3364e-05
2.33386e-05
2.33374e-05
2.33632e-05
2.34024e-05
2.3446e-05
2.34922e-05
2.35355e-05
2.35768e-05
2.36158e-05
2.36539e-05
2.3687e-05
2.37128e-05
2.37363e-05
2.37547e-05
2.37572e-05
2.3695e-05
2.38828e-05
2.3939e-05
2.39335e-05
2.39136e-05
2.38877e-05
2.38567e-05
2.38207e-05
2.378e-05
2.37354e-05
2.36885e-05
2.36395e-05
2.35906e-05
2.35428e-05
2.35003e-05
2.34729e-05
2.34718e-05
2.35006e-05
2.35437e-05
2.35912e-05
2.36408e-05
2.36883e-05
2.37344e-05
2.37789e-05
2.38201e-05
2.38573e-05
2.3887e-05
2.3914e-05
2.39338e-05
2.39366e-05
2.38805e-05
2.41076e-05
2.4156e-05
2.41492e-05
2.41283e-05
2.41004e-05
2.40661e-05
2.40256e-05
2.39812e-05
2.39332e-05
2.38831e-05
2.383e-05
2.37768e-05
2.37256e-05
2.3678e-05
2.36476e-05
2.36467e-05
2.36781e-05
2.3725e-05
2.37764e-05
2.38292e-05
2.38814e-05
2.39321e-05
2.3981e-05
2.40244e-05
2.40656e-05
2.41007e-05
2.41281e-05
2.41483e-05
2.41553e-05
2.41056e-05
2.43777e-05
2.442e-05
2.44128e-05
2.439e-05
2.43587e-05
2.43206e-05
2.42765e-05
2.42297e-05
2.41786e-05
2.41256e-05
2.407e-05
2.40131e-05
2.396e-05
2.39087e-05
2.38741e-05
2.38754e-05
2.39095e-05
2.39585e-05
2.40135e-05
2.40694e-05
2.41249e-05
2.41776e-05
2.42291e-05
2.42772e-05
2.43198e-05
2.43587e-05
2.43884e-05
2.44103e-05
2.44213e-05
2.43795e-05
2.47063e-05
2.47428e-05
2.47334e-05
2.47069e-05
2.46719e-05
2.46317e-05
2.45849e-05
2.45359e-05
2.4483e-05
2.44282e-05
2.43742e-05
2.43152e-05
2.42594e-05
2.42087e-05
2.41719e-05
2.41734e-05
2.421e-05
2.42603e-05
2.43158e-05
2.43729e-05
2.44293e-05
2.44832e-05
2.45357e-05
2.45882e-05
2.46316e-05
2.46712e-05
2.47071e-05
2.47333e-05
2.47446e-05
2.47076e-05
2.51089e-05
2.51398e-05
2.51266e-05
2.50977e-05
2.50599e-05
2.5018e-05
2.49698e-05
2.49205e-05
2.48687e-05
2.48148e-05
2.47649e-05
2.47107e-05
2.46591e-05
2.46152e-05
2.45832e-05
2.45836e-05
2.46151e-05
2.4662e-05
2.4712e-05
2.4763e-05
2.48156e-05
2.48691e-05
2.49202e-05
2.49695e-05
2.50174e-05
2.50609e-05
2.50995e-05
2.51263e-05
2.51396e-05
2.51094e-05
2.56111e-05
2.56458e-05
2.5626e-05
2.55957e-05
2.55576e-05
2.55133e-05
2.54617e-05
2.54155e-05
2.53774e-05
2.53381e-05
2.53183e-05
2.53185e-05
2.53393e-05
2.53696e-05
2.54137e-05
2.54204e-05
2.53736e-05
2.53387e-05
2.53204e-05
2.53219e-05
2.53395e-05
2.53756e-05
2.54192e-05
2.54609e-05
2.55105e-05
2.55591e-05
2.55966e-05
2.5623e-05
2.56433e-05
2.5616e-05
2.6305e-05
2.63872e-05
2.63609e-05
2.63524e-05
2.63152e-05
2.62573e-05
2.62138e-05
2.62096e-05
2.62429e-05
2.63361e-05
2.66338e-05
2.71613e-05
2.79216e-05
2.87299e-05
2.95703e-05
2.95967e-05
2.87509e-05
2.79255e-05
2.718e-05
2.66395e-05
2.63411e-05
2.62433e-05
2.62096e-05
2.6215e-05
2.62594e-05
2.63127e-05
2.63507e-05
2.63633e-05
2.63872e-05
2.63082e-05
2.76221e-05
2.79331e-05
2.8045e-05
2.83278e-05
2.81948e-05
2.80844e-05
2.83102e-05
2.85746e-05
2.91402e-05
3.04678e-05
3.33993e-05
3.81682e-05
4.47769e-05
5.10235e-05
5.66163e-05
5.68211e-05
5.11742e-05
4.48152e-05
3.83512e-05
3.34332e-05
3.04955e-05
2.91532e-05
2.85797e-05
2.8315e-05
2.80913e-05
2.81877e-05
2.83289e-05
2.80536e-05
2.7935e-05
2.76253e-05
3.17254e-05
3.29436e-05
3.42653e-05
3.78934e-05
3.58478e-05
3.58464e-05
4.10174e-05
4.19708e-05
4.53168e-05
5.60726e-05
7.56253e-05
9.91785e-05
0.000135664
0.000164267
0.000181219
0.000181619
0.000164411
0.000136377
0.000100376
7.56271e-05
5.61992e-05
4.54243e-05
4.20189e-05
4.11024e-05
3.59071e-05
3.58296e-05
3.7907e-05
3.43023e-05
3.29779e-05
3.17028e-05
4.61701e-05
5.48926e-05
5.9893e-05
8.42005e-05
7.11398e-05
7.89078e-05
0.000120436
0.000126345
0.000151247
0.000222013
0.000294609
0.000351784
0.000460418
0.000533378
0.000566012
0.000564254
0.00053108
0.000463754
0.000354758
0.000293598
0.000222293
0.000151854
0.000126764
0.000121106
7.93044e-05
7.13738e-05
8.48725e-05
6.0017e-05
5.52159e-05
4.60465e-05
9.97695e-05
0.000157501
0.00016216
0.000273806
0.000252745
0.000308434
0.000388597
0.000467378
0.000580238
0.000696668
0.000881323
0.000904455
0.00107763
0.00117107
0.00111327
0.00111176
0.00116045
0.00108367
0.000906812
0.000856971
0.000690168
0.000582549
0.000471493
0.000391232
0.000308534
0.000255481
0.000278195
0.000162891
0.00015804
9.96151e-05
0.000227155
0.000399026
0.000441262
0.000677626
0.000785024
0.000924175
0.00107672
0.00130488
0.00140063
0.00153343
0.00168863
0.00169571
0.0018053
0.00193615
0.00182395
0.0018053
0.00191674
0.00181421
0.00167019
0.00163505
0.00150896
0.00140199
0.0013129
0.00108591
0.000936206
0.000803733
0.000694415
0.000445399
0.00039897
0.000228806
0.000316034
0.000449108
0.000538625
0.000806922
0.00106277
0.00129397
0.00141133
0.00154295
0.00170005
0.00197292
0.00210265
0.00206455
0.00199818
0.00209948
0.00209996
0.0020723
0.0020949
0.00201847
0.00197679
0.00199012
0.00194443
0.00171309
0.00155125
0.00142656
0.00131501
0.00111386
0.000842255
0.000545744
0.000451925
0.000315313
0.00040094
0.000476926
0.000546109
0.000813193
0.000997401
0.00109333
0.0013142
0.00157404
0.00168764
0.00200076
0.00190051
0.00178957
0.00186628
0.00194188
0.0018183
0.00182043
0.00196836
0.00192643
0.0018014
0.00189892
0.0020471
0.00176177
0.00161992
0.00133151
0.00110187
0.00101668
0.000840707
0.000556628
0.000478657
0.000396715
0.000405441
0.000463631
0.000536461
0.000798617
0.000894887
0.00088655
0.00101586
0.00118404
0.00131186
0.00150226
0.00141375
0.00143113
0.00145074
0.00153145
0.00166161
0.00168086
0.00156553
0.00147334
0.00148572
0.00142973
0.00154736
0.00132175
0.00120244
0.00102987
0.000896826
0.000909018
0.000809567
0.00053075
0.000468468
0.000402065
0.000328437
0.000380252
0.000476036
0.000689927
0.000681921
0.00062414
0.000732911
0.000824911
0.000887274
0.00106263
0.00100629
0.00105682
0.00111421
0.00118055
0.00128469
0.00129115
0.00119725
0.0011288
0.0010777
0.00100716
0.00109417
0.000901721
0.000844235
0.000744146
0.000632383
0.000687617
0.000696812
0.000479969
0.000393364
0.000329536
0.000248014
0.000292929
0.000350281
0.000507121
0.000457393
0.000393414
0.000502821
0.000586022
0.000659205
0.000783991
0.000783553
0.000793781
0.000794543
0.000840545
0.000868713
0.000866713
0.000851083
0.000797728
0.000792527
0.000772999
0.000798471
0.000668315
0.000592196
0.000508541
0.000396827
0.000458833
0.000513044
0.000353107
0.000301752
0.000251419
0.000188653
0.000219623
0.000245077
0.000321596
0.000288196
0.00023964
0.000280913
0.000354589
0.000456257
0.000593893
0.000668714
0.000711562
0.000729752
0.000750973
0.000748899
0.000747405
0.000757003
0.000731406
0.000708163
0.000662759
0.000597014
0.000458688
0.000357743
0.000284194
0.000241168
0.000290884
0.000326051
0.000245599
0.000223159
0.000190057
0.000150578
0.000166135
0.000174265
0.000196365
0.000184833
0.00016731
0.000172633
0.000197111
0.00025125
0.00036506
0.000494098
0.000608612
0.000686769
0.000731511
0.000738831
0.000737881
0.000734517
0.000687914
0.000606916
0.000490957
0.000365849
0.0002519
0.000198172
0.000174177
0.000168278
0.000186822
0.000198583
0.000174867
0.000168163
0.000151166
0.000125287
0.00013219
0.000133421
0.000136904
0.000133304
0.000129077
0.000129729
0.000135222
0.000150806
0.000195884
0.000284484
0.000412
0.000542609
0.000639199
0.000682706
0.000681923
0.000640866
0.000543902
0.000410914
0.000282803
0.000196317
0.000151325
0.000135763
0.000129907
0.000129376
0.000134512
0.000137878
0.000133643
0.000133104
0.000125995
0.000107707
0.000111152
0.000110499
0.000110509
0.000109481
0.000108443
0.000108617
0.000110393
0.000114589
0.000126236
0.000155604
0.000220051
0.000320817
0.000432554
0.000508332
0.00050753
0.000433088
0.000321626
0.000219594
0.00015519
0.000126732
0.000114945
0.00011066
0.000108733
0.000108533
0.000109818
0.000110938
0.000110997
0.000111553
0.000108169
9.4854e-05
9.63782e-05
9.58694e-05
9.58712e-05
9.55731e-05
9.54745e-05
9.59939e-05
9.68748e-05
9.83547e-05
0.000101341
0.000108129
0.000125066
0.000160759
0.000215056
0.000267863
0.000267356
0.000214822
0.000160928
0.000124969
0.000108325
0.000101605
9.85417e-05
9.70888e-05
9.6185e-05
9.57476e-05
9.5905e-05
9.59436e-05
9.63442e-05
9.68148e-05
9.49744e-05
8.48394e-05
8.50659e-05
8.49282e-05
8.50288e-05
8.52544e-05
8.56532e-05
8.64289e-05
8.70469e-05
8.77879e-05
8.86984e-05
9.01976e-05
9.34103e-05
0.00010047
0.000113093
0.000128117
0.000128124
0.000113212
0.000100644
9.34175e-05
9.04241e-05
8.89129e-05
8.79023e-05
8.71626e-05
8.64755e-05
8.58804e-05
8.54198e-05
8.51132e-05
8.51523e-05
8.56527e-05
8.53568e-05
7.74412e-05
7.62567e-05
7.6179e-05
7.6386e-05
7.6727e-05
7.73215e-05
7.7993e-05
7.83497e-05
7.87333e-05
7.89847e-05
7.91455e-05
7.94399e-05
8.02662e-05
8.1996e-05
8.43006e-05
8.42716e-05
8.21346e-05
8.04864e-05
7.96616e-05
7.93549e-05
7.90828e-05
7.88414e-05
7.85521e-05
7.79735e-05
7.73409e-05
7.67418e-05
7.64772e-05
7.6366e-05
7.68488e-05
7.79068e-05
7.11044e-05
6.91403e-05
6.88554e-05
6.90232e-05
6.94695e-05
6.99871e-05
7.03445e-05
7.05413e-05
7.06264e-05
7.04431e-05
7.00755e-05
6.97236e-05
6.9434e-05
6.92394e-05
6.92238e-05
6.91931e-05
6.93572e-05
6.96053e-05
6.99542e-05
7.03004e-05
7.05757e-05
7.0758e-05
7.07028e-05
7.03844e-05
6.99825e-05
6.95839e-05
6.93259e-05
6.90949e-05
6.95356e-05
7.13804e-05
6.53418e-05
6.30137e-05
6.26148e-05
6.28366e-05
6.32265e-05
6.35482e-05
6.36466e-05
6.36093e-05
6.33393e-05
6.28613e-05
6.23067e-05
6.17243e-05
6.10643e-05
6.04456e-05
6.0073e-05
6.01401e-05
6.0648e-05
6.1229e-05
6.18368e-05
6.24596e-05
6.30626e-05
6.35454e-05
6.37218e-05
6.36863e-05
6.35373e-05
6.3331e-05
6.30953e-05
6.28767e-05
6.33149e-05
6.55015e-05
6.00082e-05
5.76635e-05
5.73396e-05
5.75249e-05
5.77052e-05
5.77654e-05
5.76514e-05
5.73687e-05
5.69113e-05
5.63398e-05
5.5656e-05
5.48705e-05
5.40154e-05
5.33076e-05
5.29204e-05
5.30189e-05
5.35059e-05
5.41621e-05
5.49542e-05
5.58001e-05
5.65811e-05
5.71812e-05
5.75251e-05
5.77016e-05
5.77542e-05
5.76951e-05
5.75323e-05
5.74349e-05
5.7915e-05
6.01323e-05
5.51231e-05
5.3094e-05
5.27402e-05
5.27238e-05
5.26804e-05
5.25668e-05
5.23231e-05
5.19058e-05
5.13688e-05
5.06959e-05
4.98983e-05
4.90326e-05
4.81708e-05
4.74703e-05
4.70602e-05
4.71079e-05
4.75603e-05
4.82621e-05
4.91378e-05
5.00632e-05
5.09185e-05
5.16053e-05
5.20858e-05
5.24121e-05
5.25973e-05
5.26605e-05
5.2631e-05
5.26694e-05
5.3179e-05
5.53264e-05
5.09531e-05
4.89501e-05
4.85113e-05
4.83921e-05
4.8286e-05
4.81062e-05
4.77371e-05
4.72381e-05
4.66457e-05
4.59081e-05
4.50621e-05
4.41822e-05
4.33317e-05
4.26212e-05
4.21713e-05
4.21757e-05
4.26177e-05
4.33522e-05
4.42691e-05
4.52204e-05
4.61065e-05
4.6846e-05
4.7407e-05
4.78176e-05
4.81143e-05
4.82956e-05
4.83856e-05
4.84989e-05
4.89829e-05
5.10215e-05
4.69911e-05
4.51441e-05
4.47734e-05
4.46371e-05
4.44655e-05
4.41795e-05
4.37502e-05
4.32639e-05
4.26737e-05
4.19334e-05
4.10947e-05
4.02192e-05
3.93757e-05
3.86678e-05
3.82198e-05
3.82108e-05
3.86355e-05
3.93527e-05
4.02389e-05
4.11535e-05
4.20196e-05
4.27821e-05
4.3403e-05
4.38745e-05
4.42291e-05
4.4483e-05
4.46529e-05
4.48083e-05
4.52574e-05
4.7121e-05
4.34752e-05
4.198e-05
4.15936e-05
4.13696e-05
4.10995e-05
4.07557e-05
4.03516e-05
3.98822e-05
3.92889e-05
3.85671e-05
3.77608e-05
3.69124e-05
3.60918e-05
3.53922e-05
3.49443e-05
3.49182e-05
3.53193e-05
3.60104e-05
3.68642e-05
3.77548e-05
3.86032e-05
3.9356e-05
3.99769e-05
4.04617e-05
4.08484e-05
4.11561e-05
4.1387e-05
4.1579e-05
4.20017e-05
4.36444e-05
4.0528e-05
3.92242e-05
3.87673e-05
3.84846e-05
3.82097e-05
3.7907e-05
3.75306e-05
3.70508e-05
3.64625e-05
3.57751e-05
3.50156e-05
3.42091e-05
3.34253e-05
3.27573e-05
3.23353e-05
3.23222e-05
3.27145e-05
3.33764e-05
3.41795e-05
3.50065e-05
3.57849e-05
3.64843e-05
3.7086e-05
3.75845e-05
3.79935e-05
3.83214e-05
3.85742e-05
3.87795e-05
3.9158e-05
4.05617e-05
3.78703e-05
3.66496e-05
3.62464e-05
3.60198e-05
3.58231e-05
3.55569e-05
3.51675e-05
3.46908e-05
3.4138e-05
3.34902e-05
3.27666e-05
3.20034e-05
3.12756e-05
3.06697e-05
3.02971e-05
3.03041e-05
3.06736e-05
3.12795e-05
3.2007e-05
3.27566e-05
3.34682e-05
3.41211e-05
3.46988e-05
3.51909e-05
3.55923e-05
3.59103e-05
3.61532e-05
3.63437e-05
3.66629e-05
3.78432e-05
3.55051e-05
3.44198e-05
3.41369e-05
3.39944e-05
3.38187e-05
3.35336e-05
3.31551e-05
3.27263e-05
3.22168e-05
3.16043e-05
3.09173e-05
3.02078e-05
2.95475e-05
2.90076e-05
2.86804e-05
2.86968e-05
2.90413e-05
2.95921e-05
3.02448e-05
3.0918e-05
3.15679e-05
3.21743e-05
3.27185e-05
3.31832e-05
3.35578e-05
3.38472e-05
3.40628e-05
3.42286e-05
3.44966e-05
3.54885e-05
3.34087e-05
3.25694e-05
3.23664e-05
3.2246e-05
3.20557e-05
3.17835e-05
3.14638e-05
3.10817e-05
3.06015e-05
3.00355e-05
2.94154e-05
2.87891e-05
2.82098e-05
2.77295e-05
2.74304e-05
2.74439e-05
2.77565e-05
2.82508e-05
2.88311e-05
2.94307e-05
3.00174e-05
3.05691e-05
3.10652e-05
3.14848e-05
3.18196e-05
3.20763e-05
3.2269e-05
3.24201e-05
3.26507e-05
3.34755e-05
3.16535e-05
3.10386e-05
3.08545e-05
3.07234e-05
3.05541e-05
3.03347e-05
3.0058e-05
2.96914e-05
2.92473e-05
2.87488e-05
2.82164e-05
2.76818e-05
2.71727e-05
2.67317e-05
2.64541e-05
2.64652e-05
2.67501e-05
2.71944e-05
2.77062e-05
2.82305e-05
2.87437e-05
2.9227e-05
2.96625e-05
3.00336e-05
3.03341e-05
3.05683e-05
3.07464e-05
3.08857e-05
3.10811e-05
3.17505e-05
3.02621e-05
2.97262e-05
2.95528e-05
2.94489e-05
2.93144e-05
2.91205e-05
2.88507e-05
2.85081e-05
2.8124e-05
2.77041e-05
2.726e-05
2.68052e-05
2.63523e-05
2.59502e-05
2.57048e-05
2.57186e-05
2.59715e-05
2.63571e-05
2.67948e-05
2.7244e-05
2.76864e-05
2.81076e-05
2.84874e-05
2.88135e-05
2.90827e-05
2.92953e-05
2.94559e-05
2.95781e-05
2.97382e-05
3.02684e-05
2.90342e-05
2.85635e-05
2.84557e-05
2.83812e-05
2.8244e-05
2.80534e-05
2.78055e-05
2.75178e-05
2.72005e-05
2.68518e-05
2.64806e-05
2.60886e-05
2.56903e-05
2.53417e-05
2.51332e-05
2.51418e-05
2.53487e-05
2.56694e-05
2.6043e-05
2.64371e-05
2.68282e-05
2.71981e-05
2.75295e-05
2.78126e-05
2.80447e-05
2.82262e-05
2.83609e-05
2.84618e-05
2.85886e-05
2.90003e-05
2.79217e-05
2.7624e-05
2.75713e-05
2.74758e-05
2.7334e-05
2.71659e-05
2.69629e-05
2.67297e-05
2.64589e-05
2.61582e-05
2.58365e-05
2.54928e-05
2.51485e-05
2.48579e-05
2.46832e-05
2.46766e-05
2.48364e-05
2.51062e-05
2.54376e-05
2.57949e-05
2.61479e-05
2.6472e-05
2.67557e-05
2.69934e-05
2.71835e-05
2.73289e-05
2.7435e-05
2.75148e-05
2.76145e-05
2.79366e-05
2.70879e-05
2.69441e-05
2.68483e-05
2.67258e-05
2.66052e-05
2.64702e-05
2.63077e-05
2.61082e-05
2.58711e-05
2.56124e-05
2.5335e-05
2.50391e-05
2.47499e-05
2.4509e-05
2.43556e-05
2.43341e-05
2.44572e-05
2.46882e-05
2.49827e-05
2.52988e-05
2.56049e-05
2.58804e-05
2.61148e-05
2.63068e-05
2.64591e-05
2.65767e-05
2.66658e-05
2.67341e-05
2.68152e-05
2.70616e-05
2.6472e-05
2.63207e-05
2.6184e-05
2.60935e-05
2.60108e-05
2.59059e-05
2.57721e-05
2.56027e-05
2.54081e-05
2.51969e-05
2.49633e-05
2.47142e-05
2.44752e-05
2.4273e-05
2.4133e-05
2.41052e-05
2.42066e-05
2.44026e-05
2.46485e-05
2.49071e-05
2.5154e-05
2.53769e-05
2.55709e-05
2.57347e-05
2.58682e-05
2.59735e-05
2.6054e-05
2.61141e-05
2.61745e-05
2.63483e-05
2.58909e-05
2.57012e-05
2.56317e-05
2.55961e-05
2.55381e-05
2.54506e-05
2.53344e-05
2.51934e-05
2.50371e-05
2.48608e-05
2.46594e-05
2.44481e-05
2.42498e-05
2.40785e-05
2.3959e-05
2.39408e-05
2.40323e-05
2.41937e-05
2.43877e-05
2.45882e-05
2.4783e-05
2.49686e-05
2.5141e-05
2.52921e-05
2.54157e-05
2.55111e-05
2.55805e-05
2.56268e-05
2.56631e-05
2.57732e-05
2.53289e-05
2.52366e-05
2.52501e-05
2.52302e-05
2.51735e-05
2.50881e-05
2.49807e-05
2.48623e-05
2.47321e-05
2.45763e-05
2.43986e-05
2.42209e-05
2.40569e-05
2.39158e-05
2.38209e-05
2.38148e-05
2.39001e-05
2.40342e-05
2.41877e-05
2.43472e-05
2.45093e-05
2.46713e-05
2.48238e-05
2.49554e-05