/*--------------------------------*- C++ -*----------------------------------*\
| =========                 |                                                 |
| \\      /  F ield         | OpenFOAM: The Open Source CFD Toolbox           |
|  \\    /   O peration     | Version:  2312                                  |
|   \\  /    A nd           | Website:  www.openfoam.com                      |
|    \\/     M anipulation  |                                                 |
\*---------------------------------------------------------------------------*/
FoamFile
{
    version     2.0;
    format      ascii;
    arch        "LSB;label=32;scalar=64";
    class       volScalarField;
    location    "1.1552399";
    object      nut;
}
// * * * * * * * * * * * * * * * * * * * * * * * * * * * * * * * * * * * * * //

dimensions      [0 2 -1 0 0 0 0];

internalField   nonuniform List<scalar> 
90000
(
5.30199e-06
5.30254e-06
5.30264e-06
5.30268e-06
5.3027e-06
5.30268e-06
5.30266e-06
5.30263e-06
5.30259e-06
5.30255e-06
5.3025e-06
5.30245e-06
5.30242e-06
5.30244e-06
5.30247e-06
5.3025e-06
5.30255e-06
5.30267e-06
5.30278e-06
5.3028e-06
5.30268e-06
5.30248e-06
5.30259e-06
5.30298e-06
5.30332e-06
5.30346e-06
5.30334e-06
5.30313e-06
5.30352e-06
5.30445e-06
5.30275e-06
5.31366e-06
5.31465e-06
5.31465e-06
5.31459e-06
5.31453e-06
5.31452e-06
5.31452e-06
5.3145e-06
5.31448e-06
5.31448e-06
5.31452e-06
5.31458e-06
5.31461e-06
5.31463e-06
5.31464e-06
5.31462e-06
5.31459e-06
5.31455e-06
5.31449e-06
5.31455e-06
5.31466e-06
5.31475e-06
5.31476e-06
5.31465e-06
5.3145e-06
5.31468e-06
5.31523e-06
5.31476e-06
5.30637e-06
5.30285e-06
5.31467e-06
5.31575e-06
5.31576e-06
5.31571e-06
5.31569e-06
5.31569e-06
5.3157e-06
5.31569e-06
5.31564e-06
5.31564e-06
5.31571e-06
5.31583e-06
5.31592e-06
5.31594e-06
5.31587e-06
5.31572e-06
5.31559e-06
5.3157e-06
5.31589e-06
5.31601e-06
5.31604e-06
5.31602e-06
5.316e-06
5.31608e-06
5.31625e-06
5.31635e-06
5.31676e-06
5.31719e-06
5.30578e-06
5.30278e-06
5.31472e-06
5.31583e-06
5.31588e-06
5.31586e-06
5.31584e-06
5.31584e-06
5.31585e-06
5.31584e-06
5.3158e-06
5.31576e-06
5.3158e-06
5.31588e-06
5.31595e-06
5.31594e-06
5.31586e-06
5.31576e-06
5.31585e-06
5.31603e-06
5.31615e-06
5.31615e-06
5.31609e-06
5.31617e-06
5.31644e-06
5.31669e-06
5.31688e-06
5.3171e-06
5.31707e-06
5.31699e-06
5.30437e-06
5.30266e-06
5.31468e-06
5.31583e-06
5.31591e-06
5.31591e-06
5.31589e-06
5.31586e-06
5.31586e-06
5.31586e-06
5.31586e-06
5.31585e-06
5.31583e-06
5.3158e-06
5.31574e-06
5.31572e-06
5.31583e-06
5.31598e-06
5.3161e-06
5.31614e-06
5.31609e-06
5.316e-06
5.31606e-06
5.31632e-06
5.31659e-06
5.31677e-06
5.31677e-06
5.31667e-06
5.31666e-06
5.31577e-06
5.30367e-06
5.30259e-06
5.31469e-06
5.31583e-06
5.31592e-06
5.31594e-06
5.31592e-06
5.31588e-06
5.31585e-06
5.31585e-06
5.31588e-06
5.31592e-06
5.31597e-06
5.31601e-06
5.316e-06
5.31597e-06
5.31599e-06
5.31605e-06
5.31608e-06
5.31604e-06
5.31597e-06
5.31599e-06
5.31611e-06
5.31626e-06
5.31637e-06
5.31641e-06
5.31638e-06
5.31629e-06
5.31684e-06
5.31584e-06
5.30365e-06
5.30267e-06
5.31476e-06
5.31589e-06
5.316e-06
5.31606e-06
5.31609e-06
5.31609e-06
5.31602e-06
5.31591e-06
5.31588e-06
5.31595e-06
5.31608e-06
5.31621e-06
5.31627e-06
5.31619e-06
5.31602e-06
5.31587e-06
5.31581e-06
5.31588e-06
5.31599e-06
5.31608e-06
5.31612e-06
5.31607e-06
5.31595e-06
5.31594e-06
5.3163e-06
5.31675e-06
5.31726e-06
5.31623e-06
5.30356e-06
5.30274e-06
5.31498e-06
5.31605e-06
5.31617e-06
5.31626e-06
5.31634e-06
5.31637e-06
5.31632e-06
5.31616e-06
5.31596e-06
5.31597e-06
5.31608e-06
5.31622e-06
5.31628e-06
5.31619e-06
5.31596e-06
5.31569e-06
5.31559e-06
5.3158e-06
5.31598e-06
5.31607e-06
5.31603e-06
5.31589e-06
5.31581e-06
5.31608e-06
5.31653e-06
5.31695e-06
5.31716e-06
5.31595e-06
5.30333e-06
5.30286e-06
5.31528e-06
5.31628e-06
5.31636e-06
5.31644e-06
5.31652e-06
5.31657e-06
5.31655e-06
5.31645e-06
5.31629e-06
5.31614e-06
5.31608e-06
5.31606e-06
5.31606e-06
5.31606e-06
5.31602e-06
5.31597e-06
5.31595e-06
5.31599e-06
5.31605e-06
5.31606e-06
5.31598e-06
5.31586e-06
5.31592e-06
5.31625e-06
5.3166e-06
5.31684e-06
5.31681e-06
5.31554e-06
5.30314e-06
5.30325e-06
5.31542e-06
5.31633e-06
5.31638e-06
5.31641e-06
5.31644e-06
5.31648e-06
5.31653e-06
5.31656e-06
5.31653e-06
5.31642e-06
5.31619e-06
5.31593e-06
5.31582e-06
5.31595e-06
5.31619e-06
5.31639e-06
5.3165e-06
5.31653e-06
5.31648e-06
5.31636e-06
5.31618e-06
5.31602e-06
5.31601e-06
5.31622e-06
5.31643e-06
5.31652e-06
5.31639e-06
5.31521e-06
5.30306e-06
5.30358e-06
5.31538e-06
5.31624e-06
5.31625e-06
5.31619e-06
5.31612e-06
5.31611e-06
5.31622e-06
5.31638e-06
5.3165e-06
5.3165e-06
5.31634e-06
5.31607e-06
5.31585e-06
5.31592e-06
5.31626e-06
5.31661e-06
5.31688e-06
5.31703e-06
5.31701e-06
5.31683e-06
5.31655e-06
5.31626e-06
5.31608e-06
5.31614e-06
5.31626e-06
5.31634e-06
5.31629e-06
5.3152e-06
5.3032e-06
5.3036e-06
5.3155e-06
5.31636e-06
5.31634e-06
5.31625e-06
5.31614e-06
5.31609e-06
5.31612e-06
5.31621e-06
5.31631e-06
5.31637e-06
5.31635e-06
5.31622e-06
5.31599e-06
5.31583e-06
5.31619e-06
5.31667e-06
5.31706e-06
5.31724e-06
5.3172e-06
5.31698e-06
5.31667e-06
5.31633e-06
5.31607e-06
5.31611e-06
5.31625e-06
5.31638e-06
5.31639e-06
5.31544e-06
5.30337e-06
5.30343e-06
5.3157e-06
5.31661e-06
5.31669e-06
5.31684e-06
5.31697e-06
5.31704e-06
5.317e-06
5.31679e-06
5.31648e-06
5.31632e-06
5.31641e-06
5.31648e-06
5.31646e-06
5.3164e-06
5.31649e-06
5.31669e-06
5.31683e-06
5.31686e-06
5.31679e-06
5.31665e-06
5.31647e-06
5.31627e-06
5.31612e-06
5.31618e-06
5.3163e-06
5.31642e-06
5.31649e-06
5.31553e-06
5.30345e-06
5.30397e-06
5.31567e-06
5.31683e-06
5.31715e-06
5.31755e-06
5.31786e-06
5.31796e-06
5.31777e-06
5.31732e-06
5.31677e-06
5.31635e-06
5.31643e-06
5.3167e-06
5.31693e-06
5.31705e-06
5.31704e-06
5.31685e-06
5.3165e-06
5.31616e-06
5.31607e-06
5.31619e-06
5.31628e-06
5.3163e-06
5.31627e-06
5.31628e-06
5.31635e-06
5.31647e-06
5.31655e-06
5.31553e-06
5.30356e-06
5.30469e-06
5.31539e-06
5.31723e-06
5.31777e-06
5.31817e-06
5.31833e-06
5.31819e-06
5.31779e-06
5.31724e-06
5.31668e-06
5.31624e-06
5.31631e-06
5.31672e-06
5.31711e-06
5.31732e-06
5.31728e-06
5.31698e-06
5.31651e-06
5.31606e-06
5.31585e-06
5.31602e-06
5.31627e-06
5.31642e-06
5.31644e-06
5.31638e-06
5.31648e-06
5.31667e-06
5.31676e-06
5.31582e-06
5.30397e-06
5.30491e-06
5.31658e-06
5.31797e-06
5.31825e-06
5.31829e-06
5.31807e-06
5.31764e-06
5.31718e-06
5.3168e-06
5.31649e-06
5.31621e-06
5.31624e-06
5.31665e-06
5.31706e-06
5.31727e-06
5.31725e-06
5.31704e-06
5.31674e-06
5.31642e-06
5.31619e-06
5.31614e-06
5.31633e-06
5.31652e-06
5.31657e-06
5.31659e-06
5.31676e-06
5.31699e-06
5.31722e-06
5.31652e-06
5.30441e-06
5.30458e-06
5.31782e-06
5.31857e-06
5.31841e-06
5.318e-06
5.31745e-06
5.31692e-06
5.31667e-06
5.31666e-06
5.31657e-06
5.31642e-06
5.31644e-06
5.31669e-06
5.31696e-06
5.3171e-06
5.31712e-06
5.31706e-06
5.3169e-06
5.31669e-06
5.3165e-06
5.31643e-06
5.31644e-06
5.31654e-06
5.31665e-06
5.31679e-06
5.31705e-06
5.31733e-06
5.3176e-06
5.31673e-06
5.30442e-06
5.30454e-06
5.31847e-06
5.31892e-06
5.31854e-06
5.318e-06
5.31743e-06
5.31697e-06
5.31678e-06
5.31677e-06
5.31672e-06
5.31668e-06
5.31665e-06
5.31669e-06
5.31674e-06
5.3168e-06
5.31688e-06
5.31695e-06
5.31695e-06
5.31688e-06
5.3168e-06
5.31674e-06
5.3167e-06
5.31674e-06
5.31683e-06
5.31706e-06
5.31736e-06
5.31761e-06
5.31771e-06
5.31654e-06
5.30427e-06
5.30529e-06
5.31872e-06
5.31922e-06
5.31884e-06
5.31836e-06
5.31792e-06
5.31758e-06
5.3173e-06
5.31702e-06
5.31685e-06
5.31673e-06
5.31658e-06
5.31647e-06
5.31642e-06
5.31644e-06
5.31655e-06
5.31673e-06
5.31688e-06
5.31696e-06
5.31696e-06
5.31692e-06
5.3169e-06
5.31692e-06
5.31722e-06
5.31762e-06
5.31784e-06
5.31789e-06
5.31777e-06
5.31655e-06
5.30452e-06
5.30606e-06
5.31882e-06
5.31947e-06
5.31913e-06
5.31872e-06
5.31836e-06
5.31808e-06
5.31779e-06
5.31747e-06
5.31716e-06
5.31688e-06
5.3166e-06
5.31636e-06
5.31618e-06
5.31613e-06
5.31629e-06
5.31656e-06
5.3168e-06
5.31696e-06
5.31704e-06
5.31708e-06
5.31721e-06
5.31763e-06
5.31808e-06
5.31829e-06
5.31828e-06
5.31824e-06
5.31821e-06
5.31727e-06
5.30519e-06
5.30675e-06
5.31889e-06
5.31963e-06
5.31935e-06
5.31904e-06
5.3188e-06
5.31857e-06
5.31828e-06
5.31794e-06
5.31756e-06
5.31716e-06
5.31677e-06
5.31649e-06
5.31634e-06
5.31635e-06
5.31652e-06
5.31674e-06
5.31693e-06
5.31713e-06
5.31735e-06
5.31766e-06
5.31812e-06
5.31852e-06
5.31867e-06
5.31857e-06
5.31847e-06
5.31854e-06
5.31868e-06
5.31786e-06
5.30582e-06
5.30735e-06
5.31904e-06
5.31991e-06
5.3197e-06
5.31946e-06
5.31924e-06
5.31898e-06
5.31865e-06
5.31827e-06
5.31784e-06
5.3174e-06
5.31707e-06
5.31693e-06
5.3169e-06
5.31685e-06
5.31683e-06
5.31691e-06
5.31712e-06
5.31749e-06
5.31799e-06
5.31853e-06
5.31895e-06
5.31907e-06
5.31891e-06
5.31882e-06
5.31891e-06
5.31911e-06
5.31928e-06
5.31842e-06
5.30647e-06
5.3079e-06
5.31941e-06
5.32037e-06
5.32022e-06
5.31999e-06
5.3197e-06
5.31934e-06
5.31896e-06
5.31856e-06
5.31817e-06
5.31786e-06
5.31766e-06
5.31745e-06
5.31715e-06
5.31684e-06
5.31672e-06
5.31689e-06
5.31733e-06
5.31795e-06
5.31865e-06
5.31917e-06
5.31935e-06
5.3193e-06
5.31926e-06
5.31938e-06
5.31967e-06
5.31995e-06
5.32008e-06
5.31919e-06
5.30732e-06
5.30854e-06
5.32006e-06
5.32106e-06
5.32093e-06
5.32065e-06
5.32027e-06
5.31989e-06
5.31952e-06
5.31915e-06
5.3188e-06
5.31847e-06
5.31812e-06
5.31768e-06
5.31713e-06
5.31671e-06
5.31673e-06
5.31708e-06
5.31767e-06
5.31846e-06
5.3191e-06
5.31944e-06
5.31956e-06
5.3197e-06
5.31994e-06
5.3203e-06
5.32072e-06
5.32097e-06
5.3211e-06
5.32014e-06
5.30833e-06
5.30942e-06
5.3211e-06
5.32207e-06
5.32191e-06
5.32156e-06
5.32117e-06
5.32081e-06
5.32044e-06
5.32003e-06
5.31959e-06
5.31911e-06
5.31856e-06
5.31787e-06
5.31722e-06
5.31693e-06
5.31698e-06
5.31733e-06
5.31806e-06
5.31877e-06
5.31927e-06
5.31965e-06
5.32009e-06
5.32048e-06
5.32087e-06
5.32138e-06
5.32178e-06
5.32207e-06
5.32224e-06
5.32131e-06
5.30968e-06
5.31076e-06
5.32258e-06
5.32345e-06
5.32321e-06
5.32283e-06
5.32245e-06
5.32205e-06
5.32161e-06
5.32111e-06
5.32057e-06
5.31993e-06
5.31912e-06
5.31826e-06
5.31767e-06
5.31729e-06
5.31721e-06
5.31756e-06
5.31825e-06
5.31897e-06
5.31971e-06
5.32042e-06
5.32097e-06
5.3214e-06
5.32194e-06
5.32244e-06
5.32285e-06
5.32327e-06
5.32364e-06
5.32307e-06
5.31099e-06
5.31278e-06
5.32441e-06
5.32519e-06
5.3249e-06
5.3245e-06
5.32406e-06
5.32355e-06
5.32299e-06
5.32239e-06
5.32165e-06
5.32074e-06
5.31975e-06
5.31894e-06
5.31833e-06
5.31774e-06
5.31756e-06
5.31795e-06
5.31875e-06
5.31973e-06
5.32066e-06
5.32138e-06
5.32195e-06
5.32255e-06
5.32321e-06
5.32375e-06
5.32433e-06
5.32491e-06
5.32537e-06
5.32463e-06
5.31263e-06
5.31517e-06
5.32656e-06
5.32735e-06
5.32701e-06
5.32651e-06
5.32592e-06
5.32525e-06
5.32454e-06
5.32376e-06
5.32281e-06
5.32173e-06
5.32078e-06
5.31999e-06
5.31915e-06
5.31835e-06
5.31815e-06
5.31874e-06
5.31975e-06
5.32082e-06
5.32178e-06
5.32263e-06
5.32347e-06
5.32415e-06
5.32491e-06
5.3256e-06
5.32635e-06
5.327e-06
5.3272e-06
5.32637e-06
5.31476e-06
5.31787e-06
5.32912e-06
5.32983e-06
5.32939e-06
5.32879e-06
5.32806e-06
5.32731e-06
5.32649e-06
5.32552e-06
5.32437e-06
5.32321e-06
5.32222e-06
5.32119e-06
5.32009e-06
5.31918e-06
5.31905e-06
5.31983e-06
5.32098e-06
5.3222e-06
5.32335e-06
5.32443e-06
5.32552e-06
5.32636e-06
5.32723e-06
5.32806e-06
5.32887e-06
5.32947e-06
5.32954e-06
5.32868e-06
5.31753e-06
5.321e-06
5.33207e-06
5.33274e-06
5.33226e-06
5.33159e-06
5.33085e-06
5.33003e-06
5.32905e-06
5.32782e-06
5.32642e-06
5.32511e-06
5.32387e-06
5.32253e-06
5.32118e-06
5.32017e-06
5.32014e-06
5.32108e-06
5.32238e-06
5.3238e-06
5.32524e-06
5.32656e-06
5.32795e-06
5.32912e-06
5.33013e-06
5.33103e-06
5.33183e-06
5.33241e-06
5.33257e-06
5.33198e-06
5.32083e-06
5.32479e-06
5.3357e-06
5.33636e-06
5.33584e-06
5.3351e-06
5.33428e-06
5.33331e-06
5.3321e-06
5.33059e-06
5.32892e-06
5.32737e-06
5.32582e-06
5.32418e-06
5.32262e-06
5.32153e-06
5.32157e-06
5.32266e-06
5.32413e-06
5.3258e-06
5.32755e-06
5.32915e-06
5.33093e-06
5.33247e-06
5.33352e-06
5.33452e-06
5.33531e-06
5.336e-06
5.33651e-06
5.33593e-06
5.3248e-06
5.32946e-06
5.34023e-06
5.34084e-06
5.3402e-06
5.33933e-06
5.33838e-06
5.33722e-06
5.33579e-06
5.33406e-06
5.33218e-06
5.33029e-06
5.32838e-06
5.32641e-06
5.3246e-06
5.32337e-06
5.3234e-06
5.32467e-06
5.32643e-06
5.32836e-06
5.33042e-06
5.33239e-06
5.33452e-06
5.3362e-06
5.33739e-06
5.33858e-06
5.33962e-06
5.34042e-06
5.34123e-06
5.3406e-06
5.3297e-06
5.3352e-06
5.34576e-06
5.34626e-06
5.34551e-06
5.34449e-06
5.34339e-06
5.34206e-06
5.34043e-06
5.33848e-06
5.33629e-06
5.33396e-06
5.33153e-06
5.32917e-06
5.32711e-06
5.32571e-06
5.32572e-06
5.32719e-06
5.32927e-06
5.33147e-06
5.33397e-06
5.33631e-06
5.3385e-06
5.34039e-06
5.342e-06
5.34352e-06
5.34475e-06
5.34576e-06
5.34669e-06
5.34614e-06
5.3356e-06
5.3422e-06
5.35246e-06
5.35288e-06
5.35202e-06
5.35086e-06
5.34956e-06
5.34795e-06
5.34598e-06
5.34366e-06
5.34105e-06
5.33827e-06
5.33542e-06
5.33271e-06
5.3304e-06
5.32886e-06
5.32879e-06
5.33039e-06
5.33276e-06
5.33535e-06
5.33826e-06
5.34085e-06
5.34325e-06
5.34558e-06
5.34773e-06
5.3494e-06
5.35086e-06
5.35217e-06
5.35317e-06
5.35278e-06
5.34253e-06
5.35065e-06
5.36063e-06
5.36093e-06
5.35988e-06
5.3585e-06
5.35687e-06
5.35489e-06
5.35251e-06
5.3498e-06
5.3468e-06
5.34363e-06
5.34042e-06
5.33735e-06
5.33469e-06
5.3329e-06
5.33278e-06
5.33453e-06
5.33726e-06
5.34024e-06
5.34348e-06
5.34641e-06
5.34925e-06
5.35211e-06
5.35462e-06
5.35642e-06
5.35838e-06
5.3599e-06
5.36102e-06
5.36072e-06
5.35077e-06
5.36085e-06
5.37041e-06
5.37052e-06
5.36924e-06
5.36762e-06
5.36568e-06
5.36332e-06
5.36054e-06
5.35743e-06
5.35403e-06
5.35045e-06
5.34682e-06
5.34329e-06
5.34012e-06
5.33808e-06
5.33803e-06
5.34012e-06
5.34324e-06
5.34661e-06
5.35022e-06
5.35364e-06
5.35706e-06
5.36032e-06
5.363e-06
5.36526e-06
5.36753e-06
5.36929e-06
5.37045e-06
5.3702e-06
5.36077e-06
5.37307e-06
5.38209e-06
5.38205e-06
5.38061e-06
5.37878e-06
5.37649e-06
5.37372e-06
5.37053e-06
5.367e-06
5.36317e-06
5.3591e-06
5.35496e-06
5.35098e-06
5.34739e-06
5.34509e-06
5.34513e-06
5.34758e-06
5.35106e-06
5.35488e-06
5.35903e-06
5.36304e-06
5.36692e-06
5.37039e-06
5.37342e-06
5.37615e-06
5.37888e-06
5.38064e-06
5.38191e-06
5.38194e-06
5.37303e-06
5.38776e-06
5.39623e-06
5.39611e-06
5.3945e-06
5.39232e-06
5.3896e-06
5.38643e-06
5.38285e-06
5.37889e-06
5.37459e-06
5.37003e-06
5.36539e-06
5.36104e-06
5.35712e-06
5.35452e-06
5.35448e-06
5.35718e-06
5.36107e-06
5.36542e-06
5.37018e-06
5.37474e-06
5.37889e-06
5.38265e-06
5.38635e-06
5.38971e-06
5.39239e-06
5.3944e-06
5.39609e-06
5.39638e-06
5.38795e-06
5.40541e-06
5.41341e-06
5.41307e-06
5.41113e-06
5.40854e-06
5.40543e-06
5.40187e-06
5.39787e-06
5.39342e-06
5.38865e-06
5.38366e-06
5.37858e-06
5.37377e-06
5.36947e-06
5.36659e-06
5.36647e-06
5.36947e-06
5.37381e-06
5.37867e-06
5.38391e-06
5.38881e-06
5.3933e-06
5.39761e-06
5.40196e-06
5.40566e-06
5.40847e-06
5.41107e-06
5.41315e-06
5.41349e-06
5.40563e-06
5.42661e-06
5.43391e-06
5.43327e-06
5.431e-06
5.42809e-06
5.42467e-06
5.4207e-06
5.41623e-06
5.41129e-06
5.40609e-06
5.40068e-06
5.39521e-06
5.3898e-06
5.38506e-06
5.38197e-06
5.38181e-06
5.3851e-06
5.38991e-06
5.39514e-06
5.40077e-06
5.40602e-06
5.41104e-06
5.41603e-06
5.42064e-06
5.42474e-06
5.42804e-06
5.43105e-06
5.43328e-06
5.43384e-06
5.42659e-06
5.45188e-06
5.45835e-06
5.45749e-06
5.45509e-06
5.45195e-06
5.44816e-06
5.44372e-06
5.43886e-06
5.43359e-06
5.42808e-06
5.42221e-06
5.41635e-06
5.41049e-06
5.40519e-06
5.40183e-06
5.40166e-06
5.40515e-06
5.41043e-06
5.41604e-06
5.42203e-06
5.42774e-06
5.43329e-06
5.43876e-06
5.4435e-06
5.44806e-06
5.45198e-06
5.45504e-06
5.45739e-06
5.45844e-06
5.45179e-06
5.48211e-06
5.48797e-06
5.48697e-06
5.48432e-06
5.4808e-06
5.47662e-06
5.4718e-06
5.46672e-06
5.46113e-06
5.45534e-06
5.44917e-06
5.44296e-06
5.43693e-06
5.43121e-06
5.42745e-06
5.42753e-06
5.43123e-06
5.43677e-06
5.44278e-06
5.44905e-06
5.45511e-06
5.46085e-06
5.46659e-06
5.47184e-06
5.4765e-06
5.48077e-06
5.48414e-06
5.48676e-06
5.48823e-06
5.48225e-06
5.51872e-06
5.5241e-06
5.52269e-06
5.51962e-06
5.5157e-06
5.51132e-06
5.5062e-06
5.50089e-06
5.49514e-06
5.4892e-06
5.48326e-06
5.47672e-06
5.47052e-06
5.46491e-06
5.46093e-06
5.46101e-06
5.46501e-06
5.47068e-06
5.4767e-06
5.48303e-06
5.48923e-06
5.49509e-06
5.50078e-06
5.50654e-06
5.51121e-06
5.51555e-06
5.51962e-06
5.52276e-06
5.52439e-06
5.51866e-06
5.56335e-06
5.56844e-06
5.56639e-06
5.56298e-06
5.55866e-06
5.55404e-06
5.5488e-06
5.54353e-06
5.53798e-06
5.5321e-06
5.5268e-06
5.52078e-06
5.51512e-06
5.51029e-06
5.50691e-06
5.50686e-06
5.5103e-06
5.51548e-06
5.52092e-06
5.52648e-06
5.53221e-06
5.53806e-06
5.54345e-06
5.54871e-06
5.55391e-06
5.55874e-06
5.56319e-06
5.56644e-06
5.56844e-06
5.56305e-06
5.61868e-06
5.62485e-06
5.62175e-06
5.61793e-06
5.61337e-06
5.60842e-06
5.60282e-06
5.59808e-06
5.59402e-06
5.58982e-06
5.58798e-06
5.58804e-06
5.59044e-06
5.59401e-06
5.5993e-06
5.59993e-06
5.59449e-06
5.5904e-06
5.58835e-06
5.58836e-06
5.58998e-06
5.59388e-06
5.59845e-06
5.60269e-06
5.6081e-06
5.61354e-06
5.61815e-06
5.62158e-06
5.62454e-06
5.61865e-06
5.69442e-06
5.70762e-06
5.70311e-06
5.70139e-06
5.69632e-06
5.68979e-06
5.68472e-06
5.68499e-06
5.68872e-06
5.69919e-06
5.73218e-06
5.78944e-06
5.87087e-06
5.95674e-06
6.04395e-06
6.04654e-06
5.95894e-06
5.87131e-06
5.79155e-06
5.73303e-06
5.69963e-06
5.68871e-06
5.68498e-06
5.68519e-06
5.68993e-06
5.69591e-06
5.70125e-06
5.70363e-06
5.70785e-06
5.69407e-06
5.83998e-06
5.88612e-06
5.89014e-06
5.92165e-06
5.89804e-06
5.88569e-06
5.90961e-06
5.93766e-06
5.99589e-06
6.13422e-06
6.42776e-06
6.87601e-06
7.48e-06
8.00737e-06
8.38152e-06
8.40287e-06
8.0168e-06
7.48376e-06
6.89216e-06
6.43139e-06
6.13725e-06
5.99742e-06
5.9379e-06
5.91028e-06
5.88616e-06
5.89774e-06
5.92222e-06
5.89128e-06
5.88735e-06
5.83918e-06
6.28283e-06
6.49276e-06
6.53092e-06
6.95182e-06
6.66061e-06
6.6558e-06
7.11752e-06
7.20762e-06
7.49223e-06
8.36734e-06
9.73759e-06
1.11716e-05
1.31418e-05
1.45489e-05
1.51792e-05
1.51789e-05
1.45374e-05
1.31874e-05
1.12336e-05
9.74019e-06
8.37643e-06
7.50156e-06
7.21189e-06
7.12486e-06
6.66141e-06
6.65957e-06
6.95824e-06
6.53442e-06
6.5026e-06
6.27838e-06
7.61395e-06
8.83186e-06
8.61739e-06
1.0861e-05
9.40175e-06
9.93035e-06
1.21401e-05
1.25539e-05
1.38097e-05
1.66131e-05
1.92901e-05
2.13603e-05
2.42123e-05
2.61124e-05
2.70885e-05
2.70246e-05
2.60239e-05
2.43137e-05
2.1429e-05
1.92599e-05
1.66193e-05
1.38374e-05
1.25774e-05
1.21745e-05
9.95275e-06
9.41963e-06
1.09408e-05
8.62495e-06
8.89494e-06
7.59924e-06
1.11499e-05
1.4266e-05
1.44144e-05
1.86418e-05
1.82199e-05
1.96556e-05
2.21574e-05
2.45364e-05
2.66758e-05
2.92274e-05
3.22688e-05
3.38521e-05
3.59174e-05
3.71912e-05
3.65363e-05
3.66434e-05
3.70425e-05
3.60143e-05
3.38695e-05
3.1975e-05
2.90561e-05
2.6701e-05
2.46866e-05
2.22081e-05
1.96674e-05
1.83489e-05
1.88188e-05
1.44697e-05
1.43561e-05
1.11401e-05
1.7065e-05
2.34965e-05
2.38132e-05
2.98891e-05
3.17889e-05
3.33174e-05
3.63866e-05
3.86846e-05
4.10661e-05
4.28666e-05
4.34584e-05
4.5854e-05
4.64523e-05
4.89027e-05
4.6516e-05
4.61661e-05
4.84766e-05
4.66683e-05
4.51442e-05
4.30275e-05
4.2552e-05
4.11117e-05
3.88185e-05
3.65011e-05
3.34793e-05
3.25473e-05
3.05216e-05
2.39377e-05
2.35425e-05
1.70772e-05
2.06245e-05
2.41284e-05
2.62299e-05
3.10064e-05
3.84934e-05
3.93583e-05
4.13976e-05
4.27692e-05
4.45495e-05
4.78314e-05
4.88385e-05
5.17535e-05
4.81876e-05
4.94746e-05
5.30496e-05
5.24313e-05
4.92826e-05
4.83826e-05
5.1115e-05
4.83262e-05
4.75673e-05
4.47362e-05
4.29522e-05
4.12126e-05
3.93359e-05
4.00876e-05
3.17257e-05
2.65461e-05
2.41425e-05
2.04033e-05
2.32347e-05
2.41776e-05
2.61105e-05
3.05349e-05
3.52822e-05
3.77682e-05
4.03764e-05
4.43148e-05
4.58202e-05
4.91526e-05
4.8279e-05
4.76937e-05
4.65075e-05
4.71937e-05
4.78632e-05
4.77605e-05
4.73808e-05
4.71956e-05
4.81848e-05
4.82332e-05
4.97234e-05
4.69876e-05
4.50175e-05
4.06674e-05
3.78131e-05
3.56398e-05
3.10998e-05
2.62947e-05
2.41125e-05
2.29375e-05
2.28448e-05
2.50321e-05
2.62803e-05
3.18607e-05
3.47811e-05
3.45977e-05
3.64833e-05
3.88901e-05
4.08399e-05
4.26622e-05
4.2118e-05
4.27789e-05
4.301e-05
4.39706e-05
4.54861e-05
4.57654e-05
4.44451e-05
4.33689e-05
4.3393e-05
4.23003e-05
4.32922e-05
4.10948e-05
3.93759e-05
3.67469e-05
3.49503e-05
3.51005e-05
3.20255e-05
2.58595e-05
2.50528e-05
2.26706e-05
2.01169e-05
2.16242e-05
2.52229e-05
2.94956e-05
2.99988e-05
2.86257e-05
3.0614e-05
3.25693e-05
3.34545e-05
3.58875e-05
3.52404e-05
3.68398e-05
3.74587e-05
3.83844e-05
4.03444e-05
4.05208e-05
3.85596e-05
3.77072e-05
3.70574e-05
3.53866e-05
3.6484e-05
3.38259e-05
3.30919e-05
3.08996e-05
2.89322e-05
3.01162e-05
2.95752e-05
2.52701e-05
2.21947e-05
2.00343e-05
1.74718e-05
1.88054e-05
2.1081e-05
2.54358e-05
2.39982e-05
2.2697e-05
2.54271e-05
2.7327e-05
2.88527e-05
3.10986e-05
3.08618e-05
3.12758e-05
3.11648e-05
3.2173e-05
3.3017e-05
3.29143e-05
3.23092e-05
3.12577e-05
3.12989e-05
3.06571e-05
3.14104e-05
2.91794e-05
2.75712e-05
2.55891e-05
2.28497e-05
2.39957e-05
2.5509e-05
2.11972e-05
1.93039e-05
1.74661e-05
1.52469e-05
1.63109e-05
1.73864e-05
2.02819e-05
1.88827e-05
1.71687e-05
1.88735e-05
2.14019e-05
2.42634e-05
2.73385e-05
2.86315e-05
2.93299e-05
2.95164e-05
2.99273e-05
2.99394e-05
2.99117e-05
3.0063e-05
2.95415e-05
2.926e-05
2.84856e-05
2.74182e-05
2.43798e-05
2.1504e-05
1.90447e-05
1.72308e-05
1.89325e-05
2.04331e-05
1.73719e-05
1.65059e-05
1.52977e-05
1.35885e-05
1.41756e-05
1.45779e-05
1.56899e-05
1.50644e-05
1.41607e-05
1.44599e-05
1.56436e-05
1.79749e-05
2.18247e-05
2.50422e-05
2.73759e-05
2.87915e-05
2.95655e-05
2.96059e-05
2.95813e-05
2.9636e-05
2.88221e-05
2.73439e-05
2.49383e-05
2.18206e-05
1.8011e-05
1.56997e-05
1.4537e-05
1.41859e-05
1.5144e-05
1.57967e-05
1.45645e-05
1.42804e-05
1.3619e-05
1.23564e-05
1.26386e-05
1.27177e-05
1.29601e-05
1.27464e-05
1.24883e-05
1.25017e-05
1.27827e-05
1.36391e-05
1.58781e-05
1.93047e-05
2.30334e-05
2.60637e-05
2.80031e-05
2.87394e-05
2.87148e-05
2.80447e-05
2.61005e-05
2.3004e-05
1.92231e-05
1.58766e-05
1.36545e-05
1.28089e-05
1.25043e-05
1.25029e-05
1.28048e-05
1.30086e-05
1.27188e-05
1.26735e-05
1.23993e-05
1.14296e-05
1.16113e-05
1.15869e-05
1.16092e-05
1.15439e-05
1.14694e-05
1.14729e-05
1.15693e-05
1.18077e-05
1.25079e-05
1.41194e-05
1.70261e-05
2.05701e-05
2.36429e-05
2.53566e-05
2.53347e-05
2.36666e-05
2.05979e-05
1.70065e-05
1.40879e-05
1.25244e-05
1.18198e-05
1.15834e-05
1.14753e-05
1.1477e-05
1.15611e-05
1.16286e-05
1.16083e-05
1.16232e-05
1.14651e-05
1.07141e-05
1.08417e-05
1.08199e-05
1.08222e-05
1.08045e-05
1.07909e-05
1.08134e-05
1.08607e-05
1.09432e-05
1.11307e-05
1.15687e-05
1.26078e-05
1.45395e-05
1.70068e-05
1.89747e-05
1.89528e-05
1.69997e-05
1.45445e-05
1.2602e-05
1.15754e-05
1.1142e-05
1.09488e-05
1.08715e-05
1.08202e-05
1.08009e-05
1.08156e-05
1.08217e-05
1.08431e-05
1.08615e-05
1.0732e-05
1.01451e-05
1.02049e-05
1.01983e-05
1.0206e-05
1.02186e-05
1.02387e-05
1.02786e-05
1.03091e-05
1.03464e-05
1.04002e-05
1.05018e-05
1.07328e-05
1.12294e-05
1.20617e-05
1.29649e-05
1.29605e-05
1.20615e-05
1.12325e-05
1.07312e-05
1.05143e-05
1.04114e-05
1.03502e-05
1.03126e-05
1.02771e-05
1.02455e-05
1.02226e-05
1.02073e-05
1.02137e-05
1.02382e-05
1.01753e-05
9.7083e-06
9.67145e-06
9.66698e-06
9.6823e-06
9.70246e-06
9.73566e-06
9.77182e-06
9.7877e-06
9.80342e-06
9.81452e-06
9.82595e-06
9.85467e-06
9.92899e-06
1.00712e-05
1.02505e-05
1.02496e-05
1.00798e-05
9.94116e-06
9.86796e-06
9.83966e-06
9.82111e-06
9.80833e-06
9.79514e-06
9.76591e-06
9.73239e-06
9.70075e-06
9.6866e-06
9.68218e-06
9.70873e-06
9.73357e-06
9.31519e-06
9.21382e-06
9.19777e-06
9.20949e-06
9.23701e-06
9.26698e-06
9.28556e-06
9.29156e-06
9.28965e-06
9.27292e-06
9.24694e-06
9.22419e-06
9.20891e-06
9.203e-06
9.20978e-06
9.20849e-06
9.2105e-06
9.21792e-06
9.23598e-06
9.25811e-06
9.27868e-06
9.29524e-06
9.29851e-06
9.2854e-06
9.265e-06
9.24232e-06
9.22597e-06
9.21156e-06
9.23837e-06
9.32721e-06
8.93605e-06
8.79844e-06
8.77271e-06
8.7866e-06
8.81141e-06
8.83057e-06
8.83254e-06
8.82332e-06
8.79905e-06
8.76209e-06
8.72016e-06
8.67646e-06
8.62856e-06
8.58499e-06
8.55965e-06
8.56438e-06
8.59826e-06
8.63815e-06
8.68239e-06
8.72971e-06
8.77675e-06
8.81565e-06
8.83426e-06
8.83747e-06
8.83055e-06
8.81733e-06
8.80086e-06
8.78671e-06
8.81719e-06
8.94388e-06
8.56869e-06
8.41781e-06
8.39481e-06
8.40766e-06
8.41988e-06
8.42184e-06
8.40864e-06
8.38289e-06
8.34547e-06
8.30035e-06
8.24707e-06
8.18579e-06
8.11912e-06
8.06375e-06
8.03352e-06
8.04087e-06
8.07831e-06
8.12973e-06
8.19215e-06
8.25876e-06
8.32013e-06
8.36771e-06
8.39638e-06
8.41221e-06
8.41774e-06
8.41429e-06
8.40357e-06
8.3989e-06
8.43582e-06
8.5778e-06
8.21751e-06
8.07706e-06
8.05272e-06
8.05139e-06
8.04765e-06
8.03612e-06
8.01383e-06
7.97899e-06
7.93525e-06
7.88119e-06
7.81692e-06
7.74601e-06
7.67427e-06
7.61486e-06
7.57953e-06
7.58285e-06
7.62072e-06
7.67936e-06
7.75135e-06
7.82648e-06
7.89521e-06
7.95007e-06
7.98889e-06
8.01599e-06
8.03239e-06
8.03939e-06
8.03952e-06
8.04537e-06
8.08657e-06
8.23354e-06
7.90116e-06
7.75809e-06
7.72361e-06
7.71128e-06
7.69957e-06
7.68214e-06
7.65128e-06
7.61051e-06
7.5618e-06
7.50069e-06
7.42951e-06
7.35401e-06
7.27977e-06
7.2162e-06
7.17436e-06
7.1748e-06
7.21451e-06
7.27863e-06
7.35736e-06
7.43818e-06
7.51285e-06
7.57492e-06
7.62241e-06
7.65799e-06
7.6844e-06
7.70129e-06
7.71054e-06
7.72163e-06
7.76185e-06
7.90913e-06
7.59251e-06
7.45739e-06
7.42007e-06
7.40273e-06
7.38392e-06
7.35823e-06
7.32225e-06
7.28144e-06
7.23126e-06
7.16727e-06
7.09344e-06
7.01535e-06
6.93911e-06
6.87392e-06
6.83155e-06
6.8309e-06
6.87059e-06
6.93625e-06
7.01639e-06
7.09843e-06
7.17563e-06
7.24316e-06
7.29794e-06
7.33958e-06
7.3709e-06
7.39316e-06
7.40782e-06
7.42132e-06
7.45938e-06
7.60148e-06
7.31153e-06
7.19343e-06
7.15202e-06
7.12768e-06
7.10224e-06
7.07205e-06
7.03702e-06
6.99605e-06
6.94342e-06
6.87801e-06
6.80392e-06
6.7253e-06
6.64853e-06
6.58227e-06
6.53907e-06
6.53715e-06
6.57651e-06
6.64248e-06
6.72292e-06
6.80598e-06
6.8843e-06
6.95304e-06
7.00913e-06
7.05239e-06
7.08612e-06
7.11223e-06
7.13131e-06
7.14747e-06
7.18431e-06
7.3166e-06
7.06211e-06
6.94756e-06
6.90353e-06
6.87782e-06
6.85422e-06
6.82783e-06
6.7944e-06
6.75087e-06
6.69612e-06
6.63113e-06
6.55885e-06
6.48169e-06
6.40614e-06
6.3411e-06
6.29933e-06
6.29851e-06
6.33802e-06
6.40292e-06
6.48049e-06
6.5595e-06
6.63307e-06
6.69835e-06
6.75363e-06
6.79858e-06
6.83466e-06
6.86294e-06
6.88445e-06
6.90237e-06
6.93672e-06
7.0557e-06
6.82272e-06
6.70931e-06
6.67381e-06
6.65561e-06
6.63962e-06
6.61629e-06
6.58062e-06
6.5355e-06
6.482e-06
6.41907e-06
6.34855e-06
6.27373e-06
6.20173e-06
6.14107e-06
6.1031e-06
6.10431e-06
6.14225e-06
6.20295e-06
6.27469e-06
6.3477e-06
6.41623e-06
6.47835e-06
6.53264e-06
6.57823e-06
6.615e-06
6.64384e-06
6.66582e-06
6.68355e-06
6.7139e-06
6.81846e-06
6.60322e-06
6.50112e-06
6.47743e-06
6.46628e-06
6.45121e-06
6.42484e-06
6.38845e-06
6.34617e-06
6.29571e-06
6.23519e-06
6.16704e-06
6.09616e-06
6.02949e-06
5.97443e-06
5.94077e-06
5.9427e-06
5.97846e-06
6.03469e-06
6.10041e-06
6.16736e-06
6.23129e-06
6.29036e-06
6.34298e-06
6.38768e-06
6.42364e-06
6.45148e-06
6.47232e-06
6.4887e-06
6.51519e-06
6.60624e-06
6.40794e-06
6.32904e-06
6.31091e-06
6.29978e-06
6.28133e-06
6.2542e-06
6.22179e-06
6.18305e-06
6.13477e-06
6.07786e-06
6.0152e-06
5.95133e-06
5.89153e-06
5.84126e-06
5.80942e-06
5.81145e-06
5.84502e-06
5.89687e-06
5.9568e-06
6.01792e-06
6.07707e-06
6.13226e-06
6.18165e-06
6.22343e-06
6.25687e-06
6.28262e-06
6.30204e-06
6.31741e-06
6.34071e-06
6.4186e-06
6.24329e-06
6.18523e-06
6.16646e-06
6.15241e-06
6.13421e-06
6.11086e-06
6.08194e-06
6.04433e-06
5.99902e-06
5.94801e-06
5.89323e-06
5.83772e-06
5.78426e-06
5.73743e-06
5.70775e-06
5.70932e-06
5.74027e-06
5.7878e-06
5.84179e-06
5.89643e-06
5.94936e-06
5.99881e-06
6.04315e-06
6.0809e-06
6.11151e-06
6.13536e-06
6.1535e-06
6.16776e-06
6.18773e-06
6.25246e-06
6.10901e-06
6.05709e-06
6.03801e-06
6.02573e-06
6.01045e-06
5.98952e-06
5.96125e-06
5.92582e-06
5.88605e-06
5.84247e-06
5.7961e-06
5.74813e-06
5.69989e-06
5.65674e-06
5.63031e-06
5.63197e-06
5.65953e-06
5.70127e-06
5.74815e-06
5.79576e-06
5.84218e-06
5.88596e-06
5.92512e-06
5.95857e-06
5.98611e-06
6.00782e-06
6.02419e-06
6.0367e-06
6.05322e-06
6.10561e-06
5.98534e-06
5.93815e-06
5.92542e-06
5.91638e-06
5.9014e-06
5.88121e-06
5.85529e-06
5.82526e-06
5.792e-06
5.75535e-06
5.71596e-06
5.67392e-06
5.63083e-06
5.59285e-06
5.57005e-06
5.57108e-06
5.59387e-06
5.62897e-06
5.66948e-06
5.71174e-06
5.7532e-06
5.79206e-06
5.8266e-06
5.85585e-06
5.87965e-06
5.89821e-06
5.91197e-06
5.92237e-06
5.93559e-06
5.97714e-06
5.87005e-06
5.83865e-06
5.83206e-06
5.82174e-06
5.80687e-06
5.78927e-06
5.76799e-06
5.74345e-06
5.7148e-06
5.68264e-06
5.64783e-06
5.61031e-06
5.57249e-06
5.54037e-06
5.52104e-06
5.52043e-06
5.53824e-06
5.56807e-06
5.60437e-06
5.6431e-06
5.68096e-06
5.71532e-06
5.74516e-06
5.76998e-06
5.78972e-06
5.80475e-06
5.81574e-06
5.8241e-06
5.83467e-06
5.86783e-06
5.78188e-06
5.76532e-06
5.75535e-06
5.74273e-06
5.73019e-06
5.71605e-06
5.69887e-06
5.67755e-06
5.65197e-06
5.62376e-06
5.59325e-06
5.56049e-06
5.52839e-06
5.50152e-06
5.48444e-06
5.48226e-06
5.49613e-06
5.52183e-06
5.55433e-06
5.58893e-06
5.62217e-06
5.65183e-06
5.67689e-06
5.69729e-06
5.71343e-06
5.72591e-06
5.7354e-06
5.74273e-06
5.75141e-06
5.77719e-06
5.71583e-06
5.69919e-06
5.68553e-06
5.67615e-06
5.66745e-06
5.65624e-06
5.64174e-06
5.62318e-06
5.60171e-06
5.57828e-06
5.55224e-06
5.52443e-06
5.49767e-06
5.47499e-06
5.45946e-06
5.45654e-06
5.46804e-06
5.48997e-06
5.51734e-06
5.54598e-06
5.5732e-06
5.59765e-06
5.61886e-06
5.63673e-06
5.65127e-06
5.66273e-06
5.6715e-06
5.67806e-06
5.68454e-06
5.70286e-06
5.65384e-06
5.63448e-06
5.62758e-06
5.62375e-06
5.61745e-06
5.60777e-06
5.59481e-06
5.57905e-06
5.56145e-06
5.54156e-06
5.5189e-06
5.49518e-06
5.47288e-06
5.45369e-06
5.44046e-06
5.43855e-06
5.44892e-06
5.46712e-06
5.48892e-06
5.51143e-06
5.53328e-06
5.55404e-06
5.57324e-06
5.59003e-06
5.60377e-06
5.61434e-06
5.62202e-06
5.62713e-06
5.63097e-06
5.64246e-06
5.59442e-06
5.5858e-06
5.5873e-06
5.58502e-06
5.57862e-06
5.56896e-06
5.5568e-06
5.54334e-06
5.52846e-06
5.51079e-06
5.49077e-06
5.47072e-06
5.45225e-06
5.43643e-06