/*--------------------------------*- C++ -*----------------------------------*\
| =========                 |                                                 |
| \\      /  F ield         | OpenFOAM: The Open Source CFD Toolbox           |
|  \\    /   O peration     | Version:  2312                                  |
|   \\  /    A nd           | Website:  www.openfoam.com                      |
|    \\/     M anipulation  |                                                 |
\*---------------------------------------------------------------------------*/
FoamFile
{
    version     2.0;
    format      ascii;
    arch        "LSB;label=32;scalar=64";
    class       volScalarField;
    location    "1.1552399";
    object      p;
}
// * * * * * * * * * * * * * * * * * * * * * * * * * * * * * * * * * * * * * //

dimensions      [1 -1 -2 0 0 0 0];

internalField   nonuniform List<scalar> 
90000
(
4845.75
4845.76
4845.75
4845.75
4845.75
4845.74
4845.74
4845.74
4845.73
4845.73
4845.73
4845.73
4845.72
4845.72
4845.72
4845.72
4845.72
4845.72
4845.73
4845.73
4845.73
4845.73
4845.73
4845.73
4845.74
4845.74
4845.74
4845.74
4845.74
4845.74
4747.65
4747.65
4747.65
4747.65
4747.64
4747.64
4747.64
4747.64
4747.63
4747.63
4747.63
4747.63
4747.62
4747.62
4747.62
4747.62
4747.62
4747.62
4747.62
4747.63
4747.63
4747.63
4747.63
4747.63
4747.64
4747.64
4747.64
4747.64
4747.64
4747.64
4649.54
4649.54
4649.54
4649.54
4649.54
4649.54
4649.54
4649.53
4649.53
4649.53
4649.53
4649.53
4649.53
4649.53
4649.52
4649.52
4649.52
4649.52
4649.52
4649.53
4649.53
4649.53
4649.53
4649.53
4649.53
4649.54
4649.54
4649.54
4649.54
4649.54
4551.44
4551.43
4551.43
4551.43
4551.43
4551.43
4551.43
4551.43
4551.43
4551.43
4551.43
4551.43
4551.43
4551.43
4551.43
4551.43
4551.43
4551.43
4551.43
4551.43
4551.43
4551.43
4551.43
4551.43
4551.43
4551.43
4551.44
4551.43
4551.43
4551.44
4453.33
4453.33
4453.33
4453.33
4453.33
4453.33
4453.33
4453.33
4453.33
4453.33
4453.33
4453.33
4453.33
4453.33
4453.33
4453.33
4453.33
4453.33
4453.33
4453.33
4453.33
4453.33
4453.33
4453.33
4453.33
4453.33
4453.33
4453.33
4453.33
4453.33
4355.23
4355.23
4355.23
4355.23
4355.23
4355.23
4355.23
4355.23
4355.23
4355.23
4355.23
4355.23
4355.23
4355.23
4355.23
4355.23
4355.23
4355.23
4355.23
4355.23
4355.23
4355.23
4355.23
4355.23
4355.23
4355.23
4355.23
4355.23
4355.23
4355.23
4257.13
4257.13
4257.13
4257.13
4257.13
4257.13
4257.13
4257.13
4257.13
4257.13
4257.13
4257.13
4257.13
4257.13
4257.13
4257.13
4257.13
4257.13
4257.13
4257.13
4257.13
4257.13
4257.13
4257.13
4257.13
4257.13
4257.13
4257.13
4257.13
4257.13
4159.03
4159.03
4159.03
4159.03
4159.03
4159.03
4159.03
4159.03
4159.03
4159.03
4159.03
4159.03
4159.03
4159.03
4159.03
4159.03
4159.03
4159.03
4159.03
4159.03
4159.03
4159.03
4159.03
4159.03
4159.03
4159.03
4159.03
4159.03
4159.03
4159.03
4060.94
4060.94
4060.94
4060.94
4060.93
4060.93
4060.93
4060.93
4060.93
4060.93
4060.93
4060.93
4060.93
4060.93
4060.93
4060.93
4060.93
4060.93
4060.93
4060.93
4060.93
4060.93
4060.93
4060.93
4060.93
4060.93
4060.93
4060.93
4060.93
4060.93
3962.84
3962.84
3962.84
3962.84
3962.84
3962.84
3962.84
3962.83
3962.83
3962.83
3962.83
3962.83
3962.83
3962.83
3962.83
3962.83
3962.83
3962.83
3962.83
3962.83
3962.83
3962.83
3962.83
3962.83
3962.83
3962.83
3962.83
3962.83
3962.83
3962.83
3864.74
3864.74
3864.74
3864.74
3864.74
3864.74
3864.74
3864.74
3864.73
3864.73
3864.73
3864.73
3864.73
3864.73
3864.73
3864.73
3864.73
3864.73
3864.73
3864.73
3864.73
3864.73
3864.74
3864.74
3864.74
3864.74
3864.74
3864.74
3864.74
3864.74
3766.64
3766.64
3766.64
3766.64
3766.64
3766.64
3766.64
3766.64
3766.64
3766.64
3766.64
3766.63
3766.63
3766.63
3766.63
3766.63
3766.63
3766.63
3766.64
3766.64
3766.64
3766.64
3766.64
3766.64
3766.64
3766.64
3766.64
3766.64
3766.65
3766.65
3668.55
3668.55
3668.54
3668.54
3668.54
3668.54
3668.54
3668.54
3668.54
3668.54
3668.54
3668.54
3668.54
3668.54
3668.54
3668.54
3668.54
3668.54
3668.54
3668.54
3668.54
3668.54
3668.55
3668.55
3668.55
3668.55
3668.55
3668.55
3668.55
3668.55
3570.45
3570.45
3570.45
3570.45
3570.45
3570.45
3570.45
3570.45
3570.45
3570.44
3570.44
3570.44
3570.44
3570.44
3570.44
3570.44
3570.44
3570.44
3570.44
3570.44
3570.44
3570.45
3570.45
3570.45
3570.46
3570.46
3570.46
3570.46
3570.46
3570.46
3472.36
3472.36
3472.36
3472.36
3472.36
3472.35
3472.35
3472.35
3472.35
3472.35
3472.35
3472.34
3472.34
3472.34
3472.34
3472.34
3472.34
3472.34
3472.34
3472.34
3472.35
3472.35
3472.35
3472.36
3472.36
3472.37
3472.37
3472.37
3472.37
3472.37
3374.27
3374.27
3374.27
3374.27
3374.26
3374.26
3374.26
3374.26
3374.25
3374.25
3374.25
3374.24
3374.24
3374.24
3374.24
3374.24
3374.24
3374.24
3374.24
3374.24
3374.25
3374.25
3374.26
3374.26
3374.27
3374.27
3374.28
3374.28
3374.28
3374.28
3276.18
3276.18
3276.18
3276.18
3276.17
3276.17
3276.16
3276.16
3276.16
3276.15
3276.15
3276.15
3276.14
3276.14
3276.14
3276.14
3276.14
3276.14
3276.14
3276.15
3276.15
3276.16
3276.16
3276.17
3276.17
3276.18
3276.18
3276.18
3276.19
3276.19
3178.09
3178.09
3178.09
3178.09
3178.08
3178.08
3178.07
3178.06
3178.06
3178.05
3178.05
3178.05
3178.04
3178.04
3178.04
3178.04
3178.04
3178.04
3178.04
3178.05
3178.05
3178.06
3178.06
3178.07
3178.07
3178.08
3178.08
3178.09
3178.09
3178.09
3080
3080
3080
3080
3079.99
3079.98
3079.98
3079.97
3079.96
3079.96
3079.95
3079.95
3079.94
3079.94
3079.94
3079.94
3079.94
3079.94
3079.95
3079.95
3079.96
3079.96
3079.97
3079.97
3079.98
3079.99
3079.99
3080
3080
3080
2981.92
2981.92
2981.91
2981.91
2981.9
2981.89
2981.88
2981.88
2981.87
2981.86
2981.86
2981.85
2981.84
2981.84
2981.84
2981.84
2981.84
2981.85
2981.85
2981.86
2981.86
2981.87
2981.88
2981.88
2981.89
2981.9
2981.9
2981.91
2981.91
2981.91
2883.83
2883.83
2883.82
2883.82
2883.81
2883.8
2883.79
2883.79
2883.78
2883.77
2883.76
2883.75
2883.75
2883.74
2883.74
2883.74
2883.75
2883.75
2883.76
2883.76
2883.77
2883.78
2883.79
2883.79
2883.8
2883.81
2883.82
2883.82
2883.83
2883.83
2785.75
2785.75
2785.74
2785.73
2785.73
2785.72
2785.71
2785.7
2785.69
2785.68
2785.67
2785.66
2785.65
2785.65
2785.65
2785.65
2785.65
2785.66
2785.66
2785.67
2785.68
2785.69
2785.7
2785.71
2785.72
2785.73
2785.73
2785.74
2785.74
2785.74
2687.67
2687.67
2687.66
2687.65
2687.65
2687.63
2687.62
2687.61
2687.6
2687.59
2687.58
2687.57
2687.56
2687.56
2687.56
2687.56
2687.56
2687.57
2687.57
2687.58
2687.59
2687.6
2687.62
2687.63
2687.64
2687.65
2687.65
2687.66
2687.67
2687.67
2589.6
2589.6
2589.59
2589.58
2589.57
2589.56
2589.55
2589.53
2589.52
2589.51
2589.49
2589.49
2589.48
2589.47
2589.47
2589.47
2589.48
2589.48
2589.49
2589.5
2589.51
2589.53
2589.54
2589.55
2589.56
2589.57
2589.58
2589.59
2589.6
2589.6
2491.54
2491.53
2491.53
2491.52
2491.5
2491.49
2491.48
2491.46
2491.44
2491.43
2491.42
2491.41
2491.4
2491.39
2491.39
2491.39
2491.39
2491.4
2491.41
2491.42
2491.44
2491.45
2491.47
2491.48
2491.5
2491.51
2491.52
2491.53
2491.54
2491.54
2393.49
2393.48
2393.47
2393.46
2393.45
2393.43
2393.41
2393.39
2393.38
2393.36
2393.34
2393.33
2393.32
2393.31
2393.31
2393.31
2393.31
2393.32
2393.33
2393.35
2393.36
2393.38
2393.4
2393.42
2393.44
2393.46
2393.47
2393.48
2393.49
2393.5
2295.45
2295.45
2295.44
2295.42
2295.4
2295.38
2295.36
2295.34
2295.31
2295.29
2295.27
2295.26
2295.24
2295.23
2295.23
2295.23
2295.24
2295.25
2295.26
2295.28
2295.3
2295.32
2295.34
2295.37
2295.39
2295.41
2295.43
2295.45
2295.46
2295.47
2197.43
2197.42
2197.41
2197.39
2197.37
2197.35
2197.32
2197.29
2197.26
2197.23
2197.21
2197.19
2197.17
2197.16
2197.15
2197.15
2197.16
2197.17
2197.19
2197.21
2197.24
2197.27
2197.3
2197.33
2197.36
2197.38
2197.41
2197.43
2197.44
2197.45
2099.43
2099.42
2099.4
2099.38
2099.35
2099.32
2099.29
2099.25
2099.21
2099.18
2099.15
2099.12
2099.1
2099.08
2099.08
2099.08
2099.08
2099.1
2099.12
2099.15
2099.18
2099.22
2099.25
2099.29
2099.33
2099.36
2099.39
2099.42
2099.44
2099.45
2001.44
2001.43
2001.41
2001.39
2001.35
2001.31
2001.27
2001.22
2001.18
2001.13
2001.09
2001.06
2001.03
2001.01
2001
2001
2001.01
2001.03
2001.06
2001.09
2001.13
2001.18
2001.22
2001.27
2001.32
2001.36
2001.4
2001.43
2001.45
2001.46
1903.48
1903.46
1903.44
1903.41
1903.37
1903.32
1903.26
1903.21
1903.15
1903.1
1903.05
1903
1902.97
1902.94
1902.93
1902.93
1902.94
1902.97
1903
1903.04
1903.09
1903.15
1903.21
1903.26
1903.32
1903.37
1903.42
1903.45
1903.48
1903.49
1805.53
1805.52
1805.49
1805.45
1805.4
1805.34
1805.28
1805.21
1805.14
1805.07
1805.01
1804.95
1804.91
1804.88
1804.87
1804.87
1804.88
1804.91
1804.95
1805
1805.07
1805.13
1805.2
1805.27
1805.34
1805.41
1805.46
1805.5
1805.53
1805.54
1707.62
1707.6
1707.57
1707.52
1707.46
1707.39
1707.31
1707.22
1707.14
1707.06
1706.98
1706.92
1706.87
1706.83
1706.81
1706.81
1706.83
1706.87
1706.92
1706.98
1707.06
1707.14
1707.22
1707.31
1707.39
1707.46
1707.53
1707.57
1707.61
1707.62
1609.74
1609.72
1609.68
1609.62
1609.55
1609.46
1609.36
1609.26
1609.16
1609.06
1608.97
1608.9
1608.84
1608.79
1608.77
1608.77
1608.79
1608.84
1608.9
1608.98
1609.07
1609.16
1609.27
1609.37
1609.47
1609.55
1609.62
1609.68
1609.72
1609.74
1511.9
1511.88
1511.83
1511.76
1511.67
1511.56
1511.45
1511.33
1511.21
1511.09
1510.99
1510.89
1510.82
1510.77
1510.74
1510.74
1510.77
1510.82
1510.9
1510.99
1511.1
1511.21
1511.34
1511.46
1511.57
1511.67
1511.76
1511.83
1511.88
1511.9
1414.1
1414.08
1414.02
1413.94
1413.83
1413.71
1413.57
1413.43
1413.29
1413.15
1413.02
1412.91
1412.82
1412.76
1412.73
1412.73
1412.76
1412.82
1412.91
1413.02
1413.15
1413.29
1413.44
1413.58
1413.72
1413.84
1413.94
1414.02
1414.08
1414.11
1316.37
1316.33
1316.27
1316.17
1316.05
1315.9
1315.74
1315.57
1315.4
1315.23
1315.08
1314.95
1314.85
1314.77
1314.73
1314.73
1314.77
1314.85
1314.95
1315.08
1315.24
1315.4
1315.58
1315.74
1315.9
1316.05
1316.17
1316.27
1316.34
1316.37
1218.7
1218.66
1218.58
1218.46
1218.32
1218.15
1217.96
1217.76
1217.55
1217.36
1217.18
1217.02
1216.89
1216.81
1216.76
1216.76
1216.81
1216.89
1217.02
1217.18
1217.36
1217.56
1217.76
1217.96
1218.15
1218.32
1218.47
1218.58
1218.66
1218.7
1121.11
1121.06
1120.97
1120.83
1120.66
1120.46
1120.23
1120
1119.76
1119.52
1119.31
1119.12
1118.97
1118.87
1118.82
1118.82
1118.87
1118.97
1119.12
1119.31
1119.52
1119.76
1120
1120.24
1120.46
1120.66
1120.83
1120.97
1121.06
1121.11
1023.61
1023.55
1023.44
1023.28
1023.08
1022.84
1022.58
1022.3
1022.01
1021.74
1021.48
1021.26
1021.09
1020.96
1020.9
1020.9
1020.97
1021.09
1021.27
1021.49
1021.74
1022.02
1022.3
1022.58
1022.85
1023.08
1023.29
1023.45
1023.56
1023.61
926.224
926.158
926.028
925.838
925.598
925.316
925.003
924.671
924.335
924.01
923.711
923.45
923.243
923.098
923.023
923.024
923.099
923.244
923.452
923.713
924.014
924.339
924.675
925.007
925.32
925.602
925.844
926.033
926.161
926.226
828.972
828.894
828.737
828.512
828.225
827.89
827.518
827.125
826.728
826.343
825.989
825.682
825.437
825.266
825.178
825.178
825.266
825.437
825.683
825.991
826.346
826.731
827.128
827.522
827.895
828.231
828.517
828.742
828.898
828.977
731.879
731.784
731.594
731.324
730.981
730.58
730.136
729.668
729.196
728.74
728.319
727.956
727.665
727.463
727.359
727.36
727.463
727.665
727.956
728.321
728.741
729.199
729.672
730.141
730.586
730.987
731.33
731.601
731.791
731.884
634.975
634.86
634.629
634.301
633.887
633.403
632.87
632.309
631.744
631.199
630.696
630.262
629.917
629.678
629.553
629.553
629.676
629.915
630.261
630.696
631.198
631.745
632.312
632.875
633.409
633.893
634.308
634.636
634.868
634.981
538.3
538.163
537.873
537.473
536.967
536.379
535.732
535.052
534.368
533.708
533.101
532.578
532.162
531.876
531.726
531.727
531.873
532.159
532.575
533.098
533.706
534.368
535.053
535.735
536.385
536.976
537.483
537.88
538.174
538.309
441.904
441.737
441.37
440.88
440.255
439.53
438.734
437.899
437.061
436.248
435.5
434.859
434.35
434.008
433.825
433.828
434.005
434.346
434.855
435.497
436.246
437.058
437.898
438.736
439.537
440.266
440.893
441.381
441.752
441.915
345.844
345.638
345.163
344.572
343.789
342.884
341.895
340.854
339.815
338.806
337.865
337.064
336.42
336.024
335.793
335.807
336.011
336.416
337.063
337.862
338.801
339.809
340.851
341.895
342.893
343.802
344.591
345.18
345.661
345.854
250.202
249.992
249.224
248.595
247.589
246.506
245.216
243.909
242.604
241.294
240.096
239.09
238.188
237.714
237.513
237.551
237.698
238.182
239.077
240.104
241.294
242.592
243.894
245.208
246.518
247.613
248.627
249.239
250.015
250.217
155.723
154.953
153.953
152.891
151.847
150.362
148.977
147
145.239
143.888
142.051
140.994
139.306
138.556
139.084
139.116
138.589
139.287
140.957
142.125
143.912
145.207
146.963
148.951
150.371
151.882
152.941
153.958
154.98
155.721
68.2448
65.2886
65.9538
62.8352
62.2982
59.7716
59.1726
56.1803
53.926
53.5192
51.5186
51.2398
48.0499
46.8632
49.7269
49.6328
46.9956
47.9599
51.1116
51.6884
53.5813
53.8475
56.1036
59.1083
59.7689
62.384
62.8558
65.9879
65.2923
68.2492
12.0075
7.73677
10.8652
6.96951
8.003
5.58116
6.35344
4.24308
2.89306
3.36217
2.37334
3.02407
0.85571
0.146497
2.59852
2.4054
0.269517
0.784231
2.89977
2.51008
3.40008
2.83038
4.19567
6.29044
5.56114
8.17492
6.93188
10.9196
7.7335
12.0185
-4.98876
-4.96713
-4.99707
-4.98312
-5.04985
-5.05077
-5.07209
-5.05957
-5.05242
-5.06619
-5.05754
-5.07186
-5.04744
-5.04159
-5.07083
-5.06846
-5.04351
-5.04663
-5.07075
-5.05948
-5.06775
-5.0536
-5.06032
-5.07161
-5.04901
-5.04753
-4.97984
-4.99673
-4.96532
-4.97732
-5.16156
-5.15263
-5.15422
-5.1568
-5.16548
-5.16585
-5.1691
-5.16821
-5.1658
-5.16649
-5.16462
-5.16574
-5.16095
-5.15974
-5.1649
-5.16484
-5.15989
-5.16064
-5.16489
-5.16479
-5.16649
-5.16593
-5.16775
-5.16869
-5.16566
-5.16538
-5.15109
-5.15136
-5.15156
-5.15903
-5.29273
-5.29118
-5.29115
-5.29329
-5.28234
-5.27633
-5.27474
-5.27359
-5.27204
-5.27112
-5.26893
-5.26802
-5.26562
-5.26472
-5.26487
-5.2649
-5.265
-5.26578
-5.26801
-5.269
-5.2714
-5.27206
-5.27367
-5.27486
-5.27697
-5.28398
-5.29649
-5.29057
-5.29242
-5.29566
-5.38493
-5.384
-5.38557
-5.38485
-5.38018
-5.37669
-5.37357
-5.37117
-5.36982
-5.36869
-5.36691
-5.36545
-5.364
-5.36287
-5.36269
-5.36282
-5.36314
-5.36435
-5.36572
-5.36728
-5.36915
-5.37013
-5.37186
-5.37432
-5.3778
-5.3816
-5.38657
-5.38718
-5.38544
-5.38656
-5.47783
-5.47722
-5.47769
-5.4766
-5.47459
-5.47243
-5.47018
-5.46807
-5.46666
-5.46549
-5.46419
-5.46281
-5.46184
-5.46106
-5.46051
-5.46061
-5.46143
-5.46235
-5.46329
-5.46469
-5.46599
-5.46726
-5.46885
-5.4711
-5.47352
-5.47586
-5.4781
-5.47938
-5.47876
-5.47959
-5.57138
-5.57127
-5.57114
-5.57012
-5.56894
-5.56725
-5.5655
-5.56396
-5.56261
-5.56148
-5.56049
-5.55959
-5.55894
-5.55838
-5.55798
-5.55807
-5.55865
-5.55933
-5.56009
-5.56106
-5.56208
-5.56334
-5.56479
-5.56653
-5.56836
-5.57018
-5.57152
-5.57262
-5.57286
-5.57311
-5.66569
-5.66546
-5.66515
-5.66428
-5.66331
-5.66207
-5.66071
-5.65941
-5.6582
-5.65715
-5.65625
-5.65552
-5.65501
-5.65469
-5.65455
-5.65464
-5.65494
-5.65539
-5.65602
-5.65681
-5.65777
-5.65895
-5.66031
-5.66172
-5.6632
-5.6646
-5.66567
-5.66655
-5.66695
-5.66735
-5.76007
-5.75987
-5.75954
-5.7588
-5.75799
-5.75699
-5.7559
-5.75482
-5.75376
-5.75276
-5.75187
-5.75116
-5.75066
-5.75036
-5.75027
-5.75036
-5.7506
-5.75103
-5.75165
-5.75245
-5.75341
-5.75451
-5.75572
-5.75691
-5.7581
-5.75923
-5.76014
-5.76092
-5.76129
-5.7616
-5.85481
-5.85464
-5.8543
-5.85374
-5.853
-5.85215
-5.85123
-5.85028
-5.84932
-5.84841
-5.84757
-5.84686
-5.84633
-5.846
-5.84588
-5.84597
-5.84623
-5.84668
-5.84733
-5.84814
-5.84907
-5.8501
-5.85118
-5.85224
-5.85326
-5.8542
-5.85501
-5.85565
-5.85602
-5.85626
-5.94993
-5.9498
-5.94947
-5.94898
-5.94833
-5.94758
-5.94676
-5.94591
-5.94505
-5.9442
-5.94341
-5.94275
-5.94224
-5.9419
-5.94177
-5.94185
-5.94211
-5.94257
-5.94321
-5.94399
-5.94487
-5.94582
-5.9468
-5.94774
-5.94866
-5.94949
-5.9502
-5.95076
-5.95113
-5.95133
-6.04541
-6.04524
-6.04494
-6.04452
-6.04396
-6.04328
-6.04254
-6.04176
-6.04097
-6.04018
-6.03946
-6.03885
-6.03837
-6.03804
-6.03791
-6.03799
-6.03824
-6.03867
-6.03928
-6.04002
-6.04085
-6.04173
-6.04263
-6.04349
-6.04432
-6.04507
-6.04571
-6.04621
-6.04655
-6.04674
-6.14115
-6.141
-6.14074
-6.14036
-6.13984
-6.13923
-6.13856
-6.13784
-6.1371
-6.13638
-6.13572
-6.13516
-6.13472
-6.13441
-6.1343
-6.13439
-6.13464
-6.13503
-6.13559
-6.13628
-6.13705
-6.13787
-6.13869
-6.13949
-6.14025
-6.14094
-6.14152
-6.14196
-6.14226
-6.14242
-6.23719
-6.23705
-6.23682
-6.23647
-6.23601
-6.23545
-6.23483
-6.23416
-6.23348
-6.23283
-6.23224
-6.23173
-6.23132
-6.23104
-6.23095
-6.23103
-6.23125
-6.23162
-6.23213
-6.23277
-6.23349
-6.23424
-6.235
-6.23576
-6.23646
-6.23708
-6.23759
-6.23798
-6.23825
-6.23839
-6.33347
-6.33334
-6.33313
-6.33282
-6.33241
-6.3319
-6.33132
-6.33072
-6.33011
-6.32953
-6.329
-6.32854
-6.32817
-6.32793
-6.32784
-6.32791
-6.32812
-6.32846
-6.32894
-6.32953
-6.33019
-6.33088
-6.33159
-6.33227
-6.3329
-6.33345
-6.3339
-6.33425
-6.3345
-6.33463
-6.42997
-6.42987
-6.42969
-6.42942
-6.42905
-6.42858
-6.42807
-6.42753
-6.42699
-6.42648
-6.42601
-6.4256
-6.42529
-6.42508
-6.425
-6.42507
-6.42526
-6.42558
-6.42601
-6.42654
-6.42713
-6.42775
-6.42838
-6.42899
-6.42955
-6.43004
-6.43044
-6.43077
-6.43099
-6.43111
-6.52671
-6.52661
-6.52645
-6.52621
-6.52587
-6.52547
-6.52502
-6.52455
-6.52407
-6.52363
-6.52323
-6.52288
-6.5226
-6.52242
-6.52235
-6.52241
-6.52258
-6.52287
-6.52326
-6.52372
-6.52425
-6.5248
-6.52536
-6.52589
-6.52639
-6.52684
-6.52721
-6.52751
-6.52771
-6.52781
-6.62361
-6.62354
-6.62339
-6.62316
-6.62284
-6.62248
-6.62208
-6.62167
-6.62128
-6.62091
-6.62056
-6.62026
-6.62002
-6.61987
-6.61981
-6.61987
-6.62002
-6.62029
-6.62063
-6.62105
-6.62153
-6.62202
-6.62252
-6.623
-6.62344
-6.62384
-6.62417
-6.62443
-6.6246
-6.62469
-6.72074
-6.72068
-6.72052
-6.72027
-6.71997
-6.71965
-6.7193
-6.71897
-6.71865
-6.71834
-6.71803
-6.71777
-6.71757
-6.71745
-6.71741
-6.71746
-6.71761
-6.71785
-6.71817
-6.71856
-6.71899
-6.71943
-6.71987
-6.72028
-6.72067
-6.72101
-6.72129
-6.7215
-6.72165
-6.72172
-6.81801
-6.81795
-6.81777
-6.81755
-6.8173
-6.81702
-6.81674
-6.81648
-6.81621
-6.81593
-6.81566
-6.81545
-6.8153
-6.81521
-6.81518
-6.81523
-6.81537
-6.8156
-6.81589
-6.81622
-6.81659
-6.81698
-6.81735
-6.81771
-6.81803
-6.81831
-6.81853
-6.81871
-6.81883
-6.8189
-6.91537
-6.91528
-6.91515
-6.91499
-6.9148
-6.91458
-6.91436
-6.91414
-6.9139
-6.91366
-6.91345
-6.91328
-6.91316
-6.91309
-6.91308
-6.91314
-6.91326
-6.91345
-6.9137
-6.91398
-6.91429
-6.91462
-6.91494
-6.91523
-6.91549
-6.91571
-6.9159
-6.91605
-6.91616
-6.91622
-7.01278
-7.0127
-7.01262
-7.01253
-7.0124
-7.01224
-7.01207
-7.01187
-7.01167
-7.01147
-7.0113
-7.01117
-7.01107
-7.01103
-7.01103
-7.01109
-7.01119
-7.01135
-7.01155
-7.01178
-7.01204
-7.01231
-7.01257
-7.01282
-7.01303
-7.01323
-7.0134
-7.01354
-7.01363
-7.01369
-7.11029
-7.11024
-7.1102
-7.11016
-7.11007
-7.10995
-7.1098
-7.10963
-7.10946
-7.1093
-7.10917
-7.10906
-7.109
-7.10897
-7.10899
-7.10905
-7.10914
-7.10926
-7.10942
-7.10961
-7.10982
-7.11005
-7.11027
-7.11048
-7.11068
-7.11086
-7.11102
-7.11115
-7.11123
-7.11128
-7.20797
-7.20794
-7.20793
-7.20788
-7.20781
-7.2077
-7.20757
-7.20743
-7.2073
-7.20717
-7.20707
-7.20699
-7.20696
-7.20695
-7.20698
-7.20703
-7.2071
-7.20721
-7.20734
-7.2075
-7.20768
-7.20786
-7.20806
-7.20825
-7.20844
-7.20861
-7.20875
-7.20885
-7.20892
-7.20896
-7.30579
-7.30578
-7.30576
-7.30571
-7.30563
-7.30554
-7.30543
-7.30533
-7.30522
-7.30512
-7.30504
-7.305
-7.30499
-7.305
-7.30502
-7.30507
-7.30514
-7.30523
-7.30535
-7.30548
-7.30562
-7.30577
-7.30594
-7.30611
-7.30627
-7.30642
-7.30654
-7.30663
-7.30668
-7.30671
-7.40372
-7.40373
-7.40368
-7.40362
-7.40356
-7.40348
-7.4034
-7.40331
-7.40322
-7.40314
-7.4031
-7.40309
-7.40309
-7.4031
-7.40313
-7.40318
-7.40325
-7.40333
-7.40342
-7.40352
-7.40362
-7.40374
-7.40387
-7.40402
-7.40416
-7.40428
-7.40438
-7.40445
-7.4045
-7.40452
-7.50171
-7.50169
-7.50164
-7.5016
-7.50154
-7.50149
-7.50142
-7.50135
-7.50128
-7.50123
-7.50122
-7.50122
-7.50122
-7.50124
-7.50127
-7.50132
-7.50138
-7.50144
-7.50151
-7.50158
-7.50165
-7.50175
-7.50186
-7.50198
-7.5021
-7.5022
-7.50228
-7.50233
-7.50237
-7.50238
-7.59969
-7.59965
-7.59962
-7.59959
-7.59955
-7.59951
-7.59947
-7.59942
-7.59938
-7.59936
-7.59935
-7.59935
-7.59935
-7.59937
-7.5994
-7.59944
-7.5995
-7.59955
-7.5996
-7.59965
-7.59972
-7.5998
-7.59989
-7.59999
-7.60008
-7.60016
-7.60022
-7.60026
-7.60029
-7.60031
-7.69767
-7.69765
-7.69764
-7.69762
-7.6976
-7.69758
-7.69756
-7.69753
-7.69751
-7.6975
-7.69749
-7.69748
-7.69748
-7.6975
-7.69753
-7.69757
-7.69762
-7.69766
-7.6977
-7.69775
-7.69781
-7.69788
-7.69796
-7.69803
-7.6981
-7.69816
-7.69821
-7.69825
-7.69828
-7.6983
-7.79573
-7.79572
-7.79572
-7.79571
-7.79571
-7.7957
-7.79568
-7.79567
-7.79566
-7.79565
-7.79563
-7.79562
-7.79562
-7.79564
-7.79567
-7.79571
-7.79574
-7.79578
-7.79582
-7.79587
-7.79593
-7.79599
-7.79605
-7.7961
-7.79616
-7.79621
-7.79626
-7.7963
-7.79634
-7.79636
-7.89384
-7.89383
-7.89382
-7.89383
-7.89383
-7.89383
-7.89382
-7.89382
-7.89381
-7.8938
-7.89379
-7.89378
-7.89378
-7.8938
-7.89382
-7.89385
-7.89388
-7.89391
-7.89396
-7.89401
-7.89407
-7.89412
-7.89417
-7.89422
-7.89427
-7.89432
-7.89437
-7.89442
-7.89446
-7.89448
-7.99196
-7.99196
-7.99196
-7.99197
-7.99197
-7.99197
-7.99197
-7.99197
-7.99197
-7.99197
-7.99196
-7.99196
-7.99196
-7.99196
-7.99197
-7.99199
-7.99202
-7.99206
-7.99212
-7.99218
-7.99224
-7.9923
-7.99235
-7.9924
-7.99245
-7.99249
-7.99254
-7.99258
-7.99261
-7.99262
-8.09011
-8.09012
-8.09013
-8.09014
-8.09013
-8.09013
-8.09014
-8.09015
-8.09016
-8.09016
-8.09016
-8.09015
-8.09014
-8.09014
-8.09015
-8.09017
-8.0902
-8.09025
-8.09032
-8.09038
-8.09045
-8.09051
-8.09056
-8.09061
-8.09065
-8.09069
-8.09073
-8.09076
-8.09078
-8.09079
-8.1883
-8.18831
-8.18831
-8.18831
-8.18831
-8.18832
-8.18834
-8.18835
-8.18836
-8.18836
-8.18836
-8.18835
-8.18834
-8.18834
-8.18835
-8.18838
-8.18842
-8.18847
-8.18854
-8.1886
-8.18867
-8.18873
-8.18878
-8.18883
-8.18887
-8.1889
-8.18893
-8.18895
-8.18896
-8.18897
-8.28648
-8.28648
-8.28647
-8.28647
-8.28648
-8.2865
-8.28652
-8.28653
-8.28654
-8.28655
-8.28655
-8.28655
-8.28655
-8.28656
-8.28657
-8.2866
-8.28664
-8.28669
-8.28676
-8.28682
-8.28689
-8.28695
-8.287
-8.28705
-8.28709
-8.28711
-8.28714
-8.28715
-8.28715
-8.28716
-8.38464
-8.38463
-8.38462
-8.38462
-8.38464
-8.38466
-8.38468
-8.3847
-8.38471
-8.38473
-8.38474
-8.38475
-8.38477
-8.38478
-8.3848
-8.38483
-8.38487
-8.38492
-8.38498
-8.38504
-8.3851
-8.38516
-8.38522
-8.38527
-8.3853
-8.38533
-8.38534
-8.38535
-8.38535
-8.38535
-8.48278
-8.48277
-8.48277
-8.48279
-8.48282
-8.48284
-8.48286
-8.48288
-8.4829
-8.48292
-8.48295
-8.48297
-8.48299
-8.48301
-8.48304
-8.48306
-8.4831
-8.48315
-8.4832
-8.48326
-8.48332
-8.48338
-8.48343
-8.48348
-8.48351
-8.48353
-8.48354
-8.48355
-8.48355
-8.48355
-8.58095
-8.58095
-8.58096
-8.58099
-8.58101
-8.58103
-8.58106
-8.58108
-8.58111
-8.58114
-8.58117
-8.5812
-8.58123
-8.58125
-8.58128
-8.58131
-8.58135
-8.58139
-8.58144
-8.5815
-8.58155
-8.5816
-8.58164
-8.58168
-8.58171
-8.58172
-8.58174
-8.58174
-8.58175
-8.58175
-8.67915
-8.67916
-8.67918
-8.6792
-8.67923
-8.67925
-8.67928
-8.67931
-8.67934
-8.67937
-8.67941
-8.67943
-8.67946
-8.6795
-8.67953
-8.67957
-8.67961
-8.67965
-8.6797
-8.67974
-8.67978
-8.67981
-8.67984
-8.67987
-8.67989
-8.67991
-8.67992
-8.67994
-8.67994
-8.67995
-8.77739
-8.77739
-8.77741
-8.77743
-8.77745
-8.77748
-8.77751
-8.77754
-8.77757
-8.77761
-8.77764
-8.77767
-8.77771
-8.77775
-8.77779
-8.77784
-8.77788
-8.77792
-8.77795
-8.77798
-8.778
-8.77803
-8.77805
-8.77807
-8.77809
-8.77811
-8.77812
-8.77814
-8.77815
-8.77816
-8.87565
-8.87565
-8.87566
-8.87567
-8.87569
-8.87572
-8.87575
-8.87579
-8.87582
-8.87585
-8.87589
-8.87593
-8.87598
-8.87602
-8.87607
-8.87612
-8.87616
-8.87619
-8.87621
-8.87623
-8.87624
-8.87625
-8.87626
-8.87628
-8.8763
-8.87631
-8.87633
-8.87635
-8.87636
-8.87637
-8.97393
-8.97393
-8.97393
-8.97395
-8.97397
-8.97399
-8.97402
-8.97406
-8.97409
-8.97413
-8.97417
-8.97422
-8.97428
-8.97433
-8.97438
-8.97442
-8.97445
-8.97447
-8.97448
-8.97448
-8.97449
-8.97449
-8.9745
-8.97451
-8.97452
-8.97454
-8.97455
-8.97457
-8.97458
-8.97458
-9.07223
-9.07223
-9.07224
-9.07225
-9.07227
-9.07229
-9.07232
-9.07235
-9.07239
-9.07244
-9.07249
-9.07255
-9.07261
-9.07266
-9.07271
-9.07274
-9.07276
-9.07277
-9.07277
-9.07276
-9.07275
-9.07275
-9.07275
-9.07275
-9.07276
-9.07277
-9.07278
-9.07278
-9.07279
-9.07279
-9.17056
-9.17056
-9.17056
-9.17057
-9.17059
-9.17061
-9.17063
-9.17067
-9.17071
-9.17077
-9.17083
-9.17089
-9.17095
-9.171
-9.17103
-9.17106
-9.17107
-9.17107
-9.17107
-9.17106
-9.17104
-9.17103
-9.17102
-9.17101
-9.17101
-9.17101
-9.171
-9.171
-9.171
-9.171
-9.2689
-9.2689
-9.2689
-9.2689
-9.26891
-9.26893
-9.26896
-9.269
-9.26905
-9.2691
-9.26916
-9.26922
-9.26927
-9.26932
-9.26935
-9.26937
-9.26938
-9.26938
-9.26937
-9.26936
-9.26935
-9.26933
-9.26931
-9.26929
-9.26927
-9.26926
-9.26925
-9.26923
-9.26923
-9.26922
-9.36725
-9.36724
-9.36724
-9.36725
-9.36725
-9.36727
-9.3673
-9.36734
-9.36739
-9.36744
-9.36749
-9.36754
-9.36759
-9.36762
-9.36765
-9.36767
-9.36768
-9.36768
-9.36768
-9.36767
-9.36766
-9.36764
-9.36761
-9.36758
-9.36756
-9.36753
-9.36751
-9.36749
-9.36748
-9.36747
-9.46561
-9.46561
-9.4656
-9.46561
-9.46562
-9.46564
-9.46567
-9.4657
-9.46575
-9.46579
-9.46583
-9.46586
-9.46589
-9.46592
-9.46594
-9.46596
-9.46597
-9.46598
-9.46598
-9.46598
-9.46596
-9.46594
-9.46592
-9.46589
-9.46585
-9.46582
-9.4658
-9.46577
-9.46576
-9.46576
-9.56399
-9.56398
-9.56398
-9.56399
-9.564
-9.56402
-9.56405
-9.56408
-9.56411
-9.56414
-9.56416
-9.56418
-9.5642
-9.56422
-9.56424
-9.56425
-9.56427
-9.56427
-9.56428
-9.56428
-9.56427
-9.56425
-9.56423
-9.5642
-9.56417
-9.56414
-9.56411
-9.5641
-9.56409
-9.56408
-9.66238
-9.66238
-9.66238
-9.66239
-9.6624
-9.66242
-9.66244
-9.66245
-9.66247
-9.66249
-9.6625
-9.66251
-9.66252
-9.66253
-9.66254
-9.66255
-9.66256
-9.66257
-9.66257
-9.66257
-9.66256
-9.66255
-9.66254
-9.66252
-9.6625
-9.66248
-9.66246
-9.66244
-9.66244
-9.66244
-9.76079
-9.76079
-9.76079
-9.7608
-9.7608
-9.76081
-9.76081
-9.76082
-9.76083
-9.76083
-9.76083
-9.76084
-9.76084
-9.76084
-9.76085
-9.76085
-9.76085
-9.76086
-9.76086
-9.76086
-9.76085
-9.76085
-9.76085
-9.76084
-9.76083
-9.76082
-9.76082
-9.76081
-9.76081
-9.76081
4845.76
4845.76
4845.75
4845.75
4845.75
4845.74
4845.74
4845.74
4845.73
4845.73
4845.73
4845.72
4845.72
4845.72
4845.72
4845.72
4845.72
4845.72
4845.73
4845.73
4845.73
4845.73
4845.73
4845.73
4845.74
4845.74
4845.74
4845.74
4845.75
4845.75
4747.65
4747.65
4747.65
4747.65
4747.64
4747.64
4747.64
4747.64
4747.63
4747.63
4747.63
4747.63
4747.62
4747.62
4747.62
4747.62
4747.62
4747.62
4747.62
4747.63
4747.63
4747.63
4747.63
4747.63
4747.63
4747.64
4747.64
4747.64
4747.64
4747.64
4649.54
4649.54
4649.54
4649.54
4649.54
4649.54
4649.54
4649.53
4649.53
4649.53
4649.53
4649.53
4649.53
4649.53
4649.52
4649.52
4649.52
4649.52
4649.52
4649.53
4649.53
4649.53
4649.53
4649.53
4649.53
4649.54
4649.54
4649.54
4649.54
4649.54
4551.43
4551.43
4551.43
4551.43
4551.43
4551.43
4551.43
4551.43
4551.43
4551.43
4551.43
4551.43
4551.43
4551.43
4551.43
4551.43
4551.43
4551.43
4551.43
4551.43
4551.43
4551.43
4551.43
4551.43
4551.43
4551.43
4551.44
4551.43
4551.43
4551.43
4453.33
4453.33
4453.33
4453.33
4453.33
4453.33
4453.33
4453.33
4453.33
4453.33
4453.33
4453.33
4453.33
4453.33
4453.33
4453.33
4453.33
4453.33
4453.33
4453.33
4453.33
4453.33
4453.33
4453.33
4453.33
4453.33
4453.33
4453.33
4453.33
4453.33
4355.23
4355.23
4355.23
4355.23
4355.23
4355.23
4355.23
4355.23
4355.23
4355.23
4355.23
4355.23
4355.23
4355.23
4355.23
4355.23
4355.23
4355.23
4355.23
4355.23
4355.23
4355.23
4355.23
4355.23
4355.23
4355.23
4355.23
4355.23
4355.23
4355.23
4257.13
4257.13
4257.13
4257.13
4257.13
4257.13
4257.13
4257.13
4257.13
4257.13
4257.13
4257.13
4257.13
4257.13
4257.13
4257.13
4257.13
4257.13
4257.13
4257.13
4257.13
4257.13
4257.13
4257.13
4257.13
4257.13
4257.13
4257.13
4257.13
4257.13
4159.03
4159.03
4159.03
4159.03
4159.03
4159.03
4159.03
4159.03
4159.03
4159.03
4159.03
4159.03
4159.03
4159.03
4159.03
4159.03
4159.03
4159.03
4159.03
4159.03
4159.03
4159.03
4159.03
4159.03
4159.03
4159.03
4159.03
4159.03
4159.03
4159.03
4060.94
4060.94
4060.94
4060.94
4060.93
4060.93
4060.93
4060.93
4060.93
4060.93
4060.93
4060.93
4060.93
4060.93
4060.93
4060.93
4060.93
4060.93
4060.93
4060.93
4060.93
4060.93
4060.93
4060.93
4060.93
4060.93
4060.93
4060.93
4060.93
4060.93
3962.84
3962.84
3962.84
3962.84
3962.84
3962.84
3962.84
3962.83
3962.83
3962.83
3962.83
3962.83
3962.83
3962.83
3962.83
3962.83
3962.83
3962.83
3962.83
3962.83
3962.83
3962.83
3962.83
3962.83
3962.83
3962.83
3962.83
3962.83
3962.83
3962.83
3864.74
3864.74
3864.74
3864.74
3864.74
3864.74
3864.74
3864.74
3864.73
3864.73
3864.73
3864.73
3864.73
3864.73
3864.73
3864.73
3864.73
3864.73
3864.73
3864.73
3864.73
3864.73
3864.74
3864.74
3864.74
3864.74
3864.74
3864.74
3864.74
3864.74
3766.64
3766.64
3766.64
3766.64
3766.64
3766.64
3766.64
3766.64
3766.64
3766.64
3766.63
3766.63
3766.63
3766.63
3766.63
3766.63
3766.63
3766.63
3766.64
3766.64
3766.64
3766.64
3766.64
3766.64
3766.64
3766.64
3766.64
3766.64
3766.65
3766.65
3668.55
3668.54
3668.54
3668.54
3668.54
3668.54
3668.54
3668.54
3668.54
3668.54
3668.54
3668.54
3668.54
3668.54
3668.54
3668.54
3668.54
3668.54
3668.54
3668.54
3668.54
3668.54
3668.55
3668.55
3668.55
3668.55
3668.55
3668.55
3668.55
3668.55
3570.45
3570.45
3570.45
3570.45
3570.45
3570.45
3570.45
3570.45
3570.45
3570.44
3570.44
3570.44
3570.44
3570.44
3570.44
3570.44
3570.44
3570.44
3570.44
3570.44
3570.44
3570.45
3570.45
3570.45
3570.46
3570.46
3570.46
3570.46
3570.46
3570.46
3472.36
3472.36
3472.36
3472.36
3472.36
3472.36
3472.35
3472.35
3472.35
3472.35
3472.35
3472.34
3472.34
3472.34
3472.34
3472.34
3472.34
3472.34
3472.34
3472.34
3472.35
3472.35
3472.35
3472.36
3472.36
3472.37
3472.37
3472.37
3472.37
3472.37
3374.27
3374.27
3374.27
3374.27
3374.26
3374.26
3374.26
3374.26
3374.25
3374.25
3374.25
3374.24
3374.24
3374.24
3374.24
3374.24
3374.24
3374.24
3374.24
3374.24
3374.25
3374.25
3374.26
3374.26
3374.27
3374.27
3374.27
3374.28
3374.28
3374.28
3276.18
3276.18
3276.18
3276.18
3276.17
3276.17
3276.16
3276.16
3276.15