/*--------------------------------*- C++ -*----------------------------------*\
| =========                 |                                                 |
| \\      /  F ield         | OpenFOAM: The Open Source CFD Toolbox           |
|  \\    /   O peration     | Version:  2312                                  |
|   \\  /    A nd           | Website:  www.openfoam.com                      |
|    \\/     M anipulation  |                                                 |
\*---------------------------------------------------------------------------*/
FoamFile
{
    version     2.0;
    format      ascii;
    arch        "LSB;label=32;scalar=64";
    class       volScalarField;
    location    "1.1552399";
    object      p_rgh;
}
// * * * * * * * * * * * * * * * * * * * * * * * * * * * * * * * * * * * * * //

dimensions      [1 -1 -2 0 0 0 0];

internalField   nonuniform List<scalar> 
90000
(
4894.8
4894.81
4894.81
4894.8
4894.8
4894.8
4894.79
4894.79
4894.78
4894.78
4894.78
4894.77
4894.77
4894.77
4894.77
4894.77
4894.77
4894.78
4894.78
4894.78
4894.78
4894.78
4894.78
4894.78
4894.79
4894.79
4894.79
4894.79
4894.79
4894.79
4894.81
4894.81
4894.81
4894.8
4894.8
4894.8
4894.79
4894.79
4894.78
4894.78
4894.78
4894.77
4894.77
4894.77
4894.77
4894.77
4894.78
4894.78
4894.78
4894.78
4894.78
4894.78
4894.78
4894.78
4894.79
4894.79
4894.79
4894.79
4894.79
4894.76
4894.8
4894.8
4894.8
4894.8
4894.8
4894.79
4894.79
4894.79
4894.78
4894.78
4894.78
4894.77
4894.77
4894.77
4894.77
4894.77
4894.77
4894.77
4894.77
4894.78
4894.78
4894.78
4894.78
4894.78
4894.79
4894.79
4894.8
4894.81
4894.83
4894.79
4894.8
4894.79
4894.79
4894.79
4894.79
4894.79
4894.79
4894.79
4894.78
4894.78
4894.78
4894.78
4894.77
4894.77
4894.77
4894.77
4894.77
4894.77
4894.77
4894.77
4894.78
4894.78
4894.78
4894.78
4894.79
4894.79
4894.79
4894.78
4894.81
4894.79
4894.79
4894.78
4894.78
4894.78
4894.78
4894.78
4894.78
4894.79
4894.79
4894.79
4894.79
4894.78
4894.78
4894.78
4894.77
4894.77
4894.77
4894.77
4894.77
4894.77
4894.78
4894.78
4894.78
4894.78
4894.79
4894.79
4894.79
4894.79
4894.79
4894.79
4894.78
4894.76
4894.77
4894.77
4894.77
4894.78
4894.78
4894.79
4894.79
4894.79
4894.79
4894.79
4894.79
4894.78
4894.78
4894.77
4894.77
4894.77
4894.77
4894.77
4894.78
4894.78
4894.78
4894.79
4894.79
4894.79
4894.79
4894.78
4894.78
4894.77
4894.77
4894.75
4894.75
4894.76
4894.76
4894.77
4894.78
4894.79
4894.79
4894.8
4894.8
4894.8
4894.79
4894.79
4894.79
4894.78
4894.78
4894.77
4894.77
4894.78
4894.78
4894.78
4894.79
4894.79
4894.79
4894.78
4894.78
4894.77
4894.77
4894.77
4894.76
4894.74
4894.75
4894.75
4894.76
4894.77
4894.77
4894.78
4894.79
4894.79
4894.79
4894.79
4894.79
4894.79
4894.79
4894.79
4894.78
4894.78
4894.78
4894.78
4894.78
4894.78
4894.79
4894.79
4894.78
4894.78
4894.77
4894.77
4894.77
4894.78
4894.76
4894.75
4894.75
4894.76
4894.76
4894.77
4894.77
4894.77
4894.77
4894.78
4894.78
4894.78
4894.79
4894.79
4894.79
4894.79
4894.78
4894.78
4894.78
4894.78
4894.78
4894.78
4894.78
4894.78
4894.77
4894.77
4894.77
4894.77
4894.77
4894.78
4894.77
4894.77
4894.78
4894.78
4894.78
4894.78
4894.77
4894.77
4894.77
4894.77
4894.77
4894.77
4894.78
4894.78
4894.78
4894.79
4894.78
4894.78
4894.78
4894.78
4894.78
4894.77
4894.77
4894.76
4894.76
4894.75
4894.76
4894.77
4894.78
4894.78
4894.78
4894.81
4894.81
4894.81
4894.8
4894.79
4894.79
4894.78
4894.77
4894.77
4894.77
4894.77
4894.77
4894.78
4894.78
4894.78
4894.79
4894.79
4894.79
4894.78
4894.78
4894.77
4894.76
4894.75
4894.75
4894.75
4894.76
4894.77
4894.77
4894.77
4894.81
4894.85
4894.84
4894.84
4894.82
4894.81
4894.8
4894.78
4894.77
4894.77
4894.76
4894.76
4894.76
4894.77
4894.77
4894.78
4894.78
4894.79
4894.79
4894.78
4894.78
4894.77
4894.76
4894.76
4894.76
4894.76
4894.77
4894.77
4894.77
4894.77
4894.84
4894.86
4894.85
4894.84
4894.82
4894.81
4894.79
4894.78
4894.77
4894.76
4894.76
4894.75
4894.75
4894.76
4894.76
4894.77
4894.77
4894.78
4894.78
4894.78
4894.78
4894.77
4894.77
4894.77
4894.77
4894.78
4894.78
4894.77
4894.76
4894.77
4894.85
4894.83
4894.82
4894.81
4894.79
4894.78
4894.77
4894.77
4894.76
4894.76
4894.76
4894.75
4894.75
4894.75
4894.75
4894.76
4894.77
4894.78
4894.78
4894.78
4894.78
4894.78
4894.78
4894.78
4894.78
4894.78
4894.77
4894.76
4894.75
4894.76
4894.83
4894.78
4894.77
4894.76
4894.76
4894.76
4894.76
4894.77
4894.77
4894.77
4894.77
4894.77
4894.76
4894.76
4894.76
4894.77
4894.78
4894.79
4894.79
4894.79
4894.79
4894.8
4894.8
4894.8
4894.79
4894.78
4894.76
4894.76
4894.76
4894.76
4894.79
4894.73
4894.74
4894.74
4894.75
4894.76
4894.78
4894.79
4894.8
4894.8
4894.79
4894.79
4894.78
4894.78
4894.78
4894.79
4894.79
4894.79
4894.8
4894.8
4894.81
4894.82
4894.82
4894.82
4894.82
4894.81
4894.8
4894.81
4894.81
4894.83
4894.77
4894.72
4894.74
4894.76
4894.77
4894.79
4894.81
4894.81
4894.81
4894.81
4894.8
4894.79
4894.79
4894.79
4894.79
4894.79
4894.79
4894.79
4894.79
4894.8
4894.81
4894.83
4894.84
4894.85
4894.85
4894.85
4894.87
4894.88
4894.89
4894.91
4894.78
4894.76
4894.78
4894.79
4894.81
4894.81
4894.82
4894.81
4894.8
4894.79
4894.79
4894.79
4894.8
4894.8
4894.8
4894.79
4894.79
4894.78
4894.78
4894.79
4894.81
4894.82
4894.84
4894.84
4894.85
4894.86
4894.88
4894.9
4894.92
4894.9
4894.81
4894.81
4894.81
4894.82
4894.82
4894.82
4894.81
4894.8
4894.79
4894.79
4894.8
4894.81
4894.82
4894.82
4894.81
4894.8
4894.78
4894.78
4894.78
4894.79
4894.8
4894.81
4894.81
4894.81
4894.82
4894.83
4894.84
4894.85
4894.84
4894.79
4894.84
4894.84
4894.84
4894.83
4894.83
4894.83
4894.82
4894.82
4894.82
4894.83
4894.84
4894.84
4894.84
4894.83
4894.81
4894.79
4894.77
4894.77
4894.78
4894.79
4894.8
4894.8
4894.79
4894.79
4894.81
4894.82
4894.82
4894.8
4894.77
4894.76
4894.86
4894.87
4894.87
4894.87
4894.87
4894.87
4894.87
4894.87
4894.87
4894.87
4894.87
4894.85
4894.83
4894.8
4894.77
4894.76
4894.77
4894.78
4894.8
4894.8
4894.8
4894.8
4894.8
4894.82
4894.85
4894.86
4894.86
4894.84
4894.82
4894.87
4894.89
4894.92
4894.92
4894.93
4894.93
4894.93
4894.92
4894.91
4894.89
4894.88
4894.85
4894.82
4894.79
4894.76
4894.75
4894.77
4894.79
4894.82
4894.83
4894.83
4894.82
4894.82
4894.84
4894.88
4894.9
4894.9
4894.89
4894.89
4894.91
4894.94
4894.94
4894.97
4894.98
4894.97
4894.97
4894.95
4894.93
4894.91
4894.89
4894.87
4894.83
4894.8
4894.77
4894.77
4894.79
4894.82
4894.86
4894.87
4894.86
4894.85
4894.84
4894.86
4894.89
4894.92
4894.92
4894.9
4894.9
4894.91
4894.92
4894.89
4894.99
4895.01
4895
4894.99
4894.97
4894.95
4894.94
4894.92
4894.91
4894.88
4894.85
4894.82
4894.81
4894.82
4894.84
4894.86
4894.87
4894.85
4894.84
4894.84
4894.87
4894.91
4894.95
4894.96
4894.94
4894.93
4894.94
4894.94
4894.92
4894.94
4895.02
4895.01
4895
4894.98
4894.97
4894.96
4894.96
4894.95
4894.93
4894.9
4894.86
4894.84
4894.82
4894.83
4894.84
4894.83
4894.81
4894.79
4894.8
4894.84
4894.91
4894.97
4894.99
4894.98
4894.98
4894.99
4895
4895
4895.01
4895.07
4895.05
4895.02
4895.01
4895
4894.99
4894.99
4894.98
4894.97
4894.94
4894.9
4894.87
4894.85
4894.84
4894.85
4894.84
4894.82
4894.8
4894.81
4894.86
4894.92
4894.98
4895
4894.99
4894.98
4895
4895.03
4895.03
4895.05
4895.11
4895.07
4895.09
4895.05
4895.04
4895.03
4895.02
4895.01
4895
4894.98
4894.95
4894.92
4894.91
4894.91
4894.92
4894.92
4894.91
4894.89
4894.9
4894.93
4894.98
4895.01
4895.02
4895
4894.99
4895
4895.04
4895.06
4895.06
4895.11
4895.11
4895.01
4895.15
4895.1
4895.09
4895.08
4895.07
4895.05
4895.04
4895.01
4894.99
4894.97
4894.98
4894.99
4895
4894.98
4894.96
4894.95
4894.96
4894.99
4895.02
4895.01
4894.99
4894.99
4895.03
4895.07
4895.11
4895.14
4895.17
4895.17
4895.11
4895.16
4895.23
4895.19
4895.19
4895.17
4895.15
4895.12
4895.08
4895.05
4895.02
4895.01
4895.01
4895.01
4894.99
4894.96
4894.94
4894.94
4894.96
4894.98
4894.98
4894.97
4894.97
4895.02
4895.1
4895.15
4895.19
4895.24
4895.28
4895.22
4895.25
4895.37
4895.35
4895.32
4895.31
4895.28
4895.23
4895.18
4895.12
4895.08
4895.06
4895.05
4895.04
4895.02
4894.99
4894.97
4894.96
4894.98
4894.99
4894.99
4894.99
4895
4895.05
4895.09
4895.16
4895.21
4895.25
4895.31
4895.33
4895.33
4895.47
4895.45
4895.5
4895.47
4895.43
4895.39
4895.33
4895.27
4895.22
4895.19
4895.17
4895.15
4895.13
4895.09
4895.05
4895.03
4895.03
4895.03
4895.04
4895.03
4895.04
4895.09
4895.15
4895.16
4895.2
4895.28
4895.33
4895.36
4895.43
4895.53
4895.59
4895.55
4895.66
4895.62
4895.58
4895.55
4895.5
4895.45
4895.4
4895.35
4895.29
4895.23
4895.17
4895.11
4895.06
4895.04
4895.04
4895.03
4895.04
4895.07
4895.11
4895.16
4895.21
4895.21
4895.27
4895.38
4895.42
4895.43
4895.59
4895.69
4895.66
4895.71
4895.84
4895.82
4895.8
4895.77
4895.72
4895.64
4895.54
4895.43
4895.32
4895.22
4895.15
4895.1
4895.08
4895.07
4895.06
4895.05
4895.06
4895.12
4895.15
4895.15
4895.21
4895.27
4895.36
4895.46
4895.51
4895.59
4895.78
4895.82
4895.83
4895.85
4896.07
4896.08
4896.05
4895.99
4895.9
4895.77
4895.63
4895.5
4895.39
4895.31
4895.26
4895.22
4895.19
4895.15
4895.11
4895.1
4895.08
4895.12
4895.15
4895.15
4895.26
4895.43
4895.5
4895.56
4895.7
4895.87
4896
4896.02
4896.05
4896.05
4896.36
4896.35
4896.3
4896.21
4896.1
4895.96
4895.83
4895.7
4895.59
4895.51
4895.44
4895.37
4895.28
4895.19
4895.13
4895.15
4895.15
4895.19
4895.26
4895.33
4895.5
4895.7
4895.73
4895.8
4896.05
4896.2
4896.22
4896.25
4896.27
4896.35
4896.67
4896.66
4896.6
4896.5
4896.37
4896.22
4896.07
4895.93
4895.8
4895.67
4895.55
4895.43
4895.32
4895.25
4895.21
4895.3
4895.33
4895.36
4895.48
4895.63
4895.77
4895.92
4895.96
4896.13
4896.41
4896.45
4896.45
4896.51
4896.64
4896.69
4897.04
4897.03
4896.95
4896.81
4896.65
4896.49
4896.32
4896.16
4895.99
4895.82
4895.65
4895.51
4895.41
4895.43
4895.38
4895.45
4895.46
4895.48
4895.63
4895.82
4895.9
4896.06
4896.22
4896.46
4896.66
4896.67
4896.78
4896.93
4897.06
4897.04
4897.48
4897.42
4897.3
4897.16
4897.02
4896.86
4896.68
4896.47
4896.25
4896.04
4895.87
4895.74
4895.59
4895.63
4895.56
4895.55
4895.58
4895.67
4895.83
4896.02
4896.07
4896.32
4896.57
4896.75
4896.88
4897.01
4897.23
4897.38
4897.38
4897.46
4897.96
4897.86
4897.77
4897.67
4897.52
4897.33
4897.09
4896.84
4896.6
4896.37
4896.16
4896.03
4895.79
4895.76
4895.72
4895.66
4895.71
4895.86
4896.01
4896.18
4896.3
4896.63
4896.9
4897.03
4897.24
4897.53
4897.7
4897.75
4897.89
4898.06
4898.53
4898.48
4898.39
4898.25
4898.05
4897.8
4897.54
4897.26
4896.98
4896.69
4896.37
4896.24
4896.04
4895.87
4895.89
4895.8
4895.83
4896
4896.23
4896.39
4896.64
4897
4897.28
4897.49
4897.78
4898.1
4898.18
4898.36
4898.68
4898.72
4899.26
4899.19
4899.05
4898.89
4898.66
4898.37
4898.02
4897.66
4897.34
4897.07
4896.72
4896.43
4896.36
4896.03
4896.05
4896.06
4896.17
4896.26
4896.59
4896.75
4897.05
4897.41
4897.76
4898.12
4898.33
4898.65
4898.92
4899.18
4899.33
4899.31
4900.1
4900.02
4899.92
4899.7
4899.34
4898.95
4898.63
4898.28
4897.88
4897.51
4897.21
4896.71
4896.69
4896.44
4896.33
4896.29
4896.49
4896.55
4896.89
4897.13
4897.51
4897.91
4898.3
4898.76
4898.97
4899.29
4899.8
4900.02
4899.94
4899.98
4901.12
4901.11
4900.89
4900.52
4900.17
4899.83
4899.46
4898.96
4898.51
4898.01
4897.6
4897.18
4896.96
4896.7
4896.57
4896.54
4896.78
4896.91
4897.17
4897.51
4898.07
4898.53
4898.81
4899.22
4899.94
4900.28
4900.49
4900.82
4901.14
4901.07
4902.39
4902.22
4901.88
4901.66
4901.35
4900.72
4900.19
4899.68
4899.06
4898.52
4897.9
4897.7
4897.31
4896.85
4896.87
4896.94
4896.94
4897.18
4897.67
4898.06
4898.43
4899.03
4899.76
4900.06
4900.74
4901.34
4901.55
4901.98
4902.31
4902.17
4903.74
4903.53
4903.39
4902.95
4902.34
4901.82
4901.25
4900.47
4899.69
4899.49
4898.53
4897.84
4897.73
4897.31
4897.1
4897.19
4897.32
4897.67
4897.97
4898.48
4899.24
4899.76
4900.45
4901.29
4901.7
4902.32
4903.02
4903.46
4903.47
4903.24
4905.39
4905.34
4904.98
4904.23
4903.78
4903.16
4902.23
4901.62
4900.47
4899.66
4899.18
4898.36
4897.95
4897.55
4897.15
4897.41
4897.61
4897.81
4898.34
4899.02
4899.68
4900.68
4901.37
4902.2
4903.06
4903.83
4904.44
4904.92
4905.4
4904.79
4907.51
4907.21
4906.71
4906.07
4905.39
4904.57
4903.47
4902.56
4901.43
4900.37
4899.51
4898.63
4898.03
4897.48
4897.42
4897.54
4897.49
4898
4898.79
4899.57
4900.41
4901.39
4902.47
4903.62
4904.52
4905.24
4906.23
4906.78
4907.36
4906.97
4909.9
4908.16
4908.69
4908.23
4906.63
4906.04
4904.87
4903.72
4902.24
4901.16
4899.82
4898.74
4897.92
4897.45
4897.25
4897.18
4897.45
4897.99
4898.8
4899.81
4901.13
4902.37
4903.63
4904.92
4906
4906.64
4908.31
4908.66
4908.66
4909.54
4913.51
4912.68
4911.66
4910.71
4909.68
4908.21
4906.9
4904.87
4903.09
4901.77
4899.9
4898.84
4897.14
4896.39
4896.92
4896.9
4896.42
4897.14
4898.81
4900.01
4901.76
4903.06
4904.81
4906.82
4908.22
4909.71
4910.75
4911.68
4912.72
4913.27
4478.21
4323.87
4395.42
4307.26
4415.27
4344.04
4374.34
4283.24
4245.45
4256.66
4084.18
4166.27
4011.38
3969.11
4091.14
4088.95
3982.09
4009.47
4158.18
4101.63
4260.77
4242.73
4281.49
4369.97
4345.3
4420.81
4305.3
4392.43
4329.49
4477.33
1727.36
1265.7
1622.6
1192.78
1336.01
1069.22
1159.25
938.839
797.031
854.654
743.663
824.761
586.782
508.64
780.596
758.414
523.839
578.967
813.298
758.728
859.185
790.649
934.294
1152.61
1066.39
1350.06
1187.66
1628.33
1265.19
1726.46
5.15602
3.21223
4.40321
3.03578
0.793833
0.463795
0.129074
0.129775
0.19074
0.25104
0.161108
0.0552123
0.0783625
0.0373202
0.0471469
-0.00595743
0.0374173
0.0901589
0.055441
0.163502
0.214722
0.12768
0.0905895
0.109679
0.754685
0.858619
1.8033
4.57322
3.23735
5.43535
4.00742
3.11211
3.77734
4.86262
0.466393
0.273002
0.132836
0.12023
0.450178
0.320834
0.200603
0.115552
0.104905
0.012407
-0.00902097
-0.00538267
0.0286634
0.148718
0.0696468
0.162051
0.276247
0.281978
0.0683682
0.105105
0.290577
0.694623
6.15771
2.98259
3.08361
4.92589
0.216277
0.636357
0.873411
0.67615
0.0718461
0.293132
0.338286
0.0196945
0.0542919
0.0905396
0.197323
0.00750191
0.147733
0.0118541
-0.0126755
-0.00737342
0.0576968
0.200934
0.0186561
0.199674
0.0777129
0.0897678
0.0242662
0.38448
0.329567
0.146235
0.67773
1.1653
0.600966
0.200185
-0.0350792
0.00667509
0.142076
-0.0352903
-0.0330375
-0.0273017
-0.00851745
-0.0146836
-0.0142546
-0.00351746
0.0132704
-0.00412584
0.0240376
0.0436427
0.00176874
0.0025787
0.055918
0.0398082
0.008568
0.00915551
-0.0178628
-0.0160625
-0.016429
-0.00827978
-0.0292182
-0.0344298
-0.0369563
0.150039
0.00364609
-0.0363672
-0.0316889
-0.0299226
-0.0237007
-0.0296399
-0.029726
-0.0276533
-0.0256235
-0.0227227
-0.0158041
-0.0165299
-0.0194828
-0.00519395
0.0139856
0.0244506
0.0162497
0.0150403
0.016125
0.0120893
-0.000228485
-0.0188847
-0.017906
-0.0172025
-0.0235815
-0.026545
-0.0287227
-0.0309764
-0.0308454
-0.0259537
-0.0319625
-0.033387
-0.0286336
-0.0284114
-0.0277193
-0.0260523
-0.0254978
-0.0245374
-0.0228498
-0.0212812
-0.0197656
-0.018822
-0.0177582
-0.0143502
-0.0133069
-0.0107537
0.012063
0.0151768
-0.0123921
-0.0163828
-0.0160342
-0.0183526
-0.0191709
-0.0204664
-0.0221167
-0.023878
-0.0256297
-0.0264549
-0.0271955
-0.0292134
-0.0300126
-0.0303626
-0.0249361
-0.0246765
-0.0243594
-0.0233146
-0.0222977
-0.0212977
-0.0199587
-0.0186632
-0.0174531
-0.0163962
-0.0154989
-0.0147624
-0.0142492
-0.0139221
-0.0110003
-0.00930887
-0.0141707
-0.0146337
-0.0152643
-0.0160565
-0.0170196
-0.0182048
-0.0195579
-0.0209725
-0.0224268
-0.0235129
-0.0246555
-0.0257572
-0.0261761
-0.0265904
-0.0212158
-0.0210133
-0.0206875
-0.0199339
-0.0191306
-0.0181352
-0.0170472
-0.015972
-0.0149066
-0.0139068
-0.0130232
-0.0123077
-0.0118104
-0.0115126
-0.0114143
-0.0114981
-0.011749
-0.0121769
-0.0128023
-0.0135972
-0.0145567
-0.0156643
-0.0168653
-0.0180617
-0.0192457
-0.0203751
-0.0212785
-0.0220696
-0.0224372
-0.0227439
-0.0178568
-0.0176834
-0.0173528
-0.0167875
-0.0160457
-0.0151967
-0.0142806
-0.0133313
-0.0123745
-0.0114608
-0.0106222
-0.00990769
-0.00938017
-0.00904976
-0.00893346
-0.00901728
-0.00927908
-0.00973445
-0.0103842
-0.0111937
-0.0121215
-0.0131511
-0.0142291
-0.0152891
-0.0163074
-0.0172509
-0.0180623
-0.0186959
-0.0190705
-0.0193113
-0.0148823
-0.014747
-0.0144151
-0.0139284
-0.0132823
-0.0125309
-0.0117114
-0.0108621
-0.00999917
-0.00914793
-0.00836242
-0.00769858
-0.00718542
-0.00684561
-0.00671543
-0.00679603
-0.00706201
-0.00751727
-0.008163
-0.00894015
-0.00982031
-0.010772
-0.01175
-0.0126924
-0.0136111
-0.014439
-0.0151537
-0.0157048
-0.0160783
-0.0162844
-0.0122601
-0.012088
-0.0117939
-0.0113699
-0.0108061
-0.0101305
-0.00938589
-0.00860961
-0.00781537
-0.00702839
-0.00630753
-0.00569821
-0.00521789
-0.00488532
-0.00475575
-0.00483589
-0.00508996
-0.00552082
-0.00612956
-0.00686864
-0.00770071
-0.00858216
-0.0094814
-0.0103448
-0.0111658
-0.0119164
-0.0125583
-0.0130646
-0.0134047
-0.0135852
-0.0099016
-0.00975033
-0.00948696
-0.00910549
-0.00859492
-0.00798154
-0.00730559
-0.00658999
-0.00584988
-0.00512963
-0.00447462
-0.00391137
-0.00346551
-0.00316322
-0.00305133
-0.00313969
-0.00338575
-0.00378237
-0.00433977
-0.00502527
-0.00580483
-0.00662196
-0.00744333
-0.0082431
-0.00899973
-0.00969347
-0.0102705
-0.0107147
-0.0110136
-0.0111667
-0.00783862
-0.00769971
-0.00746501
-0.00712247
-0.00666051
-0.00610222
-0.00547856
-0.00481124
-0.00413107
-0.00348282
-0.00289322
-0.00238078
-0.00196847
-0.00169309
-0.00159652
-0.00167696
-0.00190136
-0.00226578
-0.00278218
-0.00342018
-0.00413922
-0.00489115
-0.00565478
-0.00640918
-0.00711294
-0.00773206
-0.00823912
-0.00863113
-0.00889906
-0.00903691
-0.00601613
-0.00589091
-0.005684
-0.00537243
-0.00495625
-0.0044471
-0.00387391
-0.00326597
-0.00265741
-0.0020783
-0.00154828
-0.00108834
-0.000720361
-0.000477275
-0.000393334
-0.000464072
-0.000671367
-0.00101499
-0.00149408
-0.00207993
-0.00273823
-0.00343167
-0.00413555
-0.00482092
-0.00545154
-0.00599885
-0.00645106
-0.0068036
-0.00704684
-0.0071752
-0.0044186
-0.00432193
-0.00414278
-0.0038671
-0.00349625
-0.00303301
-0.00251914
-0.00198105
-0.00144264
-0.000927134
-0.000457407
-5.39594e-05
0.00026491
0.000474282
0.000547841
0.000484027
0.000289968
-2.97061e-05
-0.000463345
-0.000988602
-0.00157886
-0.002202
-0.00283004
-0.00343674
-0.00399581
-0.00448507
-0.00489442
-0.00521709
-0.00544275
-0.00556241
-0.00305546
-0.00296393
-0.00280087
-0.00255564
-0.00222148
-0.00181741
-0.00137098
-0.000897052
-0.000424541
2.06925e-05
0.000423649
0.000771635
0.00104878
0.00123234
0.00129918
0.00124325
0.00106682
0.000778116
0.000392227
-7.37498e-05
-0.000597876
-0.0011517
-0.00170757
-0.00224462
-0.00274365
-0.00318624
-0.00356034
-0.00385589
-0.00406031
-0.00416358
-0.0018589
-0.00178854
-0.00164048
-0.00140877
-0.0010925
-0.000731786
-0.000330875
8.1006e-05
0.000471842
0.000839091
0.00118504
0.00149037
0.00172956
0.0018831
0.00193667
0.00188486
0.0017256
0.00146486
0.00111657
0.000695944
0.000223571
-0.000274081
-0.00077099
-0.00124926
-0.00169376
-0.0020889
-0.00242133
-0.00267995
-0.00285469
-0.00293973
-0.000888418
-0.000829786
-0.000667276
-0.000420276
-0.000123497
0.000202415
0.000551899
0.000884887
0.00119647
0.00150925
0.00181816
0.00208441
0.00227982
0.00239871
0.00243781
0.00238882
0.00224192
0.00199913
0.00167576
0.00129057
0.000864758
0.000421657
-1.66837e-05
-0.00043458
-0.000818975
-0.00115662
-0.0014365
-0.00165152
-0.00179691
-0.00186938
-5.51114e-05
4.96058e-06
0.000177399
0.000403363
0.00064763
0.000925193
0.00120905
0.0014747
0.00174014
0.00201879
0.00228615
0.00250266
0.00265373
0.00274378
0.00276963
0.00271828
0.00257855
0.00235466
0.00206409
0.00172551
0.00135583
0.000972775
0.000595444
0.000240367
-7.95824e-05
-0.00035525
-0.000582055
-0.000758396
-0.0008816
-0.000946558
0.000678802
0.000765909
0.000903719
0.00106394
0.00124822
0.00146578
0.00168615
0.00191036
0.00214822
0.002388
0.00260303
0.00277171
0.00289007
0.00295899
0.00297061
0.00291499
0.00278832
0.00259712
0.00235374
0.00206965
0.00175675
0.00143145
0.00111363
0.000820069
0.000560165
0.000336549
0.000148735
-2.3436e-06
-0.000111562
-0.000171491
0.00136819
0.0014501
0.00153327
0.00162353
0.00175141
0.00190645
0.00208048
0.00227825
0.00248472
0.0026788
0.00284761
0.00298239
0.00307673
0.00312454
0.0031202
0.00306294
0.00295542
0.00280126
0.00260444
0.00237053
0.00211027
0.00184007
0.00157742
0.00133431
0.00111515
0.000920455
0.000751859
0.000614399
0.000515352
0.000461171
0.00196369
0.00200963
0.00204556
0.00209418
0.00218297
0.00230099
0.00245244
0.0026246
0.00279249
0.00294512
0.0030795
0.00318589
0.00325274
0.00327542
0.00325678
0.00320252
0.00311482
0.00299197
0.002833
0.00264178
0.00242808
0.00220459
0.00198252
0.00176898
0.0015684
0.00138582
0.00122841
0.00110385
0.00101777
0.000972664
0.00238075
0.00241107
0.00242137
0.0024664
0.00254451
0.00265083
0.00278305
0.00292167
0.00305319
0.00317527
0.00328111
0.00335666
0.00339365
0.00339551
0.00337018
0.00332179
0.00324797
0.00314444
0.00301083
0.00285188
0.00267498
0.00248696
0.0022933
0.00209951
0.00191324
0.00174456
0.00160358
0.00149713
0.00142731
0.00139296
0.00265869
0.00266753
0.00268521
0.00274382
0.00282022
0.00291316
0.00301687
0.00312421
0.00323239
0.00333236
0.00340882
0.003452
0.00346446
0.00345495
0.00342763
0.00338092
0.0033104
0.00321555
0.00310047
0.00297059
0.002829
0.00267605
0.00251257
0.00234353
0.00217893
0.00203133
0.00191127
0.00182398
0.00176917
0.00174371
0.00282665
0.00282346
0.00286616
0.00292752
0.0029943
0.00306785
0.00314784
0.00323761
0.0033304
0.00340598
0.0034499
0.00346477
0.0034621
0.00344808
0.00341943
0.00337124
0.00330233
0.00321807
0.00312606
0.0030296
0.0029255
0.00280807
0.00267535
0.00253275
0.00239203
0.00226676
0.00216695
0.00209642
0.0020534
0.0020338
0.00293823
0.00295756
0.0030061
0.00305349
0.00310606
0.00316299
0.00322766
0.00330222
0.00337171
0.00341657
0.00343296
0.00343262
0.00342586
0.00341151
0.0033824
0.00333468
0.00327299
0.00320644
0.00314061
0.00307326
0.00299648
0.00290313
0.00279246
0.00267209
0.00255469
0.00245242
0.00237275
0.00231712
0.00228271
0.00226579
0.00306475
0.00310177
0.0031283
0.00315844
0.0031957
0.00323576
0.00328236
0.00333237
0.00337154
0.00339167
0.00339758
0.00339854
0.00339546
0.00338116
0.00335036
0.00330522
0.00325374
0.00320305
0.00315383
0.00310024
0.00303469
0.00295353
0.00285988
0.00276226
0.00267084
0.00259314
0.00253221
0.00248731
0.00245628
0.0024381
0.00318178
0.00319901
0.00320807
0.00322671
0.00324651
0.0032674
0.00329347
0.00331963
0.00333828
0.00335003
0.0033606
0.00336951
0.00336907
0.00335193
0.00331838
0.00327654
0.00323349
0.00319195
0.00314892
0.00309877
0.00303783
0.00296716
0.00289194
0.00281854
0.00275175
0.00269344
0.00264333
0.00260096
0.00256735
0.00254546
0.00322163
0.00322591
0.00323348
0.00324132
0.00324465
0.00325219
0.00326573
0.00327867
0.00328965
0.00330279
0.00331873
0.0033301
0.00332769
0.00330906
0.00327863
0.00324266
0.00320647
0.00316953
0.0031277
0.00307796
0.00302101
0.00296068
0.00290133
0.00284538
0.00279277
0.00274216
0.00269313
0.00264771
0.00261046
0.00258694
0.00321016
0.00321914
0.00322516
0.00322027
0.00321529
0.00321937
0.00322769
0.00323406
0.00324055
0.00325139
0.00326436
0.0032718
0.00326791
0.00325268
0.00323018
0.00320416
0.00317468
0.00313871
0.00309387
0.00304108
0.00298435
0.00292835
0.00287565
0.00282582
0.00277662
0.00272642
0.00267627
0.00263035
0.0025946
0.00257428
0.00318623
0.00319439
0.00318928
0.00317805
0.00317532
0.00317976
0.00318186
0.00317954
0.0031783
0.00318226
0.00318921
0.00319417
0.00319365
0.00318729
0.00317545
0.00315651
0.00312735
0.0030857
0.00303255
0.00297241
0.00291133
0.00285382
0.0028012
0.00275199
0.00270382
0.00265581
0.00260989
0.00257025
0.00254169
0.00252742
0.00313916
0.00313014
0.00311857
0.00311324
0.0031158
0.00311573
0.00310713
0.00309563
0.00308857
0.00308907
0.00309486
0.00310146
0.00310645
0.00310731
0.00310033
0.00308103
0.00304609
0.0029957
0.00293404
0.0028677
0.00280293
0.00274359
0.00269058
0.00264259
0.00259803
0.00255665
0.00251993
0.00249046
0.00247073
0.00246183
0.00305428
0.00303989
0.00303613
0.00304052
0.00304157
0.00303129
0.00301314
0.00299731
0.0029896
0.00298986
0.00299493
0.00300175
0.00300734
0.00300792
0.0029985
0.00297451
0.00293398
0.00287878
0.0028141
0.0027464
0.00268113
0.00262151
0.00256863
0.00252229
0.00248208
0.00244803
0.00242069
0.00240069
0.0023883
0.0023831
0.00296879
0.00296657
0.00297531
0.00298064
0.00297273
0.0029528
0.00293078
0.002915
0.00290704
0.00290402
0.00290297
0.00290228
0.00290044
0.0028942
0.00287901
0.00285109
0.00280917
0.00275519
0.00269313
0.00262774
0.00256322
0.00250277
0.00244855
0.00240202
0.00236411
0.00233518
0.00231489
0.00230215
0.00229545
0.00229324
0.00291283
0.00292371
0.00293281
0.00292818
0.00290979
0.00288611
0.00286548
0.00285003
0.00283718
0.0028243
0.00281071
0.00279712
0.00278456
0.00277051
0.0027506
0.00272161
0.00268194
0.00263216
0.00257426
0.00251155
0.00244767
0.00238619
0.00233051
0.00228363
0.00224744
0.00222234
0.00220714
0.00219956
0.00219697
0.00219714
0.00286824
0.002879
0.00287576
0.00285794
0.00283401
0.00281169
0.00279268
0.00277368
0.0027515
0.00272665
0.00270199
0.00267953
0.00265872
0.00263792
0.0026145
0.00258506
0.00254747
0.00250114
0.00244727
0.00238812
0.00232713
0.00226826
0.00221536
0.00217177
0.00213931
0.002118
0.00210612
0.00210095
0.00209967
0.00210028
0.00280012
0.00280107
0.00278603
0.00276142
0.00273679
0.00271528
0.00269423
0.00266986
0.0026408
0.0026088
0.00257736
0.00254901
0.00252304
0.00249761
0.00247002
0.00243786
0.00239975
0.00235551
0.00230622
0.00225388
0.0022012
0.00215126
0.00210724
0.00207135
0.00204452
0.00202624
0.00201489
0.00200834
0.0020048
0.00200332
0.0026963
0.00269198
0.00267168
0.00264735
0.0026242
0.00260088
0.00257435
0.0025435
0.00250995
0.00247662
0.00244495
0.0024151
0.0023853
0.00235371
0.002319
0.00228092
0.00224016
0.00219775
0.00215496
0.00211315
0.00207361
0.00203747
0.00200568
0.00197888
0.00195699
0.00193946
0.00192553
0.00191463
0.00190664
0.00190215
0.00256147
0.00255754
0.00254184
0.00252237
0.0025002
0.00247376
0.00244274
0.00240917
0.00237564
0.00234327
0.00231122
0.00227789
0.00224139
0.00220101
0.00215765
0.00211368
0.00207164
0.00203329
0.00199956
0.00197048
0.00194537
0.00192322
0.00190265
0.00188297
0.00186361
0.00184472
0.00182695
0.00181149
0.00179999
0.00179401
0.00240454
0.00240243
0.00239298
0.00237784
0.00235625
0.00232841
0.0022964
0.00226321
0.00223029
0.00219691
0.00216096
0.00212043
0.00207486
0.00202586
0.00197666
0.00193122
0.00189251
0.00186204
0.00183961
0.00182358
0.00181135
0.00180022
0.00178793
0.00177284
0.00175483
0.00173514
0.00171563
0.00169871
0.00168683
0.00168161
0.00222272
0.00222143
0.00221556
0.00220272
0.00218224
0.00215561
0.00212535
0.00209313
0.00205865
0.00202015
0.00197596
0.00192617
0.00187273
0.0018192
0.00177004
0.00172934
0.00169912
0.00167967
0.00166935
0.00166514
0.00166341
0.00166088
0.00165498
0.00164448
0.00162985
0.00161292
0.00159607
0.00158203
0.00157312
0.00157031
0.00201669
0.00201527
0.00201037
0.00199894
0.00198104
0.00195753
0.00192953
0.00189644
0.00185706
0.00181049
0.00175718
0.00169965
0.00164202
0.001589
0.00154481
0.00151245
0.0014927
0.00148411
0.00148402
0.00148899
0.00149547
0.00150027
0.00150139
0.00149814
0.00149118
0.0014826
0.00147362
0.00146644
0.00146278
0.00146262
0.0017922
0.00179084
0.0017868
0.00177808
0.00176416
0.00174433
0.00171707
0.00168092
0.0016354
0.00158137
0.00152169
0.00146076
0.00140358
0.00135468
0.00131728
0.00129272
0.00128054
0.00127874
0.00128452
0.0012949
0.00130703
0.00131863
0.00132827
0.00133531
0.00133998
0.00134314
0.00134645
0.00134849
0.00135073
0.00135279
0.00155462
0.00155433
0.00155245
0.00154741
0.00153724
0.0015193
0.00149124
0.00145198
0.00140272
0.00134613
0.00128632
0.00122818
0.00117616
0.00113343
0.00110173
0.00108139
0.00107162
0.00107079
0.00107716
0.00108875
0.00110384
0.00112105
0.00113927
0.00115754
0.00117508
0.00119101
0.00120488
0.00121705
0.00122499
0.00122861
0.001305
0.00130652
0.00130692
0.00130439
0.00129543
0.00127697
0.00124754
0.00120765
0.0011599
0.00110778
0.00105528
0.00100623
0.000963247
0.0009279
0.000900762
0.000881773
0.000870523
0.000866582
0.000869499
0.000878839
0.000894064
0.000914466
0.000939003
0.000966076
0.000994021
0.00102069
0.00104391
0.00106189
0.00107271
0.00107613
0.00104163
0.0010448
0.00104597
0.00104283
0.001032
0.00101169
0.000982165
0.000945516
0.000904756
0.000863128
0.000823405
0.000787341
0.000755793
0.000728984
0.000706803
0.00068916
0.000676191
0.000668494
0.000667099
0.000672716
0.000685808
0.000706062
0.000732357
0.000762936
0.000795448
0.000826968
0.000854449
0.000875149
0.000886782
0.000890213
0.000762985
0.000766098
0.000765967
0.000760223
0.000747111
0.00072669
0.000700403
0.000670874
0.000640887
0.000612661
0.00058743
0.000565238
0.000545619
0.000527911
0.00051169
0.000496977
0.00048445
0.000475379
0.000471352
0.000473716
0.000483289
0.00050009
0.000523221
0.000550984
0.00058095
0.000610185
0.000635623
0.000654452
0.000664432
0.000666842
0.000468167
0.000469537
0.000467669
0.00046108
0.00044944
0.000433438
0.00041483
0.000395794
0.000378145
0.000362969
0.000350425
0.000339763
0.000330108
0.000320632
0.00031091
0.000301086
0.000291939
0.000284676
0.000280691
0.000281182
0.000286904
0.000297978
0.0003138
0.000333125
0.000354167
0.000374666
0.00039236
0.000405271
0.000411764
0.0004129
0.000158144
0.000158191
0.000157053
0.00015414
0.000149423
0.000143362
0.00013669
0.000130227
0.000124558
0.000119987
0.000116394
0.000113431
0.000110659
0.000107738
0.00010451
0.000101064
9.77278e-05
9.49896e-05
9.34019e-05
9.34217e-05
9.53421e-05
9.92161e-05
0.000104821
0.000111692
0.000119161
0.000126424
0.000132666
0.000137181
0.000139347
0.000139491
4894.81
4894.81
4894.81
4894.8
4894.8
4894.8
4894.79
4894.79
4894.78
4894.78
4894.78
4894.77
4894.77
4894.77
4894.77
4894.77
4894.77
4894.78
4894.78
4894.78
4894.78
4894.78
4894.78
4894.78
4894.79
4894.79
4894.79
4894.79
4894.8
4894.81
4894.81
4894.81
4894.81
4894.8
4894.8
4894.8
4894.79
4894.79
4894.78
4894.78
4894.77
4894.77
4894.77
4894.77
4894.77
4894.77
4894.77
4894.78
4894.78
4894.78
4894.78
4894.78
4894.78
4894.78
4894.79
4894.79
4894.79
4894.79
4894.8
4894.79
4894.8
4894.8
4894.8
4894.8
4894.8
4894.79
4894.79
4894.79
4894.78
4894.78
4894.78
4894.77
4894.77
4894.77
4894.77
4894.77
4894.77
4894.77
4894.77
4894.77
4894.78
4894.78
4894.78
4894.78
4894.79
4894.79
4894.79
4894.79
4894.81
4894.8
4894.79
4894.79
4894.79
4894.79
4894.79
4894.79
4894.79
4894.79