/*--------------------------------*- C++ -*----------------------------------*\
| =========                 |                                                 |
| \\      /  F ield         | OpenFOAM: The Open Source CFD Toolbox           |
|  \\    /   O peration     | Version:  2312                                  |
|   \\  /    A nd           | Website:  www.openfoam.com                      |
|    \\/     M anipulation  |                                                 |
\*---------------------------------------------------------------------------*/
FoamFile
{
    version     2.0;
    format      ascii;
    arch        "LSB;label=32;scalar=64";
    class       surfaceScalarField;
    location    "1.1552399";
    object      phi;
}
// * * * * * * * * * * * * * * * * * * * * * * * * * * * * * * * * * * * * * //

dimensions      [0 3 -1 0 0 0 0];

oriented        oriented;

internalField   nonuniform List<scalar> 
263100
(
-2.09619e-09
4.19239e-09
-2.09619e-09
-1.91457e-11
-5.641e-10
-1.52058e-09
6.69521e-10
5.65343e-10
-1.26036e-09
1.11858e-09
5.55897e-10
-1.0118e-09
1.54655e-09
2.21885e-10
-6.57615e-10
2.021e-09
-2.04376e-10
-2.78906e-10
2.50379e-09
-6.07317e-10
1.14525e-10
2.93193e-09
-8.22092e-10
3.82838e-10
3.07949e-09
-7.44181e-10
5.84563e-10
2.79825e-09
-3.67454e-10
6.35855e-10
2.13312e-09
1.63556e-10
4.88141e-10
1.1656e-09
7.71239e-10
1.8232e-10
1.30412e-10
1.20686e-09
-1.86134e-10
-6.35235e-10
1.33597e-09
-5.85273e-10
-8.79117e-10
1.12584e-09
-8.97353e-10
-5.01044e-10
6.40504e-10
-1.03423e-09
3.99211e-10
4.91822e-12
-9.20906e-10
1.44908e-09
-4.61432e-10
-6.04093e-10
2.11505e-09
-6.41891e-10
-3.94777e-11
2.01925e-09
-3.59177e-10
4.40015e-10
9.47053e-10
3.00386e-10
7.57432e-10
-1.169e-09
1.24032e-09
8.62018e-10
-3.96133e-09
2.05075e-09
7.28604e-10
-6.69374e-09
2.33642e-09
3.83841e-10
-8.36609e-09
1.72866e-09
-6.75508e-11
-7.91972e-09
1.80044e-10
-6.36715e-10
-4.7006e-09
-2.05658e-09
-1.17186e-09
2.37899e-09
-4.39329e-09
-2.69466e-09
1.20478e-08
-6.0284e-09
-3.64805e-09
3.31153e-08
-2.10746e-08
-7.50185e-12
4.19974e-09
-7.50185e-12
-1.19384e-10
-4.52629e-10
-1.27036e-11
-2.50512e-10
6.94954e-10
-1.12572e-11
-2.89579e-10
6.17349e-10
-3.6529e-11
-1.94438e-10
1.13811e-10
-3.04233e-12
4.89493e-11
-4.93186e-10
2.74867e-11
4.42256e-10
-1.06207e-09
4.15849e-11
9.47391e-10
-1.38514e-09
3.62854e-11
1.5001e-09
-1.34083e-09
2.08883e-11
2.00348e-09
-9.31541e-10
3.64196e-11
2.38987e-09
-3.60562e-10
1.12387e-10
2.64619e-09
2.55402e-10
2.33211e-10
2.76631e-09
6.59841e-10
3.99673e-10
2.71522e-09
6.91456e-10
6.67622e-10
2.45619e-09
4.09557e-10
9.4686e-10
1.91832e-09
-5.39049e-12
1.15512e-09
1.1811e-09
-5.29805e-10
1.2434e-09
3.93595e-10
-8.75158e-10
1.1731e-09
-4.00014e-10
-8.00416e-10
9.24737e-10
-1.17091e-09
-1.98446e-10
5.83746e-10
-1.80793e-09
6.18743e-10
2.93401e-10
-2.37315e-09
1.69257e-09
8.90221e-11
-2.84322e-09
2.454e-09
4.43823e-11
-2.9884e-09
2.32753e-09
1.33258e-10
-2.89478e-09
1.15623e-09
4.59677e-10
-2.97371e-09
-8.82314e-10
1.12382e-09
-3.19634e-09
-3.88517e-09
2.0353e-09
-3.51157e-10
-1.10099e-08
3.75675e-09
9.33353e-09
-2.20461e-08
6.31905e-09
3.91734e-08
3.26379e-09
6.06817e-10
2.97977e-09
6.06817e-10
-3.90693e-10
3.12971e-10
2.19348e-10
-9.63755e-10
1.13126e-09
1.24743e-10
-1.37251e-09
9.74412e-10
3.86384e-11
-1.69784e-09
4.93804e-10
-6.91349e-11
-1.78559e-09
-2.01405e-10
-2.20073e-10
-1.57955e-09
-8.71108e-10
-4.14596e-10
-1.01999e-09
-1.39155e-09
-5.72296e-10
-1.05362e-10
-1.63559e-09
-6.40357e-10
1.11342e-09
-1.58436e-09
-5.87718e-10
2.4666e-09
-1.34646e-09
-3.90199e-10
3.74026e-09
-1.02571e-09
-1.64556e-11
4.62156e-09
-6.88151e-10
4.41974e-10
4.83022e-09
-3.83203e-10
8.40676e-10
4.17957e-09
-1.48725e-10
1.18319e-09
2.80385e-09
2.80139e-11
1.3164e-09
9.183e-10
1.6914e-10
1.1608e-09
-1.05924e-09
3.28471e-10
7.48494e-10
-2.58793e-09
5.3797e-10
1.65492e-10
-3.29587e-09
8.16157e-10
-3.3064e-10
-3.08693e-09
1.15757e-09
-7.70695e-10
-1.90469e-09
1.47606e-09
-9.87415e-10
-9.90458e-11
1.53863e-09
-9.10586e-10
1.87374e-09
9.58718e-10
-6.22902e-10
3.5916e-09
-2.15634e-10
-3.63626e-10
4.44369e-09
-1.55739e-09
-1.93552e-10
2.40066e-09
-2.31259e-09
4.54766e-10
-3.54365e-09
-7.65947e-09
2.5787e-09
-2.66077e-09
-2.95512e-08
6.60719e-09
2.40696e-08
1.24302e-08
8.22215e-10
1.32862e-09
8.22215e-10
-3.85264e-10
1.07444e-09
4.32402e-10
-1.12042e-09
1.53086e-09
3.22803e-10
-1.71774e-09
1.4101e-09
1.4813e-10
-2.21694e-09
9.97457e-10
-1.9001e-11
-2.58068e-09
3.58836e-10
-2.12362e-10
-2.62169e-09
-3.75425e-10
-4.71879e-10
-2.26213e-09
-1.07561e-09
-6.94248e-10
-1.44248e-09
-1.66946e-09
-8.06001e-10
-1.92606e-10
-2.07043e-09
-7.85518e-10
1.31107e-09
-2.25233e-09
-6.2082e-10
2.76459e-09
-2.17292e-09
-3.30382e-10
3.78388e-09
-1.77697e-09
4.46377e-11
4.10629e-09
-1.02078e-09
2.89678e-10
3.56497e-09
-4.23555e-11
4.09102e-10
2.23884e-09
1.02195e-09
3.06268e-10
4.30711e-10
1.93922e-09
1.23003e-11
-1.39775e-09
2.4979e-09
-3.66336e-10
-2.65244e-09
2.55772e-09
-7.8981e-10
-2.8963e-09
2.17451e-09
-1.13836e-09
-1.91852e-09
1.50983e-09
-1.35273e-09
1.19634e-10
8.14708e-10
-1.39816e-09
2.71603e-09
1.5167e-10
-1.22943e-09
5.10241e-09
-5.18337e-10
-9.28143e-10
6.70295e-09
-1.27944e-09
-5.5468e-10
7.91325e-09
-2.16479e-09
-6.20328e-10
9.53509e-09
-1.74803e-09
-2.20361e-09
3.55561e-09
1.26279e-09
-2.95999e-09
-7.77868e-09
-1.58611e-08
-2.37308e-09
1.20945e-08
4.18194e-09
9.82446e-10
-6.43685e-10
9.82446e-10
5.2503e-12
1.34689e-09
6.8987e-10
-6.32742e-10
1.54361e-09
6.11595e-10
-1.15858e-09
1.44661e-09
4.75262e-10
-1.67715e-09
1.20805e-09
2.93244e-10
-2.11791e-09
7.25858e-10
5.79804e-11
-2.41862e-09
1.19944e-11
-1.03657e-10
-2.49212e-09
-7.8356e-10
-2.3704e-10
-2.23456e-09
-1.55173e-09
-3.95357e-10
-1.65139e-09
-2.23326e-09
-4.42014e-10
-8.44421e-10
-2.66683e-09
-4.15561e-10
9.65404e-12
-2.70249e-09
-3.48713e-10
7.30698e-10
-2.21761e-09
-3.05436e-10
1.15233e-09
-1.14713e-09
-3.20852e-10
1.17462e-09
3.51227e-10
-4.41685e-10
7.63586e-10
2.02163e-09
-6.14404e-10
7.00654e-11
3.38857e-09
-7.81322e-10
-6.01235e-10
4.05969e-09
-9.1549e-10
-8.59589e-10
3.80952e-09
-1.01769e-09
-4.25836e-10
2.79513e-09
-1.07755e-09
7.38251e-10
1.43129e-09
-1.10745e-09
2.50983e-09
1.13907e-10
-1.09132e-09
4.48916e-09
-8.17601e-10
-1.0294e-09
6.11802e-09
-1.22792e-09
-9.37779e-10
6.73745e-09
-1.0986e-09
-8.1832e-10
6.10901e-09
-1.02931e-09
-5.24958e-10
5.7708e-09
-7.34565e-10
-6.93251e-10
4.01674e-09
4.89763e-09
-1.89888e-09
-4.88344e-09
-3.39151e-09
-3.58755e-09
8.23623e-09
-1.04013e-09
8.33943e-10
-2.31974e-09
8.33943e-10
4.08893e-10
1.02743e-09
7.28186e-10
3.29434e-10
8.97946e-10
7.10354e-10
2.20382e-10
8.815e-10
6.5926e-10
-1.6468e-11
8.43833e-10
5.85854e-10
-3.85781e-10
5.87064e-10
4.92095e-10
-8.74294e-10
7.90608e-11
4.04463e-10
-1.46591e-09
-5.62935e-10
3.52635e-10
-2.10481e-09
-1.24423e-09
3.11579e-10
-2.68761e-09
-1.91251e-09
2.4074e-10
-3.09136e-09
-2.36452e-09
7.88098e-11
-3.2507e-09
-2.46394e-09
-1.02842e-10
-3.08105e-09
-2.0558e-09
-3.55796e-10
-2.55026e-09
-1.08851e-09
-6.14142e-10
-1.73946e-09
3.25591e-10
-8.09976e-10
-7.79963e-10
1.94899e-09
-9.11478e-10
1.8164e-10
3.25483e-09
-8.52061e-10
1.06289e-09
3.84071e-09
-6.85796e-10
1.86751e-09
3.44978e-09
-4.67477e-10
2.6125e-09
2.30062e-09
-2.71961e-10
3.36026e-09
8.40572e-10
-1.7732e-10
4.09355e-09
-4.42945e-10
-1.95653e-10
4.70689e-09
-1.12971e-09
-3.1964e-10
5.01317e-09
-1.01281e-09
-5.39302e-10
4.81096e-09
-1.47142e-11
-8.99366e-10
3.21598e-09
1.74486e-09
-1.19683e-09
9.84044e-10
2.71004e-09
-1.23034e-09
2.82313e-10
8.12344e-09
-2.54172e-09
-3.59957e-09
5.03694e-09
-4.56413e-09
7.56636e-09
-2.9441e-09
1.84511e-10
-2.69782e-09
1.84511e-10
8.3912e-10
7.89907e-11
2.75784e-10
1.49445e-09
-9.29587e-11
3.19311e-10
2.04678e-09
-4.03878e-11
3.53332e-10
2.36216e-09
7.86424e-11
4.3355e-10
2.28792e-09
1.26557e-10
5.18035e-10
1.70746e-09
3.45485e-11
6.07674e-10
6.29085e-10
-1.9566e-10
6.92947e-10
-8.80813e-10
-4.90256e-10
7.36786e-10
-2.6303e-09
-8.55931e-10
6.72797e-10
-4.32992e-09
-1.18242e-09
4.96539e-10
-5.53593e-09
-1.41325e-09
1.33708e-10
-5.93812e-09
-1.41889e-09
-2.56786e-10
-5.39052e-09
-1.09252e-09
-5.65872e-10
-3.97272e-09
-4.10313e-10
-7.04089e-10
-1.93546e-09
5.00208e-10
-6.10359e-10
3.02228e-10
1.3183e-09
-3.22479e-10
2.31319e-09
1.70147e-09
1.07716e-10
3.81831e-09
1.47993e-09
4.44999e-10
4.64079e-09
7.16711e-10
7.42507e-10
4.7833e-09
-2.79161e-10
9.5896e-10
4.38219e-09
-1.00963e-09
9.49982e-10
3.58315e-09
-1.10523e-09
7.5701e-10
2.38862e-09
-3.01838e-10
4.6623e-10
1.06394e-09
1.33428e-09
-4.14452e-11
-4.76597e-10
4.04595e-09
-7.77515e-10
-2.67976e-09
6.30758e-09
-1.41117e-09
-2.09114e-09
9.74849e-09
-2.23036e-09
-2.86331e-09
8.70102e-09
-2.90855e-09
6.30316e-09
-1.61388e-09
-8.91612e-10
-9.24804e-10
-8.91612e-10
8.70254e-10
-1.17169e-09
-5.31053e-10
2.37555e-09
-1.15469e-09
-4.6155e-10
3.71384e-09
-1.011e-09
-3.8549e-10
4.67853e-09
-6.90602e-10
-2.1299e-10
5.02956e-09
-2.62872e-10
2.09166e-11
4.5692e-09
1.99365e-10
2.78121e-10
3.24535e-09
6.17379e-10
4.93388e-10
1.19463e-09
9.34767e-10
6.08144e-10
-1.30027e-09
1.04921e-09
5.72085e-10
-3.78086e-09
8.76476e-10
4.03868e-10
-5.6809e-09
3.40379e-10
1.28444e-10
-6.62378e-09
-4.30967e-10
-6.31455e-11
-6.32277e-09
-1.16206e-09
-2.49604e-10
-4.87233e-09
-1.63632e-09
-2.42391e-10
-2.61247e-09
-1.78979e-09
1.25157e-11
-3.13617e-11
-1.62064e-09
3.40694e-10
2.34449e-09
-1.43017e-09
7.39159e-10
3.99876e-09
-1.35945e-09
1.16882e-09
4.69745e-09
-1.55442e-09
1.55624e-09
4.46983e-09
-1.82476e-09
1.75689e-09
3.51465e-09
-1.84286e-09
1.77185e-09
2.02672e-09
-1.27202e-09
1.63801e-09
1.53058e-10
1.47702e-10
1.40743e-09
-1.81856e-09
2.24168e-09
1.04769e-09
-3.11787e-09
4.90617e-09
4.2279e-10
-4.10246e-09
7.31062e-09
-3.46201e-11
-2.73033e-09
8.58994e-09
-2.2965e-10
-1.22099e-09
7.16121e-09
1.44286e-11
3.8391e-09
1.22975e-09
-1.79817e-09
2.66008e-09
-1.79817e-09
8.64249e-10
-2.50868e-09
-1.34633e-09
2.99318e-09
-2.02795e-09
-1.27468e-09
4.84908e-09
-1.82224e-09
-1.06334e-09
6.22394e-09
-1.30835e-09
-7.75191e-10
6.88758e-09
-5.00549e-10
-4.43323e-10
6.61728e-09
5.81384e-10
-1.28271e-10
5.38403e-09
1.79375e-09
4.1251e-11
3.35626e-09
2.77713e-09
1.70608e-10
8.52954e-10
3.3158e-09
2.22653e-10
-1.64237e-09
3.14248e-09
2.15803e-10
-3.66786e-09
2.16978e-09
1.82883e-10
-4.86955e-09
5.27901e-10
2.29749e-10
-5.11015e-09
-1.28936e-09
3.54953e-10
-4.43211e-09
-2.86332e-09
5.36174e-10
-3.02682e-09
-3.93077e-09
7.23104e-10
-1.26631e-09
-4.40087e-09
1.00727e-09
3.98639e-10
-4.40317e-09
1.29555e-09
1.71451e-09
-4.18958e-09
1.50139e-09
2.42631e-09
-3.88822e-09
1.60847e-09
2.42399e-09
-3.45505e-09
1.61831e-09
1.71087e-09
-2.75509e-09
1.61043e-09
4.68264e-10
-1.6158e-09
1.57107e-09
-1.01908e-09
1.62715e-10
1.45687e-09
-2.50708e-09
2.42509e-09
1.28908e-09
-3.20655e-09
4.47196e-09
1.11813e-09
-2.80896e-09
5.66137e-09
1.23606e-09
-9.11257e-10
4.97315e-09
1.70347e-09
5.94691e-10
3.08679e-09
2.55296e-09
1.64288e-09
2.77815e-09
-2.00774e-09
6.66342e-09
-2.00774e-09
9.91034e-10
-4.13112e-09
-1.39617e-09
3.2473e-09
-3.13101e-09
-1.17125e-09
5.11876e-09
-2.87661e-09
-8.34586e-10
6.40266e-09
-2.13294e-09
-4.75935e-10
6.96031e-09
-9.11072e-10
-1.62552e-10
6.73156e-09
7.50921e-10
4.51448e-11
5.84259e-09
2.50234e-09
1.67852e-10
4.46012e-09
3.97262e-09
1.75893e-10
2.80828e-09
4.73058e-09
2.27252e-10
1.12414e-09
4.44895e-09
3.6882e-10
-3.92086e-10
3.08515e-09
5.9262e-10
-1.67887e-09
9.54041e-10
8.52785e-10
-2.67896e-09
-1.4324e-09
1.13552e-09
-3.34965e-09
-3.55942e-09
1.35931e-09
-3.65862e-09
-5.11025e-09
1.48091e-09
-3.52998e-09
-5.9341e-09
1.39674e-09
-2.95044e-09
-6.15122e-09
1.16006e-09
-2.10554e-09
-5.93734e-09
8.93536e-10
-1.27464e-09
-5.40992e-09
6.80473e-10
-7.00609e-10
-4.59834e-09
5.58028e-10
-5.41479e-10
-3.42202e-09
4.95893e-10
-8.08153e-10
-1.81092e-09
4.49406e-10
-1.24855e-09
1.7301e-10
4.17263e-10
-1.49035e-09
2.217e-09
4.36556e-10
-1.00937e-09
3.33672e-09
6.40448e-10
2.39511e-10
3.16343e-09
1.23492e-09
1.44476e-09
1.90934e-09
1.84429e-09
1.24244e-09
1.1702e-09
2.10476e-09
1.67983e-09
1.19397e-09
-7.14524e-10
8.08111e-09
-7.14524e-10
1.47714e-09
-6.38436e-09
4.60666e-11
2.84433e-09
-4.77184e-09
2.59538e-10
3.75682e-09
-4.26663e-09
4.6409e-10
4.19386e-09
-3.24612e-09
6.63551e-10
4.18052e-09
-1.6711e-09
7.62026e-10
3.91761e-09
2.79966e-10
7.23922e-10
3.62345e-09
2.24477e-09
5.4335e-10
3.43246e-09
3.76304e-09
3.93684e-10
3.28498e-09
4.52071e-09
3.5185e-10
3.02362e-09
4.20759e-09
4.98346e-10
2.40032e-09
2.90489e-09
8.00028e-10
1.23429e-09
1.00528e-09
1.11188e-09
-5.29513e-10
-9.29047e-10
1.25795e-09
-2.55205e-09
-2.78438e-09
1.2451e-09
-4.46711e-09
-4.15158e-09
9.53724e-10
-5.80634e-09
-5.04825e-09
4.50137e-10
-6.27772e-09
-5.57875e-09
-1.05108e-10
-5.90181e-09
-5.81432e-09
-5.03781e-10
-4.89671e-09
-5.63931e-09
-7.81323e-10
-3.62452e-09
-4.93591e-09
-9.40838e-10
-2.45964e-09
-3.68441e-09
-9.09225e-10
-1.56246e-09
-1.89461e-09
-8.20846e-10
-7.10026e-10
-3.52317e-11
-6.52375e-10
3.01874e-10
1.52341e-09
-3.27422e-10
1.51502e-09
1.99417e-09
1.19506e-10
2.46376e-09
1.70462e-09
4.99629e-10
2.19325e-09
1.53641e-09
6.32743e-10
7.90876e-10
2.55903e-09
2.81664e-12
3.03843e-09
-5.76181e-10
1.58381e-09
4.90501e-09
1.58381e-09
1.56939e-09
-8.30084e-09
1.92293e-09
1.03263e-09
-6.53258e-09
2.29021e-09
1.47232e-10
-5.64766e-09
2.25957e-09
-8.3673e-10
-4.3328e-09
2.06422e-09
-1.56835e-09
-2.52195e-09
1.57683e-09
-1.74443e-09
-4.75228e-10
9.26515e-10
-1.11073e-09
1.28882e-09
3.18579e-10
1.86868e-10
2.57871e-09
-1.15811e-10
1.76048e-09
3.19565e-09
-2.4984e-10
3.06531e-09
3.09726e-09
-1.94638e-10
3.44093e-09
2.59024e-09
-6.00494e-11
2.60743e-09
1.84011e-09
4.69103e-13
7.04268e-10
1.05439e-09
-7.79151e-11
-1.96077e-09
2.6879e-10
-3.85654e-10
-4.6843e-09
-5.56569e-10
-8.69291e-10
-6.79621e-09
-1.52257e-09
-1.41206e-09
-7.78434e-09
-2.71533e-09
-1.87398e-09
-7.56444e-09
-3.80111e-09
-2.23207e-09
-6.40801e-09
-4.48266e-09
-2.31217e-09
-4.76886e-09
-4.45308e-09
-2.1212e-09
-3.00061e-09
-3.66611e-09
-1.78607e-09
-1.28001e-09
-2.25901e-09
-1.35639e-09
4.20262e-10
-8.42321e-10
-8.94283e-10
2.07041e-09
2.63887e-10
-3.92655e-10
3.24022e-09
7.61124e-10
6.04672e-11
3.32459e-09
1.34616e-09
2.70831e-10
2.09753e-09
2.74348e-09
1.64577e-11
7.07915e-10
4.30473e-09
-3.5959e-10
3.66195e-09
8.27454e-11
3.9169e-09
-2.93249e-09
3.9169e-09
5.84846e-10
-8.53948e-09
3.57214e-09
-2.36425e-09
-6.81886e-09
3.2364e-09
-5.04798e-09
-5.46126e-09
2.49825e-09
-7.25303e-09
-3.73114e-09
1.60407e-09
-8.45508e-09
-1.85041e-09
5.31145e-10
-8.28764e-09
-2.68887e-10
-3.73044e-10
-6.70482e-09
8.02585e-10
-1.09543e-09
-3.99694e-09
1.49471e-09
-1.62204e-09
-8.68052e-10
1.83568e-09
-1.76605e-09
1.69341e-09
2.23612e-09
-1.69634e-09
2.97128e-09
2.94768e-09
-1.63023e-09
2.70908e-09
3.82256e-09
-1.71422e-09
1.12735e-09
4.65281e-09
-2.01011e-09
-1.20738e-09
5.04646e-09
-2.43622e-09
-3.58993e-09
4.68367e-09
-2.85103e-09
-5.35937e-09
3.40741e-09
-3.15383e-09
-6.18351e-09
1.39148e-09
-3.27559e-09
-5.98847e-09
-8.24917e-10
-3.16351e-09
-5.08178e-09
-2.55215e-09
-2.82884e-09
-3.7673e-09
-3.42499e-09
-2.33376e-09
-2.18003e-09
-3.42925e-09
-1.81521e-09
-3.86625e-10
-2.74072e-09
-1.30297e-09
1.43571e-09
-1.85988e-09
-7.96348e-10
2.97618e-09
-9.5842e-10
-3.09947e-10
3.72562e-09
-5.69951e-11
7.68066e-11
3.35194e-09
1.48916e-09
2.38884e-10
2.32193e-09
3.49762e-09
2.84438e-10
1.51758e-09
4.38865e-09
7.29746e-10
3.76405e-09
1.42584e-09
4.18916e-09
-1.13088e-08
4.18916e-09
-1.87401e-09
-4.67766e-09
2.21207e-09
-6.6452e-09
-3.41937e-09
1.38082e-09
-1.02976e-08
-1.93962e-09
1.39121e-10
-1.28605e-08
-4.24728e-10
-7.36099e-10
-1.37703e-08
6.87771e-10
-1.62182e-09
-1.28664e-08
1.26099e-09
-2.42786e-09
-1.02458e-08
1.01468e-09
-2.82709e-09
-6.57458e-09
6.66696e-10
-2.83739e-09
-2.79056e-09
7.60231e-10
-2.70218e-09
1.57444e-10
1.82802e-09
-2.53282e-09
1.91127e-09
3.7039e-09
-2.50223e-09
2.26277e-09
6.16867e-09
-2.68925e-09
1.59029e-09
8.29931e-09
-2.96539e-09
3.97676e-10
9.42918e-09
-3.18128e-09
-8.16401e-10
9.1781e-09
-3.27115e-09
-1.72228e-09
7.48869e-09
-3.16533e-09
-2.21972e-09
4.7337e-09
-2.83334e-09
-2.42081e-09
1.75514e-09
-2.36594e-09
-2.37085e-09
-6.87059e-10
-1.90048e-09
-2.07317e-09
-2.14297e-09
-1.56381e-09
-1.37405e-09
-2.77861e-09
-1.3327e-09
-2.21018e-10
-2.6931e-09
-1.18244e-09
1.1827e-09
-2.17134e-09
-1.07277e-09
2.34048e-09
-1.14925e-09
-9.46108e-10
2.8e-09
3.42121e-10
-8.36349e-10
2.65521e-09
2.42687e-09
-7.69019e-10
2.47946e-09
4.05126e-09
-3.52143e-10
1.66794e-09
4.84177e-09
3.86238e-10
5.65931e-09
-2.00387e-10
1.41402e-09
-1.41296e-08
1.41402e-09
-5.23521e-09
2.78867e-09
-7.98805e-10
-9.97145e-09
2.85344e-09
-1.5207e-09
-1.3187e-08
3.71493e-09
-2.42436e-09
-1.48984e-08
4.37072e-09
-3.07099e-09
-1.48413e-08
3.95222e-09
-3.31007e-09
-1.29496e-08
2.54255e-09
-3.16328e-09
-9.85421e-09
7.37937e-10
-2.8099e-09
-6.36241e-09
-5.30529e-10
-2.28671e-09
-3.19883e-09
-5.13296e-10
-1.88272e-09
-8.07356e-10
1.12322e-09
-1.67985e-09
7.27904e-10
3.94028e-09
-1.76528e-09
1.67119e-09
7.23522e-09
-2.00393e-09
2.23843e-09
9.92191e-09
-2.18421e-09
2.5884e-09
1.12279e-08
-2.1429e-09
2.76393e-09
1.08769e-08
-1.86753e-09
2.64409e-09
8.98158e-09
-1.3646e-09
2.07192e-09
6.10475e-09
-7.88109e-10
1.08833e-09
3.13158e-09
-3.79475e-10
-1.38697e-10
7.70753e-10
-2.14694e-10
-1.13176e-09
-7.62277e-10
-3.68664e-10
-1.5469e-09
-1.58695e-09
-7.54395e-10
-1.22096e-09
-1.80701e-09
-1.18636e-09
-4.46073e-10
-1.36938e-09
-1.54733e-09
3.86714e-10
-1.1418e-10
-1.83428e-09
8.42046e-10
1.98946e-09
-2.06487e-09
1.08041e-09
4.2641e-09
-2.03351e-09
9.84505e-10
5.96176e-09
-1.76846e-09
4.02611e-11
7.79942e-09
-1.96377e-09
8.46312e-09
-2.71784e-09
-1.94655e-09
-1.02251e-08
-1.94655e-09
-7.15501e-09
1.17092e-08
-3.68883e-09
-1.03231e-08
9.83166e-09
-3.78937e-09
-1.19856e-08
9.30088e-09
-3.90421e-09
-1.21014e-08
8.03949e-09
-3.53608e-09
-1.07825e-08
5.56305e-09
-2.91539e-09
-8.61416e-09
2.44428e-09
-2.05874e-09
-6.29997e-09
-3.76584e-10
-1.19131e-09
-4.29039e-09
-2.01782e-09
-5.1704e-10
-2.82698e-09
-1.74723e-09
-2.27183e-10
-1.7944e-09
4.03018e-10
-3.12964e-10
-6.8663e-10
3.49639e-09
-6.6708e-10
7.68143e-10
6.82104e-09
-1.04591e-09
2.51552e-09
9.29575e-09
-1.12769e-09
4.21159e-09
1.0393e-08
-8.67607e-10
5.36634e-09
1.00208e-08
-3.04006e-10
5.64112e-09
8.42833e-09
2.75359e-10
4.75085e-09
6.24751e-09
7.47475e-10
2.93615e-09
4.08837e-09
8.61591e-10
8.0997e-10
2.28742e-09
6.17639e-10
-8.63849e-10
8.4517e-10
7.98057e-11
-1.80185e-09
-2.96723e-10
-3.32552e-10
-1.94754e-09
-9.5945e-10
-6.75089e-10
-1.72392e-09
-6.45719e-10
-9.12706e-10
-1.57003e-09
9.24986e-10
-1.15021e-09
-1.47279e-09
3.25746e-09
-1.31393e-09
-1.3585e-09
5.54841e-09
-1.33931e-09
-1.58106e-09
7.80628e-09
-1.55592e-09
-1.60563e-09
1.00217e-08
-2.12666e-09
8.18551e-09
-1.26388e-09
-4.20386e-09
-1.80307e-09
-4.20386e-09
-6.40789e-09
1.82893e-08
-4.35148e-09
-7.29146e-09
1.45374e-08
-3.7993e-09
-7.03456e-09
1.2334e-08
-3.26917e-09
-5.84046e-09
9.23213e-09
-2.36938e-09
-4.23479e-09
5.31313e-09
-1.34293e-09
-2.85384e-09
1.46097e-09
-3.90591e-10
-2.24609e-09
-1.15569e-09
1.72196e-10
-2.31391e-09
-2.33876e-09
3.82765e-10
-2.7566e-09
-1.44095e-09
1.23604e-10
-2.80641e-09
8.53023e-10
-4.19542e-10
-1.9279e-09
3.60296e-09
-1.01024e-09
-2.32616e-11
6.08999e-09
-1.20322e-09
2.45394e-09
7.81688e-09
-1.03072e-09
4.77838e-09
8.56221e-09
-5.27002e-10
6.19821e-09
8.46249e-09
1.05828e-10
6.32897e-09
7.74357e-09
5.23594e-10
5.18722e-09
6.67163e-09
6.90812e-10
3.3207e-09
5.35494e-09
5.78254e-10
1.44024e-09
3.82482e-09
3.28201e-10
1.13171e-10
2.05864e-09
1.07422e-10
-5.72396e-10
2.88441e-10
1.04699e-10
-1.04704e-09
-8.15382e-10
3.46932e-10
-1.64102e-09
-6.68996e-10
6.46917e-10
-2.30217e-09
8.18752e-10
8.111e-10
-2.7677e-09
2.85958e-09
9.21006e-10
-2.92112e-09
4.83935e-09
9.32612e-10
-2.71812e-09
6.82157e-09
8.62015e-10
-1.12971e-09
7.3827e-09
1.13841e-09
4.2004e-09
2.93403e-09
-3.99993e-09
6.21223e-09
-3.99993e-09
-3.4526e-09
2.0899e-08
-3.13756e-09
-2.72628e-09
1.6449e-08
-2.61878e-09
-1.49923e-09
1.31282e-08
-2.00504e-09
-1.10396e-10
9.14363e-09
-1.28978e-09
8.85766e-10
4.94931e-09
-6.29493e-10
1.00621e-09
1.58223e-09
-2.48677e-10
1.68343e-10
-1.67815e-10
-1.67969e-10
-1.32604e-09
-3.71317e-10
-5.02963e-10
-2.57356e-09
7.09472e-10
-9.4473e-10
-2.88435e-09
2.40514e-09
-1.29444e-09
-1.90851e-09
3.88579e-09
-1.32171e-09
8.45213e-11
5.06273e-09
-1.0366e-09
2.43677e-09
5.8275e-09
-4.39034e-10
4.32102e-09
6.39643e-09
2.02408e-10
5.25527e-09
6.89217e-09
5.56265e-10
5.16956e-09
7.12592e-09
6.25119e-10
4.35856e-09
6.91578e-09
4.9265e-10
3.34332e-09
6.03044e-09
2.72279e-10
2.53607e-09
4.34719e-09
2.27132e-10
1.99345e-09
2.18384e-09
3.7237e-10
1.38882e-09
1.52136e-10
7.11451e-10
2.62746e-10
-6.9381e-10
9.93048e-10
-1.1709e-09
-3.02667e-10
1.0757e-09
-2.37309e-09
1.01026e-09
1.03957e-09
-2.83351e-09
2.25391e-09
1.11469e-09
-2.55152e-09
3.26434e-09
1.35926e-09
-1.31298e-09
3.81303e-09
1.85084e-09
1.9421e-10
3.10395e-09
2.86304e-09
2.30233e-09
2.17303e-09
-2.78602e-09
1.17973e-08
-2.78602e-09
-8.64747e-10
2.09619e-08
-1.98202e-09
6.01262e-10
1.68045e-08
-1.81713e-09
1.93982e-09
1.32893e-08
-1.4999e-09
3.10777e-09
9.12856e-09
-1.16184e-09
3.52122e-09
5.40698e-09
-8.91777e-10
2.95101e-09
2.84858e-09
-7.315e-10
1.66125e-09
1.73056e-09
-6.605e-10
1.21239e-10
1.72289e-09
-6.23798e-10
-9.9982e-10
2.26905e-09
-5.25759e-10
-1.21531e-09
2.70684e-09
-1.90069e-10
-4.78603e-10
2.65217e-09
3.7835e-10
7.39102e-10
2.74596e-09
9.68563e-10
1.84769e-09
3.09781e-09
1.48162e-09
2.50927e-09
3.89105e-09
1.69835e-09
2.7214e-09
5.00483e-09
1.52685e-09
2.73188e-09
5.85112e-09
1.11641e-09
2.81969e-09
5.93135e-09
7.52931e-10
2.99903e-09
5.11018e-09
6.05404e-10
3.0886e-09
3.51046e-09
6.23988e-10
2.63501e-09
1.7588e-09
7.71921e-10
1.2574e-09
7.14679e-10
7.28706e-10
-6.27346e-10
8.6311e-10
2.64979e-10
-2.3036e-09
1.80116e-09
-4.64941e-10
-2.99941e-09
2.74524e-09
-1.05071e-09
-2.60682e-09
2.96351e-09
-1.08899e-09
-1.61373e-09
3.1979e-09
-8.90989e-10
-4.97961e-10
3.50743e-09
-7.55761e-10
-2.62657e-10
4.01504e-09
-1.07929e-09
5.11516e-09
-3.01998e-09
-1.83859e-09
1.5478e-08
-1.83859e-09
4.31268e-10
2.00589e-08
-1.4016e-09
2.19233e-09
1.63741e-08
-1.35939e-09
3.74103e-09
1.27543e-08
-1.04888e-09
4.8831e-09
8.5751e-09
-6.35557e-10
5.21308e-09
5.15414e-09
-1.39668e-10
4.67302e-09
3.00563e-09
3.01189e-10
3.6056e-09
2.07179e-09
6.22795e-10
2.46038e-09
1.77144e-09
9.70316e-10
1.68049e-09
1.45586e-09
1.44391e-09
1.26414e-09
9.10745e-10
2.04169e-09
8.81229e-10
7.23846e-11
2.77261e-09
3.02837e-10
-7.85575e-11
3.19654e-09
-4.33374e-10
6.26069e-10
2.98862e-09
-1.012e-09
1.9577e-09
2.28324e-09
-9.47158e-10
3.29618e-09
1.40959e-09
-1.87164e-10
4.13402e-09
7.21786e-10
9.79695e-10
4.08987e-09
4.42954e-10
1.97931e-09
3.48015e-09
4.07355e-10
2.09669e-09
2.70786e-09
4.7573e-10
8.91807e-10
2.39715e-09
3.75497e-10
-1.16129e-09
2.86031e-09
-2.60741e-10
-3.12793e-09
3.94276e-09
-1.25518e-09
-3.97555e-09
4.41822e-09
-1.88387e-09
-3.31898e-09
3.85423e-09
-1.852e-09
-2.07022e-09
3.32475e-09
-1.66939e-09
-1.07253e-09
3.89526e-09
-1.7299e-09
-8.95252e-10
5.54055e-09
-2.2258e-09
-1.55042e-09
8.19374e-09
-3.52803e-09
6.93406e-09
-3.38333e-09
-1.04392e-09
1.7548e-08
-1.04392e-09
1.48883e-09
1.78988e-08
-4.70613e-10
3.48027e-09
1.44464e-08
-1.49561e-10
5.1397e-09
1.05041e-08
4.96929e-10
6.16245e-09
6.41436e-09
1.03029e-09
6.42439e-09
3.29966e-09
1.46676e-09
5.98103e-09
1.48515e-09
1.816e-09
5.18523e-09
5.10042e-10
2.18516e-09
4.26883e-09
-1.09317e-10
2.59884e-09
3.31678e-09
-7.82322e-10
2.96608e-09
1.9631e-09
-1.2357e-09
3.25142e-09
-2.6834e-12
-1.25752e-09
3.0247e-09
-2.14255e-09
-5.3545e-10
2.30651e-09
-3.80882e-09
7.49734e-10
1.23644e-09
-4.48611e-09
2.23055e-09
8.6202e-11
-3.75287e-09
2.83111e-09
-5.94143e-10
-2.00191e-09
2.83593e-09
-7.8182e-10
-2.75554e-10
2.69847e-09
-6.61747e-10
4.89595e-10
2.78908e-09
-3.9355e-10
-1.60466e-10
3.4958e-09
-4.44968e-10
-1.76317e-09
4.68694e-09
-9.77087e-10
-3.44041e-09
5.95278e-09
-1.68436e-09
-3.98295e-09
6.09439e-09
-1.85492e-09
-3.11063e-09
4.72442e-09
-1.39994e-09
-1.76971e-09
2.85122e-09
-5.34737e-10
-1.0578e-09
2.4168e-09
2.26789e-11
-1.02649e-09
3.81433e-09
-1.03957e-10
-1.30513e-09
6.35792e-09
-6.79358e-10
-9.78278e-10
8.93945e-09
-1.20991e-09
5.92051e-09
-1.0289e-10
3.38518e-10
1.68158e-08
3.38518e-10
3.00732e-09
1.39202e-08
1.11917e-09
4.9044e-09
1.08546e-08
1.52487e-09
6.19889e-09
6.96091e-09
2.07061e-09
6.61082e-09
3.25489e-09
2.55554e-09
6.17058e-09
7.34936e-10
2.79522e-09
5.32555e-09
-6.13293e-10
2.7125e-09
4.40966e-09
-1.30431e-09
2.47592e-09
3.38677e-09
-1.61476e-09
2.24951e-09
1.93892e-09
-1.63427e-09
1.99659e-09
-1.51989e-10
-1.09991e-09
1.62866e-09
-2.66131e-09
1.28272e-10
7.75745e-10
-5.01548e-09
1.72054e-09
-2.68345e-10
-6.17018e-09
2.62678e-09
-1.1047e-09
-5.65252e-09
2.65881e-09
-1.34063e-09
-3.8711e-09
1.87052e-09
-1.22404e-09
-1.8652e-09
1.15648e-09
-7.33903e-10
-8.6651e-10
1.6022e-09
-3.09679e-10
-1.22614e-09
3.07895e-09
-3.32988e-10
-2.49234e-09
5.32062e-09
-9.53041e-10
-3.61361e-09
7.12258e-09
-1.69749e-09
-3.57483e-09
7.42391e-09
-1.87988e-09
-2.22459e-09
5.59979e-09
-1.21176e-09
-5.54313e-10
2.60938e-09
1.02345e-10
7.6907e-12
1.04744e-09
9.11973e-10
-5.16117e-10
1.80567e-09
8.14747e-10
-1.0783e-09
3.53721e-09
5.23171e-10
-1.06595e-09
5.33931e-09
6.87004e-10
-5.66817e-11
6.57463e-09
1.02551e-09
4.85424e-09
6.96478e-10
1.6887e-09
1.33284e-08
1.6887e-09
4.14881e-09
8.6365e-09
2.51421e-09
5.55951e-09
6.20956e-09
2.95666e-09
5.89279e-09
3.18313e-09
3.16037e-09
5.16199e-09
6.88467e-10
3.00235e-09
3.89051e-09
-7.73201e-10
2.47195e-09
2.68419e-09
-1.58552e-09
1.85623e-09
1.74818e-09
-2.00104e-09
1.29474e-09
7.94825e-10
-1.99959e-09
9.84003e-10
-6.28608e-10
-1.25549e-09
6.74451e-10
-2.63946e-09
2.57111e-10
2.68352e-10
-4.63869e-09
1.9946e-09
-2.66661e-10
-5.70272e-09
2.92928e-09
-5.56714e-10
-5.37741e-09
2.37815e-09
-4.99299e-10
-3.82428e-09
6.88627e-10
-1.39036e-11
-2.07906e-09
-9.81676e-10
6.70085e-10
-1.33088e-09
-1.32697e-09
1.29506e-09
-1.83691e-09
4.01924e-10
1.26525e-09
-3.23055e-09
3.54276e-09
4.89696e-10
-4.16261e-09
6.33667e-09
-5.22512e-10
-3.85956e-09
7.25356e-09
-8.71473e-10
-2.04852e-09
5.43495e-09
-2.60005e-10
-2.37035e-11
2.27389e-09
8.60283e-10
5.45715e-10
6.50142e-11
1.528e-09
-4.27768e-10
2.92347e-10
1.2707e-09
-1.5721e-09
2.14524e-09
3.29486e-10
-1.92359e-09
3.45327e-09
-6.3941e-11
-1.38618e-09
4.13599e-09
1.37729e-10
-3.63807e-10
4.95502e-09
3.83654e-11
3.59107e-09
3.84349e-10
2.77262e-09
7.60311e-09
2.77262e-09
4.22913e-09
3.59246e-09
3.14399e-09
4.79845e-09
2.06032e-09
3.18071e-09
4.1579e-09
4.79743e-10
2.94319e-09
2.70068e-09
-6.59524e-10
2.40182e-09
1.18133e-09
-1.40053e-09
1.74195e-09
3.98598e-11
-2.0809e-09
1.23179e-09
-7.54859e-10
-2.63965e-09
1.02875e-09
-1.59804e-09
-2.51736e-09
9.57256e-10
-2.79991e-09
-1.29534e-09
8.39117e-10
-4.09729e-09
5.46698e-10
6.06171e-10
-4.80275e-09
1.90708e-09
3.9233e-10
-4.3274e-09
1.56646e-09
4.87884e-10
-2.75453e-09
-5.64826e-10
9.71631e-10
-1.15532e-09
-2.89539e-09
1.58766e-09
-7.65366e-10
-3.92447e-09
2.15706e-09
-1.63591e-09
-2.62028e-09
1.76917e-09
-3.07127e-09
4.82973e-10
9.59583e-10
-4.0356e-09
4.04402e-09
6.5636e-11
-3.52625e-09
5.45698e-09
-3.41096e-11
-1.54516e-09
4.01303e-09
8.4245e-10
4.91411e-10
1.01558e-09
1.94686e-09
8.828e-10
-1.48983e-09
2.90997e-09
-7.13556e-10
-1.48685e-09
2.65039e-09
-2.54819e-09
-2.18585e-11
1.60515e-09
-3.37625e-09
1.28321e-09
1.09078e-09
-3.27804e-09
1.79082e-09
9.0346e-10
-2.27921e-09
1.69098e-09
7.24552e-10
-2.4546e-10
8.7453e-10
1.27193e-09
-4.7615e-10
3.12481e-09
2.9047e-09
1.5352e-09
2.9047e-09
3.48529e-09
-6.17577e-10
3.05512e-09
3.39758e-09
-1.30779e-09
2.93936e-09
2.31192e-09
-1.51448e-09
2.57121e-09
7.19999e-10
-1.60447e-09
2.03995e-09
-7.10157e-10
-2.00259e-09
1.55308e-09
-1.81774e-09
-2.77072e-09
1.34088e-09
-2.74891e-09
-3.38666e-09
1.24733e-09
-3.83738e-09
-2.89462e-09
1.06177e-09
-4.84491e-09
-1.36689e-09
7.01818e-10
-5.22432e-09
2.74444e-10
2.99634e-10
-4.4788e-09
7.45792e-10
8.70115e-11
-2.67894e-09
-8.57641e-10
3.16409e-10
-9.20032e-10
-3.38697e-09
7.73815e-10
-2.63085e-10
-4.96532e-09
1.13926e-09
-8.98029e-10
-4.26103e-09
7.10247e-10
-2.14651e-09
-1.53224e-09
-9.258e-11
-2.71659e-09
1.54855e-09
-7.46264e-10
-1.7091e-09
3.1682e-09
-3.88439e-10
6.16953e-10
2.17042e-09
6.87621e-10
2.73918e-09
-5.61233e-10
2.15178e-09
2.82154e-09
-2.63505e-09
3.22813e-09
6.54341e-10
-2.85058e-09
3.13352e-09
-2.08662e-09
-1.29706e-09
2.08639e-09
-3.51591e-09
-8.82457e-10
1.73934e-09
-3.62036e-09
-1.63029e-09
2.37079e-09
-3.57656e-09
-1.38044e-09
2.3809e-09
-1.63426e-09
-2.94302e-09
1.85384e-09
1.53148e-09
-6.99851e-09
3.79846e-09
-4.73299e-09
4.99371e-09
2.70966e-09
-4.21781e-09
2.70966e-09
2.58244e-09
-3.86928e-09
2.70173e-09
2.02505e-09
-3.70884e-09
2.35247e-09
8.86038e-10
-2.74358e-09
1.78407e-09
-5.50159e-10
-2.07079e-09
1.35076e-09
-1.83505e-09
-2.13778e-09
9.12036e-10
-3.08307e-09
-2.65466e-09
6.76356e-10
-4.49566e-09
-2.77768e-09
4.05622e-10
-5.78671e-09
-1.87426e-09
-6.82079e-11
-6.53157e-09
-2.19963e-10
-6.83143e-10
-5.99914e-09
4.28527e-10
-9.13663e-10
-4.07418e-09
-8.36062e-10
-5.21372e-10
-1.77059e-09
-3.24111e-09
-5.54476e-11
-3.08307e-10
-5.37932e-09
4.31483e-10
-2.38882e-10
-5.53449e-09
4.31544e-10
-8.13674e-10
-3.74302e-09
1.19152e-11
-8.7193e-10
-1.19365e-09
-3.10245e-10
5.63768e-10
1.20512e-10
-3.32836e-11
3.01117e-09
-3.1694e-10
1.00323e-09
5.10132e-09
-2.15151e-09
2.17336e-09
4.93039e-09
-3.34854e-09
2.85921e-09
2.85036e-09
-3.14809e-09
2.4345e-09
-9.3315e-11
-1.68477e-09
1.53856e-09
-2.19147e-09
-2.47648e-10
7.07629e-10
-2.48181e-09
-1.89853e-09
8.46649e-10
-2.12753e-09
-4.28837e-09
1.71672e-09
-1.72813e-09
-4.70453e-09
2.21291e-09
6.88169e-12
-8.09369e-09
2.59658e-09
1.12795e-09
-1.20293e-08
3.01701e-09
-4.45274e-09
9.97673e-11
1.93684e-09
-8.48225e-09
1.93684e-09
1.36878e-09
-5.62531e-09
1.59674e-09
6.6156e-10
-4.64832e-09
1.00172e-09
-2.54453e-10
-2.88372e-09
4.50492e-10
-1.19388e-09
-1.69412e-09
1.31092e-11
-2.26013e-09
-1.36804e-09
-1.80828e-10
-3.63648e-09
-1.36257e-09
-3.09126e-10
-5.33017e-09
-8.57966e-10
-5.28972e-10
-6.6426e-09
1.11409e-10
-8.85009e-10
-6.62606e-09
5.17877e-10
-8.78522e-10
-5.00396e-09
-7.90678e-10
-4.46857e-10
-2.62572e-09
-3.37628e-09
1.88656e-10