/*--------------------------------*- C++ -*----------------------------------*\
| =========                 |                                                 |
| \\      /  F ield         | OpenFOAM: The Open Source CFD Toolbox           |
|  \\    /   O peration     | Version:  2312                                  |
|   \\  /    A nd           | Website:  www.openfoam.com                      |
|    \\/     M anipulation  |                                                 |
\*---------------------------------------------------------------------------*/
FoamFile
{
    version     2.0;
    format      ascii;
    arch        "LSB;label=32;scalar=64";
    class       volVectorField;
    location    "1.1552399";
    object      U;
}
// * * * * * * * * * * * * * * * * * * * * * * * * * * * * * * * * * * * * * //

dimensions      [0 1 -1 0 0 0 0];

internalField   nonuniform List<vector> 
90000
(
(-1.75919e-05 2.50585e-05 -1.75919e-05)
(-1.20316e-05 -3.64466e-06 -1.2385e-05)
(7.46998e-06 4.20488e-06 -1.11728e-05)
(7.64472e-06 3.94193e-06 -1.05603e-05)
(1.3145e-05 2.26852e-06 -8.90736e-06)
(1.75324e-05 -2.50225e-07 -7.13034e-06)
(2.2451e-05 -2.802e-06 -5.15545e-06)
(2.73046e-05 -4.16793e-06 -2.84984e-06)
(3.04794e-05 -3.83707e-06 -9.91824e-07)
(2.99364e-05 -1.65747e-06 -7.46421e-08)
(2.51033e-05 1.83278e-06 -5.00662e-07)
(1.6683e-05 5.67236e-06 -1.76377e-06)
(6.18518e-06 8.65784e-06 -3.84296e-06)
(-3.30294e-06 9.81677e-06 -6.05472e-06)
(-8.66827e-06 8.87506e-06 -7.98709e-06)
(-8.10529e-06 6.31597e-06 -9.01658e-06)
(-1.04713e-06 2.59884e-06 -8.48284e-06)
(9.51664e-06 -1.32345e-06 -6.51055e-06)
(1.85895e-05 -3.39237e-06 -2.89636e-06)
(2.18294e-05 -2.34845e-06 9.18827e-07)
(1.62973e-05 1.49034e-06 3.43958e-06)
(5.25581e-07 7.08759e-06 3.88588e-06)
(-2.48774e-05 1.22903e-05 1.95406e-06)
(-5.37671e-05 1.50103e-05 -2.56661e-06)
(-7.69325e-05 1.25729e-05 -8.3757e-06)
(-8.4176e-05 4.53692e-06 -1.43999e-05)
(-6.55666e-05 -8.20917e-06 -2.20564e-05)
(-3.00036e-05 -1.76574e-05 -4.29517e-05)
(9.28066e-05 -1.02264e-05 -9.04798e-05)
(9.90535e-05 0.000194759 -0.000202073)
(4.94759e-07 4.66754e-05 4.94759e-07)
(-3.33628e-07 -6.73348e-06 1.6508e-07)
(-2.17783e-06 6.62748e-06 -1.16361e-07)
(-2.81731e-06 5.79544e-06 -7.56703e-07)
(-2.56963e-06 1.61676e-06 -1.05079e-06)
(-9.06121e-07 -3.96883e-06 -1.47804e-06)
(2.22163e-06 -9.0655e-06 -1.92067e-06)
(6.76991e-06 -1.17837e-05 -2.3121e-06)
(1.21636e-05 -1.09584e-05 -2.54543e-06)
(1.74976e-05 -6.4244e-06 -2.38853e-06)
(2.19498e-05 4.81073e-07 -1.50127e-06)
(2.51748e-05 7.42336e-06 -8.28586e-08)
(2.7096e-05 1.21485e-05 1.71202e-06)
(2.74924e-05 1.30837e-05 4.29985e-06)
(2.60181e-05 1.00853e-05 6.97098e-06)
(2.20965e-05 3.87219e-06 9.01032e-06)
(1.56871e-05 -3.15245e-06 1.00072e-05)
(7.99456e-06 -8.69484e-06 9.6351e-06)
(2.05316e-08 -9.83281e-06 7.74665e-06)
(-7.86017e-06 -4.94857e-06 4.98106e-06)
(-1.49035e-05 4.58899e-06 2.49524e-06)
(-2.09764e-05 1.59726e-05 5.41744e-07)
(-2.6363e-05 2.52206e-05 -4.32404e-07)
(-2.96008e-05 2.70531e-05 2.65439e-07)
(-3.0004e-05 1.80861e-05 3.08367e-06)
(-2.88397e-05 -1.82109e-06 1.0037e-05)
(-2.80523e-05 -3.30789e-05 2.24849e-05)
(-4.95596e-05 -8.31765e-05 4.64546e-05)
(5.16956e-05 -0.000128035 6.10328e-05)
(8.92072e-05 0.000396799 4.49375e-05)
(5.72235e-06 3.72471e-05 5.72235e-06)
(2.72115e-06 -9.25201e-07 3.24855e-06)
(-7.87904e-06 8.80901e-06 2.47905e-06)
(-1.16221e-05 7.2516e-06 1.38254e-06)
(-1.52498e-05 1.88571e-06 2.5433e-07)
(-1.74672e-05 -4.60388e-06 -9.7309e-07)
(-1.70234e-05 -1.06647e-05 -2.5365e-06)
(-1.33785e-05 -1.46667e-05 -3.95457e-06)
(-6.17825e-06 -1.53614e-05 -4.80363e-06)
(4.47096e-06 -1.26939e-05 -4.81506e-06)
(1.75192e-05 -8.00449e-06 -3.74979e-06)
(3.10046e-05 -3.23998e-06 -1.23214e-06)
(4.21689e-05 1.65082e-07 2.38528e-06)
(4.79383e-05 1.09363e-06 5.68702e-06)
(4.5843e-05 -2.28396e-07 8.81352e-06)
(3.5576e-05 -3.01459e-06 1.06552e-05)
(1.89504e-05 -5.43043e-06 1.03384e-05)
(-1.02278e-06 -6.0739e-06 7.83499e-06)
(-1.91188e-05 -3.84039e-06 4.04741e-06)
(-3.05762e-05 1.63933e-06 -6.1567e-07)
(-3.32702e-05 9.41213e-06 -4.40761e-06)
(-2.62134e-05 1.70758e-05 -5.77546e-06)
(-1.06582e-05 2.16113e-05 -5.09415e-06)
(8.92165e-06 1.76783e-05 -2.58223e-06)
(2.7768e-05 4.76791e-06 4.5568e-07)
(4.23038e-05 -1.37791e-05 2.31962e-06)
(4.3984e-05 -3.43515e-05 9.35986e-06)
(-9.64533e-06 -0.000110724 2.97892e-05)
(-4.46036e-05 -0.000286706 7.40811e-05)
(-1.39559e-05 0.000325422 0.000112789)
(7.22921e-06 2.22591e-05 7.22921e-06)
(4.00208e-06 7.76696e-06 4.58673e-06)
(-8.89144e-06 1.40558e-05 3.98012e-06)
(-1.40371e-05 1.24641e-05 3.09162e-06)
(-1.94091e-05 7.50357e-06 1.77549e-06)
(-2.39279e-05 9.40914e-07 1.37284e-07)
(-2.61581e-05 -6.21433e-06 -1.62141e-06)
(-2.48391e-05 -1.24079e-05 -3.34364e-06)
(-1.91513e-05 -1.66614e-05 -4.53685e-06)
(-8.80029e-06 -1.85888e-05 -4.98288e-06)
(5.17475e-06 -1.84039e-05 -4.4389e-06)
(2.03785e-05 -1.65766e-05 -2.96325e-06)
(3.32162e-05 -1.31177e-05 -6.1489e-07)
(4.02351e-05 -8.19283e-06 1.89025e-06)
(3.92277e-05 -2.37614e-06 2.96233e-06)
(2.97104e-05 4.15156e-06 2.69608e-06)
(1.36161e-05 9.96735e-06 1.12393e-06)
(-5.25975e-06 1.40729e-05 -1.46309e-06)
(-2.13988e-05 1.59225e-05 -4.23439e-06)
(-2.93098e-05 1.56448e-05 -6.44565e-06)
(-2.60419e-05 1.40572e-05 -7.77007e-06)
(-1.04947e-05 1.21204e-05 -7.77419e-06)
(1.38787e-05 8.6743e-06 -6.15094e-06)
(3.95927e-05 1.57745e-06 -2.97304e-06)
(5.99639e-05 -9.13198e-06 1.54852e-06)
(7.39437e-05 -2.03768e-05 2.41913e-06)
(9.02527e-05 -1.94868e-05 -9.49439e-06)
(9.04212e-05 -2.62025e-05 -1.48136e-05)
(-3.93812e-05 -0.000246048 -3.19509e-06)
(-8.03201e-05 0.000173966 4.61908e-05)
(7.55894e-06 3.65961e-06 7.55894e-06)
(6.02036e-06 1.30131e-05 5.65963e-06)
(-4.66031e-06 1.61209e-05 5.4641e-06)
(-8.7709e-06 1.49545e-05 4.96577e-06)
(-1.38841e-05 1.16643e-05 4.15666e-06)
(-1.88301e-05 5.99404e-06 3.00556e-06)
(-2.27062e-05 -1.41279e-06 1.76334e-06)
(-2.47956e-05 -9.20125e-06 6.44098e-07)
(-2.40527e-05 -1.6285e-05 -7.40267e-07)
(-1.9813e-05 -2.21252e-05 -1.69949e-06)
(-1.2746e-05 -2.5594e-05 -2.37925e-06)
(-4.14985e-06 -2.55398e-05 -2.82196e-06)
(4.04327e-06 -2.11498e-05 -3.28218e-06)
(9.86453e-06 -1.17372e-05 -3.83763e-06)
(1.21672e-05 1.49755e-06 -4.82557e-06)
(1.01509e-05 1.59209e-05 -5.86463e-06)
(4.31312e-06 2.78641e-05 -6.55142e-06)
(-3.01898e-06 3.43881e-05 -7.0549e-06)
(-8.26208e-06 3.34943e-05 -7.38199e-06)
(-7.97259e-06 2.61923e-05 -7.28973e-06)
(2.48501e-07 1.54129e-05 -6.73856e-06)
(1.58376e-05 4.50298e-06 -5.74346e-06)
(3.51644e-05 -4.68699e-06 -4.44895e-06)
(5.37172e-05 -1.10475e-05 -2.70269e-06)
(6.55058e-05 -1.46926e-05 6.22619e-08)
(6.53383e-05 -2.02381e-05 4.46873e-06)
(5.93645e-05 -1.83032e-05 1.83637e-06)
(7.02844e-05 4.22614e-05 -7.70531e-06)
(-1.3713e-05 -8.94767e-05 -1.62334e-05)
(-5.63125e-05 9.32193e-05 -1.63436e-07)
(5.10597e-06 -1.58856e-05 5.10597e-06)
(7.06864e-06 1.2731e-05 4.69153e-06)
(3.74917e-06 1.26862e-05 5.02476e-06)
(2.97024e-06 1.21048e-05 5.26246e-06)
(1.31354e-06 1.07613e-05 5.48516e-06)
(-1.74827e-06 7.03791e-06 5.49483e-06)
(-6.09319e-06 8.547e-07 5.29981e-06)
(-1.15262e-05 -6.82984e-06 5.09913e-06)
(-1.77606e-05 -1.46917e-05 4.74544e-06)
(-2.39945e-05 -2.18733e-05 3.73152e-06)
(-2.90312e-05 -2.66958e-05 1.8203e-06)
(-3.19516e-05 -2.74524e-05 -7.592e-07)
(-3.19986e-05 -2.26286e-05 -3.69081e-06)
(-2.8523e-05 -1.16548e-05 -6.57296e-06)
(-2.17466e-05 4.29652e-06 -8.83941e-06)
(-1.2813e-05 2.16694e-05 -1.01499e-05)
(-2.95396e-06 3.57372e-05 -9.85521e-06)
(6.29815e-06 4.22114e-05 -8.36409e-06)
(1.45494e-05 3.85733e-05 -6.0941e-06)
(2.2354e-05 2.69094e-05 -3.64142e-06)
(2.99235e-05 1.18868e-05 -1.7213e-06)
(3.74297e-05 -2.18763e-06 -4.85244e-07)
(4.43277e-05 -1.13275e-05 -1.62759e-07)
(4.91082e-05 -1.32377e-05 -9.68305e-07)
(5.01403e-05 -7.24255e-06 -3.08784e-06)
(4.28707e-05 1.45152e-06 -5.00486e-06)
(1.23981e-05 5.67087e-06 -5.04321e-06)
(1.51957e-05 6.5528e-05 -1.50591e-05)
(-1.53105e-05 1.67416e-05 -2.67886e-05)
(-3.69373e-05 7.95082e-05 -1.87007e-05)
(-8.10618e-07 -2.77032e-05 -8.10619e-07)
(4.02374e-06 6.25503e-06 5.94746e-07)
(1.23546e-05 4.13312e-06 1.21268e-06)
(1.78252e-05 4.18734e-06 1.70829e-06)
(2.22966e-05 4.73241e-06 2.96661e-06)
(2.36422e-05 3.5595e-06 4.50213e-06)
(2.04986e-05 3.23665e-07 5.9928e-06)
(1.22973e-05 -4.5483e-06 7.14067e-06)
(-6.71922e-07 -1.02792e-05 7.67614e-06)
(-1.72049e-05 -1.58066e-05 7.08266e-06)
(-3.48718e-05 -1.97219e-05 5.41952e-06)
(-4.98256e-05 -2.10882e-05 1.87582e-06)
(-5.82207e-05 -1.8306e-05 -2.33017e-06)
(-5.76378e-05 -1.08769e-05 -6.06077e-06)
(-4.76727e-05 7.79478e-07 -8.41097e-06)
(-3.00881e-05 1.41291e-05 -8.81098e-06)
(-8.07602e-06 2.51386e-05 -7.37576e-06)
(1.35917e-05 2.99018e-05 -4.38009e-06)
(3.12626e-05 2.64493e-05 -2.10693e-07)
(4.30184e-05 1.63926e-05 3.36625e-06)
(4.78117e-05 3.60906e-06 5.6364e-06)
(4.63843e-05 -7.21335e-06 6.4305e-06)
(4.0264e-05 -1.13699e-05 5.8644e-06)
(3.02055e-05 -6.82026e-06 4.11417e-06)
(1.75601e-05 6.79913e-06 3.95454e-07)
(4.64485e-06 3.05507e-05 -5.15098e-06)
(-1.78451e-05 4.79046e-05 -9.81838e-06)
(-2.50673e-05 9.28809e-05 -1.63707e-05)
(-2.67307e-05 7.61765e-05 -2.14093e-05)
(-1.92283e-05 7.09028e-05 -1.36827e-05)
(-1.00215e-05 -2.27377e-05 -1.00215e-05)
(-3.59019e-06 -5.65775e-06 -7.29455e-06)
(1.80746e-05 -6.71028e-06 -6.42106e-06)
(3.04068e-05 -5.73178e-06 -5.38276e-06)
(4.21856e-05 -3.34131e-06 -3.34119e-06)
(4.9049e-05 -1.05563e-06 -7.25035e-07)
(4.87563e-05 7.19856e-07 2.28622e-06)
(3.99479e-05 1.48454e-06 4.91966e-06)
(2.29921e-05 1.22716e-06 6.54614e-06)
(-3.41334e-08 -1.35315e-07 6.71715e-06)
(-2.54903e-05 -2.51868e-06 5.48817e-06)
(-4.79987e-05 -5.98287e-06 3.12878e-06)
(-6.26285e-05 -9.35103e-06 3.64086e-07)
(-6.60099e-05 -1.08228e-05 -2.39895e-06)
(-5.70673e-05 -9.39448e-06 -3.84452e-06)
(-3.80998e-05 -5.43467e-06 -3.3926e-06)
(-1.30786e-05 -7.39725e-07 -1.05368e-06)
(1.23974e-05 1.93742e-06 2.38289e-06)
(3.28196e-05 1.10504e-06 5.96145e-06)
(4.46209e-05 -3.65911e-06 8.70392e-06)
(4.68206e-05 -9.95881e-06 1.06241e-05)
(4.0749e-05 -1.39484e-05 1.11653e-05)
(2.82598e-05 -1.12159e-05 1.03432e-05)
(1.11814e-05 9.80029e-08 8.53637e-06)
(-8.649e-06 1.91303e-05 5.40954e-06)
(-2.55873e-05 4.6983e-05 3.59386e-07)
(-3.79514e-05 7.20852e-05 -3.60873e-06)
(-3.6762e-05 9.55401e-05 -6.62236e-06)
(-1.88245e-05 8.44531e-05 -6.02297e-06)
(-4.04675e-06 5.16253e-05 4.66637e-06)
(-1.79279e-05 5.17904e-06 -1.79279e-05)
(-9.58745e-06 -1.90723e-05 -1.5047e-05)
(2.26878e-05 -1.64568e-05 -1.42639e-05)
(3.89601e-05 -1.44192e-05 -1.22278e-05)
(5.56001e-05 -1.00794e-05 -9.22785e-06)
(6.60923e-05 -3.77149e-06 -5.69656e-06)
(6.83144e-05 4.11753e-06 -2.19487e-06)
(6.08828e-05 1.23458e-05 6.86368e-07)
(4.44473e-05 1.90102e-05 2.94871e-06)
(2.14988e-05 2.24817e-05 4.31741e-06)
(-4.1399e-06 2.08929e-05 4.74205e-06)
(-2.73094e-05 1.34445e-05 4.43949e-06)
(-4.36329e-05 1.24994e-06 4.21726e-06)
(-5.08759e-05 -1.1633e-05 4.21648e-06)
(-4.85147e-05 -2.24985e-05 4.48197e-06)
(-3.78049e-05 -2.90912e-05 4.97624e-06)
(-2.16612e-05 -3.10219e-05 6.41784e-06)
(-3.94944e-06 -3.0205e-05 8.01541e-06)
(1.14232e-05 -2.86762e-05 9.19363e-06)
(2.1615e-05 -2.79142e-05 9.71205e-06)
(2.51619e-05 -2.67186e-05 9.64596e-06)
(2.15478e-05 -2.2905e-05 9.35946e-06)
(1.15212e-05 -1.38902e-05 8.73888e-06)
(-2.61845e-06 2.45701e-06 7.54404e-06)
(-1.81184e-05 2.4652e-05 5.92238e-06)
(-2.97713e-05 4.85439e-05 4.28271e-06)
(-3.16271e-05 6.69491e-05 4.45178e-06)
(-2.00968e-05 6.93229e-05 7.34175e-06)
(2.16555e-06 5.11676e-05 1.28736e-05)
(7.73234e-06 2.52055e-05 1.57857e-05)
(-2.02119e-05 4.75543e-05 -2.02119e-05)
(-1.03053e-05 -3.31522e-05 -1.62626e-05)
(2.5317e-05 -2.55955e-05 -1.45219e-05)
(4.15542e-05 -2.32454e-05 -1.1744e-05)
(5.79087e-05 -1.67659e-05 -8.3422e-06)
(6.72971e-05 -6.23038e-06 -4.99042e-06)
(6.90082e-05 7.47477e-06 -2.0663e-06)
(6.33774e-05 2.26508e-05 4.51088e-07)
(5.19283e-05 3.51274e-05 1.99853e-06)
(3.66176e-05 4.19224e-05 3.70048e-06)
(1.97696e-05 3.97009e-05 5.57031e-06)
(3.38333e-06 2.7738e-05 7.67292e-06)
(-1.07563e-05 8.2568e-06 9.78238e-06)
(-2.19831e-05 -1.3689e-05 1.17596e-05)
(-3.03164e-05 -3.34785e-05 1.31017e-05)
(-3.52902e-05 -4.75946e-05 1.34835e-05)
(-3.6287e-05 -5.45866e-05 1.2164e-05)
(-3.27579e-05 -5.56095e-05 9.62672e-06)
(-2.55064e-05 -5.29093e-05 6.76593e-06)
(-1.69656e-05 -4.79495e-05 4.26721e-06)
(-9.70492e-06 -4.09638e-05 2.41593e-06)
(-5.80753e-06 -3.09801e-05 1.1649e-06)
(-6.43734e-06 -1.68915e-05 1.0351e-07)
(-1.02649e-05 2.28361e-06 -4.37625e-07)
(-1.41495e-05 2.4076e-05 -2.63558e-07)
(-1.36603e-05 3.95956e-05 1.22485e-06)
(-4.37855e-06 4.37057e-05 5.15537e-06)
(9.60431e-06 3.11923e-05 9.48125e-06)
(1.59988e-05 1.56107e-05 1.19538e-05)
(8.20379e-06 1.35158e-05 6.76032e-06)
(-1.00253e-05 7.84534e-05 -1.00253e-05)
(3.90666e-07 -5.23533e-05 -5.21103e-06)
(2.41655e-05 -3.91343e-05 -2.69628e-06)
(3.29635e-05 -3.55728e-05 -2.64817e-07)
(3.99825e-05 -2.67302e-05 2.27623e-06)
(4.20145e-05 -1.23343e-05 3.65488e-06)
(4.05541e-05 5.97555e-06 3.86649e-06)
(3.76891e-05 2.48465e-05 3.33073e-06)
(3.52529e-05 4.0042e-05 3.23102e-06)
(3.3673e-05 4.78861e-05 4.06772e-06)
(3.18268e-05 4.47698e-05 6.16346e-06)
(2.76819e-05 3.08167e-05 9.2874e-06)
(1.90497e-05 9.3284e-06 1.25051e-05)
(4.54744e-06 -1.47756e-05 1.4313e-05)
(-1.4879e-05 -3.56182e-05 1.47471e-05)
(-3.52548e-05 -5.07061e-05 1.27795e-05)
(-5.19655e-05 -5.92533e-05 8.76841e-06)
(-6.13003e-05 -6.24956e-05 3.62819e-06)
(-6.17552e-05 -6.1615e-05 -1.55337e-06)
(-5.45978e-05 -5.69697e-05 -5.36517e-06)
(-4.28666e-05 -4.8523e-05 -7.68483e-06)
(-3.04199e-05 -3.58398e-05 -8.73898e-06)
(-1.9965e-05 -1.83641e-05 -8.98624e-06)
(-1.12623e-05 1.37961e-06 -8.35881e-06)
(-2.22703e-06 1.91371e-05 -6.32367e-06)
(9.22719e-06 2.63478e-05 -2.76131e-06)
(2.12022e-05 2.24468e-05 9.56206e-07)
(2.50528e-05 1.29648e-05 2.5539e-06)
(1.50111e-05 1.41226e-05 -4.92192e-07)
(3.49834e-06 2.29778e-05 -4.9459e-06)
(1.15716e-05 7.30947e-05 1.15716e-05)
(1.80902e-05 -7.39025e-05 1.45718e-05)
(1.26968e-05 -5.70598e-05 1.73944e-05)
(6.69751e-06 -5.04094e-05 1.70489e-05)
(-3.63626e-06 -3.90788e-05 1.583e-05)
(-1.25144e-05 -2.22442e-05 1.24095e-05)
(-1.74911e-05 -2.04825e-06 7.78934e-06)
(-1.53831e-05 1.7581e-05 3.54281e-06)
(-5.53333e-06 3.21633e-05 3.30319e-07)
(9.47317e-06 3.92446e-05 -5.45482e-07)
(2.48767e-05 3.69819e-05 8.07761e-07)
(3.40842e-05 2.72782e-05 3.50948e-06)
(3.20578e-05 1.26043e-05 5.74871e-06)
(1.82496e-05 -3.25357e-06 6.47117e-06)
(-5.29232e-06 -1.74032e-05 4.43427e-06)
(-3.32534e-05 -2.84485e-05 3.69093e-07)
(-5.82432e-05 -3.72084e-05 -4.70297e-06)
(-7.42022e-05 -4.43577e-05 -9.33394e-06)
(-7.79563e-05 -4.98844e-05 -1.26864e-05)
(-7.0675e-05 -5.16713e-05 -1.44205e-05)
(-5.62504e-05 -4.74383e-05 -1.46297e-05)
(-3.89058e-05 -3.70124e-05 -1.37239e-05)
(-2.1313e-05 -2.07451e-05 -1.18302e-05)
(-4.06988e-06 -3.68442e-06 -9.14119e-06)
(1.29912e-05 8.90981e-06 -5.65605e-06)
(2.75924e-05 1.31797e-05 -2.02956e-06)
(3.44148e-05 1.40873e-05 3.51283e-07)
(2.80652e-05 2.08425e-05 -2.99176e-07)
(1.36423e-05 3.56698e-05 -3.30419e-06)
(3.35761e-06 3.39919e-05 -2.69606e-08)
(3.5144e-05 1.54872e-05 3.5144e-05)
(2.99379e-05 -8.75425e-05 3.28397e-05)
(-1.52373e-05 -7.01759e-05 3.05288e-05)
(-3.62467e-05 -5.9138e-05 2.51319e-05)
(-6.21485e-05 -4.41533e-05 1.84518e-05)
(-7.96792e-05 -2.5713e-05 1.01624e-05)
(-8.51865e-05 -6.88619e-06 1.79701e-06)
(-7.64307e-05 9.38799e-06 -5.37651e-06)
(-5.44535e-05 2.03401e-05 -9.68957e-06)
(-2.42914e-05 2.52966e-05 -1.11742e-05)
(5.67666e-06 2.65748e-05 -1.07286e-05)
(2.58508e-05 2.72746e-05 -9.81376e-06)
(3.08122e-05 2.74428e-05 -9.32353e-06)
(2.10119e-05 2.74146e-05 -1.02402e-05)
(5.178e-07 2.49573e-05 -1.24015e-05)
(-2.40701e-05 1.91484e-05 -1.48035e-05)
(-4.56498e-05 8.35776e-06 -1.66922e-05)
(-5.8898e-05 -6.55776e-06 -1.78666e-05)
(-6.18702e-05 -2.25302e-05 -1.78528e-05)
(-5.5936e-05 -3.49377e-05 -1.6621e-05)
(-4.45116e-05 -3.94542e-05 -1.43401e-05)
(-2.985e-05 -3.56184e-05 -1.16923e-05)
(-1.28892e-05 -2.53227e-05 -8.74315e-06)
(5.35799e-06 -1.37343e-05 -5.52545e-06)
(2.2613e-05 -4.84346e-06 -2.14319e-06)
(3.4534e-05 2.39293e-06 1.39778e-06)
(3.63595e-05 1.41615e-05 3.08249e-06)
(2.85341e-05 3.2272e-05 3.48904e-06)
(2.02967e-05 4.49958e-05 5.61374e-06)
(9.30425e-06 3.6574e-05 1.09485e-05)
(4.37902e-05 -7.476e-05 4.37902e-05)
(2.34068e-05 -7.31845e-05 2.98079e-05)
(-5.22455e-05 -5.7463e-05 2.38147e-05)
(-8.49053e-05 -4.26953e-05 1.52735e-05)
(-0.000116883 -2.52261e-05 5.38506e-06)
(-0.000134712 -8.67717e-06 -3.98287e-06)
(-0.000135011 3.33162e-06 -1.17141e-05)
(-0.00011707 8.80255e-06 -1.57776e-05)
(-8.47563e-05 1.11263e-05 -1.75025e-05)
(-4.66588e-05 1.31615e-05 -1.75976e-05)
(-1.10131e-05 2.03912e-05 -1.6595e-05)
(1.33747e-05 3.3751e-05 -1.58182e-05)
(2.29175e-05 5.07349e-05 -1.61823e-05)
(2.05567e-05 6.61969e-05 -1.70976e-05)
(1.0389e-05 7.45146e-05 -1.78228e-05)
(-2.41055e-06 7.20664e-05 -1.80162e-05)
(-1.3363e-05 5.74808e-05 -1.72187e-05)
(-2.01981e-05 3.33273e-05 -1.51334e-05)
(-2.34864e-05 6.79567e-06 -1.21558e-05)
(-2.41174e-05 -1.50954e-05 -9.16399e-06)
(-2.23963e-05 -2.7959e-05 -6.83561e-06)
(-1.76237e-05 -3.15859e-05 -5.22018e-06)
(-8.54909e-06 -2.81525e-05 -4.23313e-06)
(4.50564e-06 -2.16526e-05 -3.55807e-06)
(1.7891e-05 -1.38319e-05 -2.76566e-06)
(2.6343e-05 -5.49898e-07 -1.86189e-06)
(2.78313e-05 1.91406e-05 -1.13262e-06)
(2.63493e-05 3.71457e-05 1.98866e-06)
(2.21484e-05 4.35889e-05 6.97772e-06)
(9.69711e-06 4.5515e-05 2.91789e-06)
(2.75545e-05 -0.000136599 2.75545e-05)
(-7.48488e-06 -1.42864e-05 1.06647e-05)
(-8.42885e-05 -6.65328e-06 3.05546e-06)
(-0.000116571 6.00069e-06 -5.88086e-06)
(-0.00014175 1.86567e-05 -1.26391e-05)
(-0.000150318 2.39949e-05 -1.58844e-05)
(-0.000140457 2.05141e-05 -1.67014e-05)
(-0.000114883 1.01572e-05 -1.61773e-05)
(-8.12731e-05 1.53312e-06 -1.40266e-05)
(-4.73879e-05 1.69759e-06 -1.21287e-05)
(-1.8657e-05 1.50801e-05 -1.08244e-05)
(1.13915e-06 3.89229e-05 -1.11034e-05)
(1.28354e-05 6.84169e-05 -1.21714e-05)
(1.99555e-05 9.35282e-05 -1.29148e-05)
(2.42962e-05 0.000106455 -1.22184e-05)
(2.68688e-05 0.000103684 -1.00329e-05)
(2.72887e-05 8.53977e-05 -6.34975e-06)
(2.40016e-05 5.63652e-05 -2.1712e-06)
(1.62814e-05 2.55279e-05 1.6028e-06)
(5.02695e-06 4.86087e-07 3.67778e-06)
(-7.09863e-06 -1.53909e-05 3.24063e-06)
(-1.48342e-05 -2.27767e-05 9.17921e-07)
(-1.49655e-05 -2.34978e-05 -2.1475e-06)
(-8.96341e-06 -1.896e-05 -4.57997e-06)
(-2.79805e-07 -8.28454e-06 -6.28575e-06)
(6.61907e-06 1.03602e-05 -7.84576e-06)
(1.01951e-05 3.24395e-05 -8.05338e-06)
(1.27942e-05 4.82935e-05 -6.73681e-06)
(4.1755e-06 6.04356e-05 -7.94163e-06)
(-3.00335e-06 7.2245e-05 -1.54567e-05)
(-1.91594e-06 -0.000130881 -1.91595e-06)
(-4.18092e-05 7.29412e-05 -1.56803e-05)
(-9.17794e-05 6.50958e-05 -1.74315e-05)
(-0.000112539 6.71336e-05 -1.92672e-05)
(-0.000121788 6.46151e-05 -1.81617e-05)
(-0.000115544 5.01197e-05 -1.5545e-05)
(-9.75363e-05 2.70513e-05 -1.12131e-05)
(-7.46706e-05 2.6217e-06 -6.42273e-06)
(-5.24329e-05 -1.31718e-05 -2.51142e-06)
(-3.48391e-05 -1.25852e-05 -3.78181e-07)
(-2.27812e-05 5.85384e-06 -9.95357e-07)
(-1.25683e-05 3.66221e-05 -3.21711e-06)
(-1.3262e-07 7.08896e-05 -5.75279e-06)
(1.60661e-05 9.75033e-05 -6.31252e-06)
(3.37588e-05 0.000109898 -4.66065e-06)
(4.8426e-05 0.000106142 -8.26728e-07)
(5.60476e-05 8.81807e-05 4.13803e-06)
(5.32331e-05 6.20553e-05 8.20591e-06)
(3.93082e-05 3.56613e-05 1.00687e-05)
(1.89183e-05 1.44039e-05 9.28406e-06)
(-1.52063e-06 -3.35505e-07 6.45917e-06)
(-1.52626e-05 -9.19326e-06 3.15499e-06)
(-1.98133e-05 -1.29543e-05 6.41476e-07)
(-1.87025e-05 -8.97659e-06 -1.04802e-06)
(-1.64106e-05 4.86047e-06 -2.58392e-06)
(-1.49956e-05 2.67129e-05 -4.07458e-06)
(-1.36361e-05 4.93005e-05 -5.17287e-06)
(-1.39148e-05 6.93762e-05 -7.53135e-06)
(-1.89782e-05 9.26255e-05 -1.26892e-05)
(-1.21131e-05 8.8223e-05 -9.44835e-06)
(-2.27441e-05 -6.30471e-05 -2.27441e-05)
(-5.50124e-05 0.00015328 -2.43333e-05)
(-6.97885e-05 0.000125508 -2.16012e-05)
(-7.26251e-05 0.000111867 -1.94499e-05)
(-6.5133e-05 8.94388e-05 -1.42912e-05)
(-5.05499e-05 5.6082e-05 -7.96304e-06)
(-3.49861e-05 1.929e-05 -1.92501e-06)
(-2.45451e-05 -1.10301e-05 2.86532e-06)
(-2.17674e-05 -2.58054e-05 4.86141e-06)
(-2.49967e-05 -2.0472e-05 3.09127e-06)
(-2.85126e-05 2.67587e-06 -1.18156e-06)
(-2.50904e-05 3.43172e-05 -5.59513e-06)
(-1.13607e-05 6.45464e-05 -7.73992e-06)
(1.13355e-05 8.60028e-05 -7.47018e-06)
(3.64978e-05 9.52344e-05 -4.35078e-06)
(5.59287e-05 9.27235e-05 1.95869e-07)
(6.41037e-05 8.09969e-05 3.79202e-06)
(5.88797e-05 6.44563e-05 5.72606e-06)
(4.31637e-05 4.70509e-05 6.05768e-06)
(2.37353e-05 3.09837e-05 5.5577e-06)
(6.94364e-06 1.55993e-05 4.92255e-06)
(-3.36072e-06 1.88352e-06 5.31007e-06)
(-8.16995e-06 -7.15124e-06 7.04262e-06)
(-1.28952e-05 -5.28877e-06 8.80113e-06)
(-1.95066e-05 9.26722e-06 9.3865e-06)
(-2.53486e-05 3.11718e-05 9.1784e-06)
(-2.87027e-05 5.33384e-05 7.90496e-06)
(-2.96058e-05 7.62998e-05 5.80921e-06)
(-2.07728e-05 9.30296e-05 5.72769e-06)
(-6.63337e-06 6.40151e-05 1.80649e-05)
(-2.7348e-05 2.48887e-05 -2.7348e-05)
(-4.28828e-05 0.00019973 -2.17673e-05)
(-3.04296e-05 0.00015856 -1.88638e-05)
(-2.18471e-05 0.000130311 -1.51273e-05)
(-8.07497e-06 9.33852e-05 -1.02257e-05)
(4.99593e-06 5.13545e-05 -5.21775e-06)
(1.15052e-05 1.32441e-05 -1.95512e-06)
(7.92055e-06 -1.08989e-05 -7.5483e-07)
(-4.84882e-06 -1.69722e-05 -2.62686e-06)
(-2.00287e-05 -6.01021e-06 -5.94903e-06)
(-2.90102e-05 1.55685e-05 -9.2118e-06)
(-2.6153e-05 3.80464e-05 -1.06905e-05)
(-1.05826e-05 5.65436e-05 -1.01875e-05)
(1.22442e-05 6.87271e-05 -7.11497e-06)
(3.43923e-05 7.50612e-05 -3.1194e-06)
(4.89322e-05 7.69668e-05 1.25671e-07)
(5.32789e-05 7.4659e-05 1.92392e-06)
(4.84624e-05 6.86688e-05 2.13219e-06)
(3.87849e-05 5.8329e-05 1.50975e-06)
(2.93315e-05 4.28442e-05 2.15573e-06)
(2.24648e-05 2.29691e-05 4.26383e-06)
(1.69773e-05 2.96156e-06 7.21034e-06)
(8.85011e-06 -9.56524e-06 9.87643e-06)
(-4.19912e-06 -7.84875e-06 1.10017e-05)
(-1.8232e-05 6.86702e-06 1.06794e-05)
(-2.68743e-05 2.47216e-05 1.04162e-05)
(-2.81978e-05 4.09122e-05 1.09965e-05)
(-2.14989e-05 5.40013e-05 1.35108e-05)
(-2.83436e-06 4.90133e-05 2.01052e-05)
(4.91959e-06 2.56415e-05 1.86197e-05)
(-2.41282e-05 9.32736e-05 -2.41282e-05)
(-2.34023e-05 0.000212709 -1.7896e-05)
(1.63059e-06 0.000169246 -1.68414e-05)
(1.14481e-05 0.000134014 -1.45289e-05)
(2.58537e-05 9.21505e-05 -1.1694e-05)
(3.42889e-05 5.1889e-05 -9.41093e-06)
(3.36478e-05 2.18167e-05 -7.8336e-06)
(2.39272e-05 8.16917e-06 -7.03755e-06)
(8.73299e-06 8.44996e-06 -7.06903e-06)
(-5.80161e-06 1.76243e-05 -7.15336e-06)
(-1.28499e-05 2.84189e-05 -6.00178e-06)
(-9.87166e-06 3.49633e-05 -3.03952e-06)
(7.21371e-07 4.03963e-05 1.35494e-06)
(1.31056e-05 4.49386e-05 5.41916e-06)
(2.22011e-05 5.14081e-05 7.51113e-06)
(2.66295e-05 5.94862e-05 7.06064e-06)
(2.76878e-05 6.51789e-05 4.95043e-06)
(2.80337e-05 6.51497e-05 3.08494e-06)
(2.92765e-05 5.71607e-05 2.69314e-06)
(3.06936e-05 4.05117e-05 3.71698e-06)
(2.92037e-05 1.93585e-05 5.60471e-06)
(2.04697e-05 1.91479e-06 6.53001e-06)
(3.61896e-06 -3.69697e-06 4.59726e-06)
(-1.55683e-05 4.26634e-06 -1.109e-06)
(-2.81309e-05 1.72615e-05 -5.72104e-06)
(-2.94247e-05 2.60462e-05 -6.6083e-06)
(-2.22414e-05 3.23993e-05 -5.5777e-06)
(-9.17589e-06 3.4008e-05 -3.87199e-06)
(-2.16702e-06 2.73944e-05 -3.30782e-06)
(-1.66484e-06 3.10111e-05 -1.59386e-05)
(-1.92035e-05 0.000139024 -1.92035e-05)
(-1.1251e-05 0.000207963 -1.5619e-05)
(1.74369e-05 0.000167643 -1.52427e-05)
(2.88844e-05 0.00013159 -1.32333e-05)
(4.38152e-05 8.99861e-05 -1.0569e-05)
(5.16575e-05 5.39831e-05 -7.5609e-06)
(5.05169e-05 3.09454e-05 -4.50884e-06)
(4.19488e-05 2.19731e-05 -1.37658e-06)
(3.01121e-05 2.12999e-05 1.63451e-06)
(1.99734e-05 2.22527e-05 5.65795e-06)
(1.40071e-05 2.06971e-05 9.98789e-06)
(1.07273e-05 1.44076e-05 1.43663e-05)
(6.25222e-06 1.15248e-05 1.75687e-05)
(-7.39907e-07 1.55227e-05 1.70856e-05)
(-7.76376e-06 2.64453e-05 1.30166e-05)
(-1.09327e-05 4.01776e-05 7.84073e-06)
(-6.56769e-06 4.95857e-05 3.57152e-06)
(3.87e-06 4.99929e-05 1.44099e-06)
(1.54283e-05 4.24676e-05 1.76704e-06)
(2.18031e-05 2.95337e-05 2.97523e-06)
(1.67582e-05 1.7786e-05 2.99847e-06)
(-4.64841e-07 1.51164e-05 -7.84058e-07)
(-2.22616e-05 2.24363e-05 -7.81274e-06)
(-3.74006e-05 3.23062e-05 -1.323e-05)
(-3.81774e-05 3.5135e-05 -1.44531e-05)
(-2.74991e-05 3.297e-05 -1.39211e-05)
(-1.53147e-05 3.58702e-05 -1.33172e-05)
(-6.74834e-06 4.3518e-05 -1.44697e-05)
(-1.31491e-05 5.9989e-05 -2.23095e-05)
(-1.17345e-05 6.17748e-05 -2.33246e-05)
(-1.40555e-05 0.000167653 -1.40555e-05)
(-1.81298e-06 0.000191589 -1.02168e-05)
(2.9115e-05 0.000155704 -8.68311e-06)
(4.32023e-05 0.000117731 -4.71565e-06)
(5.7327e-05 7.63684e-05 1.8049e-08)
(6.39961e-05 4.33812e-05 4.5457e-06)
(6.28395e-05 2.38824e-05 7.91916e-06)
(5.61875e-05 1.46294e-05 1.09377e-05)
(4.73718e-05 9.62881e-06 1.392e-05)
(3.7977e-05 2.9514e-06 1.70823e-05)
(2.67538e-05 -5.39713e-06 1.99177e-05)
(1.01105e-05 -1.26066e-05 1.93353e-05)
(-1.09829e-05 -1.02286e-05 1.55443e-05)
(-3.06292e-05 1.32344e-06 9.09191e-06)
(-4.287e-05 1.78826e-05 9.05114e-07)
(-4.23865e-05 2.94142e-05 -4.29219e-06)
(-2.91659e-05 3.44436e-05 -5.85071e-06)
(-1.0089e-05 3.30538e-05 -5.28257e-06)
(3.65763e-06 2.98688e-05 -3.32506e-06)
(4.26388e-06 2.89297e-05 -3.40875e-06)
(-8.27207e-06 3.36788e-05 -6.86606e-06)
(-2.69027e-05 4.42389e-05 -1.21731e-05)
(-3.91366e-05 5.26484e-05 -1.51259e-05)
(-3.69659e-05 4.89855e-05 -1.40225e-05)
(-2.42427e-05 3.56755e-05 -9.2264e-06)
(-1.29121e-05 2.93777e-05 -5.00083e-06)
(-8.89086e-06 3.84519e-05 -4.48873e-06)
(-1.15179e-05 5.96727e-05 -6.97358e-06)
(-1.2833e-05 8.83078e-05 -1.13279e-05)
(-5.86404e-06 6.58292e-05 -4.70296e-06)
(-4.89802e-06 0.000175369 -4.89802e-06)
(1.27477e-05 0.000160529 8.86322e-07)
(4.2286e-05 0.000127862 4.45937e-06)
(5.61949e-05 8.81173e-05 8.98772e-06)
(6.504e-05 4.85006e-05 1.25728e-05)
(6.4695e-05 1.94388e-05 1.47145e-05)
(5.78779e-05 3.00694e-06 1.53348e-05)
(4.88307e-05 -5.72536e-06 1.47743e-05)
(3.91449e-05 -1.1205e-05 1.42494e-05)
(2.71215e-05 -1.59298e-05 1.35716e-05)
(9.87999e-06 -1.70737e-05 1.20211e-05)
(-1.36193e-05 -1.19608e-05 7.01232e-06)
(-3.91491e-05 2.21284e-06 -3.38068e-07)
(-5.76772e-05 1.63472e-05 -6.79262e-06)
(-6.07274e-05 2.60935e-05 -9.33454e-06)
(-4.81563e-05 2.49941e-05 -9.67595e-06)
(-2.78673e-05 2.05657e-05 -6.87223e-06)
(-1.1006e-05 2.11084e-05 -4.13609e-06)
(-7.58165e-06 2.87802e-05 -4.00723e-06)
(-1.7528e-05 4.39783e-05 -8.15112e-06)
(-3.18903e-05 6.09315e-05 -1.40279e-05)
(-3.89454e-05 7.04317e-05 -1.6968e-05)
(-3.09554e-05 6.25552e-05 -1.42057e-05)
(-1.30233e-05 3.87944e-05 -6.68757e-06)
(-6.69337e-08 1.92268e-05 9.59383e-07)
(-9.39914e-07 2.0031e-05 1.73211e-06)
(-8.08576e-06 3.64217e-05 -5.14214e-07)
(-1.32868e-05 5.90954e-05 -1.55691e-07)
(-5.3704e-06 7.9016e-05 2.11689e-06)
(2.19533e-06 5.44569e-05 2.55883e-07)
(6.23375e-06 0.00015405 6.23374e-06)
(2.82211e-05 0.00011367 1.18857e-05)
(5.05024e-05 8.58274e-05 1.50743e-05)
(5.84277e-05 5.03279e-05 1.72672e-05)
(5.63048e-05 1.83982e-05 1.74001e-05)
(4.56429e-05 -2.33449e-06 1.51364e-05)
(3.27388e-05 -1.3134e-05 1.19076e-05)
(2.20053e-05 -1.82849e-05 8.85228e-06)
(1.2984e-05 -1.9585e-05 6.87027e-06)
(1.52604e-06 -1.56957e-05 5.18e-06)
(-1.59236e-05 -4.13827e-06 2.25086e-06)
(-3.68262e-05 1.21901e-05 -1.65142e-06)
(-5.28862e-05 2.64192e-05 -4.31857e-06)
(-5.68665e-05 2.92651e-05 -5.09014e-06)
(-4.67689e-05 2.07505e-05 -2.57944e-06)
(-2.89677e-05 6.8503e-06 1.57346e-06)
(-1.49889e-05 -6.1497e-07 6.41303e-06)
(-1.36975e-05 9.64967e-06 6.91223e-06)
(-2.48062e-05 3.3859e-05 1.26816e-06)
(-3.84451e-05 6.05288e-05 -6.52532e-06)
(-4.26403e-05 7.59277e-05 -1.06815e-05)
(-3.12286e-05 6.8787e-05 -9.05572e-06)
(-9.04337e-06 4.16515e-05 -1.51431e-06)
(6.53727e-06 1.33176e-05 4.36317e-06)
(2.90273e-06 5.42389e-06 3.76578e-06)
(-1.10186e-05 1.91124e-05 -2.81229e-06)
(-1.93162e-05 3.54482e-05 -6.98759e-06)
(-1.80776e-05 4.82846e-05 -6.78064e-06)
(-7.78607e-06 5.92553e-05 -7.39668e-06)
(-1.45765e-07 4.48283e-05 -6.94538e-06)
(1.41597e-05 0.00010624 1.41597e-05)
(3.57945e-05 6.10283e-05 1.70491e-05)
(4.6866e-05 4.09447e-05 1.83912e-05)
(4.63082e-05 1.70759e-05 1.79749e-05)
(3.51843e-05 -1.37949e-06 1.54348e-05)
(1.91227e-05 -1.20721e-05 1.17882e-05)
(5.29798e-06 -1.82639e-05 8.67124e-06)
(-3.91939e-06 -2.23874e-05 6.94924e-06)
(-1.16067e-05 -2.14732e-05 6.26351e-06)
(-2.1785e-05 -1.18722e-05 5.39504e-06)
(-3.46149e-05 5.41039e-06 3.66296e-06)
(-4.529e-05 2.18413e-05 1.96648e-06)
(-4.68191e-05 2.53773e-05 2.10762e-06)
(-3.59933e-05 1.15941e-05 5.08382e-06)
(-1.86914e-05 -1.20281e-05 9.28606e-06)
(-6.93571e-06 -2.77469e-05 1.33262e-05)
(-9.97473e-06 -2.50392e-05 1.21697e-05)
(-2.35464e-05 3.5902e-06 6.84494e-06)
(-3.73974e-05 3.99226e-05 -1.06915e-06)
(-4.05647e-05 6.23599e-05 -3.32045e-06)
(-2.65013e-05 5.992e-05 3.15865e-07)
(-3.22811e-06 3.42236e-05 8.48176e-06)
(1.13433e-05 2.73902e-06 1.49219e-05)
(3.33819e-06 -9.39803e-06 1.3991e-05)
(-1.71637e-05 1.34077e-06 7.32035e-06)
(-3.10924e-05 1.95372e-05 2.17454e-06)
(-3.42569e-05 2.82934e-05 -1.08767e-06)
(-3.2477e-05 3.17653e-05 -4.15934e-06)
(-1.08174e-05 3.50623e-05 -1.41828e-06)
(4.75719e-06 1.82315e-05 1.51687e-05)
(1.68039e-05 4.64889e-05 1.68039e-05)
(3.41924e-05 1.37457e-05 1.84456e-05)
(3.58092e-05 2.21397e-06 1.88912e-05)
(3.00036e-05 -6.82963e-06 1.75533e-05)
(1.56131e-05 -1.22507e-05 1.48496e-05)
(-3.94759e-07 -1.73496e-05 1.23537e-05)
(-1.30177e-05 -2.45459e-05 1.04952e-05)
(-2.28378e-05 -3.07724e-05 9.65391e-06)
(-3.28141e-05 -2.84573e-05 8.40822e-06)
(-4.35757e-05 -1.4165e-05 5.96142e-06)
(-5.10194e-05 4.55069e-06 2.40432e-06)
(-4.94769e-05 1.44371e-05 5.85413e-07)
(-3.62764e-05 4.35023e-06 1.72539e-06)
(-1.70586e-05 -2.05951e-05 4.43069e-06)
(-3.00027e-06 -4.34667e-05 7.38058e-06)
(-3.57536e-06 -4.54592e-05 5.40781e-06)
(-1.54309e-05 -2.35636e-05 -3.33485e-07)
(-2.59518e-05 1.18555e-05 -5.53439e-06)
(-2.49269e-05 3.92898e-05 -4.55331e-06)
(-6.89184e-06 4.07919e-05 2.23503e-06)
(1.87355e-05 1.78853e-05 1.18958e-05)
(3.15113e-05 -1.25321e-05 1.97612e-05)
(1.98282e-05 -2.75889e-05 2.07331e-05)
(-8.32373e-06 -1.61513e-05 1.44105e-05)