/*--------------------------------*- C++ -*----------------------------------*\
| =========                 |                                                 |
| \\      /  F ield         | OpenFOAM: The Open Source CFD Toolbox           |
|  \\    /   O peration     | Version:  2312                                  |
|   \\  /    A nd           | Website:  www.openfoam.com                      |
|    \\/     M anipulation  |                                                 |
\*---------------------------------------------------------------------------*/
FoamFile
{
    version     2.0;
    format      ascii;
    arch        "LSB;label=32;scalar=64";
    class       surfaceScalarField;
    location    "1.26092662";
    object      alphaPhi0.water;
}
// * * * * * * * * * * * * * * * * * * * * * * * * * * * * * * * * * * * * * //

dimensions      [0 3 -1 0 0 0 0];

oriented        oriented;

internalField   nonuniform List<scalar> 
263100
(
-2.52914e-09
5.058e-09
-2.52914e-09
5.43721e-10
-1.46957e-09
-1.59845e-09
1.79352e-09
4.91122e-11
-1.29497e-09
2.62034e-09
1.27301e-10
-9.50432e-10
3.28892e-09
-1.85362e-10
-4.7983e-10
3.85308e-09
-6.03382e-10
4.22224e-11
4.42003e-09
-9.72026e-10
4.07666e-10
4.80657e-09
-1.15825e-09
7.73858e-10
4.79548e-09
-1.03854e-09
1.05138e-09
4.26765e-09
-5.89205e-10
1.11838e-09
3.28246e-09
3.59648e-11
9.50268e-10
1.92185e-09
7.32021e-10
6.29393e-10
4.99188e-10
1.25713e-09
1.66172e-10
-6.94059e-10
1.4123e-09
-2.18551e-10
-1.29841e-09
1.17587e-09
-5.71086e-10
-1.16442e-09
6.24392e-10
-7.57971e-10
-3.87821e-10
-9.74906e-11
-6.78639e-10
6.08539e-10
-6.38965e-10
-3.56866e-10
1.29794e-09
-8.92608e-10
2.0382e-10
1.20468e-09
-6.0793e-10
7.01901e-10
3.09567e-11
1.29356e-10
1.04522e-09
-2.24096e-09
1.13702e-09
1.13595e-09
-5.24926e-09
2.03981e-09
9.69815e-10
-8.12919e-09
2.32174e-09
5.5982e-10
-9.79342e-09
1.59268e-09
7.35512e-11
-9.05448e-09
-1.58453e-10
-5.78066e-10
-5.15086e-09
-2.75971e-09
-1.14106e-09
3.03769e-09
-5.24009e-09
-2.94518e-09
1.38093e-08
-6.99174e-09
-3.77611e-09
3.75593e-08
-2.37516e-08
3.17402e-10
4.4284e-09
3.17402e-10
2.96241e-10
-1.75029e-09
3.09793e-10
2.27945e-10
-1.49578e-10
2.73774e-10
2.53524e-10
-1.2649e-10
2.34443e-10
4.16647e-10
-5.8876e-10
2.45885e-10
7.47166e-10
-1.17541e-09
2.46382e-10
1.23209e-09
-1.69153e-09
2.38718e-10
1.80842e-09
-1.94621e-09
2.1504e-10
2.404e-09
-1.81886e-09
1.87423e-10
2.92201e-09
-1.30189e-09
1.96812e-10
3.26655e-09
-5.76026e-10
2.69167e-10
3.43609e-09
1.71346e-10
3.92556e-10
3.39662e-09
6.90598e-10
6.07177e-10
3.14204e-09
7.7408e-10
8.93838e-10
2.64629e-09
4.81305e-10
1.19132e-09
1.85195e-09
3.59014e-12
1.4162e-09
8.79443e-10
-6.49969e-10
1.52617e-09
-1.11248e-10
-1.11395e-09
1.467e-09
-1.08463e-09
-1.1282e-09
1.21048e-09
-1.98167e-09
-5.75313e-10
8.6617e-10
-2.73332e-09
3.19161e-10
5.63951e-10
-3.41139e-09
1.4532e-09
3.64468e-10
-3.96357e-09
2.29135e-09
3.03802e-10
-4.13871e-09
2.11893e-09
3.81789e-10
-4.04444e-09
8.05787e-10
6.97252e-10
-4.12323e-09
-1.44566e-09
1.37142e-09
-4.31018e-09
-4.72604e-09
2.15948e-09
-9.58211e-10
-1.272e-08
4.13396e-09
1.02843e-08
-2.51723e-08
6.93924e-09
4.46664e-08
3.17372e-09
1.08343e-09
2.26548e-09
1.08343e-09
-3.45931e-10
-8.07336e-10
4.93378e-10
-1.17252e-09
2.96679e-10
3.86317e-10
-1.73409e-09
2.56208e-10
1.84398e-10
-2.10457e-09
-1.99505e-10
-1.37341e-11
-2.2167e-09
-8.85187e-10
-1.73633e-10
-1.91693e-09
-1.56462e-09
-4.22779e-10
-1.18488e-09
-2.06188e-09
-6.13063e-10
-2.49667e-11
-2.28099e-09
-6.94982e-10
1.44717e-09
-2.14064e-09
-6.31014e-10
3.04265e-09
-1.7739e-09
-3.95594e-10
4.47931e-09
-1.29749e-09
3.39592e-11
5.47459e-09
-7.89697e-10
4.86684e-10
5.65381e-09
-3.61906e-10
9.5834e-10
4.86714e-09
-5.92458e-11
1.32875e-09
3.2434e-09
1.34351e-10
1.49454e-09
1.01941e-09
2.33438e-10
1.34222e-09
-1.30956e-09
2.94617e-10
9.22173e-10
-3.14989e-09
3.87965e-10
3.26121e-10
-4.05448e-09
5.76755e-10
-2.45264e-10
-3.91581e-09
8.68687e-10
-6.85615e-10
-2.73469e-09
1.18105e-09
-9.05939e-10
-8.40404e-10
1.21994e-09
-8.19295e-10
1.22636e-09
5.83398e-10
-5.26971e-10
3.01008e-09
-7.17125e-10
-2.55847e-10
3.83285e-09
-2.19269e-09
-7.00539e-11
1.62865e-09
-2.95982e-09
4.4445e-10
-4.76077e-09
-9.23526e-09
2.91215e-09
-3.27651e-09
-3.38251e-08
7.18065e-09
2.73392e-08
1.40648e-08
1.18639e-09
-1.03526e-10
1.18639e-09
-6.43899e-10
4.59383e-10
5.70173e-10
-1.77191e-09
1.0199e-09
4.10525e-10
-2.62375e-09
9.53574e-10
1.59792e-10
-3.26561e-09
5.43806e-10
-9.65023e-11
-3.6726e-09
-1.43714e-10
-3.30002e-10
-3.63833e-09
-9.56772e-10
-6.38084e-10
-3.07637e-09
-1.7254e-09
-8.94825e-10
-1.97354e-09
-2.36121e-09
-1.01943e-09
-3.8597e-10
-2.73882e-09
-9.86536e-10
1.47364e-09
-2.83583e-09
-7.95121e-10
3.24638e-09
-2.61321e-09
-4.54612e-10
4.49596e-09
-2.0254e-09
-1.15786e-11
4.94071e-09
-1.05962e-09
2.55212e-10
4.37535e-09
1.21471e-10
3.86889e-10
2.86678e-09
1.343e-09
3.02214e-10
7.53072e-10
2.31733e-09
3.2128e-11
-1.39722e-09
2.84696e-09
-3.99623e-10
-2.9437e-09
2.7836e-09
-8.4649e-10
-3.37928e-09
2.22559e-09
-1.21027e-09
-2.457e-09
1.38721e-09
-1.43738e-09
-3.12869e-10
5.30761e-10
-1.48989e-09
2.41813e-09
-1.76301e-10
-1.33017e-09
4.99231e-09
-9.87777e-10
-9.97842e-10
6.75891e-09
-1.89173e-09
-5.86198e-10
8.1738e-09
-2.98519e-09
-6.16099e-10
1.01309e-08
-2.55381e-09
-2.35664e-09
3.38525e-09
4.3978e-10
-2.92265e-09
-8.69907e-09
-1.92491e-08
-2.48292e-09
1.32759e-08
5.37081e-09
1.16769e-09
-2.43522e-09
1.16769e-09
-4.29005e-10
1.3959e-09
6.66437e-10
-1.42701e-09
1.46716e-09
5.56211e-10
-2.19147e-09
1.36035e-09
3.62846e-10
-2.85257e-09
1.06986e-09
1.39965e-10
-3.35913e-09
4.58047e-10
-9.06221e-11
-3.60564e-09
-4.32965e-10
-2.73022e-10
-3.54785e-09
-1.36362e-09
-4.15612e-10
-3.08366e-09
-2.2471e-09
-5.74621e-10
-2.22097e-09
-2.9897e-09
-6.08412e-10
-1.09131e-09
-3.39705e-09
-5.65246e-10
7.57905e-11
-3.31337e-09
-4.63999e-10
1.08252e-09
-2.63817e-09
-3.91149e-10
1.69855e-09
-1.30332e-09
-3.69589e-10
1.8094e-09
4.79146e-10
-4.6579e-10
1.35827e-09
2.42514e-09
-6.28249e-10
5.1029e-10
3.96595e-09
-7.97727e-10
-3.79804e-10
4.67871e-09
-9.38538e-10
-8.53774e-10
4.33014e-09
-1.06919e-09
-5.63126e-10
3.11095e-09
-1.1723e-09
5.76589e-10
1.49263e-09
-1.24097e-09
2.42243e-09
-4.81845e-11
-1.26217e-09
4.61852e-09
-1.15185e-09
-1.21525e-09
6.46993e-09
-1.73089e-09
-1.1025e-09
7.27971e-09
-1.78226e-09
-9.12937e-10
6.78244e-09
-1.99994e-09
-4.81299e-10
6.78624e-09
-1.95339e-09
-5.97361e-10
4.54258e-09
4.4244e-09
-1.73421e-09
-5.40877e-09
-5.5691e-09
-3.72143e-09
8.53098e-09
-6.58598e-10
8.25539e-10
-4.08283e-09
8.25539e-10
9.45965e-11
1.5311e-09
6.01836e-10
-2.45792e-10
1.22934e-09
5.83634e-10
-4.89759e-10
1.07913e-09
5.30374e-10
-8.04981e-10
9.09443e-10
4.80677e-10
-1.20951e-09
4.50005e-10
4.17378e-10
-1.70627e-09
-2.91724e-10
3.60102e-10
-2.27323e-09
-1.13907e-09
3.46772e-10
-2.86188e-09
-1.98555e-09
3.31239e-10
-3.34282e-09
-2.75915e-09
2.54287e-10
-3.5937e-09
-3.24194e-09
9.94508e-11
-3.5669e-09
-3.28949e-09
-4.72238e-11
-3.1732e-09
-2.73444e-09
-2.94195e-10
-2.41982e-09
-1.51706e-09
-5.36553e-10
-1.42622e-09
2.06381e-10
-7.17897e-10
-3.61461e-10
2.17318e-09
-8.09901e-10
6.08803e-10
3.75292e-09
-7.54239e-10
1.42631e-09
4.46595e-09
-6.01521e-10
2.13072e-09
4.04857e-09
-4.1926e-10
2.79153e-09
2.73231e-09
-2.78117e-10
3.52631e-09
1.00491e-09
-2.42469e-10
4.36373e-09
-5.75112e-10
-3.0538e-10
5.16092e-09
-1.5049e-09
-4.38524e-10
5.6914e-09
-1.62845e-09
-6.26927e-10
5.65682e-09
-8.28723e-10
-9.12728e-10
4.01331e-09
7.75828e-10
-1.12592e-09
1.58153e-09
1.6046e-09
-1.11991e-09
8.36261e-10
7.55853e-09
-2.38269e-09
-3.80907e-09
3.75815e-09
-4.67586e-09
7.59418e-09
-2.86773e-09
-1.93115e-11
-4.04076e-09
-1.93114e-11
6.29186e-10
8.01584e-10
8.72302e-11
1.36972e-09
3.09356e-10
1.85033e-10
2.00333e-09
1.76374e-10
2.74547e-10
2.36542e-09
1.25161e-10
4.27512e-10
2.29337e-09
-6.11722e-11
5.8839e-10
1.64272e-09
-3.866e-10
7.50523e-10
4.45947e-10
-8.28857e-10
8.91419e-10
-1.19374e-09
-1.3085e-09
9.67255e-10
-3.0766e-09
-1.79342e-09
9.21483e-10
-4.86785e-09
-2.18746e-09
7.40849e-10
-6.09465e-09
-2.43129e-09
3.72387e-10
-6.40213e-09
-2.38098e-09
-4.25088e-11
-5.68895e-09
-1.86252e-09
-3.64494e-10
-4.07894e-09
-8.91891e-10
-5.08705e-10
-1.84868e-09
3.63493e-10
-4.17578e-10
5.34908e-10
1.50878e-09
-1.36398e-10
2.66217e-09
2.11543e-09
2.26587e-10
4.20196e-09
1.93008e-09
5.82481e-10
5.04617e-09
1.03322e-09
8.59207e-10
5.25169e-09
-2.4928e-10
1.05354e-09
4.93791e-09
-1.2741e-09
1.01813e-09
4.25904e-09
-1.66514e-09
8.44835e-10
3.14861e-09
-1.1226e-09
6.10477e-10
1.81579e-09
4.0076e-10
1.09258e-10
-1.37584e-11
3.16747e-09
-5.56296e-10
-2.49609e-09
5.34773e-09
-1.2552e-09
-2.21509e-09
9.49648e-09
-2.21374e-09
-3.28056e-09
8.01724e-09
-3.18859e-09
6.07315e-09
-1.75548e-09
-1.22308e-09
-1.59115e-09
-1.22308e-09
9.44199e-10
-6.01925e-10
-7.57318e-10
2.79141e-09
-9.19581e-10
-6.12417e-10
4.39355e-09
-9.79714e-10
-4.40342e-10
5.53451e-09
-8.6026e-10
-1.49867e-10
5.93476e-09
-6.18188e-10
1.62366e-10
5.35965e-09
-2.92779e-10
4.86778e-10
3.81243e-09
-1.58902e-11
7.3962e-10
1.4533e-09
1.8141e-10
8.74403e-10
-1.36757e-09
1.95492e-10
8.36803e-10
-4.13953e-09
-6.47301e-11
6.53713e-10
-6.27074e-09
-6.61748e-10
3.65774e-10
-7.28929e-09
-1.44506e-09
8.63736e-11
-6.97389e-09
-2.10566e-09
-6.87898e-11
-5.40557e-09
-2.38084e-09
-7.60794e-11
-2.93784e-09
-2.2302e-09
1.29231e-10
-1.12675e-10
-1.7629e-09
4.49953e-10
2.51504e-09
-1.35847e-09
8.49953e-10
4.39778e-09
-1.23217e-09
1.28378e-09
5.29056e-09
-1.53954e-09
1.6848e-09
5.19726e-09
-2.06695e-09
1.91628e-09
4.33206e-09
-2.40161e-09
1.99842e-09
2.84684e-09
-2.1099e-09
1.93588e-09
8.40129e-10
-8.39266e-10
1.72927e-09
-1.40897e-09
1.26172e-09
1.39388e-09
-3.02637e-09
4.15298e-09
6.3741e-10
-4.47209e-09
6.80182e-09
-3.26444e-12
-3.11147e-09
8.43974e-09
-2.9897e-10
-1.70202e-09
6.75707e-09
-1.44266e-10
3.15911e-09
1.21618e-09
-2.07689e-09
2.56623e-09
-2.07689e-09
1.21599e-09
-2.45454e-09
-1.43357e-09
3.8749e-09
-2.27599e-09
-1.29646e-09
6.10828e-09
-2.1965e-09
-1.01056e-09
7.70029e-09
-1.77332e-09
-6.72849e-10
8.39782e-09
-1.01075e-09
-2.9875e-10
8.01209e-09
6.07971e-11
3.8253e-11
6.50578e-09
1.28322e-09
2.13219e-10
4.10323e-09
2.26035e-09
3.29431e-10
1.1912e-09
2.75799e-09
3.55039e-10
-1.69561e-09
2.50532e-09
3.21939e-10
-4.054e-09
1.43626e-09
2.65116e-10
-5.49826e-09
-2.76525e-10
2.80091e-10
-5.88344e-09
-2.08782e-09
3.71477e-10
-5.21192e-09
-3.57224e-09
5.23925e-10
-3.67337e-09
-4.46331e-09
6.98681e-10
-1.65363e-09
-4.73643e-09
9.58139e-10
3.586e-10
-4.60426e-09
1.2383e-09
2.03919e-09
-4.39249e-09
1.48497e-09
3.06657e-09
-4.22981e-09
1.6686e-09
3.27034e-09
-4.04141e-09
1.77679e-09
2.59631e-09
-3.58523e-09
1.86393e-09
1.20031e-09
-2.57898e-09
1.87142e-09
-6.38416e-10
-7.2391e-10
1.72962e-09
-2.53934e-09
1.68116e-09
1.48749e-09
-3.57459e-09
4.03209e-09
1.16181e-09
-3.39054e-09
5.42672e-09
1.19659e-09
-1.32418e-09
4.72189e-09
1.65715e-09
3.4346e-10
2.50646e-09
2.58876e-09
7.24484e-10
2.78315e-09
-2.13232e-09
6.8346e-09
-2.13232e-09
1.58759e-09
-4.84975e-09
-1.31789e-09
4.37754e-09
-4.00779e-09
-1.05201e-09
6.61265e-09
-3.75851e-09
-6.66782e-10
8.08036e-09
-2.9456e-09
-2.88955e-10
8.62444e-09
-1.57724e-09
2.91806e-11
8.28997e-09
2.4324e-10
1.58893e-10
7.14549e-09
2.16272e-09
2.71949e-10
5.44323e-09
3.74015e-09
2.29276e-10
3.43095e-09
4.53783e-09
2.38923e-10
1.36801e-09
4.2126e-09
3.61787e-10
-5.2763e-10
2.76371e-09
5.73978e-10
-2.16353e-09
5.39137e-10
8.25766e-10
-3.43173e-09
-1.89748e-09
1.08322e-09
-4.23958e-09
-4.02543e-09
1.26642e-09
-4.51029e-09
-5.53411e-09
1.34701e-09
-4.15818e-09
-6.33773e-09
1.25497e-09
-3.21549e-09
-6.59878e-09
1.05806e-09
-1.95969e-09
-6.50373e-09
8.62077e-10
-8.02197e-10
-6.12762e-09
7.47281e-10
-8.76355e-11
-5.45581e-09
7.06961e-10
-5.59997e-12
-4.34284e-09
6.82776e-10
-5.33632e-10
-2.63958e-09
5.95809e-10
-1.30455e-09
-3.95792e-10
4.49899e-10
-1.87734e-09
1.97263e-09
2.88293e-10
-1.50624e-09
3.27176e-09
3.96193e-10
-1.2886e-10
3.0256e-09
1.03084e-09
1.30079e-09
1.56692e-09
1.73257e-09
1.14691e-09
6.0168e-10
2.06603e-09
7.58136e-10
1.11975e-09
-5.19921e-10
7.87827e-09
-5.19921e-10
2.22858e-09
-7.92798e-09
3.37343e-10
3.95228e-09
-6.28252e-09
5.57866e-10
5.05999e-09
-5.64306e-09
7.83993e-10
5.55293e-09
-4.40722e-09
9.76013e-10
5.49403e-09
-2.53845e-09
1.02784e-09
5.1557e-09
-3.46691e-10
9.36132e-10
4.71734e-09
1.92762e-09
6.81508e-10
4.35689e-09
3.62434e-09
4.84309e-10
3.99053e-09
4.48505e-09
4.27079e-10
3.45392e-09
4.20005e-09
5.56797e-10
2.49336e-09
2.88239e-09
8.49222e-10
9.47207e-10
9.43276e-10
1.14916e-09
-1.1407e-09
-1.08206e-09
1.2796e-09
-3.39162e-09
-2.99929e-09
1.23193e-09
-5.35972e-09
-4.48835e-09
9.29681e-10
-6.55977e-09
-5.57164e-09
4.41529e-10
-6.75014e-09
-6.31699e-09
-8.36578e-11
-6.05751e-09
-6.74274e-09
-4.45681e-10
-4.82609e-09
-6.69452e-09
-6.56447e-10
-3.5046e-09
-5.98995e-09
-7.7917e-10
-2.50147e-09
-4.55358e-09
-7.84183e-10
-1.88992e-09
-2.43328e-09
-8.09628e-10
-1.19291e-09
-3.27075e-10
-7.57453e-10
-1.84311e-10
1.46667e-09
-4.94131e-10
1.15919e-09
1.9399e-09
-2.8736e-12
2.38667e-09
1.38724e-09
4.19819e-10
2.26978e-09
1.0409e-09
6.51991e-10
8.17524e-10
2.04565e-09
1.75475e-11
2.1675e-09
-5.83727e-10
2.16595e-09
3.55077e-09
2.16595e-09
2.29122e-09
-1.06301e-08
2.58595e-09
1.80229e-09
-8.72814e-09
2.94265e-09
8.53751e-10
-7.52365e-09
2.83762e-09
-1.92333e-10
-5.8781e-09
2.52567e-09
-9.6189e-10
-3.6894e-09
1.92967e-09
-1.17888e-09
-1.28606e-09
1.1657e-09
-5.28896e-10
7.82609e-10
5.04509e-10
8.02015e-10
2.30582e-09
-2.90429e-12
2.36119e-09
3.07586e-09
-1.40593e-10
3.54797e-09
3.10832e-09
-8.57568e-11
3.69431e-09
2.6803e-09
6.48389e-11
2.5377e-09
1.96768e-09
1.41184e-10
3.06787e-10
1.16509e-09
-7.24983e-12
-2.60076e-09
2.55265e-10
-3.37898e-10
-5.44246e-09
-7.94147e-10
-8.43339e-10
-7.49552e-09
-2.13962e-09
-1.36978e-09
-8.36664e-09
-3.64579e-09
-1.79093e-09
-8.0505e-09
-4.9797e-09
-2.07006e-09
-6.88534e-09
-5.72563e-09
-2.12499e-09
-5.34112e-09
-5.56425e-09
-1.9609e-09
-3.71152e-09
-4.48175e-09
-1.69232e-09
-2.05614e-09
-2.7586e-09
-1.32076e-09
-2.76758e-10
-1.2128e-09
-8.84099e-10
1.66458e-09
-1.66764e-10
-2.98081e-10
3.16231e-09
2.3422e-10
2.18172e-10
3.44231e-09
5.67753e-10
5.50046e-10
2.20701e-09
1.95277e-09
3.34205e-10
7.37858e-10
3.66022e-09
-1.3448e-10
2.56042e-09
3.54239e-10
4.75396e-09
-5.95217e-09
4.75396e-09
1.08313e-09
-1.12502e-08
4.30241e-09
-2.13248e-09
-9.35195e-09
3.84955e-09
-5.02469e-09
-7.60412e-09
2.98319e-09
-7.375e-09
-5.4638e-09
1.94663e-09
-8.60761e-09
-3.20318e-09
7.57314e-10
-8.353e-09
-1.23618e-09
-2.93608e-10
-6.60056e-09
1.05934e-10
-1.06475e-09
-3.69136e-09
1.0083e-09
-1.6007e-09
-4.39292e-10
1.58041e-09
-1.7457e-09
2.13612e-09
2.21284e-09
-1.66915e-09
3.29608e-09
3.14846e-09
-1.61742e-09
2.82578e-09
4.1789e-09
-1.73027e-09
1.01704e-09
5.02836e-09
-2.0439e-09
-1.50516e-09
5.25476e-09
-2.46669e-09
-3.99521e-09
4.55368e-09
-2.84725e-09
-5.86926e-09
2.85591e-09
-3.11117e-09
-6.79296e-09
4.82355e-10
-3.19437e-09
-6.77897e-09
-1.91683e-09
-3.06693e-09
-6.08469e-09
-3.67475e-09
-2.73541e-09
-4.94375e-09
-4.40921e-09
-2.28621e-09
-3.39249e-09
-4.22691e-09
-1.79612e-09
-1.43529e-09
-3.45426e-09
-1.25118e-09
7.16753e-10
-2.68807e-09
-6.65992e-10
2.68939e-09
-2.08586e-09
-4.22588e-11
3.70903e-09
-1.26779e-09
4.94087e-10
3.33407e-09
2.37404e-10
7.1743e-10
2.24605e-09
2.31731e-09
7.35721e-10
1.41544e-09
3.3746e-09
1.1286e-09
2.23854e-09
1.74786e-09
4.8678e-09
-1.56814e-08
4.8678e-09
-1.7104e-09
-7.2313e-09
2.57319e-09
-6.94651e-09
-5.74174e-09
1.63837e-09
-1.08562e-08
-3.94956e-09
2.6766e-10
-1.34835e-08
-2.01514e-09
-8.08904e-10
-1.43269e-08
-5.51547e-10
-1.79563e-09
-1.315e-08
1.97553e-10
-2.59803e-09
-1.02124e-08
1.39317e-10
-2.95865e-09
-6.27982e-09
2.50298e-11
-2.9371e-09
-2.32516e-09
4.22219e-10
-2.78436e-09
6.74931e-10
1.83498e-09
-2.6102e-09
2.36117e-09
4.08016e-09
-2.60594e-09
2.60279e-09
6.75361e-09
-2.80424e-09
1.81155e-09
8.91774e-09
-3.08609e-09
4.99469e-10
9.8606e-09
-3.28196e-09
-8.72698e-10
9.25948e-09
-3.32219e-09
-2.03455e-09
7.19119e-09
-3.1624e-09
-2.89616e-09
4.15899e-09
-2.80434e-09
-3.5136e-09
1.05915e-09
-2.3481e-09
-3.83398e-09
-1.41085e-09
-1.9331e-09
-3.72057e-09
-2.86398e-09
-1.64802e-09
-2.96426e-09
-3.54512e-09
-1.42704e-09
-1.52594e-09
-3.64947e-09
-1.23154e-09
2.66174e-10
-3.42898e-09
-1.03905e-09
1.75453e-09
-2.7445e-09
-8.16962e-10
2.34825e-09
-1.16935e-09
-6.79013e-10
2.20773e-09
1.1039e-09
-7.12526e-10
2.03984e-09
2.88584e-09
-3.87e-10
1.33064e-09
3.7707e-09
3.26857e-10
3.9471e-09
-3.66293e-10
1.59316e-09
-1.88595e-08
1.59316e-09
-5.51501e-09
8.70204e-10
-9.76927e-10
-1.05391e-08
1.11585e-09
-1.8187e-09
-1.3826e-08
2.18273e-09
-2.83061e-09
-1.53986e-08
2.99953e-09
-3.4275e-09
-1.50424e-08
2.69153e-09
-3.58483e-09
-1.28197e-08
1.3434e-09
-3.35477e-09
-9.39344e-09
-3.7771e-10
-2.89602e-09
-5.7062e-09
-1.35904e-09
-2.29008e-09
-2.49067e-09
-9.29354e-10
-1.85101e-09
-1.37144e-10
1.15672e-09
-1.66242e-09
1.38308e-09
4.35951e-09
-1.78675e-09
2.30199e-09
7.88404e-09
-2.03655e-09
2.82782e-09
1.05957e-08
-2.19117e-09
3.06572e-09
1.17287e-08
-2.09365e-09
2.97988e-09
1.11064e-08
-1.74922e-09
2.3964e-09
8.99999e-09
-1.21384e-09
1.22534e-09
5.97017e-09
-6.28895e-10
-3.68048e-10
2.93045e-09
-2.66772e-10
-2.06182e-09
4.7549e-10
-1.81205e-10
-3.23038e-09
-1.3076e-09
-3.75994e-10
-3.55981e-09
-2.41096e-09
-7.92377e-10
-2.9635e-09
-2.99927e-09
-1.23355e-09
-1.911e-09
-2.86725e-09
-1.60069e-09
-9.59051e-10
-1.73902e-09
-1.9433e-09
-3.72193e-10
5.31603e-10
-2.27321e-09
2.3022e-11
3.13574e-09
-2.41203e-09
1.00004e-10
4.99319e-09
-2.16885e-09
-4.59197e-10
6.74647e-09
-2.40069e-09
6.55059e-09
-3.04908e-09
-2.30532e-09
-1.42395e-08
-2.30532e-09
-7.52556e-09
1.02564e-08
-4.14689e-09
-1.05712e-08
8.32746e-09
-4.14842e-09
-1.19547e-08
7.7849e-09
-4.20134e-09
-1.16804e-08
6.46144e-09
-3.72004e-09
-9.96764e-09
3.92599e-09
-2.93183e-09
-7.49976e-09
8.08245e-10
-1.91802e-09
-5.0788e-09
-1.82395e-09
-9.60494e-10
-3.10435e-09
-3.09094e-09
-2.28703e-10
-1.73838e-09
-2.336e-09
5.43378e-11
-8.03262e-10
3.10211e-10
-7.50695e-11
2.53869e-10
3.78623e-09
-4.70415e-10
1.68466e-09
7.32269e-09
-8.56126e-10
3.39419e-09
9.78197e-09
-8.82664e-10
4.89833e-09
1.07738e-08
-5.3653e-10
5.63847e-09
1.02901e-08
8.86258e-11
5.24963e-09
8.64291e-09
7.58042e-10
3.62581e-09
6.43558e-09
1.17045e-09
1.15305e-09
4.19345e-09
1.22201e-09
-1.41933e-09
2.14068e-09
9.19932e-10
-3.28111e-09
1.77203e-10
3.90316e-10
-4.12702e-09
-1.50887e-09
-4.22131e-11
-4.16746e-09
-2.53575e-09
-4.08581e-10
-3.90995e-09
-2.41992e-09
-6.8987e-10
-3.72904e-09
-9.02321e-10
-1.00224e-09
-3.49783e-09
1.5827e-09
-1.26641e-09
-3.029e-09
4.03569e-09
-1.35246e-09
-2.62531e-09
6.12355e-09
-1.51729e-09
-1.7952e-09
7.96536e-09
-2.03197e-09
5.43381e-09
-6.63708e-10
-4.49767e-09
-5.23309e-09
-4.49767e-09
-6.21701e-09
1.64562e-08
-4.45748e-09
-6.5769e-09
1.25175e-08
-3.8106e-09
-5.81442e-09
1.01496e-08
-3.10885e-09
-4.18703e-09
6.89836e-09
-2.04691e-09
-2.27916e-09
2.92738e-09
-8.92773e-10
-8.52724e-10
-7.11346e-10
1.08831e-10
-3.33833e-10
-3.10656e-09
7.78764e-10
-6.38929e-10
-3.72243e-09
9.51253e-10
-1.30852e-09
-2.20826e-09
5.56221e-10
-1.48638e-09
5.94276e-10
-9.19721e-11
-6.65114e-10
3.64591e-09
-6.66869e-10
1.22216e-09
6.25398e-09
-8.04695e-10
3.55552e-09
7.98024e-09
-5.18063e-10
5.49481e-09
8.72981e-09
1.18045e-10
6.31682e-09
8.72013e-09
7.60971e-10
5.67822e-09
8.10038e-09
1.19398e-09
3.79799e-09
7.01574e-09
1.31315e-09
1.36902e-09
5.45833e-09
1.17769e-09
-7.78305e-10
3.36007e-09
9.42168e-10
-2.22772e-09
8.5817e-10
7.8325e-10
-2.98302e-09
-1.60746e-09
8.69155e-10
-3.51269e-09
-3.18464e-09
1.19422e-09
-4.18601e-09
-3.19422e-09
1.46363e-09
-4.89164e-09
-1.69561e-09
1.51533e-09
-5.01081e-09
1.29702e-10
1.58911e-09
-4.51286e-09
1.85042e-09
1.70497e-09
-3.47153e-09
3.21774e-09
1.8829e-09
-1.02678e-09
3.14296e-09
2.39664e-09
-1.10067e-10
4.53304e-09
-3.79828e-09
2.37566e-09
-3.79828e-09
-2.46281e-09
1.79238e-08
-2.78025e-09
-1.08195e-09
1.32878e-08
-2.13115e-09
6.91368e-10
9.80234e-09
-1.407e-09
2.46019e-09
5.76607e-09
-6.18448e-10
3.61425e-09
1.75947e-09
3.09426e-11
3.72583e-09
-1.14441e-09
3.37788e-10
2.62437e-09
-2.33125e-09
3.41937e-10
8.31357e-10
-1.8717e-09
-4.23405e-11
-5.89252e-10
-2.33422e-10
-5.39043e-10
-1.0064e-09
1.88335e-09
-8.56915e-10
-8.15281e-11
3.51746e-09
-7.81702e-10
1.74285e-09
4.78093e-09
-3.3689e-10
3.68084e-09
5.69221e-09
3.64204e-10
4.90914e-09
6.50564e-09
1.00976e-09
5.03002e-09
7.24264e-09
1.37033e-09
4.12803e-09
7.63396e-09
1.38227e-09
2.68673e-09
7.27943e-09
1.19193e-09
1.31276e-09
5.87127e-09
9.75882e-10
3.45711e-10
3.37662e-09
9.65827e-10
-2.94339e-10
3.22454e-10
1.19145e-09
-1.14257e-09
-2.3349e-09
1.59159e-09
-2.43805e-09
-3.76609e-09
1.8931e-09
-3.92862e-09
-3.60552e-09
1.91837e-09
-4.87002e-09
-2.58858e-09
1.85132e-09
-4.73939e-09
-1.99532e-09
2.01192e-09
-3.57606e-09
-1.80769e-09
2.51301e-09
-1.61227e-09
-1.94567e-09
3.21853e-09
2.66628e-10
-3.10693e-09
4.39029e-09
-3.16743e-09
3.34001e-09
-2.25191e-09
6.89227e-09
-2.25191e-09
4.63665e-10
1.65124e-08
-1.28169e-09
2.74907e-09
1.2172e-08
-1.14975e-09
4.65118e-09
8.74285e-09
-8.23666e-10
6.14183e-09
4.81972e-09
-5.26139e-10
6.70081e-09
1.48428e-09
-2.66377e-10
6.13802e-09
-5.1662e-10
-4.8207e-11
4.75757e-09
-9.40862e-10
6.56512e-12
3.11957e-09
-2.52819e-10
3.52247e-11
1.90365e-09
8.35786e-10
1.62557e-10
1.63839e-09
1.61269e-09
5.51486e-10
2.16633e-09
1.77455e-09
1.23027e-09
2.82502e-09
2.11827e-09
2.0189e-09
3.04427e-09
2.80339e-09
2.6842e-09
2.67493e-09
4.05339e-09
2.83601e-09
1.88881e-09
5.55103e-09
2.49218e-09
1.13972e-09
6.48632e-09
1.91143e-09
7.63513e-10
6.22052e-09
1.45028e-09
7.11062e-10
4.65582e-09
1.28341e-09
6.16514e-10
2.1567e-09
1.33013e-09
-1.99213e-10
-3.18753e-10
1.47263e-09
-1.89513e-09
-1.9594e-09
1.33614e-09
-4.06599e-09
-2.3297e-09
7.50364e-10
-5.63279e-09
-1.84174e-09
-1.80689e-10
-5.75448e-09
-1.83488e-09
-6.15145e-10
-4.61622e-09
-2.62584e-09
-4.90293e-10
-2.89703e-09
-3.22973e-09
-2.79005e-10
-1.3125e-09
-3.24079e-09
-2.70825e-10
-1.0184e-09
-2.50483e-09
-8.77452e-10
-9.24193e-10
-3.24644e-09
-1.15439e-09
9.21362e-09
-1.15439e-09
2.11596e-09
1.39467e-08
-6.83156e-10
4.64165e-09
1.03482e-08
-6.82797e-10
6.81038e-09
6.92633e-09
-3.33849e-10
8.35944e-09
3.16253e-09
1.25959e-10
9.08131e-09
1.69533e-10
6.10263e-10
8.76054e-09
-1.16463e-09
9.85738e-10
7.80186e-09
-1.34161e-09
1.37612e-09
6.73422e-09
-1.0262e-09
1.85744e-09
5.92269e-09
-8.67844e-10
2.53137e-09
5.1972e-09
-9.87083e-10
3.34114e-09
4.13572e-09
-1.40377e-09
4.25524e-09
2.4316e-09
-8.41191e-10
4.67862e-09
3.51421e-10
6.25471e-10
4.27287e-09
-1.53308e-09
2.61676e-09
3.33591e-09
-2.51228e-09
4.34834e-09
2.19677e-09
-2.40219e-09
5.04488e-09
1.34658e-09
-1.59219e-09
4.38774e-09
1.03834e-09
-8.79877e-10
2.92438e-09
1.03465e-09
-1.21131e-09
1.37842e-09
1.12507e-09
-2.92192e-09
4.85709e-10
9.21311e-10
-5.43729e-09
4.57477e-10
1.13629e-10
-7.5556e-09
8.17303e-10
-1.01326e-09
-7.92453e-09
1.08498e-10
-1.56524e-09
-6.50995e-09
-1.75059e-09
-1.48255e-09
-4.62189e-09
-3.21953e-09
-1.27773e-09
-3.26064e-09
-3.10076e-09
-1.47321e-09
-2.72377e-09
-1.49532e-09
-2.26521e-09
-2.89467e-09
1.63356e-09
-3.95018e-09
-3.39939e-11
-3.77114e-09
-2.45828e-10
9.7172e-09
-2.45828e-10
3.40367e-09
9.9911e-09
3.25766e-10
6.37442e-09
6.76689e-09
6.28299e-10
8.90279e-09
3.14769e-09
1.2677e-09
1.06612e-08
-5.27923e-10
1.94909e-09
1.13335e-08
-2.96521e-09
2.47939e-09
1.12749e-08
-4.0312e-09
2.94192e-09
1.07018e-08
-4.13951e-09
3.3876e-09
9.80893e-09
-4.0759e-09
3.95884e-09
8.54949e-09
-4.08664e-09
4.49426e-09
6.45397e-09
-3.78407e-09
4.90814e-09
3.27243e-09
-2.81547e-09
4.60847e-09
-4.2364e-10
-7.59165e-10
3.62899e-09
-3.60767e-09
1.58254e-09
2.24196e-09
-5.56391e-09
3.84575e-09
7.42237e-10
-5.75509e-09
4.48082e-09
7.41936e-11
-4.57966e-09
3.91504e-09
-2.9856e-11
-3.28773e-09
2.98168e-09
1.29636e-10
-3.10543e-09
2.3329e-09
4.24466e-10
-4.48337e-09
2.43058e-09
3.407e-10
-6.76924e-09
3.07496e-09
-2.88741e-10
-8.75032e-09
3.58539e-09
-1.13198e-09
-9.02929e-09
2.3868e-09
-1.27581e-09
-7.54861e-09
-7.24747e-10
-6.32378e-10
-5.61096e-09
-4.0186e-09
3.45387e-10
-4.44155e-09
-5.16754e-09
7.9376e-10
-4.0606e-09
-3.88962e-09
4.23092e-10
-3.7347e-09
-1.61647e-09
-1.89641e-10
-2.27479e-09
9.21062e-10
-7.32607e-10
-2.75881e-09
4.61944e-10
1.28227e-09
7.16349e-09
1.28227e-09
5.46456e-09
3.60109e-09
2.22577e-09
8.61997e-09
8.45871e-10
2.78183e-09
1.0956e-08
-2.59407e-09
3.42186e-09
1.20739e-08
-5.58211e-09
3.95227e-09
1.21792e-08
-7.3385e-09
4.28407e-09
1.16815e-08
-7.76084e-09
4.24337e-09
1.09526e-08
-7.47484e-09
4.08019e-09
9.77542e-09
-6.79121e-09
3.90828e-09
7.7061e-09
-5.62728e-09
3.62541e-09
4.45598e-09
-3.62554e-09
3.10675e-09
3.64761e-10
-7.79416e-10
2.07011e-09
-3.54682e-09
2.42494e-09
7.42499e-10
-6.14737e-09
4.3544e-09
-1.55964e-10
-6.67877e-09
4.75504e-09
-3.61809e-10
-5.72013e-09
3.59917e-09
-6.10794e-11
-4.44285e-09
2.14742e-09
5.0636e-10
-4.3593e-09
1.93537e-09
9.78711e-10
-5.80044e-09
2.81575e-09
9.73795e-10
-8.13692e-09
4.50306e-09
2.78897e-10
-9.8943e-09
5.44267e-09
-5.95625e-10
-9.82497e-09
4.29469e-09
-7.64205e-10
-7.8871e-09
3.02292e-10
1.60787e-10
-5.59805e-09
-4.37548e-09
1.37571e-09
-4.65613e-09
-7.30434e-09
2.35764e-09
-4.84607e-09
-7.10746e-09
2.14341e-09
-4.7514e-09
-5.60519e-09
1.63393e-09
-3.72727e-09
-4.41778e-09
1.78964e-09
-1.22849e-09
-3.89732e-09
2.33188e-09
-6.28963e-09
2.31245e-09
3.31824e-09
5.36699e-10
3.31824e-09
7.38676e-09
-4.69141e-09
4.23974e-09
1.01069e-08
-6.62358e-09
4.7634e-09
1.14582e-08
-8.92226e-09
4.99137e-09
1.15262e-08
-1.04703e-08
4.83479e-09
1.0807e-08
-1.08346e-08
4.23032e-09
9.96101e-09
-1.04387e-08
3.53902e-09
9.11558e-09
-9.57626e-09
2.96198e-09
7.81937e-09
-8.11029e-09
2.63033e-09
5.49926e-09
-5.60892e-09
2.3167e-09
2.24239e-09
-2.20913e-09
1.8554e-09
-1.23636e-09
1.56381e-09
1.15086e-09
-3.73719e-09
4.05022e-09
8.91579e-10
-4.63947e-09
4.2508e-09
1.02236e-09
-4.10266e-09
2.51951e-09
1.71574e-09
-3.44419e-09
3.0518e-10
2.65298e-09
-4.04495e-09
-7.14816e-10
3.48039e-09
-6.27027e-09
7.03675e-10
3.47404e-09
-9.21925e-09
3.32069e-09
2.4605e-09
-1.12665e-08
5.41179e-09
1.15428e-09
-1.13483e-08
4.74639e-09
7.93186e-10
-9.16741e-09
7.31227e-10
1.39721e-09
-6.67649e-09
-4.71364e-09
2.53885e-09
-5.73658e-09
-8.69129e-09
3.38898e-09
-6.51644e-09
-9.51219e-09
3e-09
-7.11686e-09
-8.2638e-09
1.76808e-09
-6.31876e-09
-7.85615e-09
1.46323e-09
-4.24302e-09
-8.26513e-09
1.78137e-09
-1.58847e-09
-8.28596e-09
1.7435e-09
-9.71443e-09
1.8436e-09
4.83469e-09
-9.12448e-09
4.83469e-09
8.01123e-09
-1.31496e-08
5.29549e-09
1.00303e-08
-1.39012e-08
5.27087e-09
1.05608e-08
-1.43848e-08
4.94507e-09
1.00181e-08
-1.42154e-08
4.30109e-09
9.16968e-09
-1.35473e-08
3.57499e-09
8.46773e-09
-1.27845e-08
3.06198e-09
7.74242e-09
-1.17617e-08
2.92537e-09
6.46093e-09
-9.76601e-09
2.95225e-09
4.29716e-09
-6.32862e-09
2.89899e-09
1.6687e-09
-2.21704e-09
2.65254e-09
-4.13309e-10
1.20284e-09
2.46013e-09
-1.22396e-09
2.23092e-09
2.6481e-09
-9.05292e-10
5.85697e-10
3.36559e-09
-7.14524e-10
-1.94943e-09
4.29801e-09
-2.09789e-09
-3.31874e-09
5.0274e-09
-5.13595e-09
-2.25144e-09
4.59467e-09
-8.74117e-09
8.41432e-10
3.48693e-09
-1.14214e-08
3.79181e-09
2.22775e-09
-1.18066e-08
3.75648e-09
2.05817e-09
-9.95379e-09
-1.1277e-10
3.02306e-09
-7.80371e-09
-5.68884e-09
4.28545e-09
-7.40179e-09
-1.04871e-08
5.38565e-09
-9.04625e-09
-1.19375e-08
4.9033e-09
-1.05108e-08
-1.1527e-08
3.49024e-09
-1.02603e-08
-1.13551e-08
2.8497e-09
-8.62557e-09
-1.21633e-08
2.67989e-09
-5.92944e-09
-1.34331e-08
2.47839e-09
-1.96147e-09
-1.51743e-08
2.92573e-09
-1.6842e-08
5.16909e-09
5.30349e-09
-1.97244e-08
5.30349e-09
7.75929e-09
-2.09418e-08
5.34873e-09
9.40694e-09
-2.06857e-08
5.14768e-09
9.82797e-09
-1.95108e-08
4.71645e-09
9.46408e-09
-1.80219e-08
4.18266e-09
8.94566e-09
-1.67832e-08
3.76768e-09
8.3701e-09
-1.58498e-08
3.65545e-09
7.39631e-09
-1.45008e-08
3.72864e-09
5.65761e-09
-1.16565e-08
3.64618e-09
3.49932e-09
-7.4268e-09
3.27478e-09
1.74099e-09
-3.20627e-09
2.76728e-09
1.11625e-09
-7.80619e-10
2.62951e-09
1.48827e-09
-1.14937e-09
3.03104e-09
1.61743e-09
-3.22163e-09
3.70212e-09
1.41696e-10
-4.63713e-09
4.18817e-09
-3.01765e-09
-3.71223e-09
3.5778e-09
-6.8168e-09
-9.22567e-10
2.4949e-09
-9.50325e-09
1.88715e-09
1.66477e-09
-9.90147e-09
2.20568e-09
2.00752e-09
-8.26031e-09
-1.14634e-09
3.28312e-09
-6.6953e-09
-6.60069e-09
4.94302e-09
-7.12519e-09
-1.15314e-08
6.29069e-09
-9.88387e-09
-1.37363e-08
6.02396e-09
-1.2778e-08
-1.35761e-08
4.54623e-09
-1.34365e-08
-1.48158e-08
3.95769e-09
-1.19701e-08
-1.74805e-08
4.66676e-09
-1.01096e-08
-1.87288e-08
4.71048e-09
-6.09725e-09
-2.14968e-08
4.05493e-09
-5.80894e-10
-2.68187e-08
6.12912e-09
-2.49839e-08
7.56143e-09
5.30366e-09
-3.03256e-08
5.30366e-09
7.60402e-09
-2.8477e-08
5.24678e-09
9.29201e-09
-2.72436e-08
4.88009e-09
1.01173e-08
-2.46954e-08
4.3704e-09
1.03197e-08
-2.21998e-08
3.98815e-09
1.01662e-08
-2.03178e-08
3.70304e-09
9.39665e-09
-1.86531e-08
3.5901e-09
7.71576e-09
-1.61716e-08
3.37127e-09
5.50759e-09
-1.22676e-08
2.84139e-09
3.41953e-09
-7.56883e-09
2.25454e-09
2.57298e-09
-4.48058e-09
2.14782e-09
2.9126e-09
-3.6948e-09
2.60368e-09
3.40708e-09
-4.9232e-09
3.31029e-09
2.59705e-09
-6.26648e-09
3.88707e-09
-1.01893e-10
-5.74986e-09
3.84456e-09
-3.63361e-09
-3.42067e-09
3.27319e-09
-6.30472e-09
-1.01838e-09
2.79982e-09
-6.87377e-09
-6.43536e-10
3.13178e-09
-5.7127e-09
-3.17754e-09
4.25306e-09
-4.94153e-09
-7.57594e-09
5.68774e-09
-6.2528e-09
-1.17213e-08
6.45926e-09
-9.61009e-09
-1.4016e-08
5.86674e-09
-1.33135e-08
-1.45321e-08
4.52077e-09
-1.51669e-08
-1.51576e-08
3.45235e-09
-1.42169e-08
-1.92871e-08
3.53468e-09
-1.19721e-08
-2.42294e-08
4.5139e-09
-9.44937e-09
-2.62087e-08
4.96321e-09
-5.06929e-09
-3.12373e-08
5.36288e-09
-1.03085e-09
-3.68861e-08
6.02932e-09
-2.83481e-08
2.33277e-09
4.93352e-09
-4.01872e-08
4.93352e-09
7.48912e-09
-3.56222e-08
4.60519e-09
9.62496e-09
-3.34275e-08
4.06094e-09
1.12304e-08
-2.98438e-08
3.55705e-09
1.23067e-08
-2.64941e-08
3.23443e-09
1.25259e-08
-2.37141e-08
3.19651e-09
1.157e-08
-2.08592e-08
3.18547e-09
9.46784e-09
-1.70817e-08
3.03991e-09
7.18833e-09
-1.27351e-08
2.77856e-09
5.87607e-09
-9.0963e-09
2.87529e-09
5.68218e-09
-7.70896e-09
3.46141e-09
6.14864e-09