/*--------------------------------*- C++ -*----------------------------------*\
| =========                 |                                                 |
| \\      /  F ield         | OpenFOAM: The Open Source CFD Toolbox           |
|  \\    /   O peration     | Version:  2312                                  |
|   \\  /    A nd           | Website:  www.openfoam.com                      |
|    \\/     M anipulation  |                                                 |
\*---------------------------------------------------------------------------*/
FoamFile
{
    version     2.0;
    format      ascii;
    arch        "LSB;label=32;scalar=64";
    class       volScalarField;
    location    "1.26092662";
    object      alpha.water;
}
// * * * * * * * * * * * * * * * * * * * * * * * * * * * * * * * * * * * * * //

dimensions      [0 0 0 0 0 0 0];

internalField   nonuniform List<scalar> 
90000
(
1
1.00006
1.00005
1.00004
1.00004
1.00003
1.00002
1.00001
1.00001
0.999998
0.999992
0.999988
0.999986
0.999987
0.999991
0.999996
1
1.00001
1.00001
1.00001
1.00001
1.00001
1.00001
1.00001
1.00001
1.00001
1.00002
1.00002
1.00002
1.00003
1.00006
1.00008
1.00007
1.00006
1.00005
1.00004
1.00002
1.00001
0.999999
0.999988
0.99998
0.999976
0.999977
0.999981
0.999988
0.999997
1.00001
1.00001
1.00002
1.00002
1.00001
1.00001
1.00001
1.00001
1.00002
1.00003
1.00003
1.00002
0.999969
0.999806
1.00004
1.00006
1.00005
1.00004
1.00003
1.00002
1.00002
1.00001
0.999997
0.999989
0.999982
0.999978
0.999975
0.999975
0.999977
0.99998
0.999984
0.999988
0.999991
0.999993
0.999995
0.999996
0.999999
1
1.00001
1.00002
1.00004
1.00009
1.00017
0.999994
1.00003
1.00003
1.00002
1.00002
1.00002
1.00001
1.00001
1
0.999999
0.999993
0.999988
0.999982
0.999976
0.999972
0.999968
0.999967
0.999967
0.99997
0.999973
0.999978
0.999983
0.999987
0.999992
0.999997
1
1.00001
1
0.999994
1.00007
1.00002
1.00001
0.999996
0.999996
0.999996
0.999997
1
1
1
1.00001
1
1
0.999995
0.999989
0.999982
0.999975
0.999969
0.999967
0.999967
0.999971
0.999976
0.999982
0.999988
0.999993
0.999997
1
1.00001
1.00002
1.00001
1.00003
1.00001
0.999994
0.999968
0.999972
0.999976
0.999983
0.999991
0.999999
1.00001
1.00001
1.00002
1.00002
1.00001
1.00001
1
0.999993
0.999986
0.999981
0.99998
0.999981
0.999985
0.999991
0.999996
1
1.00001
1.00001
1.00001
1.00002
1.00001
1
0.999993
0.999978
0.999948
0.999956
0.999963
0.999972
0.999984
0.999995
1.00001
1.00002
1.00002
1.00003
1.00003
1.00002
1.00002
1.00001
1
0.999997
0.999993
0.999992
0.999995
0.999999
1
1.00001
1.00001
1.00002
1.00001
1.00001
0.999999
0.999991
0.999989
0.999967
0.999943
0.999952
0.999959
0.999968
0.999978
0.999989
0.999998
1.00001
1.00001
1.00002
1.00002
1.00002
1.00002
1.00002
1.00001
1
0.999998
0.999995
0.999996
1
1.00001
1.00001
1.00001
1.00001
1.00001
0.999999
0.99999
0.999988
0.999994
0.999965
0.999955
0.999962
0.999967
0.999973
0.999979
0.999984
0.999989
0.999993
0.999998
1
1.00001
1.00001
1.00001
1.00001
1.00001
1
0.999995
0.999992
0.999992
0.999994
0.999997
1
0.999999
0.999994
0.999987
0.99998
0.99998
0.999986
0.999994
0.999974
0.999983
0.999987
0.999989
0.99999
0.999989
0.999987
0.999985
0.999984
0.999985
0.999988
0.999992
0.999996
0.999999
1
0.999999
0.999996
0.999993
0.999991
0.999989
0.999988
0.999986
0.999982
0.999975
0.999967
0.999962
0.999962
0.99997
0.999978
0.999981
0.999994
1.00002
1.00002
1.00002
1.00001
1.00001
0.999997
0.999989
0.999983
0.999981
0.999981
0.999983
0.999987
0.99999
0.999993
0.999994
0.999995
0.999995
0.999995
0.999992
0.999988
0.99998
0.999971
0.999961
0.999954
0.999954
0.99996
0.999969
0.999971
0.999972
1.00002
1.00005
1.00004
1.00004
1.00003
1.00002
1
0.999992
0.999984
0.999979
0.999978
0.999978
0.999979
0.999982
0.999986
0.99999
0.999994
0.999998
0.999999
0.999997
0.99999
0.999981
0.999971
0.999964
0.999963
0.999968
0.999975
0.999978
0.999974
0.999978
1.00003
1.00005
1.00004
1.00003
1.00002
1.00001
0.999994
0.999985
0.999979
0.999975
0.999973
0.999971
0.999971
0.999973
0.999978
0.999984
0.999992
0.999998
1
0.999998
0.999991
0.999983
0.999977
0.999975
0.999979
0.999984
0.999985
0.99998
0.999975
0.999981
1.00003
1.00002
1.00001
0.999998
0.999988
0.999981
0.999976
0.999974
0.999973
0.999973
0.999971
0.99997
0.999969
0.999971
0.999976
0.999984
0.999992
0.999997
0.999999
0.999996
0.999991
0.999985
0.999982
0.999983
0.999983
0.999981
0.999972
0.999963
0.999959
0.999961
1.00001
0.999968
0.999965
0.99996
0.999959
0.999962
0.999967
0.999974
0.999979
0.999981
0.999981
0.999979
0.999978
0.99998
0.999985
0.999992
0.999997
1
0.999999
0.999996
0.999992
0.99999
0.999989
0.999988
0.999982
0.999971
0.999957
0.999948
0.999943
0.999946
0.999975
0.999932
0.999938
0.999943
0.999952
0.999964
0.999977
0.999987
0.999993
0.999995
0.999993
0.999991
0.999991
0.999993
0.999997
1
1
1
0.999999
0.999998
0.999998
1
1
1
0.999994
0.999982
0.999972
0.999969
0.999968
0.999983
0.999956
0.999928
0.999942
0.999954
0.999967
0.999981
0.999991
0.999997
0.999998
0.999996
0.999994
0.999993
0.999995
0.999998
1
1
0.999999
0.999996
0.999995
0.999998
1
1.00001
1.00002
1.00002
1.00001
1.00001
1.00001
1.00002
1.00003
1.00004
0.999959
0.999949
0.999962
0.999972
0.999981
0.999988
0.99999
0.99999
0.999987
0.999985
0.999986
0.999991
0.999997
1
1
1
0.999994
0.99999
0.999991
0.999997
1.00001
1.00001
1.00002
1.00001
1.00001
1.00002
1.00003
1.00004
1.00005
1.00004
0.999974
0.999969
0.999976
0.999979
0.999981
0.999981
0.999979
0.999977
0.999978
0.999983
0.999992
1
1.00001
1.00001
1.00001
1
0.999992
0.999988
0.99999
0.999995
1
1
0.999994
0.999987
0.999986
0.999992
1
1
1
0.999968
0.999985
0.999978
0.999979
0.999979
0.99998
0.999981
0.999983
0.999986
0.999994
1
1.00002
1.00003
1.00003
1.00002
1.00001
0.999995
0.999987
0.999986
0.999989
0.999992
0.999989
0.999981
0.99997
0.999965
0.999969
0.999977
0.999979
0.999968
0.999945
0.999933
0.999987
0.999985
0.999988
0.999992
0.999997
1
1.00001
1.00001
1.00002
1.00003
1.00003
1.00003
1.00002
1
0.999987
0.999979
0.99998
0.999986
0.999991
0.999989
0.999981
0.999971
0.999967
0.999974
0.999988
0.999995
0.999988
0.999971
0.999958
0.999983
0.999992
1
1.00001
1.00002
1.00002
1.00003
1.00003
1.00003
1.00003
1.00003
1.00002
1.00001
0.999988
0.999974
0.99997
0.999977
0.99999
1
1
0.999994
0.999984
0.999979
0.999988
1
1.00002
1.00001
1
0.999994
1
1.00002
1.00001
1.00003
1.00003
1.00003
1.00003
1.00003
1.00003
1.00003
1.00002
1.00001
0.999999
0.999984
0.999974
0.999974
0.999985
1
1.00002
1.00002
1.00001
1
0.999995
1
1.00002
1.00003
1.00002
1.00001
0.999996
1
1.00001
0.999997
1.00002
1.00003
1.00003
1.00003
1.00002
1.00002
1.00002
1.00002
1.00001
1.00001
0.999996
0.999987
0.999985
0.999994
1.00001
1.00002
1.00002
1.00001
1
0.999996
1.00001
1.00002
1.00004
1.00003
1.00002
1
0.999998
1
0.999991
0.999992
1.00002
1.00001
1.00001
1.00001
1.00001
1.00001
1.00001
1.00002
1.00002
1.00001
0.999998
0.999991
0.999992
1
1.00001
1
0.999991
0.999978
0.999976
0.999991
1.00002
1.00004
1.00004
1.00002
1.00001
1.00001
1.00001
1.00001
1.00001
1.00002
1.00001
0.999994
0.999994
0.999994
0.999997
1
1.00001
1.00001
1.00001
1
0.999991
0.99999
0.999994
0.999999
0.999997
0.999987
0.999975
0.999973
0.999988
1.00001
1.00003
1.00003
1.00002
1
1
1.00001
1.00001
1.00001
1.00003
1.00001
0.999994
0.999981
0.999983
0.999985
0.99999
0.999996
1
1
0.999997
0.999994
0.999997
1.00001
1.00002
1.00002
1.00002
1.00001
1
1.00001
1.00003
1.00004
1.00003
1.00002
0.999999
0.999994
1
1.00001
1
1.00001
1.00001
0.999975
0.999988
0.999975
0.999977
0.99998
0.999984
0.99999
0.999993
0.999994
0.999995
1
1.00001
1.00003
1.00004
1.00004
1.00003
1.00002
1.00003
1.00003
1.00004
1.00003
1.00001
0.999994
0.999995
1
1.00001
1.00001
1.00001
1.00001
0.999983
0.999996
0.999984
0.999975
0.999979
0.999982
0.999985
0.999986
0.999986
0.999986
0.99999
1
1.00001
1.00002
1.00002
1.00002
1.00001
1.00001
1.00001
1.00002
1.00001
0.999991
0.999978
0.999981
0.999998
1.00001
1.00001
1.00001
1.00001
0.999991
0.999997
1.00003
0.999986
0.999983
0.999985
0.999984
0.999982
0.999977
0.999974
0.999975
0.999982
0.999994
1
1.00001
1
0.999999
0.999998
1
1.00001
1
0.999985
0.999978
0.999979
0.999982
0.999991
0.999993
0.99999
0.999996
0.999999
0.999992
1.00003
1.00001
0.999992
0.999987
0.999985
0.99998
0.999976
0.999975
0.999976
0.999984
0.999995
1.00001
1.00001
1.00001
1.00001
1
1.00001
1.00001
1.00001
1
0.999991
0.999994
0.999998
0.999985
0.999976
0.999983
0.999983
0.99998
0.999992
1.00001
1.00001
0.999995
0.999993
0.999985
0.999984
0.999986
0.999989
0.999993
0.999997
1
1
1
0.999999
0.999994
0.999992
0.999996
1
1
1
1
1
1
1
0.999977
0.999968
0.999983
0.99998
0.999967
0.999994
1.00001
0.999981
0.999992
0.999992
0.999991
0.999997
1
1.00001
1
0.999995
0.999984
0.999975
0.999968
0.999966
0.99997
0.999979
0.999991
0.999997
0.999997
0.999995
1
1
0.99998
0.999972
0.999966
0.999967
0.999976
0.999971
0.999967
0.999997
0.999989
0.99998
0.999985
0.999996
1
1.00001
1.00001
0.999999
0.999984
0.999969
0.999958
0.999954
0.999959
0.999972
0.999989
1
1.00001
1
1
0.999988
0.999988
0.999977
0.999948
0.999952
0.999977
0.999974
0.999962
0.999974
0.999989
1
0.99999
0.999984
0.999986
1
1.00001
1
0.999997
0.999987
0.999976
0.999969
0.999968
0.999975
0.999988
1
1.00001
1.00001
1
0.999993
0.999999
0.999987
0.999979
0.999977
0.99997
0.999988
1.00002
0.999993
0.999974
1.00001
1.00002
1
0.99999
0.999982
1
1
1.00001
1.00001
1
0.999992
0.999984
0.999981
0.999983
0.999991
0.999999
1
1
0.999996
0.999993
0.999986
1.00001
1.00001
0.999994
1
1.00002
1.00002
1.00003
1
1
1.00004
1.00002
0.99999
0.999987
1.00001
1.00002
1
1.00001
1.00001
0.999997
0.999986
0.99998
0.999982
0.999987
0.999992
0.999993
0.999988
0.999982
0.999982
1.00001
1
1.00002
1.00001
0.999998
1.00001
1.00003
1.00001
1.00001
1.00001
1.00002
1.00003
0.999994
0.999988
1.00001
1.00004
1.00002
1.00001
1.00001
0.999992
0.999984
0.999986
0.999994
1
1
0.999997
0.99999
0.999988
0.999991
0.999982
1.00002
1.00001
1.00001
1.00001
1.00001
1.00001
1.00003
0.999993
1
1.00002
1.00001
0.999992
0.99998
1.00001
1.00003
1.00001
1.00001
1
0.999987
0.999988
0.999999
1.00001
1.00002
1.00001
1.00001
1
0.999996
0.999994
1.00001
0.999984
1.00001
1.00001
0.999993
0.999988
1.00001
1
1
0.999972
0.999996
1.00001
0.999977
0.999972
0.999999
1.00001
0.999995
1.00001
1.00004
0.999992
0.999994
1
1.00001
1.00001
1.00001
1.00001
1
1
0.999995
0.999976
1
0.999992
0.999985
1.00001
0.999985
0.999968
0.999986
0.999994
0.999982
0.999977
0.999998
0.999996
0.999977
0.999986
1.00001
0.99999
0.999994
1.00005
1.00005
0.999998
1
1
1
1.00001
1
0.999992
0.999983
0.999983
0.999992
0.999974
0.999975
1.00001
0.999967
0.999985
0.999993
0.999994
0.999985
1.00001
0.999991
0.999993
1
0.999998
1
0.999988
0.999999
1.00001
1.00003
1.00003
1.00001
0.999997
0.999997
1.00001
1.00001
0.999997
0.999983
0.999987
0.99999
0.999987
0.999998
1.00001
0.999976
1.00002
1
0.99999
0.999981
1.00001
0.999984
1.00001
0.999993
0.999999
1.00001
1
1.00001
0.999987
0.999984
1.00003
1.00003
0.999975
0.999963
0.999998
1.00002
1.00001
0.999995
0.999988
0.99999
1.00001
1.00001
1.00001
1.00001
1.00001
0.999991
1.00001
0.999996
0.999997
0.999971
1.00001
0.999997
0.999995
0.999992
1.00001
1.00001
0.999982
0.999965
1.00002
1.00001
0.99999
0.999995
1.00002
0.999982
1.00001
1.00001
0.999986
0.999999
1.00002
0.999985
0.999994
1
0.999991
0.999985
0.999967
1.00001
1.00002
0.999947
0.999988
1
0.999989
0.999991
1.00001
0.999998
0.999993
0.999995
1
0.999963
1.00001
1.00002
0.999968
0.999996
1.00003
0.99996
1
0.999989
1.00001
0.999999
0.999986
0.999994
1.00001
0.999983
0.99998
1.00006
1.00001
0.999948
1.00003
1
0.999978
1.00001
0.999989
1.00001
1.00001
0.999987
1
0.999995
0.999997
1.00001
0.999964
0.999984
1.00002
1.00003
0.999964
0.999866
0.999986
1.00001
1.00001
0.999958
0.999993
1
0.999996
1.00003
0.999977
0.999964
1.00003
1
0.99999
1.00001
0.999938
1
1.00003
0.999979
0.999974
1
0.999984
0.999995
0.999975
1
0.999996
0.999988
1
0.999996
1.00001
0.999862
0.999991
1
0.999991
0.999959
0.999991
0.999994
0.999987
1.00001
0.999992
0.999987
0.999979
0.999989
0.999987
0.999959
1
1.00002
0.999959
0.999986
1.00002
1
0.999983
0.999998
1
0.999999
0.999998
0.999961
0.999996
0.999986
0.999993
0.999897
0.999987
0.999995
0.999987
0.999956
0.999956
0.999993
0.999994
1
0.999974
1.00001
1
0.999984
1
0.999992
0.999982
0.999984
1.00002
0.999996
0.999979
1.00001
1.00002
0.999997
0.999996
0.999998
0.999997
0.999958
0.999991
0.999983
0.999985
0.999893
0.999846
0.999828
0.999904
0.999875
0.999895
0.999961
0.999979
0.999994
0.99998
1
1
1
1
1.00001
1.00001
1
1
1.00002
1.00001
1
1
0.999991
0.999988
0.999978
0.999969
0.9999
0.999908
0.9999
0.999811
0.999756
0.825913
0.80029
0.826121
0.815786
0.838183
0.840385
0.854316
0.851144
0.850784
0.857569
0.85498
0.860026
0.845851
0.839432
0.860265
0.858835
0.840668
0.845554
0.859225
0.855473
0.858637
0.850692
0.850744
0.854008
0.841183
0.840347
0.814899
0.82386
0.799642
0.826151
0.161483
0.167535
0.172398
0.166275
0.160767
0.160117
0.168259
0.159873
0.152854
0.157557
0.161632
0.168793
0.159846
0.147738
0.164291
0.163508
0.147883
0.159721
0.16809
0.161699
0.158456
0.153175
0.158706
0.167412
0.161302
0.16357
0.166529
0.169712
0.168085
0.161461
0.000108431
9.04163e-05
6.55452e-05
4.54003e-05
5.36161e-05
3.44458e-05
2.36175e-05
2.14602e-05
3.47322e-05
7.95897e-05
2.77708e-05
8.74755e-05
2.97864e-05
2.38245e-05
0.000119198
9.29147e-05
2.75125e-05
3.97124e-05
5.88291e-05
2.67425e-05
7.84524e-05
3.75954e-05
2.79242e-05
3.78029e-05
4.27285e-05
6.37116e-05
6.40489e-05
0.000102112
0.000114508
9.01928e-05
0.000169516
0.000109892
5.74832e-05
5.69771e-05
5.46852e-05
4.53109e-05
2.17125e-05
5.11302e-06
2.53594e-05
2.77708e-05
2.37996e-05
6.12721e-06
1.73643e-05
1.75025e-06
6.84097e-07
8.00658e-07
8.89653e-06
2.10315e-05
9.14739e-06
2.82431e-05
2.85512e-05
2.86843e-05
8.47527e-06
3.61887e-05
4.73175e-05
0.000103295
8.54856e-05
0.00011079
0.00014019
0.000206243
1.0488e-06
7.45894e-05
5.61305e-05
7.94042e-06
1.12234e-05
3.89529e-05
3.87598e-05
2.28135e-06
1.70854e-05
2.95163e-05
2.94085e-05
1.96169e-06
1.77518e-05
2.58571e-06
6.44745e-07
7.0912e-07
9.58079e-06
2.79387e-05
7.37283e-06
3.0662e-05
2.72456e-05
2.1788e-05
4.8396e-06
4.54335e-05
4.4255e-05
1.76736e-05
2.2299e-07
7.56512e-05
9.04581e-05
1.84696e-07
1.58989e-07
1.73928e-07
1.38442e-06
1.32407e-07
1.84788e-08
4.51625e-09
9.18789e-07
1.59831e-06
2.01202e-06
4.15728e-06
3.52185e-06
2.64142e-06
6.25051e-06
8.90956e-06
2.79124e-06
2.82852e-06
1.0627e-05
7.76312e-06
5.24248e-06
3.16892e-06
1.96517e-06
1.57352e-06
1.13124e-06
1.15479e-06
4.72701e-09
2.42402e-08
2.04683e-07
2.0948e-07
1.84696e-07
1.67004e-07
1.53604e-07
2.18948e-07
2.97775e-07
1.91599e-07
2.83867e-08
2.6178e-09
1.24557e-10
3.34891e-07
1.00738e-06
4.18212e-07
8.64097e-08
2.59712e-06
5.58245e-06
6.99995e-06
4.90196e-06
4.76907e-06
5.63572e-06
4.90258e-06
3.67052e-06
4.4305e-07
4.16297e-07
9.09816e-07
3.10757e-07
1.98674e-10
2.60094e-09
3.79519e-08
2.42944e-07
4.88693e-07
1.74223e-07
1.62628e-07
6.56125e-10
1.03188e-08
8.04658e-08
2.39744e-07
1.24405e-07
3.13707e-09
3.89747e-11
2.8601e-11
2.71943e-11
5.61967e-11
9.66263e-08
6.92282e-07
7.61641e-07
1.46427e-06
4.99843e-06
4.99768e-06
1.15995e-06
9.66316e-08
3.25485e-07
6.94102e-08
3.47947e-08
3.52538e-09
2.56846e-11
1.60311e-10
2.90032e-09
1.6982e-07
2.95585e-07
8.33196e-08
1.29998e-08
6.03195e-10
6.39032e-10
2.73981e-09
5.96791e-10
2.9025e-08
3.30023e-08
2.53833e-09
2.59238e-10
2.79437e-11
2.61678e-11
3.69746e-11
1.24813e-09
7.59556e-12
6.97951e-11
4.79242e-10
1.10446e-06
1.72292e-06
2.976e-08
4.33904e-11
1.01093e-11
1.80128e-11
2.45901e-11
2.40888e-11
2.49634e-11
2.17346e-10
2.7186e-09
4.04137e-08
3.06925e-08
6.76101e-10
2.43404e-09
5.86478e-10
3.4513e-10
7.25177e-10
2.59729e-10
5.09495e-11
4.93676e-11
2.63677e-10
1.05595e-10
3.84272e-11
2.62545e-11
4.88472e-11
7.05764e-12
6.62347e-12
7.59556e-12
1.7482e-11
7.23257e-11
9.26272e-11
2.44483e-11
2.07131e-11
9.64767e-12
2.36013e-11
3.49354e-11
2.4012e-11
3.69262e-11
9.21435e-11
2.28572e-10
3.35392e-11
3.46741e-11
2.52541e-10
6.80617e-10
3.40869e-10
1.96756e-10
2.68773e-10
1.11769e-10
6.04672e-11
4.89667e-11
4.2278e-11
2.36997e-11
9.88172e-12
7.36228e-12
9.78782e-12
8.63798e-12
6.58086e-12
1.58218e-11
2.6158e-11
7.9771e-12
7.26743e-12
2.85265e-11
2.86163e-11
9.66002e-12
9.06511e-12
9.34974e-12
7.18937e-12
9.50539e-12
2.12258e-11
3.65683e-11
3.32436e-11
6.39933e-11
1.12795e-10
2.65067e-10
1.99205e-10
3.75594e-11
6.54844e-11
3.30578e-11
1.57033e-11
1.2377e-11
5.00153e-12
2.37089e-12
1.31308e-12
1.02627e-12
1.60467e-12
2.72464e-12
5.44403e-12
1.20784e-11
1.62751e-11
8.06582e-12
7.0708e-12
1.92888e-11
1.24514e-11
5.31187e-12
2.779e-12
1.6003e-12
1.0489e-12
1.25242e-12
2.09466e-12
4.44768e-12
1.1849e-11
1.61974e-11
3.25315e-11
6.61688e-11
3.806e-11
3.80124e-12
8.19651e-12
4.9737e-12
1.90371e-12
1.25697e-12
5.44566e-13
2.41666e-13
1.74634e-13
2.14422e-13
4.36624e-13
9.52831e-13
2.1349e-12
4.39139e-12
5.07651e-12
7.39682e-12
6.78458e-12
4.70481e-12
4.42137e-12
2.1593e-12
9.69524e-13
4.43615e-13
2.17915e-13
1.71824e-13
2.23115e-13
4.90316e-13
1.20793e-12
1.77982e-12
4.96894e-12
8.35705e-12
3.83581e-12
2.84166e-13
5.84569e-13
4.69517e-13
2.0158e-13
7.80181e-14
2.93061e-14
1.21187e-14
9.78662e-15
1.59093e-14
3.86161e-14
1.02379e-13
2.68886e-13
5.8441e-13
9.64454e-13
1.44653e-12
1.42671e-12
9.48602e-13
5.91523e-13
2.72861e-13
1.0436e-13
3.9747e-14
1.62244e-14
9.86124e-15
1.14515e-14
2.65175e-14
7.40853e-14
2.01348e-13
4.76493e-13
5.94606e-13
2.87514e-13
1.32017e-14
3.29323e-14
2.26553e-14
8.79441e-15
2.45726e-15
7.19353e-16
2.81942e-16
2.56265e-16
4.577e-16
1.21208e-15
3.83241e-15
1.24742e-14
3.13959e-14
6.86455e-14
1.06745e-13
1.07072e-13
6.98472e-14
3.18478e-14
1.27082e-14
3.92525e-15
1.25356e-15
4.7192e-16
2.58822e-16
2.66373e-16
6.50026e-16
2.34625e-15
8.99899e-15
2.32676e-14
3.37771e-14
1.33978e-14
3.18772e-16
1.00259e-15
5.40588e-16
1.79469e-16
4.92302e-17
1.35701e-17
5.73735e-18
6.42703e-18
1.24263e-17
3.33656e-17
1.06691e-16
3.56967e-16
9.9745e-16
2.32124e-15
3.78835e-15
3.78434e-15
2.34163e-15
1.01067e-15
3.65452e-16
1.10299e-16
3.46458e-17
1.28893e-17
6.47092e-18
5.40263e-18
1.21395e-17
4.682e-17
1.84029e-16
5.57698e-16
1.03499e-15
3.2513e-16
5.43473e-18
1.85909e-17
9.65629e-18
3.10443e-18
8.47918e-19
2.33776e-19
1.15783e-19
1.61658e-19
3.37738e-19
8.99521e-19
2.7463e-18
8.77908e-18
2.40626e-17
5.43394e-17
8.8981e-17
8.94504e-17
5.49053e-17
2.43407e-17
8.98972e-18
2.85077e-18
9.32147e-19
3.4981e-19
1.6422e-19
1.10293e-19
2.09954e-19
8.14153e-19
3.20978e-18
9.99947e-18
1.93172e-17
5.56882e-18
7.86469e-20
2.92898e-19
1.50498e-19
4.8047e-20
1.26477e-20
3.53588e-21
2.16656e-21
3.65786e-21
7.96929e-21
2.06926e-20
6.10363e-20
1.87413e-19
4.92478e-19
1.08166e-18
1.75007e-18
1.75088e-18
1.08787e-18
5.01269e-19
1.92795e-19
6.33577e-20
2.15145e-20
8.29708e-21
3.7834e-21
2.11262e-21
3.19092e-21
1.23587e-20
5.0371e-20
1.58568e-19
3.0586e-19
8.17341e-20
9.48933e-22
3.9142e-21
2.0143e-21
6.25883e-22
1.62102e-22
4.63946e-23
3.73781e-23
7.34854e-23
1.60212e-22
3.98402e-22
1.12055e-21
3.27956e-21
8.36209e-21
1.79809e-20
2.84849e-20
2.84342e-20
1.80567e-20
8.53581e-21
3.37629e-21
1.15729e-21
4.12526e-22
1.66356e-22
7.64633e-23
3.77541e-23
4.24525e-23
1.58827e-22
6.70704e-22
2.1362e-21
4.16586e-21
1.00633e-21
9.52593e-24
4.30656e-23
2.2606e-23
6.94792e-24
1.73803e-24
5.29136e-25
6.01382e-25
1.28378e-24
2.70252e-24
6.32194e-24
1.67675e-23
4.67596e-23
1.14157e-22
2.3448e-22
3.63485e-22
3.65946e-22
2.37225e-22
1.15423e-22
4.76795e-23
1.74255e-23
6.60951e-24
2.82057e-24
1.33786e-24
6.24893e-25
5.06188e-25
1.72989e-24
7.53323e-24
2.41565e-23
4.72448e-23
1.02389e-23
7.81769e-26
4.16127e-25
2.09098e-25
6.459e-26
1.55436e-26
5.64112e-27
8.8631e-27
1.89214e-26
3.75099e-26
8.22391e-26
2.04938e-25
5.3455e-25
1.22337e-24
2.40992e-24
3.72013e-24
3.77548e-24
2.48019e-24
1.24947e-24
5.45752e-25
2.13588e-25
8.66295e-26
3.96297e-26
1.98979e-26
9.23747e-27
5.61344e-27
1.61101e-26
7.14238e-26
2.28741e-25
4.45045e-25
8.62909e-26
5.44684e-28
3.14414e-27
1.60075e-27
4.86662e-28
1.1841e-28
5.71991e-29
1.11686e-28
2.32024e-28
4.35682e-28
8.86637e-28
2.00986e-27
4.71931e-27
1.00684e-26
1.91592e-26
2.89524e-26
2.89285e-26
1.93972e-26
1.04268e-26
4.95246e-27
2.11553e-27
9.33605e-28
4.64566e-28
2.50103e-28
1.19124e-28
5.85348e-29
1.2746e-28
5.64016e-28
1.80433e-27
3.49016e-27
6.05957e-28
3.12445e-30
1.89455e-29
1.03851e-29
3.10861e-30
7.8586e-31
5.30961e-31
1.1882e-30
2.40289e-30
4.19673e-30
7.68146e-30
1.55291e-29
3.31025e-29
6.66626e-29
1.20387e-28
1.73786e-28
1.73982e-28
1.23619e-28
7.17346e-29
3.64774e-29
1.68617e-29
8.19542e-30
4.51003e-30
2.62455e-30
1.30402e-30
5.64101e-31
8.44261e-31
3.65136e-30
1.18135e-29
2.28775e-29
3.56994e-30
1.41897e-32
1.09108e-31
5.76882e-32
1.77171e-32
4.76335e-33
4.68645e-33
1.11785e-32
2.0957e-32
3.24982e-32
5.24644e-32
9.57871e-32
1.88142e-31
3.47738e-31
5.75092e-31
7.94614e-31
8.14898e-31
6.07316e-31
3.70527e-31
2.03466e-31
1.06309e-31
5.89175e-32
3.60197e-32
2.26201e-32
1.188e-32
4.95484e-33
4.88868e-33
1.97226e-32
6.50392e-32
1.25732e-31
1.76895e-32
6.40173e-35
5.2115e-34
2.70018e-34
8.45113e-35
2.56515e-35
3.6999e-35
8.62551e-35
1.47212e-34
2.06929e-34
3.05892e-34
5.05674e-34
8.61015e-34
1.36047e-33
2.03737e-33
2.77874e-33
2.95111e-33
2.30867e-33
1.52287e-33
9.46794e-34
5.66314e-34
3.5011e-34
2.34328e-34
1.60811e-34
9.21825e-35
3.9561e-35
2.66913e-35
9.14434e-35
3.00733e-34
5.70372e-34
7.31258e-35
2.38261e-37
1.76052e-36
1.02549e-36
3.13803e-37
1.25486e-37
2.41593e-37
5.44219e-37
8.76811e-37
1.15346e-36
1.55087e-36
2.19141e-36
3.11893e-36
4.41535e-36
6.43473e-36
8.61283e-36
8.81645e-36
6.9721e-36
5.06197e-36
3.62492e-36
2.46347e-36
1.69914e-36
1.27221e-36
9.78896e-37
6.18812e-37
2.7672e-37
1.39152e-37
3.53129e-37
1.12609e-36
2.09332e-36
2.51427e-37
6.04323e-40
5.63035e-39
3.34603e-39
1.02735e-39
5.99608e-40
1.42296e-39
3.16212e-39
4.7097e-39
5.49683e-39
6.20167e-39
7.19808e-39
9.08676e-39
1.231e-38
1.65268e-38
1.91127e-38
1.79203e-38
1.54159e-38
1.35632e-38
1.15411e-38
8.84635e-39
6.82146e-39
5.78774e-39
5.02808e-39
3.48884e-39
1.63219e-39
6.74967e-40
1.10811e-39
3.38539e-39
6.36059e-39
7.36856e-40
1.71501e-42
1.92681e-41
9.82925e-42
3.30244e-42
2.80337e-42
7.45121e-42
1.5146e-41
2.00486e-41
2.03405e-41
1.98267e-41
2.09893e-41
2.5329e-41
3.02782e-41
3.27006e-41
3.221e-41
3.14395e-41
3.21383e-41
3.23659e-41
2.96224e-41
2.4738e-41
2.20539e-41
2.20798e-41
2.21603e-41
1.69059e-41
8.29338e-42
3.1297e-42
3.1461e-42
8.78198e-42
1.69966e-41
1.93231e-42
5.4214e-45
4.81841e-44
2.45015e-44
9.84888e-45
1.25126e-44
3.14432e-44
5.71084e-44
6.97401e-44
6.36173e-44
5.72285e-44
5.69461e-44
5.94566e-44
5.43778e-44
4.72e-44
4.54959e-44
5.00234e-44
5.43471e-44
5.50604e-44
5.42334e-44
5.49966e-44
6.20165e-44
7.39898e-44
8.41e-44
6.80993e-44
3.49792e-44
1.3304e-44
9.28921e-45
2.14436e-44
4.10494e-44
4.58058e-45
1.05366e-47
8.66192e-47
5.27748e-47
2.78333e-47
4.48381e-47
1.06022e-46
1.90598e-46
2.15612e-46
1.80825e-46
1.42968e-46
1.20181e-46
9.70829e-47
7.13858e-47
5.71611e-47
5.79604e-47
6.3398e-47
6.44624e-47
6.69826e-47
8.0706e-47
1.0657e-46
1.46562e-46
1.98666e-46
2.36866e-46
2.1177e-46
1.20614e-46
5.01077e-47
2.85974e-47
4.88843e-47
8.38103e-47
9.42077e-48
1.87164e-50
1.68252e-49
1.1514e-49
7.17555e-50
1.21166e-49
2.94774e-49
5.1089e-49
4.94987e-49
3.79914e-49
2.52908e-49
1.80646e-49
1.29416e-49
9.19802e-50
7.29858e-50
6.60201e-50
5.88525e-50
5.52865e-50
6.74763e-50
1.05583e-49
1.7133e-49
2.66577e-49
4.0642e-49
5.21909e-49
5.61395e-49
3.7037e-49
1.67507e-49
8.3385e-50
9.81396e-50
1.36972e-49
1.72448e-50
3.99961e-53
3.46649e-52
2.35467e-52
1.56791e-52
2.93703e-52
6.83565e-52
1.02121e-51
9.01765e-52
6.01236e-52
3.59033e-52
2.42347e-52
1.72901e-52
1.18257e-52
7.83067e-53
5.37623e-53
4.16334e-53
4.54603e-53
7.42443e-53
1.41521e-52
2.53682e-52
4.20938e-52
7.02351e-52
1.06753e-51
1.27461e-51
9.47326e-52
4.41334e-52
2.04728e-52
1.85096e-52
2.12362e-52
3.25854e-53
6.56829e-56
5.82202e-55
3.62271e-55
2.9749e-55
5.90644e-55
1.23438e-54
1.74807e-54
1.52448e-54
9.4068e-55
5.36412e-55
3.55112e-55
2.36336e-55
1.34792e-55
7.14097e-56
4.42143e-56
3.89703e-56
5.2759e-56
9.51585e-56
1.81163e-55
3.20475e-55
5.51981e-55
1.01857e-54
1.79474e-54
2.28578e-54
1.81936e-54
8.6132e-55
4.07763e-55
3.47544e-55
3.71317e-55
6.44094e-56
1.1086e-58
7.7065e-58
5.04079e-58
5.28552e-58
9.26374e-58
1.91266e-57
2.68687e-57
2.24972e-57
1.27127e-57
7.04461e-58
4.41299e-58
2.55094e-58
1.24716e-58
6.43806e-59
4.54854e-59
4.60094e-59
6.12878e-59
9.91073e-59
1.79464e-58
3.33245e-58
6.51248e-58
1.38777e-57
2.74857e-57
3.57917e-57
2.90237e-57
1.39171e-57
7.05127e-58
6.22149e-58
6.65656e-58
1.19141e-58
2.40984e-61
8.54889e-61
9.11541e-61
9.68029e-61
1.629e-60
3.50116e-60
4.16834e-60
3.15958e-60
1.62531e-60
8.5757e-61
4.79831e-61
2.45389e-61
1.17561e-61
6.8633e-62
5.42809e-62
5.35341e-62
6.44457e-62
9.8485e-62
1.94687e-61
4.24772e-61
9.51111e-61
2.15965e-60
4.26143e-60
5.26303e-60
4.10548e-60
1.99446e-60
1.09737e-60
1.01325e-60
1.09805e-60
1.97033e-61
2.04321e-64
1.50685e-63
1.84545e-63
1.7606e-63
3.13492e-63
6.14498e-63
6.11833e-63
4.58005e-63
2.30042e-63
1.14736e-63
5.7544e-64
2.73795e-64
1.33947e-64
8.13953e-65
6.13267e-65
5.52416e-65
6.56607e-65
1.10834e-64
2.53611e-64
6.09423e-64
1.37149e-63
2.92573e-63
5.47368e-63
6.4166e-63
5.16864e-63
2.72791e-63
1.64259e-63
1.57205e-63
1.70072e-63
3.01001e-64
3.33684e-67
3.93447e-66
3.05032e-66
2.81107e-66
4.60305e-66
7.59484e-66
7.22805e-66
5.71856e-66
2.87855e-66
1.32906e-66
6.03959e-67
2.6912e-67
1.24924e-67
6.88459e-68
4.61683e-68
4.06706e-68
5.44338e-68
1.09299e-67
2.77719e-67
6.6845e-67
1.42293e-66
2.94148e-66
5.87086e-66
7.37458e-66
7.03052e-66
4.13276e-66
2.56922e-66
2.43688e-66
2.54699e-66
4.35362e-67
9.93487e-70
5.19289e-69
3.76157e-69
3.67125e-69
5.51134e-69
8.51907e-69
8.28872e-69
6.44613e-69
2.99116e-69
1.21167e-69
4.92636e-70
2.03721e-70
8.7091e-71
4.32454e-71
2.80234e-71
2.78051e-71
4.50509e-71
1.03014e-70
2.65335e-70
6.11639e-70
1.2888e-69
2.87319e-69
6.65656e-69
9.72668e-69
1.02593e-68
6.1638e-69
3.70659e-69
3.42068e-69
3.54001e-69
5.98021e-70
1.03413e-72
3.69737e-72
4.05764e-72
4.29369e-72
6.65322e-72
1.0087e-71
9.64775e-72
6.72708e-72
2.75457e-72
9.78008e-73
3.74406e-73
1.56014e-73
6.76285e-74
3.46557e-74
2.46316e-74
2.75938e-74
4.72562e-74
1.03606e-73
2.44115e-73
5.33364e-73
1.16966e-72
2.89433e-72
7.38765e-72
1.14395e-71
1.17962e-71
6.82967e-72
4.19126e-72
4.04408e-72
4.59822e-72
8.08045e-73
5.90231e-76
5.88045e-75
5.81432e-75
5.68321e-75
7.70577e-75
1.00512e-74
9.37707e-75
6.09555e-75
2.31483e-75
7.93158e-76
3.22612e-76
1.47537e-76
6.86001e-77
3.70874e-77
2.72602e-77
2.94384e-77
4.49292e-77
8.44685e-77
1.79835e-76
3.96145e-76
9.45747e-76
2.54615e-75
6.63581e-75
9.76848e-75
9.52437e-75
5.60655e-75
3.99556e-75
4.41159e-75
5.87844e-75
1.06874e-75
1.49918e-78
1.378e-77
8.75731e-78
7.28688e-78
7.74762e-78
9.31348e-78
9.34723e-78
6.15819e-78
2.30888e-78
8.36198e-79
3.72798e-79
1.77376e-79
8.09751e-80
4.18441e-80
2.84544e-80
2.69925e-80
3.53629e-80
5.98064e-80
1.27453e-79
3.08919e-79
8.12327e-79
2.25524e-78
5.60391e-78
7.56917e-78
7.14119e-78
4.64731e-78
3.73552e-78
4.78684e-78
6.98208e-78
1.24085e-78
4.40379e-81
1.36492e-80
9.23893e-81
6.35211e-81
6.921e-81
1.02161e-80
1.09277e-80
7.1214e-81
2.68327e-81
1.03569e-81
4.67999e-82
2.09015e-82
8.73017e-83
4.19884e-83
2.69766e-83
2.40834e-83
3.0467e-83
5.26386e-83
1.21058e-82
3.18341e-82
8.54739e-82
2.25554e-81
5.13088e-81
6.6e-81
6.15376e-81
4.30687e-81
3.56824e-81
4.68562e-81
6.66961e-81
1.11536e-81
1.91837e-84
6.51532e-84
7.11486e-84
5.71537e-84
7.70382e-84
1.24249e-83
1.16348e-83
6.46216e-84
2.39686e-84
9.13783e-85
3.76923e-85
1.48536e-85
5.83423e-86
2.89616e-86
2.01167e-86
1.94762e-86
2.64704e-86
4.87381e-86
1.16388e-85
3.06307e-85
7.91295e-85
1.98346e-84
4.40814e-84
5.88343e-84
5.68713e-84
4.10283e-84
3.24537e-84
3.93025e-84
4.93542e-84
7.8121e-85
1.01885e-87
1.11403e-86
1.00199e-86
8.3687e-87
1.22555e-86
1.46824e-86
9.91133e-87
4.35379e-87
1.4869e-87
4.83402e-88
1.59819e-88
5.46704e-89
2.22359e-89
1.30368e-89
1.0714e-89
1.16325e-89
1.67837e-89
3.14427e-89
7.41545e-89
1.91186e-88
4.98508e-88
1.33571e-87
3.35512e-87
5.337e-87
5.73813e-87
4.18104e-87
3.05879e-87
3.17288e-87
3.31048e-87
5.03322e-88
2.3942e-90
2.28058e-89
1.57597e-89
1.35086e-89
1.63342e-89
1.35203e-89
7.96262e-90
3.30071e-90
1.01224e-90
2.6509e-91
7.30444e-92
2.47335e-92
1.08882e-92
6.79012e-93
5.67015e-93
6.00876e-93
8.32398e-93
1.50584e-92
3.47618e-92
9.15704e-92
2.68263e-91
8.7707e-91
2.76605e-90
5.49596e-90
6.55155e-90
4.71045e-90
3.08268e-90
2.74708e-90
2.43323e-90
3.64017e-91
4.91954e-93
1.82312e-92
1.3639e-92
1.0824e-92
1.22769e-92
1.08906e-92
7.66274e-93
3.26204e-93
8.88849e-94
2.05205e-94
5.52485e-95
1.94929e-95
8.79869e-96
5.14494e-96
3.79229e-96
3.64218e-96
4.80992e-96
8.64804e-96
2.00834e-95
5.43671e-95
1.7207e-94
6.46103e-94
2.39438e-93
5.51521e-93
6.94648e-93
4.89567e-93
2.97536e-93
2.52657e-93
2.16979e-93
3.3779e-94
1.88079e-96
8.56074e-96
1.00168e-95
8.76984e-96
1.03645e-95
1.12751e-95
8.21798e-96
2.978e-96
6.83433e-97
1.52909e-97
4.50398e-98
1.69953e-98
7.51273e-99
4.08946e-99
2.87811e-99
2.7511e-99
3.69554e-99
6.75766e-99
1.55442e-98
4.0045e-98
1.19568e-97
4.34155e-97
1.6445e-96
4.06033e-96
5.36971e-96
4.07763e-96
2.6968e-96
2.50795e-96
2.46644e-96
4.13271e-97
1.30321e-99
1.4709e-98
1.41494e-98
1.1506e-98
1.45034e-98
1.46817e-98
7.50912e-99
1.88614e-99
3.75747e-100
9.27199e-101
3.21959e-101
1.3647e-101
6.47711e-102
3.75889e-102
2.82544e-102
2.75365e-102
3.62665e-102
6.39115e-102
1.36751e-101
3.08181e-101
7.62261e-101
2.32607e-100
8.0629e-100
2.11755e-99
3.18392e-99
3.12008e-99
2.53994e-99
2.88662e-99
3.4228e-99
5.99994e-100
2.93111e-102
2.6084e-101
1.86275e-101
1.51221e-101
1.83977e-101
1.52542e-101
4.93586e-102
9.62616e-103
2.19259e-103
6.852e-104
2.87161e-104
1.40735e-104
7.41397e-105
4.56684e-105
3.48665e-105
3.34754e-105
4.24159e-105
7.01649e-105
1.38066e-104
2.75799e-104
5.7504e-104
1.44403e-103
4.32322e-103
1.13482e-102
2.15898e-102
2.72145e-102
2.68644e-102
3.6276e-102
4.87482e-102
8.44543e-103
4.82858e-105
2.06616e-104
1.45073e-104
1.28203e-104
1.42495e-104
9.17366e-105
2.7397e-105
6.56603e-106
1.70677e-106
5.99223e-107
2.93258e-107
1.60256e-107