/*--------------------------------*- C++ -*----------------------------------*\
| =========                 |                                                 |
| \\      /  F ield         | OpenFOAM: The Open Source CFD Toolbox           |
|  \\    /   O peration     | Version:  2312                                  |
|   \\  /    A nd           | Website:  www.openfoam.com                      |
|    \\/     M anipulation  |                                                 |
\*---------------------------------------------------------------------------*/
FoamFile
{
    version     2.0;
    format      ascii;
    arch        "LSB;label=32;scalar=64";
    class       volScalarField;
    location    "1.26092662";
    object      epsilon;
}
// * * * * * * * * * * * * * * * * * * * * * * * * * * * * * * * * * * * * * //

dimensions      [0 2 -3 0 0 0 0];

internalField   nonuniform List<scalar> 
90000
(
8.30656e-06
8.30911e-06
8.30961e-06
8.3098e-06
8.30992e-06
8.30989e-06
8.30979e-06
8.30967e-06
8.30952e-06
8.3093e-06
8.30901e-06
8.30871e-06
8.30853e-06
8.30859e-06
8.30875e-06
8.3089e-06
8.30912e-06
8.30964e-06
8.31019e-06
8.31027e-06
8.3097e-06
8.3088e-06
8.30947e-06
8.31138e-06
8.31308e-06
8.31379e-06
8.31313e-06
8.3121e-06
8.31434e-06
8.31941e-06
8.31023e-06
8.36353e-06
8.36843e-06
8.36846e-06
8.36816e-06
8.36796e-06
8.36792e-06
8.36794e-06
8.36789e-06
8.36779e-06
8.36781e-06
8.36802e-06
8.36827e-06
8.36844e-06
8.36852e-06
8.3685e-06
8.3684e-06
8.36825e-06
8.36804e-06
8.36782e-06
8.3681e-06
8.36866e-06
8.36915e-06
8.36922e-06
8.36869e-06
8.36798e-06
8.36889e-06
8.37174e-06
8.36944e-06
8.32907e-06
8.31063e-06
8.3686e-06
8.37403e-06
8.37413e-06
8.37393e-06
8.37383e-06
8.37388e-06
8.37393e-06
8.37383e-06
8.37359e-06
8.3736e-06
8.37401e-06
8.37459e-06
8.37507e-06
8.37514e-06
8.37475e-06
8.37399e-06
8.3733e-06
8.37387e-06
8.37483e-06
8.37546e-06
8.37561e-06
8.37544e-06
8.37528e-06
8.37566e-06
8.37652e-06
8.37711e-06
8.37937e-06
8.38191e-06
8.32599e-06
8.31024e-06
8.3688e-06
8.37448e-06
8.37475e-06
8.3747e-06
8.37466e-06
8.37469e-06
8.37474e-06
8.37468e-06
8.37445e-06
8.37423e-06
8.37444e-06
8.37482e-06
8.37518e-06
8.37515e-06
8.37472e-06
8.37423e-06
8.3746e-06
8.37555e-06
8.37615e-06
8.37616e-06
8.3758e-06
8.37614e-06
8.37749e-06
8.37875e-06
8.37971e-06
8.38092e-06
8.38082e-06
8.38085e-06
8.31862e-06
8.30964e-06
8.36869e-06
8.3745e-06
8.3749e-06
8.37494e-06
8.37486e-06
8.37477e-06
8.37475e-06
8.37479e-06
8.37477e-06
8.3747e-06
8.37457e-06
8.37437e-06
8.37408e-06
8.37404e-06
8.37462e-06
8.37537e-06
8.37594e-06
8.37611e-06
8.37584e-06
8.37538e-06
8.37563e-06
8.37691e-06
8.37831e-06
8.37919e-06
8.37919e-06
8.3787e-06
8.37881e-06
8.37441e-06
8.31484e-06
8.30942e-06
8.36877e-06
8.37448e-06
8.37492e-06
8.37501e-06
8.37491e-06
8.37473e-06
8.37463e-06
8.37467e-06
8.37482e-06
8.37503e-06
8.37528e-06
8.37546e-06
8.37536e-06
8.37519e-06
8.37536e-06
8.37573e-06
8.37589e-06
8.37568e-06
8.37532e-06
8.37534e-06
8.37591e-06
8.37667e-06
8.37722e-06
8.37743e-06
8.37729e-06
8.37671e-06
8.37956e-06
8.37437e-06
8.31464e-06
8.30983e-06
8.36909e-06
8.37474e-06
8.3753e-06
8.37561e-06
8.37578e-06
8.37573e-06
8.37537e-06
8.37487e-06
8.37477e-06
8.37517e-06
8.37585e-06
8.37651e-06
8.37676e-06
8.37636e-06
8.37553e-06
8.37478e-06
8.37456e-06
8.37489e-06
8.3754e-06
8.37584e-06
8.37601e-06
8.37577e-06
8.37517e-06
8.37506e-06
8.37679e-06
8.37901e-06
8.38164e-06
8.37636e-06
8.31414e-06
8.31014e-06
8.37008e-06
8.37558e-06
8.37622e-06
8.3767e-06
8.3771e-06
8.37725e-06
8.37695e-06
8.37614e-06
8.37511e-06
8.3752e-06
8.37586e-06
8.37657e-06
8.37686e-06
8.37641e-06
8.37525e-06
8.37384e-06
8.37341e-06
8.37445e-06
8.37537e-06
8.37579e-06
8.37561e-06
8.3749e-06
8.37445e-06
8.37568e-06
8.37793e-06
8.38004e-06
8.38114e-06
8.375e-06
8.31297e-06
8.31071e-06
8.37157e-06
8.37672e-06
8.37722e-06
8.37768e-06
8.37809e-06
8.3783e-06
8.37816e-06
8.37763e-06
8.3768e-06
8.37602e-06
8.37575e-06
8.37574e-06
8.37581e-06
8.37578e-06
8.37559e-06
8.37527e-06
8.3751e-06
8.3753e-06
8.37563e-06
8.37568e-06
8.3753e-06
8.37469e-06
8.37491e-06
8.37652e-06
8.37832e-06
8.37956e-06
8.37935e-06
8.37289e-06
8.31193e-06
8.31267e-06
8.37227e-06
8.37703e-06
8.37734e-06
8.37754e-06
8.37774e-06
8.37793e-06
8.37815e-06
8.37823e-06
8.37806e-06
8.37744e-06
8.37632e-06
8.37501e-06
8.37454e-06
8.37525e-06
8.37641e-06
8.37735e-06
8.37787e-06
8.37796e-06
8.37769e-06
8.3771e-06
8.37625e-06
8.37541e-06
8.37534e-06
8.37644e-06
8.37751e-06
8.3779e-06
8.3772e-06
8.37124e-06
8.31152e-06
8.31431e-06
8.37216e-06
8.3766e-06
8.37671e-06
8.37646e-06
8.37611e-06
8.37606e-06
8.37658e-06
8.37738e-06
8.37796e-06
8.37791e-06
8.3771e-06
8.37574e-06
8.3746e-06
8.37506e-06
8.37676e-06
8.3785e-06
8.37979e-06
8.38049e-06
8.38036e-06
8.37948e-06
8.3781e-06
8.37666e-06
8.37577e-06
8.37605e-06
8.3766e-06
8.37697e-06
8.37669e-06
8.37117e-06
8.3122e-06
8.31432e-06
8.37293e-06
8.37726e-06
8.37714e-06
8.37666e-06
8.37606e-06
8.37571e-06
8.37593e-06
8.37642e-06
8.37696e-06
8.37726e-06
8.37717e-06
8.37651e-06
8.37531e-06
8.37453e-06
8.37638e-06
8.37881e-06
8.3807e-06
8.38161e-06
8.38141e-06
8.38032e-06
8.37874e-06
8.37704e-06
8.3757e-06
8.37582e-06
8.37656e-06
8.37717e-06
8.3772e-06
8.3724e-06
8.31302e-06
8.31349e-06
8.37401e-06
8.37855e-06
8.3789e-06
8.37956e-06
8.38019e-06
8.38052e-06
8.3803e-06
8.37926e-06
8.37775e-06
8.37704e-06
8.37753e-06
8.37786e-06
8.37773e-06
8.37746e-06
8.37789e-06
8.37889e-06
8.37963e-06
8.37979e-06
8.37945e-06
8.37877e-06
8.37784e-06
8.37676e-06
8.3759e-06
8.37618e-06
8.37682e-06
8.37737e-06
8.3777e-06
8.37285e-06
8.31343e-06
8.3164e-06
8.37383e-06
8.37962e-06
8.38116e-06
8.38313e-06
8.38465e-06
8.38513e-06
8.38417e-06
8.38192e-06
8.37916e-06
8.37718e-06
8.37767e-06
8.37903e-06
8.3802e-06
8.38078e-06
8.38068e-06
8.37973e-06
8.37797e-06
8.37633e-06
8.37594e-06
8.37648e-06
8.37692e-06
8.37695e-06
8.37674e-06
8.37675e-06
8.37703e-06
8.37759e-06
8.37799e-06
8.37281e-06
8.31397e-06
8.32004e-06
8.37231e-06
8.3815e-06
8.38421e-06
8.38623e-06
8.387e-06
8.38626e-06
8.38423e-06
8.38145e-06
8.37866e-06
8.37659e-06
8.37707e-06
8.37914e-06
8.38112e-06
8.38214e-06
8.38189e-06
8.38037e-06
8.37799e-06
8.37571e-06
8.37466e-06
8.37558e-06
8.37684e-06
8.37757e-06
8.37765e-06
8.37735e-06
8.37767e-06
8.37862e-06
8.3791e-06
8.37436e-06
8.31598e-06
8.32104e-06
8.37805e-06
8.38512e-06
8.38652e-06
8.38669e-06
8.38552e-06
8.38337e-06
8.38105e-06
8.37915e-06
8.37758e-06
8.37626e-06
8.37663e-06
8.37874e-06
8.38079e-06
8.38184e-06
8.38168e-06
8.38066e-06
8.37911e-06
8.37745e-06
8.37623e-06
8.37612e-06
8.37711e-06
8.37803e-06
8.37831e-06
8.3784e-06
8.37913e-06
8.38023e-06
8.38132e-06
8.37773e-06
8.31807e-06
8.31927e-06
8.38412e-06
8.38792e-06
8.38711e-06
8.38501e-06
8.38218e-06
8.37952e-06
8.37846e-06
8.37849e-06
8.37797e-06
8.37719e-06
8.37747e-06
8.37883e-06
8.38019e-06
8.3809e-06
8.38102e-06
8.38067e-06
8.37982e-06
8.37869e-06
8.37772e-06
8.37737e-06
8.37757e-06
8.37812e-06
8.37867e-06
8.37936e-06
8.3805e-06
8.38183e-06
8.38303e-06
8.37854e-06
8.31797e-06
8.31861e-06
8.38718e-06
8.38946e-06
8.38752e-06
8.38481e-06
8.38204e-06
8.38005e-06
8.37921e-06
8.379e-06
8.37852e-06
8.37839e-06
8.3784e-06
8.37867e-06
8.37901e-06
8.37935e-06
8.37978e-06
8.38004e-06
8.37998e-06
8.37958e-06
8.37908e-06
8.37861e-06
8.37853e-06
8.37895e-06
8.37953e-06
8.38065e-06
8.38197e-06
8.38301e-06
8.38333e-06
8.37741e-06
8.31731e-06
8.32201e-06
8.38816e-06
8.39075e-06
8.38885e-06
8.38653e-06
8.38452e-06
8.38299e-06
8.38164e-06
8.38022e-06
8.37921e-06
8.37863e-06
8.378e-06
8.37757e-06
8.37735e-06
8.37746e-06
8.37803e-06
8.37885e-06
8.37952e-06
8.3798e-06
8.37967e-06
8.37933e-06
8.37937e-06
8.37981e-06
8.38133e-06
8.38321e-06
8.38416e-06
8.38428e-06
8.38358e-06
8.37756e-06
8.31831e-06
8.32561e-06
8.38837e-06
8.39172e-06
8.39008e-06
8.38819e-06
8.38666e-06
8.38542e-06
8.38404e-06
8.38247e-06
8.38094e-06
8.37953e-06
8.37814e-06
8.37693e-06
8.37603e-06
8.37584e-06
8.37667e-06
8.37798e-06
8.37904e-06
8.37966e-06
8.37988e-06
8.38007e-06
8.38095e-06
8.38315e-06
8.38532e-06
8.38627e-06
8.38616e-06
8.38586e-06
8.38555e-06
8.38078e-06
8.32125e-06
8.32877e-06
8.38834e-06
8.39221e-06
8.39098e-06
8.38974e-06
8.3888e-06
8.3878e-06
8.38645e-06
8.38479e-06
8.38293e-06
8.38095e-06
8.37891e-06
8.37725e-06
8.37655e-06
8.37679e-06
8.37767e-06
8.3787e-06
8.37953e-06
8.38036e-06
8.38137e-06
8.38299e-06
8.38531e-06
8.38727e-06
8.38788e-06
8.38733e-06
8.38689e-06
8.38704e-06
8.38744e-06
8.3831e-06
8.32374e-06
8.33133e-06
8.38863e-06
8.3933e-06
8.39265e-06
8.39186e-06
8.39102e-06
8.38982e-06
8.38824e-06
8.38638e-06
8.38425e-06
8.38192e-06
8.37995e-06
8.37911e-06
8.37915e-06
8.37911e-06
8.37905e-06
8.37936e-06
8.38035e-06
8.38211e-06
8.3845e-06
8.38722e-06
8.38921e-06
8.3896e-06
8.38877e-06
8.38845e-06
8.38889e-06
8.38961e-06
8.39009e-06
8.3853e-06
8.32675e-06
8.33355e-06
8.39007e-06
8.39548e-06
8.39527e-06
8.39449e-06
8.39324e-06
8.39158e-06
8.3897e-06
8.3877e-06
8.38562e-06
8.38374e-06
8.38241e-06
8.38164e-06
8.38043e-06
8.37904e-06
8.37846e-06
8.37927e-06
8.38144e-06
8.38451e-06
8.38785e-06
8.3903e-06
8.39103e-06
8.3906e-06
8.39054e-06
8.3913e-06
8.39251e-06
8.39354e-06
8.39382e-06
8.3889e-06
8.33072e-06
8.33645e-06
8.39361e-06
8.39918e-06
8.39893e-06
8.39776e-06
8.39604e-06
8.39414e-06
8.39227e-06
8.39036e-06
8.38834e-06
8.38635e-06
8.38471e-06
8.38281e-06
8.38031e-06
8.37825e-06
8.37835e-06
8.38013e-06
8.38328e-06
8.38718e-06
8.39022e-06
8.3917e-06
8.39209e-06
8.3928e-06
8.39415e-06
8.39588e-06
8.39758e-06
8.39852e-06
8.39887e-06
8.39369e-06
8.33599e-06
8.34164e-06
8.39927e-06
8.40452e-06
8.40388e-06
8.40229e-06
8.4004e-06
8.39857e-06
8.39666e-06
8.39445e-06
8.39196e-06
8.38936e-06
8.3868e-06
8.38376e-06
8.38077e-06
8.37945e-06
8.37973e-06
8.38168e-06
8.38545e-06
8.38892e-06
8.39114e-06
8.39269e-06
8.39479e-06
8.39694e-06
8.399e-06
8.40134e-06
8.40302e-06
8.40418e-06
8.40486e-06
8.40016e-06
8.34302e-06
8.34924e-06
8.40695e-06
8.41157e-06
8.41042e-06
8.4086e-06
8.40668e-06
8.40468e-06
8.40236e-06
8.39963e-06
8.39659e-06
8.39327e-06
8.38963e-06
8.38597e-06
8.38337e-06
8.3816e-06
8.3812e-06
8.38327e-06
8.38676e-06
8.38995e-06
8.39309e-06
8.39659e-06
8.39954e-06
8.40194e-06
8.40464e-06
8.40695e-06
8.4088e-06
8.41059e-06
8.41223e-06
8.40932e-06
8.34982e-06
8.35947e-06
8.41621e-06
8.42034e-06
8.4189e-06
8.41696e-06
8.41476e-06
8.41219e-06
8.40918e-06
8.40585e-06
8.40201e-06
8.39778e-06
8.39354e-06
8.39004e-06
8.38717e-06
8.3843e-06
8.38337e-06
8.3854e-06
8.38914e-06
8.3937e-06
8.39825e-06
8.40196e-06
8.40512e-06
8.40829e-06
8.41138e-06
8.41393e-06
8.41666e-06
8.41924e-06
8.42142e-06
8.41755e-06
8.35834e-06
8.37147e-06
8.42715e-06
8.43123e-06
8.42956e-06
8.42716e-06
8.4243e-06
8.42095e-06
8.41717e-06
8.41303e-06
8.40845e-06
8.40368e-06
8.39944e-06
8.39572e-06
8.39161e-06
8.38764e-06
8.38667e-06
8.38951e-06
8.39435e-06
8.3996e-06
8.40436e-06
8.40868e-06
8.41299e-06
8.41659e-06
8.42019e-06
8.42359e-06
8.42724e-06
8.43036e-06
8.43132e-06
8.42692e-06
8.36993e-06
8.385e-06
8.44024e-06
8.44394e-06
8.44188e-06
8.43901e-06
8.43554e-06
8.43156e-06
8.42712e-06
8.42221e-06
8.41686e-06
8.4116e-06
8.40685e-06
8.40175e-06
8.39619e-06
8.3916e-06
8.39102e-06
8.39483e-06
8.40045e-06
8.40643e-06
8.41216e-06
8.41749e-06
8.42276e-06
8.42734e-06
8.43186e-06
8.43611e-06
8.44027e-06
8.44339e-06
8.4437e-06
8.4396e-06
8.38475e-06
8.40085e-06
8.45558e-06
8.45907e-06
8.45673e-06
8.45346e-06
8.44954e-06
8.44498e-06
8.43976e-06
8.43383e-06
8.42741e-06
8.42118e-06
8.41494e-06
8.4081e-06
8.40125e-06
8.39623e-06
8.3961e-06
8.40074e-06
8.40714e-06
8.41413e-06
8.4212e-06
8.42769e-06
8.43428e-06
8.4405e-06
8.44609e-06
8.45085e-06
8.45515e-06
8.45847e-06
8.45956e-06
8.45699e-06
8.40179e-06
8.42012e-06
8.4744e-06
8.47776e-06
8.47508e-06
8.47128e-06
8.46669e-06
8.46127e-06
8.45503e-06
8.44782e-06
8.44007e-06
8.43238e-06
8.42435e-06
8.41591e-06
8.40798e-06
8.40253e-06
8.40264e-06
8.40803e-06
8.41541e-06
8.42363e-06
8.43221e-06
8.44029e-06
8.44854e-06
8.45626e-06
8.46254e-06
8.46791e-06
8.47238e-06
8.47653e-06
8.47968e-06
8.477e-06
8.42173e-06
8.44387e-06
8.4977e-06
8.5007e-06
8.49746e-06
8.49289e-06
8.4874e-06
8.48096e-06
8.47352e-06
8.46502e-06
8.45584e-06
8.44632e-06
8.43638e-06
8.4263e-06
8.41719e-06
8.41099e-06
8.41104e-06
8.4173e-06
8.42623e-06
8.43586e-06
8.44597e-06
8.45593e-06
8.46577e-06
8.47423e-06
8.48158e-06
8.48794e-06
8.49332e-06
8.49867e-06
8.5032e-06
8.50011e-06
8.446e-06
8.47298e-06
8.52601e-06
8.52851e-06
8.52463e-06
8.51918e-06
8.51265e-06
8.50501e-06
8.49623e-06
8.48626e-06
8.47527e-06
8.46354e-06
8.45141e-06
8.43959e-06
8.42922e-06
8.42212e-06
8.4221e-06
8.42927e-06
8.43994e-06
8.45117e-06
8.46298e-06
8.4748e-06
8.48569e-06
8.4953e-06
8.50441e-06
8.51237e-06
8.5189e-06
8.52546e-06
8.53042e-06
8.52767e-06
8.47507e-06
8.50845e-06
8.56033e-06
8.5623e-06
8.55771e-06
8.55121e-06
8.54333e-06
8.53408e-06
8.52351e-06
8.51161e-06
8.4985e-06
8.48465e-06
8.47059e-06
8.45697e-06
8.44509e-06
8.437e-06
8.43696e-06
8.44484e-06
8.45714e-06
8.4703e-06
8.48398e-06
8.49742e-06
8.51021e-06
8.5217e-06
8.53276e-06
8.54219e-06
8.55027e-06
8.55777e-06
8.56297e-06
8.56087e-06
8.50958e-06
8.55137e-06
8.60188e-06
8.60317e-06
8.5975e-06
8.58962e-06
8.58007e-06
8.56898e-06
8.55638e-06
8.54244e-06
8.52727e-06
8.51136e-06
8.49522e-06
8.47944e-06
8.46552e-06
8.45614e-06
8.45646e-06
8.46533e-06
8.47923e-06
8.49467e-06
8.51052e-06
8.52606e-06
8.54149e-06
8.55504e-06
8.56774e-06
8.5789e-06
8.58896e-06
8.59703e-06
8.60267e-06
8.60099e-06
8.5512e-06
8.60315e-06
8.65167e-06
8.65199e-06
8.64509e-06
8.63588e-06
8.6248e-06
8.61188e-06
8.5972e-06
8.58107e-06
8.56361e-06
8.54525e-06
8.52655e-06
8.50818e-06
8.49212e-06
8.48143e-06
8.48231e-06
8.49284e-06
8.50854e-06
8.52649e-06
8.54512e-06
8.56307e-06
8.58116e-06
8.59682e-06
8.61117e-06
8.62463e-06
8.63607e-06
8.64475e-06
8.65079e-06
8.64965e-06
8.60229e-06
8.66545e-06
8.71138e-06
8.71087e-06
8.70309e-06
8.69274e-06
8.68004e-06
8.6651e-06
8.64814e-06
8.62956e-06
8.60952e-06
8.5883e-06
8.56683e-06
8.54595e-06
8.5282e-06
8.51603e-06
8.5168e-06
8.52902e-06
8.54682e-06
8.56748e-06
8.58952e-06
8.61002e-06
8.6305e-06
8.64832e-06
8.66502e-06
8.68053e-06
8.69332e-06
8.70276e-06
8.70976e-06
8.71016e-06
8.66517e-06
8.74065e-06
8.78399e-06
8.78297e-06
8.77424e-06
8.76226e-06
8.74747e-06
8.73025e-06
8.71088e-06
8.68973e-06
8.66697e-06
8.64287e-06
8.61875e-06
8.59533e-06
8.57564e-06
8.56182e-06
8.56162e-06
8.57522e-06
8.59597e-06
8.61952e-06
8.64476e-06
8.66786e-06
8.69064e-06
8.71119e-06
8.73077e-06
8.7484e-06
8.76234e-06
8.77375e-06
8.78274e-06
8.78453e-06
8.74166e-06
8.83159e-06
8.8727e-06
8.87062e-06
8.86016e-06
8.84608e-06
8.82904e-06
8.80949e-06
8.78756e-06
8.76357e-06
8.73791e-06
8.7109e-06
8.68404e-06
8.65764e-06
8.63514e-06
8.61989e-06
8.61909e-06
8.63429e-06
8.65824e-06
8.68483e-06
8.71249e-06
8.73823e-06
8.76373e-06
8.78758e-06
8.80991e-06
8.82973e-06
8.84571e-06
8.85976e-06
8.87078e-06
8.87313e-06
8.83264e-06
8.94165e-06
8.97964e-06
8.97586e-06
8.96365e-06
8.94775e-06
8.92868e-06
8.90657e-06
8.88179e-06
8.85469e-06
8.82603e-06
8.79595e-06
8.76595e-06
8.73693e-06
8.71084e-06
8.69414e-06
8.69352e-06
8.71068e-06
8.73708e-06
8.76666e-06
8.79652e-06
8.82555e-06
8.8543e-06
8.88157e-06
8.90623e-06
8.92873e-06
8.94756e-06
8.96362e-06
8.97598e-06
8.97951e-06
8.94132e-06
9.07418e-06
9.10859e-06
9.10352e-06
9.09023e-06
9.07263e-06
9.05105e-06
9.02589e-06
8.99837e-06
8.96855e-06
8.93718e-06
8.90429e-06
8.8707e-06
8.8398e-06
8.81001e-06
8.79101e-06
8.79066e-06
8.81012e-06
8.83874e-06
8.87134e-06
8.90372e-06
8.93651e-06
8.96825e-06
8.99835e-06
9.02551e-06
9.05059e-06
9.07255e-06
9.09011e-06
9.10357e-06
9.10928e-06
9.07325e-06
9.23484e-06
9.26703e-06
9.26066e-06
9.24539e-06
9.22499e-06
9.20044e-06
9.17256e-06
9.14265e-06
9.1102e-06
9.07602e-06
9.04103e-06
9.00426e-06
8.97165e-06
8.93908e-06
8.91709e-06
8.91798e-06
8.93996e-06
8.97032e-06
9.00566e-06
9.0408e-06
9.07643e-06
9.11014e-06
9.14247e-06
9.17323e-06
9.2003e-06
9.22476e-06
9.24492e-06
9.2603e-06
9.26829e-06
9.23473e-06
9.43238e-06
9.46314e-06
9.45348e-06
9.43505e-06
9.41165e-06
9.38448e-06
9.35386e-06
9.32122e-06
9.28641e-06
9.25001e-06
9.21443e-06
9.17589e-06
9.14062e-06
9.10719e-06
9.08329e-06
9.08466e-06
9.10847e-06
9.14064e-06
9.17702e-06
9.21405e-06
9.25115e-06
9.28692e-06
9.32141e-06
9.35507e-06
9.3848e-06
9.41154e-06
9.43535e-06
9.45438e-06
9.46439e-06
9.43097e-06
9.67783e-06
9.70865e-06
9.69409e-06
9.67241e-06
9.64538e-06
9.61506e-06
9.58179e-06
9.54658e-06
9.51012e-06
9.47345e-06
9.43831e-06
9.40169e-06
9.3678e-06
9.33718e-06
9.31532e-06
9.31701e-06
9.33792e-06
9.36893e-06
9.40272e-06
9.43779e-06
9.47412e-06
9.51075e-06
9.54699e-06
9.58077e-06
9.61445e-06
9.64627e-06
9.67355e-06
9.69488e-06
9.7087e-06
9.67475e-06
9.99161e-06
1.00328e-05
1.00101e-05
9.98414e-06
9.95189e-06
9.916e-06
9.87841e-06
9.84162e-06
9.80937e-06
9.78056e-06
9.76202e-06
9.75721e-06
9.7679e-06
9.7817e-06
9.80306e-06
9.8114e-06
9.78523e-06
9.76726e-06
9.75922e-06
9.76451e-06
9.78178e-06
9.80918e-06
9.84345e-06
9.87763e-06
9.91401e-06
9.95292e-06
9.98585e-06
1.00095e-05
1.0032e-05
9.98896e-06
1.04545e-05
1.05553e-05
1.05155e-05
1.05091e-05
1.04523e-05
1.0393e-05
1.03621e-05
1.03384e-05
1.03408e-05
1.0398e-05
1.05657e-05
1.08902e-05
1.13829e-05
1.1896e-05
1.23908e-05
1.24371e-05
1.1913e-05
1.13856e-05
1.09093e-05
1.05696e-05
1.04015e-05
1.03425e-05
1.03376e-05
1.03634e-05
1.03939e-05
1.04505e-05
1.05116e-05
1.05186e-05
1.0558e-05
1.04488e-05
1.15151e-05
1.19465e-05
1.18845e-05
1.22542e-05
1.18773e-05
1.17147e-05
1.19294e-05
1.19573e-05
1.22389e-05
1.31555e-05
1.49852e-05
1.82984e-05
2.36749e-05
2.90908e-05
3.33524e-05
3.37137e-05
2.92277e-05
2.37469e-05
1.85051e-05
1.50091e-05
1.31761e-05
1.22511e-05
1.1958e-05
1.19376e-05
1.17168e-05
1.18707e-05
1.22685e-05
1.18951e-05
1.19655e-05
1.15007e-05
1.55326e-05
1.81052e-05
1.7785e-05
2.25431e-05
1.87852e-05
1.86057e-05
2.25488e-05
2.24771e-05
2.48202e-05
3.34445e-05
5.25784e-05
8.01757e-05
0.000127327
0.000173016
0.000204555
0.000204256
0.000173289
0.000128308
8.12746e-05
5.25737e-05
3.356e-05
2.49057e-05
2.25042e-05
2.26398e-05
1.86202e-05
1.87567e-05
2.26999e-05
1.78374e-05
1.82541e-05
1.54661e-05
3.31905e-05
5.00122e-05
4.93133e-05
8.58366e-05
6.49559e-05
7.43971e-05
0.000112611
0.000121963
0.000154473
0.000259803
0.000413835
0.000565942
0.000816952
0.00101627
0.00113688
0.00113215
0.00101279
0.000823774
0.000571193
0.00041164
0.000259838
0.000155076
0.000122761
0.000113418
7.46527e-05
6.4658e-05
8.77309e-05
4.9901e-05
5.08752e-05
3.29493e-05
0.000104737
0.00020244
0.000221086
0.000399548
0.000425685
0.000524201
0.000647292
0.000883162
0.00110737
0.0014271
0.00181382
0.00202134
0.00247478
0.00281065
0.00275459
0.00275362
0.00278767
0.00249673
0.00202598
0.0017704
0.00140415
0.00111046
0.000896176
0.000652507
0.000528228
0.00042238
0.000411963
0.000227089
0.000204363
0.000104826
0.000309553
0.000633314
0.000750585
0.00130493
0.00168255
0.00206896
0.00259433
0.00325194
0.00356989
0.00411247
0.00447289
0.00466139
0.00491987
0.00566583
0.00531878
0.00521599
0.00555812
0.00495877
0.00457995
0.00434305
0.00403593
0.00357959
0.00327769
0.00259694
0.00210807
0.00170312
0.00135574
0.000768265
0.00063803
0.000312177
0.000584341
0.000743188
0.00102067
0.00166196
0.00240045
0.00310792
0.00366769
0.00420982
0.00484005
0.00577155
0.00612036
0.00589277
0.00590096
0.00664808
0.0065943
0.0064538
0.00657333
0.00590023
0.00569305
0.00581274
0.00568913
0.00494783
0.00427446
0.00370085
0.00316153
0.00255554
0.00173792
0.00104141
0.000741542
0.000580124
0.000741583
0.000809159
0.00106688
0.0017369
0.00219839
0.00280607
0.00359073
0.00459956
0.0050669
0.00586896
0.00542505
0.0052727
0.00527106
0.00554591
0.00545743
0.00541768
0.00560888
0.00540883
0.00526161
0.00544129
0.00606274
0.00544147
0.00482025
0.0036486
0.0028413
0.00226697
0.0018066
0.00106898
0.000797406
0.00073567
0.0006753
0.000798029
0.00105941
0.00181969
0.00215594
0.00219395
0.00257264
0.00314291
0.00349089
0.00395018
0.0037705
0.00397134
0.00393776
0.00418432
0.00464015
0.00470944
0.00427514
0.00397053
0.00409293
0.0038227
0.0040654
0.00359031
0.00327726
0.00265678
0.00227485
0.0022176
0.00187069
0.0010498
0.000799569
0.000692595
0.00046336
0.000574851
0.000885678
0.00138715
0.00141344
0.00128744
0.00157615
0.0018291
0.00199159
0.00239373
0.00240909
0.00268449
0.00283071
0.00301612
0.00347329
0.00348598
0.00303906
0.00287774
0.00274433
0.0024289
0.00249118
0.00205934
0.00193418
0.0016389
0.00132489
0.00143263
0.00140253
0.000904273
0.00058975
0.00047124
0.000306909
0.000371519
0.000516865
0.000811322
0.000692496
0.000642335
0.000874381
0.00107107
0.00127655
0.00154706
0.00154145
0.00161183
0.00160763
0.00175716
0.00189212
0.00188317
0.00177878
0.00162182
0.00160693
0.001516
0.00158782
0.00130881
0.0011001
0.00089751
0.000656661
0.000696121
0.000817755
0.000523608
0.000381694
0.000310022
0.000210337
0.000244684
0.000286343
0.000400497
0.000338605
0.000288274
0.0003717
0.00051786
0.00074049
0.00103981
0.00121676
0.00130793
0.00132539
0.00137682
0.0013767
0.00136984
0.00138989
0.00132948
0.00129491
0.00119533
0.00104439
0.000746495
0.000525067
0.000378418
0.000292857
0.000342724
0.000408501
0.000288392
0.000248587
0.000212826
0.000152087
0.000165189
0.000174014
0.000199926
0.000185408
0.000166439
0.000177603
0.000218869
0.000316937
0.000522008
0.000781398
0.00103741
0.00121524
0.0013149
0.00131809
0.00131377
0.00132197
0.00121937
0.00103091
0.000772151
0.000521998
0.000317304
0.000220581
0.000179755
0.000168527
0.000188275
0.000203632
0.000175177
0.000167256
0.000153261
0.000116828
0.000118739
0.000119335
0.000122459
0.00011924
0.000115445
0.000117289
0.000125426
0.000149008
0.000216563
0.0003614
0.000595054
0.00086726
0.00109322
0.00118804
0.00118475
0.00109669
0.000870652
0.000592829
0.000358274
0.000216797
0.000149371
0.000126139
0.000117667
0.000116227
0.000120886
0.000124042
0.000120055
0.000119858
0.000117341
9.30932e-05
9.20666e-05
9.09709e-05
9.07159e-05
8.9995e-05
8.94748e-05
9.03366e-05
9.29586e-05
9.87513e-05
0.000114075
0.00015445
0.000249993
0.00041718
0.000626174
0.000778793
0.000776572
0.000627002
0.00041858
0.000249395
0.000153745
0.000114448
9.8961e-05
9.31959e-05
9.04455e-05
8.96786e-05
9.0493e-05
9.13613e-05
9.16955e-05
9.28079e-05
9.35883e-05
7.67139e-05
7.50111e-05
7.4099e-05
7.39994e-05
7.38673e-05
7.41249e-05
7.5068e-05
7.63831e-05
7.83559e-05
8.19854e-05
9.03171e-05
0.000111439
0.000158278
0.000234726
0.000316513
0.000315618
0.0002343
0.000158379
0.00011123
9.03901e-05
8.21626e-05
7.84531e-05
7.65689e-05
7.52638e-05
7.44505e-05
7.42511e-05
7.4168e-05
7.46153e-05
7.5585e-05
7.7079e-05
6.49298e-05
6.26856e-05
6.21099e-05
6.21427e-05
6.24525e-05
6.30553e-05
6.40488e-05
6.49021e-05
6.58495e-05
6.68885e-05
6.84952e-05
7.1961e-05
7.9697e-05
9.4041e-05
0.000111535
0.000111524
9.41458e-05
7.98599e-05
7.19766e-05
6.86925e-05
6.7096e-05
6.59856e-05
6.51033e-05
6.42181e-05
6.34109e-05
6.27631e-05
6.23767e-05
6.24179e-05
6.3264e-05
6.55204e-05
5.63996e-05
5.3359e-05
5.29084e-05
5.30825e-05
5.35045e-05
5.4191e-05
5.49579e-05
5.54465e-05
5.59077e-05
5.61683e-05
5.62715e-05
5.64667e-05
5.71334e-05
5.8673e-05
6.08007e-05
6.07773e-05
5.8798e-05
5.73291e-05
5.66685e-05
5.64673e-05
5.62807e-05
5.60283e-05
5.56782e-05
5.50345e-05
5.43144e-05
5.36556e-05
5.33288e-05
5.32065e-05
5.39389e-05
5.68316e-05
4.93304e-05
4.60364e-05
4.55513e-05
4.57512e-05
4.62189e-05
4.67751e-05
4.71782e-05
4.74152e-05
4.75052e-05
4.73143e-05
4.69245e-05
4.64997e-05
4.60841e-05
4.57624e-05
4.56454e-05
4.56219e-05
4.5852e-05
4.62063e-05
4.66574e-05
4.70793e-05
4.74034e-05
4.75904e-05
4.75228e-05
4.71953e-05
4.67696e-05
4.6355e-05
4.60771e-05
4.58652e-05
4.64774e-05
4.95718e-05
4.31724e-05
4.00099e-05
3.95369e-05
3.9763e-05
4.01477e-05
4.04658e-05
4.05835e-05
4.05534e-05
4.02959e-05
3.98358e-05
3.92832e-05
3.86756e-05
3.79932e-05
3.73709e-05
3.69961e-05
3.70514e-05
3.75339e-05
3.81258e-05
3.87616e-05
3.94012e-05
3.99956e-05
4.04561e-05
4.06296e-05
4.05951e-05
4.04433e-05
4.0234e-05
4.00005e-05
3.9808e-05
4.03557e-05
4.33441e-05
3.77772e-05
3.4974e-05
3.46081e-05
3.478e-05
3.49642e-05
3.50366e-05
3.49521e-05
3.46993e-05
3.42797e-05
3.37423e-05
3.30971e-05
3.23611e-05
3.15812e-05
3.09409e-05
3.0588e-05
3.06656e-05
3.11037e-05
3.17151e-05
3.24525e-05
3.32348e-05
3.39561e-05
3.4511e-05
3.4833e-05
3.49888e-05
3.50225e-05
3.49533e-05
3.47988e-05
3.47107e-05
3.52412e-05
3.79386e-05
3.3119e-05
3.08152e-05
3.04526e-05
3.04727e-05
3.047e-05
3.04033e-05
3.02063e-05
2.98514e-05
2.93808e-05
2.87824e-05
2.80776e-05
2.73219e-05
2.65824e-05
2.59863e-05
2.56391e-05
2.56746e-05
2.60555e-05
2.66573e-05
2.74112e-05
2.82111e-05
2.89538e-05
2.95522e-05
2.99692e-05
3.02428e-05
3.03887e-05
3.04294e-05
3.0394e-05
3.04191e-05
3.09305e-05
3.33128e-05
2.92515e-05
2.72e-05
2.68079e-05
2.6744e-05
2.66894e-05
2.6561e-05
2.62717e-05
2.58715e-05
2.53804e-05
2.47636e-05
2.40616e-05
2.3338e-05
2.26494e-05
2.20814e-05
2.17267e-05
2.17253e-05
2.20661e-05
2.26428e-05
2.33725e-05
2.41417e-05
2.48656e-05
2.54756e-05
2.59396e-05
2.62745e-05
2.65099e-05
2.66506e-05
2.67192e-05
2.68108e-05
2.72723e-05
2.93529e-05
2.5778e-05
2.40369e-05
2.37134e-05
2.36187e-05
2.35003e-05
2.3284e-05
2.29582e-05
2.25777e-05
2.21064e-05
2.15196e-05
2.0862e-05
2.0183e-05
1.9538e-05
1.90029e-05
1.86669e-05
1.86527e-05
1.89588e-05
1.94894e-05
2.01564e-05
2.0859e-05
2.15334e-05
2.21328e-05
2.2625e-05
2.30014e-05
2.32845e-05
2.34872e-05
2.36243e-05
2.37531e-05
2.41634e-05
2.59366e-05
2.28444e-05
2.15043e-05
2.11733e-05
2.10065e-05
2.08035e-05
2.05443e-05
2.02364e-05
1.98725e-05
1.94156e-05
1.88708e-05
1.82684e-05
1.76418e-05
1.70441e-05
1.65426e-05
1.62254e-05
1.62039e-05
1.64816e-05
1.69714e-05
1.75857e-05
1.82384e-05
1.88711e-05
1.94418e-05
1.99205e-05
2.02999e-05
2.0604e-05
2.08457e-05
2.10276e-05
2.11824e-05
2.1549e-05
2.30213e-05
2.04828e-05
1.93889e-05
1.90176e-05
1.88057e-05
1.85963e-05
1.83636e-05
1.80736e-05
1.77104e-05
1.72747e-05
1.67745e-05
1.62267e-05
1.56537e-05
1.51063e-05
1.46478e-05
1.43623e-05
1.43521e-05
1.46148e-05
1.50671e-05
1.56257e-05
1.62129e-05
1.67767e-05
1.72917e-05
1.77413e-05
1.8118e-05
1.84287e-05
1.86786e-05
1.88712e-05
1.90296e-05
1.93434e-05
2.05384e-05
1.84548e-05
1.74896e-05
1.71702e-05
1.69982e-05
1.68429e-05
1.66361e-05
1.6346e-05
1.59984e-05
1.5601e-05
1.51407e-05
1.46338e-05
1.41088e-05
1.3616e-05
1.3212e-05
1.29674e-05
1.29708e-05
1.32129e-05
1.36172e-05
1.41112e-05
1.4629e-05
1.51288e-05
1.55937e-05
1.60097e-05
1.63677e-05
1.66618e-05
1.68955e-05
1.7074e-05
1.72157e-05
1.74712e-05
1.84306e-05
1.67054e-05
1.58841e-05
1.56591e-05
1.55476e-05
1.54124e-05
1.52044e-05
1.49356e-05
1.46316e-05
1.42738e-05
1.38502e-05
1.33831e-05
1.29078e-05
1.24702e-05
1.21168e-05
1.19053e-05
1.19144e-05
1.21353e-05
1.24952e-05
1.29286e-05
1.3382e-05
1.38251e-05
1.42424e-05
1.46199e-05
1.4945e-05
1.52091e-05
1.54142e-05
1.55677e-05
1.56875e-05
1.58946e-05
1.66661e-05
1.51983e-05
1.45735e-05
1.44133e-05
1.43221e-05
1.41871e-05
1.39996e-05
1.37786e-05
1.35145e-05
1.31876e-05
1.28076e-05
1.23962e-05
1.19842e-05
1.16058e-05
1.1295e-05
1.11041e-05
1.11118e-05
1.13098e-05
1.16271e-05
1.20045e-05
1.23989e-05
1.27881e-05
1.31564e-05
1.34895e-05
1.37732e-05
1.40014e-05
1.41776e-05
1.43104e-05
1.44159e-05
1.45873e-05
1.52035e-05
1.39622e-05
1.35048e-05
1.33694e-05
1.32791e-05
1.31653e-05
1.30176e-05
1.28304e-05
1.25863e-05
1.22937e-05
1.19674e-05
1.16211e-05
1.12749e-05
1.09476e-05
1.06676e-05
1.04932e-05
1.04994e-05
1.06776e-05
1.09577e-05
1.12839e-05
1.16217e-05
1.19546e-05
1.22696e-05
1.25545e-05
1.27985e-05
1.2997e-05
1.31526e-05
1.32711e-05
1.33646e-05
1.35045e-05
1.39871e-05
1.29892e-05
1.26102e-05
1.24923e-05
1.24238e-05
1.23353e-05
1.22079e-05
1.20326e-05
1.18125e-05
1.15657e-05
1.12964e-05
1.10123e-05
1.07228e-05
1.04381e-05
1.01886e-05
1.00367e-05
1.00442e-05
1.01993e-05
1.04383e-05
1.07128e-05
1.09973e-05
1.1279e-05
1.15478e-05
1.17912e-05
1.2001e-05
1.21745e-05
1.23118e-05
1.24156e-05
1.24953e-05
1.26053e-05
1.29721e-05
1.21566e-05
1.18481e-05
1.17745e-05
1.17246e-05
1.16371e-05
1.15159e-05
1.13597e-05
1.11785e-05
1.09781e-05
1.07582e-05
1.0525e-05
1.02811e-05
1.00365e-05
9.82504e-06
9.69902e-06
9.70287e-06
9.82683e-06
1.00222e-05
1.02525e-05
1.04974e-05
1.07417e-05
1.09733e-05
1.11813e-05
1.13599e-05
1.15069e-05
1.16221e-05
1.17078e-05
1.17724e-05
1.18572e-05
1.21291e-05
1.14362e-05
1.12441e-05
1.12047e-05
1.11447e-05
1.10571e-05
1.09528e-05
1.08271e-05
1.06822e-05
1.05146e-05
1.03295e-05
1.01325e-05
9.92416e-06
9.71767e-06
9.54431e-06
9.44027e-06
9.43558e-06
9.52968e-06
9.69079e-06
9.8902e-06
1.01065e-05
1.03217e-05
1.05208e-05
1.0696e-05
1.08432e-05
1.09616e-05
1.10527e-05
1.11196e-05
1.117e-05
1.12351e-05
1.14404e-05
1.09011e-05
1.08043e-05
1.07445e-05
1.06718e-05
1.0599e-05
1.0517e-05
1.04177e-05
1.02965e-05
1.0154e-05
9.99886e-06
9.83275e-06
9.65677e-06
9.48569e-06
9.34364e-06
9.25342e-06
9.24061e-06
9.31244e-06
9.44805e-06
9.62143e-06
9.8087e-06
9.99133e-06
1.01569e-05
1.02991e-05
1.04166e-05
1.05103e-05
1.05828e-05
1.06376e-05
1.06797e-05
1.07309e-05
1.08829e-05
1.05035e-05
1.04117e-05
1.0333e-05
1.02803e-05
1.0231e-05
1.01684e-05
1.00888e-05
9.98863e-06
9.8736e-06
9.74848e-06
9.61072e-06
9.46438e-06
9.32423e-06
9.2058e-06
9.12428e-06
9.10829e-06
9.1672e-06
9.28098e-06
9.42418e-06
9.57551e-06
9.72093e-06
9.85309e-06
9.96862e-06
1.00665e-05
1.01466e-05
1.02098e-05
1.02578e-05
1.02935e-05
1.03303e-05
1.04341e-05
1.01387e-05
1.00354e-05
9.99592e-06
9.97525e-06
9.94168e-06
9.89093e-06
9.82351e-06
9.74142e-06
9.6498e-06
9.54642e-06
9.42894e-06
9.30595e-06
9.1902e-06
9.0903e-06
9.02117e-06
9.01041e-06
9.06309e-06
9.15652e-06
9.26915e-06
9.38611e-06
9.50009e-06
9.60878e-06
9.70955e-06
9.79765e-06
9.86968e-06
9.92507e-06
9.96514e-06
9.99162e-06
1.00129e-05
1.00759e-05
9.80099e-06
9.75414e-06
9.76221e-06
9.75169e-06
9.71989e-06
9.67166e-06
9.61046e-06
9.54228e-06
9.46656e-06
9.37599e-06
9.27302e-06
9.16988e-06
9.07441e-06
8.99226e-06
8.93709e-06
8.93288e-06
8.9816e-06
9.05916e-06
9.14836e-06
9.24124e-06
9.33545e-06
9.4292e-06
9.51714e-06
9.59287e-06
9.65296e-06
9.69688e-06
9.72542e-06
9.74e-06
9.74654e-06
9.77744e-06
9.55927e-06
9.58178e-06
9.58578e-06
9.56378e-06