/*--------------------------------*- C++ -*----------------------------------*\
| =========                 |                                                 |
| \\      /  F ield         | OpenFOAM: The Open Source CFD Toolbox           |
|  \\    /   O peration     | Version:  2312                                  |
|   \\  /    A nd           | Website:  www.openfoam.com                      |
|    \\/     M anipulation  |                                                 |
\*---------------------------------------------------------------------------*/
FoamFile
{
    version     2.0;
    format      ascii;
    arch        "LSB;label=32;scalar=64";
    class       volScalarField;
    location    "1.26092662";
    object      k;
}
// * * * * * * * * * * * * * * * * * * * * * * * * * * * * * * * * * * * * * //

dimensions      [0 2 -2 0 0 0 0];

internalField   nonuniform List<scalar> 
90000
(
2.18959e-05
2.19004e-05
2.19013e-05
2.19016e-05
2.19019e-05
2.19019e-05
2.19017e-05
2.19015e-05
2.19013e-05
2.19009e-05
2.19003e-05
2.18998e-05
2.18994e-05
2.18995e-05
2.18998e-05
2.19e-05
2.19004e-05
2.19013e-05
2.19023e-05
2.19024e-05
2.19014e-05
2.18998e-05
2.19011e-05
2.19047e-05
2.19078e-05
2.1909e-05
2.19078e-05
2.19059e-05
2.19103e-05
2.192e-05
2.19025e-05
2.19985e-05
2.20074e-05
2.20074e-05
2.20069e-05
2.20066e-05
2.20066e-05
2.20066e-05
2.20066e-05
2.20064e-05
2.20065e-05
2.20068e-05
2.20073e-05
2.20076e-05
2.20077e-05
2.20076e-05
2.20074e-05
2.20072e-05
2.20068e-05
2.20064e-05
2.20069e-05
2.2008e-05
2.20089e-05
2.2009e-05
2.20081e-05
2.20069e-05
2.20085e-05
2.20138e-05
2.20097e-05
2.19378e-05
2.19032e-05
2.20077e-05
2.20176e-05
2.20178e-05
2.20175e-05
2.20174e-05
2.20175e-05
2.20176e-05
2.20174e-05
2.2017e-05
2.2017e-05
2.20178e-05
2.20189e-05
2.20197e-05
2.20198e-05
2.20191e-05
2.20177e-05
2.20164e-05
2.20175e-05
2.20192e-05
2.20203e-05
2.20206e-05
2.20203e-05
2.20199e-05
2.20206e-05
2.20222e-05
2.20233e-05
2.20276e-05
2.20327e-05
2.1932e-05
2.19024e-05
2.20081e-05
2.20185e-05
2.2019e-05
2.2019e-05
2.20189e-05
2.2019e-05
2.20191e-05
2.2019e-05
2.20186e-05
2.20182e-05
2.20185e-05
2.20192e-05
2.20199e-05
2.20198e-05
2.2019e-05
2.20181e-05
2.20187e-05
2.20205e-05
2.20216e-05
2.20216e-05
2.20209e-05
2.20214e-05
2.20239e-05
2.20262e-05
2.2028e-05
2.20303e-05
2.20302e-05
2.20307e-05
2.19182e-05
2.19013e-05
2.20079e-05
2.20185e-05
2.20193e-05
2.20194e-05
2.20192e-05
2.20191e-05
2.20191e-05
2.20192e-05
2.20192e-05
2.2019e-05
2.20188e-05
2.20184e-05
2.20179e-05
2.20178e-05
2.20188e-05
2.20202e-05
2.20212e-05
2.20215e-05
2.2021e-05
2.20201e-05
2.20206e-05
2.20229e-05
2.20255e-05
2.20271e-05
2.20271e-05
2.20262e-05
2.20265e-05
2.20186e-05
2.1911e-05
2.1901e-05
2.20081e-05
2.20185e-05
2.20193e-05
2.20194e-05
2.20192e-05
2.20189e-05
2.20188e-05
2.20189e-05
2.20192e-05
2.20196e-05
2.20201e-05
2.20204e-05
2.20202e-05
2.20198e-05
2.20202e-05
2.20209e-05
2.20212e-05
2.20208e-05
2.20201e-05
2.20201e-05
2.20211e-05
2.20225e-05
2.20235e-05
2.20239e-05
2.20237e-05
2.20225e-05
2.20277e-05
2.20181e-05
2.19105e-05
2.19018e-05
2.20086e-05
2.20189e-05
2.20199e-05
2.20205e-05
2.20208e-05
2.20207e-05
2.20201e-05
2.20192e-05
2.20191e-05
2.20199e-05
2.20211e-05
2.20223e-05
2.20227e-05
2.2022e-05
2.20204e-05
2.20191e-05
2.20188e-05
2.20194e-05
2.20203e-05
2.20211e-05
2.20214e-05
2.20209e-05
2.20198e-05
2.20196e-05
2.20226e-05
2.20266e-05
2.20315e-05
2.20218e-05
2.19095e-05
2.19023e-05
2.20104e-05
2.20205e-05
2.20217e-05
2.20226e-05
2.20233e-05
2.20235e-05
2.2023e-05
2.20215e-05
2.20196e-05
2.20198e-05
2.20211e-05
2.20224e-05
2.2023e-05
2.20221e-05
2.202e-05
2.20174e-05
2.20166e-05
2.20186e-05
2.20202e-05
2.2021e-05
2.20207e-05
2.20194e-05
2.20185e-05
2.20206e-05
2.20247e-05
2.20285e-05
2.20306e-05
2.20193e-05
2.19073e-05
2.19033e-05
2.20131e-05
2.20226e-05
2.20235e-05
2.20244e-05
2.20252e-05
2.20255e-05
2.20252e-05
2.20242e-05
2.20226e-05
2.20212e-05
2.20208e-05
2.20209e-05
2.20211e-05
2.2021e-05
2.20206e-05
2.202e-05
2.20197e-05
2.202e-05
2.20206e-05
2.20208e-05
2.20201e-05
2.2019e-05
2.20192e-05
2.20221e-05
2.20254e-05
2.20277e-05
2.20273e-05
2.20154e-05
2.19054e-05
2.19069e-05
2.20144e-05
2.20232e-05
2.20238e-05
2.20242e-05
2.20246e-05
2.20249e-05
2.20252e-05
2.20253e-05
2.2025e-05
2.20238e-05
2.20218e-05
2.20194e-05
2.20187e-05
2.20201e-05
2.20222e-05
2.20238e-05
2.20247e-05
2.20248e-05
2.20243e-05
2.20232e-05
2.20217e-05
2.20202e-05
2.202e-05
2.2022e-05
2.20239e-05
2.20246e-05
2.20233e-05
2.20124e-05
2.19046e-05
2.19099e-05
2.20142e-05
2.20224e-05
2.20227e-05
2.20222e-05
2.20216e-05
2.20215e-05
2.20224e-05
2.20238e-05
2.20248e-05
2.20247e-05
2.20232e-05
2.20207e-05
2.20188e-05
2.20197e-05
2.20228e-05
2.20259e-05
2.20282e-05
2.20294e-05
2.20292e-05
2.20276e-05
2.20251e-05
2.20224e-05
2.20208e-05
2.20213e-05
2.20223e-05
2.20229e-05
2.20224e-05
2.20123e-05
2.19058e-05
2.19098e-05
2.20158e-05
2.20237e-05
2.20234e-05
2.20225e-05
2.20214e-05
2.20207e-05
2.2021e-05
2.2022e-05
2.2023e-05
2.20235e-05
2.20234e-05
2.20222e-05
2.202e-05
2.20186e-05
2.20221e-05
2.20265e-05
2.20299e-05
2.20315e-05
2.20311e-05
2.20292e-05
2.20263e-05
2.20232e-05
2.20207e-05
2.20208e-05
2.20222e-05
2.20233e-05
2.20233e-05
2.20145e-05
2.19073e-05
2.19083e-05
2.20178e-05
2.2026e-05
2.20266e-05
2.20278e-05
2.20289e-05
2.20294e-05
2.2029e-05
2.20271e-05
2.20244e-05
2.20231e-05
2.2024e-05
2.20247e-05
2.20244e-05
2.20239e-05
2.20247e-05
2.20266e-05
2.20279e-05
2.20283e-05
2.20277e-05
2.20264e-05
2.20247e-05
2.20227e-05
2.2021e-05
2.20215e-05
2.20227e-05
2.20236e-05
2.20242e-05
2.20153e-05
2.1908e-05
2.19138e-05
2.20174e-05
2.20279e-05
2.20307e-05
2.20343e-05
2.2037e-05
2.20379e-05
2.20361e-05
2.2032e-05
2.2027e-05
2.20234e-05
2.20244e-05
2.20268e-05
2.2029e-05
2.203e-05
2.20298e-05
2.2028e-05
2.20249e-05
2.2022e-05
2.20213e-05
2.20223e-05
2.2023e-05
2.2023e-05
2.20226e-05
2.20226e-05
2.2023e-05
2.2024e-05
2.20247e-05
2.20152e-05
2.1909e-05
2.19204e-05
2.20144e-05
2.20312e-05
2.20362e-05
2.20399e-05
2.20413e-05
2.20399e-05
2.20362e-05
2.20311e-05
2.2026e-05
2.20223e-05
2.20233e-05
2.20271e-05
2.20307e-05
2.20325e-05
2.2032e-05
2.20292e-05
2.20249e-05
2.20207e-05
2.20188e-05
2.20205e-05
2.20228e-05
2.20241e-05
2.20242e-05
2.20237e-05
2.20242e-05
2.20259e-05
2.20268e-05
2.20181e-05
2.19127e-05
2.19221e-05
2.20248e-05
2.20377e-05
2.20403e-05
2.20406e-05
2.20385e-05
2.20345e-05
2.20303e-05
2.20268e-05
2.2024e-05
2.20216e-05
2.20224e-05
2.20263e-05
2.203e-05
2.20319e-05
2.20316e-05
2.20298e-05
2.20269e-05
2.20238e-05
2.20216e-05
2.20214e-05
2.20232e-05
2.20249e-05
2.20254e-05
2.20255e-05
2.20268e-05
2.20288e-05
2.20307e-05
2.20241e-05
2.19164e-05
2.19187e-05
2.20357e-05
2.20427e-05
2.20412e-05
2.20374e-05
2.20322e-05
2.20273e-05
2.20255e-05
2.20256e-05
2.20247e-05
2.20232e-05
2.20239e-05
2.20264e-05
2.20289e-05
2.20302e-05
2.20304e-05
2.20298e-05
2.20282e-05
2.2026e-05
2.20242e-05
2.20235e-05
2.2024e-05
2.2025e-05
2.2026e-05
2.20272e-05
2.20292e-05
2.20315e-05
2.20336e-05
2.20254e-05
2.1916e-05
2.19172e-05
2.20412e-05
2.20453e-05
2.20418e-05
2.20368e-05
2.20318e-05
2.20284e-05
2.20269e-05
2.20265e-05
2.20256e-05
2.20254e-05
2.20255e-05
2.2026e-05
2.20267e-05
2.20274e-05
2.20282e-05
2.20286e-05
2.20284e-05
2.20276e-05
2.20266e-05
2.20257e-05
2.20256e-05
2.20264e-05
2.20275e-05
2.20294e-05
2.20318e-05
2.20335e-05
2.2034e-05
2.20232e-05
2.19149e-05
2.19232e-05
2.20428e-05
2.20475e-05
2.20441e-05
2.20399e-05
2.20363e-05
2.20336e-05
2.20312e-05
2.20286e-05
2.20268e-05
2.20258e-05
2.20247e-05
2.2024e-05
2.20237e-05
2.20239e-05
2.2025e-05
2.20264e-05
2.20276e-05
2.2028e-05
2.20276e-05
2.20269e-05
2.20271e-05
2.2028e-05
2.20307e-05
2.2034e-05
2.20356e-05
2.20358e-05
2.20345e-05
2.20236e-05
2.19166e-05
2.19297e-05
2.2043e-05
2.20491e-05
2.20462e-05
2.20428e-05
2.20401e-05
2.2038e-05
2.20355e-05
2.20327e-05
2.203e-05
2.20275e-05
2.20251e-05
2.20229e-05
2.20213e-05
2.2021e-05
2.20225e-05
2.20249e-05
2.20267e-05
2.20276e-05
2.20279e-05
2.20283e-05
2.20299e-05
2.20339e-05
2.20378e-05
2.20394e-05
2.20392e-05
2.20386e-05
2.2038e-05
2.20293e-05
2.19217e-05
2.19352e-05
2.20427e-05
2.20498e-05
2.20477e-05
2.20455e-05
2.2044e-05
2.20423e-05
2.20399e-05
2.2037e-05
2.20337e-05
2.20301e-05
2.20265e-05
2.20234e-05
2.20222e-05
2.20227e-05
2.20244e-05
2.20261e-05
2.20275e-05
2.20288e-05
2.20306e-05
2.20336e-05
2.20378e-05
2.20413e-05
2.20422e-05
2.20412e-05
2.20404e-05
2.20406e-05
2.20412e-05
2.20332e-05
2.1926e-05
2.19397e-05
2.2043e-05
2.20516e-05
2.20506e-05
2.20493e-05
2.20479e-05
2.20459e-05
2.20431e-05
2.20398e-05
2.2036e-05
2.20318e-05
2.20281e-05
2.20266e-05
2.20269e-05
2.20269e-05
2.20268e-05
2.20272e-05
2.20289e-05
2.2032e-05
2.20363e-05
2.20412e-05
2.20447e-05
2.20452e-05
2.20437e-05
2.20431e-05
2.20439e-05
2.20451e-05
2.20458e-05
2.20369e-05
2.19314e-05
2.19433e-05
2.20454e-05
2.20555e-05
2.20553e-05
2.2054e-05
2.20519e-05
2.2049e-05
2.20456e-05
2.20421e-05
2.20383e-05
2.20348e-05
2.20323e-05
2.20311e-05
2.20291e-05
2.20267e-05
2.20256e-05
2.2027e-05
2.20308e-05
2.20363e-05
2.20423e-05
2.20467e-05
2.20478e-05
2.20469e-05
2.20469e-05
2.20483e-05
2.20504e-05
2.20521e-05
2.20525e-05
2.20434e-05
2.19385e-05
2.19484e-05
2.20518e-05
2.20622e-05
2.20619e-05
2.20598e-05
2.20568e-05
2.20534e-05
2.20501e-05
2.20467e-05
2.2043e-05
2.20393e-05
2.20363e-05
2.20331e-05
2.20287e-05
2.20251e-05
2.20253e-05
2.20285e-05
2.20341e-05
2.20411e-05
2.20465e-05
2.2049e-05
2.20496e-05
2.20509e-05
2.20534e-05
2.20565e-05
2.20594e-05
2.2061e-05
2.20616e-05
2.2052e-05
2.1948e-05
2.1958e-05
2.20621e-05
2.20718e-05
2.20707e-05
2.20679e-05
2.20645e-05
2.20613e-05
2.20579e-05
2.20539e-05
2.20493e-05
2.20445e-05
2.204e-05
2.20347e-05
2.20295e-05
2.20273e-05
2.20278e-05
2.20312e-05
2.2038e-05
2.20441e-05
2.20479e-05
2.20506e-05
2.20544e-05
2.20584e-05
2.20621e-05
2.20662e-05
2.20692e-05
2.20712e-05
2.20723e-05
2.20638e-05
2.19608e-05
2.19719e-05
2.20759e-05
2.20844e-05
2.20823e-05
2.20791e-05
2.20757e-05
2.20721e-05
2.20679e-05
2.2063e-05
2.20574e-05
2.20514e-05
2.2045e-05
2.20387e-05
2.20342e-05
2.20311e-05
2.20303e-05
2.2034e-05
2.20402e-05
2.20457e-05
2.20512e-05
2.20575e-05
2.20629e-05
2.20672e-05
2.2072e-05
2.20762e-05
2.20795e-05
2.20827e-05
2.20856e-05
2.20804e-05
2.1973e-05
2.19903e-05
2.20924e-05
2.21e-05
2.20974e-05
2.20939e-05
2.20899e-05
2.20853e-05
2.20799e-05
2.20738e-05
2.20669e-05
2.20594e-05
2.20521e-05
2.2046e-05
2.2041e-05
2.20359e-05
2.20341e-05
2.20377e-05
2.20443e-05
2.20523e-05
2.20605e-05
2.20671e-05
2.20728e-05
2.20785e-05
2.2084e-05
2.20886e-05
2.20936e-05
2.20981e-05
2.21021e-05
2.20951e-05
2.19881e-05
2.20118e-05
2.21118e-05
2.21193e-05
2.21162e-05
2.21119e-05
2.21068e-05
2.21008e-05
2.2094e-05
2.20865e-05
2.20784e-05
2.20701e-05
2.20627e-05
2.20563e-05
2.2049e-05
2.20418e-05
2.204e-05
2.2045e-05
2.20536e-05
2.20629e-05
2.20714e-05
2.2079e-05
2.20867e-05
2.20932e-05
2.20996e-05
2.21057e-05
2.21124e-05
2.2118e-05
2.21197e-05
2.21116e-05
2.20089e-05
2.20358e-05
2.2135e-05
2.21418e-05
2.21381e-05
2.2133e-05
2.21268e-05
2.21196e-05
2.21116e-05
2.21028e-05
2.20934e-05
2.20843e-05
2.2076e-05
2.20669e-05
2.2057e-05
2.20488e-05
2.20477e-05
2.20544e-05
2.20644e-05
2.2075e-05
2.20851e-05
2.20945e-05
2.21039e-05
2.21122e-05
2.21203e-05
2.21279e-05
2.21355e-05
2.21412e-05
2.21415e-05
2.21341e-05
2.20355e-05
2.20639e-05
2.21623e-05
2.21687e-05
2.21645e-05
2.21586e-05
2.21515e-05
2.21433e-05
2.21339e-05
2.21234e-05
2.21122e-05
2.21013e-05
2.20902e-05
2.2078e-05
2.20658e-05
2.20569e-05
2.20566e-05
2.20649e-05
2.20762e-05
2.20886e-05
2.21011e-05
2.21126e-05
2.21242e-05
2.21354e-05
2.21454e-05
2.21539e-05
2.21617e-05
2.21679e-05
2.21697e-05
2.21651e-05
2.20658e-05
2.20982e-05
2.21956e-05
2.22018e-05
2.2197e-05
2.21901e-05
2.21818e-05
2.21721e-05
2.2161e-05
2.21483e-05
2.21347e-05
2.21211e-05
2.21068e-05
2.20917e-05
2.20776e-05
2.2068e-05
2.20682e-05
2.20777e-05
2.20908e-05
2.21054e-05
2.21206e-05
2.2135e-05
2.21495e-05
2.21631e-05
2.21745e-05
2.21841e-05
2.21921e-05
2.21998e-05
2.22054e-05
2.22005e-05
2.21011e-05
2.21402e-05
2.22369e-05
2.22424e-05
2.22366e-05
2.22283e-05
2.22185e-05
2.2207e-05
2.21938e-05
2.21788e-05
2.21626e-05
2.21457e-05
2.2128e-05
2.211e-05
2.20938e-05
2.20828e-05
2.20829e-05
2.2094e-05
2.21099e-05
2.2127e-05
2.2145e-05
2.21627e-05
2.218e-05
2.21949e-05
2.22082e-05
2.22195e-05
2.22289e-05
2.22389e-05
2.2247e-05
2.22411e-05
2.21441e-05
2.21918e-05
2.22869e-05
2.22915e-05
2.22847e-05
2.22749e-05
2.22632e-05
2.22495e-05
2.22339e-05
2.22162e-05
2.21968e-05
2.2176e-05
2.21544e-05
2.21335e-05
2.2115e-05
2.21024e-05
2.21023e-05
2.2115e-05
2.21341e-05
2.21541e-05
2.2175e-05
2.21961e-05
2.22152e-05
2.22322e-05
2.22485e-05
2.22626e-05
2.22741e-05
2.22862e-05
2.2295e-05
2.22898e-05
2.21955e-05
2.22545e-05
2.23476e-05
2.23513e-05
2.23431e-05
2.23314e-05
2.23173e-05
2.23007e-05
2.2282e-05
2.22609e-05
2.22377e-05
2.22132e-05
2.21883e-05
2.21642e-05
2.21429e-05
2.21284e-05
2.21284e-05
2.21424e-05
2.21644e-05
2.21879e-05
2.2212e-05
2.22359e-05
2.22586e-05
2.22788e-05
2.22984e-05
2.23153e-05
2.23296e-05
2.23432e-05
2.23524e-05
2.23484e-05
2.22566e-05
2.23304e-05
2.24209e-05
2.24234e-05
2.24132e-05
2.23991e-05
2.2382e-05
2.23623e-05
2.234e-05
2.23154e-05
2.22886e-05
2.22604e-05
2.22318e-05
2.22036e-05
2.21787e-05
2.21618e-05
2.21626e-05
2.21784e-05
2.22032e-05
2.22308e-05
2.22588e-05
2.22864e-05
2.2314e-05
2.23377e-05
2.23601e-05
2.23802e-05
2.2398e-05
2.24123e-05
2.24223e-05
2.24192e-05
2.23302e-05
2.24218e-05
2.25086e-05
2.25093e-05
2.2497e-05
2.24806e-05
2.24608e-05
2.24379e-05
2.2412e-05
2.23835e-05
2.23526e-05
2.232e-05
2.22867e-05
2.22539e-05
2.22253e-05
2.22061e-05
2.2208e-05
2.22267e-05
2.22546e-05
2.22867e-05
2.23198e-05
2.23517e-05
2.23839e-05
2.24113e-05
2.24367e-05
2.2461e-05
2.2481e-05
2.24962e-05
2.2507e-05
2.2505e-05
2.24204e-05
2.25315e-05
2.26136e-05
2.26128e-05
2.25989e-05
2.25805e-05
2.2558e-05
2.25316e-05
2.25016e-05
2.24688e-05
2.24333e-05
2.23956e-05
2.23574e-05
2.23201e-05
2.22886e-05
2.22668e-05
2.22683e-05
2.229e-05
2.23218e-05
2.23587e-05
2.23979e-05
2.24342e-05
2.24706e-05
2.2502e-05
2.25316e-05
2.25593e-05
2.25815e-05
2.25982e-05
2.26107e-05
2.26115e-05
2.25311e-05
2.26636e-05
2.27409e-05
2.27391e-05
2.27236e-05
2.27024e-05
2.26763e-05
2.26459e-05
2.26117e-05
2.25743e-05
2.2534e-05
2.24912e-05
2.24484e-05
2.24066e-05
2.23716e-05
2.23469e-05
2.23466e-05
2.23708e-05
2.24079e-05
2.24499e-05
2.24948e-05
2.25356e-05
2.25761e-05
2.26124e-05
2.26469e-05
2.26781e-05
2.27025e-05
2.27228e-05
2.27387e-05
2.27419e-05
2.26655e-05
2.28228e-05
2.2896e-05
2.28923e-05
2.28739e-05
2.28491e-05
2.28191e-05
2.27846e-05
2.27459e-05
2.27035e-05
2.26581e-05
2.26102e-05
2.25625e-05
2.25154e-05
2.24754e-05
2.24482e-05
2.24467e-05
2.24738e-05
2.25166e-05
2.25641e-05
2.26132e-05
2.26587e-05
2.27041e-05
2.27463e-05
2.27854e-05
2.28202e-05
2.28485e-05
2.28732e-05
2.28925e-05
2.2897e-05
2.28249e-05
2.30147e-05
2.30825e-05
2.30757e-05
2.30543e-05
2.30264e-05
2.29929e-05
2.29539e-05
2.29103e-05
2.28625e-05
2.28118e-05
2.27584e-05
2.27051e-05
2.26535e-05
2.2607e-05
2.25772e-05
2.25761e-05
2.26066e-05
2.26538e-05
2.27067e-05
2.27596e-05
2.2811e-05
2.28621e-05
2.29103e-05
2.29534e-05
2.29929e-05
2.30262e-05
2.30542e-05
2.30759e-05
2.30827e-05
2.30145e-05
2.3245e-05
2.33066e-05
2.32975e-05
2.32742e-05
2.32432e-05
2.32053e-05
2.31612e-05
2.31128e-05
2.30603e-05
2.30047e-05
2.29465e-05
2.28867e-05
2.2832e-05
2.27788e-05
2.27448e-05
2.27442e-05
2.2779e-05
2.283e-05
2.28883e-05
2.29456e-05
2.30038e-05
2.30601e-05
2.3113e-05
2.31608e-05
2.32046e-05
2.32432e-05
2.32741e-05
2.32978e-05
2.33082e-05
2.32434e-05
2.35228e-05
2.35808e-05
2.35691e-05
2.35422e-05
2.35064e-05
2.34634e-05
2.34147e-05
2.33621e-05
2.3305e-05
2.32445e-05
2.31827e-05
2.31171e-05
2.30594e-05
2.30012e-05
2.29619e-05
2.29634e-05
2.30029e-05
2.30568e-05
2.312e-05
2.31823e-05
2.32455e-05
2.33052e-05
2.3362e-05
2.3416e-05
2.34634e-05
2.35061e-05
2.35417e-05
2.35689e-05
2.35831e-05
2.35221e-05
2.38624e-05
2.39183e-05
2.39004e-05
2.3868e-05
2.38272e-05
2.37795e-05
2.37261e-05
2.36688e-05
2.36075e-05
2.35431e-05
2.34799e-05
2.34115e-05
2.33489e-05
2.3289e-05
2.32464e-05
2.32488e-05
2.32914e-05
2.33486e-05
2.34136e-05
2.34793e-05
2.35451e-05
2.36084e-05
2.36692e-05
2.37279e-05
2.37803e-05
2.38272e-05
2.38687e-05
2.39023e-05
2.39205e-05
2.3859e-05
2.42816e-05
2.43386e-05
2.43115e-05
2.42733e-05
2.42261e-05
2.41728e-05
2.41147e-05
2.40528e-05
2.39883e-05
2.39237e-05
2.38608e-05
2.37959e-05
2.37356e-05
2.36802e-05
2.3641e-05
2.36443e-05
2.36818e-05
2.37371e-05
2.37975e-05
2.38602e-05
2.39247e-05
2.39893e-05
2.40536e-05
2.41128e-05
2.41717e-05
2.42278e-05
2.42754e-05
2.43133e-05
2.43388e-05
2.42748e-05
2.48146e-05
2.48923e-05
2.48501e-05
2.48043e-05
2.47467e-05
2.46832e-05
2.46177e-05
2.45526e-05
2.44943e-05
2.44436e-05
2.44088e-05
2.43981e-05
2.44143e-05
2.44343e-05
2.44674e-05
2.44831e-05
2.44409e-05
2.4413e-05
2.44016e-05
2.44131e-05
2.44455e-05
2.44942e-05
2.45553e-05
2.46166e-05
2.46795e-05
2.47485e-05
2.48076e-05
2.48497e-05
2.48914e-05
2.48076e-05
2.56053e-05
2.57975e-05
2.57198e-05
2.5714e-05
2.5602e-05
2.54944e-05
2.54436e-05
2.53953e-05
2.53918e-05
2.54882e-05
2.57592e-05
2.62892e-05
2.70895e-05
2.7903e-05
2.86594e-05
2.87421e-05
2.79321e-05
2.70941e-05
2.63233e-05
2.5766e-05
2.54943e-05
2.53951e-05
2.53932e-05
2.54463e-05
2.54951e-05
2.55992e-05
2.57198e-05
2.57253e-05
2.58035e-05
2.55919e-05
2.74599e-05
2.82696e-05
2.80974e-05
2.87798e-05
2.80503e-05
2.7754e-05
2.81331e-05
2.81175e-05
2.85275e-05
2.99701e-05
3.26597e-05
3.73228e-05
4.43767e-05
5.09734e-05
5.57187e-05
5.61701e-05
5.11426e-05
4.44822e-05
3.76242e-05
3.26969e-05
3.00046e-05
2.85481e-05
2.81172e-05
2.81485e-05
2.77561e-05
2.80398e-05
2.881e-05
2.81155e-05
2.83098e-05
2.74264e-05
3.42046e-05
3.83991e-05
3.76098e-05
4.44419e-05
3.90032e-05
3.86786e-05
4.38848e-05
4.35501e-05
4.63977e-05
5.635e-05
7.55418e-05
0.000100336
0.000136396
0.000167813
0.000188127
0.000187845
0.000167982
0.00013708
0.000101301
7.55396e-05
5.64918e-05
4.65016e-05
4.35848e-05
4.40035e-05
3.86984e-05
3.89684e-05
4.46879e-05
3.76904e-05
3.86493e-05
3.40798e-05
5.84542e-05
7.71225e-05
7.65885e-05
0.000108867
9.24515e-05
0.000100309
0.000129193
0.000135239
0.0001577
0.000219354
0.000299683
0.000370514
0.000472655
0.000546666
0.000587829
0.00058644
0.000545656
0.000475153
0.000372571
0.00029862
0.000219528
0.000158013
0.000135794
0.000129669
0.000100621
9.23638e-05
0.000110516
7.72015e-05
7.80883e-05
5.81327e-05
0.000124378
0.000191724
0.000205139
0.000295049
0.000313674
0.000357958
0.000413091
0.000497365
0.000574141
0.000674001
0.000783384
0.000847032
0.000966996
0.00105392
0.00103939
0.00104016
0.00104944
0.000972938
0.000848262
0.000772373
0.000667682
0.00057526
0.000501901
0.000414325
0.000360036
0.000313644
0.000301121
0.000208625
0.000193286
0.000124357
0.00024909
0.000390866
0.00044215
0.000626705
0.000743474
0.000852496
0.000992421
0.00114637
0.00122966
0.00134685
0.00140095
0.0014482
0.00150769
0.00166967
0.00157801
0.00155761
0.00164836
0.00151634
0.00143257
0.00137641
0.00133038
0.00123156
0.00115383
0.000992037
0.000862411
0.000749493
0.000644016
0.000448256
0.000392822
0.000250157
0.000386548
0.00044004
0.000537913
0.00073732
0.000929221
0.00110725
0.00125255
0.00135923
0.00148644
0.00166844
0.00173761
0.00170826
0.00169842
0.00183851
0.00184373
0.00181707
0.00182271
0.00169856
0.00167284
0.00168313
0.00165617
0.00150979
0.00137385
0.00125478
0.00112394
0.000967234
0.000758887
0.000544495
0.000438583
0.000383969
0.000447261
0.000465719
0.000565101
0.00076894
0.000884762
0.00105228
0.00124061
0.00145568
0.00154863
0.00167856
0.00159722
0.00158116
0.00157528
0.00163416
0.00161779
0.00161065
0.0016435
0.00159798
0.00157756
0.00159878
0.00171659
0.00161996
0.00150024
0.00125242
0.00105874
0.000906469
0.000787942
0.000566183
0.000460088
0.000445932
0.000412387
0.000464149
0.000563451
0.000795093
0.000885972
0.000898976
0.00100074
0.00113899
0.00120859
0.00130289
0.00126712
0.00131663
0.00130606
0.00135464
0.00145066
0.00146405
0.00137049
0.00131121
0.00133971
0.00127849
0.00132439
0.00123697
0.00117479
0.00102425
0.000924027
0.000901517
0.000810794
0.000563877
0.000465984
0.000421495
0.000318505
0.000372007
0.000497874
0.00066147
0.000667529
0.000633595
0.000722184
0.000794355
0.000837429
0.000938013
0.000953693
0.00102724
0.00106221
0.00110439
0.00121124
0.00121357
0.00110758
0.00107322
0.00104235
0.00095868
0.000961292
0.000857273
0.00082771
0.000742133
0.000647395
0.000672902
0.000667329
0.000504265
0.000377866
0.000323555
0.000243661
0.000275199
0.000342939
0.000454957
0.000410885
0.000398523
0.000485638
0.000554011
0.000622059
0.000700783
0.000701541
0.000724049
0.000724765
0.000769506
0.000809734
0.000807554
0.000775454
0.000729531
0.000721953
0.000694104
0.000713239
0.000632322
0.000564338
0.000494555
0.000404877
0.000412951
0.000457418
0.000345705
0.000279686
0.000245289
0.000190839
0.00020885
0.000230857
0.000284263
0.000255969
0.000233775
0.000276334
0.000342977
0.000432963
0.000537943
0.000597125
0.000625573
0.000629451
0.000644913
0.000645089
0.00064281
0.00064866
0.000630652
0.000621252
0.000589481
0.000538701
0.000435195
0.000346178
0.000279751
0.000236316
0.000258258
0.000287992
0.000232113
0.000210998
0.000192441
0.000154462
0.000161597
0.000166798
0.000181811
0.000173718
0.000162821
0.000170257
0.000195392
0.000248942
0.000342434
0.000443518
0.000534187
0.000593155
0.000624186
0.000624265
0.000622685
0.000626226
0.000594416
0.000531865
0.000439897
0.000342044
0.000249101
0.000196377
0.000171607
0.000164159
0.000175551
0.00018407
0.000167637
0.000162922
0.000155288
0.000129912
0.000130248
0.000130568
0.000132649
0.000130691
0.000128303
0.000129852
0.000135797
0.000152134
0.000193727
0.000268813
0.000369656
0.000471969
0.000551005
0.000581955
0.000580697
0.000552079
0.000473162
0.000368835
0.000267318
0.000193774
0.000152367
0.00013629
0.000130152
0.000128887
0.000131886
0.00013381
0.000131159
0.000131076
0.000130306
0.000111865
0.000110219
0.000109315
0.00010912
0.000108719
0.0001085
0.00010935
0.000111537
0.000116143
0.000127636
0.000155277
0.00021126
0.000292814
0.000379563
0.000437599
0.000436744
0.000379906
0.000293473
0.000210992
0.000154869
0.000127905
0.00011632
0.000111738
0.000109463
0.000108687
0.000109135
0.000109651
0.000109908
0.000110828
0.000112253
9.8408e-05
9.63188e-05
9.55088e-05
9.54606e-05
9.54552e-05
9.58011e-05
9.67114e-05
9.79077e-05
9.962e-05
0.000102649
0.000109372
0.000125302
0.000156726
0.000201283
0.000243362
0.00024294
0.000201075
0.000156805
0.000125171
0.000109438
0.000102796
9.97004e-05
9.80568e-05
9.6872e-05
9.60747e-05
9.57761e-05
9.56195e-05
9.59533e-05
9.6831e-05
9.87366e-05
8.80839e-05
8.55709e-05
8.50098e-05
8.50755e-05
8.54163e-05
8.60333e-05
8.69838e-05
8.78014e-05
8.86802e-05
8.96103e-05
9.10067e-05
9.39567e-05
0.000100325
0.000111494
0.000124247
0.000124238
0.000111573
0.000100453
9.39707e-05
9.11662e-05
8.97749e-05
8.87835e-05
8.79635e-05
8.71196e-05
8.63327e-05
8.56845e-05
8.52893e-05
8.52978e-05
8.61089e-05
8.86202e-05
8.01432e-05
7.69225e-05
7.6444e-05
7.66296e-05
7.70677e-05
7.77525e-05
7.85047e-05
7.90003e-05
7.9452e-05
7.96976e-05
7.97821e-05
7.99393e-05
8.05113e-05
8.18575e-05
8.37131e-05
8.36922e-05
8.19653e-05
8.06799e-05
8.01133e-05
7.99502e-05
7.97915e-05
7.95512e-05
7.92017e-05
7.85731e-05
7.78639e-05
7.72119e-05
7.68694e-05
7.67349e-05
7.74754e-05
8.05581e-05
7.32412e-05
6.97264e-05
6.91979e-05
6.94113e-05
6.98906e-05
7.0457e-05
7.08716e-05
7.11197e-05
7.12112e-05
7.10194e-05
7.06249e-05
7.0182e-05
6.97354e-05
6.93814e-05
6.92405e-05
6.92203e-05
6.94696e-05
6.98522e-05
7.03292e-05
7.07703e-05
7.11062e-05
7.12949e-05
7.12242e-05
7.08924e-05
7.04565e-05
7.00289e-05
6.9734e-05
6.95162e-05
7.01666e-05
7.3486e-05
6.69547e-05
6.3488e-05
6.29588e-05
6.31972e-05
6.36016e-05
6.39345e-05
6.40615e-05
6.40301e-05
6.37589e-05
6.32718e-05
6.26773e-05
6.20126e-05
6.12644e-05
6.05825e-05
6.01704e-05
6.0229e-05
6.07525e-05
6.14029e-05
6.21028e-05
6.28003e-05
6.3439e-05
6.39278e-05
6.41146e-05
6.40797e-05
6.39174e-05
6.36919e-05
6.34403e-05
6.32388e-05
6.38464e-05
6.7134e-05
6.11944e-05
5.80143e-05
5.75813e-05
5.77645e-05
5.79645e-05
5.80422e-05
5.79482e-05
5.76661e-05
5.7197e-05
5.65895e-05
5.58534e-05
5.50083e-05
5.41109e-05
5.3369e-05
5.29561e-05
5.30419e-05
5.35487e-05
5.42596e-05
5.51112e-05
5.60057e-05
5.68236e-05
5.74501e-05
5.7816e-05
5.7993e-05
5.80315e-05
5.79551e-05
5.77859e-05
5.76911e-05
5.8301e-05
6.13711e-05
5.59995e-05
5.32736e-05
5.28302e-05
5.28514e-05
5.28469e-05
5.27678e-05
5.25343e-05
5.21169e-05
5.15599e-05
5.08456e-05
4.99984e-05
4.90829e-05
4.81812e-05
4.74485e-05
4.70192e-05
4.70609e-05
4.75297e-05
4.82693e-05
4.91883e-05
5.01544e-05
5.10441e-05
5.17575e-05
5.22543e-05
5.2579e-05
5.27528e-05
5.28035e-05
5.27658e-05
5.27964e-05
5.34047e-05
5.62134e-05
5.14812e-05
4.89755e-05
4.84871e-05
4.84077e-05
4.83389e-05
4.81774e-05
4.78216e-05
4.73288e-05
4.67175e-05
4.59439e-05
4.50565e-05
4.41328e-05
4.32467e-05
4.25106e-05
4.20498e-05
4.20479e-05
4.24912e-05
4.32378e-05
4.41746e-05
4.51535e-05
4.60668e-05
4.68317e-05
4.74115e-05
4.78283e-05
4.81193e-05
4.82937e-05
4.83796e-05
4.84921e-05
4.90627e-05
5.1602e-05
4.72646e-05
4.50604e-05
4.46391e-05
4.45153e-05
4.43623e-05
4.40842e-05
4.36676e-05
4.3175e-05
4.25585e-05
4.1787e-05
4.09151e-05
4.00057e-05
3.91342e-05
3.84054e-05
3.79461e-05
3.79269e-05
3.83461e-05
3.90693e-05
3.99704e-05
4.09112e-05
4.18053e-05
4.25926e-05
4.32344e-05
4.37227e-05
4.40879e-05
4.43481e-05
4.45237e-05
4.46879e-05
4.52148e-05
4.74568e-05
4.35552e-05
4.17886e-05
4.1345e-05
4.11252e-05
4.08573e-05
4.0514e-05
4.0102e-05
3.96088e-05
3.89853e-05
3.82374e-05
3.74024e-05
3.65247e-05
3.56792e-05
3.49646e-05
3.4511e-05
3.44811e-05
3.48805e-05
3.55803e-05
3.64492e-05
3.73626e-05
3.82385e-05
3.90208e-05
3.96719e-05
4.01846e-05
4.05925e-05
4.09139e-05
4.11542e-05
4.13585e-05
4.18458e-05
4.3774e-05
4.04425e-05
3.89526e-05
3.84451e-05
3.81587e-05
3.78732e-05
3.75522e-05
3.71478e-05
3.66377e-05
3.60216e-05
3.53079e-05
3.45178e-05
3.36827e-05
3.28772e-05
3.2197e-05
3.17717e-05
3.17571e-05
3.21498e-05
3.28218e-05
3.36436e-05
3.44985e-05
3.53108e-05
3.60452e-05
3.66803e-05
3.72079e-05
3.76392e-05
3.79833e-05
3.82467e-05
3.84628e-05
3.88944e-05
4.05145e-05
3.76769e-05
3.63246e-05
3.58748e-05
3.56332e-05
3.54122e-05
3.51156e-05
3.46989e-05
3.41959e-05
3.36153e-05
3.2936e-05
3.21801e-05
3.13891e-05
3.06385e-05
3.00177e-05
2.964e-05
2.96451e-05
3.00193e-05
3.0641e-05
3.13933e-05
3.21738e-05
3.2919e-05
3.36046e-05
3.42118e-05
3.47297e-05
3.51515e-05
3.54842e-05
3.57367e-05
3.59368e-05
3.63004e-05
3.76447e-05
3.52109e-05
3.40288e-05
3.36998e-05
3.35366e-05
3.33375e-05
3.30318e-05
3.26354e-05
3.21821e-05
3.16435e-05
3.10006e-05
3.02847e-05
2.95481e-05
2.88615e-05
2.83015e-05
2.79645e-05
2.79784e-05
2.83297e-05
2.88994e-05
2.95795e-05
3.02834e-05
3.09637e-05
3.15974e-05
3.21646e-05
3.26486e-05
3.30389e-05
3.33403e-05
3.35647e-05
3.37398e-05
3.40438e-05
3.51578e-05
3.30209e-05
3.20949e-05
3.18523e-05
3.17143e-05
3.15113e-05
3.12292e-05
3.08932e-05
3.04883e-05
2.99841e-05
2.9393e-05
2.87467e-05
2.80917e-05
2.74825e-05
2.69773e-05
2.66655e-05
2.66778e-05
2.70006e-05
2.75154e-05
2.81225e-05
2.87506e-05
2.93636e-05
2.99372e-05
3.04508e-05
3.08845e-05
3.12313e-05
3.14978e-05
3.16979e-05
3.18565e-05
3.2115e-05
3.30291e-05
3.11709e-05
3.04728e-05
3.02634e-05
3.01245e-05
2.99492e-05
2.97203e-05
2.94281e-05
2.90459e-05
2.85849e-05
2.80661e-05
2.75096e-05
2.69467e-05
2.64087e-05
2.59447e-05
2.56544e-05
2.56644e-05
2.59608e-05
2.64247e-05
2.69604e-05
2.75099e-05
2.8046e-05
2.8548e-05
2.89977e-05
2.93797e-05
2.96887e-05
2.99297e-05
3.01126e-05
3.02565e-05
3.04727e-05
3.12065e-05
2.96715e-05
2.90825e-05
2.88973e-05
2.87892e-05
2.86491e-05
2.84469e-05
2.81687e-05
2.78179e-05
2.74211e-05
2.69842e-05
2.65183e-05
2.60389e-05
2.55632e-05
2.51432e-05
2.48856e-05
2.48977e-05
2.51605e-05
2.55632e-05
2.60225e-05
2.64941e-05
2.69563e-05
2.73929e-05
2.77848e-05
2.81202e-05
2.83958e-05
2.86128e-05
2.87762e-05
2.89014e-05
2.90751e-05
2.96456e-05
2.83607e-05
2.78739e-05
2.77546e-05
2.76736e-05
2.75331e-05
2.73381e-05
2.70861e-05
2.6792e-05
2.64638e-05
2.61005e-05
2.57119e-05
2.53021e-05
2.4888e-05
2.45267e-05
2.4309e-05
2.43151e-05
2.45292e-05
2.48642e-05
2.52555e-05
2.56673e-05
2.60742e-05
2.64561e-05
2.67964e-05
2.70867e-05
2.73244e-05
2.75099e-05
2.76474e-05
2.7751e-05
2.78876e-05
2.83191e-05
2.72059e-05
2.68957e-05
2.68292e-05
2.67318e-05
2.65897e-05
2.64196e-05
2.62135e-05
2.59744e-05
2.5696e-05
2.53864e-05
2.50544e-05
2.4701e-05
2.43476e-05
2.40472e-05
2.38641e-05
2.3856e-05
2.40223e-05
2.43026e-05
2.46449e-05
2.5012e-05
2.53738e-05
2.57061e-05
2.59965e-05
2.62392e-05
2.64336e-05
2.65827e-05
2.66921e-05
2.67745e-05
2.6881e-05
2.7212e-05
2.63289e-05
2.61674e-05
2.60694e-05
2.59513e-05
2.58319e-05
2.56964e-05
2.55315e-05
2.53293e-05
2.50908e-05
2.48294e-05
2.45473e-05
2.42465e-05
2.39514e-05
2.37032e-05
2.35432e-05
2.35213e-05
2.36504e-05
2.38881e-05
2.41873e-05
2.45072e-05
2.48165e-05
2.50953e-05
2.53335e-05
2.55297e-05
2.56857e-05
2.58059e-05
2.58965e-05
2.59661e-05
2.60508e-05
2.62987e-05
2.56641e-05
2.55118e-05
2.53835e-05
2.52968e-05
2.52148e-05
2.51102e-05
2.49771e-05
2.48092e-05
2.46154e-05
2.44031e-05
2.41682e-05
2.39172e-05
2.3675e-05
2.34686e-05
2.33257e-05
2.32985e-05
2.34032e-05
2.36019e-05
2.38495e-05
2.41091e-05
2.43571e-05
2.45812e-05
2.47761e-05
2.49406e-05
2.50748e-05
2.51802e-05
2.52601e-05
2.53193e-05
2.53809e-05
2.55517e-05
2.50494e-05
2.48799e-05
2.48147e-05
2.478e-05
2.47238e-05
2.4639e-05
2.45261e-05
2.43881e-05
2.42332e-05
2.40576e-05
2.38573e-05
2.36467e-05
2.34474e-05
2.32747e-05
2.31553e-05
2.3137e-05
2.32285e-05
2.33903e-05
2.35845e-05
2.37854e-05
2.39802e-05
2.4165e-05
2.43353e-05
2.44834e-05
2.4604e-05
2.46964e-05
2.47632e-05
2.48072e-05
2.48428e-05
2.49471e-05
2.4477e-05
2.44004e-05
2.44136e-05
2.43962e-05
2.43437e-05
2.42637e-05
2.41617e-05
2.40475e-05
2.39199e-05
2.37666e-05
2.35918e-05
2.34159e-05
2.32525e-05
2.31115e-05
2.30169e-05
2.30096e-05
2.30932e-05
2.32263e-05
2.33792e-05
2.3538e-05
2.36983e-05
2.38571e-05
2.40053e-05
2.41323e-05
2.42326e-05