/*--------------------------------*- C++ -*----------------------------------*\
| =========                 |                                                 |
| \\      /  F ield         | OpenFOAM: The Open Source CFD Toolbox           |
|  \\    /   O peration     | Version:  2312                                  |
|   \\  /    A nd           | Website:  www.openfoam.com                      |
|    \\/     M anipulation  |                                                 |
\*---------------------------------------------------------------------------*/
FoamFile
{
    version     2.0;
    format      ascii;
    arch        "LSB;label=32;scalar=64";
    class       volScalarField;
    location    "1.26092662";
    object      nut;
}
// * * * * * * * * * * * * * * * * * * * * * * * * * * * * * * * * * * * * * //

dimensions      [0 2 -1 0 0 0 0];

internalField   nonuniform List<scalar> 
90000
(
5.19452e-06
5.19508e-06
5.1952e-06
5.19524e-06
5.19528e-06
5.19529e-06
5.19528e-06
5.19527e-06
5.19525e-06
5.19519e-06
5.19511e-06
5.19502e-06
5.19496e-06
5.19496e-06
5.195e-06
5.19504e-06
5.19507e-06
5.19516e-06
5.19529e-06
5.19531e-06
5.19518e-06
5.19501e-06
5.19521e-06
5.19568e-06
5.19609e-06
5.19625e-06
5.19607e-06
5.19583e-06
5.19653e-06
5.19794e-06
5.19539e-06
5.20762e-06
5.20876e-06
5.20878e-06
5.20873e-06
5.2087e-06
5.20871e-06
5.20873e-06
5.20873e-06
5.20871e-06
5.20872e-06
5.20877e-06
5.20883e-06
5.20886e-06
5.20887e-06
5.20885e-06
5.20881e-06
5.20877e-06
5.20874e-06
5.20869e-06
5.20876e-06
5.2089e-06
5.20903e-06
5.20905e-06
5.20894e-06
5.2088e-06
5.20903e-06
5.20976e-06
5.20924e-06
5.20032e-06
5.19544e-06
5.20883e-06
5.21014e-06
5.21018e-06
5.21015e-06
5.21015e-06
5.21017e-06
5.21019e-06
5.21016e-06
5.2101e-06
5.21011e-06
5.21021e-06
5.21037e-06
5.21048e-06
5.21049e-06
5.21038e-06
5.21018e-06
5.21001e-06
5.21015e-06
5.21039e-06
5.21054e-06
5.21056e-06
5.2105e-06
5.21043e-06
5.21052e-06
5.21074e-06
5.2109e-06
5.21155e-06
5.21237e-06
5.19952e-06
5.19532e-06
5.20886e-06
5.21026e-06
5.21034e-06
5.21035e-06
5.21036e-06
5.21039e-06
5.2104e-06
5.21039e-06
5.21032e-06
5.21026e-06
5.21031e-06
5.21041e-06
5.21049e-06
5.21049e-06
5.21037e-06
5.21024e-06
5.2103e-06
5.21054e-06
5.21069e-06
5.21069e-06
5.21059e-06
5.21063e-06
5.21096e-06
5.21127e-06
5.21151e-06
5.21184e-06
5.21185e-06
5.21208e-06
5.19757e-06
5.1952e-06
5.20885e-06
5.21027e-06
5.21037e-06
5.21039e-06
5.21039e-06
5.21039e-06
5.21039e-06
5.21041e-06
5.2104e-06
5.21038e-06
5.21034e-06
5.21028e-06
5.21021e-06
5.2102e-06
5.21034e-06
5.21052e-06
5.21065e-06
5.21069e-06
5.21061e-06
5.21049e-06
5.21054e-06
5.21085e-06
5.21118e-06
5.2114e-06
5.2114e-06
5.21129e-06
5.21138e-06
5.21037e-06
5.19653e-06
5.19519e-06
5.20888e-06
5.21025e-06
5.21035e-06
5.21037e-06
5.21035e-06
5.21032e-06
5.21032e-06
5.21035e-06
5.21041e-06
5.21047e-06
5.21052e-06
5.21055e-06
5.2105e-06
5.21045e-06
5.2105e-06
5.21061e-06
5.21066e-06
5.21061e-06
5.21051e-06
5.2105e-06
5.21063e-06
5.21081e-06
5.21095e-06
5.211e-06
5.21097e-06
5.21077e-06
5.21147e-06
5.21016e-06
5.19642e-06
5.1953e-06
5.20894e-06
5.2103e-06
5.21044e-06
5.21052e-06
5.21056e-06
5.21054e-06
5.21045e-06
5.21036e-06
5.21037e-06
5.2105e-06
5.21067e-06
5.21082e-06
5.21086e-06
5.21075e-06
5.21054e-06
5.21037e-06
5.21035e-06
5.21043e-06
5.21055e-06
5.21064e-06
5.21067e-06
5.21062e-06
5.21047e-06
5.21042e-06
5.21078e-06
5.21128e-06
5.21196e-06
5.21064e-06
5.19627e-06
5.19535e-06
5.20915e-06
5.21051e-06
5.21069e-06
5.21081e-06
5.21091e-06
5.21094e-06
5.21085e-06
5.21064e-06
5.21039e-06
5.21046e-06
5.21065e-06
5.21084e-06
5.21091e-06
5.21079e-06
5.2105e-06
5.21014e-06
5.21005e-06
5.21032e-06
5.21054e-06
5.21063e-06
5.21059e-06
5.21042e-06
5.21028e-06
5.21051e-06
5.21105e-06
5.21155e-06
5.21184e-06
5.21032e-06
5.19595e-06
5.19545e-06
5.2095e-06
5.2108e-06
5.21095e-06
5.21108e-06
5.21118e-06
5.21122e-06
5.21117e-06
5.21101e-06
5.21078e-06
5.21058e-06
5.21056e-06
5.21061e-06
5.21066e-06
5.21066e-06
5.2106e-06
5.2105e-06
5.21044e-06
5.21048e-06
5.21057e-06
5.21059e-06
5.21051e-06
5.21035e-06
5.21035e-06
5.2107e-06
5.21114e-06
5.21145e-06
5.21139e-06
5.2098e-06
5.19568e-06
5.19592e-06
5.20969e-06
5.21089e-06
5.21099e-06
5.21106e-06
5.21111e-06
5.21115e-06
5.21118e-06
5.21117e-06
5.21111e-06
5.21094e-06
5.21066e-06
5.21038e-06
5.21034e-06
5.21053e-06
5.2108e-06
5.211e-06
5.2111e-06
5.2111e-06
5.21102e-06
5.21088e-06
5.21069e-06
5.21048e-06
5.21043e-06
5.21069e-06
5.21095e-06
5.21103e-06
5.21084e-06
5.2094e-06
5.19556e-06
5.19631e-06
5.20969e-06
5.2108e-06
5.21085e-06
5.2108e-06
5.21071e-06
5.21069e-06
5.2108e-06
5.21097e-06
5.2111e-06
5.21107e-06
5.21087e-06
5.21054e-06
5.21031e-06
5.21047e-06
5.21088e-06
5.21127e-06
5.21156e-06
5.2117e-06
5.21166e-06
5.21145e-06
5.21112e-06
5.21078e-06
5.21056e-06
5.21061e-06
5.21073e-06
5.21081e-06
5.21073e-06
5.20937e-06
5.19571e-06
5.19629e-06
5.20993e-06
5.21099e-06
5.21095e-06
5.21082e-06
5.21065e-06
5.21053e-06
5.21057e-06
5.21071e-06
5.21084e-06
5.21092e-06
5.2109e-06
5.21073e-06
5.21044e-06
5.21031e-06
5.21077e-06
5.21135e-06
5.21179e-06
5.21199e-06
5.21194e-06
5.21168e-06
5.2113e-06
5.21089e-06
5.21054e-06
5.21054e-06
5.21072e-06
5.21087e-06
5.21085e-06
5.20966e-06
5.1959e-06
5.1961e-06
5.21022e-06
5.2113e-06
5.21136e-06
5.21149e-06
5.21162e-06
5.21169e-06
5.21163e-06
5.21138e-06
5.21102e-06
5.21087e-06
5.211e-06
5.21108e-06
5.21104e-06
5.21097e-06
5.21109e-06
5.21134e-06
5.21153e-06
5.21158e-06
5.21151e-06
5.21135e-06
5.21111e-06
5.21083e-06
5.21059e-06
5.21063e-06
5.21079e-06
5.21091e-06
5.21096e-06
5.20977e-06
5.196e-06
5.19688e-06
5.21014e-06
5.21153e-06
5.21187e-06
5.21234e-06
5.21271e-06
5.21281e-06
5.21257e-06
5.21203e-06
5.21137e-06
5.21091e-06
5.21105e-06
5.21139e-06
5.21166e-06
5.2118e-06
5.21176e-06
5.21152e-06
5.21111e-06
5.21075e-06
5.21069e-06
5.21081e-06
5.21089e-06
5.21087e-06
5.2108e-06
5.21079e-06
5.21083e-06
5.21094e-06
5.21102e-06
5.20976e-06
5.19611e-06
5.19775e-06
5.2097e-06
5.21193e-06
5.2126e-06
5.21308e-06
5.21326e-06
5.21307e-06
5.21257e-06
5.2119e-06
5.21123e-06
5.21076e-06
5.21092e-06
5.21143e-06
5.2119e-06
5.21213e-06
5.21206e-06
5.21168e-06
5.2111e-06
5.21054e-06
5.21031e-06
5.21055e-06
5.21085e-06
5.21101e-06
5.21102e-06
5.21093e-06
5.21097e-06
5.21119e-06
5.21131e-06
5.21016e-06
5.1966e-06
5.19794e-06
5.21102e-06
5.21276e-06
5.2131e-06
5.21314e-06
5.21284e-06
5.21231e-06
5.21175e-06
5.2113e-06
5.21093e-06
5.21063e-06
5.21078e-06
5.21131e-06
5.2118e-06
5.21205e-06
5.212e-06
5.21175e-06
5.21137e-06
5.21094e-06
5.21062e-06
5.21063e-06
5.21087e-06
5.21109e-06
5.21114e-06
5.21115e-06
5.2113e-06
5.21156e-06
5.21181e-06
5.21091e-06
5.19705e-06
5.19742e-06
5.21244e-06
5.21337e-06
5.21316e-06
5.21264e-06
5.21194e-06
5.21129e-06
5.21111e-06
5.21114e-06
5.21101e-06
5.21082e-06
5.21095e-06
5.21131e-06
5.21164e-06
5.21181e-06
5.21184e-06
5.21175e-06
5.21152e-06
5.21122e-06
5.21096e-06
5.21086e-06
5.21093e-06
5.21108e-06
5.2112e-06
5.21134e-06
5.21158e-06
5.21187e-06
5.21212e-06
5.21099e-06
5.19695e-06
5.19712e-06
5.21309e-06
5.21365e-06
5.21317e-06
5.21251e-06
5.21186e-06
5.21147e-06
5.21131e-06
5.21124e-06
5.2111e-06
5.21108e-06
5.21114e-06
5.21123e-06
5.21133e-06
5.21144e-06
5.21154e-06
5.21159e-06
5.21155e-06
5.21142e-06
5.21125e-06
5.21109e-06
5.21111e-06
5.21124e-06
5.21138e-06
5.21161e-06
5.21188e-06
5.21207e-06
5.2121e-06
5.21067e-06
5.19682e-06
5.19786e-06
5.21324e-06
5.21388e-06
5.21342e-06
5.21288e-06
5.21244e-06
5.21212e-06
5.21182e-06
5.21149e-06
5.21125e-06
5.21113e-06
5.21102e-06
5.21096e-06
5.21094e-06
5.21099e-06
5.21112e-06
5.2113e-06
5.21142e-06
5.21144e-06
5.21135e-06
5.21123e-06
5.21129e-06
5.21143e-06
5.21177e-06
5.21217e-06
5.21235e-06
5.21234e-06
5.21217e-06
5.21075e-06
5.19701e-06
5.19865e-06
5.21322e-06
5.21403e-06
5.21365e-06
5.21323e-06
5.21292e-06
5.21267e-06
5.21238e-06
5.21203e-06
5.21169e-06
5.21139e-06
5.2111e-06
5.21082e-06
5.21061e-06
5.21059e-06
5.21081e-06
5.2111e-06
5.21129e-06
5.21137e-06
5.21136e-06
5.21141e-06
5.21165e-06
5.21218e-06
5.21267e-06
5.21284e-06
5.21279e-06
5.2127e-06
5.21261e-06
5.21145e-06
5.19761e-06
5.19932e-06
5.21311e-06
5.21406e-06
5.2138e-06
5.21357e-06
5.21341e-06
5.21322e-06
5.21294e-06
5.21259e-06
5.21219e-06
5.21175e-06
5.21128e-06
5.21086e-06
5.21071e-06
5.21084e-06
5.21106e-06
5.21125e-06
5.21138e-06
5.21151e-06
5.21172e-06
5.2121e-06
5.21266e-06
5.21309e-06
5.21317e-06
5.21301e-06
5.2129e-06
5.2129e-06
5.21294e-06
5.21185e-06
5.19807e-06
5.19981e-06
5.21305e-06
5.21423e-06
5.21416e-06
5.21405e-06
5.21392e-06
5.21368e-06
5.21334e-06
5.21294e-06
5.21247e-06
5.21193e-06
5.21142e-06
5.21121e-06
5.21132e-06
5.21137e-06
5.21135e-06
5.21136e-06
5.21153e-06
5.21191e-06
5.21245e-06
5.21308e-06
5.21351e-06
5.21352e-06
5.2133e-06
5.21324e-06
5.21334e-06
5.21346e-06
5.2135e-06
5.21225e-06
5.19876e-06
5.20016e-06
5.21328e-06
5.2147e-06
5.21475e-06
5.21464e-06
5.2144e-06
5.21405e-06
5.21364e-06
5.21319e-06
5.21271e-06
5.21222e-06
5.21185e-06
5.21179e-06
5.21159e-06
5.2113e-06
5.21114e-06
5.21129e-06
5.21177e-06
5.21247e-06
5.21323e-06
5.21376e-06
5.21385e-06
5.21369e-06
5.2137e-06
5.2139e-06
5.21414e-06
5.21432e-06
5.21434e-06
5.21308e-06
5.19966e-06
5.20077e-06
5.21415e-06
5.21557e-06
5.21558e-06
5.21536e-06
5.21499e-06
5.21458e-06
5.21417e-06
5.21373e-06
5.21323e-06
5.21272e-06
5.21235e-06
5.21201e-06
5.21149e-06
5.21105e-06
5.21109e-06
5.21149e-06
5.21219e-06
5.21308e-06
5.21374e-06
5.214e-06
5.21402e-06
5.21421e-06
5.21455e-06
5.21492e-06
5.21526e-06
5.21544e-06
5.21548e-06
5.21418e-06
5.20088e-06
5.20208e-06
5.21548e-06
5.21679e-06
5.21668e-06
5.21634e-06
5.21593e-06
5.21553e-06
5.21511e-06
5.21459e-06
5.21397e-06
5.21333e-06
5.21276e-06
5.21215e-06
5.21157e-06
5.21134e-06
5.2114e-06
5.21182e-06
5.21266e-06
5.21342e-06
5.21384e-06
5.21412e-06
5.21463e-06
5.21516e-06
5.21563e-06
5.21614e-06
5.21649e-06
5.21672e-06
5.21686e-06
5.21574e-06
5.20255e-06
5.20392e-06
5.21723e-06
5.21838e-06
5.21813e-06
5.21772e-06
5.21729e-06
5.21685e-06
5.21632e-06
5.21567e-06
5.21492e-06
5.21414e-06
5.21337e-06
5.21266e-06
5.21217e-06
5.2118e-06
5.21168e-06
5.21213e-06
5.21289e-06
5.21352e-06
5.21417e-06
5.21499e-06
5.2157e-06
5.21626e-06
5.21685e-06
5.21738e-06
5.21781e-06
5.21818e-06
5.21857e-06
5.21791e-06
5.20407e-06
5.20628e-06
5.21929e-06
5.22032e-06
5.21997e-06
5.21952e-06
5.21903e-06
5.21845e-06
5.21775e-06
5.21695e-06
5.21605e-06
5.21514e-06
5.21429e-06
5.21362e-06
5.21304e-06
5.2124e-06
5.21214e-06
5.21256e-06
5.21334e-06
5.21433e-06
5.21535e-06
5.21619e-06
5.21691e-06
5.21763e-06
5.21831e-06
5.21892e-06
5.21957e-06
5.22013e-06
5.22065e-06
5.21973e-06
5.20591e-06
5.20897e-06
5.22168e-06
5.22267e-06
5.22228e-06
5.22173e-06
5.22109e-06
5.22033e-06
5.21945e-06
5.21849e-06
5.21749e-06
5.21651e-06
5.21568e-06
5.21492e-06
5.21403e-06
5.21313e-06
5.21287e-06
5.21346e-06
5.21452e-06
5.21567e-06
5.21671e-06
5.21764e-06
5.21859e-06
5.21943e-06
5.22023e-06
5.22102e-06
5.2219e-06
5.22262e-06
5.22282e-06
5.2217e-06
5.20856e-06
5.21193e-06
5.22453e-06
5.22545e-06
5.22498e-06
5.22433e-06
5.22355e-06
5.22263e-06
5.2216e-06
5.2205e-06
5.21937e-06
5.2183e-06
5.21733e-06
5.21622e-06
5.21497e-06
5.21394e-06
5.2138e-06
5.21463e-06
5.21585e-06
5.21714e-06
5.21837e-06
5.21951e-06
5.22065e-06
5.22173e-06
5.22276e-06
5.22371e-06
5.22473e-06
5.22549e-06
5.22546e-06
5.2245e-06
5.21193e-06
5.21538e-06
5.2279e-06
5.22877e-06
5.22823e-06
5.22748e-06
5.22656e-06
5.2255e-06
5.22431e-06
5.22303e-06
5.22169e-06
5.2204e-06
5.21905e-06
5.21753e-06
5.216e-06
5.21489e-06
5.21487e-06
5.21589e-06
5.21727e-06
5.21878e-06
5.22031e-06
5.22172e-06
5.22312e-06
5.22453e-06
5.22583e-06
5.22688e-06
5.22792e-06
5.22875e-06
5.22893e-06
5.22838e-06
5.21567e-06
5.21959e-06
5.23202e-06
5.23284e-06
5.23222e-06
5.23132e-06
5.23025e-06
5.22902e-06
5.22764e-06
5.22611e-06
5.22448e-06
5.22283e-06
5.22105e-06
5.21917e-06
5.21741e-06
5.21623e-06
5.21626e-06
5.21743e-06
5.21905e-06
5.22083e-06
5.22271e-06
5.22449e-06
5.22621e-06
5.2279e-06
5.22938e-06
5.23056e-06
5.23157e-06
5.23264e-06
5.23337e-06
5.2327e-06
5.21998e-06
5.22476e-06
5.23707e-06
5.23781e-06
5.23707e-06
5.23602e-06
5.23476e-06
5.23331e-06
5.23168e-06
5.22987e-06
5.22789e-06
5.2258e-06
5.22359e-06
5.22136e-06
5.21936e-06
5.21801e-06
5.21801e-06
5.21938e-06
5.22137e-06
5.22347e-06
5.22568e-06
5.2279e-06
5.22995e-06
5.23177e-06
5.2335e-06
5.23489e-06
5.23603e-06
5.23742e-06
5.23847e-06
5.2376e-06
5.22525e-06
5.23106e-06
5.24321e-06
5.24385e-06
5.24299e-06
5.24174e-06
5.24024e-06
5.23851e-06
5.23657e-06
5.2344e-06
5.23201e-06
5.22944e-06
5.22679e-06
5.2242e-06
5.22192e-06
5.22034e-06
5.22033e-06
5.22188e-06
5.2243e-06
5.22679e-06
5.22933e-06
5.23196e-06
5.23429e-06
5.23634e-06
5.23842e-06
5.24016e-06
5.24155e-06
5.24321e-06
5.24429e-06
5.24354e-06
5.23156e-06
5.23875e-06
5.25066e-06
5.25118e-06
5.25015e-06
5.24866e-06
5.24684e-06
5.24474e-06
5.24241e-06
5.23982e-06
5.23699e-06
5.23399e-06
5.23093e-06
5.22793e-06
5.22526e-06
5.22342e-06
5.22345e-06
5.22516e-06
5.22795e-06
5.2309e-06
5.23382e-06
5.2368e-06
5.23962e-06
5.24206e-06
5.24447e-06
5.2466e-06
5.24838e-06
5.25016e-06
5.25128e-06
5.25072e-06
5.23904e-06
5.24806e-06
5.25964e-06
5.26e-06
5.25872e-06
5.25691e-06
5.25473e-06
5.25226e-06
5.2495e-06
5.24648e-06
5.2432e-06
5.23974e-06
5.23619e-06
5.23266e-06
5.2295e-06
5.22735e-06
5.22753e-06
5.22948e-06
5.23261e-06
5.23609e-06
5.2395e-06
5.24295e-06
5.24642e-06
5.24925e-06
5.25199e-06
5.2546e-06
5.25679e-06
5.25856e-06
5.25981e-06
5.25938e-06
5.24808e-06
5.25926e-06
5.27036e-06
5.27049e-06
5.26894e-06
5.26685e-06
5.26436e-06
5.26151e-06
5.25831e-06
5.25481e-06
5.251e-06
5.24695e-06
5.24278e-06
5.23864e-06
5.23505e-06
5.23262e-06
5.23294e-06
5.23527e-06
5.23876e-06
5.24283e-06
5.24692e-06
5.2509e-06
5.25494e-06
5.25823e-06
5.26137e-06
5.26453e-06
5.26693e-06
5.26877e-06
5.27013e-06
5.26991e-06
5.25913e-06
5.27268e-06
5.28319e-06
5.2831e-06
5.28134e-06
5.27902e-06
5.27621e-06
5.27294e-06
5.26923e-06
5.26516e-06
5.26075e-06
5.25604e-06
5.25127e-06
5.24656e-06
5.24266e-06
5.23988e-06
5.24012e-06
5.24283e-06
5.2468e-06
5.25149e-06
5.25641e-06
5.2609e-06
5.26545e-06
5.26928e-06
5.27297e-06
5.2765e-06
5.27912e-06
5.2812e-06
5.28281e-06
5.28294e-06
5.27267e-06
5.28879e-06
5.29868e-06
5.29843e-06
5.29648e-06
5.29384e-06
5.29061e-06
5.28685e-06
5.28259e-06
5.27793e-06
5.27291e-06
5.26756e-06
5.26221e-06
5.25691e-06
5.25257e-06
5.24943e-06
5.24939e-06
5.25243e-06
5.25712e-06
5.26246e-06
5.2681e-06
5.27313e-06
5.27822e-06
5.28275e-06
5.287e-06
5.29086e-06
5.29383e-06
5.29638e-06
5.29839e-06
5.29879e-06
5.28907e-06
5.30812e-06
5.31748e-06
5.31699e-06
5.31472e-06
5.31166e-06
5.30794e-06
5.30365e-06
5.29882e-06
5.29355e-06
5.28789e-06
5.28187e-06
5.27589e-06
5.2699e-06
5.26486e-06
5.26142e-06
5.26121e-06
5.26462e-06
5.2701e-06
5.27614e-06
5.2823e-06
5.28796e-06
5.29371e-06
5.29901e-06
5.30375e-06
5.30804e-06
5.31161e-06
5.31464e-06
5.317e-06
5.31767e-06
5.30847e-06
5.33135e-06
5.34009e-06
5.33922e-06
5.33658e-06
5.33312e-06
5.32895e-06
5.3241e-06
5.31866e-06
5.31271e-06
5.30636e-06
5.29962e-06
5.29287e-06
5.28635e-06
5.2804e-06
5.27661e-06
5.27648e-06
5.28034e-06
5.28637e-06
5.29316e-06
5.29979e-06
5.30628e-06
5.31277e-06
5.31878e-06
5.32408e-06
5.32893e-06
5.33316e-06
5.33655e-06
5.33923e-06
5.34029e-06
5.33144e-06
5.35912e-06
5.36723e-06
5.366e-06
5.36309e-06
5.35924e-06
5.3545e-06
5.34901e-06
5.34298e-06
5.3364e-06
5.32938e-06
5.32202e-06
5.31437e-06
5.30748e-06
5.30062e-06
5.29625e-06
5.2962e-06
5.30068e-06
5.30716e-06
5.31471e-06
5.32194e-06
5.32935e-06
5.33649e-06
5.34309e-06
5.34908e-06
5.35444e-06
5.35924e-06
5.36312e-06
5.36614e-06
5.36754e-06
5.35896e-06
5.39251e-06
5.40031e-06
5.39866e-06
5.39525e-06
5.39076e-06
5.38538e-06
5.37933e-06
5.37274e-06
5.36555e-06
5.35783e-06
5.34997e-06
5.34149e-06
5.33415e-06
5.32662e-06
5.32153e-06
5.32169e-06
5.32687e-06
5.33377e-06
5.34197e-06
5.34993e-06
5.35802e-06
5.36564e-06
5.37277e-06
5.37956e-06
5.38547e-06
5.39074e-06
5.39529e-06
5.3988e-06
5.40063e-06
5.39226e-06
5.43312e-06
5.44088e-06
5.43827e-06
5.43413e-06
5.42902e-06
5.42299e-06
5.41632e-06
5.40906e-06
5.40125e-06
5.39298e-06
5.38476e-06
5.37592e-06
5.36785e-06
5.35993e-06
5.35438e-06
5.35469e-06
5.36028e-06
5.36771e-06
5.37622e-06
5.38473e-06
5.39323e-06
5.40138e-06
5.40915e-06
5.41645e-06
5.42315e-06
5.42911e-06
5.43427e-06
5.43864e-06
5.44115e-06
5.4324e-06
5.48301e-06
5.49129e-06
5.48731e-06
5.48234e-06
5.47633e-06
5.46948e-06
5.46211e-06
5.45413e-06
5.4457e-06
5.4374e-06
5.42899e-06
5.4205e-06
5.41258e-06
5.405e-06
5.3998e-06
5.40033e-06
5.40532e-06
5.41262e-06
5.42065e-06
5.42899e-06
5.43748e-06
5.44583e-06
5.45426e-06
5.46182e-06
5.46931e-06
5.4766e-06
5.48262e-06
5.48769e-06
5.49134e-06
5.48169e-06
5.54652e-06
5.5584e-06
5.55215e-06
5.54609e-06
5.53824e-06
5.5298e-06
5.52142e-06
5.5128e-06
5.50469e-06
5.49807e-06
5.49284e-06
5.49071e-06
5.492e-06
5.49324e-06
5.49613e-06
5.49849e-06
5.49424e-06
5.49177e-06
5.49118e-06
5.49337e-06
5.49824e-06
5.50472e-06
5.51299e-06
5.52134e-06
5.52924e-06
5.53847e-06
5.54661e-06
5.55229e-06
5.55842e-06
5.54488e-06
5.64417e-06
5.6745e-06
5.6617e-06
5.6626e-06
5.6439e-06
5.62846e-06
5.62278e-06
5.61433e-06
5.61147e-06
5.62303e-06
5.65205e-06
5.71165e-06
5.80215e-06
5.89041e-06
5.96591e-06
5.97806e-06
5.89426e-06
5.80281e-06
5.71645e-06
5.65299e-06
5.62384e-06
5.612e-06
5.61382e-06
5.62327e-06
5.62828e-06
5.64361e-06
5.66379e-06
5.66246e-06
5.6757e-06
5.64133e-06
5.89345e-06
6.02065e-06
5.97854e-06
6.08324e-06
5.96209e-06
5.91783e-06
5.97119e-06
5.95062e-06
5.98447e-06
6.14487e-06
6.40627e-06
6.8514e-06
7.48623e-06
8.03849e-06
8.37756e-06
8.4226e-06
8.05403e-06
7.49909e-06
6.88474e-06
6.41064e-06
6.14939e-06
5.98721e-06
5.95016e-06
5.9736e-06
5.91769e-06
5.96096e-06
6.08889e-06
5.98089e-06
6.02817e-06
5.8865e-06
6.77903e-06
7.32963e-06
7.158e-06
7.88523e-06
7.28831e-06
7.23665e-06
7.68683e-06
7.59417e-06
7.80601e-06
8.54488e-06
9.76811e-06
1.13008e-05
1.315e-05
1.4649e-05
1.55716e-05
1.55477e-05
1.46553e-05
1.31806e-05
1.13636e-05
9.7684e-06
8.55836e-06
7.81412e-06
7.59713e-06
7.6974e-06
7.23843e-06
7.28638e-06
7.9177e-06
7.1676e-06
7.3649e-06
6.7586e-06
9.26533e-06
1.07036e-05
1.07055e-05
1.24269e-05
1.18427e-05
1.21722e-05
1.33394e-05
1.34964e-05
1.44895e-05
1.66683e-05
1.95316e-05
2.18313e-05
2.46113e-05
2.64653e-05
2.73544e-05
2.73393e-05
2.64582e-05
2.46661e-05
2.18715e-05
1.94968e-05
1.66924e-05
1.44905e-05
1.3519e-05
1.33424e-05
1.22061e-05
1.18747e-05
1.25297e-05
1.07494e-05
1.07872e-05
9.23076e-06
1.32932e-05
1.63417e-05
1.71308e-05
1.96093e-05
2.08022e-05
2.19993e-05
2.37265e-05
2.52088e-05
2.67908e-05
2.8649e-05
3.04507e-05
3.1945e-05
3.4006e-05
3.55672e-05
3.52977e-05
3.53622e-05
3.55561e-05
3.41226e-05
3.19644e-05
3.03268e-05
2.85739e-05
2.68205e-05
2.5298e-05
2.36777e-05
2.20858e-05
2.09611e-05
1.98093e-05
1.72495e-05
1.64528e-05
1.32775e-05
1.80393e-05
2.1711e-05
2.34414e-05
2.70884e-05
2.95669e-05
3.16137e-05
3.41672e-05
3.63705e-05
3.81203e-05
3.9699e-05
3.94912e-05
4.04932e-05
4.1583e-05
4.42833e-05
4.21359e-05
4.18624e-05
4.39963e-05
4.17314e-05
4.03286e-05
3.92591e-05
3.94687e-05
3.81345e-05
3.65558e-05
3.41064e-05
3.17531e-05
2.96847e-05
2.75334e-05
2.35387e-05
2.17667e-05
1.80412e-05
2.30135e-05
2.34492e-05
2.55141e-05
2.94399e-05
3.23733e-05
3.55031e-05
3.84984e-05
3.94971e-05
4.10855e-05
4.3408e-05
4.43985e-05
4.45687e-05
4.39957e-05
4.5759e-05
4.63947e-05
4.60436e-05
4.54876e-05
4.40086e-05
4.42393e-05
4.38629e-05
4.33915e-05
4.14632e-05
3.9741e-05
3.8289e-05
3.59608e-05
3.29475e-05
2.98241e-05
2.56217e-05
2.33459e-05
2.28725e-05
2.42775e-05
2.41244e-05
2.69388e-05
3.06375e-05
3.20472e-05
3.55146e-05
3.85769e-05
4.1463e-05
4.25988e-05
4.32069e-05
4.2322e-05
4.2674e-05
4.23702e-05
4.33371e-05
4.31619e-05
4.30956e-05
4.33419e-05
4.24898e-05
4.25691e-05
4.22782e-05
4.3743e-05
4.34044e-05
4.20235e-05
3.86916e-05
3.5506e-05
3.26214e-05
3.09292e-05
2.69889e-05
2.38915e-05
2.43275e-05
2.2665e-05
2.42962e-05
2.69706e-05
3.12666e-05
3.27677e-05
3.31522e-05
3.50352e-05
3.71493e-05
3.76588e-05
3.86759e-05
3.83245e-05
3.92858e-05
3.89868e-05
3.94701e-05
4.08173e-05
4.09621e-05
3.95407e-05
3.89709e-05
3.94669e-05
3.84828e-05
3.88302e-05
3.83555e-05
3.7901e-05
3.55382e-05
3.378e-05
3.29843e-05
3.16273e-05
2.72586e-05
2.44415e-05
2.3086e-05
1.9704e-05
2.16665e-05
2.51887e-05
2.83884e-05
2.8373e-05
2.80633e-05
2.97812e-05
3.1048e-05
3.16912e-05
3.30815e-05
3.39787e-05
3.53772e-05
3.58729e-05
3.6395e-05
3.80154e-05
3.80231e-05
3.63288e-05
3.60221e-05
3.56315e-05
3.40549e-05
3.33847e-05
3.21182e-05
3.18788e-05
3.0245e-05
2.8471e-05
2.84454e-05
2.85765e-05
2.53081e-05
2.17897e-05
1.99938e-05
1.74103e-05
1.83466e-05
2.04786e-05
2.2961e-05
2.19415e-05
2.2253e-05
2.42755e-05
2.57907e-05
2.72815e-05
2.85695e-05
2.87355e-05
2.92725e-05
2.94071e-05
3.03289e-05
3.11873e-05
3.11671e-05
3.0425e-05
2.95343e-05
2.91919e-05
2.86017e-05
2.88345e-05
2.74942e-05
2.60549e-05
2.45263e-05
2.24671e-05
2.20473e-05
2.30274e-05
2.05423e-05
1.84445e-05
1.74664e-05
1.55833e-05
1.60437e-05
1.67511e-05
1.81586e-05
1.74151e-05
1.70622e-05
1.84893e-05
2.04438e-05
2.27837e-05
2.50473e-05
2.63734e-05
2.69285e-05
2.69043e-05
2.71874e-05
2.72046e-05
2.71479e-05
2.72456e-05
2.69241e-05
2.68248e-05
2.61635e-05
2.50077e-05
2.28341e-05
2.05413e-05
1.86129e-05
1.71622e-05
1.75148e-05
1.8273e-05
1.68135e-05
1.61183e-05
1.56608e-05
1.41187e-05
1.42276e-05
1.43893e-05
1.48804e-05
1.46489e-05
1.43352e-05
1.46893e-05
1.5699e-05
1.75982e-05
2.02172e-05
2.26565e-05
2.47559e-05
2.60565e-05
2.66672e-05
2.66095e-05
2.65619e-05
2.66983e-05
2.60789e-05
2.46958e-05
2.2555e-05
2.01715e-05
1.76003e-05
1.57346e-05
1.47446e-05
1.43914e-05
1.47319e-05
1.49749e-05
1.44378e-05
1.42831e-05
1.41608e-05
1.30016e-05
1.28585e-05
1.28571e-05
1.29319e-05
1.28918e-05
1.28333e-05
1.29385e-05
1.32323e-05
1.39792e-05
1.55969e-05
1.79952e-05
2.06672e-05
2.31164e-05
2.49946e-05
2.56561e-05
2.56161e-05
2.50128e-05
2.31429e-05
2.06527e-05
1.79509e-05
1.55876e-05
1.39881e-05
1.32532e-05
1.29565e-05
1.28633e-05
1.29498e-05
1.29911e-05
1.28962e-05
1.2901e-05
1.30234e-05
1.20979e-05
1.18756e-05
1.18222e-05
1.18133e-05
1.18204e-05
1.18414e-05
1.19128e-05
1.20445e-05
1.22938e-05
1.28528e-05
1.40497e-05
1.60675e-05
1.8497e-05
2.07069e-05
2.21296e-05
2.21063e-05
2.0717e-05
1.85182e-05
1.60652e-05
1.40402e-05
1.2865e-05
1.23051e-05
1.20572e-05
1.19231e-05
1.18553e-05
1.18457e-05
1.18441e-05
1.18564e-05
1.19112e-05
1.21177e-05
1.13613e-05
1.11311e-05
1.10794e-05
1.10831e-05
1.11017e-05
1.11434e-05
1.12135e-05
1.12948e-05
1.13989e-05
1.15668e-05
1.19203e-05
1.268e-05
1.39671e-05
1.55344e-05
1.68406e-05
1.68298e-05
1.55305e-05
1.39722e-05
1.26774e-05
1.19251e-05
1.1575e-05
1.14032e-05
1.13018e-05
1.12215e-05
1.11582e-05
1.11187e-05
1.10948e-05
1.11054e-05
1.11644e-05
1.13832e-05
1.07545e-05
1.0513e-05
1.04718e-05
1.04824e-05
1.05141e-05
1.05646e-05
1.06318e-05
1.06902e-05
1.07484e-05
1.08046e-05
1.08825e-05
1.10408e-05
1.13663e-05
1.18967e-05
1.24567e-05
1.24562e-05
1.19004e-05
1.1372e-05
1.10417e-05
1.08893e-05
1.08107e-05
1.07512e-05
1.06966e-05
1.0637e-05
1.05786e-05
1.05279e-05
1.04957e-05
1.04908e-05
1.05483e-05
1.07878e-05
1.02494e-05
9.98026e-06
9.94042e-06
9.95598e-06
9.99072e-06
1.00402e-05
1.00926e-05
1.01304e-05
1.0162e-05
1.01775e-05
1.01804e-05
1.01852e-05
1.02109e-05
1.02783e-05
1.03734e-05
1.03722e-05
1.02835e-05
1.02188e-05
1.01932e-05
1.01879e-05
1.01811e-05
1.01655e-05
1.01397e-05
1.00961e-05
1.00462e-05
9.99992e-06
9.97212e-06
9.96011e-06
1.00154e-05
1.02771e-05
9.78674e-06
9.50465e-06
9.4608e-06
9.47766e-06
9.51174e-06
9.55159e-06
9.58175e-06
9.60073e-06
9.60724e-06
9.59411e-06
9.56661e-06
9.53331e-06
9.49725e-06
9.46717e-06
9.45292e-06
9.45226e-06
9.47269e-06
9.50391e-06
9.54099e-06
9.57445e-06
9.59948e-06
9.61259e-06
9.60716e-06
9.58392e-06
9.55258e-06
9.52139e-06
9.4983e-06
9.48267e-06
9.53369e-06
9.80432e-06
9.3454e-06
9.06688e-06
9.02303e-06
9.0398e-06
9.06814e-06
9.09126e-06
9.10097e-06
9.09879e-06
9.07953e-06
9.0446e-06
9.00028e-06
8.94881e-06
8.89104e-06
8.839e-06
8.80749e-06
8.81148e-06
8.85008e-06
8.90025e-06
8.95494e-06
9.00859e-06
9.05613e-06
9.09155e-06
9.10573e-06
9.10351e-06
9.09145e-06
9.07439e-06
9.05541e-06
9.04147e-06
9.09099e-06
9.35834e-06
8.92148e-06
8.66098e-06
8.62238e-06
8.63445e-06
8.64856e-06
8.65382e-06
8.64668e-06
8.62508e-06
8.5892e-06
8.54162e-06
8.48306e-06
8.41541e-06
8.34417e-06
8.28492e-06
8.25134e-06
8.25714e-06
8.29715e-06
8.35466e-06
8.42313e-06
8.49404e-06
8.5582e-06
8.6073e-06
8.63669e-06
8.65097e-06
8.65411e-06
8.64845e-06
8.63619e-06
8.62973e-06
8.68049e-06
8.93489e-06
8.52184e-06
8.28899e-06
8.24866e-06
8.24982e-06
8.24916e-06
8.24253e-06
8.22303e-06
8.18908e-06
8.14335e-06
8.08393e-06
8.01297e-06
7.93582e-06
7.85967e-06
7.79731e-06
7.76051e-06
7.76355e-06
7.80321e-06
7.86627e-06
7.94398e-06
8.02492e-06
8.09894e-06
8.15829e-06
8.19995e-06
8.22708e-06
8.24179e-06
8.24658e-06
8.24439e-06
8.24716e-06
8.2988e-06
8.53711e-06
8.15441e-06
7.93656e-06
7.89281e-06
7.88579e-06
7.87947e-06
7.86477e-06
7.83432e-06
7.79243e-06
7.73935e-06
7.6716e-06
7.59334e-06
7.51107e-06
7.43175e-06
7.36565e-06
7.32448e-06
7.32429e-06
7.36402e-06
7.4309e-06
7.51419e-06
7.60077e-06
7.68103e-06
7.74815e-06
7.79916e-06
7.8357e-06
7.86094e-06
7.87619e-06
7.88396e-06
7.89359e-06
7.94372e-06
8.16441e-06
7.79946e-06
7.60245e-06
7.56274e-06
7.55101e-06
7.53697e-06
7.51192e-06
7.47521e-06
7.43066e-06
7.37392e-06
7.30282e-06
7.22194e-06
7.13678e-06
7.05463e-06
6.98567e-06
6.94235e-06
6.94056e-06
6.98029e-06
7.0488e-06
7.13355e-06
7.22158e-06
7.30453e-06
7.3769e-06
7.43555e-06
7.48001e-06
7.51302e-06
7.53636e-06
7.55208e-06
7.56663e-06
7.6146e-06
7.81497e-06
7.47382e-06
7.30858e-06
7.26607e-06
7.24609e-06
7.22178e-06
7.19053e-06
7.15222e-06
7.10514e-06
7.04521e-06
6.97317e-06
6.89193e-06
6.80571e-06
6.72203e-06
6.65115e-06
6.60636e-06
6.60368e-06
6.64365e-06
6.71342e-06
6.7992e-06
6.88858e-06
6.97345e-06
7.04853e-06
7.11063e-06
7.15928e-06
7.19752e-06
7.22716e-06
7.24907e-06
7.2677e-06
7.3134e-06
7.49111e-06
7.1867e-06
7.0431e-06
6.99473e-06
6.96851e-06
6.94193e-06
6.91123e-06
6.87168e-06
6.82136e-06
6.76018e-06
6.68865e-06
6.60841e-06
6.52288e-06
6.43981e-06
6.36944e-06
6.32557e-06
6.32424e-06
6.36509e-06
6.4348e-06
6.51938e-06
6.60666e-06
6.68887e-06
6.7624e-06
6.82533e-06
6.87705e-06
6.91876e-06
6.95159e-06
6.97639e-06
6.99671e-06
7.03855e-06
7.19277e-06
6.92281e-06
6.78992e-06
6.74596e-06
6.72282e-06
6.70087e-06
6.671e-06
6.62923e-06
6.57834e-06
6.51875e-06
6.44819e-06
6.36884e-06
6.28508e-06
6.20484e-06
6.13803e-06
6.09739e-06
6.09789e-06
6.13826e-06
6.20524e-06
6.2857e-06
6.36842e-06
6.4466e-06
6.51765e-06
6.57979e-06
6.63217e-06
6.67434e-06
6.70721e-06
6.73189e-06
6.75146e-06
6.78803e-06
6.92008e-06
6.67945e-06
6.56103e-06
6.52727e-06
6.51052e-06
6.48989e-06
6.45861e-06
6.41798e-06
6.37057e-06
6.31351e-06
6.24491e-06
6.16784e-06
6.08764e-06
6.01185e-06
5.94941e-06
5.91175e-06
5.9131e-06
5.95217e-06
6.01556e-06
6.09074e-06
6.1678e-06
6.2414e-06
6.30903e-06
6.36875e-06
6.41913e-06
6.45939e-06
6.49022e-06
6.51304e-06
6.53089e-06
6.56252e-06
6.67503e-06
6.45694e-06
6.36137e-06
6.3352e-06
6.32042e-06
6.29916e-06
6.26972e-06
6.23398e-06
6.19026e-06
6.13558e-06
6.07105e-06
5.99972e-06
5.92636e-06
5.85707e-06
5.79901e-06
5.76316e-06
5.76444e-06
5.80141e-06
5.86035e-06
5.92937e-06
6.00004e-06
6.06814e-06
6.13097e-06
6.18648e-06
6.23289e-06
6.26977e-06
6.29797e-06
6.31902e-06
6.3357e-06
6.3633e-06
6.45791e-06
6.26309e-06
6.18842e-06
6.16547e-06
6.15055e-06
6.13173e-06
6.10688e-06
6.07473e-06
6.03275e-06
5.98182e-06
5.92387e-06
5.86088e-06
5.79615e-06
5.73347e-06
5.67903e-06
5.64491e-06
5.64597e-06
5.68076e-06
5.73511e-06
5.79743e-06
5.86075e-06
5.92174e-06
5.97809e-06
6.02794e-06
6.06987e-06
6.10354e-06
6.12968e-06
6.14939e-06
6.16487e-06
6.18847e-06
6.26622e-06
6.1001e-06
6.03648e-06
6.01607e-06
6.00408e-06
5.98844e-06
5.96587e-06
5.93493e-06
5.89588e-06
5.85115e-06
5.80123e-06
5.74722e-06
5.69088e-06
5.63448e-06
5.58431e-06
5.55325e-06
5.55453e-06
5.5861e-06
5.63437e-06
5.689e-06
5.74451e-06
5.79818e-06
5.84815e-06
5.89251e-06
5.9301e-06
5.96073e-06
5.98468e-06
6.00262e-06
6.01637e-06
6.03576e-06
6.09754e-06
5.95473e-06
5.90187e-06
5.88802e-06
5.87861e-06
5.86283e-06
5.84093e-06
5.8126e-06
5.77921e-06
5.74142e-06
5.69903e-06
5.65312e-06
5.60423e-06
5.55444e-06
5.51043e-06
5.48338e-06
5.48398e-06
5.51056e-06
5.55174e-06
5.59918e-06
5.64837e-06
5.69629e-06
5.74063e-06
5.77968e-06
5.81273e-06
5.83962e-06
5.86049e-06
5.87593e-06
5.88754e-06
5.90312e-06
5.95076e-06
5.8249e-06
5.79006e-06
5.78172e-06
5.7707e-06
5.75477e-06
5.73547e-06
5.71192e-06
5.68423e-06
5.65169e-06
5.61522e-06
5.57567e-06
5.5332e-06
5.49024e-06
5.4529e-06
5.42934e-06
5.42836e-06
5.44998e-06
5.48515e-06
5.52702e-06
5.57109e-06
5.61389e-06
5.65286e-06
5.68661e-06
5.71462e-06
5.73695e-06
5.75405e-06
5.76661e-06
5.77606e-06
5.78839e-06
5.82536e-06
5.72316e-06
5.70385e-06
5.69269e-06
5.67966e-06
5.66617e-06
5.65063e-06
5.63149e-06
5.60788e-06
5.58e-06
5.54912e-06
5.5154e-06
5.47911e-06
5.44294e-06
5.41179e-06
5.39102e-06
5.38848e-06
5.40576e-06
5.4358e-06
5.47241e-06
5.51084e-06
5.54756e-06
5.58037e-06
5.60831e-06
5.63129e-06
5.64947e-06
5.66344e-06
5.67391e-06
5.68194e-06
5.69179e-06
5.71964e-06
5.64363e-06
5.62603e-06
5.61202e-06
5.60233e-06
5.59287e-06
5.58074e-06
5.56526e-06
5.54577e-06
5.52307e-06
5.49788e-06
5.46984e-06
5.43964e-06
5.41013e-06
5.38461e-06
5.36676e-06
5.36366e-06
5.37719e-06
5.40187e-06
5.43198e-06
5.46317e-06
5.49268e-06
5.51921e-06
5.54211e-06
5.56131e-06
5.57695e-06
5.58916e-06
5.59835e-06
5.60513e-06
5.6123e-06
5.63155e-06
5.56997e-06
5.55144e-06
5.54419e-06
5.54013e-06
5.53365e-06
5.52395e-06
5.51104e-06
5.4951e-06
5.47702e-06
5.45639e-06
5.43279e-06
5.40785e-06
5.38401e-06
5.36329e-06
5.3491e-06
5.34701e-06
5.35807e-06
5.37752e-06
5.40078e-06
5.42472e-06
5.44779e-06
5.46949e-06
5.4893e-06
5.50635e-06
5.52013e-06
5.53067e-06
5.53824e-06
5.54321e-06
5.54734e-06
5.55901e-06
5.5016e-06
5.49347e-06
5.49487e-06
5.49299e-06
5.48722e-06
5.4784e-06
5.46705e-06
5.45417e-06
5.4396e-06
5.422e-06
5.40185e-06
5.38147e-06
5.36244e-06
5.34603e-06
5.33506e-06
5.33421e-06
5.34389e-06
5.3594e-06