/*--------------------------------*- C++ -*----------------------------------*\
| =========                 |                                                 |
| \\      /  F ield         | OpenFOAM: The Open Source CFD Toolbox           |
|  \\    /   O peration     | Version:  2312                                  |
|   \\  /    A nd           | Website:  www.openfoam.com                      |
|    \\/     M anipulation  |                                                 |
\*---------------------------------------------------------------------------*/
FoamFile
{
    version     2.0;
    format      ascii;
    arch        "LSB;label=32;scalar=64";
    class       volScalarField;
    location    "1.26092662";
    object      p;
}
// * * * * * * * * * * * * * * * * * * * * * * * * * * * * * * * * * * * * * //

dimensions      [1 -1 -2 0 0 0 0];

internalField   nonuniform List<scalar> 
90000
(
4850.05
4850.05
4850.05
4850.04
4850.04
4850.04
4850.04
4850.04
4850.04
4850.04
4850.03
4850.03
4850.03
4850.03
4850.03
4850.03
4850.03
4850.03
4850.04
4850.04
4850.04
4850.04
4850.04
4850.04
4850.04
4850.04
4850.04
4850.04
4850.04
4850.04
4751.94
4751.94
4751.94
4751.94
4751.94
4751.94
4751.94
4751.94
4751.94
4751.94
4751.94
4751.94
4751.93
4751.93
4751.93
4751.93
4751.93
4751.93
4751.93
4751.94
4751.94
4751.94
4751.94
4751.94
4751.94
4751.94
4751.94
4751.94
4751.95
4751.94
4653.84
4653.83
4653.84
4653.84
4653.84
4653.84
4653.84
4653.84
4653.84
4653.84
4653.84
4653.84
4653.84
4653.84
4653.84
4653.84
4653.83
4653.83
4653.83
4653.84
4653.84
4653.84
4653.84
4653.84
4653.84
4653.84
4653.84
4653.84
4653.84
4653.84
4555.73
4555.73
4555.73
4555.73
4555.73
4555.74
4555.74
4555.74
4555.74
4555.74
4555.74
4555.74
4555.74
4555.74
4555.74
4555.74
4555.74
4555.74
4555.74
4555.74
4555.74
4555.74
4555.74
4555.74
4555.74
4555.74
4555.74
4555.74
4555.74
4555.74
4457.63
4457.63
4457.63
4457.63
4457.63
4457.64
4457.64
4457.64
4457.64
4457.64
4457.64
4457.64
4457.64
4457.64
4457.64
4457.64
4457.64
4457.64
4457.64
4457.64
4457.64
4457.64
4457.64
4457.64
4457.64
4457.64
4457.64
4457.64
4457.64
4457.64
4359.53
4359.53
4359.53
4359.54
4359.54
4359.54
4359.54
4359.54
4359.54
4359.54
4359.54
4359.54
4359.54
4359.54
4359.54
4359.54
4359.54
4359.54
4359.54
4359.54
4359.54
4359.54
4359.54
4359.54
4359.54
4359.54
4359.54
4359.54
4359.54
4359.54
4261.44
4261.44
4261.44
4261.44
4261.44
4261.44
4261.44
4261.44
4261.44
4261.44
4261.44
4261.44
4261.44
4261.44
4261.44
4261.44
4261.44
4261.44
4261.44
4261.44
4261.44
4261.44
4261.44
4261.44
4261.44
4261.44
4261.44
4261.44
4261.44
4261.44
4163.34
4163.34
4163.34
4163.34
4163.34
4163.34
4163.34
4163.34
4163.34
4163.34
4163.34
4163.34
4163.34
4163.34
4163.34
4163.34
4163.34
4163.34
4163.34
4163.34
4163.34
4163.34
4163.34
4163.34
4163.34
4163.34
4163.34
4163.34
4163.34
4163.34
4065.25
4065.25
4065.25
4065.25
4065.25
4065.24
4065.24
4065.24
4065.24
4065.24
4065.24
4065.24
4065.24
4065.24
4065.24
4065.25
4065.25
4065.25
4065.25
4065.25
4065.24
4065.24
4065.24
4065.24
4065.24
4065.24
4065.24
4065.24
4065.24
4065.24
3967.15
3967.15
3967.15
3967.15
3967.15
3967.15
3967.15
3967.14
3967.14
3967.14
3967.14
3967.14
3967.14
3967.14
3967.15
3967.15
3967.15
3967.15
3967.15
3967.15
3967.15
3967.15
3967.14
3967.14
3967.14
3967.14
3967.14
3967.14
3967.14
3967.14
3869.05
3869.05
3869.05
3869.05
3869.05
3869.05
3869.05
3869.05
3869.05
3869.05
3869.05
3869.05
3869.05
3869.05
3869.05
3869.05
3869.05
3869.05
3869.05
3869.05
3869.05
3869.05
3869.05
3869.05
3869.05
3869.05
3869.05
3869.05
3869.05
3869.05
3770.95
3770.95
3770.95
3770.95
3770.95
3770.95
3770.95
3770.95
3770.95
3770.95
3770.95
3770.95
3770.95
3770.95
3770.95
3770.95
3770.95
3770.95
3770.95
3770.95
3770.95
3770.95
3770.95
3770.95
3770.95
3770.95
3770.95
3770.95
3770.95
3770.95
3672.85
3672.85
3672.85
3672.85
3672.85
3672.85
3672.85
3672.85
3672.85
3672.85
3672.85
3672.85
3672.85
3672.85
3672.85
3672.85
3672.85
3672.85
3672.85
3672.85
3672.85
3672.85
3672.85
3672.85
3672.85
3672.85
3672.85
3672.85
3672.85
3672.85
3574.75
3574.75
3574.75
3574.75
3574.75
3574.75
3574.75
3574.75
3574.75
3574.75
3574.75
3574.75
3574.75
3574.75
3574.75
3574.75
3574.75
3574.75
3574.75
3574.75
3574.76
3574.76
3574.76
3574.76
3574.76
3574.76
3574.76
3574.76
3574.76
3574.76
3476.65
3476.65
3476.65
3476.65
3476.65
3476.65
3476.65
3476.66
3476.66
3476.66
3476.66
3476.66
3476.66
3476.66
3476.66
3476.66
3476.66
3476.66
3476.66
3476.66
3476.66
3476.66
3476.66
3476.66
3476.66
3476.66
3476.66
3476.66
3476.66
3476.66
3378.55
3378.55
3378.55
3378.55
3378.56
3378.56
3378.56
3378.56
3378.56
3378.56
3378.56
3378.56
3378.56
3378.56
3378.56
3378.56
3378.56
3378.56
3378.56
3378.56
3378.56
3378.56
3378.56
3378.56
3378.56
3378.56
3378.56
3378.56
3378.56
3378.56
3280.46
3280.46
3280.46
3280.46
3280.46
3280.46
3280.46
3280.46
3280.46
3280.46
3280.46
3280.46
3280.46
3280.46
3280.46
3280.46
3280.46
3280.46
3280.46
3280.46
3280.46
3280.46
3280.46
3280.46
3280.46
3280.46
3280.46
3280.46
3280.46
3280.46
3182.36
3182.36
3182.36
3182.36
3182.36
3182.36
3182.36
3182.36
3182.36
3182.36
3182.36
3182.36
3182.36
3182.36
3182.36
3182.36
3182.36
3182.36
3182.36
3182.36
3182.36
3182.36
3182.36
3182.36
3182.36
3182.36
3182.36
3182.36
3182.36
3182.36
3084.27
3084.27
3084.27
3084.26
3084.26
3084.26
3084.26
3084.26
3084.26
3084.26
3084.26
3084.26
3084.26
3084.26
3084.26
3084.26
3084.26
3084.26
3084.26
3084.26
3084.26
3084.26
3084.26
3084.26
3084.26
3084.26
3084.26
3084.26
3084.26
3084.26
2986.17
2986.17
2986.17
2986.17
2986.17
2986.17
2986.16
2986.16
2986.16
2986.16
2986.16
2986.16
2986.16
2986.16
2986.16
2986.16
2986.16
2986.16
2986.16
2986.16
2986.16
2986.16
2986.16
2986.16
2986.16
2986.16
2986.16
2986.16
2986.16
2986.16
2888.07
2888.07
2888.07
2888.07
2888.07
2888.06
2888.06
2888.06
2888.06
2888.06
2888.06
2888.06
2888.05
2888.05
2888.05
2888.06
2888.06
2888.06
2888.06
2888.06
2888.06
2888.06
2888.06
2888.06
2888.06
2888.06
2888.06
2888.06
2888.07
2888.07
2789.97
2789.97
2789.97
2789.97
2789.96
2789.96
2789.96
2789.96
2789.96
2789.96
2789.96
2789.95
2789.95
2789.95
2789.96
2789.96
2789.96
2789.96
2789.96
2789.96
2789.96
2789.96
2789.96
2789.96
2789.96
2789.96
2789.96
2789.96
2789.97
2789.97
2691.87
2691.87
2691.86
2691.86
2691.86
2691.86
2691.86
2691.86
2691.86
2691.86
2691.85
2691.85
2691.85
2691.85
2691.86
2691.86
2691.86
2691.86
2691.86
2691.86
2691.86
2691.86
2691.86
2691.86
2691.86
2691.86
2691.86
2691.86
2691.86
2691.86
2593.76
2593.76
2593.76
2593.76
2593.76
2593.76
2593.76
2593.76
2593.76
2593.75
2593.75
2593.75
2593.75
2593.75
2593.75
2593.75
2593.75
2593.75
2593.75
2593.76
2593.76
2593.76
2593.76
2593.76
2593.76
2593.76
2593.76
2593.76
2593.76
2593.77
2495.66
2495.66
2495.66
2495.66
2495.66
2495.66
2495.66
2495.66
2495.65
2495.65
2495.65
2495.65
2495.65
2495.65
2495.65
2495.65
2495.65
2495.65
2495.65
2495.65
2495.66
2495.66
2495.66
2495.66
2495.66
2495.66
2495.66
2495.66
2495.67
2495.67
2397.56
2397.56
2397.56
2397.56
2397.56
2397.56
2397.56
2397.56
2397.55
2397.55
2397.55
2397.55
2397.55
2397.55
2397.55
2397.55
2397.55
2397.55
2397.55
2397.55
2397.55
2397.55
2397.55
2397.56
2397.56
2397.56
2397.56
2397.56
2397.57
2397.56
2299.47
2299.47
2299.46
2299.46
2299.46
2299.46
2299.46
2299.46
2299.45
2299.45
2299.45
2299.45
2299.45
2299.45
2299.45
2299.45
2299.45
2299.45
2299.45
2299.45
2299.45
2299.45
2299.45
2299.46
2299.46
2299.46
2299.46
2299.47
2299.47
2299.47
2201.37
2201.37
2201.37
2201.37
2201.36
2201.36
2201.36
2201.36
2201.35
2201.35
2201.35
2201.35
2201.35
2201.35
2201.34
2201.34
2201.34
2201.35
2201.35
2201.35
2201.35
2201.35
2201.35
2201.36
2201.36
2201.36
2201.37
2201.37
2201.37
2201.37
2103.28
2103.27
2103.27
2103.27
2103.27
2103.26
2103.26
2103.26
2103.25
2103.25
2103.25
2103.25
2103.24
2103.24
2103.24
2103.24
2103.24
2103.24
2103.24
2103.24
2103.25
2103.25
2103.25
2103.26
2103.26
2103.26
2103.27
2103.27
2103.27
2103.27
2005.18
2005.18
2005.18
2005.18
2005.17
2005.17
2005.16
2005.16
2005.16
2005.15
2005.15
2005.14
2005.14
2005.14
2005.14
2005.14
2005.14
2005.14
2005.14
2005.15
2005.15
2005.15
2005.16
2005.16
2005.16
2005.17
2005.17
2005.17
2005.18
2005.18
1907.09
1907.09
1907.09
1907.08
1907.08
1907.07
1907.07
1907.06
1907.06
1907.05
1907.05
1907.04
1907.04
1907.04
1907.04
1907.04
1907.04
1907.04
1907.04
1907.05
1907.05
1907.05
1907.06
1907.06
1907.07
1907.07
1907.08
1907.08
1907.08
1907.08
1809
1809
1808.99
1808.99
1808.98
1808.98
1808.97
1808.96
1808.96
1808.95
1808.95
1808.94
1808.94
1808.93
1808.93
1808.93
1808.93
1808.94
1808.94
1808.94
1808.95
1808.96
1808.96
1808.97
1808.97
1808.98
1808.98
1808.99
1808.99
1808.99
1710.91
1710.91
1710.9
1710.9
1710.89
1710.88
1710.88
1710.87
1710.86
1710.85
1710.85
1710.84
1710.84
1710.83
1710.83
1710.83
1710.83
1710.83
1710.84
1710.84
1710.85
1710.86
1710.87
1710.87
1710.88
1710.89
1710.89
1710.9
1710.9
1710.9
1612.82
1612.82
1612.81
1612.81
1612.8
1612.79
1612.78
1612.77
1612.77
1612.76
1612.75
1612.74
1612.74
1612.73
1612.73
1612.73
1612.73
1612.73
1612.74
1612.75
1612.76
1612.77
1612.77
1612.78
1612.79
1612.8
1612.8
1612.81
1612.81
1612.81
1514.73
1514.73
1514.72
1514.72
1514.71
1514.7
1514.69
1514.68
1514.67
1514.66
1514.65
1514.64
1514.63
1514.63
1514.62
1514.62
1514.63
1514.63
1514.64
1514.65
1514.66
1514.67
1514.68
1514.69
1514.7
1514.71
1514.72
1514.72
1514.73
1514.73
1416.65
1416.65
1416.64
1416.63
1416.63
1416.62
1416.6
1416.59
1416.58
1416.56
1416.55
1416.54
1416.53
1416.52
1416.52
1416.52
1416.52
1416.53
1416.54
1416.55
1416.56
1416.57
1416.59
1416.6
1416.61
1416.62
1416.63
1416.64
1416.64
1416.64
1318.57
1318.56
1318.56
1318.55
1318.54
1318.53
1318.52
1318.5
1318.49
1318.47
1318.45
1318.44
1318.43
1318.42
1318.42
1318.42
1318.42
1318.43
1318.44
1318.45
1318.47
1318.48
1318.5
1318.51
1318.53
1318.54
1318.55
1318.56
1318.56
1318.56
1220.49
1220.49
1220.48
1220.48
1220.47
1220.45
1220.44
1220.42
1220.4
1220.38
1220.36
1220.34
1220.33
1220.32
1220.32
1220.31
1220.32
1220.33
1220.34
1220.36
1220.37
1220.39
1220.41
1220.43
1220.44
1220.46
1220.47
1220.48
1220.48
1220.49
1122.42
1122.42
1122.41
1122.4
1122.39
1122.38
1122.36
1122.34
1122.32
1122.29
1122.27
1122.25
1122.23
1122.22
1122.22
1122.21
1122.22
1122.23
1122.25
1122.27
1122.29
1122.31
1122.33
1122.35
1122.37
1122.38
1122.4
1122.4
1122.41
1122.41
1024.35
1024.35
1024.34
1024.34
1024.32
1024.31
1024.29
1024.27
1024.24
1024.21
1024.19
1024.16
1024.14
1024.13
1024.12
1024.12
1024.13
1024.14
1024.16
1024.19
1024.21
1024.24
1024.26
1024.28
1024.3
1024.32
1024.33
1024.34
1024.34
1024.34
926.286
926.285
926.282
926.275
926.265
926.251
926.232
926.208
926.179
926.148
926.116
926.086
926.061
926.042
926.032
926.033
926.043
926.06
926.085
926.114
926.146
926.176
926.204
926.227
926.246
926.259
926.269
926.274
926.276
926.276
828.222
828.223
828.223
828.222
828.216
828.206
828.189
828.164
828.133
828.096
828.058
828.022
827.99
827.967
827.954
827.955
827.967
827.99
828.021
828.057
828.095
828.13
828.16
828.184
828.201
828.21
828.215
828.215
828.214
828.213
730.155
730.16
730.166
730.173
730.177
730.174
730.162
730.139
730.106
730.065
730.019
729.975
729.935
729.905
729.89
729.892
729.907
729.936
729.975
730.019
730.064
730.104
730.136
730.158
730.17
730.171
730.166
730.158
730.151
730.145
632.076
632.087
632.105
632.127
632.146
632.158
632.156
632.139
632.107
632.063
632.009
631.954
631.905
631.868
631.847
631.848
631.868
631.905
631.955
632.009
632.062
632.107
632.138
632.155
632.154
632.142
632.121
632.098
632.078
632.064
533.974
533.996
534.032
534.077
534.123
534.159
534.178
534.174
534.146
534.1
534.038
533.97
533.907
533.86
533.834
533.835
533.86
533.908
533.971
534.037
534.099
534.147
534.173
534.177
534.157
534.119
534.072
534.024
533.987
533.964
435.833
435.867
435.931
436.016
436.104
436.18
436.233
436.252
436.237
436.19
436.121
436.039
435.957
435.896
435.869
435.869
435.897
435.958
436.041
436.121
436.191
436.238
436.253
436.232
436.18
436.101
436.009
435.921
435.857
435.824
337.616
337.656
337.773
337.918
338.076
338.216
338.325
338.383
338.392
338.36
338.291
338.198
338.083
337.998
337.976
337.979
338
338.084
338.199
338.292
338.363
338.395
338.383
338.326
338.218
338.076
337.909
337.76
337.644
337.609
239.261
239.287
239.518
239.737
240.015
240.249
240.462
240.563
240.609
240.608
240.555
240.482
240.292
240.171
240.22
240.211
240.175
240.295
240.476
240.556
240.616
240.612
240.563
240.465
240.258
240.024
239.723
239.491
239.268
239.257
140.875
140.704
141.258
141.45
141.968
142.294
142.746
142.8
142.844
142.966
143.006
143.034
142.547
142.328
142.691
142.663
142.346
142.565
143.009
143.015
142.99
142.851
142.793
142.748
142.325
142.016
141.422
141.18
140.672
140.878
51.4365
51.5408
52.0266
51.9369
52.0226
52.1525
52.8134
52.4666
52.2098
52.5867
52.7326
53.0518
52.2611
51.5846
52.6729
52.6114
51.6083
52.2507
53.0048
52.7533
52.6447
52.2217
52.4107
52.7896
52.2373
52.184
51.9158
51.858
51.5308
51.4497
2.99137
3.31241
3.48644
3.24351
2.93612
2.91675
3.293
2.89198
2.58342
2.77534
2.98424
3.31607
2.89789
2.33783
3.09872
3.06256
2.34401
2.89194
3.2826
2.9903
2.81854
2.59702
2.83917
3.25744
2.97567
3.07467
3.25985
3.36665
3.34291
2.99697
-5.02398
-5.02611
-5.03315
-5.03266
-5.03747
-5.03743
-5.04159
-5.03925
-5.03347
-5.03711
-5.03917
-5.04459
-5.03916
-5.0349
-5.04227
-5.04192
-5.03447
-5.03919
-5.04415
-5.03858
-5.03707
-5.03366
-5.03774
-5.03912
-5.03558
-5.03459
-5.02911
-5.02772
-5.02252
-5.02001
-5.13399
-5.13564
-5.13612
-5.13899
-5.13985
-5.13989
-5.14135
-5.14079
-5.14092
-5.14168
-5.14294
-5.1451
-5.1439
-5.14283
-5.14473
-5.14454
-5.14244
-5.14316
-5.14425
-5.14233
-5.14123
-5.14022
-5.13985
-5.14028
-5.13841
-5.13895
-5.13787
-5.13434
-5.13487
-5.13171
-5.24041
-5.23989
-5.23957
-5.2419
-5.243
-5.2426
-5.24269
-5.24201
-5.24227
-5.24253
-5.24279
-5.24284
-5.24259
-5.24181
-5.24184
-5.24178
-5.24166
-5.24217
-5.24258
-5.24251
-5.24226
-5.2421
-5.24176
-5.24241
-5.24223
-5.2431
-5.24196
-5.23978
-5.24003
-5.24037
-5.33962
-5.34028
-5.34011
-5.34039
-5.34128
-5.34188
-5.34184
-5.34145
-5.3416
-5.3417
-5.3416
-5.34098
-5.34079
-5.34025
-5.33998
-5.33995
-5.34031
-5.34087
-5.34098
-5.34142
-5.34144
-5.34141
-5.34136
-5.34167
-5.34172
-5.34119
-5.34035
-5.34022
-5.34037
-5.33949
-5.43837
-5.43864
-5.43863
-5.43904
-5.43967
-5.4399
-5.43987
-5.43981
-5.43991
-5.43997
-5.43974
-5.4393
-5.43904
-5.43873
-5.43838
-5.43836
-5.43877
-5.43909
-5.43928
-5.43957
-5.43967
-5.43963
-5.43959
-5.4396
-5.4397
-5.43949
-5.43886
-5.43852
-5.4386
-5.43824
-5.53668
-5.53682
-5.53694
-5.53723
-5.53765
-5.53777
-5.53777
-5.53775
-5.53774
-5.53774
-5.53767
-5.53755
-5.53745
-5.53729
-5.53705
-5.53702
-5.53724
-5.53741
-5.53748
-5.53752
-5.53751
-5.53749
-5.53752
-5.53753
-5.53757
-5.53749
-5.53705
-5.53677
-5.53667
-5.53654
-5.63483
-5.63491
-5.63505
-5.63523
-5.63553
-5.63565
-5.63569
-5.63567
-5.63562
-5.63557
-5.63551
-5.63549
-5.63554
-5.63551
-5.63549
-5.63547
-5.63546
-5.63546
-5.63539
-5.63535
-5.63535
-5.63541
-5.63547
-5.63549
-5.63548
-5.63541
-5.63509
-5.6349
-5.63475
-5.63467
-5.73286
-5.73291
-5.73303
-5.73317
-5.73338
-5.73351
-5.73358
-5.73359
-5.73356
-5.73352
-5.73345
-5.7334
-5.7334
-5.73344
-5.73346
-5.73345
-5.73339
-5.73332
-5.73331
-5.73332
-5.73335
-5.73341
-5.73345
-5.73345
-5.73339
-5.73327
-5.73307
-5.73291
-5.73277
-5.7327
-5.83083
-5.83087
-5.83097
-5.8311
-5.83126
-5.8314
-5.83149
-5.83153
-5.83153
-5.83151
-5.83148
-5.83143
-5.8314
-5.83138
-5.83139
-5.83138
-5.83134
-5.83135
-5.83136
-5.83139
-5.83141
-5.83144
-5.83144
-5.8314
-5.83131
-5.83117
-5.83101
-5.83086
-5.83074
-5.83069
-5.92877
-5.9288
-5.92889
-5.92901
-5.92915
-5.92928
-5.92939
-5.92946
-5.9295
-5.92951
-5.9295
-5.92948
-5.92946
-5.92944
-5.92944
-5.92943
-5.92942
-5.92942
-5.92943
-5.92944
-5.92944
-5.92942
-5.92938
-5.92931
-5.9292
-5.92907
-5.92893
-5.92881
-5.92871
-5.92868
-6.02671
-6.02673
-6.0268
-6.0269
-6.02702
-6.02714
-6.02725
-6.02733
-6.02739
-6.02743
-6.02745
-6.02745
-6.02745
-6.02744
-6.02744
-6.02744
-6.02743
-6.02743
-6.02742
-6.02741
-6.02738
-6.02734
-6.02727
-6.02719
-6.02709
-6.02697
-6.02686
-6.02677
-6.02671
-6.02668
-6.12467
-6.12469
-6.12474
-6.12481
-6.1249
-6.12499
-6.12508
-6.12516
-6.12522
-6.12527
-6.1253
-6.12532
-6.12532
-6.12533
-6.12533
-6.12533
-6.12533
-6.12532
-6.12531
-6.12529
-6.12526
-6.12521
-6.12515
-6.12508
-6.125
-6.12492
-6.12484
-6.12478
-6.12474
-6.12473
-6.22268
-6.22269
-6.22272
-6.22277
-6.22282
-6.22288
-6.22294
-6.223
-6.22305
-6.22308
-6.22311
-6.22313
-6.22314
-6.22314
-6.22315
-6.22315
-6.22316
-6.22316
-6.22316
-6.22315
-6.22313
-6.22311
-6.22307
-6.22302
-6.22297
-6.22292
-6.22287
-6.22283
-6.22281
-6.22281
-6.32073
-6.32074
-6.32075
-6.32078
-6.3208
-6.32083
-6.32087
-6.32089
-6.32092
-6.32094
-6.32095
-6.32096
-6.32096
-6.32097
-6.32098
-6.32099
-6.321
-6.32102
-6.32103
-6.32104
-6.32104
-6.32104
-6.32103
-6.32102
-6.32099
-6.32097
-6.32095
-6.32093
-6.32092
-6.32092
-6.41883
-6.41883
-6.41883
-6.41884
-6.41885
-6.41885
-6.41886
-6.41886
-6.41887
-6.41886
-6.41886
-6.41886
-6.41886
-6.41886
-6.41887
-6.41888
-6.4189
-6.41893
-6.41896
-6.41899
-6.41901
-6.41904
-6.41905
-6.41906
-6.41906
-6.41906
-6.41906
-6.41905
-6.41905
-6.41905
-6.51694
-6.51694
-6.51694
-6.51694
-6.51693
-6.51692
-6.51691
-6.5169
-6.51689
-6.51687
-6.51685
-6.51684
-6.51683
-6.51683
-6.51684
-6.51686
-6.51688
-6.51692
-6.51696
-6.517
-6.51704
-6.51708
-6.51711
-6.51714
-6.51716
-6.51718
-6.51719
-6.51719
-6.5172
-6.5172
-6.61508
-6.61508
-6.61507
-6.61506
-6.61505
-6.61503
-6.61501
-6.61499
-6.61496
-6.61494
-6.61492
-6.6149
-6.61488
-6.61488
-6.61489
-6.6149
-6.61493
-6.61497
-6.61502
-6.61507
-6.61512
-6.61517
-6.61521
-6.61525
-6.61529
-6.61531
-6.61533
-6.61534
-6.61535
-6.61535
-6.71323
-6.71323
-6.71322
-6.71321
-6.71319
-6.71317
-6.71315
-6.71312
-6.71309
-6.71306
-6.71303
-6.71301
-6.71299
-6.71299
-6.71299
-6.71301
-6.71304
-6.71308
-6.71313
-6.71318
-6.71324
-6.71329
-6.71334
-6.71339
-6.71342
-6.71346
-6.71348
-6.7135
-6.71351
-6.71351
-6.81139
-6.81139
-6.81138
-6.81137
-6.81135
-6.81133
-6.8113
-6.81127
-6.81124
-6.81121
-6.81119
-6.81116
-6.81115
-6.81114
-6.81115
-6.81117
-6.8112
-6.81123
-6.81128
-6.81133
-6.81139
-6.81144
-6.81149
-6.81154
-6.81158
-6.81161
-6.81164
-6.81166
-6.81167
-6.81168
-6.90957
-6.90957
-6.90956
-6.90954
-6.90953
-6.90951
-6.90948
-6.90945
-6.90942
-6.9094
-6.90937
-6.90935
-6.90934
-6.90933
-6.90934
-6.90936
-6.90938
-6.90942
-6.90946
-6.90951
-6.90956
-6.90961
-6.90966
-6.90971
-6.90975
-6.90979
-6.90981
-6.90983
-6.90984
-6.90985
-7.00776
-7.00775
-7.00775
-7.00773
-7.00772
-7.0077
-7.00768
-7.00765
-7.00763
-7.0076
-7.00758
-7.00756
-7.00755
-7.00755
-7.00756
-7.00757
-7.0076
-7.00763
-7.00767
-7.00771
-7.00776
-7.00781
-7.00786
-7.0079
-7.00794
-7.00797
-7.008
-7.00802
-7.00803
-7.00803
-7.10596
-7.10596
-7.10595
-7.10594
-7.10593
-7.10591
-7.10589
-7.10587
-7.10585
-7.10583
-7.10581
-7.1058
-7.10579
-7.10579
-7.10579
-7.10581
-7.10583
-7.10586
-7.1059
-7.10594
-7.10598
-7.10602
-7.10606
-7.1061
-7.10614
-7.10617
-7.10619
-7.10621
-7.10622
-7.10623
-7.20418
-7.20417
-7.20417
-7.20416
-7.20415
-7.20413
-7.20412
-7.2041
-7.20408
-7.20407
-7.20406
-7.20405
-7.20404
-7.20404
-7.20405
-7.20406
-7.20409
-7.20411
-7.20414
-7.20418
-7.20421
-7.20425
-7.20429
-7.20432
-7.20435
-7.20438
-7.2044
-7.20442
-7.20443
-7.20444
-7.30241
-7.3024
-7.3024
-7.30239
-7.30238
-7.30237
-7.30236
-7.30235
-7.30233
-7.30232
-7.30231
-7.30231
-7.30231
-7.30231
-7.30232
-7.30233
-7.30235
-7.30237
-7.3024
-7.30243
-7.30246
-7.3025
-7.30253
-7.30256
-7.30258
-7.30261
-7.30263
-7.30264
-7.30265
-7.30266
-7.40065
-7.40065
-7.40064
-7.40064
-7.40063
-7.40062
-7.40061
-7.4006
-7.4006
-7.40059
-7.40059
-7.40058
-7.40058
-7.40059
-7.4006
-7.40061
-7.40063
-7.40065
-7.40067
-7.4007
-7.40072
-7.40075
-7.40078
-7.4008
-7.40083
-7.40085
-7.40086
-7.40088
-7.40088
-7.40089
-7.4989
-7.4989
-7.4989
-7.49889
-7.49889
-7.49888
-7.49888
-7.49887
-7.49887
-7.49887
-7.49887
-7.49887
-7.49887
-7.49888
-7.49889
-7.4989
-7.49891
-7.49893
-7.49895
-7.49897
-7.49899
-7.49902
-7.49904
-7.49906
-7.49908
-7.4991
-7.49911
-7.49912
-7.49913
-7.49913
-7.59717
-7.59716
-7.59716
-7.59716
-7.59716
-7.59716
-7.59715
-7.59715
-7.59715
-7.59715
-7.59715
-7.59716
-7.59716
-7.59717
-7.59718
-7.59719
-7.59721
-7.59722
-7.59724
-7.59726
-7.59727
-7.59729
-7.59731
-7.59733
-7.59734
-7.59736
-7.59737
-7.59738
-7.59738
-7.59739
-7.69544
-7.69544
-7.69544
-7.69544
-7.69544
-7.69544
-7.69544
-7.69544
-7.69544
-7.69545
-7.69545
-7.69546
-7.69546
-7.69547
-7.69548
-7.69549
-7.6955
-7.69552
-7.69553
-7.69555
-7.69556
-7.69558
-7.69559
-7.6956
-7.69562
-7.69563
-7.69564
-7.69564
-7.69565
-7.69565
-7.79372
-7.79372
-7.79372
-7.79372
-7.79372
-7.79373
-7.79373
-7.79373
-7.79374
-7.79375
-7.79375
-7.79376
-7.79377
-7.79378
-7.79379
-7.7938
-7.79381
-7.79382
-7.79383
-7.79384
-7.79386
-7.79387
-7.79388
-7.79389
-7.7939
-7.79391
-7.79391
-7.79392
-7.79392
-7.79392
-7.89202
-7.89202
-7.89202
-7.89202
-7.89202
-7.89203
-7.89203
-7.89204
-7.89204
-7.89205
-7.89206
-7.89207
-7.89208
-7.89209
-7.8921
-7.89211
-7.89212
-7.89213
-7.89214
-7.89215
-7.89216
-7.89217
-7.89217
-7.89218
-7.89219
-7.89219
-7.8922
-7.8922
-7.89221
-7.89221
-7.99032
-7.99032
-7.99032
-7.99032
-7.99033
-7.99033
-7.99034
-7.99035
-7.99036
-7.99036
-7.99037
-7.99038
-7.99039
-7.9904
-7.99041
-7.99042
-7.99043
-7.99044
-7.99045
-7.99046
-7.99046
-7.99047
-7.99048
-7.99048
-7.99049
-7.99049
-7.99049
-7.9905
-7.9905
-7.9905
-8.08863
-8.08863
-8.08863
-8.08863
-8.08864
-8.08865
-8.08865
-8.08866
-8.08867
-8.08868
-8.08869
-8.08871
-8.08872
-8.08873
-8.08874
-8.08875
-8.08875
-8.08876
-8.08877
-8.08877
-8.08878
-8.08878
-8.08879
-8.08879
-8.08879
-8.08879
-8.08879
-8.0888
-8.0888
-8.0888
-8.18695
-8.18694
-8.18695
-8.18695
-8.18696
-8.18697
-8.18698
-8.18699
-8.187
-8.18701
-8.18702
-8.18703
-8.18704
-8.18705
-8.18706
-8.18707
-8.18708
-8.18709
-8.18709
-8.18709
-8.1871
-8.1871
-8.1871
-8.1871
-8.1871
-8.1871
-8.1871
-8.1871
-8.18711
-8.18711
-8.28527
-8.28527
-8.28527
-8.28528
-8.28529
-8.28529
-8.2853
-8.28532
-8.28533
-8.28534
-8.28535
-8.28536
-8.28538
-8.28539
-8.2854
-8.2854
-8.28541
-8.28541
-8.28542
-8.28542
-8.28542
-8.28542
-8.28542
-8.28542
-8.28542
-8.28542
-8.28542
-8.28542
-8.28542
-8.28542
-8.3836
-8.3836
-8.38361
-8.38361
-8.38362
-8.38363
-8.38364
-8.38365
-8.38366
-8.38368
-8.38369
-8.3837
-8.38371
-8.38372
-8.38373
-8.38374
-8.38375
-8.38375
-8.38375
-8.38375
-8.38375
-8.38375
-8.38375
-8.38375
-8.38375
-8.38375
-8.38374
-8.38374
-8.38374
-8.38374
-8.48194
-8.48194
-8.48195
-8.48195
-8.48196
-8.48197
-8.48198
-8.48199
-8.48201
-8.48202
-8.48203
-8.48204
-8.48205
-8.48206
-8.48207
-8.48208
-8.48209
-8.48209
-8.48209
-8.48209
-8.48209
-8.48209
-8.48209
-8.48208
-8.48208
-8.48208
-8.48207
-8.48207
-8.48207
-8.48207
-8.58029
-8.58029
-8.58029
-8.5803
-8.58031
-8.58032
-8.58033
-8.58034
-8.58035
-8.58037
-8.58038
-8.58039
-8.5804
-8.58041
-8.58042
-8.58043
-8.58043
-8.58043
-8.58043
-8.58043
-8.58043
-8.58043
-8.58043
-8.58042
-8.58042
-8.58041
-8.58041
-8.58041
-8.58041
-8.58041
-8.67864
-8.67864
-8.67864
-8.67865
-8.67866
-8.67867
-8.67868
-8.67869
-8.6787
-8.67872
-8.67873
-8.67874
-8.67875
-8.67876
-8.67877
-8.67878
-8.67878
-8.67878
-8.67878
-8.67878
-8.67878
-8.67877
-8.67877
-8.67877
-8.67876
-8.67876
-8.67875
-8.67875
-8.67875
-8.67875
-8.777
-8.777
-8.777
-8.77701
-8.77702
-8.77703
-8.77704
-8.77705
-8.77706
-8.77707
-8.77709
-8.7771
-8.77711
-8.77712
-8.77712
-8.77713
-8.77713
-8.77713
-8.77713
-8.77713
-8.77713
-8.77713
-8.77712
-8.77712
-8.77711
-8.77711
-8.7771
-8.7771
-8.7771
-8.7771
-8.87536
-8.87536
-8.87537
-8.87537
-8.87538
-8.87539
-8.8754
-8.87541
-8.87542
-8.87544
-8.87545
-8.87546
-8.87547
-8.87548
-8.87548
-8.87549
-8.87549
-8.87549
-8.87549
-8.87549
-8.87548
-8.87548
-8.87548
-8.87547
-8.87547
-8.87546
-8.87546
-8.87545
-8.87545
-8.87545
-8.97373
-8.97373
-8.97373
-8.97374
-8.97375
-8.97376
-8.97377
-8.97378
-8.97379
-8.9738
-8.97381
-8.97382
-8.97383
-8.97384
-8.97384
-8.97385
-8.97385
-8.97385
-8.97385
-8.97385
-8.97384
-8.97384
-8.97383
-8.97383
-8.97382
-8.97382
-8.97382
-8.97381
-8.97381
-8.97381
-9.0721
-9.0721
-9.07211
-9.07211
-9.07212
-9.07213
-9.07214
-9.07215
-9.07216
-9.07217
-9.07218
-9.07219
-9.0722
-9.0722
-9.07221
-9.07221
-9.07221
-9.07221
-9.07221
-9.07221
-9.07221
-9.0722
-9.0722
-9.07219
-9.07219
-9.07218
-9.07218
-9.07218
-9.07218
-9.07218
-9.17048
-9.17048
-9.17048
-9.17049
-9.1705
-9.1705
-9.17051
-9.17052
-9.17053
-9.17054
-9.17055
-9.17056
-9.17057
-9.17057
-9.17058
-9.17058
-9.17058
-9.17058
-9.17058
-9.17058
-9.17057
-9.17057
-9.17056
-9.17056
-9.17056
-9.17055
-9.17055
-9.17055
-9.17054
-9.17054
-9.26886
-9.26886
-9.26887
-9.26887
-9.26888
-9.26888
-9.26889
-9.2689
-9.26891
-9.26892
-9.26892
-9.26893
-9.26894
-9.26894
-9.26894
-9.26895
-9.26895
-9.26895
-9.26895
-9.26895
-9.26894
-9.26894
-9.26893
-9.26893
-9.26893
-9.26892
-9.26892
-9.26892
-9.26892
-9.26892
-9.36725
-9.36725
-9.36725
-9.36725
-9.36726
-9.36726
-9.36727
-9.36728
-9.36728
-9.36729
-9.3673
-9.3673
-9.36731
-9.36731
-9.36732
-9.36732
-9.36732
-9.36732
-9.36732
-9.36732
-9.36731
-9.36731
-9.36731
-9.3673
-9.3673
-9.3673
-9.36729
-9.36729
-9.36729
-9.36729
-9.46563
-9.46563
-9.46564
-9.46564
-9.46564
-9.46565
-9.46565
-9.46566
-9.46566
-9.46567
-9.46567
-9.46568
-9.46568
-9.46569
-9.46569
-9.46569
-9.46569
-9.46569
-9.46569
-9.46569
-9.46569
-9.46568
-9.46568
-9.46568
-9.46568
-9.46567
-9.46567
-9.46567
-9.46567
-9.46567
-9.56402
-9.56402
-9.56402
-9.56403
-9.56403
-9.56403
-9.56404
-9.56404
-9.56404
-9.56405
-9.56405
-9.56406
-9.56406
-9.56406
-9.56406
-9.56406
-9.56406
-9.56406
-9.56406
-9.56406
-9.56406
-9.56406
-9.56406
-9.56405
-9.56405
-9.56405
-9.56405
-9.56405
-9.56405
-9.56405
-9.66241
-9.66241
-9.66241
-9.66242
-9.66242
-9.66242
-9.66242
-9.66242
-9.66243
-9.66243
-9.66243
-9.66243
-9.66243
-9.66244
-9.66244
-9.66244
-9.66244
-9.66244
-9.66244
-9.66244
-9.66244
-9.66243
-9.66243
-9.66243
-9.66243
-9.66243
-9.66243
-9.66243
-9.66243
-9.66243
-9.7608
-9.7608
-9.7608
-9.7608
-9.76081
-9.76081
-9.76081
-9.76081
-9.76081
-9.76081
-9.76081
-9.76081
-9.76081
-9.76081
-9.76081
-9.76081
-9.76081
-9.76081
-9.76081
-9.76081
-9.76081
-9.76081
-9.76081
-9.76081
-9.76081
-9.76081
-9.76081
-9.76081
-9.76081
-9.76081
4850.05
4850.05
4850.05
4850.04
4850.04
4850.04
4850.04
4850.04
4850.04
4850.03
4850.03
4850.03
4850.03
4850.03
4850.03
4850.03
4850.03
4850.03
4850.04
4850.04
4850.04
4850.04
4850.04
4850.04
4850.04
4850.04
4850.04
4850.05
4850.05
4850.05
4751.94
4751.94
4751.94
4751.94
4751.94
4751.94
4751.94
4751.94
4751.94
4751.94
4751.94
4751.93
4751.93
4751.93
4751.93
4751.93
4751.93
4751.93
4751.93
4751.93
4751.94
4751.94
4751.94
4751.94
4751.94
4751.94
4751.94
4751.94
4751.94
4751.94
4653.83
4653.83
4653.83
4653.84
4653.84
4653.84
4653.84
4653.84
4653.84
4653.84
4653.84
4653.84
4653.84
4653.84
4653.84
4653.83
4653.83
4653.83
4653.83
4653.84
4653.84
4653.84
4653.84
4653.84
4653.84
4653.84
4653.84
4653.84
4653.84
4653.84
4555.73
4555.73
4555.73
4555.73
4555.73
4555.74
4555.74
4555.74
4555.74
4555.74
4555.74
4555.74
4555.74
4555.74
4555.74
4555.74
4555.74
4555.74
4555.74
4555.74
4555.74
4555.74
4555.74
4555.74
4555.74
4555.74
4555.74
4555.74
4555.74
4555.74
4457.63
4457.63
4457.63
4457.63
4457.63
4457.64
4457.64
4457.64
4457.64
4457.64
4457.64
4457.64
4457.64
4457.64
4457.64
4457.64
4457.64
4457.64
4457.64
4457.64
4457.64
4457.64
4457.64
4457.64
4457.64
4457.64
4457.64
4457.64
4457.64
4457.64
4359.53
4359.53
4359.53
4359.54
4359.54
4359.54
4359.54
4359.54
4359.54
4359.54
4359.54
4359.54
4359.54
4359.54
4359.54
4359.54
4359.54
4359.54
4359.54
4359.54
4359.54
4359.54
4359.54
4359.54
4359.54
4359.54
4359.54
4359.54
4359.54
4359.54
4261.44
4261.44
4261.44
4261.44
4261.44
4261.44
4261.44
4261.44
4261.44
4261.44
4261.44
4261.44
4261.44
4261.44
4261.44
4261.44
4261.44
4261.44
4261.44
4261.44
4261.44
4261.44
4261.44
4261.44
4261.44
4261.44
4261.44
4261.44
4261.44
4261.44
4163.34
4163.34
4163.34
4163.34
4163.34
4163.34
4163.34
4163.34
4163.34
4163.34
4163.34
4163.34
4163.34
4163.34
4163.34
4163.34
4163.34
4163.34
4163.34
4163.34
4163.34
4163.34
4163.34
4163.34
4163.34
4163.34
4163.34
4163.34
4163.34
4163.34
4065.25
4065.25
4065.25
4065.25
4065.25
4065.24
4065.24
4065.24
4065.24
4065.24
4065.24
4065.24
4065.24
4065.24
4065.24
4065.25
4065.25
4065.25
4065.25
4065.25
4065.24
4065.24
4065.24
4065.24
4065.24
4065.24
4065.24
4065.24
4065.24
4065.24
3967.15
3967.15
3967.15
3967.15
3967.15
3967.15
3967.15
3967.14
3967.14
3967.14
3967.14
3967.14
3967.14
3967.14
3967.15
3967.15
3967.15
3967.15
3967.15
3967.15
3967.15
3967.15
3967.14
3967.14
3967.14
3967.14
3967.14
3967.14
3967.14
3967.14
3869.05
3869.05
3869.05
3869.05
3869.05
3869.05
3869.05
3869.05
3869.05
3869.05
3869.05
3869.05
3869.05
3869.05
3869.05
3869.05
3869.05
3869.05
3869.05
3869.05
3869.05
3869.05
3869.05
3869.05
3869.05
3869.05
3869.05
3869.05
3869.05
3869.05
3770.95
3770.95
3770.95
3770.95
3770.95
3770.95
3770.95
3770.95
3770.95
3770.95
3770.95
3770.95
3770.95
3770.95
3770.95
3770.95
3770.95
3770.95
3770.95
3770.95
3770.95
3770.95
3770.95
3770.95
3770.95
3770.95
3770.95
3770.95
3770.95
3770.95
3672.85
3672.85
3672.85
3672.85
3672.85
3672.85
3672.85
3672.85
3672.85
3672.85
3672.85
3672.85
3672.85
3672.85
3672.85
3672.85
3672.85
3672.85
3672.85
3672.85
3672.85
3672.85
3672.85
3672.85
3672.85
3672.85
3672.85
3672.85
3672.85
3672.85
3574.75
3574.74
3574.75
3574.75
3574.75
3574.75
3574.75
3574.75
3574.75
3574.75
3574.75
3574.75
3574.76
3574.76
3574.75
3574.75
3574.75
3574.75
3574.75
3574.76
3574.76
3574.76
3574.76
3574.76
3574.76
3574.76
3574.76
3574.76
3574.76
3574.76
3476.65
3476.65
3476.65
3476.65
3476.65
3476.65
3476.66
3476.66
3476.66
3476.66
3476.66
3476.66
3476.66
3476.66
3476.66
3476.66
3476.66
3476.66
3476.66
3476.66
3476.66
3476.66
3476.66
3476.66
3476.66
3476.66
3476.66
3476.66
3476.66
3476.66
3378.55
3378.55
3378.55
3378.56
3378.56
3378.56
3378.56
3378.56
3378.56
3378.56
3378.56
3378.56
3378.56
3378.56
3378.56
3378.56
3378.56
3378.56
3378.56
3378.56
3378.56
3378.56
3378.56
3378.56
3378.56
3378.56
3378.56
3378.56