/*--------------------------------*- C++ -*----------------------------------*\
| =========                 |                                                 |
| \\      /  F ield         | OpenFOAM: The Open Source CFD Toolbox           |
|  \\    /   O peration     | Version:  2312                                  |
|   \\  /    A nd           | Website:  www.openfoam.com                      |
|    \\/     M anipulation  |                                                 |
\*---------------------------------------------------------------------------*/
FoamFile
{
    version     2.0;
    format      ascii;
    arch        "LSB;label=32;scalar=64";
    class       volScalarField;
    location    "1.26092662";
    object      p_rgh;
}
// * * * * * * * * * * * * * * * * * * * * * * * * * * * * * * * * * * * * * //

dimensions      [1 -1 -2 0 0 0 0];

internalField   nonuniform List<scalar> 
90000
(
4899.1
4899.1
4899.1
4899.1
4899.09
4899.09
4899.09
4899.09
4899.09
4899.09
4899.08
4899.08
4899.08
4899.08
4899.08
4899.08
4899.08
4899.09
4899.09
4899.09
4899.09
4899.09
4899.09
4899.09
4899.09
4899.09
4899.09
4899.1
4899.1
4899.09
4899.1
4899.1
4899.1
4899.1
4899.1
4899.09
4899.09
4899.09
4899.09
4899.08
4899.08
4899.08
4899.08
4899.08
4899.08
4899.08
4899.08
4899.09
4899.09
4899.09
4899.09
4899.09
4899.09
4899.09
4899.09
4899.09
4899.1
4899.1
4899.09
4899.07
4899.1
4899.1
4899.1
4899.1
4899.09
4899.09
4899.09
4899.09
4899.09
4899.09
4899.08
4899.08
4899.08
4899.08
4899.08
4899.08
4899.08
4899.08
4899.08
4899.08
4899.08
4899.09
4899.09
4899.09
4899.09
4899.09
4899.1
4899.11
4899.13
4899.09
4899.09
4899.09
4899.09
4899.09
4899.09
4899.09
4899.09
4899.09
4899.09
4899.09
4899.09
4899.08
4899.08
4899.08
4899.08
4899.08
4899.08
4899.08
4899.08
4899.08
4899.08
4899.08
4899.09
4899.09
4899.09
4899.09
4899.09
4899.09
4899.11
4899.1
4899.09
4899.08
4899.08
4899.08
4899.08
4899.09
4899.09
4899.09
4899.09
4899.09
4899.09
4899.09
4899.09
4899.08
4899.08
4899.08
4899.08
4899.08
4899.08
4899.08
4899.08
4899.08
4899.09
4899.09
4899.09
4899.09
4899.1
4899.09
4899.1
4899.09
4899.08
4899.07
4899.07
4899.07
4899.08
4899.08
4899.09
4899.09
4899.1
4899.1
4899.1
4899.1
4899.1
4899.09
4899.09
4899.09
4899.08
4899.08
4899.08
4899.08
4899.09
4899.09
4899.09
4899.09
4899.09
4899.09
4899.1
4899.09
4899.09
4899.08
4899.07
4899.05
4899.06
4899.06
4899.07
4899.08
4899.09
4899.09
4899.1
4899.1
4899.11
4899.11
4899.11
4899.11
4899.1
4899.1
4899.09
4899.09
4899.09
4899.09
4899.09
4899.1
4899.1
4899.1
4899.1
4899.1
4899.09
4899.09
4899.08
4899.08
4899.07
4899.05
4899.06
4899.06
4899.07
4899.08
4899.08
4899.09
4899.1
4899.1
4899.1
4899.11
4899.11
4899.11
4899.11
4899.1
4899.1
4899.09
4899.09
4899.09
4899.09
4899.1
4899.1
4899.1
4899.1
4899.09
4899.09
4899.08
4899.08
4899.09
4899.07
4899.06
4899.07
4899.07
4899.07
4899.08
4899.08
4899.08
4899.09
4899.09
4899.09
4899.1
4899.1
4899.1
4899.1
4899.1
4899.1
4899.09
4899.09
4899.09
4899.09
4899.09
4899.09
4899.09
4899.09
4899.08
4899.07
4899.07
4899.08
4899.09
4899.08
4899.08
4899.09
4899.09
4899.09
4899.09
4899.08
4899.08
4899.08
4899.08
4899.08
4899.09
4899.09
4899.09
4899.1
4899.09
4899.09
4899.09
4899.09
4899.09
4899.09
4899.08
4899.08
4899.07
4899.06
4899.06
4899.06
4899.07
4899.07
4899.08
4899.09
4899.12
4899.12
4899.12
4899.11
4899.1
4899.09
4899.09
4899.08
4899.08
4899.08
4899.08
4899.08
4899.09
4899.09
4899.09
4899.09
4899.09
4899.09
4899.09
4899.09
4899.08
4899.07
4899.06
4899.05
4899.05
4899.06
4899.07
4899.07
4899.07
4899.12
4899.15
4899.15
4899.14
4899.13
4899.11
4899.1
4899.09
4899.08
4899.07
4899.07
4899.07
4899.07
4899.08
4899.08
4899.09
4899.09
4899.1
4899.1
4899.1
4899.09
4899.08
4899.07
4899.06
4899.06
4899.07
4899.07
4899.07
4899.07
4899.07
4899.14
4899.16
4899.15
4899.13
4899.12
4899.1
4899.09
4899.08
4899.07
4899.07
4899.07
4899.07
4899.07
4899.07
4899.07
4899.08
4899.09
4899.1
4899.1
4899.1
4899.09
4899.08
4899.08
4899.07
4899.08
4899.08
4899.08
4899.08
4899.07
4899.08
4899.14
4899.12
4899.11
4899.09
4899.08
4899.07
4899.07
4899.07
4899.07
4899.07
4899.07
4899.06
4899.06
4899.07
4899.07
4899.08
4899.09
4899.1
4899.1
4899.1
4899.09
4899.09
4899.08
4899.08
4899.08
4899.08
4899.07
4899.06
4899.05
4899.05
4899.11
4899.05
4899.05
4899.04
4899.04
4899.05
4899.06
4899.07
4899.08
4899.08
4899.08
4899.08
4899.08
4899.08
4899.09
4899.09
4899.1
4899.11
4899.1
4899.1
4899.1
4899.09
4899.09
4899.09
4899.08
4899.07
4899.05
4899.04
4899.03
4899.03
4899.06
4899
4899.01
4899.02
4899.03
4899.05
4899.07
4899.09
4899.1
4899.1
4899.1
4899.09
4899.09
4899.1
4899.1
4899.11
4899.11
4899.11
4899.1
4899.1
4899.11
4899.11
4899.11
4899.11
4899.1
4899.08
4899.07
4899.07
4899.06
4899.09
4899.04
4898.99
4899.01
4899.03
4899.06
4899.08
4899.09
4899.1
4899.11
4899.1
4899.1
4899.1
4899.1
4899.1
4899.11
4899.11
4899.1
4899.1
4899.1
4899.1
4899.11
4899.13
4899.14
4899.14
4899.13
4899.13
4899.13
4899.14
4899.15
4899.18
4899.04
4899.02
4899.05
4899.06
4899.08
4899.09
4899.09
4899.09
4899.09
4899.08
4899.08
4899.09
4899.1
4899.11
4899.11
4899.11
4899.1
4899.09
4899.09
4899.1
4899.12
4899.13
4899.14
4899.13
4899.13
4899.14
4899.15
4899.17
4899.19
4899.18
4899.07
4899.06
4899.07
4899.08
4899.08
4899.08
4899.07
4899.07
4899.07
4899.08
4899.1
4899.11
4899.13
4899.13
4899.12
4899.11
4899.09
4899.08
4899.09
4899.1
4899.11
4899.11
4899.1
4899.09
4899.08
4899.1
4899.11
4899.12
4899.11
4899.05
4899.09
4899.07
4899.08
4899.08
4899.08
4899.08
4899.08
4899.09
4899.1
4899.12
4899.14
4899.16
4899.16
4899.15
4899.12
4899.1
4899.08
4899.08
4899.09
4899.09
4899.09
4899.07
4899.05
4899.04
4899.05
4899.07
4899.07
4899.05
4899.01
4898.99
4899.09
4899.09
4899.09
4899.1
4899.11
4899.12
4899.13
4899.14
4899.15
4899.17
4899.17
4899.17
4899.14
4899.11
4899.08
4899.06
4899.07
4899.08
4899.09
4899.09
4899.07
4899.05
4899.05
4899.06
4899.09
4899.1
4899.09
4899.06
4899.03
4899.08
4899.1
4899.13
4899.14
4899.15
4899.16
4899.17
4899.17
4899.18
4899.18
4899.17
4899.15
4899.11
4899.08
4899.05
4899.04
4899.06
4899.09
4899.11
4899.11
4899.1
4899.08
4899.07
4899.09
4899.12
4899.15
4899.14
4899.12
4899.1
4899.12
4899.16
4899.13
4899.17
4899.18
4899.19
4899.19
4899.18
4899.17
4899.16
4899.15
4899.13
4899.1
4899.07
4899.05
4899.05
4899.07
4899.11
4899.14
4899.15
4899.14
4899.11
4899.1
4899.11
4899.15
4899.17
4899.16
4899.13
4899.11
4899.11
4899.13
4899.11
4899.16
4899.18
4899.18
4899.17
4899.16
4899.15
4899.15
4899.15
4899.14
4899.12
4899.1
4899.07
4899.07
4899.09
4899.12
4899.15
4899.15
4899.13
4899.1
4899.1
4899.12
4899.17
4899.2
4899.19
4899.15
4899.11
4899.11
4899.12
4899.1
4899.1
4899.15
4899.15
4899.14
4899.13
4899.13
4899.13
4899.14
4899.15
4899.14
4899.12
4899.1
4899.08
4899.08
4899.1
4899.11
4899.11
4899.08
4899.05
4899.05
4899.08
4899.15
4899.19
4899.2
4899.17
4899.13
4899.13
4899.13
4899.13
4899.13
4899.17
4899.13
4899.1
4899.1
4899.1
4899.1
4899.12
4899.13
4899.14
4899.13
4899.1
4899.08
4899.08
4899.09
4899.1
4899.09
4899.07
4899.04
4899.03
4899.07
4899.13
4899.18
4899.19
4899.15
4899.12
4899.12
4899.13
4899.13
4899.14
4899.18
4899.14
4899.1
4899.07
4899.07
4899.07
4899.08
4899.1
4899.11
4899.11
4899.1
4899.09
4899.09
4899.12
4899.14
4899.15
4899.14
4899.12
4899.11
4899.13
4899.18
4899.2
4899.19
4899.14
4899.1
4899.09
4899.12
4899.13
4899.12
4899.14
4899.14
4899.05
4899.09
4899.05
4899.06
4899.06
4899.07
4899.08
4899.09
4899.09
4899.09
4899.11
4899.14
4899.17
4899.19
4899.19
4899.17
4899.15
4899.16
4899.19
4899.2
4899.17
4899.12
4899.08
4899.09
4899.11
4899.14
4899.15
4899.15
4899.13
4899.07
4899.11
4899.08
4899.05
4899.06
4899.07
4899.08
4899.08
4899.07
4899.07
4899.08
4899.1
4899.13
4899.16
4899.16
4899.13
4899.11
4899.11
4899.13
4899.14
4899.11
4899.07
4899.04
4899.05
4899.1
4899.13
4899.13
4899.14
4899.15
4899.1
4899.11
4899.2
4899.09
4899.08
4899.09
4899.08
4899.07
4899.05
4899.04
4899.04
4899.05
4899.08
4899.11
4899.12
4899.1
4899.09
4899.08
4899.1
4899.11
4899.09
4899.05
4899.03
4899.04
4899.05
4899.08
4899.09
4899.09
4899.11
4899.12
4899.1
4899.21
4899.16
4899.11
4899.1
4899.09
4899.07
4899.06
4899.05
4899.05
4899.06
4899.09
4899.12
4899.13
4899.12
4899.11
4899.1
4899.11
4899.12
4899.11
4899.09
4899.07
4899.08
4899.1
4899.06
4899.04
4899.06
4899.07
4899.06
4899.1
4899.16
4899.18
4899.12
4899.13
4899.1
4899.09
4899.1
4899.1
4899.11
4899.11
4899.12
4899.12
4899.11
4899.09
4899.07
4899.06
4899.07
4899.08
4899.09
4899.09
4899.1
4899.1
4899.1
4899.1
4899.04
4899.01
4899.07
4899.06
4899.03
4899.12
4899.16
4899.08
4899.12
4899.13
4899.13
4899.14
4899.16
4899.16
4899.14
4899.11
4899.07
4899.03
4899
4898.99
4898.99
4899.02
4899.05
4899.07
4899.07
4899.07
4899.1
4899.09
4899.03
4899.01
4899
4899.01
4899.05
4899.04
4899.03
4899.13
4899.11
4899.09
4899.1
4899.16
4899.18
4899.19
4899.18
4899.15
4899.09
4899.03
4898.99
4898.97
4898.97
4899.01
4899.05
4899.09
4899.1
4899.09
4899.08
4899.04
4899.04
4899.01
4898.93
4898.95
4899.04
4899.04
4899.01
4899.05
4899.11
4899.15
4899.13
4899.11
4899.12
4899.19
4899.21
4899.19
4899.16
4899.12
4899.07
4899.04
4899.02
4899.04
4899.07
4899.11
4899.14
4899.13
4899.09
4899.05
4899.07
4899.03
4899.01
4899.01
4899
4899.07
4899.17
4899.11
4899.05
4899.18
4899.23
4899.17
4899.14
4899.11
4899.19
4899.21
4899.22
4899.21
4899.18
4899.15
4899.11
4899.09
4899.08
4899.1
4899.11
4899.11
4899.1
4899.07
4899.05
4899.02
4899.11
4899.1
4899.06
4899.1
4899.16
4899.19
4899.23
4899.15
4899.16
4899.31
4899.25
4899.15
4899.14
4899.23
4899.26
4899.23
4899.26
4899.24
4899.19
4899.14
4899.11
4899.1
4899.11
4899.11
4899.09
4899.06
4899.03
4899.01
4899.09
4899.07
4899.14
4899.12
4899.07
4899.12
4899.21
4899.16
4899.18
4899.17
4899.25
4899.3
4899.17
4899.16
4899.25
4899.34
4899.28
4899.28
4899.26
4899.2
4899.17
4899.16
4899.18
4899.19
4899.17
4899.14
4899.09
4899.06
4899.06
4899.01
4899.14
4899.11
4899.1
4899.09
4899.1
4899.14
4899.21
4899.1
4899.15
4899.22
4899.21
4899.16
4899.14
4899.24
4899.33
4899.27
4899.29
4899.27
4899.22
4899.22
4899.25
4899.28
4899.29
4899.26
4899.22
4899.18
4899.13
4899.1
4899.14
4899.02
4899.1
4899.11
4899.04
4899.03
4899.11
4899.11
4899.12
4899.03
4899.15
4899.21
4899.12
4899.12
4899.23
4899.29
4899.24
4899.28
4899.4
4899.27
4899.27
4899.31
4899.33
4899.33
4899.3
4899.27
4899.23
4899.21
4899.14
4899.04
4899.12
4899.06
4899.02
4899.09
4899.01
4898.96
4899.04
4899.09
4899.07
4899.07
4899.18
4899.2
4899.15
4899.2
4899.31
4899.24
4899.26
4899.48
4899.48
4899.33
4899.34
4899.34
4899.34
4899.34
4899.31
4899.25
4899.19
4899.16
4899.17
4899.06
4899.04
4899.14
4898.96
4899.02
4899.06
4899.07
4899.05
4899.18
4899.13
4899.17
4899.23
4899.24
4899.29
4899.25
4899.31
4899.35
4899.44
4899.46
4899.35
4899.36
4899.36
4899.4
4899.41
4899.35
4899.29
4899.29
4899.27
4899.23
4899.24
4899.25
4899.07
4899.23
4899.13
4899.06
4899.03
4899.17
4899.08
4899.21
4899.18
4899.24
4899.3
4899.32
4899.38
4899.3
4899.29
4899.5
4899.47
4899.26
4899.21
4899.4
4899.48
4899.48
4899.4
4899.38
4899.38
4899.45
4899.41
4899.41
4899.36
4899.29
4899.19
4899.21
4899.14
4899.13
4899.02
4899.2
4899.18
4899.2
4899.24
4899.37
4899.42
4899.31
4899.26
4899.49
4899.45
4899.37
4899.39
4899.48
4899.32
4899.48
4899.49
4899.39
4899.47
4899.57
4899.44
4899.48
4899.49
4899.42
4899.35
4899.22
4899.36
4899.34
4898.99
4899.14
4899.21
4899.17
4899.22
4899.33
4899.35
4899.38
4899.43
4899.5
4899.35
4899.55
4899.59
4899.34
4899.43
4899.54
4899.25
4899.44
4899.4
4899.51
4899.52
4899.51
4899.58
4899.69
4899.55
4899.51
4899.82
4899.52
4899.19
4899.47
4899.32
4899.19
4899.33
4899.26
4899.39
4899.47
4899.43
4899.55
4899.58
4899.61
4899.68
4899.45
4899.5
4899.61
4899.61
4899.28
4898.83
4899.32
4899.46
4899.54
4899.38
4899.62
4899.75
4899.76
4899.92
4899.68
4899.58
4899.82
4899.59
4899.46
4899.49
4899.14
4899.43
4899.6
4899.41
4899.47
4899.69
4899.67
4899.77
4899.69
4899.79
4899.71
4899.6
4899.57
4899.46
4899.47
4898.76
4899.23
4899.31
4899.38
4899.38
4899.69
4899.84
4899.92
4900.1
4900
4899.95
4899.84
4899.8
4899.67
4899.46
4899.63
4899.7
4899.46
4899.67
4899.95
4899.96
4899.94
4900.03
4900.03
4899.97
4899.86
4899.55
4899.54
4899.35
4899.26
4898.79
4898.95
4899.01
4899.21
4899.28
4899.56
4899.97
4900.18
4900.31
4900.24
4900.41
4900.32
4900.16
4900.06
4899.88
4899.89
4899.89
4900
4900.03
4900.13
4900.35
4900.48
4900.35
4900.29
4900.2
4900
4899.58
4899.43
4899.16
4898.95
4898.51
4897.99
4897.74
4898.65
4898.7
4899.32
4899.96
4900.5
4900.62
4900.6
4900.82
4900.86
4900.88
4900.4
4900.22
4900.58
4900.51
4900.2
4900.5
4900.88
4900.87
4900.84
4900.66
4900.59
4900.49
4900.03
4899.39
4898.83
4898.55
4897.62
4897.57
4062.87
3938.68
4064.47
4014.25
4122.98
4133.8
4202.04
4186.3
4184.3
4217.59
4205.18
4229.97
4160.42
4128.6
4230.75
4223.75
4134.62
4158.97
4226.04
4207.59
4222.83
4183.86
4184.31
4200.52
4137.75
4133.64
4009.93
4053.33
3935.52
4064.04
807.142
837.413
861.654
831.11
803.54
800.306
840.976
799.074
764.027
787.495
807.872
843.642
798.946
738.461
821.147
817.235
739.184
798.321
840.129
808.206
791.985
765.628
793.245
836.748
806.228
817.552
832.384
848.243
840.165
807.039
0.575431
0.482376
0.349818
0.248635
0.285289
0.188568
0.129762
0.121211
0.193972
0.416735
0.153137
0.449056
0.163321
0.137498
0.611486
0.479179
0.156535
0.213393
0.304914
0.148544
0.411036
0.208235
0.155346
0.203826
0.232229
0.339114
0.346298
0.539801
0.607563
0.487348
0.888441
0.580014
0.309888
0.304414
0.291757
0.243493
0.120612
0.0357657
0.139802
0.151458
0.129765
0.0366703
0.095695
0.0164301
0.00903514
0.0098307
0.0535836
0.115297
0.0530687
0.15323
0.155922
0.157616
0.0540068
0.196161
0.255295
0.542765
0.452212
0.585933
0.736675
1.07968
0.0134377
0.399545
0.303077
0.0480818
0.0641953
0.209988
0.208883
0.0183032
0.0956593
0.160582
0.159755
0.015795
0.0988391
0.0200954
0.00988928
0.0102889
0.0569265
0.152668
0.0444298
0.166602
0.148939
0.120482
0.0319648
0.244153
0.238152
0.0979196
0.00755814
0.405214
0.482605
0.00895058
0.00768055
0.00709927
0.0137365
0.00676753
0.00527167
0.00459351
0.00951425
0.0135321
0.0156007
0.026957
0.0236609
0.0195756
0.0390452
0.0537918
0.0213742
0.0216026
0.0629015
0.047042
0.0334691
0.0219532
0.0155056
0.0134467
0.0111355
0.0109454
0.00475727
0.0053925
0.0071893
0.00735355
0.00707137
0.007848
0.00701427
0.00709862
0.0075374
0.00654897
0.00503365
0.00465928
0.00468403
0.00655665
0.0101213
0.00685772
0.0052836
0.0193745
0.0358777
0.0438978
0.0328348
0.032134
0.0364353
0.0321243
0.0252339
0.00739386
0.00714884
0.00986548
0.00665242
0.00494611
0.00486543
0.00526957
0.00701606
0.00868822
0.00689983
0.00719077
0.00597339
0.00588719
0.00615824
0.00675247
0.0056914
0.00489935
0.00487745
0.00490017
0.00490643
0.00491307
0.00551811
0.00893483
0.00941753
0.0134714
0.0332804
0.0333013
0.0118283
0.00577981
0.00697037
0.00551488
0.00533662
0.00517941
0.00513422
0.00512021
0.00509221
0.00610064
0.00723481
0.00634512
0.00605489
0.00611103
0.00592016
0.00585579
0.00569882
0.00568329
0.0054011
0.00511517
0.0050616
0.00508
0.00512854
0.00518055
0.00524983
0.00526039
0.00521495
0.00523923
0.0114832
0.0149919
0.00546037
0.00529415
0.0053579
0.00540098
0.005398
0.00534374
0.00527648
0.00525854
0.00528706
0.00557225
0.0058371
0.00585242
0.00601782
0.00608402
0.00598724
0.00594375
0.00581805
0.00567609
0.00546863
0.00533983
0.00526845
0.00525666
0.00528792
0.00533409
0.00539573
0.0054452
0.00545085
0.00540657
0.00538675
0.00539954
0.00546015
0.00553032
0.00554221
0.00553248
0.00550252
0.00544439
0.00539734
0.00540491
0.00546629
0.0055761
0.00578388
0.00594181
0.00608853
0.00614971
0.00611763
0.00608512
0.00597804
0.00584894
0.00568931
0.00555391
0.00546005
0.00541827
0.00541804
0.00543566
0.00547156
0.00551562
0.00554741
0.00557184
0.00556345
0.00557157
0.00560555
0.00560267
0.00558636
0.00556052
0.00553651
0.00551463
0.00551084
0.00555159
0.00564459
0.0057792
0.00594487
0.00608648
0.00620738
0.00625793
0.00627943
0.00625209
0.00616013
0.00604065
0.00590255
0.00577094
0.00566317
0.00559125
0.00555441
0.0055413
0.00554658
0.00556729
0.00559021
0.00560883
0.00561429
0.00561837
0.00562779
0.00562677
0.00561841
0.00560757
0.00560954
0.00562787
0.00566968
0.00574262
0.00585049
0.00598345
0.00612352
0.00624384
0.00633543
0.00637298
0.00644091
0.00642062
0.00634637
0.00624529
0.00612858
0.00601094
0.00590444
0.00581925
0.00575971
0.00572211
0.00570166
0.00569602
0.00570073
0.00571018
0.00571282
0.00571501
0.0057207
0.00572301
0.00572885
0.00574204
0.00576922
0.00581387
0.005878
0.005962
0.00606449
0.0061777
0.00628815
0.00637979
0.00644375
0.00646715
0.00657744
0.00656402
0.00651062
0.00643603
0.0063484
0.00625637
0.00616765
0.00608962
0.00602772
0.0059828
0.0059525
0.00593451
0.00592611
0.00592328
0.00592175
0.00592123
0.00592333
0.00592861
0.00593956
0.00595903
0.00599031
0.00603587
0.0060958
0.00616797
0.00624887
0.00633248
0.00641017
0.0064724
0.00651283
0.00652458
0.00667083
0.00666281
0.00662968
0.00658317
0.00652751
0.00646718
0.00640672
0.00635079
0.0063037
0.00626759
0.00624189
0.00622484
0.00621425
0.00620739
0.00620177
0.0061964
0.00619185
0.00618942
0.00619139
0.00619997
0.0062173
0.00624495
0.00628288
0.00632908
0.0063803
0.00643208
0.00647913
0.00651589
0.00653865
0.00654314
0.00671684
0.00671316
0.00669626
0.00667328
0.00664561
0.00661533
0.00658459
0.00655585
0.00653165
0.00651345
0.00650103
0.00649299
0.00648721
0.0064813
0.00647337
0.00646253
0.00644905
0.00643422
0.00642038
0.00641007
0.00640538
0.00640784
0.00641799
0.00643489
0.00645642
0.00647974
0.00650162
0.00651893
0.00652947
0.00653005
0.00672419
0.00672384
0.0067181
0.00671163
0.00670457
0.00669756
0.00669129
0.00668677
0.00668483
0.00668569
0.00668862
0.00669201
0.00669361
0.00669106
0.00668257
0.00666738
0.00664574
0.00661905
0.00658985
0.00656102
0.00653506
0.00651406
0.00649928
0.00649082
0.00648777
0.00648866
0.00649169
0.00649507
0.00649743
0.00649605
0.00670522
0.00670698
0.00670815
0.00671187
0.00671792
0.00672624
0.00673686
0.00674978
0.00676461
0.00678053
0.00679612
0.00680934
0.00681775
0.00681891
0.00681102
0.00679333
0.0067662
0.00673117
0.00669088
0.00664841
0.00660671
0.00656835
0.00653522
0.00650821
0.0064874
0.00647228
0.00646208
0.00645581
0.00645262
0.00645016
0.0066686
0.00667163
0.00667669
0.00668607
0.00669943
0.00671652
0.00673703
0.00676033
0.00678538
0.00681071
0.00683435
0.00685393
0.00686689
0.0068708
0.00686386
0.00684537
0.00681574
0.00677655
0.00673031
0.00668013
0.00662919
0.00658034
0.00653582
0.00649708
0.00646487
0.00643938
0.00642048
0.00640774
0.00640069
0.00639733
0.00661837
0.00662221
0.0066293
0.00664145
0.00665826
0.00667954
0.00670466
0.00673274
0.00676248
0.00679206
0.00681926
0.0068416
0.00685652
0.00686175
0.00685561
0.00683743
0.00680757
0.00676753
0.00671961
0.00666676
0.00661212
0.00655856
0.00650847
0.00646361
0.00642514
0.00639372
0.00636961
0.00635277
0.00634303
0.00633882
0.00655561
0.00655988
0.00656792
0.00658102
0.00659896
0.00662138
0.00664758
0.00667662
0.0067071
0.00673706
0.00676437
0.00678665
0.00680147
0.00680674
0.00680099
0.00678358
0.00675481
0.006716
0.00666928
0.0066173
0.00656291
0.00650886
0.0064575
0.00641071
0.00636983
0.00633579
0.00630912
0.00629002
0.00627857
0.00627364
0.00647989
0.0064843
0.00649256
0.00650558
0.00652315
0.00654481
0.00656991
0.00659747
0.00662607
0.00665391
0.00667904
0.00669928
0.00671249
0.00671682
0.00671101
0.00669447
0.00666748
0.00663117
0.00658742
0.0065385
0.00648692
0.00643517
0.00638547
0.00633964
0.0062991
0.00626485
0.00623758
0.00621768
0.00620537
0.00619992
0.0063906
0.00639505
0.00640301
0.00641525
0.00643144
0.0064512
0.00647385
0.00649844
0.00652364
0.00654791
0.00656949
0.00658652
0.00659717
0.00659992
0.00659369
0.006578
0.00655309
0.00651992
0.00648006
0.00643541
0.00638815
0.00634043
0.00629425
0.00625127
0.00621287
0.00618008
0.00615363
0.00613401
0.00612157
0.00611587
0.00628766
0.00629201
0.00629931
0.00631022
0.00632445
0.0063416
0.00636102
0.0063818
0.00640282
0.00642275
0.00644011
0.00645335
0.006461
0.00646184
0.006455
0.00644011
0.00641736
0.00638754
0.00635192
0.00631212
0.00626994
0.00622719
0.00618557
0.00614656
0.00611142
0.00608113
0.00605645
0.0060379
0.00602589
0.00602022
0.00617126
0.00617539
0.00618176
0.00619104
0.00620297
0.00621713
0.00623292
0.00624955
0.00626608
0.00628143
0.00629437
0.0063037
0.00630829
0.00630716
0.00629965
0.00628548
0.00626484
0.00623834
0.00620701
0.00617217
0.00613528
0.00609782
0.0060612
0.00602669
0.0059954
0.00596823
0.0059459
0.00592894
0.00591781
0.00591241
0.00604188
0.00604568
0.00605097
0.0060585
0.00606799
0.00607902
0.00609109
0.00610356
0.00611564
0.00612647
0.00613513
0.00614071
0.00614237
0.00613937
0.00613121
0.00611771
0.00609904
0.00607569
0.00604846
0.00601841
0.00598668
0.00595446
0.00592291
0.00589306
0.00586585
0.00584209
0.00582243
0.00580739
0.0057974
0.00579241
0.00590024
0.00590363
0.00590781
0.00591355
0.00592057
0.00592852
0.00593698
0.00594543
0.00595326
0.00595985
0.00596454
0.00596668
0.00596566
0.00596097
0.00595226
0.00593941
0.00592256
0.0059021
0.00587868
0.00585309
0.00582623
0.00579901
0.00577233
0.00574704
0.00572392
0.00570363
0.00568677
0.00567378
0.00566505
0.00566057
0.00574711
0.0057501
0.00575317
0.00575712
0.00576174
0.00576676
0.00577182
0.00577652
0.00578045
0.00578321
0.00578435
0.00578345
0.00578009
0.00577395
0.0057648
0.00575256
0.00573737
0.00571954
0.00569957
0.00567804
0.00565562
0.00563302
0.00561089
0.0055899
0.00557069
0.00555379
0.00553968
0.00552875
0.00552131
0.00551736
0.00558324
0.00558587
0.00558785
0.00559009
0.00559246
0.00559474
0.00559668
0.00559802
0.00559851
0.00559791
0.00559597
0.00559243
0.00558707
0.00557971
0.00557022
0.00555858
0.00554489
0.00552944
0.00551254
0.00549463
0.00547618
0.00545771
0.00543973
0.00542273
0.00540715
0.00539343
0.00538193
0.00537296
0.00536676
0.00536335
0.00540931
0.00541159
0.00541254
0.00541319
0.00541349
0.00541329
0.00541245
0.00541085
0.00540836
0.00540489
0.00540031
0.00539456
0.00538755
0.00537921
0.0053695
0.00535842
0.00534609
0.00533272
0.00531853
0.00530382
0.00528889
0.00527411
0.00525984
0.0052464
0.00523413
0.00522332
0.00521423
0.00520708
0.00520205
0.00519912
0.00522585
0.0052278
0.00522782
0.00522703
0.00522547
0.00522309
0.00521983
0.00521569
0.00521067
0.00520479
0.00519806
0.00519051
0.00518217
0.00517306
0.00516319
0.00515268
0.00514159
0.00513004
0.00511821
0.00510626
0.00509442
0.00508289
0.0050719
0.00506164
0.00505233
0.00504413
0.00503722
0.00503172
0.00502774
0.00502527
0.00503328
0.00503491
0.00503411
0.00503207
0.00502889
0.00502462
0.00501932
0.00501306
0.00500594
0.0049981
0.00498963
0.00498065
0.00497128
0.00496161
0.00495174
0.00494175
0.00493173
0.00492176
0.00491196
0.00490241
0.00489324
0.00488454
0.00487643
0.00486897
0.00486228
0.00485642
0.00485144
0.00484741
0.00484439
0.00484232
0.00483201
0.00483336
0.00483184
0.00482871
0.00482418
0.00481835
0.00481134
0.00480334
0.00479452
0.00478509
0.00477525
0.00476518
0.00475505
0.00474501
0.00473519
0.0047257
0.00471663
0.00470804
0.0047
0.00469253
0.00468567
0.00467943
0.00467381
0.00466882
0.00466443
0.00466062
0.00465737
0.00465465
0.00465247
0.00465077
0.00462244
0.00462351
0.00462138
0.00461737
0.00461172
0.00460459
0.00459621
0.00458681
0.00457665
0.004566
0.00455511
0.00454421
0.00453352
0.00452325
0.00451354
0.00450453
0.00449632
0.00448896
0.00448246
0.00447682
0.00447197
0.00446786
0.00446441
0.00446155
0.00445916
0.00445715
0.00445542
0.00445386
0.00445243
0.00445106
0.00440491
0.00440573
0.00440311
0.00439838
0.00439182
0.00438367
0.0043742
0.00436371
0.00435252
0.00434094
0.00432926
0.00431777
0.00430671
0.00429632
0.00428678
0.00427826
0.00427085
0.0042646
0.00425948
0.00425542
0.00425233
0.00425008
0.00424852
0.00424751
0.00424686
0.0042464
0.00424597
0.00424542
0.00424463
0.00424354
0.00417976
0.00418038
0.00417738
0.00417208
0.00416483
0.00415589
0.00414559
0.00413428
0.00412232
0.00411004
0.00409778
0.00408588
0.00407459
0.00406419
0.00405491
0.00404693
0.00404031
0.0040351
0.00403121
0.00402854
0.00402696
0.00402632
0.00402639
0.00402696
0.00402779
0.00402865
0.00402931
0.00402959
0.00402935
0.0040285
0.00394738
0.00394784
0.00394455
0.00393884
0.00393107
0.00392157
0.00391068
0.0038988
0.0038863
0.00387355
0.00386093
0.00384878
0.00383741
0.00382712
0.00381815
0.00381073
0.00380483
0.00380061
0.00379778
0.00379629
0.00379602
0.00379675
0.00379821
0.00380012
0.00380218
0.00380413
0.0038057
0.00380667
0.00380687
0.00380622
0.00370812
0.00370844
0.00370493
0.00369894
0.00369083
0.00368095
0.00366969
0.00365744
0.00364464
0.00363164
0.00361883
0.00360663
0.00359534
0.00358533
0.00357686
0.00356993
0.00356476
0.00356133
0.00355935
0.00355885
0.00355968
0.00356156
0.00356418
0.00356719
0.00357026
0.00357309
0.0035754
0.00357692
0.00357748
0.003577
0.00346226
0.00346245
0.00345879
0.00345262
0.00344433
0.00343427
0.00342283
0.0034104
0.00339743
0.00338435
0.00337163
0.00335957
0.00334855
0.00333887
0.0033307
0.00332429
0.00331969
0.00331681
0.003316
0.00331636
0.00331814
0.00332098
0.00332452
0.0033284
0.00333228
0.00333582
0.00333868
0.00334063
0.00334147
0.00334113
0.00321008
0.00321015
0.00320644
0.00320024
0.00319193
0.00318184
0.00317038
0.00315798
0.00314509
0.00313216
0.0031196
0.00310781
0.00309707
0.00308777
0.00308011
0.00307425
0.00307024
0.00306804
0.00306756
0.00306901
0.00307167
0.00307529
0.00307955
0.00308409
0.00308855
0.00309258
0.00309585
0.0030981
0.00309915
0.00309891
0.00295201
0.00295199
0.00294832
0.0029422
0.002934
0.00292405
0.00291277
0.00290057
0.00288793
0.00287527
0.00286308
0.00285155
0.00284132
0.00283254
0.00282544
0.00282018
0.00281681
0.00281532
0.00281558
0.00281747
0.00282065
0.00282478
0.00282952
0.00283451
0.00283935
0.00284369
0.00284722
0.00284966
0.00285084
0.00285069
0.00268848
0.00268838
0.0026848
0.00267885
0.00267088
0.00266123
0.0026503
0.0026385
0.00262627
0.00261406
0.00260227
0.00259147
0.00258184
0.00257367
0.0025672
0.00256256
0.00255978
0.00255882
0.00255955
0.00256182
0.00256532
0.00256973
0.00257474
0.00257995
0.00258498
0.00258947
0.00259311
0.00259565
0.00259691
0.00259683
0.00241986
0.00241969
0.00241624
0.00241054
0.00240293
0.00239374
0.00238334
0.00237214
0.00236055
0.00234901
0.00233804
0.00232795
0.00231904
0.00231158
0.00230577
0.0023017
0.00229941
0.00229884
0.00229987
0.00230234
0.00230598
0.00231049
0.00231555
0.00232079
0.00232581
0.00233028
0.00233392
0.00233647
0.00233777
0.00233774
0.00214654
0.00214628
0.00214302
0.00213767
0.00213054
0.00212196
0.00211228
0.00210191
0.00209122
0.0020807
0.0020706
0.00206138
0.00205332
0.00204663
0.00204146
0.00203792
0.00203602
0.00203572
0.0020369
0.0020394
0.00204298
0.00204738
0.00205231
0.00205742
0.00206227
0.00206658
0.0020701
0.0020726
0.00207388
0.00207389
0.00186896
0.00186864
0.00186561
0.00186067
0.00185413
0.0018463
0.00183753
0.00182824
0.00181859
0.00180912
0.00180015
0.00179199
0.00178488
0.00177902
0.00177454
0.00177151
0.00176994
0.00176981
0.00177102
0.0017734
0.00177677
0.00178086
0.00178541
0.00179013
0.00179486
0.00179887
0.00180216
0.00180453
0.00180575
0.00180579
0.00158765
0.00158728
0.00158454
0.00158013
0.00157432
0.00156739
0.00155962
0.00155132
0.00154306
0.00153491
0.0015272
0.00152021
0.00151414
0.00150915
0.00150536
0.00150281
0.00150154
0.00150151
0.00150263
0.00150478
0.0015078
0.00151145
0.0015155
0.00151968
0.00152371
0.00152759
0.00153069
0.00153286
0.00153397
0.001534
0.00130318
0.00130279
0.00130041
0.00129664
0.00129169
0.00128582
0.00127927
0.00127234
0.00126536
0.00125859
0.00125222
0.00124646
0.00124147
0.00123738
0.00123426
0.00123218
0.00123117
0.00123118
0.00123216
0.001234
0.00123655
0.00123967
0.00124313
0.00124672
0.00125021
0.00125342
0.00125616
0.00125815
0.00125913
0.00125918
0.0010161
0.00101572
0.00101379
0.00101072
0.00100673
0.00100207
0.000996854
0.000991388
0.000985884
0.000980568
0.000975581
0.000971047
0.000967127
0.000963935
0.000961531
0.000959957
0.000959198
0.000959231
0.000960015
0.000961479
0.000963522
0.000966014
0.000968798
0.000971699
0.000974533
0.000977128
0.000979283
0.000980793
0.000981684
0.000981764
0.000726967
0.000726711
0.000725253
0.000722897
0.000719762
0.000716418
0.000712796
0.000708952
0.000705006
0.000701137
0.000697501
0.000694265
0.000691502
0.00068927
0.00068761
0.000686516
0.000685985
0.000686013
0.000686583
0.00068765
0.000689141
0.00069096
0.000692994
0.000695115
0.000697184
0.000699076
0.000700649
0.000701775
0.00070241
0.0007025
0.000436994
0.000436738
0.000435736
0.0004343
0.000432473
0.000430372
0.000428164
0.000425811
0.000423418
0.000421075
0.000418893
0.000416958
0.000415315
0.000413988
0.000412993
0.000412331
0.00041201
0.000412024
0.000412368
0.000413014
0.000413921
0.000415035
0.000416283
0.000417598
0.000418898
0.000420096
0.000421096
0.000421829
0.00042222
0.000422202
0.00014628
0.000146107
0.000145798
0.000145351
0.000144852
0.000144028
0.00014313
0.000142249
0.000141402
0.000140593
0.000139874
0.000139243
0.000138697
0.000138245
0.00013789
0.000137651
0.000137535
0.000137533
0.000137648
0.000137867
0.00013818
0.000138573
0.000139023
0.000139507
0.000139985
0.000140412
0.000140751
0.000141018
0.000141145
0.000141092
4899.1
4899.1
4899.1
4899.1
4899.1
4899.09
4899.09
4899.09
4899.09
4899.08
4899.08
4899.08
4899.08
4899.08
4899.08
4899.08
4899.08
4899.09
4899.09
4899.09
4899.09
4899.09
4899.09
4899.09
4899.09
4899.09
4899.1
4899.1
4899.1
4899.11
4899.1
4899.1
4899.1
4899.1
4899.1
4899.09
4899.09
4899.09
4899.09
4899.08
4899.08
4899.08
4899.08
4899.08
4899.08
4899.08
4899.08
4899.08
4899.09
4899.09
4899.09
4899.09
4899.09
4899.09
4899.09
4899.1
4899.1
4899.1
4899.1
4899.1
4899.1
4899.1
4899.1
4899.1
4899.09
4899.09
4899.09
4899.09
4899.09
4899.08
4899.08
4899.08
4899.08
4899.08
4899.08
4899.08
4899.08
4899.08
4899.08
4899.08
4899.08
4899.08
4899.09
4899.09
4899.09
4899.09
4899.09
4899.09
4899.11
4899.1
4899.09
4899.09
4899.09
4899.09
4899.09
4899.09
4899.09
4899.09
4899.09
4899.09
4899.09
4899.08
4899.08
4899.08
4899.07
4899.07
4899.07
4899.07
4899.07
4899.08
4899.08
4899.08
4899.08
4899.09
4899.09
4899.1
4899.1
4899.09
4899.11
4899.1
4899.08
4899.07
4899.08
4899.08
4899.08
4899.09
4899.09
4899.09
4899.1
4899.1
4899.1
4899.09
4899.09
4899.08
4899.08
4899.08
4899.07
4899.07
4899.08
4899.08
4899.08
4899.09