/*--------------------------------*- C++ -*----------------------------------*\
| =========                 |                                                 |
| \\      /  F ield         | OpenFOAM: The Open Source CFD Toolbox           |
|  \\    /   O peration     | Version:  2312                                  |
|   \\  /    A nd           | Website:  www.openfoam.com                      |
|    \\/     M anipulation  |                                                 |
\*---------------------------------------------------------------------------*/
FoamFile
{
    version     2.0;
    format      ascii;
    arch        "LSB;label=32;scalar=64";
    class       surfaceScalarField;
    location    "1.26092662";
    object      phi;
}
// * * * * * * * * * * * * * * * * * * * * * * * * * * * * * * * * * * * * * //

dimensions      [0 3 -1 0 0 0 0];

oriented        oriented;

internalField   nonuniform List<scalar> 
263100
(
-2.53141e-09
5.06281e-09
-2.53141e-09
5.3753e-10
-1.46236e-09
-1.60115e-09
1.78423e-09
5.56179e-11
-1.29787e-09
2.60845e-09
1.33609e-10
-9.53544e-10
3.27503e-09
-1.79346e-10
-4.83123e-10
3.83794e-09
-5.97778e-10
3.87811e-11
4.40441e-09
-9.66895e-10
4.04117e-10
4.79119e-09
-1.15358e-09
7.70274e-10
4.78102e-09
-1.03433e-09
1.04776e-09
4.25484e-09
-5.855e-10
1.11475e-09
3.27189e-09
3.91826e-11
9.46664e-10
1.91408e-09
7.34812e-10
6.25754e-10
4.94688e-10
1.25952e-09
1.62527e-10
-6.9506e-10
1.41448e-09
-2.22124e-10
-1.29578e-09
1.17796e-09
-5.74644e-10
-1.15808e-09
6.26393e-10
-7.61514e-10
-3.78011e-10
-9.53745e-11
-6.82118e-10
6.21494e-10
-6.36642e-10
-3.60321e-10
1.31365e-09
-8.90006e-10
2.0035e-10
1.22262e-09
-6.05008e-10
6.98474e-10
5.04713e-11
1.3262e-10
1.0419e-09
-2.22059e-09
1.14067e-09
1.13272e-09
-5.22891e-09
2.04384e-09
9.66773e-10
-8.10967e-09
2.32608e-09
5.56996e-10
-9.77548e-09
1.59726e-09
7.09038e-11
-9.0389e-09
-1.5361e-10
-5.80542e-10
-5.13838e-09
-2.75468e-09
-1.1433e-09
3.04637e-09
-5.23504e-09
-2.94705e-09
1.38136e-08
-6.98645e-09
-3.77796e-09
3.75644e-08
-2.3748e-08
3.15787e-10
4.43679e-09
3.15787e-10
2.90411e-10
-1.73639e-09
3.07999e-10
2.18735e-10
-1.36607e-10
2.71536e-10
2.41457e-10
-1.13756e-10
2.31962e-10
4.02299e-10
-5.76318e-10
2.43115e-10
7.31298e-10
-1.16345e-09
2.4331e-10
1.21553e-09
-1.68019e-09
2.35318e-10
1.7919e-09
-1.93541e-09
2.11375e-10
2.38827e-09
-1.80852e-09
1.83418e-10
2.90787e-09
-1.29225e-09
1.92478e-10
3.25471e-09
-5.67091e-10
2.6454e-10
3.42717e-09
1.79668e-10
3.87659e-10
3.39105e-09
6.98405e-10
6.02126e-10
3.14015e-09
7.81608e-10
8.88647e-10
2.64836e-09
4.88549e-10
1.18607e-09
1.85804e-09
1.06397e-11
1.41092e-09
8.8942e-10
-6.42929e-10
1.52097e-09
-9.76708e-11
-1.10682e-09
1.46199e-09
-1.06791e-09
-1.12093e-09
1.20577e-09
-1.96242e-09
-5.67834e-10
8.61838e-10
-2.71235e-09
3.26901e-10
5.60039e-10
-3.3896e-09
1.46122e-09
3.61038e-10
-3.94182e-09
2.29952e-09
3.00877e-10
-4.11789e-09
2.12725e-09
3.79308e-10
-4.02541e-09
8.14123e-10
6.95207e-10
-4.10679e-09
-1.43739e-09
1.3699e-09
-4.29755e-09
-4.71729e-09
2.15833e-09
-9.49425e-10
-1.2711e-08
4.13303e-09
1.02888e-08
-2.51584e-08
6.93907e-09
4.46844e-08
3.17351e-09
1.08294e-09
2.27524e-09
1.08294e-09
-3.51308e-10
-7.87406e-10
4.92204e-10
-1.18159e-09
3.14886e-10
3.84939e-10
-1.74631e-09
2.74087e-10
1.82785e-10
-2.11939e-09
-1.81839e-10
-1.57063e-11
-2.23341e-09
-8.67932e-10
-1.76026e-10
-1.93465e-09
-1.54799e-09
-4.25689e-10
-1.20281e-09
-2.04581e-09
-6.16322e-10
-4.22874e-11
-2.26533e-09
-6.98749e-10
1.4315e-09
-2.12595e-09
-6.35207e-10
3.02942e-09
-1.76001e-09
-4.00166e-10
4.46919e-09
-1.2843e-09
2.90192e-11
5.46815e-09
-7.77084e-10
4.81377e-10
5.65132e-09
-3.49842e-10
9.53162e-10
4.869e-09
-4.74929e-11
1.32327e-09
3.24967e-09
1.45883e-10
1.48898e-09
1.02986e-09
2.44899e-10
1.33683e-09
-1.29529e-09
3.05983e-10
9.17079e-10
-3.13232e-09
3.99293e-10
3.21414e-10
-4.03429e-09
5.88084e-10
-2.49477e-10
-3.89383e-09
8.80029e-10
-6.89233e-10
-2.71182e-09
1.19244e-09
-9.08924e-10
-8.17725e-10
1.23142e-09
-8.21661e-10
1.24772e-09
5.94944e-10
-5.28715e-10
3.02914e-09
-7.05651e-10
-2.57048e-10
3.84883e-09
-2.18138e-09
-7.09056e-11
1.64004e-09
-2.94747e-09
4.44008e-10
-4.7534e-09
-9.22398e-09
2.91167e-09
-3.27451e-09
-3.38113e-08
7.17941e-09
2.73498e-08
1.40647e-08
1.18704e-09
-9.5117e-11
1.18704e-09
-6.48743e-10
4.84069e-10
5.70129e-10
-1.78066e-09
1.04178e-09
4.10204e-10
-2.63576e-09
9.75045e-10
1.59165e-10
-3.28035e-09
5.65205e-10
-9.75296e-11
-3.68929e-09
-1.22581e-10
-3.31531e-10
-3.65635e-09
-9.35826e-10
-6.40268e-10
-3.09498e-09
-1.70512e-09
-8.97186e-10
-1.99127e-09
-2.34154e-09
-1.02258e-09
-4.02144e-10
-2.71991e-09
-9.90134e-10
1.45988e-09
-2.81771e-09
-7.99164e-10
3.2358e-09
-2.59591e-09
-4.59036e-10
4.48914e-09
-2.00874e-09
-1.62974e-11
4.93813e-09
-1.04348e-09
2.50131e-10
4.37719e-09
1.37117e-10
3.81845e-10
2.87304e-09
1.35832e-09
2.97203e-10
7.63504e-10
2.33239e-09
2.7449e-11
-1.38299e-09
2.86182e-09
-4.04077e-10
-2.92623e-09
2.79826e-09
-8.5063e-10
-3.35924e-09
2.24002e-09
-1.21397e-09
-2.43526e-09
1.40145e-09
-1.44054e-09
-2.90431e-10
5.4489e-10
-1.49243e-09
2.44011e-09
-1.62178e-10
-1.33203e-09
5.01266e-09
-9.73494e-10
-9.99032e-10
6.77659e-09
-1.87744e-09
-5.86853e-10
8.18854e-09
-2.97121e-09
-6.16585e-10
1.01415e-08
-2.53751e-09
-2.35714e-09
3.3885e-09
4.57156e-10
-2.92221e-09
-8.69944e-09
-1.92345e-08
-2.48278e-09
1.3286e-08
5.36942e-09
1.16909e-09
-2.43023e-09
1.16909e-09
-4.33227e-10
1.42408e-09
6.67109e-10
-1.43507e-09
1.49131e-09
5.56637e-10
-2.20263e-09
1.38396e-09
3.62935e-10
-2.86629e-09
1.09347e-09
1.39715e-10
-3.3747e-09
4.81522e-10
-9.12524e-11
-3.62276e-09
-4.09346e-10
-2.73847e-10
-3.565e-09
-1.34078e-09
-4.17313e-10
-3.10041e-09
-2.22439e-09
-5.76732e-10
-2.23636e-09
-2.96763e-09
-6.11071e-10
-1.10439e-09
-3.37582e-09
-5.68352e-10
6.57997e-11
-3.29289e-09
-4.67488e-10
1.07618e-09
-2.61837e-09
-3.94886e-10
1.69629e-09
-1.28417e-09
-3.73474e-10
1.81131e-09
4.97728e-10
-4.69662e-10
1.36434e-09
2.4433e-09
-6.32081e-10
5.20256e-10
3.98371e-09
-8.01437e-10
-3.66475e-10
4.69612e-09
-9.41904e-10
-8.37811e-10
4.34721e-09
-1.0721e-09
-5.45348e-10
3.12771e-09
-1.17475e-09
5.95231e-10
1.50921e-09
-1.24295e-09
2.44105e-09
-3.17478e-11
-1.26373e-09
4.63631e-09
-1.13541e-09
-1.21642e-09
6.48596e-09
-1.7142e-09
-1.10314e-09
7.29225e-09
-1.76502e-09
-9.12702e-10
6.79229e-09
-1.98354e-09
-4.81519e-10
6.79142e-09
-1.93494e-09
-5.95398e-10
4.54744e-09
4.44136e-09
-1.73386e-09
-5.40865e-09
-5.55054e-09
-3.72154e-09
8.54326e-09
-6.60764e-10
8.26751e-10
-4.08122e-09
8.26751e-10
9.09703e-11
1.56165e-09
6.02336e-10
-2.52736e-10
1.25469e-09
5.84114e-10
-4.99253e-10
1.10388e-09
5.30447e-10
-8.1671e-10
9.3438e-10
4.80552e-10
-1.22311e-09
4.75084e-10
4.1708e-10
-1.72087e-09
-2.66526e-10
3.59444e-10
-2.28782e-09
-1.11445e-09
3.4541e-10
-2.87584e-09
-1.96138e-09
3.30139e-10
-3.35564e-09
-2.73543e-09
2.53021e-10
-3.60446e-09
-3.21868e-09
9.73644e-11
-3.5749e-09
-3.26683e-09
-4.97412e-11
-3.17806e-09
-2.71241e-09
-2.96813e-10
-2.42119e-09
-1.49589e-09
-5.39135e-10
-1.42401e-09
2.26899e-10
-7.20368e-10
-3.55808e-10
2.19317e-09
-8.12181e-10
6.17575e-10
3.77238e-09
-7.56271e-10
1.43755e-09
4.48505e-09
-6.03234e-10
2.14364e-09
4.06738e-09
-4.20656e-10
2.80548e-09
2.75074e-09
-2.79235e-10
3.54043e-09
1.02336e-09
-2.43383e-10
4.37727e-09
-5.56574e-10
-3.06118e-10
5.17317e-09
-1.48606e-09
-4.39158e-10
5.70174e-09
-1.60899e-09
-6.27514e-10
5.66539e-09
-8.09017e-10
-9.13285e-10
4.01847e-09
7.95742e-10
-1.126e-09
1.58586e-09
1.6255e-09
-1.12156e-09
8.3617e-10
7.5808e-09
-2.38369e-09
-3.81101e-09
3.78033e-09
-4.67788e-09
7.60765e-09
-2.87103e-09
-1.95458e-11
-4.03993e-09
-1.95456e-11
6.2619e-10
8.33842e-10
8.59327e-11
1.36427e-09
3.35862e-10
1.84375e-10
1.99597e-09
2.02451e-10
2.73505e-10
2.35637e-09
1.51423e-10
4.26554e-10
2.28325e-09
-3.49024e-11
5.87387e-10
1.63207e-09
-3.60282e-10
7.49516e-10
4.351e-10
-8.02819e-10
8.90211e-10
-1.20389e-09
-1.28295e-09
9.65728e-10
-3.08526e-09
-1.76838e-09
9.19693e-10
-4.87455e-09
-2.16292e-09
7.39098e-10
-6.09948e-09
-2.40713e-09
3.70866e-10
-6.4046e-09
-2.35766e-09
-4.40026e-11
-5.68888e-09
-1.84011e-09
-3.65965e-10
-4.07647e-09
-8.70156e-10
-5.09943e-10
-1.84406e-09
3.84642e-10
-4.18577e-10
5.4137e-10
1.52937e-09
-1.37193e-10
2.67026e-09
2.13535e-09
2.26038e-10
4.21076e-09
1.94994e-09
5.82269e-10
5.05499e-09
1.05298e-09
8.5904e-10
5.25989e-09
-2.29194e-10
1.05342e-09
4.94487e-09
-1.25356e-09
1.01801e-09
4.26439e-09
-1.644e-09
8.44592e-10
3.1518e-09
-1.10031e-09
6.10121e-10
1.8177e-09
4.23338e-10
1.07824e-10
-1.34223e-11
3.192e-09
-5.59363e-10
-2.498e-09
5.37234e-09
-1.25692e-09
-2.21776e-09
9.52271e-09
-2.21731e-09
-3.28405e-09
8.04397e-09
-3.193e-09
6.08646e-09
-1.7599e-09
-1.22591e-09
-1.58599e-09
-1.2259e-09
9.40837e-10
-5.69238e-10
-7.59776e-10
2.78702e-09
-8.92618e-10
-6.14004e-10
4.38839e-09
-9.5244e-10
-4.42586e-10
5.52882e-09
-8.32745e-10
-1.52106e-10
5.92896e-09
-5.90617e-10
1.59988e-10
5.35384e-09
-2.64848e-10
4.84376e-10
3.80684e-09
1.18242e-11
7.3724e-10
1.44844e-09
2.08353e-10
8.72191e-10
-1.37138e-09
2.21837e-10
8.34745e-10
-4.14206e-09
-3.89798e-11
6.51866e-10
-6.2718e-09
-6.36567e-10
3.64204e-10
-7.28885e-09
-1.42072e-09
8.49655e-11
-6.97215e-09
-2.08236e-09
-6.98149e-11
-5.40277e-09
-2.35829e-09
-7.68085e-11
-2.93445e-09
-2.20817e-09
1.28835e-10
-1.0918e-10
-1.74124e-09
4.49693e-10
2.51826e-09
-1.33731e-09
8.49756e-10
4.40098e-09
-1.21134e-09
1.28337e-09
5.29233e-09
-1.51782e-09
1.68463e-09
5.19773e-09
-2.04461e-09
1.91555e-09
4.33095e-09
-2.37832e-09
1.99733e-09
2.84423e-09
-2.08564e-09
1.9342e-09
8.36216e-10
-8.13356e-10
1.72668e-09
-1.41416e-09
1.28804e-09
1.39083e-09
-3.03114e-09
4.18013e-09
6.33351e-10
-4.47646e-09
6.82987e-09
-8.48002e-12
-3.11512e-09
8.46899e-09
-3.04657e-10
-1.70482e-09
6.78514e-09
-1.49103e-10
3.1734e-09
1.20952e-09
-2.08173e-09
2.57966e-09
-2.08173e-09
1.2129e-09
-2.42236e-09
-1.4376e-09
3.8723e-09
-2.24753e-09
-1.30075e-09
6.10618e-09
-2.16745e-09
-1.01492e-09
7.69877e-09
-1.74416e-09
-6.76959e-10
8.39683e-09
-9.81554e-10
-3.02673e-10
8.01164e-09
8.983e-11
3.5207e-11
6.50625e-09
1.31244e-09
2.09562e-10
4.1043e-09
2.28911e-09
3.26066e-10
1.19277e-09
2.78594e-09
3.52183e-10
-1.6937e-09
2.53248e-09
3.19572e-10
-4.05173e-09
1.46253e-09
2.63232e-10
-5.49577e-09
-2.51228e-10
2.78535e-10
-5.88111e-09
-2.06354e-09
3.70205e-10
-5.20995e-09
-3.54891e-09
5.22945e-10
-3.6721e-09
-4.4406e-09
6.98033e-10
-1.65371e-09
-4.71347e-09
9.57487e-10
3.57546e-10
-4.58201e-09
1.23743e-09
2.03702e-09
-4.37007e-09
1.48373e-09
3.06273e-09
-4.20616e-09
1.66759e-09
3.26476e-09
-4.01585e-09
1.77454e-09
2.58934e-09
-3.55847e-09
1.86104e-09
1.19237e-09
-2.55109e-09
1.86771e-09
-6.46415e-10
-6.94949e-10
1.72515e-09
-2.54706e-09
1.71064e-09
1.48203e-09
-3.58079e-09
4.06167e-09
1.15522e-09
-3.39459e-09
5.45722e-09
1.1885e-09
-1.32672e-09
4.75218e-09
1.65013e-09
3.43522e-10
2.53488e-09
2.58066e-09
7.40635e-10
2.77638e-09
-2.13888e-09
6.85963e-09
-2.13888e-09
1.58524e-09
-4.81943e-09
-1.32343e-09
4.37706e-09
-3.97867e-09
-1.05724e-09
6.61392e-09
-3.72874e-09
-6.71892e-10
8.08345e-09
-2.91589e-09
-2.938e-10
8.62919e-09
-1.54777e-09
2.4703e-11
8.29559e-09
2.72899e-10
1.5504e-10
7.1518e-09
2.1926e-09
2.68216e-10
5.44984e-09
3.76943e-09
2.26267e-10
3.43751e-09
4.56695e-09
2.3574e-10
1.37396e-09
4.24079e-09
3.5939e-10
-5.22598e-10
2.7908e-09
5.7213e-10
-2.15976e-09
5.6516e-10
8.24279e-10
-3.42963e-09
-1.8724e-09
1.08196e-09
-4.23951e-09
-4.00113e-09
1.26524e-09
-4.5125e-09
-5.51028e-09
1.34592e-09
-4.16274e-09
-6.31465e-09
1.25503e-09
-3.22082e-09
-6.5755e-09
1.05568e-09
-1.96686e-09
-6.47888e-09
8.59542e-10
-8.10613e-10
-6.1013e-09
7.44069e-10
-9.73189e-11
-5.42786e-09
7.04151e-10
-1.58677e-11
-4.31293e-09
6.78357e-10
-5.43632e-10
-2.60838e-09
5.8994e-10
-1.31357e-09
-3.63579e-10
4.42658e-10
-1.88494e-09
2.00513e-09
2.79992e-10
-1.51134e-09
3.29904e-09
3.91075e-10
-1.3021e-10
3.05198e-09
1.02521e-09
1.30259e-09
1.59314e-09
1.72661e-09
1.15225e-09
6.27378e-10
2.05789e-09
7.78346e-10
1.11459e-09
-5.26417e-10
7.91444e-09
-5.26417e-10
2.22818e-09
-7.90431e-09
3.3315e-10
3.95483e-09
-6.25674e-09
5.54115e-10
5.06533e-09
-5.61593e-09
7.79702e-10
5.56103e-09
-4.3797e-09
9.71505e-10
5.50401e-09
-2.51082e-09
1.02382e-09
5.1664e-09
-3.18426e-10
9.3308e-10
4.72844e-09
1.95603e-09
6.78882e-10
4.36844e-09
3.6519e-09
4.82007e-10
4.0008e-09
4.51204e-09
4.26932e-10
3.46278e-09
4.22688e-09
5.56122e-10
2.50014e-09
2.90858e-09
8.48856e-10
9.51305e-10
9.68747e-10
1.14905e-09
-1.13974e-09
-1.05715e-09
1.27949e-09
-3.39401e-09
-2.97469e-09
1.23161e-09
-5.36547e-09
-4.46382e-09
9.29089e-10
-6.56791e-09
-5.5474e-09
4.39755e-10
-6.76062e-09
-6.29121e-09
-8.64379e-11
-6.06906e-09
-6.71656e-09
-4.48248e-10
-4.83852e-09
-6.66565e-09
-6.60255e-10
-3.51645e-09
-5.95991e-09
-7.84126e-10
-2.51172e-09
-4.52289e-09
-7.89253e-10
-1.89743e-09
-2.40326e-09
-8.14608e-10
-1.19752e-09
-2.99334e-10
-7.60277e-10
-1.86305e-10
1.49424e-09
-4.97436e-10
1.16021e-09
1.96376e-09
-9.21929e-12
2.39039e-09
1.40891e-09
4.14226e-10
2.27709e-09
1.05822e-09
6.49123e-10
8.23711e-10
2.06068e-09
2.09627e-11
2.18312e-09
-5.79854e-10
2.15947e-09
3.59688e-09
2.15947e-09
2.29391e-09
-1.06162e-08
2.57922e-09
1.80809e-09
-8.70754e-09
2.93828e-09
8.61712e-10
-7.50202e-09
2.83453e-09
-1.82563e-10
-5.85646e-09
2.52364e-09
-9.50543e-10
-3.66772e-09
1.92803e-09
-1.16582e-09
-1.26419e-09
1.16483e-09
-5.14722e-10
8.04594e-10
5.04601e-10
8.16182e-10
2.32771e-09
-2.08561e-12
2.37411e-09
3.09776e-09
-1.38876e-10
3.55852e-09
3.13054e-09
-8.32063e-11
3.70181e-09
2.70267e-09
6.75585e-11
2.54149e-09
1.99015e-09
1.43958e-10
3.06395e-10
1.18781e-09
-4.65902e-12
-2.60546e-09
2.78497e-10
-3.35817e-10
-5.45088e-09
-7.703e-10
-8.42145e-10
-7.50661e-09
-2.11539e-09
-1.36985e-09
-8.37954e-09
-3.61975e-09
-1.79167e-09
-8.06386e-09
-4.95284e-09
-2.07235e-09
-6.8978e-09
-5.69713e-09
-2.12763e-09
-5.3514e-09
-5.53574e-09
-1.96406e-09
-3.7185e-09
-4.45445e-09
-1.69556e-09
-2.05942e-09
-2.73428e-09
-1.32315e-09
-2.75534e-10
-1.19112e-09
-8.88054e-10
1.671e-09
-1.46844e-10
-3.0212e-10
3.17163e-09
2.51028e-10
2.14922e-10
3.45382e-09
5.7914e-10
5.50137e-10
2.22003e-09
1.96074e-09
3.33807e-10
7.52063e-10
3.66465e-09
-1.33311e-10
2.57729e-09
3.60847e-10
4.75065e-09
-5.90383e-09
4.75065e-09
1.08445e-09
-1.12513e-08
4.30222e-09
-2.12701e-09
-9.3441e-09
3.84879e-09
-5.01637e-09
-7.59438e-09
2.98304e-09
-7.36418e-09
-5.45416e-09
1.94756e-09
-8.59496e-09
-3.1932e-09
7.59089e-10
-8.33881e-09
-1.22576e-09
-2.90861e-10
-6.58563e-09
1.16879e-10
-1.06099e-09
-3.67684e-09
1.0205e-09
-1.59643e-09
-4.26271e-10
1.59413e-09
-1.74128e-09
2.14665e-09
2.22806e-09
-1.66432e-09
3.30336e-09
3.16497e-09
-1.61244e-09
2.82925e-09
4.1969e-09
-1.72562e-09
1.0163e-09
5.0478e-09
-2.03956e-09
-1.51022e-09
5.27552e-09
-2.46252e-09
-4.00417e-09
4.57563e-09
-2.84357e-09
-5.88135e-09
2.87887e-09
-3.10837e-09
-6.80587e-09
5.06334e-10
-3.19285e-09
-6.7913e-09
-1.89346e-09
-3.06555e-09
-6.09454e-09
-3.65133e-09
-2.73481e-09
-4.94976e-09
-4.38773e-09
-2.28593e-09
-3.39381e-09
-4.20901e-09
-1.7955e-09
-1.43161e-09
-3.44061e-09
-1.25087e-09
7.25976e-10
-2.67885e-09
-6.65489e-10
2.70256e-09
-2.08207e-09
-3.72961e-11
3.72586e-09
-1.26729e-09
4.99026e-10
3.35207e-09
2.33161e-10
7.23937e-10
2.26286e-09
2.30976e-09
7.44613e-10
1.42592e-09
3.36606e-09
1.14013e-09
2.24746e-09
1.76025e-09
4.86923e-09
-1.56423e-08
4.86923e-09
-1.70649e-09
-7.24907e-09
2.57439e-09
-6.94089e-09
-5.74924e-09
1.64031e-09
-1.08492e-08
-3.95546e-09
2.70743e-10
-1.34749e-08
-2.02133e-09
-8.0491e-10
-1.43171e-08
-5.56663e-10
-1.79116e-09
-1.31392e-08
1.94269e-10
-2.59374e-09
-1.02006e-08
1.37909e-10
-2.95454e-09
-6.26806e-09
2.62189e-11
-2.93221e-09
-2.31461e-09
4.266e-10
-2.77903e-09
6.83157e-10
1.84256e-09
-2.60453e-09
2.3668e-09
4.09006e-09
-2.60016e-09
2.60501e-09
6.76601e-09
-2.79797e-09
1.81005e-09
8.93274e-09
-3.07995e-09
4.94608e-10
9.87787e-09
-3.27634e-09
-8.80352e-10
9.27833e-09
-3.31691e-09
-2.04423e-09
7.21102e-09
-3.15753e-09
-2.90574e-09
4.17829e-09
-2.80024e-09
-3.52181e-09
1.076e-09
-2.34411e-09
-3.83919e-09
-1.39605e-09
-1.92979e-09
-3.72104e-09
-2.85422e-09
-1.64479e-09
-2.95924e-09
-3.54141e-09
-1.42358e-09
-1.51497e-09
-3.65242e-09
-1.22735e-09
2.82538e-10
-3.4384e-09
-1.03311e-09
1.77493e-09
-2.75896e-09
-8.10589e-10
2.37046e-09
-1.18785e-09
-6.69751e-10
2.22785e-09
1.08344e-09
-7.02036e-10
2.05442e-09
2.86592e-09
-3.76724e-10
1.33718e-09
3.75258e-09
3.36789e-10
3.94993e-09
-3.59775e-10
1.5986e-09
-1.88395e-08
1.5986e-09
-5.51217e-09
8.35987e-10
-9.71758e-10
-1.05368e-08
1.09164e-09
-1.81409e-09
-1.3824e-08
2.16095e-09
-2.82638e-09
-1.53962e-08
2.97876e-09
-3.42442e-09
-1.50395e-08
2.67301e-09
-3.582e-09
-1.28162e-08
1.32766e-09
-3.35147e-09
-9.38939e-09
-3.90113e-10
-2.89261e-09
-5.70135e-09
-1.36808e-09
-2.28657e-09
-2.48638e-09
-9.31732e-10
-1.8484e-09
-1.34847e-10
1.15912e-09
-1.65872e-09
1.38464e-09
4.36475e-09
-1.78368e-09
2.30217e-09
7.89318e-09
-2.03318e-09
2.8261e-09
1.06088e-08
-2.18764e-09
3.06216e-09
1.17445e-08
-2.08993e-09
2.97526e-09
1.11231e-08
-1.74518e-09
2.39222e-09
9.01668e-09
-1.21043e-09
1.22269e-09
5.98272e-09
-6.23762e-10
-3.67941e-10
2.93914e-09
-2.62745e-10
-2.05877e-09
4.80492e-10
-1.7742e-10
-3.22308e-09
-1.31083e-09
-3.72072e-10
-3.54745e-09
-2.4233e-09
-7.87608e-10
-2.94598e-09
-3.02047e-09
-1.22769e-09
-1.89005e-09
-2.89503e-09
-1.59352e-09
-9.3667e-10
-1.77119e-09
-1.93504e-09
-3.5159e-10
4.97696e-10
-2.26405e-09
3.90821e-11
3.10304e-09
-2.40324e-09
1.08037e-10
4.96525e-09
-2.16088e-09
-4.62087e-10
6.72361e-09
-2.39353e-09
6.54004e-09
-3.0457e-09
-2.29884e-09
-1.42408e-08
-2.29884e-09
-7.52511e-09
1.02117e-08
-4.14337e-09
-1.05742e-08
8.29244e-09
-4.14647e-09
-1.196e-08
7.7512e-09
-4.19882e-09
-1.16871e-08
6.43001e-09
-3.7182e-09
-9.97491e-09
3.89774e-09
-2.93057e-09
-7.50707e-09
7.84416e-10
-1.9177e-09
-5.08617e-09
-1.84239e-09
-9.61054e-10
-3.111e-09
-3.10513e-09
-2.2968e-10
-1.74433e-09
-2.34241e-09
5.354e-11
-8.07851e-10
3.09524e-10
-7.60426e-11
2.49816e-10
3.79126e-09
-4.72028e-10
1.68137e-09
7.33304e-09
-8.58124e-10
3.39163e-09
9.79712e-09
-8.84539e-10
4.89628e-09
1.07921e-08
-5.37911e-10
5.63832e-09
1.03073e-08
8.78454e-11
5.25326e-09
8.65843e-09
7.56512e-10
3.63173e-09
6.44793e-09
1.1682e-09
1.16116e-09
4.19886e-09
1.22127e-09
-1.40766e-09
2.13674e-09
9.2164e-10
-3.26546e-09
1.62687e-10
3.92352e-10
-4.1079e-09
-1.53346e-09
-3.98572e-11
-4.14579e-09
-2.56957e-09
-4.05513e-10
-3.88767e-09
-2.45987e-09
-6.8554e-10
-3.70949e-09
-9.4349e-10
-9.97752e-10
-3.48355e-09
1.54237e-09
-1.26206e-09
-3.0224e-09
3.99937e-09
-1.3485e-09
-2.62722e-09
6.09436e-09
-1.51491e-09
-1.8045e-09
7.94369e-09
-2.03329e-09
5.41553e-09
-6.71609e-10
-4.49279e-09
-5.25199e-09
-4.49279e-09
-6.22075e-09
1.64057e-08
-4.45475e-09
-6.58551e-09
1.24758e-08
-3.80886e-09
-5.827e-09
1.011e-08
-3.10768e-09
-4.20273e-09
6.86201e-09
-2.04694e-09
-2.29695e-09
2.89566e-09
-8.94577e-10
-8.71897e-10
-7.37455e-10
1.05861e-10
-3.54449e-10
-3.12643e-09
7.75872e-10
-6.59738e-10
-3.73654e-09
9.46617e-10
-1.32776e-09
-2.21242e-09
5.48987e-10
-1.50279e-09
5.95449e-10
-9.8597e-11
-6.77498e-10
3.65464e-09
-6.74989e-10
1.21359e-09
6.26995e-09
-8.13158e-10
3.55073e-09
8.00156e-09
-5.26021e-10
5.4939e-09
8.75456e-09
1.10102e-10
6.3206e-09
8.74467e-09
7.51201e-10
5.68506e-09
8.12272e-09
1.18558e-09
3.80935e-09
7.0318e-09
1.30502e-09
1.38468e-09
5.46455e-09
1.17103e-09
-7.58855e-10
3.35574e-09
9.35734e-10
-2.20487e-09
8.41309e-10
7.78123e-10
-2.95883e-09
-1.63498e-09
8.66104e-10
-3.49011e-09
-3.22025e-09
1.19273e-09
-4.16817e-09
-3.23356e-09
1.46278e-09
-4.8805e-09
-1.73455e-09
1.5147e-09
-5.00806e-09
9.43961e-11
1.5872e-09
-4.51905e-09
1.82168e-09
1.70081e-09
-3.48426e-09
3.19677e-09
1.87551e-09
-1.0421e-09
3.1289e-09
2.3859e-09
-1.31526e-10
4.51675e-09
-3.79524e-09
2.34498e-09
-3.79524e-09
-2.46931e-09
1.78768e-08
-2.77921e-09
-1.09465e-09
1.32473e-08
-2.13084e-09
6.72864e-10
9.76417e-09
-1.40731e-09
2.43817e-09
5.73156e-09
-6.21435e-10
3.58806e-09
1.73002e-09
2.83018e-11
3.69634e-09
-1.16816e-09
3.34298e-10
2.59416e-09
-2.34855e-09
3.35978e-10
8.02056e-10
-1.88202e-09
-5.03468e-11
-6.15345e-10
-2.34986e-10
-5.4706e-10
-1.0287e-09
1.88907e-09
-8.66013e-10
-9.97488e-11
3.53288e-09
-7.91633e-10
1.72939e-09
4.80483e-09
-3.47401e-10
3.67348e-09
5.72073e-09
3.53938e-10
4.90763e-09
6.5408e-09
9.96856e-10
5.0347e-09
7.27662e-09
1.35782e-09
4.13946e-09
7.6641e-09
1.37006e-09
2.70401e-09
7.30211e-09
1.18069e-09
1.33531e-09
5.88292e-09
9.65437e-10
3.71485e-10
3.37814e-09
9.56368e-10
-2.67192e-10
3.12124e-10
1.18288e-09
-1.118e-09
-2.35346e-09
1.5845e-09
-2.41952e-09
-3.79075e-09
1.88738e-09
-3.91862e-09
-3.63207e-09
1.91307e-09
-4.87159e-09
-2.61174e-09
1.84582e-09
-4.75155e-09
-2.0133e-09
2.00373e-09
-3.59512e-09
-1.81885e-09
2.50082e-09
-1.63257e-09
-1.95074e-09
3.20259e-09
2.50935e-10
-3.10757e-09
4.37163e-09
-3.18689e-09
3.32284e-09
-2.25101e-09
6.8573e-09
-2.25101e-09
4.55407e-10
1.64773e-08
-1.28231e-09
2.73447e-09
1.21403e-08
-1.15095e-09
4.63136e-09
8.71351e-09
-8.26466e-10
6.11694e-09
4.79303e-09
-5.28835e-10
6.67154e-09
1.46163e-09
-2.69373e-10
6.10637e-09
-5.34055e-10
-5.31625e-11
4.725e-09
-9.52631e-10
7.12627e-13
3.08764e-09
-2.58579e-10
2.93664e-11
1.87247e-09
8.40276e-10
1.56041e-10
1.60987e-09
1.62533e-09
5.43488e-10
2.14537e-09
1.79195e-09
1.2236e-09
2.80854e-09
2.15194e-09
2.00863e-09
3.03553e-09
2.84017e-09
2.67282e-09
2.67319e-09
4.09545e-09
2.82693e-09
1.89596e-09
5.59052e-09
2.48237e-09
1.15641e-09
6.52109e-09
1.90142e-09
7.86732e-10
6.24691e-09
1.4438e-09
7.3944e-10
4.67323e-09
1.27623e-09
6.47347e-10
2.16647e-09
1.32349e-09
-1.71659e-10
-3.16754e-10
1.46807e-09
-1.87511e-09
-1.96253e-09
1.33296e-09
-4.05686e-09
-2.33521e-09
7.46736e-10
-5.6367e-09
-1.84559e-09
-1.86051e-10
-5.76788e-09
-1.83828e-09
-6.21418e-10
-4.63693e-09
-2.62314e-09
-4.99562e-10
-2.92016e-09
-3.22006e-09
-2.93007e-10
-1.32963e-09
-3.23135e-09
-2.86218e-10
-1.02816e-09
-2.49115e-09
-8.92965e-10
-9.40542e-10
-3.25269e-09
-1.15735e-09
9.18635e-09
-1.15735e-09
2.107e-09
1.39315e-08
-6.86722e-10
4.62801e-09
1.0333e-08
-6.86427e-10
6.79236e-09
6.91263e-09
-3.37876e-10
8.33735e-09
3.15017e-09
1.21719e-10
9.05561e-09
1.5971e-10
6.05878e-10
8.73202e-09
-1.17119e-09
9.81739e-10
7.7719e-09
-1.34415e-09
1.37196e-09
6.70321e-09
-1.02214e-09
1.85248e-09
5.89306e-09
-8.55789e-10
2.52676e-09
5.16977e-09
-9.65331e-10
3.33496e-09
4.11356e-09
-1.37741e-09
4.247e-09
2.41534e-09
-8.02779e-10
4.67456e-09
3.44412e-10
6.64236e-10
4.26844e-09
-1.52888e-09
2.65807e-09
3.33212e-09
-2.4989e-09
4.38832e-09
2.1937e-09
-2.37908e-09
5.07709e-09
1.34603e-09
-1.56276e-09
4.41542e-09
1.03775e-09
-8.471e-10
2.94656e-09
1.03454e-09
-1.18032e-09
1.39528e-09
1.12886e-09
-2.89882e-09
4.99109e-10
9.27723e-10
-5.42556e-09
4.70893e-10
1.18728e-10
-7.55721e-09
8.32807e-10
-1.0108e-09
-7.93872e-09
1.26066e-10
-1.56427e-09
-6.53428e-09
-1.73049e-09
-1.48567e-09
-4.64777e-09
-3.19877e-09
-1.28324e-09
-3.27859e-09
-3.0826e-09
-1.47778e-09
-2.7273e-09
-1.487e-09
-2.26571e-09
-2.8873e-09
1.64332e-09
-3.94365e-09
-4.00101e-11
-3.76124e-09
-2.53942e-10
9.71264e-09
-2.53941e-10
3.39501e-09
1.0003e-08
3.18212e-10
6.36455e-09
6.77594e-09
6.21108e-10
8.89114e-09
3.15722e-09
1.2607e-09
1.06478e-08
-5.18307e-10
1.94207e-09
1.13175e-08
-2.955e-09
2.47361e-09
1.12563e-08
-4.02002e-09
2.93743e-09
1.06825e-08
-4.12756e-09
3.38379e-09
9.7879e-09
-4.05606e-09
3.9546e-09
8.52836e-09
-4.06207e-09
4.4915e-09
6.43352e-09
-3.75143e-09
4.90624e-09
3.25752e-09
-2.78272e-09
4.60613e-09
-4.30128e-10
-7.18602e-10
3.62772e-09
-3.60601e-09
1.62269e-09
2.24116e-09
-5.55189e-09
3.88491e-09
7.4251e-10
-5.73412e-09
4.51836e-09
7.59034e-11
-4.5494e-09
3.94649e-09
-2.96383e-11
-3.25235e-09
3.01024e-09
1.33841e-10
-3.07075e-09
2.35979e-09
4.32191e-10
-4.45627e-09
2.45997e-09
3.49015e-10
-6.75342e-09
3.1058e-09
-2.80533e-10
-8.74821e-09
3.62097e-09
-1.12569e-09
-9.0419e-09
2.4274e-09
-1.27071e-09
-7.57268e-09
-6.81747e-10
-6.30297e-10
-5.63731e-09
-3.97775e-09
3.44245e-10
-4.46346e-09
-5.131e-09
7.92016e-10
-4.0725e-09
-3.86394e-09
4.2508e-10
-3.73415e-09
-1.60543e-09
-1.8466e-10
-2.25703e-09
9.2167e-10
-7.20163e-10
-2.74528e-09
4.78283e-10
1.26837e-09
7.1982e-09
1.26837e-09
5.45688e-09
3.64572e-09
2.21415e-09
8.61631e-09
8.83931e-10
2.77222e-09
1.09542e-08
-2.55573e-09
3.41323e-09
1.20729e-08
-5.54223e-09
3.94212e-09
1.21775e-08
-7.30103e-09
4.27701e-09
1.16785e-08
-7.72426e-09
4.23759e-09
1.0947e-08
-7.43644e-09
4.07356e-09
9.76894e-09
-6.75106e-09
3.90517e-09
7.69809e-09
-5.58309e-09
3.62273e-09
4.44942e-09
-3.57807e-09
3.10474e-09
3.58825e-10
-7.31099e-10
2.06691e-09
-3.5476e-09
2.47542e-09
7.39006e-10
-6.14062e-09
4.40159e-09
-1.60266e-10
-6.66253e-09
4.79863e-09
-3.66539e-10
-5.69545e-09
3.64103e-09
-6.41034e-11
-4.4124e-09
2.18678e-09
5.03337e-10
-4.32549e-09
1.9734e-09
9.78037e-10
-5.76782e-09
2.85473e-09
9.77008e-10
-8.11512e-09
4.5575e-09
2.80757e-10
-9.88467e-09
5.50157e-09
-5.9405e-10
-9.83025e-09
4.36333e-09
-7.63444e-10
-7.90409e-09
3.77182e-10
1.58771e-10
-5.61923e-09
-4.30085e-09
1.37052e-09
-4.6713e-09
-7.23943e-09
2.35155e-09
-4.85e-09
-7.05502e-09
2.14157e-09
-4.74502e-09
-5.56591e-09
1.63625e-09
-3.71621e-09
-4.39279e-09
1.79756e-09
-1.21036e-09
-3.88943e-09
2.3433e-09
-6.25413e-09
2.3305e-09
3.30096e-09
6.22144e-10
3.30096e-09
7.38242e-09
-4.60907e-09
4.22442e-09
1.01106e-08
-6.54673e-09
4.74755e-09
1.14672e-08
-8.84702e-09
4.97873e-09
1.15388e-08
-1.03973e-08
4.82663e-09
1.08198e-08
-1.07637e-08
4.22365e-09
9.97133e-09
-1.03688e-08
3.53386e-09
9.12334e-09
-9.50682e-09
2.95786e-09
7.82306e-09
-8.03927e-09
2.62617e-09
5.49995e-09
-5.5368e-09
2.3124e-09
2.24131e-09
-2.13679e-09
1.85055e-09
-1.23792e-09
1.63539e-09
1.14363e-09
-3.73514e-09
4.11815e-09
8.83485e-10
-4.63176e-09
4.31343e-09
1.01256e-09
-4.08761e-09
2.5771e-09
1.70478e-09
-3.42144e-09
3.59503e-10
2.64322e-09
-4.02041e-09
-6.58286e-10
3.47303e-09
-6.24688e-09
7.64298e-10
3.46606e-09
-9.20298e-09
3.39491e-09
2.44803e-09
-1.12576e-08
5.50225e-09
1.14369e-09
-1.13485e-08
4.85114e-09
7.76768e-10
-9.17578e-09
8.47763e-10
1.38033e-09
-6.68584e-09
-4.59431e-09
2.52111e-09
-5.73956e-09
-8.57581e-09
3.37014e-09
-6.50827e-09
-9.41135e-09
2.98337e-09
-7.09585e-09
-8.18066e-09
1.75627e-09
-6.29287e-09
-7.78764e-09
1.46132e-09
-4.21312e-09
-8.21335e-09
1.78237e-09
-1.57353e-09
-8.23388e-09
1.74476e-09
-9.63337e-09
1.83909e-09
4.81369e-09
-8.97646e-09
4.81369e-09
8.01004e-09
-1.30323e-08
5.28245e-09
1.00402e-08
-1.37888e-08
5.26127e-09
1.05766e-08
-1.42723e-08
4.93761e-09
1.00368e-08
-1.41055e-08
4.29613e-09
9.18856e-09
-1.34388e-08
3.57075e-09
8.48358e-09
-1.26757e-08
3.05833e-09
7.75336e-09
-1.16522e-08
2.9204e-09
6.46606e-09
-9.65622e-09
2.94679e-09
4.29869e-09
-6.22056e-09
2.89103e-09
1.66878e-09
-2.11241e-09
2.64251e-09
-4.13423e-10
1.304e-09
2.4479e-09
-1.22139e-09
2.32375e-09
2.63464e-09
-8.98167e-10
6.71065e-10
3.35023e-09
-7.01503e-10
-1.87065e-09
4.28192e-09
-2.08228e-09
-3.24073e-09
5.01237e-09
-5.12438e-09
-2.16019e-09
4.57647e-09
-8.73064e-09
9.36506e-10
3.46798e-09
-1.14183e-08
3.91607e-09
2.20214e-09
-1.18107e-08
3.90395e-09
2.02844e-09
-9.95995e-09
4.72719e-11
2.99314e-09
-7.80619e-09
-5.51685e-09
4.25345e-09
-7.39352e-09
-1.03122e-08
5.35018e-09
-9.02518e-09
-1.17706e-08
4.87317e-09
-1.04765e-08
-1.13778e-08
3.46504e-09
-1.02192e-08
-1.12238e-08
2.83248e-09
-8.58604e-09
-1.20426e-08
2.66733e-09
-5.90474e-09
-1.33152e-08
2.46477e-09
-1.95459e-09
-1.50473e-08
2.90586e-09
-1.66955e-08
5.14332e-09
5.28968e-09
-1.95249e-08
5.28968e-09
7.76358e-09
-2.07889e-08
5.34154e-09
9.41662e-09
-2.05312e-08
5.14171e-09
9.84188e-09
-1.9358e-08
4.71255e-09
9.47978e-09
-1.78702e-08
4.17894e-09
8.96041e-09
-1.66306e-08
3.76294e-09
8.38045e-09
-1.5695e-08
3.65009e-09
7.40209e-09
-1.43438e-08
3.71933e-09
5.65957e-09
-1.15002e-08
3.63359e-09
3.49846e-09
-7.27476e-09
3.25973e-09
1.73915e-09
-3.05977e-09
2.74826e-09
1.11617e-09
-6.43046e-10
2.60912e-09
1.4915e-09
-1.02348e-09
3.00927e-09
1.62381e-09
-3.1047e-09
3.68e-09
1.48561e-10
-4.52448e-09
4.16558e-09
-3.01396e-09
-3.59575e-09
3.55462e-09
-6.81648e-09
-7.91983e-10
2.47241e-09
-9.50635e-09
2.03179e-09
1.63408e-09
-9.91024e-09
2.38009e-09
1.98116e-09
-8.26838e-09
-9.47951e-10
3.2536e-09
-6.70116e-09
-6.38621e-09
4.91238e-09
-7.11533e-09
-1.13065e-08
6.25248e-09
-9.85608e-09
-1.35127e-08
5.99196e-09
-1.27327e-08
-1.3362e-08
4.51963e-09
-1.33815e-08
-1.46129e-08
3.93542e-09
-1.19175e-08
-1.72874e-08
4.65016e-09
-1.00689e-08
-1.85347e-08
4.69284e-09
-6.07666e-09
-2.12913e-08
4.03235e-09
-5.78074e-10
-2.65988e-08
6.10081e-09
-2.47587e-08
7.52569e-09
5.29491e-09
-3.00825e-08
5.29491e-09
7.60352e-09
-2.82788e-08
5.24254e-09
9.29286e-09
-2.70415e-08
4.87563e-09
1.0118e-08
-2.44931e-08
4.36474e-09
1.03187e-08
-2.19956e-08
3.97997e-09
1.01619e-08
-2.01103e-08
3.69173e-09
9.38897e-09
-1.84422e-08
3.57521e-09
7.70624e-09
-1.59587e-08
3.35163e-09
5.49865e-09
-1.20585e-08
2.818e-09
3.41154e-09
-7.36547e-09
2.2279e-09
2.56751e-09
-4.28812e-09
2.12031e-09
2.91202e-09
-3.51728e-09
2.57583e-09
3.41064e-09
-4.75948e-09
3.28241e-09
2.60209e-09
-6.11193e-09
3.86046e-09
-9.46003e-11
-5.60151e-09
3.8186e-09
-3.6301e-09
-3.26286e-09
3.24804e-09
-6.30592e-09
-8.45035e-10
2.77514e-09
-6.87669e-09
-4.56702e-10
3.10671e-09
-5.71569e-09
-2.96021e-09
4.22836e-09
-4.9416e-09
-7.33459e-09
5.66361e-09
-6.23735e-09
-1.14704e-08
6.43317e-09
-9.57627e-09
-1.37586e-08
5.84617e-09
-1.32617e-08
-1.42745e-08
4.50347e-09
-1.51039e-08
-1.49054e-08
3.44192e-09
-1.41546e-08
-1.9033e-08
3.52659e-09
-1.19241e-08
-2.39645e-08
4.50174e-09
-9.42016e-09
-2.59259e-08
4.94203e-09
-5.06076e-09
-3.09324e-08
5.33676e-09
-1.02973e-09
-3.65701e-08
5.99605e-09
-2.80438e-08
2.30333e-09
4.92681e-09
-3.99029e-08
4.92681e-09
7.47786e-09
-3.53645e-08
4.59901e-09
9.6077e-09
-3.31633e-08
4.04967e-09
1.12074e-08
-2.95778e-08
3.54301e-09
1.22792e-08
-2.62256e-08
3.21721e-09
1.24956e-08
-2.34426e-08
3.17579e-09
1.15393e-08
-2.05868e-08
3.16093e-09
9.44055e-09
-1.68129e-08
3.01266e-09
7.16664e-09
-1.24754e-08
2.74951e-09
5.86264e-09
-8.85051e-09
2.84666e-09
5.6767e-09
-7.47957e-09
3.43376e-09
6.14939e-09