/*--------------------------------*- C++ -*----------------------------------*\
| =========                 |                                                 |
| \\      /  F ield         | OpenFOAM: The Open Source CFD Toolbox           |
|  \\    /   O peration     | Version:  2312                                  |
|   \\  /    A nd           | Website:  www.openfoam.com                      |
|    \\/     M anipulation  |                                                 |
\*---------------------------------------------------------------------------*/
FoamFile
{
    version     2.0;
    format      ascii;
    arch        "LSB;label=32;scalar=64";
    class       volVectorField;
    location    "1.26092662";
    object      U;
}
// * * * * * * * * * * * * * * * * * * * * * * * * * * * * * * * * * * * * * //

dimensions      [0 1 -1 0 0 0 0];

internalField   nonuniform List<vector> 
90000
(
(-2.45856e-05 3.19952e-05 -2.45856e-05)
(-1.26804e-05 -8.36714e-06 -1.63735e-05)
(1.88659e-05 1.62334e-06 -1.43382e-05)
(2.04583e-05 2.01773e-06 -1.27892e-05)
(2.937e-05 3.8766e-07 -1.00758e-05)
(3.52819e-05 -2.26105e-06 -7.30229e-06)
(4.10595e-05 -4.66385e-06 -4.02967e-06)
(4.61379e-05 -5.90456e-06 -9.20018e-07)
(4.83378e-05 -5.32857e-06 1.41879e-06)
(4.57811e-05 -2.72186e-06 2.51401e-06)
(3.8129e-05 1.37107e-06 2.13442e-06)
(2.61539e-05 5.78464e-06 9.66936e-07)
(1.17479e-05 9.36588e-06 -1.07602e-06)
(-1.85271e-06 1.07238e-05 -3.95676e-06)
(-1.11617e-05 9.63955e-06 -6.35088e-06)
(-1.35932e-05 6.65009e-06 -7.73845e-06)
(-8.48189e-06 2.24666e-06 -7.53742e-06)
(1.33259e-06 -2.24949e-06 -5.57077e-06)
(1.05833e-05 -4.71229e-06 -1.88506e-06)
(1.41245e-05 -3.6293e-06 2.16362e-06)
(8.46909e-06 6.42046e-07 4.80379e-06)
(-8.73208e-06 6.76093e-06 5.14023e-06)
(-3.64646e-05 1.2668e-05 2.89485e-06)
(-6.73114e-05 1.55469e-05 -2.20718e-06)
(-9.14653e-05 1.23934e-05 -8.97044e-06)
(-9.76786e-05 2.99142e-06 -1.58311e-05)
(-7.38652e-05 -1.19197e-05 -2.50473e-05)
(-3.37566e-05 -2.0026e-05 -5.01976e-05)
(0.000110241 -1.2275e-05 -0.000107506)
(0.000118728 0.000225001 -0.000242203)
(2.0324e-06 5.4507e-05 2.0324e-06)
(3.35694e-06 -1.81461e-05 1.90519e-06)
(2.3096e-06 -1.1383e-06 1.34199e-06)
(2.12204e-06 -5.70462e-07 5.07856e-07)
(2.9362e-06 -4.41164e-06 5.38003e-08)
(5.35625e-06 -9.57895e-06 -4.72846e-07)
(9.46025e-06 -1.41583e-05 -1.0147e-06)
(1.48574e-05 -1.63191e-05 -1.55125e-06)
(2.08349e-05 -1.47639e-05 -1.94086e-06)
(2.64872e-05 -9.2465e-06 -1.75463e-06)
(3.0835e-05 -9.69253e-07 -7.31333e-07)
(3.34454e-05 7.33924e-06 7.40083e-07)
(3.41677e-05 1.30693e-05 2.89918e-06)
(3.27851e-05 1.4366e-05 5.80105e-06)
(2.91542e-05 1.09222e-05 8.77072e-06)
(2.27931e-05 3.71051e-06 1.10376e-05)
(1.39358e-05 -4.57803e-06 1.22149e-05)
(4.00253e-06 -1.12587e-05 1.18931e-05)
(-5.86117e-06 -1.31248e-05 9.82231e-06)
(-1.51861e-05 -8.28755e-06 6.83187e-06)
(-2.34061e-05 1.9647e-06 4.04157e-06)
(-3.05853e-05 1.44527e-05 1.92896e-06)
(-3.69615e-05 2.48366e-05 8.54363e-07)
(-4.07757e-05 2.65258e-05 1.5022e-06)
(-4.13043e-05 1.60727e-05 4.41834e-06)
(-4.04489e-05 -6.49822e-06 1.21409e-05)
(-3.63532e-05 -4.23232e-05 2.43203e-05)
(-6.35866e-05 -9.73569e-05 5.3565e-05)
(5.5968e-05 -0.000147518 6.83421e-05)
(0.000106757 0.000458893 4.61553e-05)
(9.85721e-06 3.49102e-05 9.85721e-06)
(5.79865e-06 -1.35151e-05 5.75813e-06)
(-9.96538e-06 -4.63108e-07 4.76102e-06)
(-1.46144e-05 -6.96377e-07 3.11437e-06)
(-1.93176e-05 -5.5702e-06 1.39335e-06)
(-2.19387e-05 -1.16104e-05 -6.77893e-07)
(-2.11751e-05 -1.73499e-05 -2.76883e-06)
(-1.61862e-05 -2.08167e-05 -4.61748e-06)
(-6.95199e-06 -2.08943e-05 -5.74415e-06)
(6.26278e-06 -1.71945e-05 -5.79855e-06)
(2.19634e-05 -1.10688e-05 -4.48849e-06)
(3.75492e-05 -4.72131e-06 -1.58453e-06)
(5.01956e-05 -4.76077e-08 2.60239e-06)
(5.6487e-05 1.55234e-06 6.44254e-06)
(5.36037e-05 2.71127e-07 9.95609e-06)
(4.1409e-05 -2.99786e-06 1.21688e-05)
(2.18147e-05 -6.29372e-06 1.19505e-05)
(-1.69178e-06 -8.09351e-06 9.35758e-06)
(-2.31971e-05 -6.74732e-06 5.17672e-06)
(-3.72043e-05 -1.67372e-06 1.97072e-07)
(-4.1195e-05 6.24641e-06 -3.94017e-06)
(-3.44351e-05 1.45226e-05 -5.45435e-06)
(-1.8352e-05 1.94166e-05 -4.72744e-06)
(2.2203e-06 1.49185e-05 -2.14411e-06)
(2.19414e-05 6.03869e-07 7.86479e-07)
(3.65804e-05 -1.95958e-05 2.50016e-06)
(4.16539e-05 -4.17624e-05 9.33596e-06)
(-1.94205e-05 -0.000132247 3.47284e-05)
(-5.72878e-05 -0.000331071 8.50729e-05)
(-1.57376e-05 0.000374414 0.000133135)
(1.13755e-05 1.15726e-05 1.13755e-05)
(5.51701e-06 -1.02865e-06 7.08884e-06)
(-1.47415e-05 7.46389e-06 5.97383e-06)
(-2.19639e-05 6.74823e-06 4.32905e-06)
(-2.94073e-05 2.01416e-06 2.2749e-06)
(-3.49008e-05 -4.88603e-06 -1.92921e-07)
(-3.7011e-05 -1.24672e-05 -2.55023e-06)
(-3.42942e-05 -1.88914e-05 -4.76764e-06)
(-2.61514e-05 -2.32323e-05 -6.29498e-06)
(-1.26462e-05 -2.45876e-05 -6.89545e-06)
(4.88581e-06 -2.33551e-05 -6.38314e-06)
(2.35852e-05 -2.00701e-05 -4.69042e-06)
(3.92731e-05 -1.48157e-05 -2.05068e-06)
(4.81453e-05 -8.2999e-06 9.38555e-07)
(4.76942e-05 -1.089e-06 2.63475e-06)
(3.71376e-05 6.33182e-06 2.59349e-06)
(1.85369e-05 1.21779e-05 9.83822e-07)
(-3.58954e-06 1.56092e-05 -1.69825e-06)
(-2.29095e-05 1.63164e-05 -4.62263e-06)
(-3.3291e-05 1.4819e-05 -7.01234e-06)
(-3.1199e-05 1.21359e-05 -8.47679e-06)
(-1.5559e-05 9.32416e-06 -8.51846e-06)
(1.01399e-05 5.25156e-06 -6.77119e-06)
(3.78724e-05 -2.63053e-06 -3.36968e-06)
(5.99855e-05 -1.47034e-05 1.47961e-06)
(7.54127e-05 -2.73718e-05 2.25978e-06)
(9.51301e-05 -2.50114e-05 -1.19703e-05)
(9.85058e-05 -3.60136e-05 -1.61406e-05)
(-4.74175e-05 -0.00028888 -1.60416e-06)
(-9.33124e-05 0.00019261 5.90873e-05)
(1.08468e-05 -1.25177e-05 1.08468e-05)
(5.96115e-06 1.05568e-05 7.32602e-06)
(-1.19057e-05 1.35795e-05 6.76124e-06)
(-1.79814e-05 1.26327e-05 5.66198e-06)
(-2.51108e-05 9.10608e-06 4.33896e-06)
(-3.11287e-05 2.55301e-06 2.66297e-06)
(-3.50752e-05 -6.05735e-06 9.55901e-07)
(-3.62415e-05 -1.51316e-05 -3.24956e-07)
(-3.38041e-05 -2.30488e-05 -2.05587e-06)
(-2.71076e-05 -2.91018e-05 -3.23764e-06)
(-1.69842e-05 -3.20425e-05 -4.11696e-06)
(-5.07707e-06 -3.06892e-05 -4.57545e-06)
(6.19002e-06 -2.43603e-05 -4.98376e-06)
(1.44258e-05 -1.24747e-05 -5.36085e-06)
(1.8221e-05 3.38777e-06 -6.1667e-06)
(1.64848e-05 2.00289e-05 -7.00877e-06)
(9.64729e-06 3.32155e-05 -7.52052e-06)
(3.62586e-07 3.9823e-05 -7.86077e-06)
(-7.11672e-06 3.77691e-05 -8.21771e-06)
(-8.63291e-06 2.8442e-05 -8.24849e-06)
(-1.34463e-06 1.53542e-05 -7.85041e-06)
(1.45571e-05 2.403e-06 -6.94102e-06)
(3.55363e-05 -8.15383e-06 -5.5439e-06)
(5.64111e-05 -1.58347e-05 -3.5827e-06)
(7.03846e-05 -2.11225e-05 -1.33059e-07)
(7.16677e-05 -2.93929e-05 5.52127e-06)
(6.59293e-05 -2.83841e-05 3.0484e-06)
(8.33886e-05 3.86923e-05 -7.77889e-06)
(-1.45128e-05 -0.000115847 -1.68389e-05)
(-6.76467e-05 9.74824e-05 5.55342e-06)
(6.54125e-06 -3.39431e-05 6.54125e-06)
(5.57656e-06 1.60387e-05 5.10186e-06)
(-2.01684e-06 1.45293e-05 5.41007e-06)
(-3.50425e-06 1.32228e-05 5.51652e-06)
(-6.27985e-06 1.09809e-05 5.72218e-06)
(-9.92581e-06 5.61541e-06 5.73803e-06)
(-1.45085e-05 -2.57516e-06 5.56303e-06)
(-1.98691e-05 -1.23457e-05 5.4283e-06)
(-2.57346e-05 -2.16618e-05 5.07081e-06)
(-3.12162e-05 -2.97122e-05 3.83055e-06)
(-3.49804e-05 -3.45837e-05 1.55128e-06)
(-3.61939e-05 -3.44719e-05 -1.26692e-06)
(-3.41665e-05 -2.79228e-05 -4.31422e-06)
(-2.84063e-05 -1.42681e-05 -7.27155e-06)
(-1.95373e-05 4.99079e-06 -9.53746e-06)
(-9.09109e-06 2.55529e-05 -1.07733e-05)
(1.39955e-06 4.19567e-05 -1.03575e-05)
(1.03966e-05 4.92812e-05 -8.71877e-06)
(1.78263e-05 4.49085e-05 -6.3975e-06)
(2.47018e-05 3.12059e-05 -4.01037e-06)
(3.17785e-05 1.34036e-05 -2.24792e-06)
(3.9743e-05 -3.29473e-06 -1.14326e-06)
(4.80879e-05 -1.46811e-05 -8.53148e-07)
(5.49192e-05 -1.86378e-05 -1.45874e-06)
(5.80162e-05 -1.45137e-05 -3.13607e-06)
(5.27625e-05 -7.96003e-06 -4.21206e-06)
(1.77608e-05 -6.13656e-06 -3.26278e-06)
(2.28429e-05 5.96165e-05 -1.47046e-05)
(-1.42544e-05 5.88145e-07 -2.79127e-05)
(-4.39905e-05 8.08067e-05 -1.83928e-05)
(-1.94056e-06 -4.36989e-05 -1.94056e-06)
(1.83293e-06 1.31167e-05 -6.45057e-07)
(1.06224e-05 8.47165e-06 5.01206e-07)
(1.69485e-05 6.97148e-06 1.3821e-06)
(2.20971e-05 5.81947e-06 3.23103e-06)
(2.37318e-05 2.40474e-06 5.34931e-06)
(2.02601e-05 -3.30043e-06 7.37251e-06)
(1.1111e-05 -1.04842e-05 8.93383e-06)
(-3.16739e-06 -1.79467e-05 9.6456e-06)
(-2.11062e-05 -2.46355e-05 9.06051e-06)
(-3.99525e-05 -2.90676e-05 7.21144e-06)
(-5.55376e-05 -3.01961e-05 3.3314e-06)
(-6.35799e-05 -2.63594e-05 -1.36839e-06)
(-6.16515e-05 -1.663e-05 -5.48655e-06)
(-4.98167e-05 -1.73821e-06 -8.06069e-06)
(-3.02059e-05 1.51387e-05 -8.50489e-06)
(-6.38909e-06 2.92142e-05 -7.00919e-06)
(1.66823e-05 3.57677e-05 -3.82012e-06)
(3.51525e-05 3.2317e-05 3.70447e-07)
(4.7178e-05 2.07013e-05 3.94917e-06)
(5.23485e-05 5.24194e-06 6.26403e-06)
(5.16308e-05 -8.70797e-06 7.11218e-06)
(4.65366e-05 -1.58194e-05 6.76581e-06)
(3.74701e-05 -1.37326e-05 5.46167e-06)
(2.51058e-05 -1.69605e-06 1.99873e-06)
(1.29617e-05 2.19361e-05 -3.85348e-06)
(-1.4967e-05 3.81046e-05 -8.93778e-06)
(-2.46442e-05 8.94691e-05 -1.67554e-05)
(-2.9435e-05 6.84376e-05 -2.35542e-05)
(-2.4264e-05 7.02067e-05 -1.46754e-05)
(-1.31813e-05 -3.29553e-05 -1.31813e-05)
(-5.70438e-06 2.08103e-06 -9.81172e-06)
(2.10727e-05 -2.91148e-06 -8.36984e-06)
(3.58886e-05 -3.88621e-06 -6.58542e-06)
(4.99651e-05 -3.5999e-06 -3.51318e-06)
(5.80159e-05 -3.47979e-06 3.11214e-08)
(5.7415e-05 -3.8346e-06 3.75795e-06)
(4.68818e-05 -5.0063e-06 6.96037e-06)
(2.72002e-05 -6.716e-06 8.90573e-06)
(9.03175e-07 -9.17536e-06 9.12072e-06)
(-2.77586e-05 -1.23452e-05 7.71877e-06)
(-5.29767e-05 -1.61945e-05 5.01778e-06)
(-6.919e-05 -1.92791e-05 2.01305e-06)
(-7.28659e-05 -1.93333e-05 -1.18282e-06)
(-6.31823e-05 -1.53838e-05 -3.03256e-06)
(-4.24765e-05 -8.16604e-06 -2.78525e-06)
(-1.5112e-05 -2.40592e-07 -5.81479e-07)
(1.29496e-05 4.68317e-06 2.82725e-06)
(3.58741e-05 4.35509e-06 6.57647e-06)
(4.98009e-05 -1.60227e-06 9.60579e-06)
(5.35874e-05 -1.04701e-05 1.19477e-05)
(4.85713e-05 -1.77276e-05 1.30579e-05)
(3.65282e-05 -1.79813e-05 1.27694e-05)
(1.88434e-05 -8.62276e-06 1.11593e-05)
(-3.26089e-06 9.83554e-06 8.22523e-06)
(-2.32029e-05 3.93135e-05 2.31653e-06)
(-4.02138e-05 6.57332e-05 -2.54836e-06)
(-4.13433e-05 9.45009e-05 -6.99661e-06)
(-2.34124e-05 8.09543e-05 -6.68595e-06)
(-6.88227e-06 4.73588e-05 4.69961e-06)
(-2.19166e-05 1.56674e-06 -2.19166e-05)
(-1.05719e-05 -1.47667e-05 -1.76697e-05)
(2.99048e-05 -1.60295e-05 -1.62948e-05)
(4.9707e-05 -1.57235e-05 -1.34888e-05)
(6.94637e-05 -1.29304e-05 -9.75895e-06)
(8.1247e-05 -7.83361e-06 -5.4698e-06)
(8.30781e-05 -8.63601e-07 -1.28764e-06)
(7.36654e-05 6.67127e-06 1.85925e-06)
(5.39123e-05 1.27565e-05 4.36473e-06)
(2.69608e-05 1.55532e-05 5.8137e-06)
(-2.78993e-06 1.31402e-05 6.19529e-06)
(-2.96825e-05 4.85946e-06 5.75303e-06)
(-4.89184e-05 -7.75191e-06 5.28661e-06)
(-5.81005e-05 -2.03089e-05 4.94e-06)
(-5.6474e-05 -2.97491e-05 4.87795e-06)
(-4.50613e-05 -3.3992e-05 5.04264e-06)
(-2.6869e-05 -3.33854e-05 6.28227e-06)
(-6.06761e-06 -3.07646e-05 7.85285e-06)
(1.29182e-05 -2.89095e-05 9.30015e-06)
(2.6565e-05 -2.93535e-05 1.03298e-05)
(3.27443e-05 -3.06508e-05 1.09297e-05)
(3.03215e-05 -2.96427e-05 1.13417e-05)
(1.96754e-05 -2.27951e-05 1.11469e-05)
(2.95003e-06 -7.21908e-06 9.83824e-06)
(-1.65825e-05 1.63202e-05 7.73165e-06)
(-3.21286e-05 4.29841e-05 4.97085e-06)
(-3.70681e-05 6.4074e-05 4.48648e-06)
(-2.55404e-05 6.79375e-05 7.24043e-06)
(-9.11514e-07 4.66159e-05 1.35759e-05)
(6.74245e-06 1.61965e-05 1.65025e-05)
(-2.37066e-05 4.87336e-05 -2.37065e-05)
(-9.41679e-06 -3.58609e-05 -1.82895e-05)
(3.51466e-05 -3.07377e-05 -1.59995e-05)
(5.47786e-05 -2.91255e-05 -1.25708e-05)
(7.40184e-05 -2.28118e-05 -8.65451e-06)
(8.42459e-05 -1.1812e-05 -4.90356e-06)
(8.53343e-05 2.82117e-06 -1.6135e-06)
(7.78505e-05 1.89033e-05 1.07545e-06)
(6.34743e-05 3.20281e-05 2.59611e-06)
(4.47247e-05 3.88492e-05 4.24205e-06)
(2.41408e-05 3.59933e-05 6.21273e-06)
(3.92283e-06 2.30292e-05 8.39399e-06)
(-1.38835e-05 2.59679e-06 1.04844e-05)
(-2.82339e-05 -1.98503e-05 1.2316e-05)
(-3.86407e-05 -3.93062e-05 1.3386e-05)
(-4.41474e-05 -5.24459e-05 1.34037e-05)
(-4.386e-05 -5.84049e-05 1.18392e-05)
(-3.73593e-05 -5.8944e-05 9.32222e-06)
(-2.61743e-05 -5.67748e-05 6.73087e-06)
(-1.38265e-05 -5.31769e-05 4.71873e-06)
(-3.90737e-06 -4.80406e-05 3.35551e-06)
(5.66249e-07 -3.95537e-05 2.36936e-06)
(-2.07951e-06 -2.5725e-05 1.1149e-06)
(-9.26272e-06 -5.2625e-06 -1.09532e-07)
(-1.66659e-05 1.95468e-05 -1.02498e-06)
(-1.85842e-05 3.74594e-05 -9.01167e-08)
(-9.2847e-06 4.21343e-05 4.20159e-06)
(7.27873e-06 2.77379e-05 9.22267e-06)
(1.53327e-05 8.41819e-06 1.23327e-05)
(7.79226e-06 3.082e-06 6.77887e-06)
(-1.09471e-05 7.99645e-05 -1.09471e-05)
(4.23045e-06 -6.33072e-05 -4.2912e-06)
(3.44066e-05 -5.07755e-05 -1.59734e-06)
(4.519e-05 -4.66002e-05 1.03224e-06)
(5.35125e-05 -3.63242e-05 3.66941e-06)
(5.5553e-05 -1.96581e-05 4.99226e-06)
(5.34379e-05 1.36502e-06 5.00227e-06)
(4.94562e-05 2.2246e-05 4.15191e-06)
(4.54558e-05 3.89751e-05 3.91736e-06)
(4.19398e-05 4.75479e-05 4.82443e-06)
(3.76421e-05 4.4253e-05 6.96596e-06)
(3.04626e-05 2.95885e-05 1.02468e-05)
(1.82314e-05 7.25573e-06 1.35608e-05)
(1.0254e-07 -1.76049e-05 1.53508e-05)
(-2.22065e-05 -3.89772e-05 1.55658e-05)
(-4.4096e-05 -5.46352e-05 1.32835e-05)
(-6.04774e-05 -6.41162e-05 9.01776e-06)
(-6.77151e-05 -6.8648e-05 3.82342e-06)
(-6.51108e-05 -6.9256e-05 -1.17287e-06)
(-5.51687e-05 -6.58874e-05 -4.72869e-06)
(-4.19981e-05 -5.79895e-05 -6.96809e-06)
(-3.00527e-05 -4.45461e-05 -8.30713e-06)
(-2.18553e-05 -2.47901e-05 -9.29762e-06)
(-1.54309e-05 -1.73122e-06 -9.3031e-06)
(-7.5775e-06 1.8413e-05 -7.69115e-06)
(4.58421e-06 2.61423e-05 -4.06565e-06)
(1.92863e-05 2.02312e-05 4.77968e-07)
(2.57804e-05 8.08091e-06 2.87622e-06)
(1.55902e-05 7.78711e-06 -1.7226e-07)
(3.24476e-06 1.43259e-05 -5.00117e-06)
(1.47333e-05 6.76661e-05 1.47333e-05)
(2.48695e-05 -9.33168e-05 1.86326e-05)
(2.03181e-05 -7.56125e-05 2.17007e-05)
(1.42244e-05 -6.66618e-05 2.10162e-05)
(3.1457e-06 -5.25881e-05 1.91187e-05)
(-6.30266e-06 -3.22738e-05 1.49593e-05)
(-1.17699e-05 -8.56718e-06 9.48941e-06)
(-9.81004e-06 1.38855e-05 4.74112e-06)
(4.69581e-07 3.05517e-05 1.27679e-06)
(1.57335e-05 3.89177e-05 3.59853e-07)
(3.05796e-05 3.73445e-05 1.87038e-06)
(3.812e-05 2.77492e-05 4.59787e-06)
(3.32546e-05 1.28613e-05 6.78637e-06)
(1.60856e-05 -3.50809e-06 7.49506e-06)
(-1.04653e-05 -1.87754e-05 5.24191e-06)
(-4.04419e-05 -3.17524e-05 1.04838e-06)
(-6.58518e-05 -4.30446e-05 -4.02247e-06)
(-8.09596e-05 -5.29814e-05 -8.66392e-06)
(-8.35916e-05 -6.06706e-05 -1.19492e-05)
(-7.56939e-05 -6.32672e-05 -1.36363e-05)
(-6.16298e-05 -5.81877e-05 -1.40945e-05)
(-4.54124e-05 -4.51696e-05 -1.36728e-05)
(-2.88134e-05 -2.54703e-05 -1.22044e-05)
(-1.17952e-05 -5.51863e-06 -9.75012e-06)
(7.20668e-06 7.84601e-06 -5.7013e-06)
(2.54524e-05 1.06927e-05 -1.28409e-06)
(3.52161e-05 8.64057e-06 1.91414e-06)
(2.96541e-05 1.44459e-05 1.5597e-06)
(1.39839e-05 3.05382e-05 -1.80702e-06)
(3.09882e-06 2.4871e-05 1.52898e-06)
(4.20435e-05 -4.87097e-06 4.20435e-05)
(3.83259e-05 -0.000113582 3.91838e-05)
(-1.18974e-05 -9.45833e-05 3.61645e-05)
(-3.45892e-05 -7.98565e-05 2.97131e-05)
(-6.27746e-05 -6.10044e-05 2.18018e-05)
(-8.12173e-05 -3.85285e-05 1.22525e-05)
(-8.64621e-05 -1.63351e-05 2.85151e-06)
(-7.63525e-05 3.07404e-06 -5.08445e-06)
(-5.2376e-05 1.66148e-05 -9.66048e-06)
(-2.02617e-05 2.3517e-05 -1.11884e-05)
(1.05677e-05 2.65575e-05 -1.06261e-05)
(3.01137e-05 2.87271e-05 -9.72572e-06)
(3.33487e-05 2.98041e-05 -9.2908e-06)
(2.1219e-05 2.9766e-05 -1.02648e-05)
(-1.54307e-06 2.584e-05 -1.24383e-05)
(-2.77671e-05 1.71319e-05 -1.4776e-05)
(-5.04933e-05 2.67025e-06 -1.65877e-05)
(-6.4786e-05 -1.58061e-05 -1.76045e-05)
(-6.91186e-05 -3.41299e-05 -1.7555e-05)
(-6.50861e-05 -4.67844e-05 -1.63969e-05)
(-5.5551e-05 -4.98434e-05 -1.44201e-05)
(-4.19138e-05 -4.35395e-05 -1.20024e-05)
(-2.42572e-05 -3.1197e-05 -8.927e-06)
(-3.4278e-06 -1.93412e-05 -5.24394e-06)
(1.78911e-05 -1.18552e-05 -8.96162e-07)
(3.35989e-05 -7.31027e-06 3.57322e-06)
(3.67141e-05 2.66974e-06 5.90371e-06)
(2.81969e-05 2.24771e-05 6.22823e-06)
(1.93671e-05 3.70364e-05 8.17648e-06)
(8.87712e-06 2.29309e-05 1.3223e-05)
(5.09905e-05 -0.000112541 5.09905e-05)
(2.88783e-05 -0.000100736 3.44633e-05)
(-5.49694e-05 -8.27038e-05 2.74597e-05)
(-8.91527e-05 -6.4136e-05 1.73278e-05)
(-0.000123055 -4.24682e-05 6.11514e-06)
(-0.000140909 -2.20292e-05 -4.47159e-06)
(-0.000139456 -7.10525e-06 -1.26745e-05)
(-0.000118419 7.46511e-07 -1.68379e-05)
(-8.30557e-05 5.50493e-06 -1.85484e-05)
(-4.26136e-05 1.01984e-05 -1.86041e-05)
(-5.78437e-06 2.03404e-05 -1.754e-05)
(1.84827e-05 3.67375e-05 -1.68152e-05)
(2.7094e-05 5.57619e-05 -1.71778e-05)
(2.3476e-05 7.16657e-05 -1.80801e-05)
(1.20044e-05 7.83301e-05 -1.86744e-05)
(-2.24997e-06 7.24859e-05 -1.85608e-05)
(-1.53125e-05 5.38298e-05 -1.7438e-05)
(-2.52647e-05 2.63651e-05 -1.51751e-05)
(-3.24568e-05 -1.97157e-06 -1.22288e-05)
(-3.70329e-05 -2.41081e-05 -9.5231e-06)
(-3.81176e-05 -3.63883e-05 -7.56742e-06)
(-3.39795e-05 -3.93928e-05 -6.11052e-06)
(-2.30695e-05 -3.66121e-05 -4.91315e-06)
(-6.30119e-06 -3.24351e-05 -3.6648e-06)
(1.09971e-05 -2.7694e-05 -2.19727e-06)
(2.1726e-05 -1.63265e-05 -1.07646e-06)
(2.36253e-05 4.47048e-06 -9.05893e-07)
(2.21018e-05 2.48925e-05 1.53226e-06)
(1.8385e-05 3.23621e-05 6.62143e-06)
(8.07624e-06 2.8372e-05 1.19955e-06)
(3.09521e-05 -0.000183908 3.09521e-05)
(-7.37072e-06 -3.75288e-05 1.1155e-05)
(-9.02412e-05 -2.73337e-05 2.41455e-06)
(-0.000122825 -1.17861e-05 -7.64251e-06)
(-0.000147807 3.93069e-06 -1.45413e-05)
(-0.000154167 1.17273e-05 -1.75248e-05)
(-0.000141029 9.72868e-06 -1.81648e-05)
(-0.000111969 9.52276e-07 -1.7235e-05)
(-7.56042e-05 -5.40087e-06 -1.46044e-05)
(-4.03609e-05 -1.9839e-06 -1.2467e-05)
(-1.12998e-05 1.54768e-05 -1.12372e-05)
(8.12168e-06 4.31887e-05 -1.17447e-05)
(1.93112e-05 7.51477e-05 -1.28882e-05)
(2.60866e-05 0.000100787 -1.34583e-05)
(2.96526e-05 0.000112032 -1.23653e-05)
(3.03863e-05 0.00010613 -9.66319e-06)
(2.72399e-05 8.477e-05 -5.66676e-06)
(1.86437e-05 5.33743e-05 -1.33809e-06)
(4.80952e-06 2.14343e-05 2.15505e-06)
(-1.1981e-05 -4.27161e-06 3.69741e-06)
(-2.73287e-05 -2.14129e-05 2.8235e-06)
(-3.54031e-05 -3.07618e-05 2.06785e-07)
(-3.36644e-05 -3.44427e-05 -2.86547e-06)
(-2.47946e-05 -3.31246e-05 -5.31401e-06)
(-1.39269e-05 -2.45308e-05 -7.42931e-06)
(-5.79971e-06 -5.06326e-06 -9.86545e-06)
(-1.65034e-06 1.99619e-05 -1.14793e-05)
(3.1176e-06 3.72317e-05 -1.06149e-05)
(-2.2022e-06 4.93355e-05 -1.21051e-05)
(-5.63668e-06 5.46027e-05 -1.95248e-05)
(-3.38112e-06 -0.00017576 -3.38112e-06)
(-4.57671e-05 5.60457e-05 -1.80915e-05)
(-9.56522e-05 4.90713e-05 -1.94439e-05)
(-0.000113935 5.23172e-05 -2.11254e-05)
(-0.000119905 5.0561e-05 -1.96251e-05)
(-0.000109605 3.63495e-05 -1.6212e-05)
(-8.79995e-05 1.342e-05 -1.09428e-05)
(-6.30186e-05 -9.62456e-06 -5.52128e-06)
(-4.03755e-05 -2.24621e-05 -1.13218e-06)
(-2.34449e-05 -1.77054e-05 9.9149e-07)
(-1.242e-05 5.68235e-06 1.09225e-07)
(-3.24092e-06 4.03961e-05 -2.48691e-06)
(8.84168e-06 7.70415e-05 -5.19881e-06)
(2.50327e-05 0.000103876 -5.44983e-06)
(4.16884e-05 0.00011493 -3.20461e-06)
(5.34557e-05 0.000109183 1.27499e-06)
(5.57718e-05 8.97798e-05 6.62016e-06)
(4.59313e-05 6.25994e-05 1.05901e-05)
(2.49103e-05 3.53445e-05 1.21241e-05)
(-1.50282e-06 1.23976e-05 1.0884e-05)
(-2.50922e-05 -5.51759e-06 7.9303e-06)
(-3.88454e-05 -1.87958e-05 4.57532e-06)
(-4.23577e-05 -2.69171e-05 1.91837e-06)
(-4.05053e-05 -2.5395e-05 -6.01409e-08)
(-3.79295e-05 -1.10635e-05 -2.38076e-06)
(-3.58064e-05 1.28781e-05 -5.03462e-06)
(-3.20719e-05 3.74741e-05 -7.00361e-06)
(-2.75041e-05 5.74285e-05 -9.35526e-06)
(-2.50571e-05 7.8944e-05 -1.43249e-05)
(-1.30641e-05 6.68737e-05 -8.28533e-06)
(-2.51106e-05 -0.000100358 -2.51106e-05)
(-5.63924e-05 0.000137667 -2.58464e-05)
(-6.55695e-05 0.0001083 -2.26378e-05)
(-6.32542e-05 9.37274e-05 -1.9521e-05)
(-5.10031e-05 7.01069e-05 -1.32617e-05)
(-3.26282e-05 3.6052e-05 -5.92876e-06)
(-1.50128e-05 -5.77832e-07 8.76153e-07)
(-4.62173e-06 -2.81955e-05 5.9632e-06)
(-3.79624e-06 -3.86611e-05 7.77696e-06)
(-9.6874e-06 -2.76782e-05 5.25903e-06)
(-1.51617e-05 8.79464e-07 3.18469e-07)
(-1.27252e-05 3.60872e-05 -4.36959e-06)
(7.89287e-07 6.80778e-05 -6.39116e-06)
(2.3001e-05 8.95404e-05 -5.54204e-06)
(4.58012e-05 9.82826e-05 -1.66448e-06)
(6.04708e-05 9.5611e-05 3.50679e-06)
(6.18162e-05 8.40645e-05 7.25721e-06)
(4.89262e-05 6.72926e-05 9.0238e-06)
(2.6576e-05 4.82601e-05 9.20918e-06)
(2.51191e-06 2.81161e-05 8.70528e-06)
(-1.63571e-05 7.03846e-06 8.39522e-06)
(-2.70823e-05 -1.30497e-05 9.34995e-06)
(-3.2317e-05 -2.71258e-05 1.16721e-05)
(-3.77769e-05 -2.69501e-05 1.34007e-05)
(-4.51364e-05 -1.10865e-05 1.32957e-05)
(-4.96064e-05 1.18283e-05 1.27337e-05)
(-4.80007e-05 3.24812e-05 1.1928e-05)
(-4.18159e-05 5.19962e-05 1.11726e-05)
(-2.2755e-05 6.38272e-05 1.24393e-05)
(-4.45488e-06 2.85113e-05 2.80691e-05)
(-2.79927e-05 -1.04804e-05 -2.79927e-05)
(-3.79117e-05 0.000176123 -2.12318e-05)
(-1.69917e-05 0.000132619 -1.7454e-05)
(-2.95315e-06 0.00010255 -1.28306e-05)
(1.57074e-05 6.44697e-05 -7.22412e-06)
(3.14626e-05 2.27934e-05 -2.13168e-06)
(3.85779e-05 -1.29657e-05 1.00826e-06)
(3.35445e-05 -3.17056e-05 1.74e-06)
(1.76812e-05 -3.16065e-05 -9.39468e-07)
(-1.15149e-07 -1.38691e-05 -4.67663e-06)
(-1.04296e-05 1.21413e-05 -8.07959e-06)
(-8.13083e-06 3.68812e-05 -9.19286e-06)
(6.63528e-06 5.63596e-05 -7.91484e-06)
(2.6824e-05 6.92126e-05 -3.8923e-06)
(4.38024e-05 7.6769e-05 9.43929e-07)
(5.10275e-05 8.03174e-05 4.24636e-06)
(4.71502e-05 7.93236e-05 5.72846e-06)
(3.50413e-05 7.26156e-05 5.63752e-06)
(2.03489e-05 5.8465e-05 5.03968e-06)
(8.21851e-06 3.59405e-05 5.94512e-06)
(3.22149e-07 7.75878e-06 8.69392e-06)
(-6.47215e-06 -1.95893e-05 1.23298e-05)
(-1.68334e-05 -3.71542e-05 1.53798e-05)
(-3.14235e-05 -3.77392e-05 1.6232e-05)
(-4.47316e-05 -2.49339e-05 1.56638e-05)
(-4.92245e-05 -1.13392e-05 1.58546e-05)
(-4.31089e-05 -2.54795e-06 1.80852e-05)
(-2.83578e-05 2.72122e-06 2.2263e-05)
(-3.03012e-06 -8.96313e-06 3.04467e-05)
(6.44839e-06 -2.9011e-05 2.73795e-05)
(-2.32023e-05 5.02647e-05 -2.32023e-05)
(-1.38807e-05 0.000175346 -1.55947e-05)
(2.07429e-05 0.000129952 -1.45298e-05)
(3.56448e-05 9.43279e-05 -1.21498e-05)
(5.4526e-05 5.3388e-05 -9.48986e-06)
(6.52802e-05 1.58948e-05 -7.37421e-06)
(6.53298e-05 -8.44449e-06 -5.96127e-06)
(5.50905e-05 -1.47517e-05 -5.44721e-06)
(3.88695e-05 -7.54826e-06 -5.65764e-06)
(2.32851e-05 7.62202e-06 -5.49552e-06)
(1.52251e-05 2.14465e-05 -3.22286e-06)
(1.70773e-05 2.95026e-05 1.19527e-06)
(2.43161e-05 3.6434e-05 6.61498e-06)
(2.95761e-05 4.31341e-05 1.14975e-05)
(2.90898e-05 5.30969e-05 1.32927e-05)
(2.33413e-05 6.43257e-05 1.19405e-05)
(1.55322e-05 7.13263e-05 8.89026e-06)
(9.73907e-06 6.89413e-05 6.53287e-06)
(7.69669e-06 5.45265e-05 6.11803e-06)
(7.36367e-06 2.90468e-05 7.32916e-06)
(4.07349e-06 -9.93562e-07 9.46582e-06)
(-8.25649e-06 -2.57176e-05 1.00288e-05)
(-2.924e-05 -3.57225e-05 7.24273e-06)
(-4.96536e-05 -3.10183e-05 7.14816e-07)
(-5.89347e-05 -2.42646e-05 -3.57385e-06)
(-5.35208e-05 -2.55064e-05 -3.41229e-06)
(-3.89023e-05 -2.95593e-05 -9.26071e-07)
(-1.9585e-05 -3.54859e-05 1.00897e-06)
(-1.05417e-05 -4.37731e-05 -4.97151e-07)
(-6.15811e-06 -2.68249e-05 -1.73881e-05)
(-1.73775e-05 8.30867e-05 -1.73775e-05)
(-5.53618e-07 0.000154946 -1.36292e-05)
(3.83212e-05 0.000114285 -1.35087e-05)
(5.63679e-05 7.98239e-05 -1.16395e-05)
(7.65058e-05 4.1634e-05 -8.89175e-06)
(8.82743e-05 1.15956e-05 -4.87131e-06)
(9.01141e-05 -4.13413e-06 -1.40674e-06)
(8.31112e-05 -5.47297e-06 2.05558e-06)
(7.21673e-05 9.92283e-08 5.82706e-06)
(6.22659e-05 5.35727e-06 1.09613e-05)
(5.46635e-05 6.85919e-06 1.65942e-05)
(4.65406e-05 2.73244e-06 2.22035e-05)
(3.30869e-05 3.78299e-06 2.5764e-05)
(1.37368e-05 1.30343e-05 2.42899e-05)
(-6.66833e-06 3.02309e-05 1.87838e-05)
(-2.16237e-05 4.83528e-05 1.19079e-05)
(-2.55953e-05 5.76733e-05 6.62862e-06)
(-1.99409e-05 5.32723e-05 4.38528e-06)
(-1.10145e-05 3.74936e-05 4.91389e-06)
(-7.76982e-06 1.56809e-05 6.28415e-06)
(-1.79782e-05 -3.32314e-06 5.81799e-06)
(-4.07501e-05 -1.14193e-05 8.81269e-07)
(-6.59811e-05 -8.6564e-06 -7.32728e-06)
(-7.97849e-05 -4.55255e-06 -1.27999e-05)
(-7.42892e-05 -1.27943e-05 -1.39262e-05)
(-5.63989e-05 -2.69385e-05 -1.30454e-05)
(-3.91475e-05 -3.1303e-05 -1.27385e-05)
(-2.686e-05 -2.40046e-05 -1.54221e-05)
(-3.01189e-05 -1.67793e-06 -2.6371e-05)
(-1.9786e-05 4.62513e-06 -2.80928e-05)
(-1.23218e-05 9.74754e-05 -1.23218e-05)
(9.74286e-06 0.000121826 -7.96735e-06)
(5.32106e-05 8.76434e-05 -5.88271e-06)
(7.64267e-05 5.24968e-05 -1.18527e-06)
(9.86573e-05 1.60081e-05 4.29577e-06)
(0.000110993 -1.01725e-05 9.2335e-06)
(0.000113743 -2.20967e-05 1.33529e-05)
(0.000110083 -2.39118e-05 1.70322e-05)
(0.000102489 -2.26894e-05 2.09821e-05)
(9.17452e-05 -2.45172e-05 2.53054e-05)
(7.54209e-05 -2.73371e-05 2.91935e-05)
(4.91709e-05 -2.81079e-05 2.83363e-05)
(1.40019e-05 -1.70075e-05 2.30444e-05)
(-2.13574e-05 4.34565e-06 1.45506e-05)
(-4.76824e-05 2.90573e-05 4.1777e-06)
(-5.81636e-05 4.32777e-05 -2.19323e-06)
(-5.20492e-05 4.4775e-05 -3.90431e-06)
(-3.76684e-05 3.62195e-05 -2.74334e-06)
(-2.88145e-05 2.47062e-05 1.23648e-07)
(-3.483e-05 1.65163e-05 -3.61155e-08)
(-5.47148e-05 1.56835e-05 -4.45455e-06)
(-7.86045e-05 2.10783e-05 -1.07675e-05)
(-9.13293e-05 2.07256e-05 -1.40023e-05)
(-8.47602e-05 4.81523e-06 -1.22188e-05)
(-6.58375e-05 -2.40192e-05 -6.35621e-06)
(-4.92272e-05 -4.03677e-05 -1.44449e-06)
(-4.11989e-05 -3.3922e-05 -2.63131e-06)
(-3.9138e-05 -9.07339e-06 -6.89052e-06)
(-3.15497e-05 2.3742e-05 -1.16172e-05)
(-1.23608e-05 -8.40015e-06 -3.19154e-06)
(-6.01283e-07 8.90502e-05 -6.01281e-07)
(2.97156e-05 7.03579e-05 6.22521e-06)
(7.35221e-05 4.06407e-05 1.05519e-05)
(9.86769e-05 4.61016e-06 1.57025e-05)
(0.000116308 -2.94788e-05 1.96918e-05)
(0.000122142 -5.15915e-05 2.24825e-05)
(0.000119712 -5.95276e-05 2.33874e-05)
(0.000113316 -5.95587e-05 2.32779e-05)
(0.000103852 -5.67336e-05 2.31193e-05)
(8.80456e-05 -5.24969e-05 2.23657e-05)
(6.19084e-05 -4.2489e-05 2.00632e-05)
(2.45572e-05 -2.34691e-05 1.37751e-05)
(-1.69468e-05 5.06677e-06 4.68345e-06)
(-5.07331e-05 3.02957e-05 -3.5065e-06)
(-6.61764e-05 4.58627e-05 -6.26324e-06)
(-6.25727e-05 4.31069e-05 -6.30983e-06)
(-4.96812e-05 3.17053e-05 -2.02834e-06)
(-4.09315e-05 2.4614e-05 1.90015e-06)
(-4.75636e-05 2.53175e-05 2.32976e-06)
(-6.84166e-05 3.49729e-05 -3.14696e-06)
(-9.1506e-05 4.5457e-05 -1.03487e-05)
(-0.000101732 4.5035e-05 -1.36495e-05)
(-9.06872e-05 2.11705e-05 -9.94756e-06)
(-6.66057e-05 -2.1284e-05 -5.87287e-07)
(-4.84126e-05 -5.6524e-05 8.26752e-06)
(-4.59004e-05 -6.21974e-05 8.42275e-06)
(-4.82636e-05 -4.72757e-05 5.04011e-06)
(-4.52538e-05 -2.613e-05 5.29805e-06)
(-2.40524e-05 -1.12513e-05 8.79795e-06)
(-2.8902e-06 -4.49243e-05 8.61969e-06)
(1.4355e-05 4.52129e-05 1.4355e-05)
(5.26828e-05 -3.56114e-06 2.06416e-05)
(8.97666e-05 -2.72614e-05 2.44969e-05)
(0.000109271 -5.71897e-05 2.70199e-05)
(0.000116216 -8.15682e-05 2.72577e-05)
(0.000112222 -9.26047e-05 2.44774e-05)
(0.000103828 -9.26939e-05 2.07505e-05)
(9.53508e-05 -8.65054e-05 1.73807e-05)
(8.51594e-05 -7.54419e-05 1.5309e-05)
(6.75947e-05 -5.65859e-05 1.35129e-05)
(3.95181e-05 -2.70298e-05 1.03322e-05)
(4.51153e-06 7.91306e-06 5.30128e-06)
(-2.66462e-05 3.80162e-05 2.30038e-06)
(-4.38253e-05 4.96522e-05 1.83819e-06)
(-4.45857e-05 4.25644e-05 5.7102e-06)
(-3.68266e-05 2.3823e-05 1.15706e-05)
(-3.48462e-05 8.15247e-06 1.75638e-05)
(-4.90372e-05 1.23161e-05 1.82312e-05)
(-7.67794e-05 3.19042e-05 1.13278e-05)
(-0.000103993 5.29772e-05 1.42928e-06)
(-0.000115888 5.73331e-05 -3.94348e-06)
(-0.000104511 3.28132e-05 -1.58216e-06)
(-7.75005e-05 -1.6667e-05 6.83756e-06)
(-5.76984e-05 -6.50889e-05 1.37198e-05)
(-5.89738e-05 -8.48298e-05 1.24571e-05)
(-6.9177e-05 -7.63989e-05 4.21065e-06)
(-6.89111e-05 -6.5442e-05 2.67021e-07)
(-5.42468e-05 -6.18456e-05 1.3107e-06)
(-2.79285e-05 -5.92063e-05 1.14189e-06)
(-6.04304e-06 -7.61098e-05 3.38714e-07)
(2.49679e-05 -3.79614e-05 2.49679e-05)
(6.54413e-05 -8.8382e-05 2.85207e-05)
(9.21725e-05 -0.000102203 2.96459e-05)
(0.000104788 -0.000117004 2.87909e-05)
(0.000104028 -0.000124198 2.55749e-05)
(9.58601e-05 -0.000122117 2.13186e-05)
(8.74856e-05 -0.000115083 1.80257e-05)
(8.08294e-05 -0.000104949 1.6677e-05)
(7.14584e-05 -8.73403e-05 1.64642e-05)
(5.42422e-05 -5.7598e-05 1.58559e-05)
(2.96755e-05 -1.78227e-05 1.39756e-05)
(4.67141e-06 1.85722e-05 1.2306e-05)
(-1.03856e-05 3.62133e-05 1.28727e-05)
(-1.15082e-05 2.81505e-05 1.70959e-05)
(-6.61479e-06 2.79072e-06 2.29874e-05)
(-1.05743e-05 -1.77718e-05 2.82781e-05)
(-3.38241e-05 -2.07086e-05 2.67036e-05)
(-6.93363e-05 5.42777e-06 1.9802e-05)
(-0.000102841 3.86546e-05 9.91276e-06)
(-0.00011927 5.14596e-05 6.66106e-06)
(-0.000110236 3.03547e-05 1.11827e-05)
(-8.67475e-05 -2.03019e-05 2.02012e-05)
(-7.13337e-05 -7.59865e-05 2.76377e-05)
(-7.95376e-05 -0.000104821 2.55816e-05)
(-9.85939e-05 -0.000103316 1.67361e-05)
(-0.00010523 -9.33073e-05 1.09275e-05)
(-9.51704e-05 -9.58783e-05 7.87217e-06)
(-7.72616e-05 -0.000104166 4.69613e-06)
(-3.73673e-05 -0.000107318 6.80953e-06)
(-3.61067e-06 -0.000126649 2.53525e-05)
(2.95762e-05 -0.000141709 2.95762e-05)
(6.8218e-05 -0.000170251 3.06658e-05)
(8.74064e-05 -0.000173118 3.06488e-05)
(9.78627e-05 -0.000169718 2.89611e-05)
(9.7098e-05 -0.000160694 2.61017e-05)
(9.17739e-05 -0.00015056 2.36949e-05)
(8.63727e-05 -0.000142077 2.24332e-05)
(7.90396e-05 -0.000130653 2.24497e-05)
(6.5564e-05 -0.000107225 2.16412e-05)
(4.55659e-05 -6.85336e-05 1.89247e-05)
(2.49954e-05 -2.54707e-05 1.47959e-05)
(1.23798e-05 4.82823e-06 1.31346e-05)
(1.2053e-05 7.49964e-06 1.51613e-05)
(1.69182e-05 -1.32784e-05 1.90789e-05)
(1.32288e-05 -3.68577e-05 2.27522e-05)
(-1.09966e-05 -3.956e-05 1.97676e-05)
(-4.94462e-05 -1.75957e-05 1.26008e-05)
(-8.3618e-05 1.6734e-05 6.10422e-06)
(-0.000100279 3.62386e-05 7.11616e-06)
(-9.24605e-05 1.91411e-05 1.5078e-05)
(-7.2652e-05 -3.03618e-05 2.59869e-05)
(-6.48743e-05 -8.86982e-05 3.57138e-05)
(-8.21239e-05 -0.000125283 3.60349e-05)