/*--------------------------------*- C++ -*----------------------------------*\
| =========                 |                                                 |
| \\      /  F ield         | OpenFOAM: The Open Source CFD Toolbox           |
|  \\    /   O peration     | Version:  2312                                  |
|   \\  /    A nd           | Website:  www.openfoam.com                      |
|    \\/     M anipulation  |                                                 |
\*---------------------------------------------------------------------------*/
FoamFile
{
    version     2.0;
    format      ascii;
    arch        "LSB;label=32;scalar=64";
    class       surfaceScalarField;
    location    "0.39227";
    object      alphaPhi0.water;
}
// * * * * * * * * * * * * * * * * * * * * * * * * * * * * * * * * * * * * * //

dimensions      [0 3 -1 0 0 0 0];

oriented        oriented;

internalField   nonuniform List<scalar> 
263100
(
1.70697e-10
-3.41394e-10
1.70697e-10
-2.6135e-10
1.90269e-10
5.77556e-12
-4.91027e-10
5.44317e-11
-1.71345e-11
-6.22964e-10
2.90512e-12
-4.61264e-11
-6.78941e-10
-3.87421e-11
-5.92253e-11
-6.59596e-10
-8.62816e-11
-6.17699e-11
-5.73533e-10
-1.34032e-10
-5.32121e-11
-4.48595e-10
-1.55748e-10
-4.20309e-11
-3.24467e-10
-1.37474e-10
-3.17508e-11
-2.27162e-10
-8.43265e-11
-3.25167e-11
-1.63804e-10
-1.21587e-11
-4.91734e-11
-1.1492e-10
5.82929e-11
-8.93225e-11
-6.01958e-11
1.07969e-10
-1.3604e-10
2.25174e-11
1.22405e-10
-1.77168e-10
1.52481e-10
9.50593e-11
-2.02739e-10
3.22337e-10
3.94518e-11
-1.98171e-10
4.88642e-10
-1.43437e-11
-1.55306e-10
5.96528e-10
-4.87142e-11
-7.79573e-11
6.11942e-10
-4.00701e-11
-8.28596e-12
4.83956e-10
1.12055e-11
7.27224e-11
2.23724e-10
8.41677e-11
1.25103e-10
-1.49457e-10
1.79614e-10
1.40448e-10
-5.99636e-10
2.69815e-10
1.29717e-10
-1.03396e-09
3.10296e-10
7.97241e-11
-1.33924e-09
2.42018e-10
2.76551e-11
-1.40152e-09
3.99894e-11
-4.63468e-12
-1.20076e-09
-1.91408e-10
-3.05507e-11
-7.65088e-10
-4.75951e-10
1.90492e-11
-1.35986e-10
-7.42203e-10
8.48041e-11
-8.24945e-10
6.48043e-10
-6.48027e-11
-4.56764e-10
-6.48027e-11
-1.90547e-10
1.74887e-11
-5.84857e-11
-2.47202e-10
-1.36823e-10
-5.52272e-11
-2.90196e-10
-1.80254e-10
-4.08906e-11
-3.13332e-10
-2.19309e-10
-2.18864e-11
-3.17372e-10
-2.5501e-10
-7.78269e-12
-2.99628e-10
-2.85e-10
-1.15043e-12
-2.65034e-10
-2.78056e-10
-1.64213e-12
-2.17577e-10
-2.21974e-10
-1.09213e-11
-1.56656e-10
-1.34211e-10
-2.39937e-11
-7.96447e-11
-3.90212e-11
-3.71649e-11
1.13996e-11
4.15828e-11
-4.64732e-11
1.09289e-10
8.54287e-11
-4.44137e-11
2.00776e-10
8.63472e-11
-3.2364e-11
2.74373e-10
4.2568e-11
-1.44994e-11
3.02717e-10
-1.47437e-11
1.07994e-11
2.84834e-10
-5.71088e-11
2.25249e-11
2.28087e-10
-5.47042e-11
3.56917e-12
1.36749e-10
-6.90496e-13
-2.35865e-11
1.42387e-11
1.05791e-10
-5.77561e-11
-1.05236e-10
2.15663e-10
-1.01152e-10
-2.16482e-10
3.13401e-10
-1.08973e-10
-2.75784e-10
3.48104e-10
-9.80497e-11
-2.5931e-10
2.79425e-10
-5.50257e-11
-1.81792e-10
7.76199e-11
2.60694e-11
-5.88265e-11
-2.64736e-10
1.24641e-10
1.45615e-10
-6.83865e-10
2.26197e-10
2.9606e-10
-9.88067e-10
2.8535e-10
1.66296e-10
-1.06247e-09
3.51845e-10
-1.16067e-09
3.92515e-10
-3.50728e-11
-5.70869e-10
-3.50728e-11
4.85838e-11
-3.20318e-10
1.24333e-12
1.05633e-10
-4.26198e-10
1.81486e-11
1.23045e-10
-4.29774e-10
4.16242e-11
1.02949e-10
-4.24699e-10
6.00775e-11
5.70884e-11
-4.14493e-10
6.58135e-11
-4.12569e-12
-3.92498e-10
5.49377e-11
-5.55645e-11
-3.48153e-10
3.24576e-11
-7.24162e-11
-2.81421e-10
9.68547e-12
-4.06502e-11
-2.04402e-10
-9.40438e-12
3.85995e-11
-1.3613e-10
-1.62526e-11
1.45648e-10
-8.65432e-11
-5.23742e-12
2.44733e-10
-6.01726e-11
2.20693e-11
2.92818e-10
-5.33495e-11
6.40713e-11
2.61712e-10
-5.99969e-11
9.97617e-11
1.4997e-10
-5.09581e-11
1.06342e-10
-1.60638e-11
-2.24033e-11
8.23637e-11
-1.97423e-10
4.02708e-11
3.14322e-11
-3.3738e-10
1.23725e-10
-4.38741e-11
-3.76553e-10
2.06945e-10
-1.24919e-10
-2.96679e-10
2.54177e-10
-1.84897e-10
-9.31042e-11
2.48864e-10
-2.10178e-10
2.08611e-10
1.60802e-10
-1.91997e-10
5.42721e-10
-2.81945e-11
-1.12784e-10
8.32628e-10
-2.82571e-10
-2.73457e-11
9.96103e-10
-6.34284e-10
9.41844e-11
9.63008e-10
-9.7367e-10
1.94076e-10
8.03731e-10
-1.16667e-09
1.91246e-10
3.27628e-10
-8.50598e-10
1.02243e-10
-8.08764e-10
-1.80963e-10
3.7439e-11
-7.80918e-10
3.7439e-11
2.546e-10
-7.83605e-10
8.96181e-11
3.9017e-10
-8.10829e-10
1.14243e-10
4.59841e-10
-7.62197e-10
1.37916e-10
4.53663e-10
-6.87132e-10
1.51709e-10
3.87216e-10
-6.03716e-10
1.45234e-10
2.8587e-10
-5.18481e-10
1.22395e-10
1.8332e-10
-4.35665e-10
9.00742e-11
1.14415e-10
-3.6605e-10
5.8097e-11
9.78868e-11
-3.16344e-10
3.71455e-11
1.28275e-10
-2.85003e-10
3.08013e-11
1.83007e-10
-2.678e-10
4.22556e-11
2.15141e-10
-2.44682e-10
7.18548e-11
1.88731e-10
-2.03212e-10
1.00585e-10
9.22506e-11
-1.40567e-10
1.07872e-10
-6.86563e-11
-4.74335e-11
9.64176e-11
-2.6533e-10
6.32688e-11
5.91437e-11
-4.33779e-10
1.61913e-10
3.2239e-12
-5.12461e-10
2.23706e-10
-5.98225e-11
-4.54598e-10
2.17086e-10
-1.07194e-10
-2.44269e-10
1.40984e-10
-1.44628e-10
1.14199e-10
-2.19396e-11
-1.51736e-10
5.27544e-10
-2.14651e-10
-1.25841e-10
9.09714e-10
-4.44722e-10
-8.22956e-11
1.17545e-09
-6.56287e-10
-3.88443e-11
1.19269e-09
-8.24501e-10
-1.96924e-12
9.31465e-10
-9.15942e-10
5.53647e-12
5.48106e-10
-9.59406e-10
-3.6695e-11
1.27012e-10
-5.28206e-10
-1.16215e-10
-4.64242e-10
-3.93079e-10
1.21163e-10
-1.10022e-09
1.21163e-10
4.23959e-10
-1.33138e-09
1.84408e-10
6.09169e-10
-1.26253e-09
2.09822e-10
7.11011e-10
-1.14646e-09
2.22303e-10
7.31141e-10
-9.89484e-10
2.14437e-10
6.78238e-10
-8.20113e-10
1.9108e-10
5.73325e-10
-6.62235e-10
1.58875e-10
4.48443e-10
-5.35181e-10
1.23425e-10
3.34858e-10
-4.5649e-10
9.36125e-11
2.46211e-10
-4.19735e-10
7.51084e-11
1.79617e-10
-4.07899e-10
7.00192e-11
1.16057e-10
-3.95807e-10
7.44724e-11
4.30837e-11
-3.56928e-10
7.60548e-11
-4.96421e-11
-2.77989e-10
7.18537e-11
-1.72168e-10
-1.50239e-10
5.47936e-11
-3.02671e-10
-3.20266e-12
2.98733e-11
-4.12441e-10
1.3479e-10
2.59298e-12
-4.6362e-10
2.08609e-10
-1.44692e-11
-4.28372e-10
1.97669e-10
-1.93816e-11
-2.78437e-10
7.14876e-11
-1.67828e-11
-2.88994e-11
-1.25066e-10
-1.07423e-11
2.73995e-10
-3.74671e-10
-3.94574e-12
5.86294e-10
-6.31191e-10
1.55054e-11
8.13529e-10
-8.12392e-10
1.36307e-11
8.93972e-10
-8.7148e-10
-2.69964e-11
7.77213e-10
-7.9989e-10
-9.55547e-11
4.60123e-10
-6.15522e-10
-1.84028e-10
3.55696e-11
-4.55248e-10
-2.79388e-10
-2.32245e-10
-7.06514e-11
-3.74488e-10
-2.57746e-10
-5.65268e-10
1.90872e-10
-1.50322e-09
1.90872e-10
5.05682e-10
-1.86976e-09
2.43482e-10
7.11065e-10
-1.70695e-09
2.49676e-10
8.47385e-10
-1.51768e-09
2.33619e-10
9.11352e-10
-1.27721e-09
2.05701e-10
9.04282e-10
-1.01813e-09
1.67185e-10
8.41287e-10
-7.88391e-10
1.30557e-10
7.32443e-10
-6.10327e-10
1.06024e-10
5.87417e-10
-4.9879e-10
9.33499e-11
4.1555e-10
-4.39746e-10
8.70831e-11
2.23905e-10
-4.06674e-10
8.14952e-11
2.49552e-11
-3.75353e-10
7.30747e-11
-1.58687e-10
-3.2543e-10
5.80157e-11
-3.13054e-10
-2.30794e-10
3.11737e-11
-4.16948e-10
-1.07838e-10
8.36665e-12
-4.63366e-10
1.54492e-11
-9.75333e-13
-4.38121e-10
9.16497e-11
1.10861e-11
-3.47705e-10
8.6536e-11
4.02344e-11
-2.07615e-10
-2.53903e-12
7.41087e-11
-3.26684e-11
-2.15941e-10
1.19968e-10
1.4048e-10
-4.77062e-10
1.6816e-10
2.7335e-10
-7.52993e-10
2.07615e-10
3.34792e-10
-9.52136e-10
1.90424e-10
2.95191e-10
-9.93116e-10
1.22097e-10
1.76701e-10
-8.67819e-10
-4.32529e-12
-1.61952e-11
-6.02712e-10
-1.31535e-10
-2.24032e-10
-2.55322e-10
-2.73155e-10
-4.14941e-10
4.43146e-11
-4.11179e-10
-4.2046e-10
3.43786e-10
-4.86847e-10
-2.06741e-10
-5.03239e-10
1.96679e-10
-1.87276e-09
1.96679e-10
4.85311e-10
-2.29687e-09
2.15567e-10
7.05455e-10
-2.05487e-09
1.896e-10
8.86326e-10
-1.80014e-09
1.4939e-10
1.02187e-09
-1.48953e-09
1.06116e-10
1.10546e-09
-1.16875e-09
7.51532e-11
1.12209e-09
-8.78143e-10
5.95815e-11
1.05487e-09
-6.38545e-10
6.20384e-11
8.94951e-10
-4.67233e-10
7.90538e-11
6.48659e-10
-3.50982e-10
9.80015e-11
3.42245e-10
-2.69165e-10
1.06063e-10
2.01563e-11
-2.09066e-10
9.68832e-11
-2.68258e-10
-1.58726e-10
7.33359e-11
-4.6644e-10
-1.16538e-10
5.09782e-11
-5.52326e-10
-8.3041e-11
4.58341e-11
-5.2784e-10
-6.94537e-11
6.194e-11
-4.1726e-10
-1.0147e-10
9.67643e-11
-2.52906e-10
-2.07947e-10
1.5048e-10
-7.52643e-11
-3.80768e-10
2.1928e-10
4.02999e-11
-6.13313e-10
2.91524e-10
7.1918e-11
-8.68148e-10
3.55144e-10
9.89911e-12
-1.06483e-09
3.5409e-10
-1.51064e-10
-1.12009e-09
2.96724e-10
-3.71282e-10
-1.00495e-09
1.94573e-10
-5.97663e-10
-7.30121e-10
5.57967e-11
-7.5438e-10
-3.74633e-10
-8.95853e-11
-7.83747e-10
-8.18883e-12
-2.14075e-10
-6.83329e-10
2.32787e-10
-2.62048e-10
-4.28907e-10
3.90669e-10
-2.57329e-10
-3.58988e-10
-2.23125e-10
1.14035e-10
-2.04606e-09
1.14035e-10
4.04453e-10
-2.58267e-09
1.00498e-10
6.5054e-10
-2.27104e-09
5.95085e-11
8.92311e-10
-1.98738e-09
2.24119e-11
1.12081e-09
-1.65462e-09
-2.43773e-12
1.30979e-09
-1.30921e-09
-5.54314e-12
1.41815e-09
-9.77926e-10
1.63923e-11
1.40586e-09
-6.76122e-10
5.87276e-11
1.25384e-09
-4.20859e-10
1.01982e-10
9.64248e-10
-2.19388e-10
1.46486e-10
5.79821e-10
-7.35595e-11
1.74568e-10
1.6964e-10
6.53809e-12
1.82193e-10
-1.85718e-10
1.56939e-11
1.73751e-10
-4.42705e-10
-3.14448e-11
1.71271e-10
-5.66348e-10
-1.34451e-10
1.80181e-10
-5.59679e-10
-2.7379e-10
2.05819e-10
-4.5742e-10
-4.49567e-10
2.53204e-10
-3.27533e-10
-6.49038e-10
3.14153e-10
-2.35485e-10
-8.64045e-10
3.87709e-10
-2.17896e-10
-1.07734e-09
4.37069e-10
-2.99256e-10
-1.23764e-09
4.39421e-10
-4.8605e-10
-1.28659e-09
4.01666e-10
-7.30442e-10
-1.19947e-09
3.29724e-10
-9.68413e-10
-9.76894e-10
2.36868e-10
-1.12315e-09
-6.58619e-10
1.37001e-10
-1.1439e-09
-3.32405e-10
6.03389e-11
-9.99684e-10
-7.91572e-11
3.17465e-11
-7.15275e-10
3.02024e-11
3.5465e-11
-2.98799e-10
2.65081e-11
6.29937e-11
-7.08667e-10
1.4003e-10
1.82529e-11
-2.01515e-09
1.82529e-11
3.31976e-10
-2.79981e-09
1.78636e-14
6.13716e-10
-2.44496e-09
-2.52751e-11
9.24414e-10
-2.18681e-09
-3.99186e-11
1.23807e-09
-1.87768e-09
-3.24656e-11
1.51374e-09
-1.53813e-09
-2.65114e-12
1.69386e-09
-1.17523e-09
4.79791e-11
1.72875e-09
-8.05588e-10
1.14034e-10
1.59364e-09
-4.6215e-10
1.87379e-10
1.30641e-09
-1.73832e-10
2.47198e-10
9.12318e-10
3.73964e-11
2.8582e-10
4.81801e-10
1.2422e-10
3.14171e-10
8.27489e-11
7.96885e-11
3.35035e-10
-2.35337e-10
-7.50961e-11
3.58783e-10
-4.64007e-10
-2.98549e-10
3.84182e-10
-5.9731e-10
-5.64656e-10
4.07094e-10
-6.66604e-10
-8.43258e-10
4.35721e-10
-7.09791e-10
-1.09992e-09
4.57409e-10
-7.60642e-10
-1.31493e-09
4.59878e-10
-8.41417e-10
-1.46585e-09
4.29828e-10
-9.62315e-10
-1.52732e-09
3.83561e-10
-1.10738e-09
-1.47285e-09
3.27321e-10
-1.2398e-09
-1.31592e-09
2.76489e-10
-1.31931e-09
-1.0843e-09
2.50483e-10
-1.30829e-09
-8.24781e-10
2.52861e-10
-1.18247e-09
-6.05539e-10
2.70677e-10
-9.30761e-10
-4.87365e-10
2.91467e-10
-5.85004e-10
-5.06097e-10
3.2114e-10
-1.75446e-10
-6.29894e-10
3.60822e-10
-1.22706e-09
4.18481e-10
-5.96979e-12
-1.94705e-09
-5.96979e-12
3.37968e-10
-3.08814e-09
-4.65875e-12
6.52883e-10
-2.71523e-09
-5.89301e-12
1.00585e-09
-2.52115e-09
9.12032e-12
1.35499e-09
-2.25881e-09
4.86627e-11
1.65155e-09
-1.93385e-09
1.05637e-10
1.8408e-09
-1.5401e-09
1.73632e-10
1.88756e-09
-1.1027e-09
2.42001e-10
1.78306e-09
-6.72327e-10
3.02106e-10
1.55792e-09
-3.0845e-10
3.44571e-10
1.23289e-09
-3.6069e-11
3.81305e-10
8.54776e-10
6.96925e-11
4.12861e-10
4.55373e-10
4.96801e-12
4.4989e-10
6.04434e-11
-1.94725e-10
4.83145e-10
-3.25202e-10
-4.59643e-10
5.05307e-10
-6.87238e-10
-7.67545e-10
5.11753e-10
-1.01662e-09
-1.07517e-09
4.97034e-10
-1.28863e-09
-1.3413e-09
4.42015e-10
-1.48927e-09
-1.54951e-09
3.64177e-10
-1.62315e-09
-1.67025e-09
2.77597e-10
-1.67725e-09
-1.72987e-09
2.17047e-10
-1.66194e-09
-1.69178e-09
1.94022e-10
-1.58831e-09
-1.57016e-09
2.05648e-10
-1.46243e-09
-1.4026e-09
2.50621e-10
-1.27605e-09
-1.24093e-09
3.13215e-10
-1.02792e-09
-1.13785e-09
3.79931e-10
-7.22975e-10
-1.14084e-09
4.4217e-10
-3.9253e-10
-1.24501e-09
4.89231e-10
-7.69855e-11
-1.39282e-09
5.12503e-10
-1.79038e-09
5.25542e-10
9.71429e-11
-2.11954e-09
9.71429e-11
4.61214e-10
-3.5853e-09
1.20799e-10
7.73306e-10
-3.19717e-09
1.48821e-10
1.09639e-09
-3.05718e-09
1.82733e-10
1.38321e-09
-2.82322e-09
2.39935e-10
1.60002e-09
-2.49402e-09
3.00459e-10
1.72633e-09
-2.06413e-09
3.51749e-10
1.76548e-09
-1.56566e-09
3.76669e-10
1.7293e-09
-1.0599e-09
3.76747e-10
1.62086e-09
-6.15336e-10
3.69053e-10
1.44525e-09
-3.00947e-10
3.94693e-10
1.17812e-09
-1.31062e-10
4.21435e-10
8.11468e-10
-1.31371e-10
4.53934e-10
3.40053e-10
-2.54776e-10
4.77499e-10
-2.12929e-10
-4.44374e-10
4.76845e-10
-8.03889e-10
-6.87633e-10
4.42574e-10
-1.37044e-09
-9.54757e-10
3.71558e-10
-1.83932e-09
-1.22648e-09
2.77535e-10
-2.14304e-09
-1.48406e-09
1.66243e-10
-2.26549e-09
-1.71123e-09
1.03474e-10
-2.23089e-09
-1.88691e-09
8.13495e-11
-2.07449e-09
-1.9728e-09
1.06436e-10
-1.83305e-09
-1.97383e-09
1.66606e-10
-1.54013e-09
-1.92146e-09
2.47714e-10
-1.22102e-09
-1.86305e-09
3.3328e-10
-8.88724e-10
-1.85099e-09
4.0974e-10
-5.6272e-10
-1.91086e-09
4.64818e-10
-2.66909e-10
-2.02525e-09
4.96823e-10
-2.37638e-11
-2.13526e-09
5.09074e-10
-2.34183e-09
5.32539e-10
3.67901e-10
-2.87488e-09
3.67901e-10
6.52536e-10
-4.32417e-09
4.00215e-10
8.90178e-10
-3.94945e-09
4.58138e-10
1.0865e-09
-3.80294e-09
4.89386e-10
1.21818e-09
-3.55487e-09
5.3827e-10
1.29869e-09
-3.1765e-09
5.40271e-10
1.35476e-09
-2.68377e-09
5.03002e-10
1.41049e-09
-2.12267e-09
4.42547e-10
1.47539e-09
-1.56247e-09
3.81118e-10
1.53649e-09
-1.07098e-09
3.40353e-10
1.53699e-09
-6.8126e-10
3.27928e-10
1.40197e-09
-4.06976e-10
3.60922e-10
1.08116e-09
-2.36072e-10
3.76387e-10
5.61543e-10
-1.68467e-10
3.83757e-10
-1.0656e-10
-1.90338e-10
3.62789e-10
-8.46253e-10
-3.02463e-10
3.00939e-10
-1.55691e-09
-5.16648e-10
2.17411e-10
-2.12249e-09
-8.40321e-10
1.25004e-10
-2.46926e-09
-1.24257e-09
5.49574e-11
-2.6028e-09
-1.66229e-09
4.17874e-11
-2.53903e-09
-2.04875e-09
6.48996e-11
-2.326e-09
-2.33337e-09
1.23641e-10
-2.02238e-09
-2.49862e-09
2.0321e-10
-1.67171e-09
-2.57345e-09
2.83763e-10
-1.29716e-09
-2.61298e-09
3.52592e-10
-9.15474e-10
-2.66896e-09
4.05678e-10
-5.50326e-10
-2.75705e-09
4.45541e-10
-2.36027e-10
-2.85213e-09
4.80105e-10
4.11991e-12
-2.91249e-09
5.15295e-10
-2.94075e-09
5.91697e-10
7.3366e-10
-4.38253e-09
7.3366e-10
8.01877e-10
-5.17151e-09
7.38318e-10
9.18601e-10
-4.86835e-09
7.65025e-10
9.60923e-10
-4.62865e-09
7.48876e-10
9.4591e-10
-4.28532e-09
7.12893e-10
9.16285e-10
-3.81855e-09
6.39943e-10
9.30901e-10
-3.27215e-09
5.41709e-10
1.03823e-09
-2.69786e-09
4.34793e-10
1.23342e-09
-2.1396e-09
3.47898e-10
1.45969e-09
-1.63978e-09
3.08335e-10
1.60422e-09
-1.16355e-09
3.045e-10
1.56431e-09
-7.13417e-10
3.14853e-10
1.27134e-09
-3.0944e-10
3.36615e-10
7.36612e-10
2.44452e-11
3.13092e-10
2.82015e-11
2.24334e-10
2.64904e-10
-7.47646e-10
2.2951e-10
2.14188e-10
-1.48074e-09
2.08665e-11
1.653e-10
-2.0358e-09
-4.3909e-10
1.24266e-10
-2.40605e-09
-1.01718e-09
1.17889e-10
-2.58051e-09
-1.66343e-09
1.52439e-10
-2.58931e-09
-2.26968e-09
2.0986e-10
-2.47046e-09
-2.74698e-09
2.75271e-10
-2.25493e-09
-3.07474e-09
3.36789e-10
-1.95239e-09
-3.29434e-09
3.85682e-10
-1.57055e-09
-3.46076e-09
4.22887e-10
-1.1371e-09
-3.61029e-09
4.58518e-10
-7.00086e-10
-3.74332e-09
5.0312e-10
-3.17384e-10
-3.82491e-09
5.57889e-10
-2.2658e-11
-3.83586e-09
6.15308e-10
-3.65721e-09
6.98821e-10
1.01228e-09
-6.42917e-09
1.01228e-09
8.87029e-10
-5.92468e-09
9.01519e-10
8.91951e-10
-5.70717e-09
8.60118e-10
8.54197e-10
-5.36788e-09
8.05399e-10
7.77273e-10
-4.90749e-09
7.25058e-10
7.29958e-10
-4.37612e-09
6.24443e-10
7.82079e-10
-3.83092e-09
5.17465e-10
9.74971e-10
-3.30647e-09
4.17659e-10
1.27494e-09
-2.81069e-09
3.65917e-10
1.57368e-09
-2.30368e-09
3.55637e-10
1.74667e-09
-1.71497e-09
3.67249e-10
1.70012e-09
-1.05426e-09
3.7606e-10
1.40619e-09
-3.92343e-10
3.65235e-10
8.85506e-10
1.94515e-10
3.37572e-10
2.20654e-10
5.59251e-10
3.1436e-10
-4.75868e-10
6.29451e-10
2.78614e-10
-1.12472e-09
3.82265e-10
2.69105e-10
-1.6656e-09
-2.13794e-10
3.00198e-10
-2.08856e-09
-9.63132e-10
3.59735e-10
-2.38916e-09
-1.79741e-09
4.32791e-10
-2.58098e-09
-2.57303e-09
4.98555e-10
-2.66566e-09
-3.21487e-09
5.55676e-10
-2.6191e-09
-3.70944e-09
5.84278e-10
-2.40045e-09
-4.1036e-09
5.75555e-10
-2.02522e-09
-4.43676e-09
5.76306e-10
-1.54956e-09
-4.71529e-09
6.04516e-10
-1.05378e-09
-4.91164e-09
6.60393e-10
-6.04001e-10
-4.99194e-09
7.27834e-10
-2.19666e-10
-4.95436e-09
7.69091e-10
-4.57448e-09
7.50369e-10
1.04296e-09
-8.49032e-09
1.04296e-09
8.8129e-10
-6.53191e-09
8.59608e-10
9.1276e-10
-6.44363e-09
7.88802e-10
9.40392e-10
-6.03009e-09
7.10902e-10
9.6036e-10
-5.49807e-09
6.33235e-10
1.03314e-09
-4.96559e-09
5.62325e-10
1.19914e-09
-4.48076e-09
5.12868e-10
1.46907e-09
-4.04833e-09
4.87991e-10
1.76395e-09
-3.59942e-09
5.02268e-10
1.98287e-09
-3.03364e-09
5.16763e-10
2.03517e-09
-2.29642e-09
5.34948e-10
1.86931e-09
-1.41225e-09
5.29546e-10
1.50434e-09
-5.15673e-10
4.91549e-10
1.00748e-09
2.48322e-10
4.41212e-10
4.30192e-10
6.99917e-10
4.29069e-10
-1.54131e-10
7.67985e-10
4.35294e-10
-7.24892e-10
4.57941e-10
4.87584e-10
-1.27587e-09
-2.31103e-10
5.70746e-10
-1.79783e-09
-1.08604e-09
6.62078e-10
-2.28651e-09
-2.01259e-09
7.35628e-10
-2.71832e-09
-2.87424e-09
7.73338e-10
-3.02138e-09
-3.64078e-09
7.68067e-10
-3.11669e-09
-4.32113e-09
7.35997e-10
-2.96988e-09
-4.94419e-09
7.09938e-10
-2.61249e-09
-5.49821e-09
7.13871e-10
-2.12307e-09
-5.93099e-09
7.4357e-10
-1.59432e-09
-6.18133e-09
7.79724e-10
-1.09048e-09
-6.22075e-09
7.91355e-10
-6.08404e-10
-6.09596e-09
7.49661e-10
-5.73695e-09
6.43714e-10
8.78255e-10
-1.01823e-08
8.78255e-10
9.41402e-10
-7.18195e-09
6.96759e-10
1.17452e-09
-7.2213e-09
6.34707e-10
1.42563e-09
-6.784e-09
5.74535e-10
1.67574e-09
-6.25053e-09
5.53226e-10
1.95165e-09
-5.77319e-09
5.63919e-10
2.25445e-09
-5.36409e-09
6.00508e-10
2.53862e-09
-4.96702e-09
6.50728e-10
2.70546e-09
-4.45332e-09
7.07065e-10
2.69203e-09
-3.73541e-09
7.42788e-10
2.47806e-09
-2.79153e-09
7.43127e-10
2.097e-09
-1.70692e-09
7.10965e-10
1.6198e-09
-6.57183e-10
6.48673e-10
1.11421e-09
1.65248e-10
6.0928e-10
5.8877e-10
6.30127e-10
6.07546e-10
5.22734e-11
6.6532e-10
6.49768e-10
-5.1023e-10
3.00164e-10
7.38834e-10
-1.14557e-09
-3.92128e-10
8.31089e-10
-1.83135e-09
-1.2561e-09
9.09111e-10
-2.53904e-09
-2.17786e-09
9.3919e-10
-3.16403e-09
-3.10151e-09
9.1971e-10
-3.59492e-09
-4.02454e-09
8.70903e-10
-3.75595e-09
-4.94751e-09
8.26106e-10
-3.64166e-09
-5.83714e-09
8.04046e-10
-3.3128e-09
-6.60734e-09
8.06177e-10
-2.85908e-09
-7.15583e-09
8.13482e-10
-2.34606e-09
-7.42445e-09
7.96829e-10
-1.77952e-09
-7.43909e-09
7.37529e-10
-1.09453e-09
-7.33017e-09
6.38993e-10
-7.30772e-09
5.29595e-10
6.77594e-10
-1.1471e-08
6.77594e-10
1.20389e-09
-8.19315e-09
5.5493e-10
1.7843e-09
-8.31509e-09
5.60497e-10
2.36325e-09
-7.88322e-09
5.49456e-10
2.92353e-09
-7.40258e-09
6.07923e-10
3.44234e-09
-6.96171e-09
6.8176e-10
3.84058e-09
-6.52216e-09
7.78489e-10
4.02152e-09
-5.99036e-09
8.76642e-10
3.94251e-09
-5.26377e-09
9.43256e-10
3.6074e-09
-4.29995e-09
9.69817e-10
3.07284e-09
-3.1376e-09
9.58072e-10
2.45286e-09
-1.90784e-09
8.94028e-10
1.82629e-09
-8.14654e-10
8.43625e-10
1.2416e-09
-3.36667e-11
8.26948e-10
6.60836e-10
3.85927e-10
8.57052e-10
4.35722e-11
3.87562e-10
9.26067e-10
-6.42708e-10
2.00284e-11
1.00648e-09
-1.44823e-09
-6.06414e-10
1.073e-09
-2.33089e-09
-1.41885e-09
1.10682e-09
-3.19575e-09
-2.34978e-09
1.09424e-09
-3.91634e-09
-3.3903e-09
1.04961e-09
-4.39107e-09
-4.53347e-09
1.00016e-09
-4.5752e-09
-5.73218e-09
9.67002e-10
-4.49324e-09
-6.87619e-09
9.52909e-10
-4.21232e-09
-7.8171e-09
9.39963e-10
-3.78513e-09
-8.45333e-09
9.03803e-10
-3.21145e-09
-8.78198e-09
8.29413e-10
-2.44691e-09
-8.89654e-09
7.2754e-10
-1.44783e-09
-8.99576e-09
6.67271e-10
-9.50395e-09
6.92657e-10
6.49799e-10
-1.27372e-08
6.49799e-10
1.70684e-09
-9.92637e-09
6.88173e-10
2.7042e-09
-1.00491e-08
7.3728e-10
3.6581e-09
-9.58491e-09
7.45413e-10
4.535e-09
-9.09017e-09
8.15228e-10
5.23844e-09
-8.55842e-09
9.1529e-10
5.652e-09
-7.92384e-09
1.03548e-09
5.69299e-09
-7.09563e-09
1.13863e-09
5.3573e-09
-6.02997e-09
1.19721e-09
4.71399e-09
-4.76471e-09
1.21132e-09
3.891e-09
-3.40165e-09
1.18239e-09
3.02839e-09
-2.1141e-09
1.14334e-09
2.20511e-09
-1.06731e-09
1.12428e-09
1.41354e-09
-3.57166e-10
1.14147e-09
6.31634e-10
-1.16674e-11
1.19486e-09
-2.08391e-10
-1.83345e-11
1.26164e-09
-1.1494e-09
-3.39487e-10
1.32165e-09
-2.1848e-09
-9.06635e-10
1.35731e-09
-3.24082e-09
-1.69888e-09
1.34564e-09
-4.20426e-09
-2.71011e-09
1.30832e-09
-4.96319e-09
-3.94119e-09
1.26516e-09
-5.44444e-09
-5.35086e-09
1.23465e-09
-5.63768e-09
-6.81607e-09
1.21512e-09
-5.57944e-09
-8.16513e-09
1.19217e-09
-5.30226e-09
-9.25183e-09
1.14951e-09
-4.79584e-09
-1.00307e-08
1.07757e-09
-4.01776e-09
-1.05617e-08
9.90375e-10
-2.93423e-09
-1.10101e-08
9.71449e-10
-1.58898e-09
-1.14786e-08
1.0221e-09
-1.23087e-08
1.07937e-09
9.36238e-10
-1.4612e-08
9.36238e-10
2.48512e-09
-1.25123e-08
1.02125e-09
3.87354e-09
-1.24875e-08
1.03987e-09
5.16735e-09
-1.19526e-08
1.07828e-09
6.28714e-09
-1.13412e-08
1.15862e-09
7.1081e-09
-1.05874e-08
1.26267e-09
7.50884e-09
-9.61693e-09
1.37205e-09
7.42859e-09
-8.38123e-09
1.46067e-09
6.89429e-09
-6.91328e-09
1.51143e-09
6.01927e-09
-5.34138e-09
1.52682e-09
4.96115e-09
-3.82021e-09
1.51972e-09
3.84691e-09
-2.51109e-09
1.51841e-09
2.73246e-09
-1.51223e-09
1.53797e-09
1.6185e-09
-8.53535e-10
1.57519e-09
4.78392e-10
-5.2962e-10
1.62404e-09
-7.189e-10
-5.16625e-10
1.66947e-09
-1.97868e-09
-7.93653e-10
1.69041e-09
-3.26238e-09
-1.34361e-09
1.68528e-09
-4.48503e-09
-2.18761e-09
1.64982e-09
-5.53436e-09
-3.35634e-09
1.60452e-09
-6.32479e-09
-4.82457e-09
1.56686e-09
-6.81556e-09
-6.49055e-09
1.53407e-09
-7.01063e-09
-8.18116e-09
1.4999e-09
-6.92343e-09
-9.72312e-09
1.45433e-09
-6.53431e-09
-1.10196e-08
1.38648e-09
-5.79722e-09
-1.20987e-08
1.32436e-09
-4.6968e-09
-1.3053e-08
1.33615e-09
-3.25404e-09
-1.3941e-08
1.37895e-09
-1.60947e-09
-1.47073e-08
1.44692e-09
-1.54935e-08
1.49254e-09
1.38938e-09
-1.74038e-08
1.38938e-09
3.38127e-09
-1.59717e-08
1.46416e-09
5.14026e-09
-1.57229e-08
1.487e-09
6.7516e-09
-1.50692e-08
1.53641e-09
8.09446e-09
-1.42469e-08
1.61605e-09
9.02187e-09
-1.31597e-08
1.71498e-09
9.4157e-09
-1.17483e-08
1.81192e-09
9.24718e-09
-1.00373e-08
1.88556e-09
8.58579e-09
-8.15234e-09
1.93022e-09
7.54755e-09
-6.27562e-09
1.95976e-09
6.27083e-09
-4.58203e-09
1.98386e-09
4.85729e-09
-3.19251e-09
2.01179e-09
3.36504e-09
-2.1525e-09
2.04267e-09
1.81821e-09
-1.45439e-09
2.07208e-09
2.21686e-10
-1.07975e-09
2.09559e-09
-1.40915e-09
-1.01619e-09
2.09864e-09
-3.04467e-09
-1.26599e-09
2.07808e-09
-4.61436e-09
-1.85398e-09
2.03407e-09
-6.02016e-09
-2.82539e-09
1.97533e-09
-7.17724e-09
-4.19698e-09
1.92038e-09
-8.02603e-09
-5.9036e-09
1.86897e-09
-8.53893e-09
-7.80597e-09
1.81431e-09
-8.70492e-09
-9.73762e-09
1.75976e-09
-8.4956e-09
-1.15716e-08
1.70504e-09
-7.88135e-09
-1.32637e-08
1.68226e-09
-6.82325e-09
-1.4823e-08
1.67085e-09
-5.34885e-09
-1.62684e-08
1.69761e-09
-3.59893e-09
-1.75105e-08
1.76478e-09
-1.75483e-09
-1.83682e-08
1.79868e-09
-1.89665e-08
1.78459e-09
1.92913e-09
-2.12628e-08
1.92913e-09
4.3529e-09
-2.03703e-08
1.99593e-09
6.51916e-09
-1.9886e-08
2.02796e-09
8.45597e-09
-1.90552e-08
2.09432e-09
1.00115e-08
-1.79301e-08
2.18259e-09
1.10377e-08
-1.64101e-08
2.27757e-09
1.14426e-08
-1.44782e-08
2.35985e-09
1.1227e-08
-1.22409e-08
2.41876e-09
1.0474e-08
-9.90084e-09
2.45614e-09
9.29267e-09
-7.66931e-09
2.48775e-09
7.77915e-09
-5.70432e-09
2.52448e-09
6.02135e-09
-4.09967e-09
2.5568e-09
4.08787e-09
-2.87922e-09
2.5815e-09
2.03882e-09
-2.03344e-09
2.5929e-09
-6.82249e-11
-1.55044e-09
2.58147e-09
-2.18295e-09
-1.4324e-09
2.55382e-09
-4.23859e-09
-1.69755e-09
2.50652e-09
-6.13994e-09
-2.38569e-09
2.43828e-09
-7.78977e-09
-3.53783e-09
2.36328e-09
-9.1109e-09
-5.14358e-09
2.29009e-09
-1.00542e-08
-7.11711e-09
2.22471e-09
-1.05915e-08
-9.32269e-09
2.17062e-09
-1.06876e-08
-1.16253e-08
2.12305e-09
-1.03007e-08
-1.39286e-08
2.08797e-09
-9.40122e-09
-1.61733e-08
2.07404e-09
-8.00411e-09
-1.82941e-08
2.09072e-09
-6.21241e-09
-2.01783e-08
2.13433e-09
-4.19664e-09
-2.16194e-08
2.15878e-09
-2.103e-09
-2.24662e-08
2.13618e-09
-2.3019e-08
2.09995e-09
2.53256e-09
-2.63151e-08
2.53256e-09
5.46618e-09
-2.58812e-08
2.61016e-09
8.0966e-09
-2.51561e-08
2.67567e-09
1.0372e-08
-2.40573e-08
2.77021e-09
1.21233e-08
-2.25015e-08
2.865e-09
1.32257e-08
-2.04218e-08
2.94285e-09
1.3637e-08
-1.78805e-08
2.99803e-09
1.33986e-08
-1.50594e-08
3.02728e-09
1.25828e-08
-1.21929e-08
3.04292e-09
1.1255e-08
-9.49081e-09
3.06479e-09
9.48317e-09
-7.10824e-09
3.09807e-09
7.34928e-09
-5.13548e-09
3.12551e-09
4.94345e-09
-3.61092e-09
3.14194e-09
2.36347e-09
-2.55121e-09
3.14661e-09
-2.94906e-10
-1.95431e-09
3.1346e-09
-2.94287e-09
-1.81755e-09
3.10369e-09
-5.47805e-09
-2.15658e-09
3.04946e-09
-7.78289e-09
-3.01154e-09
2.97819e-09
-9.75003e-09
-4.40935e-09
2.90232e-09
-1.12995e-08
-6.32476e-09
2.833e-09
-1.23821e-08
-8.66946e-09
2.77672e-09
-1.29578e-08
-1.1328e-08
2.73387e-09
-1.29831e-08
-1.41808e-08
2.70101e-09
-1.24191e-08
-1.71152e-08
2.68211e-09
-1.12588e-08
-2.00041e-08
2.68312e-09
-9.56337e-09
-2.26705e-08
2.69903e-09
-7.47417e-09
-2.48882e-08
2.69666e-09
-5.12538e-09
-2.64823e-08
2.65392e-09
-2.58817e-09
-2.74355e-08
2.59037e-09
-2.81082e-08
2.58296e-09
3.24203e-09
-3.27824e-08
3.24203e-09
6.7898e-09
-3.27518e-08
3.35909e-09
9.93022e-09
-3.17176e-08
3.46031e-09
1.25503e-08
-3.01927e-08
3.56197e-09
1.44866e-08
-2.80298e-08
3.63989e-09
1.56702e-08
-2.52642e-08
3.69641e-09
1.61266e-08
-2.20164e-08
3.69613e-09
1.59023e-08
-1.85252e-08
3.68225e-09
1.50263e-08
-1.50293e-08
3.68925e-09
1.35346e-08
-1.17336e-08
3.71518e-09
1.14762e-08
-8.79535e-09
3.75166e-09
8.93441e-09
-6.33544e-09
3.78575e-09
6.02555e-09
-4.44021e-09
3.81525e-09
2.87318e-09
-3.14464e-09
3.83519e-09
-3.97262e-10
-2.44394e-09
3.83666e-09
-3.65949e-09
-2.31913e-09
3.81407e-09
-6.7649e-09
-2.78324e-09
3.76407e-09
-9.56259e-09
-3.8729e-09
3.6977e-09
-1.19277e-08
-5.60554e-09
3.62991e-09
-1.37763e-08
-7.95113e-09
3.57461e-09
-1.5053e-08
-1.08236e-08
3.53314e-09
-1.57105e-08
-1.41101e-08
3.50255e-09
-1.57015e-08
-1.76672e-08
3.47675e-09
-1.49923e-08
-2.13264e-08
3.45801e-09
-1.36018e-08
-2.4873e-08
3.44832e-09
-1.16291e-08
-2.80383e-08
3.42993e-09
-9.19456e-09
-3.05933e-08
3.36717e-09
-6.37143e-09
-3.24658e-08
3.26321e-09
-3.21005e-09
-3.37447e-08
3.19916e-09
-3.45844e-08
3.23178e-09
4.10753e-09
-4.09792e-08
4.10753e-09
8.33501e-09
-4.11872e-08
4.25381e-09
1.20142e-08
-3.97024e-08
4.35555e-09
1.50036e-08
-3.75712e-08
4.44782e-09
1.71792e-08
-3.46463e-08
4.50231e-09
1.8547e-08
-3.10506e-08
4.4738e-09
1.9132e-08
-2.70024e-08
4.44429e-09
1.89511e-08
-2.2753e-08
4.44289e-09
1.80084e-08
-1.85213e-08
4.47108e-09
1.63125e-08
-1.45038e-08
4.51951e-09
1.39116e-08
-1.0892e-08
4.5757e-09
1.09035e-08
-7.8647e-09
4.63402e-09
7.41965e-09
-5.54825e-09
4.68631e-09
3.60188e-09
-3.98459e-09
4.72598e-09
-3.94405e-10
-3.15679e-09
4.73903e-09
-4.38203e-09
-3.04762e-09
4.71746e-09
-8.1639e-09
-3.67033e-09
4.66918e-09
-1.15537e-08
-5.06531e-09
4.60768e-09
-1.44127e-08
-7.24318e-09
4.55128e-09
-1.66505e-08
-1.016e-08
4.50446e-09
-1.8201e-08
-1.37158e-08
4.46381e-09
-1.90026e-08
-1.7767e-08
4.42214e-09
-1.89969e-08
-2.21235e-08
4.37776e-09
-1.81611e-08
-2.65516e-08
4.33696e-09
-1.65446e-08
-3.0768e-08
4.29661e-09
-1.42533e-08
-3.44811e-08
4.23177e-09
-1.13593e-08
-3.75248e-08
4.11177e-09
-7.89429e-09
-3.99057e-08
3.98544e-09
-3.95125e-09
-4.16881e-08
3.9566e-09
-4.25993e-08
4.01792e-09
5.11913e-09
-5.11926e-08
5.11913e-09
1.00589e-08
-5.1322e-08
5.25394e-09
1.43457e-08
-4.92806e-08
5.35124e-09
1.78231e-08
-4.63511e-08
5.36796e-09
2.04131e-08
-4.25173e-08
5.3481e-09
2.2102e-08
-3.80087e-08
5.33407e-09
2.28991e-08
-3.3084e-08
5.34819e-09
2.27872e-08
-2.79688e-08
5.39798e-09
2.17391e-08
-2.28595e-08
5.47294e-09
1.97641e-08
-1.79771e-08
5.55553e-09
1.69287e-08
-1.35783e-08
5.64121e-09
1.33463e-08
-9.89672e-09
5.72532e-09
9.15711e-09
-7.08311e-09
5.80153e-09
4.52778e-09
-5.17658e-09
5.85248e-09
-3.35893e-10
-4.16608e-09
5.86725e-09
-5.18372e-09
-4.05698e-09
5.84319e-09
-9.76318e-09
-4.88049e-09
5.79703e-09
-1.3866e-08
-6.67161e-09
5.74656e-09
-1.73401e-08
-9.42265e-09
5.69968e-09
-2.00798e-08
-1.30533e-08
5.65129e-09
-2.19929e-08
-1.7426e-08
5.59511e-09
-2.29871e-08
-2.23538e-08
5.52892e-09
-2.29956e-08
-2.76005e-08
5.46283e-09
-2.20323e-08
-3.28653e-08
5.3988e-09
-2.01668e-08
-3.78346e-08
5.31086e-09
-1.746e-08
-4.22524e-08
5.16978e-09
-1.39291e-08
-4.6037e-08
5.0152e-09
-9.63352e-09
-4.91568e-08
4.92952e-09
-4.787e-09
-5.14888e-08
4.94165e-09
-5.23491e-08
5.01455e-09
6.24093e-09
-6.36435e-08
6.24093e-09
1.19721e-08
-6.33077e-08
6.3226e-09
1.70398e-08
-6.06132e-08
6.32878e-09
2.12371e-08
-5.68105e-08
6.32774e-09
2.44592e-08
-5.20192e-08
6.34634e-09
2.66423e-08
-4.65209e-08
6.39854e-09
2.77281e-08
-4.05826e-08
6.4921e-09
2.7658e-08
-3.44124e-08
6.61146e-09
2.64142e-08
-2.82299e-08
6.73395e-09
2.40426e-08
-2.23217e-08
6.84964e-09
2.0635e-08
-1.70122e-08
6.96734e-09
1.63247e-08
-1.25754e-08
7.08127e-09
1.12596e-08
-9.15365e-09
7.17851e-09
5.6429e-09
-6.79844e-09
7.23784e-09
-2.52756e-10
-5.54234e-09
7.25433e-09
-6.11516e-09
-5.4316e-09
7.234e-09
-1.16456e-08
-6.5226e-09
7.19789e-09
-1.66159e-08
-8.81949e-09
7.15701e-09
-2.0855e-08
-1.22747e-08
7.11206e-09
-2.42192e-08
-1.67588e-08
7.05466e-09
-2.65725e-08
-2.20832e-08
6.97843e-09
-2.77965e-08
-2.80254e-08
6.89786e-09
-2.78494e-08
-3.42956e-08
6.8257e-09
-2.67655e-08
-4.05355e-08
6.72297e-09
-2.45835e-08
-4.64257e-08
6.53869e-09
-2.12792e-08
-5.18024e-08
6.31456e-09
-1.6877e-08
-5.65978e-08
6.17711e-09
-1.15862e-08
-6.05662e-08
6.15226e-09
-5.76638e-09
-6.33884e-08
6.17278e-09
-6.41986e-08
6.21523e-09
7.44219e-09
-7.84934e-08
7.44219e-09
1.42416e-08
-7.74753e-08
7.44986e-09
2.03721e-08
-7.4119e-08
7.44998e-09
2.55581e-08
-6.94269e-08
7.50377e-09
2.96172e-08
-6.361e-08
7.60352e-09
3.24027e-08
-5.69801e-08
7.74905e-09
3.379e-08
-4.98051e-08
7.92257e-09
3.37113e-08
-4.2326e-08
8.09696e-09
3.2187e-08
-3.48436e-08
8.25614e-09
2.93062e-08
-2.7736e-08
8.41025e-09