/*--------------------------------*- C++ -*----------------------------------*\
| =========                 |                                                 |
| \\      /  F ield         | OpenFOAM: The Open Source CFD Toolbox           |
|  \\    /   O peration     | Version:  2312                                  |
|   \\  /    A nd           | Website:  www.openfoam.com                      |
|    \\/     M anipulation  |                                                 |
\*---------------------------------------------------------------------------*/
FoamFile
{
    version     2.0;
    format      ascii;
    arch        "LSB;label=32;scalar=64";
    class       volScalarField;
    location    "0.39227";
    object      alpha.water;
}
// * * * * * * * * * * * * * * * * * * * * * * * * * * * * * * * * * * * * * //

dimensions      [0 0 0 0 0 0 0];

internalField   nonuniform List<scalar> 
90000
(
1
0.999999
1
1
1
1
1
1
1
1
1
1
1
1
1
1
1
1
1
1
1
0.999998
0.999996
0.999996
0.999998
1
1.00001
1.00002
1.00002
1.00003
0.999999
0.999999
1
1
1
1.00001
1.00001
1.00001
1.00001
1.00001
1
1
1
1
1
1.00001
1.00001
1.00001
1
1
0.999997
0.999995
0.999995
0.999998
1.00001
1.00001
1.00003
1.00004
1.00005
1.00005
0.999999
0.999999
1
1
1
1
1.00001
1.00001
1.00001
1.00001
1.00001
1.00001
1.00001
1.00001
1.00001
1.00001
1.00001
1
1
1
0.999999
0.999998
1
1
1.00001
1.00002
1.00002
1.00002
1.00002
1.00002
0.999999
0.999999
1
1
1
1
1.00001
1.00001
1.00001
1.00001
1.00001
1.00001
1.00001
1.00001
1.00001
1.00001
1
1
1
1
1
1
1.00001
1.00001
1.00001
1.00001
1.00002
1.00002
1.00001
1.00001
0.999999
1
1
1
1
1
1
1.00001
1.00001
1.00001
1.00001
1.00001
1.00001
1.00001
1.00001
1
1
0.999999
0.999999
1
1
1.00001
1.00001
1.00001
1.00001
1.00001
1
1
0.999995
0.999992
1
1
1
1
1
1
1
1
1
1.00001
1.00001
1.00001
1.00001
1.00001
1
1
0.999999
0.999998
0.999998
1
1
1.00001
1.00001
1.00001
1
0.999998
0.999992
0.999986
0.999981
0.999982
1
1
1
1
1
0.999999
0.999998
0.999999
1
1
1
1.00001
1.00001
1
1
1
1
1
1
1
1
1
1
0.999999
0.999994
0.999988
0.999982
0.999977
0.999975
0.999979
1
1.00001
1
1
0.999999
0.999997
0.999997
0.999997
0.999998
0.999999
1
1
1
1
1
1
1
1
1
1
1
0.999999
0.999996
0.999991
0.999986
0.999981
0.999977
0.999975
0.999975
0.999981
1
1.00001
1
1
1
0.999999
0.999998
0.999998
0.999997
0.999998
0.999998
0.999999
1
1
1.00001
1.00001
1.00001
1.00001
1.00001
1
1
0.999995
0.99999
0.999985
0.999981
0.999979
0.999978
0.999978
0.99998
0.999986
1
1.00001
1.00001
1.00001
1.00001
1
1
1
0.999999
0.999997
0.999996
0.999997
0.999998
1
1
1.00001
1.00001
1.00001
1.00001
1
0.999998
0.999993
0.999988
0.999985
0.999982
0.999981
0.999982
0.999983
0.999985
0.999989
1.00001
1.00002
1.00001
1.00001
1.00001
1.00001
1.00001
1
1
0.999997
0.999994
0.999994
0.999995
0.999998
1
1
1.00001
1.00001
1
1
0.999998
0.999995
0.999993
0.99999
0.999989
0.999988
0.999989
0.999989
0.99999
0.999993
1.00001
1.00002
1.00002
1.00002
1.00002
1.00002
1.00001
1.00001
1
0.999996
0.999992
0.999991
0.999992
0.999993
0.999996
0.999998
1
1
1
1
1
1
1
1
1
0.999999
0.999998
0.999998
0.999998
1
1.00001
1.00002
1.00002
1.00002
1.00002
1.00001
1.00001
1
0.999999
0.999995
0.999992
0.99999
0.99999
0.99999
0.999991
0.999993
0.999996
0.999999
1
1.00001
1.00001
1.00001
1.00001
1.00001
1.00001
1.00001
1.00001
1.00001
1.00001
1.00001
1.00001
1.00001
1.00001
1.00001
1.00001
1.00001
1
1
0.999998
0.999996
0.999995
0.999994
0.999992
0.999991
0.99999
0.999991
0.999995
1
1.00001
1.00001
1.00002
1.00002
1.00002
1.00002
1.00002
1.00002
1.00002
1.00001
1.00001
1.00001
1.00001
0.999996
0.999996
0.999995
0.999994
0.999994
0.999995
0.999997
0.999999
1
1
0.999999
0.999996
0.999993
0.999992
0.999992
0.999996
1
1.00001
1.00001
1.00002
1.00002
1.00002
1.00002
1.00002
1.00002
1.00001
1.00001
1.00001
1
0.999996
0.999977
0.999979
0.999979
0.999981
0.999984
0.999989
0.999995
1
1
1
1
0.999999
0.999996
0.999993
0.999993
0.999996
1
1
1.00001
1.00001
1.00001
1.00001
1.00001
1.00001
1.00001
1.00001
1
0.999995
0.999991
0.999984
0.999962
0.999966
0.999968
0.999973
0.999979
0.999987
0.999995
1
1
1.00001
1
0.999999
0.999996
0.999994
0.999994
0.999995
0.999996
0.999997
0.999998
0.999999
1
1
1
1
0.999999
0.999995
0.999989
0.999985
0.999987
0.999976
0.999957
0.999962
0.999966
0.999972
0.999979
0.999987
0.999995
1
1
1
1
0.999999
0.999997
0.999995
0.999994
0.999994
0.999993
0.999992
0.999992
0.999992
0.999993
0.999995
0.999995
0.999994
0.99999
0.999986
0.999984
0.999984
0.99999
0.999975
0.999961
0.999967
0.999971
0.999977
0.999983
0.99999
0.999995
0.999998
1
1
1
0.999999
0.999999
0.999998
0.999997
0.999995
0.999992
0.99999
0.999989
0.999989
0.99999
0.99999
0.999989
0.999987
0.999985
0.999983
0.999985
0.999988
0.999993
0.999979
0.999971
0.999976
0.999979
0.999984
0.999989
0.999994
0.999997
0.999998
1
1
1
1
1
1
0.999998
0.999996
0.999993
0.99999
0.999989
0.999988
0.999987
0.999986
0.999984
0.999982
0.999982
0.999984
0.999987
0.99999
0.999991
0.999985
0.999981
0.999985
0.999988
0.999992
0.999996
0.999999
1
1
1
1
1
1
1
1
0.999998
0.999995
0.999992
0.99999
0.999988
0.999986
0.999984
0.999983
0.999982
0.999982
0.999985
0.999987
0.999989
0.999988
0.999988
0.999991
0.99999
0.999993
0.999997
1
1
1
1
1
1
1
1
1
1
0.999999
0.999997
0.999995
0.999992
0.99999
0.999988
0.999987
0.999985
0.999985
0.999986
0.999989
0.999991
0.999992
0.999991
0.999989
0.999991
0.999995
0.999998
1
1
1.00001
1.00001
1.00001
1
1
1
1
0.999999
0.999999
0.999998
0.999998
0.999997
0.999995
0.999994
0.999992
0.999991
0.99999
0.99999
0.999992
0.999995
0.999997
0.999998
0.999997
0.999995
0.999993
0.999996
0.999999
1
1.00001
1.00001
1.00001
1.00001
1.00001
1
1
0.999999
0.999998
0.999997
0.999997
0.999998
0.999998
0.999998
0.999997
0.999996
0.999995
0.999994
0.999995
0.999997
1
1
1
1
1
0.999999
1
1
1
1.00001
1.00001
1.00001
1.00001
1.00001
1
1
0.999999
0.999998
0.999996
0.999996
0.999997
0.999998
1
1
0.999999
0.999998
0.999998
0.999998
1
1
1.00001
1.00001
1.00001
1.00001
1.00001
1.00001
1.00001
1.00001
1
1.00001
1.00001
1.00001
1
1
1
0.999999
0.999997
0.999996
0.999996
0.999996
0.999998
1
1
1
1
1
1
1
1
1.00001
1.00001
1.00001
1.00001
1.00001
1.00001
1.00001
1.00002
1.00002
1
1
1
1
0.999999
0.999998
0.999997
0.999996
0.999995
0.999995
0.999995
0.999996
0.999999
1
1
1
1
1
1
1
1
1.00001
1.00001
1.00001
1.00001
1.00001
1.00001
1.00001
1.00002
1.00001
1
1
0.999999
0.999997
0.999995
0.999995
0.999994
0.999993
0.999993
0.999993
0.999994
0.999996
0.999998
1
1
1
1
1
1
0.999999
0.999998
0.999997
0.999997
0.999996
0.999997
1
1.00001
1.00001
1.00001
1.00001
1
0.999997
0.999996
0.999994
0.999993
0.999992
0.999992
0.999991
0.999991
0.999992
0.999994
0.999995
0.999996
0.999997
0.999997
0.999996
0.999996
0.999996
0.999995
0.999993
0.999991
0.999989
0.999988
0.999988
0.999991
0.999997
1
1.00001
1
1
0.999998
0.999996
0.999995
0.999994
0.999992
0.999991
0.99999
0.999989
0.999989
0.99999
0.999992
0.999993
0.999994
0.999993
0.999993
0.999994
0.999994
0.999993
0.999992
0.99999
0.999988
0.999986
0.999985
0.999987
0.999992
0.999998
1
1
1
1
0.999998
0.999997
0.999996
0.999995
0.999993
0.999991
0.999988
0.999987
0.999987
0.999988
0.99999
0.999991
0.999992
0.999993
0.999994
0.999994
0.999994
0.999994
0.999992
0.999991
0.999989
0.999986
0.999986
0.99999
0.999996
0.999999
0.999999
1
1
1.00001
0.999999
1
0.999999
0.999997
0.999994
0.999991
0.999987
0.999985
0.999985
0.999987
0.999989
0.999991
0.999993
0.999995
0.999997
0.999997
0.999997
0.999996
0.999995
0.999993
0.99999
0.999988
0.999989
0.999994
0.999996
0.999996
0.999997
1
1.00001
1
1
1
1
0.999999
0.999995
0.99999
0.999986
0.999984
0.999984
0.999987
0.99999
0.999993
0.999996
0.999998
0.999999
0.999999
0.999999
0.999998
0.999997
0.999994
0.999991
0.999989
0.999991
0.999993
0.999993
0.999992
0.999995
1
0.999999
0.999996
1
1.00001
1
1
0.999995
0.99999
0.999986
0.999985
0.999987
0.999989
0.999992
0.999994
0.999996
0.999998
0.999999
1
1
0.999999
0.999997
0.999993
0.99999
0.99999
0.99999
0.999989
0.999988
0.999989
0.999993
0.999995
0.999993
0.999993
1
1.00001
1
1
0.999996
0.999992
0.99999
0.99999
0.999991
0.999992
0.999993
0.999995
0.999997
0.999999
1
1
1
1
0.999999
0.999995
0.999994
0.999994
0.999993
0.999991
0.999993
0.999996
0.999998
0.999997
0.999995
0.999998
1
1.00001
1
1
0.999998
0.999996
0.999995
0.999995
0.999994
0.999994
0.999996
0.999998
1
1
1.00001
1.00001
1.00001
1
1
1
1
1
1
1
1
1
1
1
1
1.00001
1
1
1
1
1
1
0.999999
0.999998
0.999996
0.999997
0.999999
1
1.00001
1.00001
1.00001
1.00001
1.00001
1
1.00001
1.00001
1.00001
1.00001
1
1
1
1
1
1
1.00001
1.00001
1
1
1
1
1
1
1
0.999998
0.999998
1
1
1
1.00001
1.00001
1.00001
1.00001
1.00001
1.00001
1.00001
1.00001
1.00001
1.00001
1
1
1
1
1
1
1.00001
1.00001
1
1
1
1
1
1
0.999999
0.999999
1
1
1
1
1
1
1
1.00001
1.00001
1.00001
1.00001
1.00001
1
1
1
0.999999
1
1
0.999998
1
1
1
1
1.00001
1.00001
1
1
1
1
1
1
1.00001
1
1
1
1.00001
1.00001
1.00001
1.00001
1.00001
1.00001
1.00001
1
1.00001
1
1
1.00001
1
1
1.00001
1.00001
1.00001
1
1.00001
1.00001
1
1
1
1
1
1.00001
1
1
1
1.00001
1.00001
1.00001
1.00001
1.00001
1.00001
1.00001
1.00001
1.00001
1.00001
1.00001
1.00001
1.00001
1
1.00001
1.00001
1.00001
1
1.00001
1.00001
1.00001
1
1
1
1.00001
1.00001
1
1
1
1
1.00001
1.00001
1
1
1
1
1.00001
1.00001
1.00001
1.00001
1
1.00001
1
1
1.00001
1.00001
1.00001
1
1.00001
1.00001
1
1
1
1.00001
1.00001
1
1
1
1
1
1.00001
1
1
1
1.00001
1.00001
1.00001
1.00001
1.00001
1
1
1.00001
1
1
1.00001
1.00001
1
1
1
1
1
1
1.00001
1.00001
1
1
1
1
1
1
1
1
1
1.00001
1.00001
1.00001
1.00001
1.00001
1
1
1
1.00001
0.999998
1.00001
1.00001
1.00001
1
1.00001
1
1
1
1
1.00001
1
1
1
1
1
1
1
1
1
1.00001
1.00001
1
1
1
1
0.999999
1
1.00001
1
0.999999
1.00001
1.00001
1.00001
1
1.00001
1
1
1
1
1
1
1
1
1
1
1
1
1
1
1
1
1
1
1
1
1
1
1.00001
1
1
1.00001
1.00001
1
1
1
1
1
1
1
1
1
1
1
1
0.999999
0.999999
0.999999
0.999999
0.999999
0.999999
0.999999
0.999999
0.999999
0.999999
0.999999
0.999999
1
1
0.999999
1
1
1
1
1
1
0.999995
0.999995
0.999995
0.999994
0.999992
0.999989
0.999987
0.999983
0.999979
0.999975
0.999972
0.99997
0.999968
0.999967
0.999967
0.999966
0.999966
0.999967
0.99997
0.999973
0.999974
0.999979
0.999983
0.999985
0.999989
0.999992
0.999994
0.999994
0.999994
0.999996
0.999901
0.999894
0.999879
0.999855
0.99982
0.999771
0.999712
0.999639
0.999562
0.999483
0.999408
0.999345
0.999294
0.999261
0.999243
0.999243
0.99926
0.999293
0.999346
0.999409
0.999481
0.999562
0.99964
0.99971
0.999771
0.999819
0.999856
0.999877
0.999892
0.999901
0.948726
0.946411
0.941661
0.934251
0.924024
0.910867
0.894532
0.875493
0.854385
0.832059
0.809854
0.789289
0.77197
0.759464
0.752837
0.752847
0.759454
0.771995
0.789329
0.809867
0.832043
0.85435
0.875507
0.894525
0.910802
0.924071
0.93431
0.941642
0.946435
0.948665
0.176381
0.174168
0.169901
0.163387
0.155027
0.144725
0.132736
0.119338
0.105355
0.0914337
0.0787414
0.0680693
0.0598613
0.054324
0.0515957
0.0515939
0.0543238
0.0598566
0.0680598
0.0787312
0.0914226
0.105349
0.119345
0.132747
0.144726
0.155021
0.163381
0.169891
0.174163
0.176394
2.60277e-07
1.17158e-07
1.70462e-08
8.10604e-09
-1.92908e-24
-3.0143e-35
0
1.54327e-23
-1.92276e-32
-1.75354e-30
-1.3452e-29
-1.12537e-24
-4.82179e-27
3.33953e-07
1.05047e-06
1.04875e-06
3.32843e-07
-4.75722e-27
-1.23087e-22
-1.33481e-29
3.08653e-23
-1.91748e-32
3.08653e-23
-7.15394e-24
3.85817e-24
-1.97446e-31
8.1266e-09
1.70113e-08
1.12538e-07
2.63551e-07
2.97196e-07
3.51363e-07
1.37484e-06
1.87386e-06
2.0283e-06
3.5215e-06
9.27218e-06
9.15817e-06
6.67798e-06
1.35549e-05
1.56492e-05
2.72635e-05
3.3735e-05
3.10518e-05
2.11628e-05
2.11525e-05
3.12581e-05
3.39414e-05
2.73253e-05
1.54923e-05
1.33577e-05
6.57932e-06
9.24724e-06
9.35525e-06
3.55805e-06
1.99001e-06
1.85234e-06
1.38317e-06
3.53305e-07
3.12579e-07
2.03407e-08
3.06747e-08
5.32749e-08
1.28759e-07
2.14355e-07
5.04773e-07
1.63247e-06
2.97286e-06
2.73963e-06
2.06807e-05
4.50592e-05
4.50592e-05
4.50592e-05
4.43411e-05
4.19838e-05
4.21706e-05
4.45466e-05
4.52571e-05
4.52571e-05
4.52571e-05
2.10437e-05
2.77963e-06
3.0302e-06
1.66225e-06
5.18397e-07
2.15987e-07
1.28899e-07
5.35032e-08
3.07463e-08
2.0858e-08
2.93381e-10
5.09348e-10
7.02362e-10
5.86624e-10
1.33333e-10
1.87485e-10
3.03311e-10
2.27314e-10
1.71737e-07
3.47234e-06
1.57019e-05
2.63124e-05
2.81968e-05
3.08473e-05
2.7298e-05
2.717e-05
3.09094e-05
2.83217e-05
2.65659e-05
1.60374e-05
3.63631e-06
1.90991e-07
3.07856e-10
3.06538e-10
1.87359e-10
1.31636e-10
6.00839e-10
7.22833e-10
5.08976e-10
3.05468e-10
2.80329e-11
4.06996e-11
5.38101e-11
7.99617e-11
1.30552e-10
2.16393e-10
2.86208e-10
8.99595e-11
2.62508e-11
1.24339e-10
6.75848e-09
1.65202e-07
4.57517e-07
1.01237e-06
1.14746e-06
1.10232e-06
1.0019e-06
4.59744e-07
1.71491e-07
7.10951e-09
1.28409e-10
2.68299e-11
1.60738e-10
2.90664e-10
2.17029e-10
1.28734e-10
8.03117e-11
5.46433e-11
4.10129e-11
2.87765e-11
5.66958e-12
7.61449e-12
1.00539e-11
1.63567e-11
2.64279e-11
4.43402e-11
7.72464e-11
1.2562e-10
2.61453e-11
1.84307e-11
1.01201e-11
2.99318e-11
1.357e-09
9.61031e-09
2.3803e-08
2.36355e-08
9.57535e-09
1.35951e-09
2.97278e-11
1.03001e-11
1.8961e-11
2.64036e-11
1.27126e-10
7.94966e-11
4.48305e-11
2.64794e-11
1.63329e-11
1.01612e-11
7.6479e-12
5.81299e-12
9.61259e-13
1.54644e-12
2.04525e-12
2.73047e-12
3.51705e-12
5.38242e-12
8.30098e-12
1.30968e-11
2.60754e-11
3.39483e-11
9.72388e-12
9.96581e-12
8.47428e-12
1.69072e-12
9.33796e-13
7.95406e-13
1.73828e-12
8.64293e-12
1.01471e-11
9.91065e-12
3.25055e-11
2.63212e-11
1.33215e-11
8.46688e-12
5.51826e-12
3.55167e-12
2.75405e-12
2.07437e-12
1.55073e-12
1.00058e-12
4.13214e-13
6.21949e-13
7.62385e-13
7.95584e-13
5.6493e-13
6.55048e-13
1.0813e-12
1.63356e-12
2.85248e-12
4.91931e-12
9.69764e-12
1.38445e-11
3.41107e-12
2.45634e-12
2.16592e-12
2.16209e-12
2.45949e-12
3.45663e-12
1.40298e-11
9.88349e-12
5.02835e-12
2.88603e-12
1.65173e-12
1.09455e-12
6.66395e-13
5.65261e-13
8.01954e-13
7.696e-13
6.22169e-13
4.30443e-13
2.50957e-14
4.1644e-14
5.20253e-14
6.87509e-14
1.04872e-13
1.87344e-13
3.14269e-13
3.13363e-13
4.40327e-13
7.56051e-13
9.39204e-13
1.29565e-12
1.94317e-12
2.50875e-12
2.16191e-12
2.16059e-12
2.51041e-12
1.9445e-12
1.30522e-12
9.39903e-13
7.63527e-13
4.50221e-13
3.1792e-13
3.19031e-13
1.91504e-13
1.05596e-13
6.91339e-14
5.27211e-14
4.16196e-14
2.63117e-14
6.27624e-16
1.16356e-15
1.54908e-15
2.44935e-15
4.78185e-15
9.37648e-15
1.71783e-14
2.99179e-14
6.34682e-14
1.26945e-13
1.61501e-13
2.0115e-13
2.77979e-13
3.39538e-13
3.18281e-13
3.18569e-13
3.38191e-13
2.78582e-13
2.02588e-13
1.60854e-13
1.29505e-13
6.52014e-14
3.05883e-14
1.75534e-14
9.6186e-15
4.81761e-15
2.4638e-15
1.57627e-15
1.16238e-15
6.62121e-16
1.64915e-17
3.24479e-17
4.26623e-17
6.50176e-17
1.13337e-16
2.11377e-16
4.26245e-16
9.78087e-16
2.31181e-15
5.3478e-15
1.12082e-14
2.20398e-14
3.80265e-14
5.95122e-14
8.46311e-14
8.46055e-14
5.96417e-14
3.81951e-14
2.22763e-14
1.13921e-14
5.49905e-15
2.38525e-15
1.00124e-15
4.37466e-16
2.17499e-16
1.14057e-16
6.55418e-17
4.34036e-17
3.24159e-17
1.74319e-17
4.03249e-19
8.44924e-19
1.08608e-18
1.62085e-18
2.6992e-18
4.92174e-18
9.63693e-18
2.00537e-17
4.44869e-17
1.06861e-16
2.64318e-16
5.86733e-16
1.07679e-15
1.83899e-15
2.80725e-15
2.80451e-15
1.84436e-15
1.08231e-15
5.9404e-16
2.70892e-16
1.10063e-16
4.59824e-17
2.05565e-17
9.88236e-18
5.06523e-18
2.72906e-18
1.62955e-18
1.10726e-18
8.42896e-19
4.2619e-19
8.68993e-21
1.94486e-20
2.45564e-20
3.57892e-20
5.83258e-20
1.03113e-19
1.94461e-19
3.84212e-19
8.13093e-19
1.84692e-18
4.17659e-18
8.52481e-18
1.50242e-17
2.43562e-17
3.6645e-17
3.65962e-17
2.44686e-17
1.51338e-17
8.6271e-18
4.27085e-18
1.90162e-18
8.38964e-19
3.95333e-19
1.99866e-19
1.0622e-19
5.89633e-20
3.60754e-20
2.50461e-20
1.94323e-20
9.19946e-21
1.64488e-22
3.93591e-22
4.86987e-22
6.86777e-22
1.09841e-21
1.86227e-21
3.37696e-21
6.41035e-21
1.28197e-20
2.72428e-20
5.83974e-20
1.12968e-19
1.91084e-19
2.9903e-19
4.39958e-19
4.38627e-19
2.99668e-19
1.92446e-19
1.14332e-19
5.9702e-20
2.82355e-20
1.32291e-20
6.58173e-21
3.47774e-21
1.92138e-21
1.10475e-21
6.96698e-22
4.95826e-22
3.92603e-22
1.7366e-22
2.68811e-24
6.90791e-24
8.33407e-24
1.15412e-23
1.76287e-23
2.88546e-23
5.01257e-23
9.01494e-23
1.68232e-22
3.3445e-22
6.73906e-22
1.23059e-21
1.96863e-21
2.8925e-21
4.06431e-21
4.0616e-21
2.90856e-21
1.98556e-21
1.24518e-21
6.90795e-22
3.47084e-22
1.74626e-22
9.24147e-23
5.14896e-23
2.98126e-23
1.78811e-23
1.16564e-23
8.51675e-24
6.90219e-24
2.85096e-24
3.83227e-26
1.0558e-25
1.23423e-25
1.66545e-25
2.43758e-25
3.8437e-25
6.29326e-25
1.06187e-24
1.8448e-24
3.40773e-24
6.31322e-24
1.07777e-23
1.5787e-23
1.93014e-23
2.21917e-23
2.21653e-23
1.92344e-23
1.57122e-23
1.08882e-23
6.48769e-24
3.5223e-24
1.91962e-24
1.0916e-24
6.47021e-25
3.94893e-25
2.47987e-25
1.67733e-25
1.26372e-25
1.05112e-25
4.04878e-26
4.63407e-28
1.37684e-27
1.57728e-27
2.02852e-27
2.90398e-27
4.28914e-27
6.62408e-27
1.05302e-26
1.68816e-26
2.84297e-26
4.82085e-26
7.59193e-26
9.4919e-26
7.47801e-26
1.01981e-25
1.01925e-25
7.06333e-26
8.89787e-26
7.49083e-26
4.93759e-26
2.94086e-26
1.75427e-26
1.08312e-26
6.85847e-27
4.42997e-27
2.93237e-27
2.06932e-27
1.61146e-27
1.37637e-27
4.93818e-28
4.87296e-30
1.54098e-29
1.71463e-29
2.1402e-29
2.9209e-29
4.0355e-29
5.91424e-29
8.71779e-29
1.27114e-28
1.94236e-28
3.00748e-28
4.25597e-28
4.20325e-28
3.95984e-28
8.99338e-28
8.97065e-28
3.48276e-28
2.85914e-28
3.97157e-28
3.05896e-28
2.0232e-28
1.32694e-28
8.94834e-29
6.10383e-29
4.20632e-29
2.94392e-29
2.17404e-29
1.7512e-29
1.53878e-29
5.14736e-30
4.28088e-32
1.47329e-31
1.57479e-31
1.92213e-31
2.44588e-31
3.24684e-31
4.4365e-31
5.96838e-31
7.93614e-31
1.09623e-30
1.52246e-30
1.91169e-30
1.38485e-30
2.54977e-30
6.39524e-30
6.35786e-30
2.02675e-30
3.65424e-31
1.59098e-30
1.52529e-30
1.13787e-30
8.29126e-31
6.16671e-31
4.56358e-31
3.3663e-31
2.49564e-31
1.93333e-31
1.61634e-31
1.46524e-31
4.56676e-32
3.21058e-34
1.18734e-33
1.23316e-33
1.42735e-33
1.74768e-33
2.19372e-33
2.72923e-33
3.38145e-33
4.10748e-33
5.04786e-33
6.19777e-33
6.97128e-33
4.41791e-33
1.25176e-32
3.4159e-32
3.37752e-32
9.82979e-33
8.85616e-34
4.6227e-33
6.17881e-33
5.26501e-33
4.29558e-33
3.53217e-33
2.84453e-33
2.25741e-33
1.78247e-33
1.45453e-33
1.26482e-33
1.18217e-33
3.42817e-34
2.05087e-36
8.02774e-36
8.18595e-36
9.0197e-36
1.06506e-35
1.22013e-35
1.40839e-35
1.62154e-35
1.77197e-35
1.921e-35
2.10246e-35
2.08711e-35
1.31848e-35
4.7484e-35
1.40124e-34
1.37479e-34
3.87381e-35
2.58771e-36
9.50352e-36
2.05918e-35
1.99561e-35
1.83131e-35
1.67523e-35
1.4793e-35
1.2707e-35
1.07202e-35
9.21674e-36
8.33058e-36
8.02641e-36
2.1699e-36
1.07245e-38
4.61434e-38
4.50635e-38
4.84107e-38
5.32201e-38
5.69811e-38
6.22401e-38
6.5063e-38
6.36164e-38
6.21459e-38
6.05616e-38
5.57428e-38
3.57828e-38
1.39461e-37
4.33256e-37
4.20394e-37
1.14339e-37
6.61032e-39
1.54916e-38
5.70724e-38
6.33236e-38
6.53411e-38
6.69488e-38
6.46759e-38
5.99886e-38
5.40245e-38
4.90062e-38
4.60286e-38
4.58087e-38
1.15903e-38
4.71048e-41
2.24525e-40
2.0905e-40
2.17284e-40
2.24756e-40
2.30762e-40
2.32121e-40
2.20119e-40
2.04495e-40
1.89493e-40
1.73157e-40
1.53657e-40
1.13146e-40
3.19172e-40
1.02326e-39
9.7518e-40
2.48749e-40
1.49043e-41
4.39005e-41
1.52502e-40
1.78709e-40
2.0329e-40
2.30228e-40
2.40686e-40
2.38493e-40
2.29341e-40
2.20726e-40
2.1417e-40
2.19531e-40
5.22719e-41
1.77571e-43
9.06427e-43
8.38667e-43
8.32165e-43
8.34712e-43
8.0654e-43
7.61679e-43
7.17162e-43
6.80698e-43
6.42049e-43
5.88192e-43
5.45324e-43
5.19804e-43
6.012e-43
1.86824e-42
1.74173e-42
3.80645e-43
2.39853e-44
2.91367e-43
4.5494e-43
5.06022e-43
5.94815e-43
7.4105e-43
7.97381e-43
8.23264e-43
8.36357e-43
8.56041e-43
8.40399e-43
8.78931e-43
2.01419e-43
5.41525e-46
3.26637e-45
2.91218e-45
2.83896e-45
2.77398e-45
2.62331e-45
2.55421e-45
2.55451e-45
2.59855e-45
2.58847e-45
2.39903e-45
2.22937e-45
2.16114e-45
1.56418e-45
2.71448e-45
2.50892e-45
4.40876e-46
3.31085e-47
1.60312e-45
1.64036e-45
1.67457e-45
1.90309e-45
2.52159e-45
2.61695e-45
2.62789e-45
2.73435e-45
2.96763e-45
2.8101e-45
2.94257e-45
6.92345e-46
1.34196e-48
1.13882e-47
9.40061e-48
9.42018e-48
9.25639e-48
9.19561e-48
9.62361e-48
1.02133e-47
1.09343e-47
1.08823e-47
9.63412e-48
8.36274e-48
7.46783e-48
6.13601e-48
3.42187e-48
3.27469e-48
4.47863e-49
4.19051e-48
6.48147e-48
6.04913e-48
6.18917e-48
6.86812e-48
9.58679e-48
9.42809e-48
8.66251e-48
8.81234e-48
1.00811e-47
8.33268e-48
8.35448e-48
2.34495e-48
2.97802e-51
4.02502e-50
3.24066e-50
3.38557e-50
3.44052e-50
3.60194e-50
3.91617e-50
4.20676e-50
4.4313e-50
4.03219e-50
3.34861e-50
2.58186e-50
2.06091e-50
1.77204e-50
7.60073e-51
7.24501e-51
7.22095e-51
1.58092e-50
1.92159e-50
1.91802e-50
2.14132e-50
2.47519e-50
3.72304e-50
3.71399e-50
3.18212e-50
3.09297e-50
3.71983e-50
2.38888e-50
2.09594e-50
8.8372e-51
5.41411e-54
1.58326e-52
1.23878e-52
1.33192e-52
1.36783e-52
1.43926e-52
1.54192e-52
1.57634e-52
1.51321e-52
1.28342e-52
9.23838e-53
6.30362e-53
4.45766e-53
3.58441e-53
2.26322e-53
2.05097e-53
1.89385e-53
3.51412e-53
4.35646e-53
4.79444e-53
6.07838e-53
8.05739e-53
1.30325e-52
1.42186e-52
1.2193e-52
1.17008e-52
1.48949e-52
7.40447e-53
5.10804e-53
3.74544e-53
8.79958e-57
6.49735e-55
4.84562e-55
5.22098e-55
5.20042e-55
5.26755e-55
5.33387e-55
4.97058e-55
4.31171e-55
3.26679e-55
2.03329e-55
1.20369e-55
7.43184e-56
5.37474e-56
3.73912e-56
3.35491e-56
2.76036e-56
5.39273e-56
7.52513e-56
9.45596e-56
1.37015e-55
2.16978e-55
3.864e-55
4.77558e-55
4.34297e-55
4.30845e-55
5.84352e-55
2.52958e-55
1.36523e-55
1.5826e-55
1.79704e-59
2.42298e-57
1.74909e-57
1.83983e-57
1.7364e-57
1.66011e-57
1.53007e-57
1.31115e-57
1.00575e-57
6.61822e-58
3.55577e-58
1.79685e-58
9.52515e-59
6.0462e-59
4.09739e-59
3.55728e-59
2.75866e-59
6.0205e-59
9.71343e-59
1.42097e-58
2.41876e-58
4.47721e-58
9.89722e-58
1.31712e-57
1.33629e-57
1.40624e-57
2.04365e-57
8.5876e-58
4.05769e-58
5.99014e-58
3.72856e-62
7.76021e-60
5.45364e-60
5.49185e-60
4.89856e-60
4.34601e-60
3.70001e-60
2.80893e-60
1.8983e-60
1.07852e-60
4.93069e-61
2.097e-61
9.39029e-62
5.13613e-62
3.25204e-62
2.67978e-62
1.89714e-62
4.79747e-62
9.18219e-62
1.59195e-61
3.28001e-61
7.28823e-61
2.06804e-60
2.98455e-60
3.44475e-60
3.88788e-60
6.07275e-60
2.61231e-60
1.19438e-60
1.932e-60
7.26764e-65
2.09487e-62
1.42782e-62
1.36845e-62
1.15901e-62
9.41601e-63
7.27719e-63
4.92434e-63
2.9065e-63
1.41238e-63
5.43044e-64
1.92178e-64
7.18341e-65
3.33899e-65
1.93676e-65
1.4796e-65
8.61675e-66
2.59342e-65
6.06463e-65
1.27047e-64
3.31474e-64
9.15842e-64
3.38288e-63
5.66303e-63
7.24497e-63
9.0467e-63
1.50461e-62
6.75976e-63
3.12818e-63
5.20997e-63
1.38591e-67
4.70377e-65
3.10221e-65
2.82865e-65
2.26892e-65
1.68427e-65
1.17795e-65
7.06614e-66
3.61658e-66
1.49137e-66
4.78624e-67
1.40095e-67
4.36224e-68
1.71896e-68
9.14574e-69
6.22537e-69
3.83661e-69
1.26333e-68
3.74221e-68
1.00969e-67
2.95553e-67
8.56986e-67
4.42752e-66
8.7864e-66
1.24812e-65
1.74523e-65
3.08606e-65
1.4591e-65
6.93721e-66
1.16727e-65
2.4098e-70
8.72626e-68
5.60446e-68
4.84591e-68
3.6476e-68
2.48525e-68
1.56829e-68
8.30404e-69
3.66827e-69
1.27866e-69
3.4218e-70
8.35892e-71
2.22354e-71
7.69236e-72
3.95322e-72
2.25104e-72
1.32232e-72
5.233e-72
1.90224e-71
6.3757e-71
2.29406e-70
7.57001e-70
4.65407e-69
1.11018e-68
1.76946e-68
2.77478e-68
5.2303e-68
2.61202e-68
1.28142e-68
2.16992e-68
3.08212e-73
1.34347e-70
8.4117e-71
6.89103e-71
4.86104e-71
3.03268e-71
1.72256e-71
8.04344e-72
3.0633e-72
9.05527e-73
2.0583e-73
4.40689e-74
1.10312e-74
3.85141e-75
2.16881e-75
1.47318e-75
3.96142e-76
1.67954e-75
7.64235e-75
3.22087e-74
1.44031e-73
5.72904e-73
3.92243e-72
1.14689e-71
2.06819e-71
3.64495e-71
7.32976e-71
3.87457e-71
1.96264e-71
3.34951e-71
3.03551e-76
1.72838e-73
1.05134e-73
8.18273e-74
5.41788e-74
3.08563e-74
1.57788e-74
6.52613e-75
2.16288e-75
5.55451e-76
1.14569e-76
2.46351e-77
6.92222e-78
2.68075e-78
1.65434e-78
1.37681e-78
1.10127e-78
5.57672e-79
2.48537e-78
1.3205e-77
7.40824e-77
3.54996e-76
2.66466e-75
9.77012e-75
2.00551e-74
3.97063e-74
8.51094e-74
4.76688e-74
2.49071e-74
4.30242e-74
2.81217e-79
1.86205e-76
1.09813e-76
8.17406e-77
5.10236e-77
2.6508e-77
1.22927e-77
4.58175e-78
1.36315e-78
3.25819e-79
6.99921e-80
1.75689e-80
5.57202e-81
2.3022e-81
1.47535e-81
1.31713e-81
1.63865e-81
2.21146e-81
1.68106e-81
4.4815e-81
3.117e-80
1.81216e-79
1.51512e-78
6.99947e-78
1.63116e-77
3.60934e-77
8.21726e-77
4.87289e-77
2.61988e-77
4.61633e-77
2.65314e-82
1.68996e-79
9.65593e-80
6.95428e-80
4.13274e-80
1.96584e-80
8.42302e-81
2.94252e-81
8.41677e-82
2.0807e-82
5.16252e-83
1.45399e-83
4.83695e-84
2.01722e-84
1.2943e-84
1.17969e-84
1.61915e-84
3.01311e-84
5.84705e-84
6.4056e-84
1.08886e-83
7.64799e-83
7.94415e-82
4.36924e-81
1.14086e-80
2.77027e-80
6.63352e-80
4.15446e-80
2.28698e-80
4.1674e-80
1.84963e-85
1.31229e-82
7.2598e-83
5.14838e-83
2.96411e-83
1.3029e-83
5.34035e-84
1.86351e-84
5.52049e-85
1.5014e-85
4.08125e-86
1.19093e-86
3.9424e-87
1.62149e-87
1.0311e-87
9.46324e-88
1.34126e-87
2.71043e-87
6.63253e-87
1.73822e-86
3.64775e-86
3.88693e-86
4.72662e-85
2.55126e-84
7.11376e-84
1.82499e-83
4.52355e-83
2.97301e-83
1.66129e-83
3.2063e-83
9.44485e-89
8.9313e-86
4.77538e-86
3.42177e-86
1.95443e-86
8.11667e-87
3.31462e-87
1.21388e-87
3.85514e-88
1.10175e-88
3.06801e-89
8.84908e-90
2.86155e-90
1.15422e-90
7.26155e-91
6.68313e-91
9.63922e-91
2.01844e-90
5.3228e-90
1.67233e-89
5.23608e-89
1.07799e-88
3.34964e-88
1.52956e-87
4.23429e-87
1.06774e-86
2.70492e-86
1.86362e-86
1.0079e-86
2.1515e-86
5.17688e-92
5.50363e-89
2.84999e-89
2.13127e-89
1.23713e-89
4.96538e-90
2.08501e-90
8.11422e-91
2.64372e-91
7.60464e-92
2.08494e-92
5.84089e-93
1.83661e-93
7.26017e-94
4.51999e-94
4.16786e-94
6.09858e-94
1.30949e-93
3.59575e-93
1.2167e-92
4.35764e-92
1.33282e-91
4.13553e-91
1.41563e-90
3.40542e-90
6.21467e-90
1.6021e-89
1.04948e-89
5.14629e-90
1.3062e-89
3.47076e-95
3.23336e-92
1.62478e-92
1.3047e-92
7.77578e-93
3.08984e-93
1.33301e-93
5.27893e-94
1.7121e-94
4.82033e-95
1.27956e-95
3.46487e-96
1.05906e-96
4.10596e-97
2.53032e-97
2.34106e-97
3.47687e-97
7.64974e-97
2.17164e-96
7.70265e-96
2.96302e-95
1.0482e-94
3.483e-94
1.13907e-93
2.65986e-93
4.39811e-93
9.145e-93
5.58093e-93
2.22693e-93
7.56997e-93
1.74013e-98
1.91301e-95
9.39366e-96
8.17496e-96
4.97895e-96
1.93805e-96
8.38799e-97
3.29564e-97
1.04182e-97
2.83407e-98
7.24828e-99
1.89705e-99
5.64436e-100
2.14948e-100
1.31254e-100
1.22062e-100
1.84316e-100
4.16353e-100
1.22269e-99
4.50989e-99
1.82239e-98
6.96504e-98
2.44703e-97
8.0858e-97
1.92289e-96
3.11064e-96
5.47334e-96
3.01952e-96
8.39264e-97
4.43229e-96
1.00213e-101
1.19286e-98
5.72713e-99
5.22799e-99
3.17635e-99
1.20603e-99
5.16712e-100
1.97861e-100
6.03496e-101
1.58008e-101
3.89501e-102
9.87397e-103
2.86645e-103
1.07436e-103
6.51264e-104
6.09255e-104
9.37035e-104
2.1777e-103
6.62811e-103
2.53631e-102
1.06529e-101
4.27836e-101
1.57015e-100
5.31552e-100
1.29905e-99
2.10727e-99
3.41304e-99
1.76909e-99
3.21295e-100
2.74679e-99
5.0451e-105
7.61777e-102
3.58027e-102
3.35422e-102
2.00725e-102
7.41087e-103
3.11514e-103
1.15265e-103
3.38263e-104
8.53077e-105
2.03175e-105
5.00277e-106
1.42069e-106
5.25128e-107
3.16363e-107
2.97967e-107
4.67189e-107
1.11879e-106
3.53405e-106
1.40121e-105
6.08151e-105
2.53212e-104
9.61437e-104
3.33677e-103
8.39341e-103
1.38049e-102
2.15795e-102
1.07748e-102
1.25372e-103
1.74488e-102
3.22645e-108
4.92541e-105
2.26995e-105
2.14463e-105
1.25283e-105
4.49082e-106
1.84521e-106
6.58038e-107
1.85911e-107
4.52644e-108
1.04448e-108
2.5049e-109
6.9753e-110
2.54727e-110
1.526e-110
1.44742e-110
2.31568e-110
5.71474e-110
1.87419e-109
7.69178e-109
3.43753e-108
1.47348e-107
5.74999e-107
2.03941e-106
5.27199e-106
8.83217e-106
1.37167e-105
6.76688e-106
5.29329e-107
1.12216e-105
2.09294e-111
3.19733e-108
1.44527e-108
1.36312e-108
7.72986e-109
2.69184e-109
1.08034e-109
3.71296e-110
1.01135e-110
2.38233e-111
5.33942e-112
1.24962e-112
3.41897e-113
1.2349e-113
7.37028e-114
7.0414e-114
1.14686e-113
2.92018e-113
9.93892e-113
4.21758e-112
1.93707e-111
8.51774e-111
3.40212e-110
1.229e-109
3.25685e-109
5.56299e-109
8.70855e-109
4.31597e-109
2.59018e-110
7.23705e-109
1.45961e-114
2.07593e-111
9.25193e-112
8.66515e-112
4.75432e-112
1.60848e-112
6.30315e-113
2.08731e-113
5.48586e-114
1.25198e-114
2.7307e-115
6.24873e-116
1.68261e-116
6.04394e-117
3.605e-117
3.46953e-117
5.74224e-117
1.49955e-116
5.29439e-116
2.32075e-115
1.09431e-114
4.9282e-114
2.01081e-113
7.38273e-113
2.00277e-112
3.49136e-112
5.53627e-112
2.76093e-112
1.58267e-113
4.65543e-112
7.34094e-115
1.09729e-114
4.24028e-112
3.05334e-112
1.07125e-112
4.03776e-113
1.26016e-113
3.21184e-114
7.28553e-115
1.61091e-115
3.83453e-116
1.07673e-116
3.34054e-117
1.60356e-117
9.3539e-118
9.08723e-118
1.49571e-117
3.33147e-117
1.05105e-116
3.7876e-116
1.63143e-115
7.58822e-115
3.3885e-114
1.37375e-113
4.96742e-113
1.41012e-112
1.4345e-112
1.51771e-113
1.51771e-113
1.51771e-113
0.999999
1
1
1
1
1.00001
1.00001
1.00001
1.00001
1
1
1
1
1
1
1
1.00001
1.00001
1
1
0.999997
0.999995
0.999994
0.999997
1
1.00001
1.00002
1.00003
1.00004
1.00003
0.999999
1
1
1
1.00001
1.00001
1.00001
1.00001
1.00001
1.00001
1
1
1
1.00001
1.00001
1.00001
1.00001
1.00001
1
1
0.999996
0.999994
0.999995
1
1.00001
1.00002
1.00003
1.00004
1.00005
1.00004
0.999999
0.999999
1
1
1
1.00001
1.00001
1.00001
1.00001
1.00001
1.00001
1.00001
1.00001
1.00001
1.00001
1.00001
1.00001
1
1
1
0.999999
1
1
1.00001
1.00001
1.00002
1.00003
1.00003
1.00003
1.00002
0.999999
1
1
1
1
1.00001
1.00001
1.00001
1.00001
1.00001
1.00001
1.00001
1.00001
1.00001
1.00001
1.00001
1
1
1
1
1
1.00001
1.00001
1.00001
1.00002
1.00002
1.00001
1.00001
1.00001
0.999999
1
1
1
1
1
1
1
1.00001
1.00001
1.00001
1.00001
1.00001
1.00001
1.00001
1.00001
1
1
0.999998
0.999999
1
1.00001
1.00001
1.00001
1.00001
1.00001
1.00001
0.999998
0.999992
0.999985
0.999984
1
1
1
1
1
0.999999
1
1
1
1.00001
1.00001
1.00001
1.00001
1.00001
1
1
0.999998
0.999998
0.999999
1
1.00001
1.00001
1.00001
1.00001
0.999999
0.999992
0.999983
0.999976
0.999972
0.999977
1
1
1
1
0.999997
0.999996
0.999996
0.999997
1
1
1.00001
1.00001
1.00001
1.00001
1
1
1
1
1
1
1
1
1
0.999994
0.999987
0.99998
0.999973
0.999969
0.999968
0.999978
1.00001
1.00001
1
0.999999
0.999997
0.999995
0.999995
0.999995
0.999997
0.999999
1
1
1
1.00001
1.00001
1.00001
1.00001
1.00001
1.00001
1
1
0.999996
0.99999