/*--------------------------------*- C++ -*----------------------------------*\
| =========                 |                                                 |
| \\      /  F ield         | OpenFOAM: The Open Source CFD Toolbox           |
|  \\    /   O peration     | Version:  2312                                  |
|   \\  /    A nd           | Website:  www.openfoam.com                      |
|    \\/     M anipulation  |                                                 |
\*---------------------------------------------------------------------------*/
FoamFile
{
    version     2.0;
    format      ascii;
    arch        "LSB;label=32;scalar=64";
    class       volScalarField;
    location    "0.39227";
    object      epsilon;
}
// * * * * * * * * * * * * * * * * * * * * * * * * * * * * * * * * * * * * * //

dimensions      [0 2 -3 0 0 0 0];

internalField   nonuniform List<scalar> 
90000
(
1.41477e-05
1.41482e-05
1.41482e-05
1.41482e-05
1.41482e-05
1.41482e-05
1.41482e-05
1.41482e-05
1.41481e-05
1.41481e-05
1.41481e-05
1.41481e-05
1.4148e-05
1.4148e-05
1.4148e-05
1.4148e-05
1.4148e-05
1.4148e-05
1.41481e-05
1.41481e-05
1.41481e-05
1.41481e-05
1.41482e-05
1.41483e-05
1.41483e-05
1.41484e-05
1.41484e-05
1.41483e-05
1.41482e-05
1.4148e-05
1.41482e-05
1.41591e-05
1.41594e-05
1.41594e-05
1.41594e-05
1.41594e-05
1.41594e-05
1.41594e-05
1.41594e-05
1.41594e-05
1.41593e-05
1.41593e-05
1.41593e-05
1.41592e-05
1.41592e-05
1.41592e-05
1.41592e-05
1.41592e-05
1.41592e-05
1.41593e-05
1.41593e-05
1.41594e-05
1.41594e-05
1.41594e-05
1.41594e-05
1.41594e-05
1.41594e-05
1.41595e-05
1.41594e-05
1.4149e-05
1.41482e-05
1.41594e-05
1.41598e-05
1.41598e-05
1.41598e-05
1.41598e-05
1.41598e-05
1.41598e-05
1.41597e-05
1.41597e-05
1.41597e-05
1.41596e-05
1.41596e-05
1.41596e-05
1.41595e-05
1.41595e-05
1.41595e-05
1.41596e-05
1.41596e-05
1.41597e-05
1.41597e-05
1.41597e-05
1.41597e-05
1.41597e-05
1.41597e-05
1.41598e-05
1.41598e-05
1.41597e-05
1.41591e-05
1.41484e-05
1.41482e-05
1.41594e-05
1.41598e-05
1.41598e-05
1.41598e-05
1.41598e-05
1.41598e-05
1.41598e-05
1.41598e-05
1.41597e-05
1.41597e-05
1.41597e-05
1.41596e-05
1.41596e-05
1.41596e-05
1.41595e-05
1.41596e-05
1.41596e-05
1.41597e-05
1.41597e-05
1.41597e-05
1.41597e-05
1.41597e-05
1.41597e-05
1.41598e-05
1.41599e-05
1.41599e-05
1.416e-05
1.41593e-05
1.41483e-05
1.41483e-05
1.41595e-05
1.41599e-05
1.41599e-05
1.41599e-05
1.41599e-05
1.41599e-05
1.41598e-05
1.41598e-05
1.41598e-05
1.41597e-05
1.41597e-05
1.41596e-05
1.41596e-05
1.41596e-05
1.41596e-05
1.41596e-05
1.41597e-05
1.41597e-05
1.41597e-05
1.41597e-05
1.41597e-05
1.41597e-05
1.41598e-05
1.41598e-05
1.41598e-05
1.41598e-05
1.41598e-05
1.41594e-05
1.41482e-05
1.41484e-05
1.41596e-05
1.416e-05
1.416e-05
1.416e-05
1.41599e-05
1.41599e-05
1.41599e-05
1.41598e-05
1.41598e-05
1.41597e-05
1.41597e-05
1.41596e-05
1.41596e-05
1.41596e-05
1.41596e-05
1.41597e-05
1.41597e-05
1.41597e-05
1.41597e-05
1.41597e-05
1.41597e-05
1.41598e-05
1.41598e-05
1.41598e-05
1.41598e-05
1.41598e-05
1.41598e-05
1.41595e-05
1.41483e-05
1.41486e-05
1.41598e-05
1.41601e-05
1.41601e-05
1.41601e-05
1.416e-05
1.416e-05
1.416e-05
1.41599e-05
1.41599e-05
1.41598e-05
1.41597e-05
1.41596e-05
1.41596e-05
1.41596e-05
1.41597e-05
1.41597e-05
1.41597e-05
1.41597e-05
1.41597e-05
1.41598e-05
1.41599e-05
1.41599e-05
1.41599e-05
1.41599e-05
1.41599e-05
1.41599e-05
1.41599e-05
1.41595e-05
1.41484e-05
1.41488e-05
1.416e-05
1.41603e-05
1.41602e-05
1.41602e-05
1.41602e-05
1.41601e-05
1.41601e-05
1.41601e-05
1.416e-05
1.41599e-05
1.41598e-05
1.41597e-05
1.41596e-05
1.41596e-05
1.41597e-05
1.41597e-05
1.41597e-05
1.41598e-05
1.41599e-05
1.41599e-05
1.416e-05
1.41601e-05
1.41601e-05
1.41601e-05
1.41601e-05
1.41601e-05
1.416e-05
1.41596e-05
1.41485e-05
1.41489e-05
1.41602e-05
1.41605e-05
1.41604e-05
1.41604e-05
1.41604e-05
1.41603e-05
1.41603e-05
1.41602e-05
1.41601e-05
1.416e-05
1.41599e-05
1.41597e-05
1.41597e-05
1.41596e-05
1.41597e-05
1.41597e-05
1.41598e-05
1.41599e-05
1.416e-05
1.41601e-05
1.41602e-05
1.41603e-05
1.41603e-05
1.41603e-05
1.41603e-05
1.41602e-05
1.41602e-05
1.41598e-05
1.41487e-05
1.41491e-05
1.41604e-05
1.41607e-05
1.41607e-05
1.41606e-05
1.41606e-05
1.41605e-05
1.41605e-05
1.41604e-05
1.41603e-05
1.41601e-05
1.416e-05
1.41598e-05
1.41597e-05
1.41596e-05
1.41597e-05
1.41598e-05
1.416e-05
1.41601e-05
1.41602e-05
1.41603e-05
1.41604e-05
1.41605e-05
1.41605e-05
1.41605e-05
1.41605e-05
1.41604e-05
1.41604e-05
1.41601e-05
1.4149e-05
1.41493e-05
1.41607e-05
1.4161e-05
1.41609e-05
1.41609e-05
1.41608e-05
1.41607e-05
1.41606e-05
1.41605e-05
1.41604e-05
1.41602e-05
1.41601e-05
1.41599e-05
1.41598e-05
1.41596e-05
1.41597e-05
1.41598e-05
1.41601e-05
1.41602e-05
1.41604e-05
1.41605e-05
1.41606e-05
1.41607e-05
1.41607e-05
1.41607e-05
1.41607e-05
1.41607e-05
1.41607e-05
1.41604e-05
1.41493e-05
1.41496e-05
1.41611e-05
1.41613e-05
1.41613e-05
1.41612e-05
1.41611e-05
1.41609e-05
1.41608e-05
1.41606e-05
1.41605e-05
1.41604e-05
1.41602e-05
1.416e-05
1.41598e-05
1.41596e-05
1.41596e-05
1.41599e-05
1.41601e-05
1.41604e-05
1.41606e-05
1.41607e-05
1.41609e-05
1.41609e-05
1.4161e-05
1.4161e-05
1.4161e-05
1.41611e-05
1.41611e-05
1.41608e-05
1.41497e-05
1.41501e-05
1.41615e-05
1.41617e-05
1.41617e-05
1.41615e-05
1.41614e-05
1.41612e-05
1.4161e-05
1.41608e-05
1.41607e-05
1.41605e-05
1.41604e-05
1.41601e-05
1.41599e-05
1.41597e-05
1.41596e-05
1.41599e-05
1.41602e-05
1.41605e-05
1.41607e-05
1.41609e-05
1.41611e-05
1.41612e-05
1.41613e-05
1.41614e-05
1.41615e-05
1.41615e-05
1.41616e-05
1.41613e-05
1.41502e-05
1.41508e-05
1.4162e-05
1.41622e-05
1.41621e-05
1.4162e-05
1.41618e-05
1.41616e-05
1.41613e-05
1.41611e-05
1.4161e-05
1.41608e-05
1.41605e-05
1.41603e-05
1.416e-05
1.41597e-05
1.41597e-05
1.41599e-05
1.41602e-05
1.41606e-05
1.41609e-05
1.41612e-05
1.41614e-05
1.41616e-05
1.41618e-05
1.41619e-05
1.4162e-05
1.41621e-05
1.41622e-05
1.41619e-05
1.41507e-05
1.41517e-05
1.41626e-05
1.41628e-05
1.41627e-05
1.41625e-05
1.41623e-05
1.4162e-05
1.41618e-05
1.41616e-05
1.41614e-05
1.41611e-05
1.41608e-05
1.41604e-05
1.41601e-05
1.41598e-05
1.41598e-05
1.416e-05
1.41603e-05
1.41607e-05
1.41611e-05
1.41614e-05
1.41618e-05
1.4162e-05
1.41623e-05
1.41625e-05
1.41627e-05
1.41628e-05
1.41628e-05
1.41625e-05
1.41514e-05
1.41526e-05
1.41633e-05
1.41636e-05
1.41634e-05
1.41632e-05
1.41629e-05
1.41627e-05
1.41625e-05
1.41622e-05
1.41619e-05
1.41615e-05
1.4161e-05
1.41606e-05
1.41602e-05
1.41599e-05
1.41598e-05
1.41601e-05
1.41604e-05
1.41609e-05
1.41614e-05
1.41618e-05
1.41622e-05
1.41626e-05
1.41629e-05
1.41632e-05
1.41634e-05
1.41636e-05
1.41636e-05
1.41633e-05
1.41522e-05
1.41536e-05
1.41641e-05
1.41644e-05
1.41643e-05
1.41641e-05
1.41638e-05
1.41636e-05
1.41633e-05
1.41629e-05
1.41625e-05
1.4162e-05
1.41614e-05
1.41609e-05
1.41604e-05
1.416e-05
1.41599e-05
1.41602e-05
1.41607e-05
1.41612e-05
1.41618e-05
1.41624e-05
1.41629e-05
1.41634e-05
1.41638e-05
1.41641e-05
1.41643e-05
1.41645e-05
1.41646e-05
1.41643e-05
1.41532e-05
1.41547e-05
1.41652e-05
1.41656e-05
1.41654e-05
1.41652e-05
1.4165e-05
1.41647e-05
1.41643e-05
1.41638e-05
1.41632e-05
1.41625e-05
1.41619e-05
1.41612e-05
1.41606e-05
1.41602e-05
1.41601e-05
1.41605e-05
1.41611e-05
1.41617e-05
1.41624e-05
1.41631e-05
1.41637e-05
1.41643e-05
1.41648e-05
1.41651e-05
1.41654e-05
1.41656e-05
1.41658e-05
1.41655e-05
1.41546e-05
1.4156e-05
1.41667e-05
1.4167e-05
1.41668e-05
1.41666e-05
1.41663e-05
1.41659e-05
1.41654e-05
1.41648e-05
1.41641e-05
1.41633e-05
1.41625e-05
1.41617e-05
1.4161e-05
1.41604e-05
1.41603e-05
1.41609e-05
1.41616e-05
1.41624e-05
1.41632e-05
1.4164e-05
1.41647e-05
1.41654e-05
1.4166e-05
1.41664e-05
1.41668e-05
1.4167e-05
1.41672e-05
1.41671e-05
1.41561e-05
1.41577e-05
1.41684e-05
1.41687e-05
1.41685e-05
1.41683e-05
1.41679e-05
1.41674e-05
1.41668e-05
1.4166e-05
1.41652e-05
1.41642e-05
1.41633e-05
1.41624e-05
1.41615e-05
1.41607e-05
1.41607e-05
1.41614e-05
1.41623e-05
1.41632e-05
1.41642e-05
1.41651e-05
1.41659e-05
1.41667e-05
1.41674e-05
1.4168e-05
1.41684e-05
1.41688e-05
1.4169e-05
1.41689e-05
1.41579e-05
1.41598e-05
1.41706e-05
1.41709e-05
1.41706e-05
1.41703e-05
1.41699e-05
1.41692e-05
1.41685e-05
1.41675e-05
1.41665e-05
1.41654e-05
1.41643e-05
1.41631e-05
1.4162e-05
1.41611e-05
1.41611e-05
1.4162e-05
1.41631e-05
1.41642e-05
1.41653e-05
1.41664e-05
1.41674e-05
1.41683e-05
1.41691e-05
1.41698e-05
1.41704e-05
1.41709e-05
1.41712e-05
1.4171e-05
1.41601e-05
1.41625e-05
1.41734e-05
1.41735e-05
1.41733e-05
1.41728e-05
1.41722e-05
1.41715e-05
1.41705e-05
1.41694e-05
1.41681e-05
1.41668e-05
1.41654e-05
1.4164e-05
1.41626e-05
1.41617e-05
1.41617e-05
1.41627e-05
1.4164e-05
1.41654e-05
1.41667e-05
1.4168e-05
1.41692e-05
1.41703e-05
1.41713e-05
1.41722e-05
1.41729e-05
1.41734e-05
1.41738e-05
1.41736e-05
1.41628e-05
1.41657e-05
1.41767e-05
1.41768e-05
1.41765e-05
1.41759e-05
1.41751e-05
1.41741e-05
1.41729e-05
1.41716e-05
1.41701e-05
1.41685e-05
1.41668e-05
1.41651e-05
1.41635e-05
1.41624e-05
1.41624e-05
1.41636e-05
1.41652e-05
1.41669e-05
1.41685e-05
1.417e-05
1.41715e-05
1.41728e-05
1.4174e-05
1.41751e-05
1.41759e-05
1.41766e-05
1.4177e-05
1.41769e-05
1.41661e-05
1.41698e-05
1.41808e-05
1.41809e-05
1.41804e-05
1.41796e-05
1.41786e-05
1.41774e-05
1.41759e-05
1.41743e-05
1.41725e-05
1.41705e-05
1.41685e-05
1.41665e-05
1.41646e-05
1.41634e-05
1.41634e-05
1.41648e-05
1.41667e-05
1.41687e-05
1.41707e-05
1.41725e-05
1.41743e-05
1.41759e-05
1.41774e-05
1.41786e-05
1.41796e-05
1.41804e-05
1.4181e-05
1.4181e-05
1.41702e-05
1.41747e-05
1.41858e-05
1.41857e-05
1.4185e-05
1.41841e-05
1.41828e-05
1.41813e-05
1.41795e-05
1.41776e-05
1.41754e-05
1.41731e-05
1.41707e-05
1.41684e-05
1.41662e-05
1.41646e-05
1.41647e-05
1.41663e-05
1.41685e-05
1.41709e-05
1.41733e-05
1.41756e-05
1.41777e-05
1.41796e-05
1.41813e-05
1.41828e-05
1.4184e-05
1.4185e-05
1.41857e-05
1.41859e-05
1.41751e-05
1.41807e-05
1.41916e-05
1.41914e-05
1.41905e-05
1.41894e-05
1.41879e-05
1.41861e-05
1.4184e-05
1.41817e-05
1.41791e-05
1.41764e-05
1.41735e-05
1.41707e-05
1.41681e-05
1.41663e-05
1.41663e-05
1.41681e-05
1.41707e-05
1.41736e-05
1.41765e-05
1.41793e-05
1.41818e-05
1.41841e-05
1.41861e-05
1.41879e-05
1.41893e-05
1.41905e-05
1.41914e-05
1.41917e-05
1.41809e-05
1.41878e-05
1.41985e-05
1.41982e-05
1.41971e-05
1.41958e-05
1.4194e-05
1.4192e-05
1.41896e-05
1.41868e-05
1.41837e-05
1.41804e-05
1.4177e-05
1.41736e-05
1.41704e-05
1.41683e-05
1.41683e-05
1.41704e-05
1.41735e-05
1.4177e-05
1.41804e-05
1.41837e-05
1.41868e-05
1.41895e-05
1.41919e-05
1.4194e-05
1.41958e-05
1.41972e-05
1.41983e-05
1.41986e-05
1.41879e-05
1.41962e-05
1.42068e-05
1.42063e-05
1.42051e-05
1.42035e-05
1.42015e-05
1.41991e-05
1.41962e-05
1.41929e-05
1.41892e-05
1.41853e-05
1.41812e-05
1.41771e-05
1.41734e-05
1.41709e-05
1.41709e-05
1.41733e-05
1.4177e-05
1.41811e-05
1.41853e-05
1.41892e-05
1.41928e-05
1.41961e-05
1.4199e-05
1.42015e-05
1.42036e-05
1.42052e-05
1.42064e-05
1.42069e-05
1.41963e-05
1.42062e-05
1.42166e-05
1.4216e-05
1.42146e-05
1.42128e-05
1.42105e-05
1.42076e-05
1.42042e-05
1.42003e-05
1.41959e-05
1.41912e-05
1.41864e-05
1.41815e-05
1.41772e-05
1.41744e-05
1.41744e-05
1.41772e-05
1.41815e-05
1.41864e-05
1.41913e-05
1.41959e-05
1.42003e-05
1.42042e-05
1.42076e-05
1.42105e-05
1.42128e-05
1.42147e-05
1.42161e-05
1.42167e-05
1.42062e-05
1.4218e-05
1.42283e-05
1.42276e-05
1.42261e-05
1.42239e-05
1.42212e-05
1.42178e-05
1.42138e-05
1.42092e-05
1.42041e-05
1.41986e-05
1.41928e-05
1.41872e-05
1.41822e-05
1.4179e-05
1.41791e-05
1.41822e-05
1.41872e-05
1.41929e-05
1.41987e-05
1.42042e-05
1.42093e-05
1.42138e-05
1.42178e-05
1.42212e-05
1.42239e-05
1.4226e-05
1.42277e-05
1.42284e-05
1.4218e-05
1.42321e-05
1.42423e-05
1.42415e-05
1.42397e-05
1.42372e-05
1.4234e-05
1.423e-05
1.42254e-05
1.42201e-05
1.42142e-05
1.42077e-05
1.4201e-05
1.41944e-05
1.41887e-05
1.41851e-05
1.41852e-05
1.41887e-05
1.41945e-05
1.4201e-05
1.42077e-05
1.42142e-05
1.42202e-05
1.42255e-05
1.42302e-05
1.4234e-05
1.42371e-05
1.42396e-05
1.42415e-05
1.42423e-05
1.42321e-05
1.42488e-05
1.42589e-05
1.42579e-05
1.42558e-05
1.4253e-05
1.42493e-05
1.42448e-05
1.42395e-05
1.42334e-05
1.42265e-05
1.42191e-05
1.42112e-05
1.42036e-05
1.41971e-05
1.41931e-05
1.41931e-05
1.41971e-05
1.42036e-05
1.42112e-05
1.4219e-05
1.42266e-05
1.42335e-05
1.42397e-05
1.4245e-05
1.42494e-05
1.4253e-05
1.42558e-05
1.42578e-05
1.42588e-05
1.42488e-05
1.42684e-05
1.42784e-05
1.42772e-05
1.42749e-05
1.42717e-05
1.42676e-05
1.42626e-05
1.42566e-05
1.42496e-05
1.42417e-05
1.4233e-05
1.4224e-05
1.42153e-05
1.42079e-05
1.42034e-05
1.42034e-05
1.42079e-05
1.42152e-05
1.42239e-05
1.4233e-05
1.42417e-05
1.42497e-05
1.42567e-05
1.42627e-05
1.42678e-05
1.42718e-05
1.42749e-05
1.42771e-05
1.42783e-05
1.42685e-05
1.42913e-05
1.43011e-05
1.42998e-05
1.42973e-05
1.42938e-05
1.42894e-05
1.42838e-05
1.42771e-05
1.42692e-05
1.42602e-05
1.42503e-05
1.424e-05
1.423e-05
1.42218e-05
1.42168e-05
1.42169e-05
1.42218e-05
1.42301e-05
1.424e-05
1.42503e-05
1.42602e-05
1.42692e-05
1.42771e-05
1.42839e-05
1.42895e-05
1.42939e-05
1.42972e-05
1.42997e-05
1.4301e-05
1.42912e-05
1.43178e-05
1.43274e-05
1.43261e-05
1.43235e-05
1.43199e-05
1.43151e-05
1.43091e-05
1.43016e-05
1.42928e-05
1.42827e-05
1.42715e-05
1.42599e-05
1.42489e-05
1.42397e-05
1.42344e-05
1.42344e-05
1.42398e-05
1.4249e-05
1.426e-05
1.42716e-05
1.42827e-05
1.42928e-05
1.43015e-05
1.4309e-05
1.43151e-05
1.43198e-05
1.43233e-05
1.43259e-05
1.43272e-05
1.43175e-05
1.43484e-05
1.43578e-05
1.43565e-05
1.43539e-05
1.43502e-05
1.43453e-05
1.43389e-05
1.43309e-05
1.43212e-05
1.431e-05
1.42977e-05
1.4285e-05
1.42729e-05
1.42629e-05
1.42571e-05
1.42571e-05
1.42629e-05
1.42729e-05
1.42852e-05
1.4298e-05
1.43102e-05
1.43213e-05
1.43309e-05
1.43389e-05
1.43453e-05
1.43501e-05
1.43537e-05
1.43562e-05
1.43574e-05
1.43479e-05
1.43832e-05
1.43925e-05
1.43913e-05
1.4389e-05
1.43854e-05
1.43805e-05
1.43739e-05
1.43656e-05
1.43554e-05
1.43434e-05
1.43302e-05
1.43164e-05
1.43033e-05
1.42926e-05
1.42863e-05
1.42863e-05
1.42926e-05
1.43034e-05
1.43167e-05
1.43306e-05
1.43438e-05
1.43558e-05
1.4366e-05
1.43743e-05
1.43808e-05
1.43856e-05
1.4389e-05
1.43912e-05
1.43921e-05
1.43828e-05
1.44225e-05
1.44318e-05
1.44309e-05
1.44289e-05
1.44258e-05
1.44213e-05
1.4415e-05
1.44067e-05
1.43963e-05
1.4384e-05
1.43701e-05
1.43556e-05
1.43417e-05
1.43303e-05
1.43238e-05
1.43238e-05
1.43304e-05
1.43419e-05
1.43559e-05
1.43706e-05
1.43845e-05
1.43969e-05
1.44074e-05
1.44156e-05
1.44218e-05
1.44263e-05
1.44292e-05
1.44309e-05
1.44316e-05
1.44223e-05
1.44662e-05
1.44755e-05
1.44751e-05
1.44739e-05
1.44716e-05
1.4468e-05
1.44626e-05
1.4455e-05
1.4445e-05
1.44328e-05
1.44188e-05
1.44038e-05
1.43895e-05
1.43779e-05
1.43712e-05
1.43712e-05
1.4378e-05
1.43897e-05
1.4404e-05
1.4419e-05
1.44331e-05
1.44454e-05
1.44555e-05
1.44631e-05
1.44686e-05
1.44722e-05
1.44743e-05
1.44753e-05
1.44756e-05
1.44664e-05
1.45139e-05
1.45234e-05
1.45238e-05
1.45238e-05
1.45231e-05
1.45211e-05
1.45173e-05
1.45112e-05
1.45024e-05
1.44911e-05
1.44777e-05
1.44631e-05
1.4449e-05
1.44375e-05
1.44308e-05
1.44308e-05
1.44374e-05
1.44488e-05
1.44629e-05
1.44774e-05
1.4491e-05
1.45024e-05
1.45112e-05
1.45174e-05
1.45215e-05
1.45235e-05
1.45241e-05
1.45242e-05
1.45238e-05
1.45146e-05
1.45649e-05
1.45748e-05
1.45765e-05
1.45784e-05
1.458e-05
1.45806e-05
1.45795e-05
1.4576e-05
1.45695e-05
1.45603e-05
1.45486e-05
1.45355e-05
1.45225e-05
1.45117e-05
1.45054e-05
1.45053e-05
1.45114e-05
1.45221e-05
1.45351e-05
1.45482e-05
1.45599e-05
1.45691e-05
1.45755e-05
1.45792e-05
1.45805e-05
1.45799e-05
1.45785e-05
1.45768e-05
1.45754e-05
1.45657e-05
1.46181e-05
1.46285e-05
1.46321e-05
1.46368e-05
1.46418e-05
1.46463e-05
1.46492e-05
1.46498e-05
1.46475e-05
1.46419e-05
1.46336e-05
1.46234e-05
1.46127e-05
1.46035e-05
1.4598e-05
1.4598e-05
1.46034e-05
1.46125e-05
1.46231e-05
1.46333e-05
1.46416e-05
1.4647e-05
1.46493e-05
1.46488e-05
1.46459e-05
1.46415e-05
1.46368e-05
1.46324e-05
1.46293e-05
1.46187e-05
1.46717e-05
1.46832e-05
1.46895e-05
1.46979e-05
1.47075e-05
1.47173e-05
1.47261e-05
1.47328e-05
1.47367e-05
1.4737e-05
1.47341e-05
1.47286e-05
1.47218e-05
1.47155e-05
1.47117e-05
1.47118e-05
1.47157e-05
1.4722e-05
1.47287e-05
1.47342e-05
1.4737e-05
1.47365e-05
1.47326e-05
1.47259e-05
1.47169e-05
1.47072e-05
1.46979e-05
1.46899e-05
1.46839e-05
1.46721e-05
1.47241e-05
1.4737e-05
1.47468e-05
1.47601e-05
1.47757e-05
1.47926e-05
1.48093e-05
1.48247e-05
1.48373e-05
1.48466e-05
1.48516e-05
1.48532e-05
1.48521e-05
1.48501e-05
1.48487e-05
1.48489e-05
1.48504e-05
1.48524e-05
1.48534e-05
1.48519e-05
1.48467e-05
1.48374e-05
1.48247e-05
1.48093e-05
1.47922e-05
1.47755e-05
1.47601e-05
1.47474e-05
1.47374e-05
1.47243e-05
1.47729e-05
1.47876e-05
1.48017e-05
1.48211e-05
1.48447e-05
1.48706e-05
1.48978e-05
1.49246e-05
1.49493e-05
1.49705e-05
1.49873e-05
1.49991e-05
1.50064e-05
1.50108e-05
1.50129e-05
1.50129e-05
1.50108e-05
1.50064e-05
1.49992e-05
1.49875e-05
1.49706e-05
1.49493e-05
1.49248e-05
1.48977e-05
1.48704e-05
1.48446e-05
1.48213e-05
1.48022e-05
1.47877e-05
1.4773e-05
1.4813e-05
1.48305e-05
1.48504e-05
1.48776e-05
1.49111e-05
1.49487e-05
1.49893e-05
1.50306e-05
1.50707e-05
1.51079e-05
1.51418e-05
1.51718e-05
1.51981e-05
1.5219e-05
1.52347e-05
1.52346e-05
1.52189e-05
1.5198e-05
1.51718e-05
1.51419e-05
1.51079e-05
1.50707e-05
1.50306e-05
1.49891e-05
1.49485e-05
1.49111e-05
1.48779e-05
1.48507e-05
1.48307e-05
1.48132e-05
1.48446e-05
1.48663e-05
1.48936e-05
1.49307e-05
1.49766e-05
1.50293e-05
1.50873e-05
1.51495e-05
1.52151e-05
1.52875e-05
1.5375e-05
1.54921e-05
1.5649e-05
1.58281e-05
1.60103e-05
1.60099e-05
1.58281e-05
1.56489e-05
1.54922e-05
1.53752e-05
1.52877e-05
1.52152e-05
1.51495e-05
1.50871e-05
1.50292e-05
1.49766e-05
1.4931e-05
1.48938e-05
1.48664e-05
1.48448e-05
1.48879e-05
1.49155e-05
1.49515e-05
1.50007e-05
1.50621e-05
1.51361e-05
1.52252e-05
1.53416e-05
1.55163e-05
1.58186e-05
1.63793e-05
1.7389e-05
1.89819e-05
2.09682e-05
2.31229e-05
2.31197e-05
2.09691e-05
1.89826e-05
1.73916e-05
1.63828e-05
1.58209e-05
1.55173e-05
1.53417e-05
1.52249e-05
1.5136e-05
1.5062e-05
1.50008e-05
1.49516e-05
1.49155e-05
1.48878e-05
1.49151e-05
1.49462e-05
1.49917e-05
1.50576e-05
1.51504e-05
1.5292e-05
1.55452e-05
1.60691e-05
1.72133e-05
1.96874e-05
2.48589e-05
3.48428e-05
5.13846e-05
7.2927e-05
9.7273e-05
9.72493e-05
7.29322e-05
5.14095e-05
3.48843e-05
2.49e-05
1.9712e-05
1.72241e-05
1.60723e-05
1.55448e-05
1.52904e-05
1.51483e-05
1.50566e-05
1.4991e-05
1.4946e-05
1.4914e-05
1.4786e-05
1.48489e-05
1.49684e-05
1.51852e-05
1.55792e-05
1.63932e-05
1.8267e-05
2.26599e-05
3.28331e-05
5.56593e-05
0.000105116
0.000202074
0.000359752
0.000556769
0.000773079
0.000773008
0.000556789
0.000360229
0.000202688
0.00010559
5.59106e-05
3.29391e-05
2.26992e-05
1.82716e-05
1.63802e-05
1.55577e-05
1.51701e-05
1.49595e-05
1.48424e-05
1.4775e-05
1.59512e-05
1.63173e-05
1.73218e-05
1.9225e-05
2.27836e-05
3.06927e-05
4.95654e-05
9.44e-05
0.000196878
0.000411974
0.000833522
0.0015607
0.00258623
0.00370988
0.00486633
0.00486656
0.00371024
0.00259177
0.00156757
0.000838454
0.000414563
0.00019805
9.49474e-05
4.97241e-05
3.06323e-05
2.26611e-05
1.91074e-05
1.72467e-05
1.62409e-05
1.58223e-05
3.29956e-05
3.77632e-05
5.4569e-05
8.07682e-05
0.000126446
0.000229885
0.000460637
0.000913148
0.00169768
0.00293695
0.00486641
0.0076509
0.0109282
0.0138488
0.0166969
0.0166982
0.0138556
0.0109644
0.00769672
0.00489797
0.00295496
0.00170903
0.000920789
0.000464817
0.000231808
0.00012733
8.09155e-05
5.4475e-05
3.71538e-05
3.26775e-05
4.75384e-05
5.08159e-05
6.42659e-05
9.51353e-05
0.000164814
0.000315491
0.000581414
0.000983343
0.00163228
0.00289749
0.00560977
0.010454
0.0160948
0.0204164
0.0250324
0.0250497
0.0204675
0.0162219
0.010614
0.005716
0.0029447
0.00165114
0.00099271
0.000587543
0.00031914
0.000166265
9.53698e-05
6.42951e-05
5.04423e-05
4.78771e-05
5.19448e-05
5.49963e-05
6.26322e-05
7.76287e-05
0.000111392
0.000201054
0.000425698
0.000884897
0.00167628
0.00287237
0.00449915
0.00673451
0.00942158
0.0118112
0.0141424
0.0141532
0.0118349
0.00947465
0.00679386
0.00454303
0.0029013
0.00169573
0.000896778
0.00043199
0.000203666
0.000112163
7.76701e-05
6.25288e-05
5.46068e-05
5.21404e-05
5.28046e-05
5.54419e-05
6.00806e-05
6.74132e-05
7.86222e-05
9.96087e-05
0.000155284
0.000329637
0.000803476
0.00177332
0.00327161
0.00522772
0.00738313
0.0091752
0.0107605
0.0107682
0.00918427
0.00741048
0.00526295
0.00330135
0.00179639
0.000817244
0.000335436
0.000157343
0.000100335
7.8916e-05
6.75712e-05
6.01612e-05
5.53099e-05
5.30013e-05
5.36401e-05
5.52173e-05
5.84678e-05
6.29915e-05
6.85962e-05
7.56044e-05
8.54997e-05
0.000105251
0.000175426
0.000458455
0.00121808
0.00257564
0.00438229
0.00623724
0.00799423
0.00799707
0.00623965
0.00439495
0.00259239
0.00123277
0.000466591
0.000178275
0.000105939
8.58251e-05
7.58262e-05
6.87369e-05
6.30572e-05
5.84844e-05
5.51189e-05
5.36072e-05
5.45747e-05
5.5217e-05
5.77787e-05
6.12714e-05
6.53639e-05
7.00327e-05
7.52709e-05
8.13957e-05
8.99786e-05
0.000109687
0.000178268
0.000467388
0.00117437
0.0023763
0.00389147
0.00388995
0.00237409
0.00117674
0.000470861
0.000179719
0.000110269
9.01639e-05
8.15088e-05
7.53971e-05
7.01581e-05
6.5476e-05
6.13017e-05
5.77765e-05
5.51875e-05
5.4532e-05
5.54102e-05
5.54134e-05
5.74468e-05
6.02773e-05
6.36735e-05
6.75645e-05
7.18393e-05
7.64594e-05
8.13973e-05
8.68814e-05
9.44206e-05
0.000109275
0.000141445
0.000243173
0.000617851
0.000616951
0.000243104
0.000141694
0.000109537
9.47148e-05
8.70477e-05
8.14556e-05
7.65511e-05
7.1935e-05
6.7638e-05
6.37488e-05
6.02941e-05
5.74162e-05
5.53531e-05
5.53756e-05
5.55684e-05
5.51602e-05
5.67084e-05
5.90467e-05
6.19277e-05
6.5221e-05
6.88387e-05
7.27228e-05
7.67542e-05
8.07617e-05
8.46131e-05
8.82733e-05
9.19121e-05
9.64933e-05
0.000105045
0.000105015
9.64759e-05
9.18655e-05
8.82151e-05
8.46126e-05
8.07187e-05
7.66929e-05
7.27325e-05
6.8869e-05
6.52651e-05
6.19875e-05
5.90977e-05
5.67051e-05
5.50837e-05
5.55223e-05
5.4806e-05
5.41323e-05
5.5307e-05
5.71949e-05
5.9542e-05
6.22514e-05
6.52317e-05
6.83804e-05
7.15931e-05
7.46677e-05
7.74621e-05
7.97761e-05
8.15387e-05
8.26725e-05
8.32469e-05
8.32671e-05
8.2676e-05
8.15082e-05
7.97651e-05
7.75055e-05
7.47141e-05
7.16389e-05
6.84522e-05
6.53099e-05
6.23357e-05
5.96054e-05
5.72307e-05
5.52941e-05
5.40695e-05
5.47068e-05
5.30408e-05
5.22822e-05
5.32193e-05
5.47206e-05
5.65638e-05
5.8717e-05
6.10801e-05
6.34941e-05
6.58601e-05
6.80063e-05
6.98828e-05
7.13822e-05
7.2492e-05
7.31503e-05
7.33917e-05
7.34027e-05
7.31466e-05
7.24842e-05
7.14075e-05
6.99511e-05
6.80684e-05
6.59096e-05
6.35538e-05
6.11209e-05
5.87427e-05
5.65667e-05
5.46785e-05
5.31781e-05
5.2265e-05
5.30052e-05
5.06606e-05
4.98257e-05
5.05135e-05
5.16475e-05
5.30376e-05
5.46442e-05
5.63239e-05
5.79998e-05
5.95953e-05
6.09869e-05
6.21362e-05
6.30027e-05
6.35711e-05
6.38714e-05
6.39665e-05
6.39538e-05
6.38379e-05
6.35427e-05
6.30106e-05
6.21749e-05
6.10169e-05
5.96038e-05
5.80062e-05
5.63162e-05
5.46298e-05
5.30372e-05
5.16337e-05
5.05076e-05
4.98251e-05
5.06912e-05
4.78026e-05
4.69482e-05
4.7399e-05
4.81735e-05
4.91767e-05
5.02882e-05
5.14166e-05
5.25174e-05
5.34823e-05
5.42782e-05
5.48612e-05
5.52268e-05
5.53823e-05
5.54072e-05
5.53759e-05
5.53696e-05
5.54008e-05
5.53882e-05
5.52577e-05
5.49117e-05
5.43263e-05
5.35078e-05
5.2521e-05
5.14054e-05
5.02582e-05
4.91636e-05
4.81879e-05
4.74008e-05
4.69394e-05
4.77975e-05
4.46031e-05
4.37323e-05
4.40112e-05
4.45351e-05
4.52059e-05
4.59289e-05
4.66276e-05
4.72615e-05
4.77622e-05
4.80975e-05
4.82469e-05
4.8221e-05
4.80792e-05
4.79004e-05
4.77711e-05
4.77731e-05
4.79141e-05
4.81081e-05
4.82614e-05
4.82978e-05
4.81557e-05
4.7806e-05
4.7274e-05
4.66182e-05
4.59135e-05
4.52191e-05
4.45841e-05
4.40508e-05
4.37585e-05
4.45757e-05
4.12569e-05
4.04543e-05
4.0633e-05
4.09846e-05
4.13795e-05
4.17943e-05
4.21613e-05
4.24402e-05
4.25833e-05
4.25727e-05
4.24006e-05
4.20953e-05
4.17348e-05
4.14127e-05
4.12069e-05
4.12062e-05
4.14117e-05
4.17443e-05
4.21181e-05
4.24309e-05
4.26048e-05
4.25994e-05
4.24261e-05
4.21325e-05
4.17764e-05
4.13869e-05
4.09938e-05
4.06501e-05
4.04948e-05
4.1259e-05
3.79706e-05
3.72868e-05
3.7355e-05
3.75421e-05
3.77423e-05
3.79396e-05
3.8058e-05
3.80781e-05
3.79761e-05
3.77204e-05
3.73246e-05
3.68421e-05
3.6343e-05
3.59179e-05
3.56594e-05
3.56584e-05
3.59137e-05
3.63443e-05
3.68575e-05
3.73463e-05
3.77402e-05
3.79914e-05
3.80907e-05
3.80644e-05
3.79413e-05
3.7756e-05
3.75483e-05
3.73656e-05
3.73155e-05
3.80137e-05
3.49068e-05
3.42846e-05
3.42811e-05
3.43406e-05
3.442e-05
3.44409e-05
3.43901e-05
3.42467e-05
3.39712e-05
3.35543e-05
3.30278e-05
3.24401e-05
3.18644e-05
3.13876e-05
3.11144e-05
3.11213e-05
3.13988e-05
3.18716e-05
3.24492e-05
3.30449e-05
3.35787e-05
3.39973e-05
3.42744e-05
3.4415e-05
3.44499e-05
3.44209e-05
3.43573e-05
3.42901e-05
3.4309e-05
3.49547e-05
3.21234e-05
3.15182e-05
3.14721e-05
3.14558e-05
3.14436e-05
3.1352e-05
3.11993e-05
3.09447e-05
3.05571e-05
3.00521e-05
2.94618e-05
2.88312e-05
2.82275e-05
2.77357e-05
2.74524e-05
2.74494e-05
2.77262e-05
2.82146e-05
2.8822e-05
2.94664e-05
3.00652e-05
3.05668e-05
3.09467e-05
3.12054e-05
3.13602e-05
3.14377e-05
3.14665e-05
3.14702e-05
3.15256e-05
3.21073e-05
2.95282e-05
2.90089e-05
2.89278e-05
2.88804e-05
2.87806e-05
2.86323e-05
2.84218e-05
2.81011e-05
2.76623e-05
2.71263e-05
2.6515e-05
2.58733e-05
2.52711e-05
2.47879e-05
2.45115e-05
2.45106e-05
2.47864e-05
2.52704e-05
2.58738e-05
2.65188e-05
2.71346e-05
2.76743e-05
2.81117e-05
2.84389e-05
2.86624e-05
2.8802e-05
2.88831e-05
2.89297e-05
2.90049e-05
2.95199e-05
2.72334e-05
2.68e-05
2.66846e-05
2.66078e-05
2.64745e-05
2.631e-05
2.60588e-05
2.57033e-05
2.52528e-05
2.47143e-05
2.41112e-05
2.34896e-05
2.29165e-05
2.24584e-05
2.21948e-05
2.21955e-05
2.24628e-05
2.29282e-05
2.3508e-05
2.41287e-05
2.4728e-05
2.52647e-05
2.5714e-05
2.60659e-05
2.63234e-05
2.64992e-05
2.66124e-05
2.66854e-05
2.67705e-05
2.72227e-05
2.52213e-05
2.48392e-05
2.47346e-05
2.46456e-05
2.45204e-05
2.43345e-05
2.40582e-05
2.37016e-05
2.32632e-05
2.27475e-05
2.21802e-05
2.1601e-05
2.10644e-05
2.0632e-05
2.03822e-05
2.03837e-05
2.06363e-05
2.10723e-05
2.16119e-05
2.21877e-05
2.27478e-05
2.32578e-05
2.36959e-05
2.40508e-05
2.43215e-05
2.4516e-05
2.46475e-05
2.47353e-05
2.48259e-05
2.52197e-05
2.34972e-05
2.31282e-05
2.30624e-05
2.29708e-05
2.284e-05
2.26336e-05
2.23607e-05
2.20233e-05
2.1613e-05
2.11397e-05
2.06235e-05
2.00953e-05
1.95982e-05
1.9194e-05
1.89606e-05
1.89614e-05
1.91937e-05
1.95936e-05
2.00866e-05
2.06134e-05
2.11294e-05
2.16042e-05
2.20173e-05
2.23579e-05
2.26249e-05
2.28247e-05
2.29669e-05
2.30639e-05
2.31551e-05
2.34901e-05
2.19706e-05
2.16853e-05
2.16258e-05
2.15341e-05
2.13916e-05
2.11903e-05
2.09384e-05
2.06237e-05
2.02481e-05
1.98219e-05
1.93582e-05
1.88803e-05
1.84272e-05
1.80609e-05
1.78518e-05
1.78555e-05
1.80685e-05
1.84316e-05
1.88776e-05
1.9353e-05
1.98195e-05
2.02495e-05
2.06262e-05
2.0942e-05
2.11967e-05
2.13941e-05
2.15395e-05
2.16407e-05
2.17248e-05
2.20018e-05
2.06822e-05
2.04881e-05
2.04115e-05
2.0318e-05
2.01785e-05
1.99955e-05
1.97611e-05
1.9471e-05
1.9134e-05
1.8755e-05
1.83419e-05
1.79158e-05
1.7514e-05
1.71921e-05
1.70082e-05
1.70126e-05
1.72032e-05
1.75255e-05
1.7922e-05
1.83431e-05
1.87568e-05
1.91393e-05
1.94776e-05
1.97657e-05
2.00024e-05
2.01889e-05
2.0328e-05
2.04253e-05
2.05004e-05
2.07256e-05
1.96347e-05
1.9462e-05
1.93869e-05
1.92939e-05
1.91655e-05
1.89999e-05
1.87868e-05
1.85315e-05
1.82366e-05
1.7903e-05
1.75379e-05
1.71629e-05
1.68106e-05
1.65258e-05
1.63598e-05
1.63603e-05
1.65268e-05
1.68109e-05
1.71602e-05
1.75316e-05
1.78961e-05
1.8234e-05
1.85344e-05
1.87917e-05
1.90041e-05
1.91721e-05
1.92987e-05
1.9388e-05
1.94558e-05
1.96397e-05
1.87292e-05
1.8576e-05
1.85096e-05
1.84207e-05
1.83076e-05
1.81611e-05
1.79774e-05
1.77574e-05
1.7499e-05
1.72046e-05
1.68852e-05
1.65597e-05
1.62534e-05
1.60009e-05
1.58504e-05
1.58491e-05
1.59975e-05
1.62502e-05
1.6558e-05
1.6884e-05
1.72023e-05
1.74968e-05
1.77585e-05
1.79829e-05
1.81688e-05
1.83173e-05
1.84306e-05
1.85119e-05
1.85734e-05
1.87237e-05
1.79508e-05
1.78367e-05
1.77711e-05
1.7694e-05
1.75976e-05
1.74701e-05
1.73107e-05
1.71164e-05
1.68876e-05
1.6631e-05
1.63576e-05
1.60797e-05
1.5816e-05
1.55956e-05
1.54619e-05
1.54608e-05
1.55936e-05
1.58159e-05
1.60837e-05
1.63649e-05
1.66384e-05
1.68916e-05
1.71173e-05
1.73119e-05
1.74743e-05
1.76051e-05
1.77059e-05
1.77791e-05
1.78335e-05
1.79543e-05
1.73126e-05
1.72139e-05
1.71592e-05
1.70998e-05
1.70156e-05
1.6903e-05
1.67609e-05
1.65893e-05
1.63915e-05
1.61739e-05
1.5943e-05
1.57068e-05
1.54798e-05
1.52874e-05
1.51688e-05
1.51671e-05
1.5283e-05
1.54753e-05
1.57046e-05
1.59442e-05
1.61778e-05
1.63951e-05
1.65899e-05
1.67586e-05
1.68999e-05
1.7014e-05
1.71021e-05
1.71662e-05
1.7213e-05
1.73083e-05
1.67692e-05
1.66843e-05
1.66503e-05
1.66012e-05
1.65248e-05
1.6424e-05
1.63001e-05
1.6155e-05
1.59902e-05
1.58084e-05
1.56128e-05
1.54104e-05
1.52139e-05
1.50454e-05
1.49402e-05
1.49385e-05
1.50403e-05
1.52062e-05
1.54021e-05
1.56065e-05
1.58059e-05
1.59917e-05
1.61583e-05
1.63026e-05
1.64235e-05
1.65212e-05
1.65969e-05
1.66524e-05
1.66926e-05
1.67677e-05
1.63075e-05
1.62549e-05
1.62288e-05
1.618e-05
1.61104e-05
1.60226e-05
1.59198e-05
1.58006e-05
1.56638e-05
1.55103e-05
1.53435e-05
1.51699e-05
1.50011e-05
1.48558e-05
1.47646e-05
1.47642e-05
1.48542e-05
1.4998e-05
1.51656e-05
1.53391e-05
1.55074e-05
1.56637e-05
1.58036e-05
1.59249e-05
1.6027e-05
1.61101e-05
1.61754e-05
1.6224e-05
1.62592e-05
1.63181e-05
1.59384e-05
1.59072e-05
1.58761e-05
1.58301e-05
1.57695e-05
1.56971e-05
1.5612e-05
1.55117e-05
1.5396e-05
1.52661e-05
1.51249e-05
1.49784e-05
1.48359e-05
1.47125e-05
1.46331e-05
1.4633e-05
1.47124e-05
1.48365e-05
1.49788e-05
1.51241e-05
1.52641e-05
1.53939e-05
1.55106e-05
1.56126e-05
1.56991e-05
1.57706e-05
1.58275e-05
1.58702e-05
1.59004e-05
1.59446e-05
1.56364e-05
1.56063e-05
1.55773e-05
1.55399e-05
1.5491e-05
1.54315e-05
1.53584e-05
1.52725e-05
1.51751e-05
1.50667e-05
1.49494e-05
1.48279e-05
1.4709e-05
1.46036e-05
1.45334e-05
1.45328e-05
1.46021e-05
1.47077e-05
1.48272e-05
1.49485e-05
1.5065e-05
1.51734e-05
1.52713e-05
1.53574e-05
1.54312e-05