/*--------------------------------*- C++ -*----------------------------------*\
| =========                 |                                                 |
| \\      /  F ield         | OpenFOAM: The Open Source CFD Toolbox           |
|  \\    /   O peration     | Version:  2312                                  |
|   \\  /    A nd           | Website:  www.openfoam.com                      |
|    \\/     M anipulation  |                                                 |
\*---------------------------------------------------------------------------*/
FoamFile
{
    version     2.0;
    format      ascii;
    arch        "LSB;label=32;scalar=64";
    class       volScalarField;
    location    "0.39227";
    object      k;
}
// * * * * * * * * * * * * * * * * * * * * * * * * * * * * * * * * * * * * * //

dimensions      [0 2 -2 0 0 0 0];

internalField   nonuniform List<scalar> 
90000
(
3.12102e-05
3.12109e-05
3.12109e-05
3.1211e-05
3.1211e-05
3.1211e-05
3.12109e-05
3.12109e-05
3.12109e-05
3.12108e-05
3.12108e-05
3.12107e-05
3.12107e-05
3.12106e-05
3.12106e-05
3.12106e-05
3.12106e-05
3.12107e-05
3.12108e-05
3.12108e-05
3.12108e-05
3.12108e-05
3.12109e-05
3.12111e-05
3.12112e-05
3.12113e-05
3.12112e-05
3.12111e-05
3.12109e-05
3.12105e-05
3.1211e-05
3.12286e-05
3.12291e-05
3.12291e-05
3.1229e-05
3.1229e-05
3.1229e-05
3.1229e-05
3.1229e-05
3.12289e-05
3.12288e-05
3.12288e-05
3.12287e-05
3.12287e-05
3.12286e-05
3.12286e-05
3.12286e-05
3.12286e-05
3.12287e-05
3.12287e-05
3.12288e-05
3.12289e-05
3.1229e-05
3.1229e-05
3.1229e-05
3.1229e-05
3.12291e-05
3.12292e-05
3.12289e-05
3.12122e-05
3.1211e-05
3.1229e-05
3.12296e-05
3.12296e-05
3.12296e-05
3.12296e-05
3.12296e-05
3.12296e-05
3.12295e-05
3.12295e-05
3.12294e-05
3.12294e-05
3.12293e-05
3.12293e-05
3.12292e-05
3.12292e-05
3.12292e-05
3.12292e-05
3.12294e-05
3.12295e-05
3.12295e-05
3.12295e-05
3.12295e-05
3.12294e-05
3.12295e-05
3.12297e-05
3.12297e-05
3.12296e-05
3.12286e-05
3.12113e-05
3.1211e-05
3.1229e-05
3.12296e-05
3.12297e-05
3.12297e-05
3.12297e-05
3.12296e-05
3.12296e-05
3.12295e-05
3.12295e-05
3.12295e-05
3.12294e-05
3.12294e-05
3.12293e-05
3.12292e-05
3.12292e-05
3.12293e-05
3.12294e-05
3.12295e-05
3.12295e-05
3.12295e-05
3.12295e-05
3.12294e-05
3.12295e-05
3.12296e-05
3.12298e-05
3.12299e-05
3.12299e-05
3.12288e-05
3.1211e-05
3.12111e-05
3.12291e-05
3.12297e-05
3.12298e-05
3.12298e-05
3.12297e-05
3.12297e-05
3.12296e-05
3.12296e-05
3.12295e-05
3.12295e-05
3.12295e-05
3.12294e-05
3.12293e-05
3.12293e-05
3.12293e-05
3.12294e-05
3.12295e-05
3.12295e-05
3.12295e-05
3.12295e-05
3.12294e-05
3.12294e-05
3.12295e-05
3.12296e-05
3.12296e-05
3.12296e-05
3.12296e-05
3.12289e-05
3.1211e-05
3.12113e-05
3.12293e-05
3.12299e-05
3.12299e-05
3.12299e-05
3.12298e-05
3.12298e-05
3.12297e-05
3.12297e-05
3.12296e-05
3.12296e-05
3.12295e-05
3.12294e-05
3.12294e-05
3.12294e-05
3.12294e-05
3.12295e-05
3.12295e-05
3.12295e-05
3.12295e-05
3.12295e-05
3.12295e-05
3.12296e-05
3.12296e-05
3.12296e-05
3.12296e-05
3.12296e-05
3.12297e-05
3.12291e-05
3.12111e-05
3.12115e-05
3.12296e-05
3.12301e-05
3.12301e-05
3.123e-05
3.123e-05
3.123e-05
3.12299e-05
3.12299e-05
3.12298e-05
3.12297e-05
3.12295e-05
3.12294e-05
3.12294e-05
3.12295e-05
3.12295e-05
3.12295e-05
3.12295e-05
3.12295e-05
3.12295e-05
3.12296e-05
3.12297e-05
3.12298e-05
3.12298e-05
3.12298e-05
3.12299e-05
3.12299e-05
3.12299e-05
3.12293e-05
3.12112e-05
3.12118e-05
3.12299e-05
3.12304e-05
3.12304e-05
3.12303e-05
3.12303e-05
3.12302e-05
3.12302e-05
3.12301e-05
3.123e-05
3.12298e-05
3.12296e-05
3.12295e-05
3.12295e-05
3.12295e-05
3.12295e-05
3.12295e-05
3.12296e-05
3.12296e-05
3.12298e-05
3.12299e-05
3.123e-05
3.12301e-05
3.12301e-05
3.12302e-05
3.12302e-05
3.12301e-05
3.123e-05
3.12293e-05
3.12114e-05
3.12121e-05
3.12303e-05
3.12308e-05
3.12307e-05
3.12306e-05
3.12306e-05
3.12305e-05
3.12305e-05
3.12304e-05
3.12302e-05
3.123e-05
3.12298e-05
3.12296e-05
3.12294e-05
3.12294e-05
3.12295e-05
3.12296e-05
3.12297e-05
3.12299e-05
3.123e-05
3.12302e-05
3.12303e-05
3.12304e-05
3.12304e-05
3.12304e-05
3.12304e-05
3.12303e-05
3.12302e-05
3.12295e-05
3.12117e-05
3.12124e-05
3.12307e-05
3.12312e-05
3.12311e-05
3.1231e-05
3.1231e-05
3.12309e-05
3.12308e-05
3.12306e-05
3.12304e-05
3.12302e-05
3.12299e-05
3.12297e-05
3.12294e-05
3.12293e-05
3.12294e-05
3.12296e-05
3.12299e-05
3.12301e-05
3.12303e-05
3.12305e-05
3.12306e-05
3.12307e-05
3.12307e-05
3.12307e-05
3.12306e-05
3.12306e-05
3.12305e-05
3.12299e-05
3.12121e-05
3.12127e-05
3.12312e-05
3.12316e-05
3.12316e-05
3.12315e-05
3.12313e-05
3.12312e-05
3.1231e-05
3.12308e-05
3.12306e-05
3.12303e-05
3.12301e-05
3.12298e-05
3.12295e-05
3.12293e-05
3.12294e-05
3.12297e-05
3.123e-05
3.12304e-05
3.12307e-05
3.12309e-05
3.1231e-05
3.12311e-05
3.12311e-05
3.12311e-05
3.1231e-05
3.1231e-05
3.1231e-05
3.12304e-05
3.12127e-05
3.12132e-05
3.12317e-05
3.12321e-05
3.12321e-05
3.12319e-05
3.12317e-05
3.12315e-05
3.12312e-05
3.12309e-05
3.12307e-05
3.12305e-05
3.12302e-05
3.12299e-05
3.12296e-05
3.12293e-05
3.12293e-05
3.12297e-05
3.12302e-05
3.12306e-05
3.12309e-05
3.12312e-05
3.12314e-05
3.12315e-05
3.12315e-05
3.12315e-05
3.12316e-05
3.12316e-05
3.12316e-05
3.12311e-05
3.12133e-05
3.1214e-05
3.12324e-05
3.12328e-05
3.12326e-05
3.12324e-05
3.12322e-05
3.12319e-05
3.12315e-05
3.12312e-05
3.1231e-05
3.12307e-05
3.12305e-05
3.12301e-05
3.12297e-05
3.12294e-05
3.12293e-05
3.12298e-05
3.12303e-05
3.12308e-05
3.12312e-05
3.12315e-05
3.12318e-05
3.1232e-05
3.12321e-05
3.12322e-05
3.12323e-05
3.12324e-05
3.12325e-05
3.1232e-05
3.12141e-05
3.12152e-05
3.12331e-05
3.12335e-05
3.12333e-05
3.12331e-05
3.12328e-05
3.12324e-05
3.1232e-05
3.12317e-05
3.12314e-05
3.12311e-05
3.12308e-05
3.12304e-05
3.12299e-05
3.12296e-05
3.12295e-05
3.12299e-05
3.12304e-05
3.12309e-05
3.12314e-05
3.12318e-05
3.12322e-05
3.12325e-05
3.12328e-05
3.1233e-05
3.12332e-05
3.12334e-05
3.12335e-05
3.1233e-05
3.1215e-05
3.12165e-05
3.1234e-05
3.12344e-05
3.12342e-05
3.12339e-05
3.12335e-05
3.12331e-05
3.12328e-05
3.12324e-05
3.12321e-05
3.12316e-05
3.12311e-05
3.12306e-05
3.12301e-05
3.12298e-05
3.12297e-05
3.123e-05
3.12304e-05
3.1231e-05
3.12316e-05
3.12322e-05
3.12328e-05
3.12332e-05
3.12336e-05
3.1234e-05
3.12343e-05
3.12345e-05
3.12346e-05
3.1234e-05
3.1216e-05
3.1218e-05
3.1235e-05
3.12355e-05
3.12352e-05
3.12349e-05
3.12345e-05
3.12342e-05
3.12338e-05
3.12334e-05
3.12329e-05
3.12323e-05
3.12316e-05
3.12309e-05
3.12303e-05
3.12299e-05
3.12297e-05
3.123e-05
3.12306e-05
3.12313e-05
3.1232e-05
3.12328e-05
3.12334e-05
3.12341e-05
3.12346e-05
3.12351e-05
3.12355e-05
3.12357e-05
3.12358e-05
3.12352e-05
3.12173e-05
3.12196e-05
3.12364e-05
3.12369e-05
3.12366e-05
3.12363e-05
3.1236e-05
3.12356e-05
3.12351e-05
3.12346e-05
3.12338e-05
3.1233e-05
3.12321e-05
3.12313e-05
3.12305e-05
3.123e-05
3.12298e-05
3.12302e-05
3.12309e-05
3.12317e-05
3.12326e-05
3.12335e-05
3.12344e-05
3.12352e-05
3.12359e-05
3.12364e-05
3.12369e-05
3.12371e-05
3.12372e-05
3.12367e-05
3.12189e-05
3.12213e-05
3.12381e-05
3.12387e-05
3.12384e-05
3.12381e-05
3.12377e-05
3.12373e-05
3.12367e-05
3.12359e-05
3.12349e-05
3.12339e-05
3.12328e-05
3.12318e-05
3.12309e-05
3.12301e-05
3.123e-05
3.12305e-05
3.12315e-05
3.12325e-05
3.12336e-05
3.12346e-05
3.12357e-05
3.12366e-05
3.12374e-05
3.12381e-05
3.12385e-05
3.12388e-05
3.1239e-05
3.12386e-05
3.12209e-05
3.12233e-05
3.12404e-05
3.12409e-05
3.12406e-05
3.12403e-05
3.12398e-05
3.12392e-05
3.12385e-05
3.12375e-05
3.12363e-05
3.1235e-05
3.12338e-05
3.12325e-05
3.12314e-05
3.12305e-05
3.12303e-05
3.12311e-05
3.12323e-05
3.12335e-05
3.12348e-05
3.12361e-05
3.12373e-05
3.12384e-05
3.12393e-05
3.124e-05
3.12406e-05
3.1241e-05
3.12413e-05
3.1241e-05
3.12234e-05
3.1226e-05
3.12432e-05
3.12437e-05
3.12433e-05
3.12429e-05
3.12424e-05
3.12416e-05
3.12406e-05
3.12394e-05
3.1238e-05
3.12365e-05
3.1235e-05
3.12335e-05
3.12321e-05
3.1231e-05
3.12309e-05
3.12319e-05
3.12334e-05
3.12349e-05
3.12364e-05
3.12379e-05
3.12393e-05
3.12405e-05
3.12416e-05
3.12425e-05
3.12431e-05
3.12437e-05
3.12442e-05
3.12439e-05
3.12264e-05
3.12293e-05
3.12467e-05
3.12471e-05
3.12467e-05
3.12462e-05
3.12455e-05
3.12445e-05
3.12432e-05
3.12418e-05
3.12401e-05
3.12384e-05
3.12366e-05
3.12347e-05
3.1233e-05
3.12316e-05
3.12316e-05
3.12329e-05
3.12347e-05
3.12365e-05
3.12383e-05
3.124e-05
3.12416e-05
3.12431e-05
3.12443e-05
3.12454e-05
3.12463e-05
3.12471e-05
3.12476e-05
3.12474e-05
3.12298e-05
3.12335e-05
3.1251e-05
3.12513e-05
3.12508e-05
3.12502e-05
3.12492e-05
3.1248e-05
3.12464e-05
3.12447e-05
3.12427e-05
3.12406e-05
3.12384e-05
3.12361e-05
3.1234e-05
3.12324e-05
3.12325e-05
3.12341e-05
3.12362e-05
3.12384e-05
3.12406e-05
3.12426e-05
3.12445e-05
3.12462e-05
3.12477e-05
3.12491e-05
3.12502e-05
3.12511e-05
3.12518e-05
3.12516e-05
3.12341e-05
3.12386e-05
3.12563e-05
3.12565e-05
3.12559e-05
3.12551e-05
3.12538e-05
3.12522e-05
3.12503e-05
3.12482e-05
3.12458e-05
3.12433e-05
3.12406e-05
3.12379e-05
3.12353e-05
3.12335e-05
3.12337e-05
3.12356e-05
3.12381e-05
3.12407e-05
3.12433e-05
3.12457e-05
3.1248e-05
3.12501e-05
3.1252e-05
3.12536e-05
3.1255e-05
3.12561e-05
3.12568e-05
3.12567e-05
3.12393e-05
3.1245e-05
3.12628e-05
3.12629e-05
3.12621e-05
3.12609e-05
3.12593e-05
3.12573e-05
3.1255e-05
3.12524e-05
3.12496e-05
3.12465e-05
3.12433e-05
3.12401e-05
3.12371e-05
3.1235e-05
3.12352e-05
3.12374e-05
3.12404e-05
3.12436e-05
3.12466e-05
3.12496e-05
3.12524e-05
3.12549e-05
3.12572e-05
3.12592e-05
3.12609e-05
3.12621e-05
3.1263e-05
3.1263e-05
3.12457e-05
3.12528e-05
3.12706e-05
3.12705e-05
3.12695e-05
3.12679e-05
3.1266e-05
3.12636e-05
3.12608e-05
3.12577e-05
3.12543e-05
3.12506e-05
3.12468e-05
3.1243e-05
3.12394e-05
3.1237e-05
3.12371e-05
3.12397e-05
3.12432e-05
3.1247e-05
3.12508e-05
3.12543e-05
3.12577e-05
3.12608e-05
3.12635e-05
3.12659e-05
3.12679e-05
3.12694e-05
3.12705e-05
3.12707e-05
3.12534e-05
3.12623e-05
3.12799e-05
3.12796e-05
3.12782e-05
3.12763e-05
3.1274e-05
3.12712e-05
3.12679e-05
3.12642e-05
3.12601e-05
3.12557e-05
3.12511e-05
3.12466e-05
3.12424e-05
3.12394e-05
3.12395e-05
3.12424e-05
3.12467e-05
3.12512e-05
3.12558e-05
3.12601e-05
3.12642e-05
3.12679e-05
3.12712e-05
3.1274e-05
3.12763e-05
3.12782e-05
3.12796e-05
3.12799e-05
3.12627e-05
3.12737e-05
3.12909e-05
3.12904e-05
3.12887e-05
3.12865e-05
3.12837e-05
3.12804e-05
3.12766e-05
3.12721e-05
3.12672e-05
3.12619e-05
3.12565e-05
3.1251e-05
3.1246e-05
3.12425e-05
3.12425e-05
3.1246e-05
3.1251e-05
3.12565e-05
3.1262e-05
3.12672e-05
3.12721e-05
3.12765e-05
3.12805e-05
3.12838e-05
3.12866e-05
3.12888e-05
3.12905e-05
3.12911e-05
3.1274e-05
3.12871e-05
3.1304e-05
3.13033e-05
3.13013e-05
3.12988e-05
3.12956e-05
3.12917e-05
3.1287e-05
3.12817e-05
3.12759e-05
3.12696e-05
3.1263e-05
3.12565e-05
3.12506e-05
3.12466e-05
3.12466e-05
3.12506e-05
3.12565e-05
3.12631e-05
3.12697e-05
3.1276e-05
3.12818e-05
3.12871e-05
3.12917e-05
3.12956e-05
3.12989e-05
3.13016e-05
3.13036e-05
3.13044e-05
3.12874e-05
3.13031e-05
3.13197e-05
3.13188e-05
3.13165e-05
3.13136e-05
3.13098e-05
3.13051e-05
3.12996e-05
3.12933e-05
3.12864e-05
3.12789e-05
3.12712e-05
3.12635e-05
3.12565e-05
3.12519e-05
3.1252e-05
3.12566e-05
3.12635e-05
3.12713e-05
3.12791e-05
3.12866e-05
3.12935e-05
3.12997e-05
3.13051e-05
3.13097e-05
3.13136e-05
3.13167e-05
3.1319e-05
3.132e-05
3.13031e-05
3.1322e-05
3.13384e-05
3.13373e-05
3.13347e-05
3.13312e-05
3.13268e-05
3.13213e-05
3.13148e-05
3.13074e-05
3.12993e-05
3.12905e-05
3.12814e-05
3.12723e-05
3.12642e-05
3.1259e-05
3.1259e-05
3.12643e-05
3.12723e-05
3.12814e-05
3.12906e-05
3.12995e-05
3.13076e-05
3.13149e-05
3.13213e-05
3.13267e-05
3.13311e-05
3.13347e-05
3.13374e-05
3.13384e-05
3.13218e-05
3.13445e-05
3.13608e-05
3.13594e-05
3.13564e-05
3.13523e-05
3.13471e-05
3.13407e-05
3.13332e-05
3.13247e-05
3.13152e-05
3.13049e-05
3.12941e-05
3.12834e-05
3.12741e-05
3.12682e-05
3.12682e-05
3.12741e-05
3.12834e-05
3.1294e-05
3.13048e-05
3.13152e-05
3.13248e-05
3.13334e-05
3.13408e-05
3.13471e-05
3.13523e-05
3.13564e-05
3.13593e-05
3.13605e-05
3.13443e-05
3.13712e-05
3.13873e-05
3.13856e-05
3.13822e-05
3.13775e-05
3.13715e-05
3.13642e-05
3.13556e-05
3.13458e-05
3.13347e-05
3.13226e-05
3.131e-05
3.12976e-05
3.12869e-05
3.12802e-05
3.12802e-05
3.12869e-05
3.12975e-05
3.13099e-05
3.13225e-05
3.13347e-05
3.13459e-05
3.13558e-05
3.13645e-05
3.13717e-05
3.13777e-05
3.13823e-05
3.13855e-05
3.1387e-05
3.13713e-05
3.14027e-05
3.14185e-05
3.14165e-05
3.14127e-05
3.14075e-05
3.14008e-05
3.13925e-05
3.13827e-05
3.13714e-05
3.13586e-05
3.13446e-05
3.13299e-05
3.13156e-05
3.13034e-05
3.12959e-05
3.12959e-05
3.13034e-05
3.13156e-05
3.13298e-05
3.13445e-05
3.13586e-05
3.13715e-05
3.13829e-05
3.13928e-05
3.14011e-05
3.14078e-05
3.14128e-05
3.14165e-05
3.14185e-05
3.1403e-05
3.14396e-05
3.1455e-05
3.14529e-05
3.14487e-05
3.1443e-05
3.14356e-05
3.14264e-05
3.14153e-05
3.14024e-05
3.13877e-05
3.13715e-05
3.13547e-05
3.13385e-05
3.13247e-05
3.13164e-05
3.13165e-05
3.13249e-05
3.13386e-05
3.13549e-05
3.13717e-05
3.13878e-05
3.14025e-05
3.14155e-05
3.14266e-05
3.14358e-05
3.14431e-05
3.14486e-05
3.14527e-05
3.1455e-05
3.14396e-05
3.14825e-05
3.14976e-05
3.14953e-05
3.1491e-05
3.14848e-05
3.14768e-05
3.14667e-05
3.14544e-05
3.14398e-05
3.14231e-05
3.14048e-05
3.13858e-05
3.13676e-05
3.13523e-05
3.13432e-05
3.13433e-05
3.13525e-05
3.13678e-05
3.13861e-05
3.14051e-05
3.14232e-05
3.14398e-05
3.14543e-05
3.14667e-05
3.14767e-05
3.14846e-05
3.14906e-05
3.1495e-05
3.14973e-05
3.14821e-05
3.15321e-05
3.1547e-05
3.15446e-05
3.15401e-05
3.15338e-05
3.15253e-05
3.15144e-05
3.15009e-05
3.14848e-05
3.14663e-05
3.1446e-05
3.14249e-05
3.14047e-05
3.13879e-05
3.13779e-05
3.13779e-05
3.1388e-05
3.14049e-05
3.14252e-05
3.14463e-05
3.14665e-05
3.1485e-05
3.1501e-05
3.15144e-05
3.15252e-05
3.15335e-05
3.15398e-05
3.15442e-05
3.15463e-05
3.15314e-05
3.1589e-05
3.16036e-05
3.16013e-05
3.1597e-05
3.15907e-05
3.1582e-05
3.15707e-05
3.15564e-05
3.15391e-05
3.15191e-05
3.1497e-05
3.14739e-05
3.14517e-05
3.14334e-05
3.14226e-05
3.14226e-05
3.14334e-05
3.14519e-05
3.14742e-05
3.14974e-05
3.15196e-05
3.15398e-05
3.15571e-05
3.15712e-05
3.15823e-05
3.15909e-05
3.15971e-05
3.16011e-05
3.16029e-05
3.15883e-05
3.16535e-05
3.1668e-05
3.1666e-05
3.16621e-05
3.16563e-05
3.1648e-05
3.16367e-05
3.16222e-05
3.16043e-05
3.15832e-05
3.15596e-05
3.15348e-05
3.1511e-05
3.14914e-05
3.14799e-05
3.14799e-05
3.14915e-05
3.15112e-05
3.15352e-05
3.15602e-05
3.1584e-05
3.16053e-05
3.16233e-05
3.16377e-05
3.16488e-05
3.16571e-05
3.16627e-05
3.1666e-05
3.16676e-05
3.16534e-05
3.17258e-05
3.17402e-05
3.17389e-05
3.1736e-05
3.17312e-05
3.1724e-05
3.17137e-05
3.16998e-05
3.1682e-05
3.16605e-05
3.1636e-05
3.161e-05
3.15851e-05
3.15646e-05
3.15527e-05
3.15528e-05
3.15647e-05
3.15852e-05
3.16103e-05
3.16363e-05
3.16609e-05
3.16827e-05
3.17005e-05
3.17145e-05
3.1725e-05
3.17322e-05
3.17366e-05
3.17392e-05
3.17404e-05
3.17263e-05
3.18054e-05
3.182e-05
3.18198e-05
3.18186e-05
3.18159e-05
3.18108e-05
3.18026e-05
3.17904e-05
3.17739e-05
3.17531e-05
3.17288e-05
3.17026e-05
3.16773e-05
3.16565e-05
3.16445e-05
3.16444e-05
3.16564e-05
3.16771e-05
3.17024e-05
3.17285e-05
3.17529e-05
3.17738e-05
3.17904e-05
3.18028e-05
3.18115e-05
3.18165e-05
3.18191e-05
3.18203e-05
3.18208e-05
3.18064e-05
3.18915e-05
3.19066e-05
3.19082e-05
3.19097e-05
3.19103e-05
3.19088e-05
3.19042e-05
3.18954e-05
3.18817e-05
3.18633e-05
3.18409e-05
3.18161e-05
3.17917e-05
3.17716e-05
3.17597e-05
3.17596e-05
3.17713e-05
3.17913e-05
3.18156e-05
3.18404e-05
3.18628e-05
3.18811e-05
3.18947e-05
3.19037e-05
3.19087e-05
3.19102e-05
3.19098e-05
3.19086e-05
3.19076e-05
3.18926e-05
3.19825e-05
3.19985e-05
3.20028e-05
3.20084e-05
3.20139e-05
3.2018e-05
3.2019e-05
3.20159e-05
3.20076e-05
3.19939e-05
3.19757e-05
3.19545e-05
3.19328e-05
3.19145e-05
3.19036e-05
3.19036e-05
3.19144e-05
3.19326e-05
3.19541e-05
3.19753e-05
3.19935e-05
3.20069e-05
3.2015e-05
3.20184e-05
3.20173e-05
3.20133e-05
3.20083e-05
3.20032e-05
3.19996e-05
3.19832e-05
3.20761e-05
3.20936e-05
3.21019e-05
3.21131e-05
3.21255e-05
3.21374e-05
3.21469e-05
3.21525e-05
3.21528e-05
3.21472e-05
3.21362e-05
3.21212e-05
3.21046e-05
3.20899e-05
3.20813e-05
3.20814e-05
3.20902e-05
3.21048e-05
3.21214e-05
3.21364e-05
3.21473e-05
3.21526e-05
3.21521e-05
3.21466e-05
3.21367e-05
3.21249e-05
3.21131e-05
3.21026e-05
3.20946e-05
3.20766e-05
3.21695e-05
3.21894e-05
3.22031e-05
3.22217e-05
3.22432e-05
3.22658e-05
3.22872e-05
3.23055e-05
3.23185e-05
3.23256e-05
3.23257e-05
3.23203e-05
3.23115e-05
3.23028e-05
3.22975e-05
3.22977e-05
3.23032e-05
3.23119e-05
3.23207e-05
3.23261e-05
3.23258e-05
3.23185e-05
3.23055e-05
3.22871e-05
3.22652e-05
3.22429e-05
3.22218e-05
3.2204e-05
3.21898e-05
3.21698e-05
3.22592e-05
3.22819e-05
3.23024e-05
3.23309e-05
3.23649e-05
3.24015e-05
3.24388e-05
3.24744e-05
3.25054e-05
3.25302e-05
3.25475e-05
3.25571e-05
3.25606e-05
3.25615e-05
3.25618e-05
3.25619e-05
3.25616e-05
3.25607e-05
3.25573e-05
3.25478e-05
3.25302e-05
3.25054e-05
3.24747e-05
3.24387e-05
3.24011e-05
3.23648e-05
3.23311e-05
3.23032e-05
3.2282e-05
3.22594e-05
3.2337e-05
3.23642e-05
3.23939e-05
3.24351e-05
3.24851e-05
3.25406e-05
3.25993e-05
3.26577e-05
3.27134e-05
3.27641e-05
3.28106e-05
3.28538e-05
3.28952e-05
3.29321e-05
3.29647e-05
3.29646e-05
3.29319e-05
3.2895e-05
3.28538e-05
3.28107e-05
3.2764e-05
3.27134e-05
3.26579e-05
3.2599e-05
3.25403e-05
3.24851e-05
3.24356e-05
3.23945e-05
3.23644e-05
3.23373e-05
3.24046e-05
3.24386e-05
3.24809e-05
3.25387e-05
3.26099e-05
3.26913e-05
3.2781e-05
3.28793e-05
3.2989e-05
3.3123e-05
3.33061e-05
3.35748e-05
3.39482e-05
3.43768e-05
3.48159e-05
3.48151e-05
3.43769e-05
3.39483e-05
3.35755e-05
3.33069e-05
3.31235e-05
3.29893e-05
3.28793e-05
3.27806e-05
3.26912e-05
3.26098e-05
3.25391e-05
3.24811e-05
3.24387e-05
3.24049e-05
3.24917e-05
3.25353e-05
3.25934e-05
3.26742e-05
3.2777e-05
3.29067e-05
3.30784e-05
3.33364e-05
3.37739e-05
3.45711e-05
3.60297e-05
3.85171e-05
4.21679e-05
4.64108e-05
5.07572e-05
5.07518e-05
4.64123e-05
4.21725e-05
3.85266e-05
3.60403e-05
3.4578e-05
3.37772e-05
3.33373e-05
3.30781e-05
3.29063e-05
3.27766e-05
3.26742e-05
3.25933e-05
3.25353e-05
3.24914e-05
3.2531e-05
3.25854e-05
3.26722e-05
3.2807e-05
3.30148e-05
3.33768e-05
3.40943e-05
3.56056e-05
3.87339e-05
4.48558e-05
5.6075e-05
7.44756e-05
9.98797e-05
0.000127823
0.000155348
0.00015533
0.00012783
9.99389e-05
7.45729e-05
5.61696e-05
4.49162e-05
3.87633e-05
3.56174e-05
3.40959e-05
3.33736e-05
3.30098e-05
3.28038e-05
3.26701e-05
3.25842e-05
3.25283e-05
3.2438e-05
3.25777e-05
3.28887e-05
3.34578e-05
3.45204e-05
3.67626e-05
4.16868e-05
5.20149e-05
7.21622e-05
0.000108147
0.000168121
0.000257301
0.000368917
0.000481662
0.000587273
0.000587277
0.000481711
0.000369347
0.000257946
0.0001687
0.00010852
7.23604e-05
5.21151e-05
4.17164e-05
3.67469e-05
3.44852e-05
3.34293e-05
3.28707e-05
3.2562e-05
3.24134e-05
3.49758e-05
3.57838e-05
3.81024e-05
4.21059e-05
4.93161e-05
6.40835e-05
9.38901e-05
0.000148931
0.000242448
0.000386992
0.0006002
0.000883212
0.0011992
0.00148784
0.00174744
0.00174764
0.00148826
0.00120121
0.000886151
0.000602747
0.000388669
0.000243456
0.000149572
9.41877e-05
6.40965e-05
4.92162e-05
4.19732e-05
3.79991e-05
3.56582e-05
3.47879e-05
5.77863e-05
6.35767e-05
8.18954e-05
0.000107107
0.000146256
0.000219362
0.000346062
0.000537515
0.000801364
0.00114745
0.00160615
0.00217003
0.00273517
0.00318173
0.0035773
0.0035782
0.0031838
0.00274148
0.00217961
0.00161417
0.00115277
0.000805073
0.000540416
0.000348057
0.000220494
0.000146952
0.000107315
8.18152e-05
6.29591e-05
5.74213e-05
7.00616e-05
7.3755e-05
8.83398e-05
0.000118789
0.000176965
0.000273666
0.000401607
0.000557323
0.000772815
0.00113049
0.00174044
0.00258778
0.00339884
0.00395895
0.00447884
0.00448154
0.0039665
0.00341718
0.00261412
0.00176258
0.00114341
0.00077933
0.000560891
0.000404315
0.000275713
0.000178169
0.00011909
8.83669e-05
7.34288e-05
7.03268e-05
7.44131e-05
7.69649e-05
8.41964e-05
9.86437e-05
0.000129794
0.000200538
0.000335772
0.00054121
0.000809343
0.00112384
0.00148137
0.00190598
0.00235606
0.00271864
0.00303063
0.00303234
0.00272287
0.00236515
0.00191744
0.00149124
0.00113117
0.000815371
0.000545891
0.00033913
0.000202453
0.000130551
9.86938e-05
8.4124e-05
7.66592e-05
7.45173e-05
7.57143e-05
7.77855e-05
8.20126e-05
8.8494e-05
9.83176e-05
0.000117055
0.000163568
0.000280963
0.000510851
0.000844311
0.00123448
0.00165086
0.00203488
0.0023246
0.0025553
0.0025566
0.00232665
0.00204012
0.00165792
0.001242
0.000851344
0.000516563
0.00028455
0.000165187
0.000117707
9.85739e-05
8.85892e-05
8.20699e-05
7.77327e-05
7.58405e-05
7.68798e-05
7.79519e-05
8.09892e-05
8.51189e-05
9.00942e-05
9.61145e-05
0.000104464
0.000121375
0.000179885
0.000353902
0.000669261
0.00107712
0.00150054
0.00186175
0.00215963
0.00216027
0.00186252
0.00150358
0.00108169
0.000674322
0.000358211
0.000182086
0.000121916
0.000104711
9.62791e-05
9.01839e-05
8.51407e-05
8.09685e-05
7.78987e-05
7.68492e-05
7.8093e-05
7.83012e-05
8.07065e-05
8.39817e-05
8.7716e-05
9.18746e-05
9.63987e-05
0.000101589
0.000108768
0.000125486
0.000182797
0.00036618
0.000672537
0.00104229
0.00140796
0.00140785
0.00104179
0.000673412
0.000368009
0.000183892
0.00012595
0.000108928
0.000101672
9.64898e-05
9.19455e-05
8.78049e-05
8.40086e-05
8.06907e-05
7.82833e-05
7.80363e-05
7.90977e-05
7.87343e-05
8.06636e-05
8.33494e-05
8.65104e-05
9.00498e-05
9.38589e-05
9.78751e-05
0.000102014
0.000106487
0.000112588
0.000124771
0.000154893
0.000245277
0.000457111
0.000456704
0.00024512
0.00015505
0.000124963
0.000112784
0.000106607
0.00010207
9.79455e-05
9.39305e-05
9.00972e-05
8.65864e-05
8.33366e-05
8.05996e-05
7.86616e-05
7.90469e-05
7.9397e-05
7.86567e-05
8.01257e-05
8.23829e-05
8.51134e-05
8.81312e-05
9.14485e-05
9.48913e-05
9.83793e-05
0.00010177
0.000104872
0.00010767
0.000110368
0.000113959
0.000121268
0.000121201
0.000113935
0.000110341
0.000107602
0.000104883
0.000101748
9.83533e-05
9.49214e-05
9.14557e-05
8.81818e-05
8.51526e-05
8.24037e-05
8.01223e-05
7.85665e-05
7.93285e-05
7.87441e-05
7.77825e-05
7.89198e-05
8.0765e-05
8.30245e-05
8.55718e-05
8.83444e-05
9.12111e-05
9.40792e-05
9.67764e-05
9.91207e-05
0.000100965
0.00010228
0.000103032
0.000103338
0.000103343
0.000103037
0.000102289
0.000100971
9.91566e-05
9.6783e-05
9.41034e-05
9.12887e-05
8.83946e-05
8.56388e-05
8.3072e-05
8.08135e-05
7.89127e-05
7.77015e-05
7.86516e-05
7.70892e-05
7.60415e-05
7.69767e-05
7.84672e-05
8.02731e-05
8.23443e-05
8.45984e-05
8.68434e-05
8.90409e-05
9.10035e-05
9.26547e-05
9.3934e-05
9.48427e-05
9.53265e-05
9.54456e-05
9.54456e-05
9.53173e-05
9.48351e-05
9.39621e-05
9.27028e-05
9.10322e-05
8.91198e-05
8.69346e-05
8.4609e-05
8.23764e-05
8.03053e-05
7.84506e-05
7.69373e-05
7.60284e-05
7.70704e-05
7.48047e-05
7.36841e-05
7.43748e-05
7.55399e-05
7.69259e-05
7.84991e-05
8.01441e-05
8.17496e-05
8.3279e-05
8.45887e-05
8.56432e-05
8.64216e-05
8.69014e-05
8.71365e-05
8.71944e-05
8.71827e-05
8.71302e-05
8.68909e-05
8.64151e-05
8.5668e-05
8.46125e-05
8.32869e-05
8.17372e-05
8.01166e-05
7.84929e-05
7.69137e-05
7.54943e-05
7.4363e-05
7.36792e-05
7.48071e-05
7.18957e-05
7.07954e-05
7.12515e-05
7.2099e-05
7.3089e-05
7.4233e-05
7.53669e-05
7.64545e-05
7.74216e-05
7.82117e-05
7.87775e-05
7.91166e-05
7.92486e-05
7.92638e-05
7.92241e-05
7.92117e-05
7.92396e-05
7.92395e-05
7.91378e-05
7.88206e-05
7.8252e-05
7.74494e-05
7.64759e-05
7.53712e-05
7.42048e-05
7.30844e-05
7.2089e-05
7.12782e-05
7.07882e-05
7.19045e-05
6.86713e-05
6.75076e-05
6.78228e-05
6.83737e-05
6.90972e-05
6.98467e-05
7.05641e-05
7.12247e-05
7.17479e-05
7.20981e-05
7.22599e-05
7.22293e-05
7.2078e-05
7.19021e-05
7.17617e-05
7.17409e-05
7.18821e-05
7.21e-05
7.2267e-05
7.22912e-05
7.21463e-05
7.1802e-05
7.12528e-05
7.05558e-05
6.98136e-05
6.90962e-05
6.84275e-05
6.78448e-05
6.75203e-05
6.86078e-05
6.51093e-05
6.4055e-05
6.42624e-05
6.4651e-05
6.50878e-05
6.55242e-05
6.59288e-05
6.62404e-05
6.64036e-05
6.64026e-05
6.62204e-05
6.59007e-05
6.55265e-05
6.51736e-05
6.49331e-05
6.49296e-05
6.51641e-05
6.55172e-05
6.59001e-05
6.62314e-05
6.64335e-05
6.64266e-05
6.62204e-05
6.58906e-05
6.55114e-05
6.50944e-05
6.46551e-05
6.42651e-05
6.40933e-05
6.51253e-05
6.15686e-05
6.06105e-05
6.06942e-05
6.09449e-05
6.11377e-05
6.13728e-05
6.15084e-05
6.15262e-05
6.14288e-05
6.11758e-05
6.07508e-05
6.02119e-05
5.96551e-05
5.91884e-05
5.89073e-05
5.89049e-05
5.91805e-05
5.96507e-05
6.02208e-05
6.07663e-05
6.1198e-05
6.14611e-05
6.15603e-05
6.15275e-05
6.13854e-05
6.11675e-05
6.09246e-05
6.07162e-05
6.06585e-05
6.16072e-05
5.81445e-05
5.72819e-05
5.72853e-05
5.73532e-05
5.74529e-05
5.74924e-05
5.74279e-05
5.72764e-05
5.69878e-05
5.65153e-05
5.59073e-05
5.52438e-05
5.45914e-05
5.40358e-05
5.37088e-05
5.37118e-05
5.40316e-05
5.45769e-05
5.5239e-05
5.59184e-05
5.65258e-05
5.70019e-05
5.73128e-05
5.74602e-05
5.74853e-05
5.74449e-05
5.73714e-05
5.72904e-05
5.73008e-05
5.81822e-05
5.49159e-05
5.4087e-05
5.40531e-05
5.40243e-05
5.40424e-05
5.39254e-05
5.37351e-05
5.3446e-05
5.30052e-05
5.24166e-05
5.17251e-05
5.09754e-05
5.02408e-05
4.96412e-05
4.93037e-05
4.93071e-05
4.96412e-05
5.02277e-05
5.09584e-05
5.1731e-05
5.24393e-05
5.30217e-05
5.34554e-05
5.37502e-05
5.39315e-05
5.4025e-05
5.40543e-05
5.40441e-05
5.40949e-05
5.4907e-05
5.18898e-05
5.11229e-05
5.10395e-05
5.09915e-05
5.08698e-05
5.06794e-05
5.0439e-05
5.00699e-05
4.95412e-05
4.88875e-05
4.81418e-05
4.73446e-05
4.65844e-05
4.59772e-05
4.56356e-05
4.56364e-05
4.59804e-05
4.65882e-05
4.73452e-05
4.81431e-05
4.88896e-05
4.95368e-05
5.00647e-05
5.04657e-05
5.074e-05
5.09034e-05
5.09876e-05
5.10305e-05
5.11176e-05
5.18545e-05
4.90437e-05
4.8453e-05
4.82967e-05
4.8217e-05
4.80509e-05
4.7858e-05
4.75566e-05
4.71095e-05
4.65426e-05
4.5876e-05
4.51186e-05
4.43143e-05
4.35639e-05
4.29683e-05
4.26282e-05
4.26269e-05
4.29714e-05
4.35769e-05
4.4329e-05
4.51233e-05
4.58796e-05
4.65529e-05
4.71168e-05
4.75564e-05
4.78715e-05
4.80801e-05
4.8213e-05
4.83027e-05
4.8413e-05
4.9066e-05
4.65581e-05
4.60089e-05
4.58692e-05
4.57561e-05
4.55899e-05
4.53589e-05
4.49996e-05
4.45362e-05
4.39839e-05
4.33336e-05
4.2596e-05
4.18267e-05
4.11132e-05
4.0539e-05
4.02034e-05
4.02006e-05
4.05379e-05
4.1125e-05
4.18468e-05
4.26062e-05
4.33346e-05
4.39917e-05
4.45522e-05
4.5002e-05
4.53424e-05
4.55875e-05
4.57563e-05
4.58709e-05
4.59878e-05
4.65581e-05
4.43669e-05
4.38003e-05
4.37264e-05
4.36032e-05
4.34382e-05
4.3174e-05
4.28095e-05
4.23709e-05
4.18424e-05
4.12166e-05
4.05192e-05
3.98039e-05
3.91305e-05
3.85762e-05
3.82495e-05
3.82476e-05
3.85704e-05
3.91228e-05
3.97941e-05
4.05016e-05
4.11887e-05
4.18178e-05
4.23624e-05
4.28084e-05
4.31561e-05
4.34153e-05
4.35995e-05
4.37235e-05
4.38401e-05
4.43338e-05
4.23283e-05
4.19268e-05
4.1841e-05
4.17112e-05
4.15359e-05
4.12627e-05
4.09233e-05
4.05099e-05
4.00052e-05
3.9418e-05
3.87792e-05
3.81248e-05
3.74978e-05
3.698e-05
3.66809e-05
3.66883e-05
3.69936e-05
3.75035e-05
3.81201e-05
3.8773e-05
3.94134e-05
4.00024e-05
4.05144e-05
4.09373e-05
4.12729e-05
4.15294e-05
4.17174e-05
4.18486e-05
4.1961e-05
4.23807e-05
4.06167e-05
4.03296e-05
4.02043e-05
4.00785e-05
3.98922e-05
3.96335e-05
3.9321e-05
3.89316e-05
3.84633e-05
3.79346e-05
3.73654e-05
3.67755e-05
3.62058e-05
3.57392e-05
3.54724e-05
3.54831e-05
3.57606e-05
3.62191e-05
3.67773e-05
3.73689e-05
3.79504e-05
3.84852e-05
3.89518e-05
3.93418e-05
3.96569e-05
3.99036e-05
4.00891e-05
4.02214e-05
4.03269e-05
4.06745e-05
3.92158e-05
3.89167e-05
3.88161e-05
3.86983e-05
3.85083e-05
3.82773e-05
3.79907e-05
3.76331e-05
3.72132e-05
3.67455e-05
3.62367e-05
3.57039e-05
3.51908e-05
3.4772e-05
3.45315e-05
3.45378e-05
3.47824e-05
3.51913e-05
3.56907e-05
3.62211e-05
3.67406e-05
3.72182e-05
3.76369e-05
3.79908e-05
3.82804e-05
3.85103e-05
3.86853e-05
3.88104e-05
3.89067e-05
3.91915e-05
3.79208e-05
3.76922e-05
3.75998e-05
3.74723e-05
3.73024e-05
3.71058e-05
3.68514e-05
3.65345e-05
3.61652e-05
3.57488e-05
3.52913e-05
3.48154e-05
3.43639e-05
3.39953e-05
3.37811e-05
3.37848e-05
3.4003e-05
3.43699e-05
3.48164e-05
3.52893e-05
3.5749e-05
3.61702e-05
3.65399e-05
3.68539e-05
3.71128e-05
3.73201e-05
3.74791e-05
3.75933e-05
3.76799e-05
3.79144e-05
3.68156e-05
3.66627e-05
3.65523e-05
3.643e-05
3.62959e-05
3.6124e-05
3.58959e-05
3.56164e-05
3.52906e-05
3.49206e-05
3.45175e-05
3.41054e-05
3.3719e-05
3.34016e-05
3.32111e-05
3.32103e-05
3.34025e-05
3.37274e-05
3.41221e-05
3.45368e-05
3.49371e-05
3.53028e-05
3.56243e-05
3.58987e-05
3.61269e-05
3.63108e-05
3.64529e-05
3.6556e-05
3.66333e-05
3.68253e-05
3.59493e-05
3.57656e-05
3.56848e-05
3.55935e-05
3.54785e-05
3.53155e-05
3.51073e-05
3.48615e-05
3.45765e-05
3.42546e-05
3.39087e-05
3.35588e-05
3.32293e-05
3.29519e-05
3.27777e-05
3.27699e-05
3.29361e-05
3.32203e-05
3.35633e-05
3.39211e-05
3.42655e-05
3.45809e-05
3.48598e-05
3.50996e-05
3.53004e-05
3.54628e-05
3.55886e-05
3.56802e-05
3.57477e-05
3.59017e-05
3.51442e-05
3.49847e-05
3.49466e-05
3.48762e-05
3.4765e-05
3.46132e-05
3.44332e-05
3.4225e-05
3.39829e-05
3.37098e-05
3.34169e-05
3.31191e-05
3.28329e-05
3.25855e-05
3.24267e-05
3.24191e-05
3.25683e-05
3.28179e-05
3.31136e-05
3.34193e-05
3.37134e-05
3.39841e-05
3.42254e-05
3.44345e-05
3.46102e-05
3.47523e-05
3.4862e-05
3.49417e-05
3.49993e-05
3.51207e-05
3.44287e-05
3.43659e-05
3.43237e-05
3.4253e-05
3.41486e-05
3.40199e-05
3.38732e-05
3.36999e-05
3.34957e-05
3.32651e-05
3.30167e-05
3.27604e-05
3.25102e-05
3.22926e-05
3.21546e-05
3.21538e-05
3.22909e-05
3.25091e-05
3.27605e-05
3.30174e-05
3.32645e-05
3.34937e-05
3.37001e-05
3.38805e-05
3.40325e-05
3.41555e-05
3.42503e-05
3.43192e-05
3.43683e-05
3.44629e-05
3.39062e-05
3.38664e-05
3.3808e-05
3.37403e-05
3.36508e-05
3.3547e-05
3.34236e-05
3.3274e-05
3.30999e-05
3.29058e-05
3.26959e-05
3.24766e-05
3.22614e-05
3.20748e-05
3.19572e-05
3.1961e-05
3.20835e-05
3.22697e-05
3.24795e-05
3.26918e-05
3.28969e-05
3.30895e-05
3.32651e-05
3.34196e-05
3.35503e-05
3.36562e-05
3.37382e-05
3.37977e-05
3.38395e-05
3.39113e-05
3.34819e-05
3.34092e-05
3.33671e-05
3.33129e-05
3.32416e-05
3.31546e-05
3.30451e-05
3.29152e-05
3.27692e-05
3.26082e-05
3.2433e-05
3.22492e-05
3.20686e-05
3.19104e-05
3.18085e-05
3.18119e-05
3.19172e-05
3.2073e-05
3.22469e-05
3.24239e-05
3.25966e-05
3.27601e-05
3.29098e-05