/*--------------------------------*- C++ -*----------------------------------*\
| =========                 |                                                 |
| \\      /  F ield         | OpenFOAM: The Open Source CFD Toolbox           |
|  \\    /   O peration     | Version:  2312                                  |
|   \\  /    A nd           | Website:  www.openfoam.com                      |
|    \\/     M anipulation  |                                                 |
\*---------------------------------------------------------------------------*/
FoamFile
{
    version     2.0;
    format      ascii;
    arch        "LSB;label=32;scalar=64";
    class       volScalarField;
    location    "0.39227";
    object      nut;
}
// * * * * * * * * * * * * * * * * * * * * * * * * * * * * * * * * * * * * * //

dimensions      [0 2 -1 0 0 0 0];

internalField   nonuniform List<scalar> 
90000
(
6.19653e-06
6.19663e-06
6.19663e-06
6.19664e-06
6.19664e-06
6.19664e-06
6.19664e-06
6.19663e-06
6.19662e-06
6.19661e-06
6.1966e-06
6.1966e-06
6.19659e-06
6.19658e-06
6.19658e-06
6.19657e-06
6.19658e-06
6.19659e-06
6.1966e-06
6.1966e-06
6.1966e-06
6.1966e-06
6.19662e-06
6.19665e-06
6.19667e-06
6.19668e-06
6.19668e-06
6.19666e-06
6.19662e-06
6.19657e-06
6.19665e-06
6.19884e-06
6.1989e-06
6.1989e-06
6.1989e-06
6.1989e-06
6.1989e-06
6.19889e-06
6.19888e-06
6.19887e-06
6.19886e-06
6.19885e-06
6.19884e-06
6.19883e-06
6.19883e-06
6.19882e-06
6.19882e-06
6.19883e-06
6.19883e-06
6.19884e-06
6.19886e-06
6.19887e-06
6.19888e-06
6.19888e-06
6.19888e-06
6.19887e-06
6.19889e-06
6.19891e-06
6.19886e-06
6.19676e-06
6.19663e-06
6.19889e-06
6.19896e-06
6.19897e-06
6.19897e-06
6.19897e-06
6.19896e-06
6.19896e-06
6.19895e-06
6.19894e-06
6.19893e-06
6.19893e-06
6.19892e-06
6.19892e-06
6.19891e-06
6.19891e-06
6.1989e-06
6.19891e-06
6.19893e-06
6.19894e-06
6.19895e-06
6.19895e-06
6.19894e-06
6.19894e-06
6.19895e-06
6.19897e-06
6.19898e-06
6.19897e-06
6.19885e-06
6.19667e-06
6.19663e-06
6.19887e-06
6.19896e-06
6.19897e-06
6.19897e-06
6.19897e-06
6.19896e-06
6.19895e-06
6.19895e-06
6.19894e-06
6.19894e-06
6.19894e-06
6.19893e-06
6.19893e-06
6.19892e-06
6.19891e-06
6.19892e-06
6.19894e-06
6.19895e-06
6.19896e-06
6.19895e-06
6.19894e-06
6.19893e-06
6.19894e-06
6.19897e-06
6.19898e-06
6.19899e-06
6.19899e-06
6.19886e-06
6.19663e-06
6.19663e-06
6.19888e-06
6.19897e-06
6.19897e-06
6.19897e-06
6.19897e-06
6.19896e-06
6.19896e-06
6.19895e-06
6.19895e-06
6.19895e-06
6.19894e-06
6.19894e-06
6.19893e-06
6.19893e-06
6.19894e-06
6.19895e-06
6.19896e-06
6.19896e-06
6.19895e-06
6.19894e-06
6.19892e-06
6.19893e-06
6.19895e-06
6.19896e-06
6.19896e-06
6.19896e-06
6.19896e-06
6.19887e-06
6.19663e-06
6.19665e-06
6.19891e-06
6.19898e-06
6.19899e-06
6.19898e-06
6.19898e-06
6.19898e-06
6.19897e-06
6.19897e-06
6.19896e-06
6.19896e-06
6.19895e-06
6.19895e-06
6.19895e-06
6.19895e-06
6.19896e-06
6.19897e-06
6.19897e-06
6.19896e-06
6.19895e-06
6.19894e-06
6.19894e-06
6.19895e-06
6.19896e-06
6.19896e-06
6.19895e-06
6.19895e-06
6.19897e-06
6.19891e-06
6.19665e-06
6.19668e-06
6.19895e-06
6.19902e-06
6.19901e-06
6.19901e-06
6.19901e-06
6.199e-06
6.199e-06
6.199e-06
6.19899e-06
6.19898e-06
6.19896e-06
6.19896e-06
6.19896e-06
6.19897e-06
6.19897e-06
6.19897e-06
6.19896e-06
6.19895e-06
6.19896e-06
6.19897e-06
6.19898e-06
6.19898e-06
6.19899e-06
6.19899e-06
6.199e-06
6.19901e-06
6.19901e-06
6.19893e-06
6.19666e-06
6.19672e-06
6.199e-06
6.19907e-06
6.19906e-06
6.19905e-06
6.19905e-06
6.19904e-06
6.19904e-06
6.19903e-06
6.19902e-06
6.199e-06
6.19898e-06
6.19896e-06
6.19896e-06
6.19896e-06
6.19896e-06
6.19897e-06
6.19897e-06
6.19897e-06
6.19899e-06
6.199e-06
6.19901e-06
6.19902e-06
6.19903e-06
6.19904e-06
6.19904e-06
6.19904e-06
6.19903e-06
6.19893e-06
6.19667e-06
6.19676e-06
6.19906e-06
6.19912e-06
6.19911e-06
6.1991e-06
6.1991e-06
6.19909e-06
6.19909e-06
6.19907e-06
6.19905e-06
6.19902e-06
6.19899e-06
6.19896e-06
6.19894e-06
6.19894e-06
6.19895e-06
6.19897e-06
6.19898e-06
6.199e-06
6.19902e-06
6.19904e-06
6.19906e-06
6.19907e-06
6.19907e-06
6.19907e-06
6.19906e-06
6.19905e-06
6.19902e-06
6.19892e-06
6.19669e-06
6.1968e-06
6.19912e-06
6.19918e-06
6.19917e-06
6.19916e-06
6.19915e-06
6.19914e-06
6.19912e-06
6.1991e-06
6.19907e-06
6.19904e-06
6.199e-06
6.19897e-06
6.19893e-06
6.19892e-06
6.19894e-06
6.19897e-06
6.199e-06
6.19903e-06
6.19906e-06
6.19908e-06
6.1991e-06
6.19911e-06
6.19911e-06
6.1991e-06
6.19908e-06
6.19906e-06
6.19904e-06
6.19895e-06
6.19674e-06
6.19684e-06
6.19918e-06
6.19924e-06
6.19923e-06
6.19922e-06
6.1992e-06
6.19917e-06
6.19914e-06
6.19911e-06
6.19908e-06
6.19905e-06
6.19901e-06
6.19897e-06
6.19893e-06
6.1989e-06
6.19892e-06
6.19896e-06
6.19901e-06
6.19906e-06
6.1991e-06
6.19913e-06
6.19915e-06
6.19916e-06
6.19915e-06
6.19914e-06
6.19912e-06
6.1991e-06
6.1991e-06
6.19902e-06
6.1968e-06
6.19691e-06
6.19924e-06
6.1993e-06
6.19928e-06
6.19927e-06
6.19924e-06
6.1992e-06
6.19916e-06
6.19912e-06
6.19909e-06
6.19906e-06
6.19902e-06
6.19899e-06
6.19894e-06
6.1989e-06
6.19891e-06
6.19897e-06
6.19903e-06
6.19909e-06
6.19914e-06
6.19918e-06
6.1992e-06
6.19921e-06
6.19921e-06
6.1992e-06
6.19919e-06
6.19918e-06
6.19919e-06
6.19912e-06
6.1969e-06
6.197e-06
6.19931e-06
6.19936e-06
6.19934e-06
6.19932e-06
6.19928e-06
6.19924e-06
6.19919e-06
6.19915e-06
6.19911e-06
6.19908e-06
6.19905e-06
6.19901e-06
6.19896e-06
6.19892e-06
6.19892e-06
6.19898e-06
6.19905e-06
6.19912e-06
6.19918e-06
6.19922e-06
6.19925e-06
6.19927e-06
6.19928e-06
6.19928e-06
6.19928e-06
6.1993e-06
6.19931e-06
6.19925e-06
6.19701e-06
6.19714e-06
6.19938e-06
6.19943e-06
6.19941e-06
6.19938e-06
6.19934e-06
6.19929e-06
6.19925e-06
6.1992e-06
6.19916e-06
6.19913e-06
6.19909e-06
6.19904e-06
6.199e-06
6.19896e-06
6.19896e-06
6.199e-06
6.19906e-06
6.19913e-06
6.1992e-06
6.19925e-06
6.1993e-06
6.19933e-06
6.19936e-06
6.19938e-06
6.19941e-06
6.19944e-06
6.19946e-06
6.19939e-06
6.19713e-06
6.1973e-06
6.19946e-06
6.19953e-06
6.1995e-06
6.19946e-06
6.19942e-06
6.19937e-06
6.19933e-06
6.19929e-06
6.19925e-06
6.1992e-06
6.19914e-06
6.19908e-06
6.19903e-06
6.19899e-06
6.19898e-06
6.19901e-06
6.19906e-06
6.19913e-06
6.19921e-06
6.19928e-06
6.19935e-06
6.1994e-06
6.19946e-06
6.1995e-06
6.19955e-06
6.19958e-06
6.1996e-06
6.19953e-06
6.19726e-06
6.19748e-06
6.19958e-06
6.19965e-06
6.19962e-06
6.19958e-06
6.19954e-06
6.1995e-06
6.19946e-06
6.19941e-06
6.19935e-06
6.19928e-06
6.19919e-06
6.19911e-06
6.19905e-06
6.19901e-06
6.19899e-06
6.19901e-06
6.19906e-06
6.19914e-06
6.19923e-06
6.19932e-06
6.19941e-06
6.19949e-06
6.19957e-06
6.19964e-06
6.19969e-06
6.19973e-06
6.19974e-06
6.19965e-06
6.19739e-06
6.19766e-06
6.19974e-06
6.19981e-06
6.19979e-06
6.19975e-06
6.19971e-06
6.19967e-06
6.19962e-06
6.19955e-06
6.19946e-06
6.19936e-06
6.19925e-06
6.19915e-06
6.19907e-06
6.199e-06
6.19898e-06
6.199e-06
6.19908e-06
6.19917e-06
6.19928e-06
6.19939e-06
6.1995e-06
6.19961e-06
6.19971e-06
6.19979e-06
6.19985e-06
6.19988e-06
6.19988e-06
6.1998e-06
6.19757e-06
6.19786e-06
6.19995e-06
6.20003e-06
6.2e-06
6.19996e-06
6.19992e-06
6.19987e-06
6.1998e-06
6.1997e-06
6.19959e-06
6.19945e-06
6.19932e-06
6.1992e-06
6.19909e-06
6.19901e-06
6.19897e-06
6.19903e-06
6.19913e-06
6.19925e-06
6.19938e-06
6.19951e-06
6.19965e-06
6.19978e-06
6.19989e-06
6.19997e-06
6.20003e-06
6.20006e-06
6.20007e-06
6.2e-06
6.1978e-06
6.19811e-06
6.20023e-06
6.2003e-06
6.20027e-06
6.20023e-06
6.20018e-06
6.2001e-06
6.2e-06
6.19988e-06
6.19973e-06
6.19958e-06
6.19943e-06
6.19928e-06
6.19915e-06
6.19903e-06
6.199e-06
6.19909e-06
6.19922e-06
6.19937e-06
6.19953e-06
6.1997e-06
6.19985e-06
6.2e-06
6.20011e-06
6.2002e-06
6.20026e-06
6.2003e-06
6.20034e-06
6.20029e-06
6.19812e-06
6.19842e-06
6.20057e-06
6.20063e-06
6.2006e-06
6.20054e-06
6.20048e-06
6.20038e-06
6.20025e-06
6.2001e-06
6.19993e-06
6.19975e-06
6.19957e-06
6.1994e-06
6.19922e-06
6.19908e-06
6.19907e-06
6.19919e-06
6.19937e-06
6.19955e-06
6.19975e-06
6.19993e-06
6.20011e-06
6.20026e-06
6.20039e-06
6.20048e-06
6.20056e-06
6.20063e-06
6.20069e-06
6.20067e-06
6.19849e-06
6.19882e-06
6.20099e-06
6.20104e-06
6.201e-06
6.20093e-06
6.20084e-06
6.20072e-06
6.20057e-06
6.20039e-06
6.20019e-06
6.19998e-06
6.19976e-06
6.19954e-06
6.19933e-06
6.19916e-06
6.19916e-06
6.19932e-06
6.19954e-06
6.19977e-06
6.19999e-06
6.2002e-06
6.2004e-06
6.20057e-06
6.20071e-06
6.20084e-06
6.20095e-06
6.20105e-06
6.20113e-06
6.20111e-06
6.19892e-06
6.19931e-06
6.2015e-06
6.20154e-06
6.20149e-06
6.20141e-06
6.2013e-06
6.20114e-06
6.20095e-06
6.20074e-06
6.2005e-06
6.20025e-06
6.19999e-06
6.19971e-06
6.19945e-06
6.19925e-06
6.19927e-06
6.19948e-06
6.19974e-06
6.20001e-06
6.20027e-06
6.20051e-06
6.20073e-06
6.20093e-06
6.20111e-06
6.20127e-06
6.20142e-06
6.20155e-06
6.20164e-06
6.20161e-06
6.19942e-06
6.19993e-06
6.20213e-06
6.20217e-06
6.2021e-06
6.202e-06
6.20185e-06
6.20166e-06
6.20143e-06
6.20117e-06
6.20088e-06
6.20058e-06
6.20025e-06
6.19992e-06
6.1996e-06
6.19938e-06
6.1994e-06
6.19965e-06
6.19996e-06
6.20028e-06
6.20059e-06
6.20087e-06
6.20113e-06
6.20138e-06
6.2016e-06
6.20181e-06
6.202e-06
6.20214e-06
6.20224e-06
6.20221e-06
6.20002e-06
6.2007e-06
6.20291e-06
6.20293e-06
6.20284e-06
6.20271e-06
6.20251e-06
6.20228e-06
6.202e-06
6.20168e-06
6.20134e-06
6.20097e-06
6.20057e-06
6.20018e-06
6.19981e-06
6.19955e-06
6.19957e-06
6.19986e-06
6.20023e-06
6.2006e-06
6.20097e-06
6.20131e-06
6.20163e-06
6.20194e-06
6.20222e-06
6.20248e-06
6.2027e-06
6.20286e-06
6.20296e-06
6.20293e-06
6.20076e-06
6.20165e-06
6.20385e-06
6.20386e-06
6.20373e-06
6.20355e-06
6.20331e-06
6.20303e-06
6.20269e-06
6.20232e-06
6.2019e-06
6.20145e-06
6.20098e-06
6.20051e-06
6.20007e-06
6.19976e-06
6.19978e-06
6.2001e-06
6.20054e-06
6.20099e-06
6.20144e-06
6.20186e-06
6.20226e-06
6.20264e-06
6.20299e-06
6.2033e-06
6.20354e-06
6.20372e-06
6.20384e-06
6.20384e-06
6.20169e-06
6.2028e-06
6.20499e-06
6.20496e-06
6.2048e-06
6.20457e-06
6.20428e-06
6.20394e-06
6.20354e-06
6.20309e-06
6.20259e-06
6.20204e-06
6.20148e-06
6.20092e-06
6.2004e-06
6.20003e-06
6.20003e-06
6.20041e-06
6.20093e-06
6.20148e-06
6.20203e-06
6.20255e-06
6.20305e-06
6.20352e-06
6.20394e-06
6.20429e-06
6.20457e-06
6.20478e-06
6.20494e-06
6.20498e-06
6.20286e-06
6.20419e-06
6.20634e-06
6.20628e-06
6.20608e-06
6.2058e-06
6.20547e-06
6.20506e-06
6.20458e-06
6.20403e-06
6.20342e-06
6.20277e-06
6.2021e-06
6.20143e-06
6.20081e-06
6.20038e-06
6.20038e-06
6.20082e-06
6.20144e-06
6.20211e-06
6.20278e-06
6.20342e-06
6.20403e-06
6.20459e-06
6.20508e-06
6.20549e-06
6.20582e-06
6.20609e-06
6.2063e-06
6.20638e-06
6.20428e-06
6.20585e-06
6.20795e-06
6.20786e-06
6.20762e-06
6.2073e-06
6.20689e-06
6.2064e-06
6.20582e-06
6.20516e-06
6.20443e-06
6.20366e-06
6.20287e-06
6.20207e-06
6.20135e-06
6.20084e-06
6.20084e-06
6.20136e-06
6.20209e-06
6.2029e-06
6.2037e-06
6.20448e-06
6.20521e-06
6.20587e-06
6.20644e-06
6.20692e-06
6.20731e-06
6.20765e-06
6.20792e-06
6.20803e-06
6.20593e-06
6.20782e-06
6.20987e-06
6.20976e-06
6.20947e-06
6.20909e-06
6.2086e-06
6.20801e-06
6.20732e-06
6.20654e-06
6.20568e-06
6.20478e-06
6.20383e-06
6.20289e-06
6.20203e-06
6.20144e-06
6.20145e-06
6.20204e-06
6.2029e-06
6.20386e-06
6.20482e-06
6.20575e-06
6.20661e-06
6.20737e-06
6.20803e-06
6.20859e-06
6.20908e-06
6.20949e-06
6.20981e-06
6.20993e-06
6.20782e-06
6.21015e-06
6.21217e-06
6.21203e-06
6.21169e-06
6.21124e-06
6.21066e-06
6.20996e-06
6.20915e-06
6.20824e-06
6.20723e-06
6.20616e-06
6.20503e-06
6.20391e-06
6.2029e-06
6.20221e-06
6.20221e-06
6.20289e-06
6.2039e-06
6.20502e-06
6.20617e-06
6.20727e-06
6.20827e-06
6.20917e-06
6.20995e-06
6.21062e-06
6.21121e-06
6.21169e-06
6.21203e-06
6.21214e-06
6.21007e-06
6.21294e-06
6.21492e-06
6.21474e-06
6.21435e-06
6.21382e-06
6.21315e-06
6.21234e-06
6.21139e-06
6.21032e-06
6.20914e-06
6.20786e-06
6.20652e-06
6.20518e-06
6.20399e-06
6.2032e-06
6.20319e-06
6.20396e-06
6.20515e-06
6.20648e-06
6.20784e-06
6.20914e-06
6.21032e-06
6.21138e-06
6.21231e-06
6.21312e-06
6.21381e-06
6.21435e-06
6.21471e-06
6.21484e-06
6.21285e-06
6.21625e-06
6.21819e-06
6.21797e-06
6.21752e-06
6.21692e-06
6.21614e-06
6.21521e-06
6.21411e-06
6.21286e-06
6.21147e-06
6.20995e-06
6.20836e-06
6.20679e-06
6.2054e-06
6.20449e-06
6.20448e-06
6.20537e-06
6.20676e-06
6.20834e-06
6.20994e-06
6.21147e-06
6.21286e-06
6.2141e-06
6.21522e-06
6.21618e-06
6.21696e-06
6.21754e-06
6.21794e-06
6.21814e-06
6.21625e-06
6.22017e-06
6.22206e-06
6.22181e-06
6.22131e-06
6.22062e-06
6.21974e-06
6.21867e-06
6.2174e-06
6.21595e-06
6.21432e-06
6.21253e-06
6.21067e-06
6.20883e-06
6.20722e-06
6.2062e-06
6.20619e-06
6.20722e-06
6.20884e-06
6.21068e-06
6.21255e-06
6.21433e-06
6.21596e-06
6.21742e-06
6.21872e-06
6.21982e-06
6.22068e-06
6.22132e-06
6.2218e-06
6.22209e-06
6.22023e-06
6.2248e-06
6.22665e-06
6.22635e-06
6.2258e-06
6.22503e-06
6.22404e-06
6.22282e-06
6.22137e-06
6.21969e-06
6.21779e-06
6.21571e-06
6.21355e-06
6.21143e-06
6.2096e-06
6.20845e-06
6.20847e-06
6.20964e-06
6.21149e-06
6.21361e-06
6.21577e-06
6.21782e-06
6.21971e-06
6.22141e-06
6.22288e-06
6.2241e-06
6.22504e-06
6.22577e-06
6.22635e-06
6.2267e-06
6.22483e-06
6.23023e-06
6.23204e-06
6.23171e-06
6.2311e-06
6.23025e-06
6.22915e-06
6.22778e-06
6.22613e-06
6.22421e-06
6.22202e-06
6.21964e-06
6.21716e-06
6.21476e-06
6.21269e-06
6.21142e-06
6.21144e-06
6.21274e-06
6.21483e-06
6.21724e-06
6.2197e-06
6.22205e-06
6.22423e-06
6.22616e-06
6.22781e-06
6.22915e-06
6.2302e-06
6.23104e-06
6.2317e-06
6.23204e-06
6.23019e-06
6.23659e-06
6.23835e-06
6.23799e-06
6.23733e-06
6.23641e-06
6.2352e-06
6.23369e-06
6.23185e-06
6.22968e-06
6.22721e-06
6.22452e-06
6.22172e-06
6.219e-06
6.21668e-06
6.21527e-06
6.21528e-06
6.21671e-06
6.21903e-06
6.22175e-06
6.22454e-06
6.22723e-06
6.22972e-06
6.23189e-06
6.2337e-06
6.23517e-06
6.23635e-06
6.23729e-06
6.23796e-06
6.23827e-06
6.23649e-06
6.24395e-06
6.24567e-06
6.24528e-06
6.2446e-06
6.24364e-06
6.24235e-06
6.24071e-06
6.23869e-06
6.2363e-06
6.23357e-06
6.23056e-06
6.22742e-06
6.22437e-06
6.22179e-06
6.22022e-06
6.22022e-06
6.22179e-06
6.22437e-06
6.22742e-06
6.23058e-06
6.23361e-06
6.23639e-06
6.23879e-06
6.24077e-06
6.24237e-06
6.24366e-06
6.24463e-06
6.24526e-06
6.24557e-06
6.24387e-06
6.2524e-06
6.25408e-06
6.2537e-06
6.25302e-06
6.25205e-06
6.25073e-06
6.24902e-06
6.24688e-06
6.2443e-06
6.24132e-06
6.238e-06
6.23451e-06
6.23113e-06
6.2283e-06
6.22661e-06
6.22662e-06
6.22832e-06
6.23115e-06
6.23453e-06
6.23803e-06
6.24138e-06
6.24442e-06
6.247e-06
6.24911e-06
6.25083e-06
6.25217e-06
6.25311e-06
6.2537e-06
6.25404e-06
6.25241e-06
6.262e-06
6.26367e-06
6.26331e-06
6.2627e-06
6.26179e-06
6.26051e-06
6.25879e-06
6.25659e-06
6.25389e-06
6.25069e-06
6.2471e-06
6.2433e-06
6.23964e-06
6.23659e-06
6.23479e-06
6.2348e-06
6.23661e-06
6.23965e-06
6.24331e-06
6.24711e-06
6.25073e-06
6.25396e-06
6.25667e-06
6.25887e-06
6.26064e-06
6.26193e-06
6.26279e-06
6.26335e-06
6.26371e-06
6.26209e-06
6.27278e-06
6.27445e-06
6.27417e-06
6.2737e-06
6.27294e-06
6.27181e-06
6.27021e-06
6.26806e-06
6.26531e-06
6.262e-06
6.25821e-06
6.25419e-06
6.25031e-06
6.2471e-06
6.24521e-06
6.24521e-06
6.2471e-06
6.2503e-06
6.25419e-06
6.25821e-06
6.262e-06
6.26532e-06
6.26805e-06
6.27023e-06
6.27191e-06
6.27303e-06
6.27375e-06
6.27423e-06
6.27456e-06
6.2729e-06
6.28469e-06
6.2864e-06
6.28628e-06
6.28606e-06
6.28559e-06
6.28476e-06
6.28343e-06
6.28148e-06
6.27886e-06
6.27559e-06
6.27178e-06
6.26768e-06
6.2637e-06
6.2604e-06
6.25845e-06
6.25845e-06
6.26038e-06
6.26368e-06
6.26767e-06
6.27176e-06
6.27555e-06
6.27878e-06
6.28138e-06
6.28337e-06
6.28476e-06
6.28557e-06
6.28605e-06
6.28633e-06
6.28652e-06
6.28477e-06
6.29761e-06
6.29942e-06
6.29957e-06
6.29976e-06
6.29977e-06
6.29945e-06
6.29861e-06
6.29711e-06
6.29487e-06
6.29187e-06
6.28827e-06
6.28431e-06
6.28041e-06
6.27714e-06
6.27522e-06
6.27522e-06
6.27713e-06
6.28038e-06
6.28429e-06
6.28825e-06
6.29184e-06
6.29478e-06
6.297e-06
6.29855e-06
6.29938e-06
6.29969e-06
6.29974e-06
6.29963e-06
6.29953e-06
6.29764e-06
6.31136e-06
6.31333e-06
6.3139e-06
6.31468e-06
6.31541e-06
6.31588e-06
6.31587e-06
6.31517e-06
6.31368e-06
6.31132e-06
6.30824e-06
6.30469e-06
6.30109e-06
6.29806e-06
6.29627e-06
6.29629e-06
6.29807e-06
6.3011e-06
6.30471e-06
6.30827e-06
6.31133e-06
6.31364e-06
6.31514e-06
6.31586e-06
6.31581e-06
6.31535e-06
6.31471e-06
6.314e-06
6.31342e-06
6.3114e-06
6.32564e-06
6.32787e-06
6.32905e-06
6.33069e-06
6.33244e-06
6.33407e-06
6.3353e-06
6.3359e-06
6.33563e-06
6.33445e-06
6.33234e-06
6.32958e-06
6.32659e-06
6.32403e-06
6.32252e-06
6.32255e-06
6.32405e-06
6.32661e-06
6.32961e-06
6.33238e-06
6.33446e-06
6.33561e-06
6.3359e-06
6.33529e-06
6.33399e-06
6.3324e-06
6.33072e-06
6.32916e-06
6.32788e-06
6.32568e-06
6.33994e-06
6.34254e-06
6.34456e-06
6.3474e-06
6.35066e-06
6.35393e-06
6.35698e-06
6.35947e-06
6.36112e-06
6.36177e-06
6.36142e-06
6.36017e-06
6.35847e-06
6.35696e-06
6.35618e-06
6.35619e-06
6.35696e-06
6.35847e-06
6.36019e-06
6.36144e-06
6.36175e-06
6.36112e-06
6.35952e-06
6.35697e-06
6.35388e-06
6.35066e-06
6.34745e-06
6.34464e-06
6.34252e-06
6.33996e-06
6.35328e-06
6.35644e-06
6.35965e-06
6.36414e-06
6.36945e-06
6.37512e-06
6.38083e-06
6.38615e-06
6.39086e-06
6.3949e-06
6.39871e-06
6.40287e-06
6.40794e-06
6.41349e-06
6.41959e-06
6.41956e-06
6.41345e-06
6.40792e-06
6.40289e-06
6.39873e-06
6.39489e-06
6.39087e-06
6.38619e-06
6.3808e-06
6.3751e-06
6.36946e-06
6.36421e-06
6.35969e-06
6.35648e-06
6.35331e-06
6.3663e-06
6.37036e-06
6.37528e-06
6.3821e-06
6.39039e-06
6.39982e-06
6.41027e-06
6.42229e-06
6.43731e-06
6.45898e-06
6.49345e-06
6.54876e-06
6.62811e-06
6.71963e-06
6.81395e-06
6.8138e-06
6.71964e-06
6.62819e-06
6.54896e-06
6.49368e-06
6.45911e-06
6.43739e-06
6.4223e-06
6.4102e-06
6.3998e-06
6.39037e-06
6.38213e-06
6.37526e-06
6.37037e-06
6.36631e-06
6.38197e-06
6.38728e-06
6.39464e-06
6.40531e-06
6.41939e-06
6.43868e-06
6.46797e-06
6.51943e-06
6.61632e-06
6.79987e-06
7.13294e-06
7.6785e-06
8.43076e-06
9.24524e-06
1.00276e-05
1.00268e-05
9.2455e-06
8.43226e-06
7.68113e-06
7.13562e-06
6.8016e-06
6.61718e-06
6.51973e-06
6.46796e-06
6.43859e-06
6.41927e-06
6.40525e-06
6.39459e-06
6.38724e-06
6.38189e-06
6.38577e-06
6.39378e-06
6.40837e-06
6.43307e-06
6.47494e-06
6.55645e-06
6.72992e-06
7.10047e-06
7.84439e-06
9.19796e-06
1.13841e-05
1.43271e-05
1.74728e-05
2.01639e-05
2.23287e-05
2.23289e-05
2.01646e-05
1.74851e-05
1.43474e-05
1.14037e-05
9.21123e-06
7.85143e-06
7.10376e-06
6.73072e-06
6.55587e-06
6.47385e-06
6.43225e-06
6.40786e-06
6.3934e-06
6.38515e-06
6.4047e-06
6.43261e-06
6.5037e-06
6.63465e-06
6.8841e-06
7.41976e-06
8.56194e-06
1.07458e-05
1.42741e-05
1.89118e-05
2.42001e-05
2.94858e-05
3.40483e-05
3.75018e-05
4.01513e-05
4.01555e-05
3.7508e-05
3.40826e-05
2.95442e-05
2.42576e-05
1.89568e-05
1.43064e-05
1.07686e-05
8.57195e-06
7.41933e-06
6.87959e-06
6.62991e-06
6.50046e-06
6.42923e-06
6.39973e-06
6.90215e-06
7.06263e-06
7.54314e-06
8.29971e-06
9.60722e-06
1.2042e-05
1.60068e-05
2.11465e-05
2.68708e-05
3.27172e-05
3.88971e-05
4.49835e-05
5.00447e-05
5.37024e-05
5.64736e-05
5.6484e-05
5.37279e-05
5.01057e-05
4.50848e-05
3.89972e-05
3.27952e-05
2.69345e-05
2.12061e-05
1.6057e-05
1.20707e-05
9.62004e-06
8.29821e-06
7.53503e-06
7.04613e-06
6.88383e-06
9.10827e-06
9.63316e-06
1.10615e-05
1.27832e-05
1.52254e-05
1.88389e-05
2.33987e-05
2.84763e-05
3.40446e-05
4.03474e-05
4.77094e-05
5.53941e-05
6.16115e-05
6.57895e-05
6.8979e-05
6.90083e-05
6.58428e-05
6.16914e-05
5.55513e-05
4.78771e-05
4.04741e-05
3.41322e-05
2.85456e-05
2.34563e-05
1.88759e-05
1.52638e-05
1.28095e-05
1.10589e-05
9.60188e-06
9.08114e-06
9.29305e-06
9.63444e-06
1.09289e-05
1.33492e-05
1.7101e-05
2.13647e-05
2.49666e-05
2.84283e-05
3.29306e-05
3.9697e-05
4.85975e-05
5.7652e-05
6.4598e-05
6.90914e-05
7.21227e-05
7.21599e-05
6.91818e-05
6.47853e-05
5.79452e-05
4.89156e-05
3.99584e-05
3.31055e-05
2.85218e-05
2.50405e-05
2.14376e-05
1.71832e-05
1.33839e-05
1.09306e-05
9.62012e-06
9.2973e-06
9.59399e-06
9.69381e-06
1.01867e-05
1.12813e-05
1.36112e-05
1.80021e-05
2.38358e-05
2.97908e-05
3.51691e-05
3.95741e-05
4.38972e-05
4.85479e-05
5.30264e-05
5.63186e-05
5.845e-05
5.84715e-05
5.63811e-05
5.31368e-05
4.87045e-05
4.40545e-05
3.96923e-05
3.52855e-05
2.99067e-05
2.39608e-05
1.81123e-05
1.36759e-05
1.12867e-05
1.0186e-05
9.68556e-06
9.5848e-06
9.77072e-06
9.82204e-06
1.00756e-05
1.0455e-05
1.10652e-05
1.23802e-05
1.55065e-05
2.15529e-05
2.92319e-05
3.61794e-05
4.19228e-05
4.69193e-05
5.04752e-05
5.30056e-05
5.46123e-05
5.46289e-05
5.3047e-05
5.05482e-05
4.70045e-05
4.20528e-05
3.63122e-05
2.93858e-05
2.17245e-05
1.56081e-05
1.24278e-05
1.10816e-05
1.0453e-05
1.00761e-05
9.83212e-06
9.76692e-06
9.91693e-06
9.90422e-06
1.00967e-05
1.03517e-05
1.06497e-05
1.0997e-05
1.14871e-05
1.25972e-05
1.66011e-05
2.45873e-05
3.30946e-05
4.05398e-05
4.62421e-05
5.00142e-05
5.2508e-05
5.25205e-05
5.00364e-05
4.62955e-05
4.06209e-05
3.31968e-05
2.47505e-05
1.6738e-05
1.26273e-05
1.14978e-05
1.10024e-05
1.06491e-05
1.03462e-05
1.00887e-05
9.90838e-06
9.91514e-06
1.00572e-05
9.99325e-06
1.01459e-05
1.03599e-05
1.05941e-05
1.08476e-05
1.11111e-05
1.14113e-05
1.18333e-05
1.29204e-05
1.68696e-05
2.58199e-05
3.46634e-05
4.11451e-05
4.58469e-05
4.58573e-05
4.1144e-05
3.46836e-05
2.58861e-05
1.69346e-05
1.29474e-05
1.18438e-05
1.1414e-05
1.11135e-05
1.08449e-05
1.05974e-05
1.03614e-05
1.01423e-05
9.99402e-06
1.00504e-05
1.0162e-05
1.00683e-05
1.01937e-05
1.03727e-05
1.05784e-05
1.08016e-05
1.10365e-05
1.1276e-05
1.15066e-05
1.17465e-05
1.20826e-05
1.28218e-05
1.52657e-05
2.22659e-05
3.0437e-05
3.04272e-05
2.22438e-05
1.52699e-05
1.28306e-05
1.20871e-05
1.17505e-05
1.15111e-05
1.12787e-05
1.10386e-05
1.08013e-05
1.05845e-05
1.03667e-05
1.0183e-05
1.00607e-05
1.01553e-05
1.02099e-05
1.00946e-05
1.01892e-05
1.03448e-05
1.05282e-05
1.0718e-05
1.09336e-05
1.11436e-05
1.13488e-05
1.1542e-05
1.16984e-05
1.18197e-05
1.19278e-05
1.21128e-05
1.25997e-05
1.25893e-05
1.21099e-05
1.19279e-05
1.18125e-05
1.17009e-05
1.1543e-05
1.13518e-05
1.11492e-05
1.09305e-05
1.07231e-05
1.05277e-05
1.03411e-05
1.01889e-05
1.00854e-05
1.02008e-05
1.01824e-05
1.00589e-05
1.01352e-05
1.02644e-05
1.04191e-05
1.05866e-05
1.07682e-05
1.09498e-05
1.11265e-05
1.12888e-05
1.14151e-05
1.15004e-05
1.15467e-05
1.15565e-05
1.15449e-05
1.15433e-05
1.15572e-05
1.15532e-05
1.15033e-05
1.1417e-05
1.12834e-05
1.11251e-05
1.09569e-05
1.07675e-05
1.05888e-05
1.04199e-05
1.02703e-05
1.01358e-05
1.00496e-05
1.01769e-05
1.00837e-05
9.95382e-06
1.00206e-05
1.01267e-05
1.02529e-05
1.03931e-05
1.05455e-05
1.06901e-05
1.08343e-05
1.096e-05
1.10562e-05
1.1125e-05
1.11676e-05
1.11803e-05
1.11714e-05
1.11697e-05
1.11787e-05
1.1167e-05
1.11277e-05
1.10569e-05
1.09569e-05
1.08453e-05
1.07025e-05
1.05411e-05
1.03967e-05
1.02605e-05
1.01302e-05
1.00181e-05
9.95367e-06
1.00855e-05
9.941e-06
9.80703e-06
9.85568e-06
9.94363e-06
1.00416e-05
1.01491e-05
1.02634e-05
1.03702e-05
1.04737e-05
1.05592e-05
1.06239e-05
1.06691e-05
1.06914e-05
1.06988e-05
1.06971e-05
1.06964e-05
1.07029e-05
1.06936e-05
1.06662e-05
1.06234e-05
1.05599e-05
1.04742e-05
1.03659e-05
1.02578e-05
1.01502e-05
1.00385e-05
9.93431e-06
9.85371e-06
9.80583e-06
9.93562e-06
9.7319e-06
9.60801e-06
9.63966e-06
9.71165e-06
9.77658e-06
9.86214e-06
9.94261e-06
1.00172e-05
1.00869e-05
1.01428e-05
1.01808e-05
1.02006e-05
1.0206e-05
1.02053e-05
1.02009e-05
1.01988e-05
1.02003e-05
1.02025e-05
1.02004e-05
1.01826e-05
1.01443e-05
1.00893e-05
1.00221e-05
9.94591e-06
9.86051e-06
9.77796e-06
9.70606e-06
9.64652e-06
9.60785e-06
9.73531e-06
9.51543e-06
9.37877e-06
9.40658e-06
9.44754e-06
9.50535e-06
9.55979e-06
9.61097e-06
9.66042e-06
9.7001e-06
9.72674e-06
9.74022e-06
9.73718e-06
9.72503e-06
9.71375e-06
9.70202e-06
9.69602e-06
9.70556e-06
9.72514e-06
9.73918e-06
9.73836e-06
9.72798e-06
9.70583e-06
9.66548e-06
9.61065e-06
9.55392e-06
9.50232e-06
9.45198e-06
9.40419e-06
9.37667e-06
9.50369e-06
9.24764e-06
9.12815e-06
9.14697e-06
9.17851e-06
9.21418e-06
9.24546e-06
9.27852e-06
9.30488e-06
9.31937e-06
9.32141e-06
9.30797e-06
9.28517e-06
9.25931e-06
9.23108e-06
9.20885e-06
9.208e-06
9.2286e-06
9.25456e-06
9.27996e-06
9.3044e-06
9.32306e-06
9.32231e-06
9.30237e-06
9.27412e-06
9.24581e-06
9.2144e-06
9.17764e-06
9.14389e-06
9.12997e-06
9.25175e-06
8.98491e-06
8.86715e-06
8.8754e-06
8.90426e-06
8.91317e-06
8.93514e-06
8.94676e-06
8.94719e-06
8.94285e-06
8.92947e-06
8.89919e-06
8.85651e-06
8.81285e-06
8.77818e-06
8.75803e-06
8.75757e-06
8.77686e-06
8.81123e-06
8.85544e-06
8.89857e-06
8.93124e-06
8.94866e-06
8.95418e-06
8.9508e-06
8.93841e-06
8.91863e-06
8.89688e-06
8.87932e-06
8.87437e-06
8.98598e-06
8.71666e-06
8.61346e-06
8.61536e-06
8.62084e-06
8.63087e-06
8.63752e-06
8.63088e-06
8.62135e-06
8.60391e-06
8.56694e-06
8.51726e-06
8.46698e-06
8.41756e-06
8.37234e-06
8.34396e-06
8.34303e-06
8.36805e-06
8.41115e-06
8.46312e-06
8.51623e-06
8.56391e-06
8.60153e-06
8.62533e-06
8.63434e-06
8.63311e-06
8.62825e-06
8.62212e-06
8.61463e-06
8.61302e-06
8.716e-06
8.44923e-06
8.35347e-06
8.35523e-06
8.35065e-06
8.35947e-06
8.34764e-06
8.32942e-06
8.30784e-06
8.275e-06
8.22821e-06
8.1731e-06
8.11149e-06
8.04792e-06
7.99627e-06
7.96933e-06
7.97129e-06
7.99902e-06
8.0474e-06
8.10867e-06
8.17366e-06
8.23175e-06
8.27751e-06
8.31018e-06
8.33246e-06
8.34734e-06
8.35567e-06
8.35707e-06
8.35293e-06
8.35395e-06
8.45074e-06
8.20671e-06
8.10855e-06
8.10477e-06
8.10278e-06
8.09215e-06
8.07326e-06
8.05606e-06
8.0292e-06
7.98524e-06
7.92953e-06
7.86677e-06
7.79706e-06
7.72855e-06
7.67517e-06
7.64682e-06
7.64735e-06
7.67669e-06
7.73006e-06
7.79714e-06
7.86607e-06
7.9278e-06
7.98034e-06
8.0245e-06
8.05977e-06
8.08408e-06
8.09682e-06
8.10081e-06
8.10135e-06
8.10798e-06
8.19787e-06
7.9489e-06
7.88405e-06
7.86714e-06
7.86381e-06
7.84906e-06
7.83485e-06
7.81106e-06
7.77089e-06
7.72032e-06
7.66417e-06
7.59864e-06
7.5241e-06
7.4533e-06
7.3988e-06
7.3686e-06
7.36793e-06
7.39838e-06
7.45392e-06
7.52317e-06
7.59472e-06
7.66113e-06
7.72007e-06
7.77009e-06
7.80886e-06
7.83528e-06
7.85128e-06
7.86117e-06
7.86886e-06
7.87969e-06
7.95924e-06
7.73509e-06
7.66986e-06
7.65563e-06
7.64542e-06
7.62871e-06
7.60931e-06
7.57522e-06
7.53167e-06
7.48446e-06
7.4295e-06
7.36234e-06
7.28915e-06
7.22198e-06
7.1688e-06
7.13703e-06
7.13553e-06
7.16694e-06
7.22342e-06
7.29244e-06
7.36334e-06
7.42973e-06
7.48888e-06
7.53888e-06
7.57838e-06
7.60783e-06
7.62929e-06
7.64487e-06
7.65598e-06
7.66695e-06
7.7356e-06
7.53955e-06
7.46541e-06
7.4615e-06
7.44907e-06
7.43514e-06
7.41195e-06
7.3763e-06
7.3366e-06
7.29056e-06
7.23249e-06
7.16475e-06
7.09578e-06
7.03167e-06
6.97777e-06
6.94453e-06
6.94354e-06
6.9758e-06
7.03056e-06
7.09532e-06
7.16204e-06
7.22623e-06
7.28497e-06
7.33569e-06
7.37685e-06
7.40864e-06
7.43231e-06
7.44907e-06
7.46002e-06
7.47032e-06
7.53056e-06
7.33942e-06
7.29557e-06
7.28577e-06
7.27148e-06
7.25852e-06
7.23137e-06
7.19845e-06
7.1614e-06
7.11362e-06
7.05481e-06
6.99158e-06
6.92865e-06
6.86742e-06
6.81458e-06
6.78332e-06
6.78464e-06
6.81669e-06
6.86789e-06
6.92796e-06
6.99124e-06
7.05401e-06
7.11215e-06
7.16211e-06
7.20217e-06
7.23274e-06
7.2554e-06
7.27179e-06
7.28335e-06
7.29419e-06
7.34719e-06
7.17885e-06
7.14479e-06
7.12708e-06
7.11516e-06
7.09791e-06
7.07025e-06
7.04175e-06
7.00581e-06
6.95873e-06
6.90551e-06
6.85071e-06
6.79398e-06
6.73616e-06
6.68655e-06
6.65836e-06
6.66064e-06
6.69026e-06
6.73673e-06
6.79228e-06
6.85158e-06
6.91062e-06
6.96474e-06
7.01071e-06
7.04753e-06
7.07616e-06
7.09831e-06
7.11542e-06
7.12833e-06
7.13954e-06
7.18423e-06
7.0492e-06
7.00369e-06
6.99452e-06
6.98566e-06
6.96356e-06
6.94024e-06
6.91426e-06
6.87816e-06
6.83428e-06
6.78774e-06
6.73846e-06
6.68472e-06
6.63004e-06
6.58471e-06
6.55986e-06
6.56206e-06
6.58829e-06
6.63013e-06
6.68083e-06
6.73512e-06
6.78853e-06
6.83706e-06
6.87848e-06
6.91245e-06
6.93985e-06
6.96186e-06
6.97921e-06
6.99209e-06
7.00231e-06
7.03869e-06
6.90998e-06
6.88325e-06
6.8741e-06
6.86052e-06
6.84046e-06
6.82314e-06
6.79867e-06
6.76504e-06
6.72684e-06
6.6853e-06
6.63854e-06
6.58768e-06
6.53888e-06
6.50032e-06
6.4796e-06
6.48157e-06
6.50464e-06
6.54246e-06
6.58877e-06
6.63828e-06
6.6863e-06
6.72956e-06
6.76663e-06
6.79749e-06
6.82282e-06
6.84333e-06
6.85934e-06
6.8709e-06
6.87971e-06
6.90967e-06
6.79551e-06
6.78233e-06
6.76639e-06
6.7505e-06
6.73758e-06
6.72261e-06
6.69911e-06
6.67006e-06
6.63732e-06
6.59914e-06
6.55546e-06
6.51043e-06
6.46985e-06
6.43835e-06
6.42018e-06
6.42028e-06
6.4395e-06
6.47313e-06
6.51518e-06
6.55983e-06
6.60243e-06
6.64032e-06
6.67265e-06
6.6997e-06
6.72207e-06
6.74024e-06
6.75443e-06
6.76474e-06
6.77264e-06
6.79777e-06
6.71833e-06
6.68797e-06
6.67901e-06
6.66795e-06
6.65773e-06
6.64062e-06
6.6182e-06
6.59334e-06
6.56425e-06
6.52928e-06
6.49073e-06
6.45312e-06
6.41978e-06
6.39247e-06
6.37452e-06
6.37223e-06
6.38818e-06
6.41817e-06
6.45575e-06
6.49499e-06
6.53187e-06
6.56448e-06
6.59247e-06
6.61623e-06
6.63616e-06
6.65247e-06
6.66524e-06
6.67457e-06
6.68164e-06
6.70221e-06
6.62887e-06
6.60225e-06
6.60134e-06
6.59422e-06
6.58249e-06
6.56522e-06
6.54645e-06
6.52564e-06
6.49993e-06
6.46944e-06
6.43716e-06
6.40598e-06
6.37705e-06
6.35166e-06
6.33419e-06
6.33194e-06
6.34714e-06
6.37446e-06
6.40729e-06
6.44067e-06
6.47184e-06
6.49979e-06
6.52446e-06
6.54596e-06
6.56424e-06
6.57912e-06
6.59054e-06
6.59862e-06
6.60446e-06
6.62055e-06
6.54182e-06
6.53906e-06
6.53348e-06
6.52623e-06
6.5145e-06
6.50091e-06
6.48659e-06
6.46887e-06
6.4465e-06
6.42095e-06
6.39422e-06
6.36733e-06
6.341e-06
6.31757e-06
6.30242e-06
6.30229e-06
6.31762e-06
6.34188e-06
6.36918e-06
6.39629e-06
6.42191e-06
6.44577e-06
6.46771e-06
6.48731e-06
6.50397e-06
6.51723e-06
6.52704e-06
6.53367e-06
6.53822e-06
6.55056e-06
6.49165e-06
6.48915e-06
6.47943e-06
6.47226e-06
6.46272e-06
6.45252e-06
6.44007e-06
6.42383e-06
6.40456e-06
6.38353e-06
6.36115e-06
6.33752e-06
6.31386e-06
6.2934e-06
6.28121e-06
6.28275e-06
6.29683e-06
6.31689e-06
6.33849e-06
6.35989e-06
6.38088e-06
6.40136e-06
6.42081e-06
6.4383e-06
6.45297e-06
6.46436e-06
6.47253e-06
6.47794e-06
6.48158e-06
6.49111e-06
6.45248e-06
6.43687e-06
6.43263e-06
6.42719e-06
6.41991e-06
6.41095e-06
6.39896e-06
6.38446e-06
6.3686e-06
6.35153e-06
6.33276e-06
6.31252e-06
6.29245e-06
6.27547e-06
6.26558e-06
6.26719e-06
6.2788e-06
6.29469e-06
6.31189e-06