/*--------------------------------*- C++ -*----------------------------------*\
| =========                 |                                                 |
| \\      /  F ield         | OpenFOAM: The Open Source CFD Toolbox           |
|  \\    /   O peration     | Version:  2312                                  |
|   \\  /    A nd           | Website:  www.openfoam.com                      |
|    \\/     M anipulation  |                                                 |
\*---------------------------------------------------------------------------*/
FoamFile
{
    version     2.0;
    format      ascii;
    arch        "LSB;label=32;scalar=64";
    class       volScalarField;
    location    "0.39227";
    object      p;
}
// * * * * * * * * * * * * * * * * * * * * * * * * * * * * * * * * * * * * * //

dimensions      [1 -1 -2 0 0 0 0];

internalField   nonuniform List<scalar> 
90000
(
4847.57
4847.57
4847.57
4847.57
4847.57
4847.58
4847.58
4847.58
4847.58
4847.58
4847.58
4847.58
4847.58
4847.58
4847.58
4847.58
4847.58
4847.58
4847.58
4847.58
4847.58
4847.58
4847.58
4847.58
4847.58
4847.58
4847.58
4847.58
4847.58
4847.58
4749.47
4749.47
4749.47
4749.47
4749.47
4749.48
4749.48
4749.48
4749.48
4749.48
4749.48
4749.48
4749.48
4749.48
4749.48
4749.48
4749.48
4749.48
4749.48
4749.48
4749.48
4749.48
4749.48
4749.48
4749.48
4749.48
4749.48
4749.48
4749.48
4749.48
4651.37
4651.37
4651.37
4651.37
4651.37
4651.37
4651.38
4651.38
4651.38
4651.38
4651.38
4651.38
4651.38
4651.38
4651.38
4651.38
4651.38
4651.38
4651.38
4651.38
4651.38
4651.38
4651.38
4651.38
4651.38
4651.38
4651.38
4651.38
4651.38
4651.38
4553.27
4553.27
4553.27
4553.27
4553.27
4553.27
4553.28
4553.28
4553.28
4553.28
4553.28
4553.28
4553.28
4553.28
4553.28
4553.28
4553.28
4553.28
4553.28
4553.28
4553.28
4553.28
4553.28
4553.28
4553.28
4553.28
4553.28
4553.28
4553.28
4553.27
4455.17
4455.17
4455.17
4455.17
4455.17
4455.17
4455.17
4455.17
4455.18
4455.18
4455.18
4455.18
4455.18
4455.18
4455.18
4455.18
4455.18
4455.18
4455.18
4455.18
4455.18
4455.18
4455.18
4455.18
4455.18
4455.18
4455.17
4455.17
4455.17
4455.17
4357.07
4357.07
4357.07
4357.07
4357.07
4357.07
4357.07
4357.07
4357.07
4357.07
4357.07
4357.08
4357.08
4357.08
4357.08
4357.08
4357.08
4357.08
4357.08
4357.08
4357.08
4357.08
4357.08
4357.08
4357.07
4357.07
4357.07
4357.07
4357.07
4357.07
4258.97
4258.97
4258.97
4258.97
4258.97
4258.97
4258.97
4258.97
4258.97
4258.97
4258.97
4258.97
4258.97
4258.97
4258.98
4258.98
4258.98
4258.98
4258.98
4258.98
4258.98
4258.97
4258.97
4258.97
4258.97
4258.97
4258.97
4258.97
4258.97
4258.97
4160.87
4160.87
4160.87
4160.87
4160.87
4160.87
4160.87
4160.87
4160.87
4160.87
4160.87
4160.87
4160.87
4160.87
4160.87
4160.87
4160.87
4160.87
4160.87
4160.87
4160.87
4160.87
4160.87
4160.87
4160.87
4160.87
4160.87
4160.87
4160.87
4160.87
4062.76
4062.76
4062.76
4062.76
4062.77
4062.77
4062.77
4062.77
4062.77
4062.77
4062.77
4062.77
4062.77
4062.77
4062.77
4062.77
4062.77
4062.77
4062.77
4062.77
4062.77
4062.77
4062.77
4062.77
4062.77
4062.77
4062.77
4062.77
4062.77
4062.77
3964.66
3964.66
3964.66
3964.66
3964.66
3964.66
3964.66
3964.66
3964.66
3964.67
3964.67
3964.67
3964.67
3964.67
3964.67
3964.67
3964.67
3964.67
3964.67
3964.67
3964.67
3964.67
3964.67
3964.66
3964.66
3964.66
3964.66
3964.66
3964.66
3964.66
3866.55
3866.55
3866.55
3866.55
3866.56
3866.56
3866.56
3866.56
3866.56
3866.56
3866.56
3866.56
3866.57
3866.57
3866.57
3866.57
3866.57
3866.57
3866.57
3866.56
3866.56
3866.56
3866.56
3866.56
3866.56
3866.56
3866.56
3866.56
3866.56
3866.56
3768.45
3768.45
3768.45
3768.45
3768.45
3768.45
3768.45
3768.45
3768.46
3768.46
3768.46
3768.46
3768.46
3768.46
3768.46
3768.46
3768.46
3768.46
3768.46
3768.46
3768.46
3768.46
3768.46
3768.46
3768.45
3768.45
3768.45
3768.45
3768.45
3768.45
3670.34
3670.34
3670.34
3670.34
3670.34
3670.34
3670.35
3670.35
3670.35
3670.35
3670.36
3670.36
3670.36
3670.36
3670.36
3670.36
3670.36
3670.36
3670.36
3670.36
3670.35
3670.35
3670.35
3670.35
3670.35
3670.35
3670.34
3670.34
3670.34
3670.34
3572.23
3572.23
3572.23
3572.23
3572.24
3572.24
3572.24
3572.24
3572.25
3572.25
3572.25
3572.25
3572.26
3572.26
3572.26
3572.26
3572.25
3572.25
3572.25
3572.25
3572.25
3572.25
3572.24
3572.24
3572.24
3572.24
3572.23
3572.23
3572.23
3572.23
3474.12
3474.12
3474.13
3474.13
3474.13
3474.13
3474.14
3474.14
3474.14
3474.15
3474.15
3474.15
3474.15
3474.15
3474.15
3474.15
3474.15
3474.15
3474.15
3474.14
3474.14
3474.14
3474.14
3474.13
3474.13
3474.13
3474.13
3474.12
3474.12
3474.12
3376.02
3376.02
3376.02
3376.02
3376.02
3376.03
3376.03
3376.03
3376.04
3376.04
3376.04
3376.04
3376.05
3376.05
3376.05
3376.05
3376.04
3376.04
3376.04
3376.04
3376.04
3376.03
3376.03
3376.03
3376.02
3376.02
3376.02
3376.02
3376.02
3376.02
3277.91
3277.91
3277.91
3277.92
3277.92
3277.92
3277.92
3277.93
3277.93
3277.93
3277.94
3277.94
3277.94
3277.94
3277.94
3277.94
3277.94
3277.94
3277.94
3277.93
3277.93
3277.93
3277.92
3277.92
3277.92
3277.91
3277.91
3277.91
3277.91
3277.91
3179.8
3179.81
3179.81
3179.81
3179.81
3179.81
3179.82
3179.82
3179.82
3179.83
3179.83
3179.83
3179.83
3179.83
3179.83
3179.83
3179.83
3179.83
3179.83
3179.83
3179.82
3179.82
3179.82
3179.81
3179.81
3179.81
3179.8
3179.8
3179.8
3179.8
3081.7
3081.7
3081.7
3081.7
3081.7
3081.71
3081.71
3081.71
3081.72
3081.72
3081.72
3081.72
3081.73
3081.73
3081.73
3081.73
3081.73
3081.72
3081.72
3081.72
3081.71
3081.71
3081.71
3081.7
3081.7
3081.7
3081.7
3081.69
3081.69
3081.69
2983.59
2983.59
2983.59
2983.59
2983.6
2983.6
2983.6
2983.61
2983.61
2983.61
2983.61
2983.62
2983.62
2983.62
2983.62
2983.62
2983.62
2983.62
2983.61
2983.61
2983.61
2983.6
2983.6
2983.6
2983.59
2983.59
2983.59
2983.58
2983.58
2983.58
2885.48
2885.48
2885.48
2885.48
2885.49
2885.49
2885.49
2885.5
2885.5
2885.5
2885.5
2885.51
2885.51
2885.51
2885.51
2885.51
2885.51
2885.51
2885.5
2885.5
2885.5
2885.49
2885.49
2885.49
2885.48
2885.48
2885.48
2885.47
2885.47
2885.47
2787.37
2787.37
2787.37
2787.37
2787.37
2787.38
2787.38
2787.38
2787.39
2787.39
2787.39
2787.4
2787.4
2787.4
2787.4
2787.4
2787.4
2787.4
2787.4
2787.39
2787.39
2787.39
2787.38
2787.38
2787.37
2787.37
2787.36
2787.36
2787.36
2787.36
2689.25
2689.25
2689.25
2689.26
2689.26
2689.26
2689.27
2689.27
2689.27
2689.28
2689.28
2689.28
2689.29
2689.29
2689.29
2689.29
2689.29
2689.29
2689.29
2689.28
2689.28
2689.27
2689.27
2689.27
2689.26
2689.26
2689.25
2689.25
2689.25
2689.25
2591.14
2591.14
2591.14
2591.14
2591.14
2591.15
2591.15
2591.16
2591.16
2591.17
2591.17
2591.17
2591.18
2591.18
2591.18
2591.18
2591.18
2591.18
2591.17
2591.17
2591.17
2591.16
2591.16
2591.15
2591.15
2591.14
2591.14
2591.14
2591.13
2591.13
2493.02
2493.02
2493.02
2493.02
2493.03
2493.03
2493.04
2493.04
2493.05
2493.05
2493.06
2493.06
2493.06
2493.07
2493.07
2493.07
2493.07
2493.06
2493.06
2493.06
2493.05
2493.05
2493.04
2493.03
2493.03
2493.03
2493.02
2493.02
2493.02
2493.02
2394.9
2394.9
2394.9
2394.9
2394.91
2394.91
2394.92
2394.92
2394.93
2394.94
2394.94
2394.95
2394.95
2394.95
2394.95
2394.95
2394.95
2394.95
2394.95
2394.94
2394.93
2394.93
2394.92
2394.92
2394.91
2394.91
2394.9
2394.9
2394.9
2394.9
2296.78
2296.78
2296.78
2296.78
2296.79
2296.79
2296.8
2296.8
2296.81
2296.82
2296.82
2296.83
2296.83
2296.83
2296.84
2296.84
2296.83
2296.83
2296.83
2296.82
2296.81
2296.81
2296.8
2296.79
2296.79
2296.78
2296.78
2296.78
2296.78
2296.77
2198.65
2198.65
2198.66
2198.66
2198.66
2198.67
2198.68
2198.68
2198.69
2198.7
2198.7
2198.71
2198.71
2198.71
2198.72
2198.71
2198.71
2198.71
2198.7
2198.7
2198.69
2198.68
2198.68
2198.67
2198.67
2198.66
2198.66
2198.65
2198.65
2198.65
2100.53
2100.53
2100.53
2100.53
2100.54
2100.54
2100.55
2100.56
2100.56
2100.57
2100.58
2100.58
2100.59
2100.59
2100.59
2100.59
2100.59
2100.59
2100.58
2100.57
2100.57
2100.56
2100.55
2100.55
2100.54
2100.54
2100.53
2100.53
2100.52
2100.52
2002.4
2002.4
2002.4
2002.41
2002.41
2002.41
2002.42
2002.43
2002.43
2002.44
2002.45
2002.45
2002.46
2002.46
2002.46
2002.46
2002.46
2002.46
2002.45
2002.44
2002.44
2002.43
2002.42
2002.42
2002.41
2002.41
2002.4
2002.4
2002.4
2002.39
1904.27
1904.27
1904.27
1904.27
1904.28
1904.28
1904.29
1904.29
1904.3
1904.31
1904.31
1904.32
1904.32
1904.33
1904.33
1904.33
1904.32
1904.32
1904.32
1904.31
1904.3
1904.3
1904.29
1904.28
1904.28
1904.27
1904.27
1904.27
1904.26
1904.26
1806.13
1806.14
1806.14
1806.14
1806.14
1806.14
1806.15
1806.15
1806.16
1806.16
1806.17
1806.17
1806.18
1806.18
1806.18
1806.18
1806.18
1806.18
1806.17
1806.16
1806.16
1806.15
1806.15
1806.14
1806.14
1806.14
1806.13
1806.13
1806.13
1806.13
1708
1708
1708
1708
1708
1708
1708
1708
1708
1708.01
1708.01
1708.01
1708.02
1708.02
1708.02
1708.02
1708.02
1708.02
1708.01
1708.01
1708
1708
1708
1708
1707.99
1707.99
1707.99
1707.99
1707.99
1707.99
1609.86
1609.86
1609.86
1609.86
1609.85
1609.85
1609.84
1609.84
1609.84
1609.84
1609.84
1609.84
1609.84
1609.84
1609.85
1609.84
1609.84
1609.84
1609.84
1609.84
1609.84
1609.84
1609.84
1609.84
1609.84
1609.85
1609.85
1609.85
1609.86
1609.86
1511.73
1511.73
1511.72
1511.71
1511.7
1511.69
1511.68
1511.67
1511.66
1511.66
1511.65
1511.65
1511.65
1511.65
1511.64
1511.64
1511.64
1511.64
1511.65
1511.65
1511.65
1511.66
1511.67
1511.68
1511.69
1511.7
1511.71
1511.71
1511.72
1511.72
1413.6
1413.59
1413.58
1413.56
1413.55
1413.52
1413.5
1413.48
1413.46
1413.45
1413.44
1413.43
1413.42
1413.42
1413.41
1413.41
1413.41
1413.42
1413.42
1413.43
1413.45
1413.46
1413.48
1413.5
1413.52
1413.54
1413.56
1413.58
1413.59
1413.59
1315.48
1315.47
1315.45
1315.42
1315.39
1315.35
1315.32
1315.28
1315.25
1315.22
1315.19
1315.17
1315.16
1315.15
1315.14
1315.14
1315.15
1315.16
1315.17
1315.19
1315.21
1315.24
1315.27
1315.31
1315.35
1315.38
1315.42
1315.44
1315.46
1315.47
1217.37
1217.36
1217.33
1217.29
1217.23
1217.18
1217.11
1217.05
1217
1216.95
1216.91
1216.87
1216.85
1216.83
1216.82
1216.82
1216.83
1216.85
1216.87
1216.91
1216.95
1217
1217.05
1217.11
1217.17
1217.23
1217.28
1217.32
1217.35
1217.37
1119.3
1119.28
1119.23
1119.16
1119.08
1118.99
1118.9
1118.81
1118.72
1118.64
1118.57
1118.52
1118.48
1118.45
1118.44
1118.44
1118.45
1118.48
1118.52
1118.57
1118.64
1118.72
1118.8
1118.9
1118.99
1119.08
1119.16
1119.23
1119.27
1119.29
1021.27
1021.23
1021.17
1021.07
1020.95
1020.82
1020.68
1020.54
1020.4
1020.28
1020.18
1020.1
1020.03
1019.99
1019.97
1019.97
1019.99
1020.03
1020.09
1020.18
1020.28
1020.4
1020.53
1020.67
1020.81
1020.95
1021.07
1021.16
1021.23
1021.26
923.304
923.255
923.156
923.016
922.843
922.648
922.442
922.237
922.041
921.863
921.71
921.584
921.489
921.425
921.393
921.393
921.425
921.488
921.583
921.708
921.861
922.039
922.234
922.439
922.645
922.839
923.012
923.152
923.25
923.3
825.435
825.365
825.225
825.027
824.781
824.503
824.209
823.913
823.63
823.372
823.148
822.964
822.824
822.73
822.682
822.682
822.73
822.823
822.963
823.147
823.371
823.628
823.911
824.206
824.5
824.778
825.023
825.221
825.361
825.431
727.702
727.604
727.411
727.134
726.792
726.403
725.988
725.57
725.169
724.8
724.478
724.212
724.009
723.872
723.804
723.804
723.872
724.009
724.211
724.477
724.798
725.167
725.568
725.986
726.4
726.789
727.131
727.407
727.601
727.699
630.16
630.026
629.762
629.384
628.914
628.378
627.803
627.221
626.658
626.138
625.682
625.303
625.012
624.816
624.717
624.717
624.816
625.012
625.302
625.68
626.136
626.656
627.219
627.801
628.375
628.911
629.381
629.758
630.023
630.156
532.879
532.7
532.346
531.839
531.206
530.478
529.695
528.894
528.114
527.389
526.748
526.213
525.801
525.522
525.381
525.381
525.522
525.801
526.213
526.747
527.387
528.112
528.892
529.693
530.476
531.203
531.836
532.343
532.697
532.876
435.954
435.719
435.257
434.591
433.753
432.784
431.73
430.644
429.577
428.576
427.683
426.933
426.352
425.956
425.756
425.755
425.956
426.351
426.933
427.683
428.575
429.575
430.643
431.729
432.782
433.751
434.588
435.254
435.716
435.951
339.471
339.171
338.582
337.728
336.643
335.375
333.98
332.524
331.076
329.704
328.468
327.419
326.6
326.039
325.755
325.755
326.039
326.6
327.419
328.467
329.703
331.075
332.523
333.979
335.373
336.641
337.726
338.58
339.168
339.468
243.538
243.167
242.44
241.375
240.004
238.376
236.557
234.628
232.677
230.798
229.084
227.613
226.453
225.654
225.247
225.247
225.654
226.453
227.613
229.083
230.798
232.676
234.627
236.557
238.375
240.002
241.374
242.439
243.165
243.536
148.529
148.101
147.266
146.023
144.393
142.415
140.148
137.677
135.113
132.578
130.208
128.131
126.463
125.298
124.7
124.7
125.298
126.464
128.132
130.208
132.577
135.112
137.677
140.147
142.414
144.393
146.023
147.265
148.1
148.527
57.2695
56.9418
56.3034
55.3389
54.0663
52.4933
50.6483
48.5867
46.4064
44.2141
42.142
40.3133
38.836
37.7975
37.264
37.2641
37.7973
38.8367
40.3143
42.1421
44.213
46.4054
48.5876
50.6487
52.4919
54.0671
55.3397
56.3024
56.9415
57.2684
3.70201
3.59532
3.38757
3.07089
2.66437
2.16328
1.57937
0.926284
0.243939
-0.433887
-1.05051
-1.56668
-1.96191
-2.22816
-2.35881
-2.35891
-2.22818
-1.96208
-1.56702
-1.05086
-0.434234
0.243904
0.926886
1.58021
2.16366
2.6643
3.07082
3.38734
3.59526
3.70284
-5.03505
-5.03382
-5.03283
-5.03117
-5.02896
-5.02612
-5.02257
-5.01821
-5.01321
-5.00705
-5.0004
-4.99386
-4.98827
-4.98427
-4.98201
-4.98201
-4.98425
-4.98819
-4.99373
-5.00023
-5.00683
-5.01296
-5.01792
-5.02226
-5.02581
-5.02869
-5.03094
-5.03259
-5.03358
-5.0348
-5.12994
-5.12922
-5.12797
-5.12625
-5.12407
-5.12146
-5.11854
-5.11455
-5.10908
-5.10233
-5.09456
-5.08706
-5.08092
-5.07661
-5.07403
-5.07403
-5.07657
-5.08083
-5.0869
-5.09432
-5.10205
-5.1088
-5.11424
-5.11822
-5.12114
-5.12383
-5.12602
-5.12774
-5.12901
-5.12956
-5.22387
-5.22331
-5.22216
-5.22042
-5.21816
-5.21561
-5.21296
-5.21009
-5.2071
-5.20411
-5.20008
-5.19542
-5.19057
-5.18658
-5.18411
-5.1841
-5.18655
-5.1905
-5.1953
-5.19993
-5.20392
-5.20686
-5.2098
-5.21266
-5.21532
-5.21792
-5.22018
-5.22198
-5.22319
-5.22349
-5.31964
-5.31909
-5.31805
-5.3165
-5.31448
-5.31206
-5.30933
-5.30646
-5.30385
-5.30207
-5.30063
-5.29916
-5.29772
-5.29633
-5.29525
-5.29525
-5.29633
-5.29769
-5.29908
-5.30053
-5.30189
-5.3036
-5.30618
-5.30903
-5.31176
-5.31422
-5.31624
-5.31785
-5.31903
-5.31942
-5.41656
-5.41611
-5.41522
-5.41392
-5.41225
-5.41027
-5.40807
-5.40572
-5.40333
-5.40118
-5.39949
-5.39837
-5.39774
-5.39771
-5.39781
-5.39781
-5.39771
-5.39772
-5.39829
-5.39934
-5.40098
-5.40307
-5.40543
-5.40776
-5.40997
-5.41198
-5.41368
-5.41502
-5.41598
-5.4164
-5.5144
-5.51404
-5.51332
-5.51229
-5.51095
-5.50936
-5.50762
-5.50582
-5.504
-5.50225
-5.50073
-5.49914
-5.4979
-5.49738
-5.49715
-5.49715
-5.49737
-5.49786
-5.49904
-5.50052
-5.50203
-5.50376
-5.50555
-5.50731
-5.50905
-5.51068
-5.51207
-5.51313
-5.51388
-5.51423
-5.61298
-5.6127
-5.61216
-5.61137
-5.61035
-5.60914
-5.60784
-5.6065
-5.60517
-5.60394
-5.60278
-5.60161
-5.60059
-5.59965
-5.59917
-5.59917
-5.59964
-5.60055
-5.6015
-5.60256
-5.6037
-5.60494
-5.60623
-5.60753
-5.60885
-5.6101
-5.61114
-5.61195
-5.61252
-5.6128
-5.71212
-5.71193
-5.71154
-5.71098
-5.71025
-5.70937
-5.70847
-5.70754
-5.70665
-5.70585
-5.70508
-5.70432
-5.70364
-5.70304
-5.70265
-5.70264
-5.70303
-5.70361
-5.7042
-5.70487
-5.70561
-5.70642
-5.70727
-5.70817
-5.70911
-5.71001
-5.71076
-5.71135
-5.71175
-5.71194
-5.81168
-5.81155
-5.81132
-5.81096
-5.81048
-5.80991
-5.80932
-5.80875
-5.80823
-5.80779
-5.80736
-5.80694
-5.80655
-5.80623
-5.80603
-5.80601
-5.80621
-5.80652
-5.80681
-5.80714
-5.80753
-5.80799
-5.80851
-5.80906
-5.80966
-5.81025
-5.81076
-5.81114
-5.81138
-5.81151
-5.91151
-5.91144
-5.91132
-5.91114
-5.91087
-5.91055
-5.91024
-5.90996
-5.90974
-5.90959
-5.90944
-5.90929
-5.90914
-5.909
-5.9089
-5.9089
-5.90898
-5.90909
-5.90916
-5.90923
-5.90935
-5.90955
-5.90977
-5.91002
-5.91034
-5.91067
-5.91095
-5.91114
-5.91127
-5.91134
-6.01153
-6.01151
-6.01149
-6.01146
-6.01136
-6.01124
-6.01115
-6.01111
-6.01113
-6.01119
-6.01126
-6.01131
-6.01132
-6.0113
-6.01129
-6.01128
-6.0113
-6.01126
-6.01115
-6.01104
-6.01096
-6.01093
-6.01091
-6.01095
-6.01104
-6.01114
-6.01122
-6.01128
-6.01131
-6.01132
-6.11156
-6.11159
-6.11165
-6.11174
-6.11176
-6.11181
-6.1119
-6.11204
-6.11224
-6.11248
-6.11272
-6.11291
-6.11304
-6.11312
-6.11315
-6.11313
-6.11307
-6.11295
-6.11276
-6.11252
-6.11228
-6.11207
-6.1119
-6.11177
-6.11166
-6.11158
-6.11152
-6.11145
-6.11139
-6.11137
-6.21167
-6.21171
-6.21183
-6.21198
-6.21213
-6.2123
-6.21251
-6.21278
-6.21311
-6.21347
-6.21382
-6.2141
-6.21431
-6.21444
-6.21448
-6.21445
-6.21437
-6.21421
-6.21396
-6.21362
-6.21327
-6.21296
-6.21267
-6.2124
-6.21215
-6.21193
-6.21174
-6.21158
-6.21146
-6.21142
-6.31165
-6.31173
-6.31188
-6.31208
-6.31231
-6.31256
-6.31286
-6.31324
-6.31367
-6.31411
-6.31452
-6.31486
-6.31512
-6.31527
-6.31531
-6.31529
-6.31521
-6.31502
-6.31472
-6.31434
-6.31394
-6.31354
-6.31315
-6.31278
-6.31244
-6.31212
-6.31184
-6.31162
-6.31148
-6.31141
-6.41158
-6.41164
-6.41182
-6.41207
-6.41233
-6.41264
-6.413
-6.41342
-6.4139
-6.4144
-6.41485
-6.41521
-6.41548
-6.41566
-6.41575
-6.41574
-6.41563
-6.41542
-6.41512
-6.41472
-6.41427
-6.4138
-6.41334
-6.41292
-6.41252
-6.41214
-6.41182
-6.41155
-6.41137
-6.41127
-6.51136
-6.51144
-6.51163
-6.51188
-6.51218
-6.51252
-6.51291
-6.51336
-6.51387
-6.51436
-6.51481
-6.51519
-6.51549
-6.51567
-6.51575
-6.51574
-6.51563
-6.51543
-6.51512
-6.51471
-6.51424
-6.51375
-6.51327
-6.51281
-6.51238
-6.51199
-6.51163
-6.51133
-6.51111
-6.51101
-6.61094
-6.61106
-6.61124
-6.61148
-6.6118
-6.61215
-6.61254
-6.613
-6.6135
-6.61399
-6.61444
-6.6148
-6.61507
-6.61525
-6.61535
-6.61536
-6.61525
-6.61506
-6.61477
-6.61439
-6.61394
-6.61344
-6.61295
-6.61248
-6.61204
-6.61163
-6.61125
-6.61093
-6.61071
-6.61062
-6.71048
-6.71055
-6.71071
-6.71096
-6.71126
-6.71161
-6.71201
-6.71247
-6.71294
-6.7134
-6.71381
-6.71415
-6.7144
-6.71459
-6.7147
-6.71469
-6.71458
-6.71439
-6.71413
-6.71378
-6.71335
-6.71287
-6.7124
-6.71194
-6.71149
-6.71107
-6.71069
-6.71039
-6.71019
-6.71011
-6.80978
-6.80986
-6.81001
-6.81026
-6.81055
-6.8109
-6.81128
-6.81169
-6.81213
-6.81256
-6.81294
-6.81325
-6.81349
-6.81367
-6.81377
-6.81375
-6.81363
-6.81345
-6.8132
-6.81289
-6.81251
-6.81209
-6.81164
-6.81118
-6.81074
-6.81032
-6.80997
-6.8097
-6.80952
-6.80944
-6.90893
-6.90901
-6.90915
-6.90937
-6.90964
-6.90996
-6.91031
-6.91069
-6.91109
-6.91148
-6.91182
-6.9121
-6.91234
-6.91252
-6.91261
-6.91259
-6.91249
-6.91232
-6.9121
-6.91182
-6.91148
-6.9111
-6.91069
-6.91025
-6.90982
-6.90943
-6.90909
-6.90884
-6.90867
-6.90858
-7.00797
-7.00803
-7.00815
-7.00834
-7.00861
-7.00892
-7.00925
-7.0096
-7.00995
-7.01027
-7.01056
-7.01082
-7.01105
-7.01121
-7.01128
-7.01128
-7.01119
-7.01104
-7.01083
-7.01057
-7.01028
-7.00995
-7.00958
-7.00918
-7.00877
-7.00839
-7.00807
-7.00782
-7.00766
-7.00758
-7.10689
-7.10695
-7.10703
-7.1072
-7.10745
-7.10774
-7.10805
-7.10836
-7.10865
-7.10892
-7.10918
-7.10943
-7.10962
-7.10975
-7.10981
-7.1098
-7.10974
-7.1096
-7.10941
-7.10918
-7.10894
-7.10866
-7.10833
-7.10797
-7.10758
-7.10722
-7.10692
-7.10669
-7.10655
-7.10649
-7.2057
-7.20572
-7.20579
-7.20595
-7.20616
-7.2064
-7.20669
-7.20696
-7.20721
-7.20746
-7.20771
-7.20792
-7.20808
-7.20817
-7.20821
-7.20822
-7.20817
-7.20805
-7.20789
-7.2077
-7.20749
-7.20724
-7.20694
-7.20661
-7.20626
-7.20594
-7.20568
-7.20549
-7.20537
-7.20532
-7.30438
-7.30439
-7.30448
-7.30462
-7.30478
-7.305
-7.30524
-7.30548
-7.3057
-7.30593
-7.30615
-7.30632
-7.30643
-7.3065
-7.30655
-7.30656
-7.30652
-7.30643
-7.3063
-7.30614
-7.30594
-7.30571
-7.30544
-7.30514
-7.30484
-7.30457
-7.30436
-7.3042
-7.30409
-7.30404
-7.40294
-7.40299
-7.40307
-7.40317
-7.40331
-7.40351
-7.40373
-7.40393
-7.40414
-7.40434
-7.4045
-7.40463
-7.40472
-7.40479
-7.40484
-7.40485
-7.40482
-7.40475
-7.40464
-7.4045
-7.40432
-7.4041
-7.40385
-7.40359
-7.40334
-7.40312
-7.40294
-7.40281
-7.40271
-7.40266
-7.50149
-7.50155
-7.50159
-7.50165
-7.50178
-7.50196
-7.50214
-7.50234
-7.50252
-7.50268
-7.5028
-7.5029
-7.50298
-7.50306
-7.5031
-7.5031
-7.50307
-7.503
-7.50291
-7.50279
-7.50262
-7.50243
-7.50221
-7.50199
-7.50178
-7.5016
-7.50145
-7.50134
-7.50126
-7.50122
-7.60001
-7.60001
-7.60003
-7.60009
-7.6002
-7.60035
-7.60051
-7.60068
-7.60083
-7.60095
-7.60104
-7.60113
-7.60121
-7.60128
-7.60131
-7.6013
-7.60126
-7.60121
-7.60113
-7.60102
-7.60087
-7.6007
-7.60051
-7.60034
-7.60018
-7.60004
-7.59992
-7.59982
-7.59975
-7.59972
-7.69839
-7.69838
-7.69842
-7.69848
-7.69857
-7.69868
-7.69882
-7.69896
-7.69907
-7.69916
-7.69924
-7.69933
-7.6994
-7.69945
-7.69947
-7.69947
-7.69944
-7.69939
-7.69931
-7.6992
-7.69907
-7.69892
-7.69878
-7.69866
-7.69854
-7.69844
-7.69835
-7.69827
-7.6982
-7.69817
-7.79672
-7.79676
-7.79679
-7.79685
-7.79692
-7.79701
-7.79712
-7.79722
-7.7973
-7.79737
-7.79745
-7.79752
-7.79758
-7.79762
-7.79764
-7.79764
-7.79761
-7.79756
-7.79748
-7.79737
-7.79724
-7.79713
-7.79703
-7.79695
-7.79687
-7.7968
-7.79673
-7.79666
-7.79661
-7.79658
-7.8951
-7.89512
-7.89515
-7.8952
-7.89526
-7.89533
-7.89539
-7.89545
-7.8955
-7.89557
-7.89563
-7.89569
-7.89574
-7.89578
-7.8958
-7.8958
-7.89577
-7.89571
-7.89562
-7.89551
-7.89541
-7.89532
-7.89526
-7.89521
-7.89516
-7.89511
-7.89506
-7.895
-7.89496
-7.89494
-7.99341
-7.99341
-7.99345
-7.99349
-7.99353
-7.99357
-7.9936
-7.99363
-7.99367
-7.99372
-7.99377
-7.99383
-7.99387
-7.99391
-7.99393
-7.99392
-7.99388
-7.99382
-7.99373
-7.99364
-7.99356
-7.9935
-7.99347
-7.99344
-7.99341
-7.99338
-7.99334
-7.99331
-7.99328
-7.99327
-8.09164
-8.09165
-8.0917
-8.09173
-8.09175
-8.09176
-8.09177
-8.09178
-8.09181
-8.09185
-8.09189
-8.09194
-8.09198
-8.09201
-8.09202
-8.092
-8.09196
-8.0919
-8.09183
-8.09176
-8.09172
-8.09168
-8.09166
-8.09165
-8.09163
-8.09161
-8.09159
-8.09158
-8.09157
-8.09157
-8.18988
-8.18992
-8.18994
-8.18996
-8.18997
-8.18996
-8.18995
-8.18995
-8.18996
-8.18999
-8.19002
-8.19005
-8.19009
-8.1901
-8.1901
-8.19007
-8.19003
-8.18998
-8.18994
-8.1899
-8.18987
-8.18985
-8.18984
-8.18983
-8.18982
-8.18981
-8.18981
-8.18982
-8.18983
-8.18983
-8.28813
-8.28815
-8.28816
-8.28817
-8.28817
-8.28816
-8.28814
-8.28813
-8.28812
-8.28813
-8.28815
-8.28817
-8.28819
-8.2882
-8.28818
-8.28815
-8.28812
-8.28809
-8.28806
-8.28803
-8.28802
-8.288
-8.28799
-8.28798
-8.28798
-8.28799
-8.28801
-8.28803
-8.28804
-8.28805
-8.38631
-8.38631
-8.38631
-8.38632
-8.38632
-8.3863
-8.38628
-8.38627
-8.38626
-8.38626
-8.38627
-8.38628
-8.38629
-8.38628
-8.38627
-8.38624
-8.38622
-8.3862
-8.38618
-8.38616
-8.38615
-8.38613
-8.38612
-8.38612
-8.38613
-8.38615
-8.38617
-8.3862
-8.38622
-8.38622
-8.48443
-8.48443
-8.48444
-8.48444
-8.48443
-8.48441
-8.4844
-8.48439
-8.48439
-8.48439
-8.48439
-8.48439
-8.48438
-8.48437
-8.48435
-8.48433
-8.48432
-8.48431
-8.4843
-8.48428
-8.48427
-8.48425
-8.48425
-8.48425
-8.48426
-8.48429
-8.48432
-8.48434
-8.48436
-8.48437
-8.58254
-8.58256
-8.58256
-8.58254
-8.58252
-8.58251
-8.58251
-8.58251
-8.58251
-8.58251
-8.58251
-8.58249
-8.58248
-8.58246
-8.58245
-8.58244
-8.58243
-8.58242
-8.58241
-8.5824
-8.58239
-8.58238
-8.58238
-8.58238
-8.5824
-8.58242
-8.58244
-8.58246
-8.58248
-8.58248
-8.68067
-8.68068
-8.68066
-8.68064
-8.68062
-8.68062
-8.68062
-8.68063
-8.68063
-8.68063
-8.68062
-8.68061
-8.68059
-8.68058
-8.68056
-8.68056
-8.68055
-8.68055
-8.68054
-8.68053
-8.68052
-8.68051
-8.68051
-8.68051
-8.68052
-8.68054
-8.68055
-8.68056
-8.68057
-8.68057
-8.77878
-8.77877
-8.77874
-8.77872
-8.77871
-8.77871
-8.77872
-8.77873
-8.77874
-8.77874
-8.77874
-8.77873
-8.77872
-8.77871
-8.77871
-8.7787
-8.77869
-8.77868
-8.77867
-8.77866
-8.77865
-8.77864
-8.77864
-8.77864
-8.77865
-8.77865
-8.77865
-8.77865
-8.77865
-8.77865
-8.87685
-8.87683
-8.87681
-8.8768
-8.8768
-8.8768
-8.87681
-8.87683
-8.87684
-8.87686
-8.87686
-8.87687
-8.87688
-8.87688
-8.87687
-8.87687
-8.87686
-8.87685
-8.87683
-8.87682
-8.87681
-8.8768
-8.87679
-8.87678
-8.87677
-8.87677
-8.87676
-8.87675
-8.87675
-8.87674
-8.97494
-8.97492
-8.97492
-8.97492
-8.97492
-8.97493
-8.97495
-8.97496
-8.97498
-8.97501
-8.97503
-8.97505
-8.97506
-8.97507
-8.97508
-8.97507
-8.97506
-8.97505
-8.97503
-8.97501
-8.975
-8.97498
-8.97497
-8.97495
-8.97493
-8.97491
-8.97489
-8.97488
-8.97487
-8.97487
-9.07308
-9.07308
-9.07309
-9.07309
-9.0731
-9.07312
-9.07314
-9.07316
-9.07319
-9.07321
-9.07324
-9.07327
-9.07329
-9.0733
-9.0733
-9.0733
-9.07329
-9.07328
-9.07326
-9.07324
-9.07322
-9.0732
-9.07317
-9.07315
-9.07312
-9.07309
-9.07306
-9.07304
-9.07303
-9.07303
-9.17128
-9.17128
-9.17129
-9.1713
-9.17132
-9.17135
-9.17137
-9.1714
-9.17143
-9.17146
-9.17149
-9.17151
-9.17153
-9.17154
-9.17154
-9.17154
-9.17154
-9.17153
-9.17151
-9.17149
-9.17147
-9.17144
-9.17141
-9.17137
-9.17134
-9.1713
-9.17127
-9.17124
-9.17123
-9.17123
-9.2695
-9.2695
-9.26951
-9.26953
-9.26956
-9.26959
-9.26962
-9.26965
-9.26968
-9.26971
-9.26973
-9.26975
-9.26977
-9.26978
-9.26979
-9.26979
-9.26979
-9.26978
-9.26977
-9.26975
-9.26973
-9.2697
-9.26966
-9.26962
-9.26958
-9.26954
-9.2695
-9.26947
-9.26946
-9.26946
-9.36772
-9.36772
-9.36773
-9.36776
-9.36779
-9.36783
-9.36787
-9.3679
-9.36792
-9.36795
-9.36797
-9.36798
-9.368
-9.36801
-9.36802
-9.36803
-9.36803
-9.36803
-9.36802
-9.368
-9.36798
-9.36795
-9.36791
-9.36787
-9.36782
-9.36778
-9.36775
-9.36772
-9.36771
-9.36771
-9.46596
-9.46595
-9.46597
-9.466
-9.46604
-9.46607
-9.4661
-9.46613
-9.46615
-9.46617
-9.46619
-9.4662
-9.46622
-9.46623
-9.46624
-9.46625
-9.46626
-9.46626
-9.46625
-9.46624
-9.46622
-9.46619
-9.46615
-9.46611
-9.46607
-9.46604
-9.46601
-9.46599
-9.46597
-9.46597
-9.56422
-9.56423
-9.56424
-9.56427
-9.5643
-9.56432
-9.56435
-9.56437
-9.56438
-9.5644
-9.56441
-9.56442
-9.56444
-9.56445
-9.56446
-9.56447
-9.56448
-9.56448
-9.56447
-9.56446
-9.56444
-9.56442
-9.56439
-9.56436
-9.56433
-9.5643
-9.56428
-9.56426
-9.56425
-9.56425
-9.66252
-9.66252
-9.66254
-9.66255
-9.66257
-9.66259
-9.6626
-9.66261
-9.66262
-9.66263
-9.66264
-9.66265
-9.66266
-9.66267
-9.66268
-9.66269
-9.66269
-9.66269
-9.66269
-9.66268
-9.66266
-9.66265
-9.66263
-9.66261
-9.66259
-9.66257
-9.66256
-9.66255
-9.66254
-9.66254
-9.76084
-9.76084
-9.76084
-9.76085
-9.76085
-9.76086
-9.76086
-9.76087
-9.76087
-9.76087
-9.76088
-9.76088
-9.76089
-9.76089
-9.76089
-9.7609
-9.7609
-9.7609
-9.7609
-9.76089
-9.76089
-9.76088
-9.76087
-9.76087
-9.76086
-9.76086
-9.76085
-9.76085
-9.76085
-9.76085
4847.57
4847.57
4847.57
4847.57
4847.57
4847.58
4847.58
4847.58
4847.58
4847.58
4847.58
4847.58
4847.58
4847.58
4847.58
4847.58
4847.58
4847.58
4847.58
4847.58
4847.58
4847.58
4847.58
4847.58
4847.58
4847.58
4847.58
4847.58
4847.58
4847.58
4749.47
4749.47
4749.47
4749.47
4749.47
4749.48
4749.48
4749.48
4749.48
4749.48
4749.48
4749.48
4749.48
4749.48
4749.48
4749.48
4749.48
4749.48
4749.48
4749.48
4749.48
4749.48
4749.48
4749.48
4749.48
4749.48
4749.48
4749.48
4749.48
4749.48
4651.37
4651.37
4651.37
4651.37
4651.37
4651.38
4651.38
4651.38
4651.38
4651.38
4651.38
4651.38
4651.38
4651.38
4651.38
4651.38
4651.38
4651.38
4651.38
4651.38
4651.38
4651.38
4651.38
4651.38
4651.38
4651.38
4651.38
4651.38
4651.38
4651.38
4553.27
4553.27
4553.27
4553.27
4553.27
4553.27
4553.28
4553.28
4553.28
4553.28
4553.28
4553.28
4553.28
4553.28
4553.28
4553.28
4553.28
4553.28
4553.28
4553.28
4553.28
4553.28
4553.28
4553.28
4553.28
4553.28
4553.28
4553.28
4553.28
4553.28
4455.17
4455.17
4455.17
4455.17
4455.17
4455.17
4455.17
4455.18
4455.18
4455.18
4455.18
4455.18
4455.18
4455.18
4455.18
4455.18
4455.18
4455.18
4455.18
4455.18
4455.18
4455.18
4455.18
4455.18
4455.18
4455.18
4455.17
4455.17
4455.17
4455.17
4357.07
4357.07
4357.07
4357.07
4357.07
4357.07
4357.07
4357.07
4357.07
4357.07
4357.07
4357.08
4357.08
4357.08
4357.08
4357.08
4357.08
4357.08
4357.08
4357.08
4357.08
4357.08
4357.08
4357.08
4357.07
4357.07
4357.07
4357.07
4357.07
4357.07
4258.97
4258.97
4258.97
4258.97
4258.97
4258.97
4258.97
4258.97
4258.97
4258.97
4258.97
4258.97
4258.97
4258.97
4258.98
4258.98
4258.98
4258.98
4258.98
4258.98
4258.98
4258.97
4258.97
4258.97
4258.97
4258.97
4258.97
4258.97
4258.97
4258.97
4160.87
4160.87
4160.87
4160.87
4160.87
4160.87
4160.87
4160.87
4160.87
4160.87
4160.87
4160.87
4160.87
4160.87
4160.87
4160.87
4160.87
4160.87
4160.87
4160.87
4160.87
4160.87
4160.87
4160.87
4160.87
4160.87
4160.87
4160.87
4160.87
4160.87
4062.76
4062.76
4062.76
4062.77
4062.77
4062.77
4062.77
4062.77
4062.77
4062.77
4062.77
4062.77
4062.77
4062.77
4062.77
4062.77
4062.77
4062.77
4062.77
4062.77
4062.77
4062.77
4062.77
4062.77
4062.77
4062.77
4062.77
4062.77
4062.77
4062.77
3964.66
3964.66
3964.66
3964.66
3964.66
3964.66
3964.66
3964.66
3964.66
3964.67
3964.67
3964.67
3964.67
3964.67
3964.67
3964.67
3964.67
3964.67
3964.67
3964.67
3964.67
3964.67
3964.67
3964.67
3964.66
3964.66
3964.66
3964.66
3964.66
3964.66
3866.55
3866.55
3866.55
3866.56
3866.56
3866.56
3866.56
3866.56
3866.56
3866.56
3866.56
3866.56
3866.57
3866.57
3866.57
3866.57
3866.57
3866.57
3866.57
3866.56
3866.56
3866.56
3866.56
3866.56
3866.56
3866.56
3866.56
3866.56
3866.56
3866.56
3768.45
3768.45
3768.45
3768.45
3768.45
3768.45
3768.45
3768.46
3768.46
3768.46
3768.46
3768.46
3768.46
3768.46
3768.46
3768.46
3768.46
3768.46
3768.46
3768.46
3768.46
3768.46
3768.46
3768.46
3768.45
3768.45
3768.45
3768.45
3768.45
3768.45
3670.34
3670.34
3670.34
3670.34
3670.34
3670.34
3670.35
3670.35
3670.35
3670.36
3670.36
3670.36
3670.36
3670.36
3670.36
3670.36
3670.36
3670.36
3670.36
3670.36
3670.35
3670.35
3670.35
3670.35
3670.35
3670.35
3670.34
3670.34
3670.34
3670.34
3572.23
3572.23
3572.23
3572.23
3572.24
3572.24
3572.24
3572.24
3572.25
3572.25
3572.25
3572.25
3572.26
3572.26
3572.26
3572.26
3572.25
3572.25
3572.25
3572.25
3572.25
3572.25
3572.24
3572.24
3572.24
3572.24
3572.23
3572.23
3572.23
3572.23
3474.12
3474.12
3474.13
3474.13
3474.13
3474.13
3474.14
3474.14
3474.14
3474.15
3474.15
3474.15
3474.15
3474.15
3474.15
3474.15
3474.15
3474.15
3474.15
3474.14
3474.14
3474.14
3474.14
3474.13
3474.13
3474.13
3474.13
3474.12
3474.12
3474.12
3376.02
3376.02
3376.02
3376.02
3376.02
3376.03
3376.03
3376.03
3376.04
3376.04
3376.04
3376.04
3376.05
3376.05
3376.05
3376.05
3376.05
3376.04
3376.04
3376.04
3376.04
3376.03
3376.03
3376.03
3376.02
3376.02
3376.02
3376.02
3376.02
3376.02
3277.91
3277.91
3277.91
3277.92
3277.92
3277.92
3277.93
3277.93