/*--------------------------------*- C++ -*----------------------------------*\
| =========                 |                                                 |
| \\      /  F ield         | OpenFOAM: The Open Source CFD Toolbox           |
|  \\    /   O peration     | Version:  2312                                  |
|   \\  /    A nd           | Website:  www.openfoam.com                      |
|    \\/     M anipulation  |                                                 |
\*---------------------------------------------------------------------------*/
FoamFile
{
    version     2.0;
    format      ascii;
    arch        "LSB;label=32;scalar=64";
    class       volScalarField;
    location    "0.39227";
    object      p_rgh;
}
// * * * * * * * * * * * * * * * * * * * * * * * * * * * * * * * * * * * * * //

dimensions      [1 -1 -2 0 0 0 0];

internalField   nonuniform List<scalar> 
90000
(
4896.62
4896.62
4896.62
4896.62
4896.62
4896.63
4896.63
4896.63
4896.63
4896.63
4896.63
4896.63
4896.63
4896.63
4896.63
4896.63
4896.63
4896.63
4896.63
4896.63
4896.63
4896.63
4896.63
4896.63
4896.63
4896.63
4896.63
4896.63
4896.63
4896.64
4896.62
4896.62
4896.62
4896.62
4896.63
4896.63
4896.63
4896.63
4896.63
4896.63
4896.63
4896.63
4896.63
4896.63
4896.63
4896.63
4896.63
4896.63
4896.63
4896.63
4896.63
4896.63
4896.63
4896.63
4896.63
4896.63
4896.64
4896.64
4896.64
4896.64
4896.62
4896.62
4896.62
4896.62
4896.63
4896.63
4896.63
4896.63
4896.63
4896.63
4896.63
4896.63
4896.63
4896.63
4896.63
4896.63
4896.63
4896.63
4896.63
4896.63
4896.63
4896.63
4896.63
4896.63
4896.63
4896.63
4896.63
4896.63
4896.63
4896.63
4896.62
4896.62
4896.62
4896.62
4896.63
4896.63
4896.63
4896.63
4896.63
4896.63
4896.63
4896.63
4896.63
4896.63
4896.63
4896.63
4896.63
4896.63
4896.63
4896.63
4896.63
4896.63
4896.63
4896.63
4896.63
4896.63
4896.63
4896.63
4896.63
4896.63
4896.62
4896.62
4896.62
4896.62
4896.62
4896.63
4896.63
4896.63
4896.63
4896.63
4896.63
4896.63
4896.63
4896.63
4896.63
4896.63
4896.63
4896.63
4896.63
4896.63
4896.63
4896.63
4896.63
4896.63
4896.63
4896.63
4896.63
4896.62
4896.62
4896.62
4896.62
4896.62
4896.62
4896.62
4896.62
4896.62
4896.62
4896.62
4896.63
4896.63
4896.63
4896.63
4896.63
4896.63
4896.63
4896.63
4896.63
4896.63
4896.63
4896.63
4896.63
4896.63
4896.63
4896.63
4896.63
4896.62
4896.62
4896.61
4896.61
4896.61
4896.62
4896.62
4896.62
4896.62
4896.62
4896.62
4896.62
4896.62
4896.62
4896.62
4896.63
4896.63
4896.63
4896.63
4896.63
4896.63
4896.63
4896.63
4896.63
4896.63
4896.63
4896.63
4896.63
4896.62
4896.62
4896.61
4896.61
4896.61
4896.6
4896.61
4896.62
4896.62
4896.62
4896.62
4896.62
4896.62
4896.62
4896.62
4896.62
4896.62
4896.62
4896.62
4896.62
4896.63
4896.63
4896.63
4896.63
4896.63
4896.63
4896.63
4896.62
4896.62
4896.62
4896.61
4896.61
4896.61
4896.6
4896.6
4896.6
4896.61
4896.62
4896.62
4896.62
4896.62
4896.62
4896.62
4896.61
4896.62
4896.62
4896.62
4896.62
4896.62
4896.62
4896.62
4896.63
4896.63
4896.63
4896.63
4896.63
4896.62
4896.62
4896.62
4896.61
4896.61
4896.6
4896.6
4896.6
4896.6
4896.6
4896.6
4896.61
4896.62
4896.62
4896.62
4896.62
4896.62
4896.62
4896.61
4896.61
4896.61
4896.61
4896.61
4896.62
4896.62
4896.62
4896.63
4896.63
4896.63
4896.62
4896.62
4896.62
4896.61
4896.6
4896.6
4896.6
4896.6
4896.6
4896.6
4896.6
4896.6
4896.61
4896.62
4896.62
4896.62
4896.62
4896.62
4896.62
4896.61
4896.61
4896.61
4896.61
4896.61
4896.61
4896.61
4896.62
4896.62
4896.62
4896.62
4896.62
4896.62
4896.61
4896.61
4896.6
4896.6
4896.6
4896.6
4896.6
4896.6
4896.6
4896.6
4896.61
4896.62
4896.62
4896.62
4896.62
4896.62
4896.62
4896.61
4896.61
4896.6
4896.6
4896.6
4896.6
4896.61
4896.61
4896.61
4896.61
4896.61
4896.61
4896.61
4896.61
4896.61
4896.61
4896.61
4896.6
4896.6
4896.6
4896.6
4896.6
4896.6
4896.61
4896.62
4896.61
4896.62
4896.61
4896.61
4896.61
4896.6
4896.6
4896.6
4896.6
4896.6
4896.6
4896.6
4896.6
4896.6
4896.6
4896.61
4896.61
4896.61
4896.62
4896.62
4896.62
4896.62
4896.61
4896.61
4896.6
4896.6
4896.6
4896.6
4896.6
4896.6
4896.6
4896.6
4896.6
4896.6
4896.6
4896.59
4896.59
4896.6
4896.6
4896.6
4896.59
4896.59
4896.59
4896.59
4896.6
4896.6
4896.61
4896.62
4896.62
4896.62
4896.62
4896.62
4896.61
4896.61
4896.61
4896.6
4896.6
4896.59
4896.58
4896.57
4896.57
4896.57
4896.57
4896.57
4896.58
4896.58
4896.59
4896.6
4896.6
4896.6
4896.6
4896.59
4896.59
4896.59
4896.59
4896.6
4896.61
4896.61
4896.62
4896.62
4896.62
4896.61
4896.61
4896.6
4896.6
4896.59
4896.58
4896.57
4896.56
4896.53
4896.54
4896.54
4896.54
4896.55
4896.56
4896.58
4896.59
4896.6
4896.6
4896.6
4896.59
4896.59
4896.59
4896.59
4896.59
4896.59
4896.6
4896.6
4896.6
4896.6
4896.6
4896.59
4896.59
4896.59
4896.58
4896.57
4896.56
4896.55
4896.54
4896.5
4896.51
4896.51
4896.52
4896.54
4896.55
4896.57
4896.58
4896.59
4896.59
4896.59
4896.59
4896.58
4896.58
4896.58
4896.58
4896.58
4896.58
4896.58
4896.58
4896.58
4896.57
4896.57
4896.57
4896.56
4896.55
4896.54
4896.54
4896.54
4896.51
4896.48
4896.49
4896.5
4896.51
4896.53
4896.55
4896.56
4896.57
4896.58
4896.58
4896.58
4896.58
4896.58
4896.58
4896.57
4896.57
4896.57
4896.57
4896.56
4896.56
4896.56
4896.56
4896.55
4896.55
4896.54
4896.53
4896.52
4896.52
4896.53
4896.5
4896.48
4896.49
4896.5
4896.51
4896.53
4896.54
4896.55
4896.56
4896.57
4896.57
4896.57
4896.57
4896.57
4896.57
4896.57
4896.57
4896.56
4896.55
4896.55
4896.55
4896.54
4896.54
4896.53
4896.53
4896.52
4896.52
4896.52
4896.52
4896.53
4896.5
4896.48
4896.49
4896.5
4896.52
4896.53
4896.54
4896.55
4896.56
4896.56
4896.56
4896.57
4896.57
4896.57
4896.57
4896.57
4896.56
4896.55
4896.54
4896.54
4896.53
4896.53
4896.52
4896.51
4896.51
4896.51
4896.51
4896.51
4896.51
4896.51
4896.5
4896.49
4896.5
4896.51
4896.52
4896.53
4896.54
4896.55
4896.55
4896.55
4896.56
4896.56
4896.56
4896.56
4896.56
4896.56
4896.55
4896.54
4896.53
4896.53
4896.52
4896.51
4896.51
4896.5
4896.5
4896.5
4896.5
4896.5
4896.5
4896.5
4896.5
4896.5
4896.5
4896.51
4896.52
4896.53
4896.54
4896.54
4896.54
4896.54
4896.55
4896.55
4896.55
4896.55
4896.55
4896.54
4896.54
4896.53
4896.52
4896.52
4896.51
4896.5
4896.5
4896.5
4896.5
4896.5
4896.5
4896.49
4896.49
4896.49
4896.49
4896.5
4896.51
4896.52
4896.52
4896.53
4896.53
4896.53
4896.53
4896.53
4896.53
4896.53
4896.53
4896.54
4896.53
4896.53
4896.53
4896.52
4896.52
4896.51
4896.51
4896.5
4896.5
4896.5
4896.5
4896.5
4896.5
4896.49
4896.48
4896.49
4896.48
4896.5
4896.5
4896.51
4896.51
4896.52
4896.52
4896.51
4896.51
4896.51
4896.51
4896.52
4896.52
4896.52
4896.52
4896.53
4896.52
4896.52
4896.51
4896.51
4896.5
4896.5
4896.51
4896.51
4896.5
4896.5
4896.49
4896.48
4896.48
4896.49
4896.47
4896.49
4896.49
4896.49
4896.49
4896.49
4896.49
4896.49
4896.49
4896.5
4896.5
4896.5
4896.51
4896.51
4896.52
4896.52
4896.51
4896.51
4896.51
4896.5
4896.5
4896.5
4896.5
4896.5
4896.5
4896.49
4896.49
4896.48
4896.49
4896.49
4896.46
4896.47
4896.47
4896.47
4896.47
4896.47
4896.47
4896.47
4896.47
4896.48
4896.48
4896.49
4896.49
4896.5
4896.51
4896.51
4896.5
4896.5
4896.5
4896.5
4896.5
4896.49
4896.49
4896.49
4896.48
4896.48
4896.48
4896.48
4896.49
4896.49
4896.44
4896.44
4896.44
4896.43
4896.43
4896.44
4896.44
4896.44
4896.45
4896.45
4896.46
4896.47
4896.48
4896.49
4896.49
4896.49
4896.49
4896.49
4896.48
4896.48
4896.48
4896.47
4896.46
4896.46
4896.45
4896.45
4896.46
4896.47
4896.47
4896.46
4896.41
4896.4
4896.4
4896.4
4896.4
4896.41
4896.41
4896.42
4896.42
4896.43
4896.44
4896.45
4896.46
4896.46
4896.47
4896.47
4896.46
4896.46
4896.45
4896.45
4896.44
4896.43
4896.42
4896.41
4896.41
4896.41
4896.42
4896.43
4896.43
4896.42
4896.38
4896.37
4896.37
4896.37
4896.37
4896.37
4896.38
4896.38
4896.39
4896.4
4896.41
4896.42
4896.43
4896.43
4896.43
4896.43
4896.43
4896.42
4896.42
4896.4
4896.39
4896.38
4896.37
4896.36
4896.37
4896.38
4896.39
4896.39
4896.39
4896.38
4896.34
4896.34
4896.34
4896.34
4896.34
4896.34
4896.34
4896.35
4896.35
4896.36
4896.37
4896.38
4896.39
4896.39
4896.39
4896.39
4896.39
4896.39
4896.38
4896.37
4896.35
4896.34
4896.33
4896.33
4896.34
4896.35
4896.36
4896.35
4896.35
4896.36
4896.31
4896.31
4896.31
4896.31
4896.31
4896.3
4896.3
4896.3
4896.31
4896.32
4896.33
4896.34
4896.35
4896.35
4896.36
4896.36
4896.36
4896.35
4896.34
4896.33
4896.32
4896.3
4896.3
4896.3
4896.31
4896.32
4896.32
4896.32
4896.33
4896.33
4896.28
4896.28
4896.28
4896.28
4896.27
4896.26
4896.26
4896.25
4896.26
4896.27
4896.28
4896.29
4896.31
4896.31
4896.32
4896.32
4896.32
4896.31
4896.3
4896.29
4896.28
4896.27
4896.26
4896.27
4896.28
4896.27
4896.27
4896.29
4896.3
4896.29
4896.25
4896.26
4896.25
4896.24
4896.23
4896.22
4896.2
4896.2
4896.2
4896.22
4896.23
4896.24
4896.25
4896.26
4896.27
4896.27
4896.27
4896.26
4896.25
4896.24
4896.23
4896.22
4896.22
4896.22
4896.22
4896.22
4896.23
4896.24
4896.24
4896.23
4896.22
4896.23
4896.22
4896.21
4896.18
4896.16
4896.15
4896.14
4896.15
4896.15
4896.16
4896.17
4896.18
4896.19
4896.19
4896.19
4896.19
4896.19
4896.18
4896.17
4896.16
4896.15
4896.16
4896.15
4896.15
4896.16
4896.18
4896.19
4896.18
4896.18
4896.19
4896.2
4896.18
4896.16
4896.13
4896.11
4896.1
4896.09
4896.08
4896.08
4896.08
4896.08
4896.09
4896.09
4896.1
4896.1
4896.1
4896.1
4896.09
4896.08
4896.08
4896.09
4896.09
4896.1
4896.11
4896.13
4896.15
4896.15
4896.15
4896.17
4896.16
4896.16
4896.14
4896.11
4896.09
4896.06
4896.04
4896.02
4895.99
4895.98
4895.97
4895.97
4895.98
4895.98
4895.99
4895.99
4895.99
4895.98
4895.98
4895.99
4896
4896.02
4896.03
4896.05
4896.08
4896.1
4896.12
4896.13
4896.14
4896.16
4896.14
4896.13
4896.11
4896.07
4896.04
4896
4895.96
4895.92
4895.88
4895.85
4895.84
4895.83
4895.83
4895.83
4895.82
4895.82
4895.82
4895.82
4895.84
4895.86
4895.88
4895.91
4895.94
4895.98
4896.01
4896.05
4896.08
4896.1
4896.13
4896.15
4896.13
4896.12
4896.09
4896.04
4895.99
4895.93
4895.86
4895.8
4895.74
4895.7
4895.67
4895.64
4895.62
4895.6
4895.59
4895.59
4895.6
4895.62
4895.65
4895.68
4895.72
4895.76
4895.82
4895.87
4895.92
4895.98
4896.03
4896.07
4896.13
4896.14
4896.15
4896.14
4896.09
4896.03
4895.94
4895.85
4895.75
4895.65
4895.57
4895.5
4895.44
4895.39
4895.34
4895.32
4895.31
4895.31
4895.33
4895.36
4895.4
4895.45
4895.51
4895.58
4895.66
4895.74
4895.84
4895.93
4896
4896.08
4896.14
4896.16
4896.22
4896.21
4896.14
4896.03
4895.91
4895.77
4895.63
4895.49
4895.37
4895.25
4895.15
4895.06
4895
4894.96
4894.95
4894.96
4894.98
4895.02
4895.08
4895.15
4895.25
4895.37
4895.5
4895.63
4895.79
4895.91
4896.03
4896.14
4896.21
4896.23
4896.37
4896.34
4896.23
4896.08
4895.9
4895.7
4895.5
4895.31
4895.11
4894.93
4894.77
4894.65
4894.56
4894.51
4894.48
4894.48
4894.51
4894.56
4894.65
4894.78
4894.94
4895.12
4895.31
4895.52
4895.74
4895.9
4896.09
4896.24
4896.34
4896.37
4896.61
4896.55
4896.4
4896.19
4895.94
4895.67
4895.38
4895.09
4894.8
4894.53
4894.31
4894.13
4894
4893.91
4893.85
4893.85
4893.9
4893.99
4894.13
4894.33
4894.56
4894.81
4895.08
4895.39
4895.67
4895.93
4896.2
4896.4
4896.55
4896.58
4896.98
4896.88
4896.68
4896.4
4896.06
4895.67
4895.26
4894.84
4894.43
4894.06
4893.74
4893.48
4893.28
4893.14
4893.06
4893.07
4893.15
4893.29
4893.5
4893.76
4894.08
4894.43
4894.83
4895.27
4895.65
4896.05
4896.42
4896.69
4896.87
4896.96
4897.53
4897.4
4897.12
4896.75
4896.29
4895.75
4895.17
4894.59
4894.02
4893.5
4893.05
4892.67
4892.38
4892.18
4892.09
4892.1
4892.21
4892.39
4892.67
4893.05
4893.49
4894.01
4894.59
4895.18
4895.72
4896.29
4896.77
4897.15
4897.37
4897.54
4898.34
4898.16
4897.81
4897.31
4896.68
4895.95
4895.15
4894.35
4893.58
4892.85
4892.21
4891.67
4891.26
4890.99
4890.86
4890.86
4890.99
4891.26
4891.67
4892.21
4892.83
4893.57
4894.37
4895.15
4895.92
4896.69
4897.31
4897.82
4898.15
4898.35
4899.51
4899.28
4898.82
4898.16
4897.31
4896.34
4895.28
4894.19
4893.13
4892.13
4891.23
4890.48
4889.9
4889.51
4889.31
4889.31
4889.51
4889.9
4890.48
4891.23
4892.12
4893.13
4894.22
4895.28
4896.34
4897.33
4898.16
4898.8
4899.28
4899.52
4901.12
4900.82
4900.23
4899.38
4898.29
4897.02
4895.63
4894.17
4892.73
4891.35
4890.11
4889.07
4888.25
4887.69
4887.4
4887.4
4887.68
4888.24
4889.06
4890.11
4891.35
4892.72
4894.17
4895.63
4897.02
4898.29
4899.38
4900.23
4900.82
4901.12
4903.27
4902.89
4902.17
4901.1
4899.72
4898.08
4896.24
4894.3
4892.33
4890.43
4888.7
4887.22
4886.05
4885.25
4884.84
4884.84
4885.25
4886.05
4887.22
4888.71
4890.43
4892.33
4894.3
4896.24
4898.07
4899.71
4901.1
4902.16
4902.89
4903.27
4905.91
4905.45
4904.54
4903.18
4901.39
4899.18
4896.63
4893.81
4890.88
4887.97
4885.25
4882.87
4880.96
4879.63
4878.95
4878.95
4879.63
4880.96
4882.87
4885.25
4887.96
4890.88
4893.81
4896.62
4899.18
4901.38
4903.19
4904.53
4905.44
4905.91
4664.48
4652.93
4629.25
4592.33
4541.45
4476.05
4394.96
4300.54
4195.96
4085.46
3975.68
3874.09
3788.59
3726.89
3694.21
3694.25
3726.84
3788.71
3874.28
3975.74
4085.39
4195.8
4300.61
4394.93
4475.74
4541.68
4592.62
4629.15
4653.04
4664.19
881.583
870.524
849.197
816.641
774.864
723.375
663.458
596.497
526.61
457.034
393.602
340.269
299.252
271.581
257.947
257.938
271.58
299.228
340.222
393.551
456.979
526.582
596.529
663.511
723.382
774.83
816.612
849.149
870.498
881.646
0.0184161
0.0189185
0.0194022
0.0210183
0.0231866
0.0260265
0.0295822
0.0339427
0.0389413
0.0451039
0.0517473
0.0582903
0.0638759
0.0695691
0.0754419
0.0754283
0.0695829
0.0639559
0.0584162
0.0519233
0.0453228
0.0391949
0.0342306
0.0298904
0.0263354
0.0234604
0.021251
0.0196504
0.0191391
0.0186847
0.0218414
0.0228358
0.0293525
0.0336448
0.036612
0.0469104
0.0794188
0.0828169
0.075527
0.117658
0.136206
0.203462
0.242902
0.23341
0.1851
0.185054
0.234504
0.244048
0.203944
0.135639
0.116924
0.0753058
0.0835868
0.0801672
0.0474155
0.0366633
0.0337651
0.0296315
0.0230603
0.0222958
0.0245821
0.0252019
0.02647
0.0286049
0.0313109
0.0353882
0.0439468
0.0538468
0.055612
0.152669
0.284522
0.289185
0.294031
0.294254
0.284368
0.285355
0.295361
0.295141
0.290338
0.285709
0.154768
0.0560675
0.0544346
0.0444062
0.0357453
0.0315655
0.0288471
0.0266531
0.0253182
0.0249681
0.0268121
0.0273584
0.0284051
0.0299522
0.03197
0.034394
0.0371168
0.0399957
0.0435178
0.0629272
0.129681
0.187832
0.199329
0.214879
0.197
0.196315
0.215211
0.20003
0.189264
0.131578
0.063983
0.0438748
0.0402756
0.0374238
0.0346864
0.0322342
0.0302142
0.0286046
0.0274246
0.0270345
0.0279926
0.0284423
0.0293285
0.0306337
0.0323045
0.0342854
0.036484
0.0388314
0.041219
0.043369
0.045101
0.0470806
0.0492965
0.052345
0.0529826
0.0527356
0.0522854
0.0493298
0.0471953
0.0452498
0.0435714
0.0414803
0.0391174
0.036787
0.0345835
0.0325726
0.0308709
0.029535
0.0285653
0.028153
0.0282486
0.0286125
0.0293255
0.0303631
0.0317006
0.0332867
0.0350275
0.0368264
0.0386513
0.0403996
0.0419249
0.043507
0.0447564
0.0453257
0.0456308
0.045626
0.04533
0.0447928
0.0436127
0.0421257
0.040624
0.0388902
0.0371025
0.0353367
0.0335969
0.0319749
0.0305844
0.0295198
0.0287705
0.0284156
0.0277736
0.0280502
0.0285881
0.0293755
0.0304012
0.0316135
0.0329114
0.0342493
0.0355775
0.0368152
0.0379717
0.0391368
0.0401609
0.0410979
0.0415809
0.0415825
0.0411147
0.0402044
0.0392498
0.0381894
0.0370511
0.0358071
0.0345246
0.0332185
0.0319014
0.0306545
0.0296063
0.0287976
0.0282308
0.0279536
0.0267251
0.0269236
0.0273111
0.0278659
0.0286012
0.0294765
0.0303805
0.0313134
0.0322039
0.0330036
0.0337712
0.0345263
0.0352127
0.0358119
0.0362
0.036206
0.0358203
0.0352449
0.0346486
0.0339835
0.0332406
0.0324321
0.0315753
0.030676
0.029737
0.0288435
0.0280927
0.0275043
0.0271037
0.0269073
0.0252668
0.0253954
0.025633
0.0259908
0.0264723
0.0270403
0.027629
0.0282039
0.0287196
0.0291596
0.0295895
0.030011
0.0303971
0.0307197
0.0309241
0.0309358
0.0307356
0.0304349
0.0301357
0.0298103
0.0294234
0.028964
0.0284398
0.0278892
0.0272906
0.0267037
0.0261933
0.0258146
0.0255682
0.0254417
0.0235445
0.0236128
0.0237269
0.0239147
0.024177
0.0244958
0.0248076
0.0250936
0.0253054
0.0254585
0.0256077
0.0257592
0.0259141
0.0260542
0.0261458
0.0261532
0.026067
0.0259639
0.0258894
0.0258217
0.0256993
0.0254997
0.0252791
0.0250315
0.0247113
0.0243787
0.0241002
0.0239066
0.0237814
0.0237122
0.0216187
0.0216438
0.0216628
0.0216946
0.0217874
0.0219127
0.021998
0.0220449
0.0220243
0.0219615
0.0218924
0.0218415
0.0218327
0.0218481
0.021864
0.0218673
0.0218544
0.0218943
0.0219989
0.0221121
0.0221895
0.0222243
0.022235
0.0221955
0.0221076
0.0220092
0.0219278
0.0218728
0.0218448
0.021831
0.0196871
0.0196553
0.0196022
0.0195075
0.0194854
0.0194351
0.0193471
0.0192129
0.019008
0.0187675
0.0185324
0.0183417
0.0182103
0.0181305
0.0181027
0.0181218
0.0181831
0.0183032
0.0184943
0.0187322
0.0189719
0.0191769
0.0193456
0.0194783
0.019586
0.0196663
0.0197324
0.019798
0.0198575
0.0198831
0.0176828
0.0176413
0.0175181
0.0173678
0.017217
0.01705
0.0168447
0.0165735
0.0162406
0.0158801
0.0155332
0.0152468
0.0150382
0.014907
0.0148658
0.0148988
0.0149822
0.0151355
0.0153916
0.0157312
0.0160795
0.0163931
0.0166816
0.0169543
0.0172014
0.0174156
0.0176087
0.0177731
0.0178853
0.0179317
0.0158009
0.0157224
0.0155701
0.0153666
0.0151359
0.0148873
0.014586
0.0142131
0.0137847
0.0133421
0.0129344
0.012589
0.01233
0.0121836
0.0121392
0.0121602
0.0122417
0.012427
0.01273
0.0131087
0.013507
0.0139054
0.014296
0.014668
0.0150117
0.0153268
0.0156071
0.0158281
0.0159731
0.016044
0.0139728
0.0139133
0.0137347
0.0134764
0.0132158
0.0129065
0.0125519
0.012132
0.0116485
0.0111509
0.0107041
0.01034
0.0100667
0.00988794
0.00980434
0.00981496
0.00991917
0.0101255
0.0104341
0.0108307
0.0112831
0.0117527
0.0122058
0.0126322
0.013034
0.0134071
0.0137346
0.013996
0.0141801
0.0142776
0.0122884
0.0122141
0.012022
0.0117741
0.0114738
0.0111304
0.0107446
0.0102867
0.00977954
0.00928721
0.00884116
0.00845576
0.00816193
0.00797685
0.00789514
0.00790915
0.00801802
0.00822414
0.00853221
0.00893592
0.0094057
0.00989803
0.010379
0.010836
0.011266
0.0116645
0.0120227
0.012323
0.0125392
0.0126437
0.0108056
0.0106896
0.0105105
0.0102722
0.00994895
0.00960129
0.00920695
0.00874796
0.00824923
0.00775803
0.00731265
0.00694992
0.00668371
0.00649998
0.00639752
0.006394
0.0064966
0.00669342
0.00697899
0.00735601
0.00781192
0.00830852
0.0088023
0.00926855
0.00970529
0.0101182
0.0104997
0.0108187
0.0110354
0.0111263
0.00936718
0.00929941
0.00913822
0.00889286
0.00858839
0.00824045
0.00783507
0.00738339
0.00691264
0.00645166
0.00603755
0.00570437
0.00544994
0.00526074
0.00515409
0.00515738
0.00526749
0.00545908
0.0057243
0.0060738
0.00650292
0.00697662
0.00745352
0.0079135
0.00835684
0.0087809
0.00916247
0.00946346
0.00965572
0.00973614
0.00817174
0.00809395
0.00793762
0.00769483
0.00739777
0.00704893
0.00666694
0.0062575
0.00582252
0.00538892
0.0050069
0.00470139
0.00445927
0.00427749
0.00418409
0.00420148
0.00431664
0.0045009
0.00474522
0.00505783
0.00543779
0.00586452
0.00631303
0.00676714
0.00721344
0.00762949
0.00798467
0.00825353
0.00842811
0.00851367
0.00711853
0.00703821
0.00689522
0.00668406
0.00641094
0.00608836
0.00574155
0.00536332
0.00496042
0.00457206
0.00423398
0.00394739
0.00370554
0.00352733
0.00344241
0.0034592
0.00356163
0.00372883
0.00395265
0.00423336
0.00456844
0.00494923
0.00536445
0.00579902
0.00622911
0.00662397
0.00695612
0.00721005
0.00738228
0.00747224
0.00617707
0.00611804
0.00599873
0.00581003
0.00554275
0.00523329
0.00490202
0.00454953
0.00420135
0.00388335
0.00359424
0.00332663
0.00309782
0.00293892
0.00286578
0.00287468
0.0029587
0.00311167
0.00332368
0.00358085
0.00387389
0.00420295
0.00457092
0.00497029
0.00537679
0.00575667
0.00607988
0.00632775
0.00649225
0.00657061
0.00536325
0.00530074
0.0052164
0.00504849
0.00479658
0.00451361
0.00420323
0.00388804
0.00359901
0.00333294
0.00307149
0.00282471
0.00262784
0.00250244
0.00244431
0.00244651
0.00251463
0.00265149
0.00284294
0.00306668
0.00331332
0.0035923
0.00391669
0.00428326
0.00466601
0.00502665
0.00533067
0.00555713
0.00569942
0.00576023
0.00465389
0.00462511
0.00455788
0.00440187
0.00419166
0.003946
0.00366496
0.00339082
0.00313996
0.00289257
0.00264468
0.00242788
0.00227347
0.00218158
0.00213563
0.00213238
0.00218463
0.00229772
0.00245797
0.00264664
0.0028598
0.00310948
0.00340627
0.00374212
0.00408829
0.00440778
0.00467071
0.0048623
0.00498166
0.00503457
0.0040654
0.00406392
0.00397233
0.00383043
0.00366711
0.00345118
0.00320646
0.00297307
0.00274755
0.00251814
0.00230295
0.00213338
0.00201924
0.00194612
0.00190139
0.00189078
0.00192824
0.00201742
0.00214853
0.00231143
0.00250652
0.00274085
0.00301486
0.00331371
0.00361029
0.00387646
0.00409318
0.00425353
0.00435874
0.00441124
0.00360882
0.00355806
0.00347532
0.00337557
0.00323757
0.00303876
0.00282481
0.0026166
0.00240928
0.00221214
0.00204719
0.00192334
0.00183069
0.00175854
0.00171015
0.00169812
0.00172993
0.00180337
0.00191211
0.00205449
0.00223407
0.00245218
0.00270038
0.00295994
0.00320829
0.00342713
0.00360663
0.00374386
0.00383821
0.00388714
0.00316124
0.0031011
0.00306414
0.00300017
0.00286988
0.00269328
0.00250524
0.00231261
0.00212753
0.00197156
0.00185134
0.00175353
0.00166562
0.00159252
0.00155016
0.00154857
0.0015841
0.00164881
0.00174042
0.0018645
0.00202677
0.00222424
0.00244302
0.00266352
0.00286831
0.00304693
0.00319539
0.00331206
0.0033938
0.00343487
0.00273598
0.00274115
0.00271818
0.00265939
0.00254568
0.0024046
0.00224403
0.00207418
0.00192197
0.00180381
0.00170967
0.00162117
0.00153633
0.00147136
0.00144237
0.001451
0.00148711
0.00154357
0.00162324
0.00173446
0.00188046
0.00205317
0.00223607
0.00241233
0.00257152
0.00271052
0.00282958
0.00292716
0.00299764
0.00303285
0.00246031
0.00246662
0.00243084
0.00236846
0.00227828
0.00216661
0.00203212
0.00189481
0.00177899
0.00168739
0.0016054
0.00152361
0.0014493
0.00139761
0.00137675
0.00138393
0.00141276
0.00146297
0.00153997
0.00164746
0.00178038
0.00192502
0.00206585
0.00219312
0.00230555
0.00240706
0.00250045
0.00258285
0.00264568
0.00267844
0.00222939
0.00219031
0.00215761
0.00209984
0.00202652
0.00193503
0.00183162
0.00173445
0.00165193
0.00157789
0.00150479
0.00143426
0.00137481
0.00133362
0.00131281
0.00131285
0.00133663
0.00138974
0.00147441
0.0015844
0.00170525
0.00182053
0.00191972
0.00200227
0.00207529
0.00214699
0.00222013
0.0022895
0.00234424
0.00237326
0.00195214
0.00192709
0.00190037
0.00184865
0.00178861
0.0017228
0.0016595
0.00160228
0.00154533
0.00148326
0.00141872
0.00135926
0.00131034
0.00127364
0.00125127
0.00124967
0.00127781
0.00134067
0.00143327
0.00154057
0.00164379
0.00172906
0.00179302
0.00184236
0.0018881
0.00193837
0.00199383
0.00204763
0.00208945
0.00211055
0.00173598
0.00174234
0.00170417
0.00165783
0.00161517
0.00158048
0.00155365
0.001525
0.00148449
0.00143183
0.00137509
0.00132252
0.00127793
0.0012434
0.00122425
0.00122948
0.00126654
0.00133461
0.00142245
0.0015126
0.00158929
0.00164512
0.00168269
0.00171111
0.00173981
0.00177351
0.00181055
0.00184485
0.0018697
0.00188107
0.00160861
0.00159613
0.00155262
0.00151866
0.0014957
0.00148563
0.00148146
0.00147007
0.00144341
0.00140319
0.00135661
0.00131068
0.00127072
0.0012425
0.00123334
0.00124959
0.0012923
0.00135463
0.00142377
0.00148637
0.00153411
0.00156609
0.0015873
0.00160448
0.00162215
0.00164098
0.00165859
0.00167205
0.00168004
0.00168342
0.00147246
0.00143485
0.001409
0.00139107
0.00138278
0.00138652
0.00139502
0.00139746
0.00138717
0.00136362
0.00133072
0.00129503
0.00126476
0.00124842
0.00125226
0.00127754
0.00131933
0.0013683
0.00141464
0.0014519
0.00147867
0.00149744
0.00151176
0.00152362
0.00153263
0.00153705
0.0015359
0.00153057
0.00152486
0.00152312
0.00132355
0.0013019
0.00129449
0.00128499
0.00128393
0.00129465
0.0013111
0.00132445
0.00132781
0.00131841
0.00129855
0.00127521
0.00125781
0.00125434
0.00126792
0.00129565
0.0013304
0.00136448
0.00139302
0.00141515
0.00143278
0.00144799
0.00146088
0.00146913
0.00146954
0.00146042
0.00144345
0.00142389
0.00140889
0.00140436
0.0012399
0.00124331
0.00123679
0.00122964
0.00123348
0.00124789
0.00126648
0.00128205
0.00128926
0.00128639
0.00127624
0.00126529
0.00126076
0.00126714
0.00128413
0.00130745
0.00133159
0.00135279
0.00137046
0.00138633
0.00140211
0.0014174
0.00142907
0.00143259
0.0014245
0.00140475
0.00137752
0.00135028
0.00133122
0.00132602
0.00122187
0.00122232
0.00121294
0.00121344
0.00122434
0.00123941
0.00125284
0.00126137
0.00126429
0.00126322
0.00126154
0.00126308
0.00127035
0.00128327
0.00129937
0.00131539
0.00132924
0.00134107
0.00135275
0.0013661
0.00138109
0.00139501
0.00140322
0.00140124
0.001387
0.00136225
0.00133246
0.00130518
0.00128761
0.00128397
0.00120515
0.00119175
0.00119327
0.00120817
0.0012255
0.00123729
0.00124135
0.00123996
0.00123746
0.00123808
0.00124435
0.00125645
0.00127233
0.00128872
0.00130263
0.00131282
0.00132017
0.0013271
0.00133599
0.00134767
0.00136055
0.00137102
0.00137489
0.00136918
0.00135358
0.00133087
0.00130617
0.00128542
0.00127355
0.00127288
0.001175
0.00116727
0.00118704
0.00121197
0.00122947
0.00123494
0.0012305
0.00122209
0.00121626
0.00121749
0.00122681
0.00124202
0.00125909
0.00127416
0.00128519
0.00129247
0.00129808
0.00130458
0.00131345
0.00132431
0.00133497
0.00134235
0.00134385
0.00133838
0.00132688
0.00131205
0.0012975
0.00128668
0.00128192
0.00128379
0.00116915
0.00118237
0.00120979
0.00123228
0.00124333
0.00124236
0.00123307
0.00122116
0.00121204
0.00120892
0.00121215
0.00121974
0.00122878
0.00123704
0.00124385
0.00125005
0.00125715
0.00126623
0.00127723
0.00128884
0.00129906
0.00130608
0.001309
0.00130818
0.00130497
0.00130115
0.00129836
0.00129752
0.00129872
0.0013014
0.00119511
0.00121978
0.001239
0.00125045
0.00125321
0.0012479
0.00123656
0.00122215
0.00120756
0.0011949
0.00118513
0.00117832
0.00117427
0.00117303
0.001175
0.00118066
0.00119003
0.0012024
0.00121633
0.0012301
0.00124232
0.0012524
0.00126064
0.00126795
0.00127533
0.00128328
0.00129153
0.00129901
0.00130431
0.0013063
0.00120787
0.0012253
0.00123041
0.00123079
0.00122689
0.00121825
0.00120466
0.0011866
0.00116526
0.0011424
0.00112008
0.00110045
0.00108549
0.00107672
0.00107492
0.00107987
0.0010904
0.00110468
0.00112075
0.0011371
0.00115305
0.00116876
0.00118497
0.00120237
0.00122107
0.00124023
0.00125807
0.00127227
0.00128056
0.00128171
0.00116549
0.00116944
0.00116473
0.00115741
0.00114721
0.00113322
0.00111472
0.00109163
0.00106477
0.0010359
0.0010075
0.000982369
0.000963018
0.000951135
0.000947263
0.000950782
0.000960232
0.000973855
0.000990164
0.00100834
0.00102834
0.00105061
0.0010756
0.00110325
0.00113257
0.00116155
0.00118743
0.0012072
0.00121831
0.00121953
0.00107111
0.00106905
0.00105994
0.00104592
0.00102733
0.00100477
0.000978981
0.000950792
0.00092127
0.000891864
0.000864365
0.00084066
0.000822357
0.000810429
0.000805061
0.000805775
0.000811736
0.000822178
0.000836704
0.000855374
0.000878551
0.000906535
0.000939126
0.000975288
0.00101301
0.00104944
0.00108128
0.00110531
0.00111902
0.00112126
0.000954378
0.000954606
0.000942237
0.000920573
0.00089238
0.000860759
0.000828361
0.000797013
0.000767804
0.000741364
0.000718146
0.000698517
0.000682756
0.000671028
0.000663405
0.000659997
0.000661016
0.000666972
0.000678564
0.000696527
0.000721341
0.000752901
0.000790259
0.000831525
0.000873964
0.000914286
0.000949069
0.00097524
0.000990539
0.000993954
0.000831735
0.000834775
0.00081816
0.000789901
0.000755153
0.000718666
0.000683961
0.000653016
0.000626453
0.000603985
0.00058489
0.000568384
0.000553897
0.000541237
0.000530693
0.000523045
0.00051947
0.00052138
0.000530131
0.000546708
0.000571426
0.000603714
0.000642036
0.00068399
0.000726558
0.000766447
0.000800484
0.000825988
0.000841088
0.000844979
0.000694496
0.000695834
0.000676109
0.000646107
0.000611617
0.000577276
0.000546102
0.000519421
0.000497212
0.000478605
0.0004624
0.000447486
0.000433173
0.000419396
0.000406786
0.00039658
0.00039041
0.000389986
0.000396747
0.000411528
0.000434338
0.000464255
0.000499491
0.000537587
0.000575698
0.000610927
0.00064064
0.000662713
0.000675725
0.000679079
0.000527783
0.000524869
0.000506201
0.00048091
0.000453562
0.000427404
0.000404228
0.000384522
0.000367849
0.000353285
0.000339799
0.000326581
0.000313274
0.000300108
0.000287906
0.000277956
0.000271784
0.000270858
0.000276287
0.000288566
0.000307445
0.000331917
0.000360331
0.000390602
0.000420453
0.000447675
0.000470343
0.000486959
0.000496548
0.000498678
0.000330174
0.000325142
0.000312215
0.000296232
0.000279761
0.000264419
0.0002509
0.000239177
0.000228801
0.00021916
0.000209692
0.000200046
0.000190198
0.0001805
0.000171649
0.000164593
0.000160369
0.000159901
0.000163816
0.000172304
0.000185053
0.000201279
0.000219819
0.00023929
0.000258239
0.000275306
0.00028934
0.000299462
0.000305094
0.000305897
0.000113509
0.000110748
0.000106144
0.000100854
9.56095e-05
9.08053e-05
8.65395e-05
8.27148e-05
7.91448e-05
7.56324e-05
7.20337e-05
6.8294e-05
6.4473e-05
6.07529e-05
5.74214e-05
5.48356e-05
5.33628e-05
5.33113e-05
5.48687e-05
5.80597e-05
6.27313e-05
6.85709e-05
7.51482e-05
8.19696e-05
8.85274e-05
9.43673e-05
9.91093e-05
0.000102463
0.000104218
0.000104114
4896.62
4896.62
4896.62
4896.62
4896.63
4896.63
4896.63
4896.63
4896.63
4896.63
4896.63
4896.63
4896.63
4896.63
4896.63
4896.63
4896.63
4896.63
4896.63
4896.63
4896.63
4896.63
4896.63
4896.63
4896.63
4896.63
4896.63
4896.64
4896.64
4896.64
4896.62
4896.62
4896.62
4896.62
4896.63
4896.63
4896.63
4896.63
4896.63
4896.63
4896.63
4896.63
4896.63
4896.63
4896.63
4896.63
4896.63
4896.63
4896.63
4896.63
4896.63
4896.63
4896.63
4896.63
4896.63
4896.63
4896.64
4896.64
4896.64
4896.64
4896.62
4896.62
4896.62
4896.62
4896.63
4896.63
4896.63
4896.63
4896.63
4896.63
4896.63
4896.63
4896.63
4896.63
4896.63
4896.63
4896.63
4896.63
4896.63
4896.63
4896.63
4896.63
4896.63
4896.63
4896.63
4896.63
4896.64
4896.64
4896.63
4896.63
4896.62
4896.62
4896.62
4896.62
4896.63
4896.63
4896.63
4896.63
4896.63
4896.63
4896.63
4896.63
4896.63
4896.63
4896.63
4896.63
4896.63
4896.63
4896.63
4896.63
4896.63
4896.63
4896.63
4896.63
4896.63
4896.63
4896.63
4896.63
4896.63
4896.62
4896.62
4896.62
4896.62
4896.62
4896.62
4896.63
4896.63
4896.63
4896.63
4896.63
4896.63
4896.63
4896.63
4896.63
4896.63
4896.63
4896.63
4896.63
4896.63
4896.63
4896.63
4896.63
4896.63
4896.63
4896.63
4896.63
4896.62
4896.62
4896.62
4896.62
4896.62
4896.62
4896.62
4896.62
4896.62
4896.62
4896.62
4896.62
4896.63
4896.63
4896.63
4896.63
4896.63
4896.63
4896.63
4896.63
4896.63
4896.63
4896.63
4896.63
4896.63