/*--------------------------------*- C++ -*----------------------------------*\
| =========                 |                                                 |
| \\      /  F ield         | OpenFOAM: The Open Source CFD Toolbox           |
|  \\    /   O peration     | Version:  2312                                  |
|   \\  /    A nd           | Website:  www.openfoam.com                      |
|    \\/     M anipulation  |                                                 |
\*---------------------------------------------------------------------------*/
FoamFile
{
    version     2.0;
    format      ascii;
    arch        "LSB;label=32;scalar=64";
    class       surfaceScalarField;
    location    "0.39227";
    object      phi;
}
// * * * * * * * * * * * * * * * * * * * * * * * * * * * * * * * * * * * * * //

dimensions      [0 3 -1 0 0 0 0];

oriented        oriented;

internalField   nonuniform List<scalar> 
263100
(
1.3864e-10
-2.77278e-10
1.3864e-10
-1.96652e-10
2.52598e-10
-1.22077e-12
-3.78454e-10
1.25605e-10
-1.45514e-11
-4.80397e-10
6.82312e-11
-3.57062e-11
-5.19805e-10
1.39583e-11
-4.26405e-11
-4.96214e-10
-4.93827e-11
-3.99137e-11
-4.17709e-10
-1.13359e-10
-2.71183e-11
-3.12014e-10
-1.49512e-10
-1.29186e-11
-2.169e-10
-1.42367e-10
-2.72001e-12
-1.55952e-10
-9.63704e-11
-6.44792e-12
-1.32018e-10
-2.717e-11
-2.96017e-11
-1.22134e-10
4.52245e-11
-7.85555e-11
-1.02414e-10
1.00759e-10
-1.34894e-10
-4.69203e-11
1.23505e-10
-1.85448e-10
6.60852e-11
1.0603e-10
-2.1924e-10
2.3014e-10
6.02013e-11
-2.20389e-10
4.01023e-10
1.50889e-11
-1.80444e-10
5.20377e-10
-1.27726e-11
-1.01812e-10
5.50376e-10
-6.66492e-13
-2.75293e-11
4.37002e-10
5.09957e-11
5.93846e-11
1.88667e-10
1.20618e-10
1.18632e-10
-1.76498e-10
2.0961e-10
1.39773e-10
-6.24095e-10
2.91753e-10
1.33504e-10
-1.06146e-09
3.23339e-10
8.60255e-11
-1.37385e-09
2.46848e-10
3.34428e-11
-1.44415e-09
3.83679e-11
-2.29759e-12
-1.24726e-09
-1.9684e-10
-3.42341e-11
-8.05971e-10
-4.82138e-10
8.74557e-12
-1.58364e-10
-7.47219e-10
7.10646e-11
-8.24025e-10
6.41203e-10
-6.6057e-11
-2.36034e-10
-6.6057e-11
-1.26038e-10
2.323e-10
-4.80207e-11
-1.46007e-10
6.78624e-11
-3.92706e-11
-1.65013e-10
-4.23014e-12
-2.23287e-11
-1.76333e-10
-8.22292e-11
-1.90558e-12
-1.79798e-10
-1.61126e-10
1.22112e-11
-1.72173e-10
-2.33468e-10
1.81999e-11
-1.55802e-10
-2.63084e-10
1.39685e-11
-1.32928e-10
-2.35152e-10
-2.23105e-13
-9.99383e-11
-1.66307e-10
-1.86553e-11
-5.2193e-11
-7.76321e-11
-3.7863e-11
1.09136e-11
8.47793e-12
-5.25154e-11
8.46118e-11
6.83194e-11
-5.47632e-11
1.57185e-10
9.30177e-11
-4.56693e-11
2.17699e-10
7.73741e-11
-2.89704e-11
2.38472e-10
4.85621e-11
-3.54953e-12
2.17366e-10
2.96706e-11
1.1105e-11
1.61566e-10
4.82296e-11
-4.99052e-12
7.49535e-11
1.0973e-10
-3.06611e-11
-4.20726e-11
2.15149e-10
-6.29368e-11
-1.53995e-10
3.12377e-10
-1.05402e-10
-2.58674e-10
3.92431e-10
-1.13139e-10
-3.12956e-10
4.0505e-10
-1.02022e-10
-2.94174e-10
3.15922e-10
-6.00935e-11
-2.17363e-10
9.94401e-11
1.89903e-11
-9.59685e-11
-2.49025e-10
1.14559e-10
1.09703e-10
-6.63868e-10
2.12974e-10
2.6679e-10
-9.5139e-10
2.69432e-10
1.49704e-10
-1.00302e-09
3.38454e-10
-1.07028e-09
3.83263e-10
-3.42163e-11
-2.31739e-10
-3.42163e-11
9.34733e-11
1.69652e-11
8.8934e-12
1.74173e-10
-1.10229e-10
2.67619e-11
2.05761e-10
-1.53333e-10
5.00632e-11
1.91451e-10
-1.9935e-10
6.7497e-11
1.43881e-10
-2.44316e-10
7.1151e-11
7.53303e-11
-2.76288e-10
5.70613e-11
1.25936e-11
-2.79871e-10
3.15275e-11
-1.70853e-11
-2.50935e-10
4.61013e-12
2.85201e-12
-1.98946e-10
-2.0555e-11
6.99747e-11
-1.42161e-10
-2.83873e-11
1.66179e-10
-8.82722e-11
-1.85008e-11
2.5478e-10
-4.34041e-11
9.56274e-12
2.91422e-10
-6.89092e-12
5.36376e-11
2.47338e-10
2.16787e-11
9.24558e-11
1.21028e-10
6.55846e-11
1.02755e-10
-5.95268e-11
1.23463e-10
7.97788e-11
-2.54276e-10
2.0604e-10
2.861e-11
-4.05138e-10
2.98006e-10
-4.76366e-11
-4.49837e-10
3.79781e-10
-1.32226e-10
-3.69854e-10
4.14684e-10
-1.96462e-10
-1.61016e-10
3.93266e-10
-2.25291e-10
1.49959e-10
2.89059e-10
-2.11558e-10
4.95649e-10
8.92835e-11
-1.36151e-10
7.97445e-10
-1.66131e-10
-5.35727e-11
9.72128e-10
-5.08192e-10
6.69078e-11
9.49516e-10
-8.24838e-10
1.65203e-10
8.01599e-10
-9.87085e-10
1.62565e-10
3.30511e-10
-6.35334e-10
7.7197e-11
-5.56097e-10
-1.95145e-10
3.5873e-11
-3.41968e-10
3.5873e-11
2.74033e-10
-3.42142e-10
8.96032e-11
4.19078e-10
-3.94616e-10
1.13166e-10
4.93186e-10
-3.86116e-10
1.35374e-10
4.8795e-10
-3.62028e-10
1.4679e-10
4.20036e-10
-3.33505e-10
1.37593e-10
3.16758e-10
-3.02944e-10
1.11562e-10
2.13567e-10
-2.70469e-10
7.61355e-11
1.45879e-10
-2.43653e-10
4.29818e-11
1.32234e-10
-2.25332e-10
2.22262e-11
1.67193e-10
-2.11159e-10
1.50879e-11
2.24772e-10
-1.96708e-10
3.0034e-11
2.55056e-10
-1.61878e-10
6.50084e-11
2.2004e-10
-9.74056e-11
9.99755e-11
1.09017e-10
-5.51798e-12
1.10883e-10
-7.16402e-11
1.17792e-10
1.00508e-10
-2.91826e-10
2.53881e-10
6.28209e-11
-4.83694e-10
3.69635e-10
4.13604e-12
-5.82906e-10
4.41562e-10
-6.38761e-11
-5.37673e-10
4.37928e-10
-1.16809e-10
-3.31663e-10
3.62894e-10
-1.60699e-10
3.21865e-11
2.04132e-10
-1.74332e-10
4.59448e-10
2.16814e-11
-1.53819e-10
8.61722e-10
-1.90063e-10
-1.13373e-10
1.14946e-09
-3.72737e-10
-7.09562e-11
1.18734e-09
-5.05662e-10
-3.24628e-11
9.43943e-10
-5.56686e-10
-2.11348e-11
5.75031e-10
-5.62801e-10
-5.79357e-11
1.56459e-10
-1.01506e-10
-1.2988e-10
-2.05087e-11
-3.9412e-10
1.18996e-10
-5.89446e-10
1.18996e-10
4.20465e-10
-8.16288e-10
1.80994e-10
6.01092e-10
-7.68418e-10
2.03952e-10
6.98359e-10
-6.85618e-10
2.14605e-10
7.15137e-10
-5.705e-10
2.03969e-10
6.61921e-10
-4.479e-10
1.78e-10
5.61019e-10
-3.38927e-10
1.4363e-10
4.45138e-10
-2.60298e-10
1.07085e-10
3.44757e-10
-2.26841e-10
7.79081e-11
2.71334e-10
-2.28433e-10
6.2305e-11
2.18877e-10
-2.44623e-10
6.1978e-11
1.64431e-10
-2.48683e-10
7.22904e-11
9.3105e-11
-2.13739e-10
7.94486e-11
-5.91451e-12
-1.28016e-10
7.80453e-11
-1.43335e-10
1.31003e-11
6.22983e-11
-2.95093e-10
1.75405e-10
3.64932e-11
-4.28975e-10
3.2754e-10
5.67436e-12
-5.04217e-10
4.14005e-10
-1.63424e-11
-4.88778e-10
4.15548e-10
-2.56876e-11
-3.50689e-10
3.05981e-10
-2.90472e-11
-1.03936e-10
1.35575e-10
-2.82981e-11
2.06795e-10
-7.69306e-11
-2.58669e-11
5.36276e-10
-2.86294e-10
-8.46341e-12
7.87483e-10
-4.13495e-10
-1.04982e-11
8.94364e-10
-4.14885e-10
-4.9027e-11
8.01831e-10
-2.92365e-10
-1.12229e-10
5.02129e-10
-6.65425e-11
-1.93026e-10
8.60386e-11
1.19199e-10
-2.80245e-10
-1.87067e-10
5.10809e-10
-3.67476e-10
3.08354e-10
-5.49129e-10
1.94008e-10
-9.64665e-10
1.94008e-10
4.85051e-10
-1.32583e-09
2.42976e-10
6.72506e-10
-1.17713e-09
2.465e-10
7.95159e-10
-1.0112e-09
2.27698e-10
8.51724e-10
-8.01197e-10
1.96245e-10
8.4526e-10
-5.7958e-10
1.5523e-10
7.90875e-10
-3.92361e-10
1.17463e-10
6.97432e-10
-2.60613e-10
9.35474e-11
5.71968e-10
-1.97121e-10
8.33663e-11
4.20255e-10
-1.84286e-10
8.10986e-11
2.45525e-10
-1.91905e-10
8.03438e-11
5.70105e-11
-1.93208e-10
7.62747e-11
-1.2365e-10
-1.66615e-10
6.3378e-11
-2.82271e-10
-8.65516e-11
3.68226e-11
-3.96155e-10
2.86757e-11
1.2409e-11
-4.54818e-10
1.48622e-10
-5.45754e-13
-4.42851e-10
2.28038e-10
7.18055e-12
-3.65792e-10
2.33091e-10
3.4377e-11
-2.35362e-10
1.66219e-10
6.42512e-11
-6.43779e-11
-9.91654e-12
1.07008e-10
1.11479e-10
-2.15643e-10
1.53593e-10
2.5464e-10
-4.22699e-10
1.9376e-10
3.33059e-10
-5.44338e-10
1.78309e-10
3.14273e-10
-5.09168e-10
1.14082e-10
2.17179e-10
-3.18488e-10
-5.30654e-12
3.99349e-11
-7.36094e-12
-1.24821e-10
-1.62171e-10
3.62591e-10
-2.58572e-10
-3.58397e-10
6.60937e-10
-3.90978e-10
-3.81078e-10
9.39771e-10
-4.63426e-10
3.53288e-10
-4.81522e-10
2.08172e-10
-1.36198e-09
2.08172e-10
4.50653e-10
-1.78015e-09
2.20378e-10
6.41152e-10
-1.5485e-09
1.90221e-10
8.00713e-10
-1.30994e-09
1.46047e-10
9.25433e-10
-1.02248e-09
9.9077e-11
1.00947e-09
-7.32775e-10
6.53578e-11
1.03638e-09
-4.80626e-10
4.91169e-11
9.86028e-10
-2.86314e-10
5.31692e-11
8.45658e-10
-1.6559e-10
7.32222e-11
6.17678e-10
-1.0151e-10
9.52955e-11
3.25468e-10
-7.00703e-11
1.0569e-10
1.24179e-11
-5.59378e-11
9.71805e-11
-2.713e-10
-4.52911e-11
7.2397e-11
-4.66466e-10
-3.53033e-11
4.64081e-11
-5.47853e-10
-2.59137e-11
3.59359e-11
-5.19192e-10
-2.68358e-11
4.96665e-11
-4.03834e-10
-5.90949e-11
8.27362e-11
-2.33779e-10
-1.48535e-10
1.34727e-10
-4.91019e-11
-2.84274e-10
2.03411e-10
7.42721e-11
-4.58331e-10
2.76884e-10
1.14785e-10
-6.37071e-10
3.44334e-10
6.33569e-11
-7.48372e-10
3.47383e-10
-8.62512e-11
-7.19477e-10
2.96041e-10
-2.96704e-10
-5.33523e-10
2.01336e-10
-5.1828e-10
-2.10185e-10
7.05682e-11
-6.78809e-10
1.6716e-10
-6.80789e-11
-7.22663e-10
5.30237e-10
-1.88912e-10
-6.44084e-10
7.49417e-10
-2.39933e-10
-4.15926e-10
8.77399e-10
-2.41285e-10
9.75665e-11
-2.20892e-10
1.29029e-10
-1.61486e-09
1.29029e-10
3.55707e-10
-2.14812e-09
1.05235e-10
5.63847e-10
-1.84804e-09
5.82458e-11
7.79362e-10
-1.57859e-09
1.66685e-11
9.94523e-10
-1.2664e-09
-1.17224e-11
1.18197e-09
-9.48842e-10
-1.65161e-11
1.29789e-09
-6.53081e-10
5.82893e-12
1.29938e-09
-3.93559e-10
4.84102e-11
1.16154e-09
-1.86303e-10
9.36252e-11
8.84263e-10
-3.58611e-11
1.38687e-10
5.09714e-10
5.87196e-11
1.65375e-10
1.08603e-10
8.93709e-11
1.69559e-10
-2.35621e-10
5.33618e-11
1.56145e-10
-4.76096e-10
-3.25209e-11
1.4842e-10
-5.78438e-10
-1.63678e-10
1.54592e-10
-5.4581e-10
-3.14886e-10
1.76958e-10
-4.15449e-10
-4.82785e-10
2.24209e-10
-2.5908e-10
-6.50843e-10
2.86854e-10
-1.45048e-10
-8.12893e-10
3.6427e-10
-1.09695e-10
-9.56759e-10
4.18365e-10
-1.78443e-10
-1.03785e-09
4.26004e-10
-3.58186e-10
-1.01062e-09
3.94992e-10
-6.02107e-10
-8.60391e-10
3.30593e-10
-8.48109e-10
-5.9582e-10
2.44959e-10
-1.0209e-09
-2.59402e-10
1.50203e-10
-1.06945e-09
6.43168e-11
7.43509e-11
-9.5896e-10
3.03361e-10
3.93063e-11
-7.08351e-10
3.95182e-10
3.23804e-11
-3.16747e-10
3.78548e-10
4.69577e-11
-3.64121e-10
1.09671e-10
2.50685e-11
-1.69006e-09
2.50685e-11
2.6765e-10
-2.47863e-09
-5.75778e-12
5.08056e-10
-2.13804e-09
-3.73864e-11
7.90631e-10
-1.89457e-09
-5.57666e-11
1.08897e-09
-1.60464e-09
-5.05793e-11
1.36012e-09
-1.28937e-09
-2.12857e-11
1.54254e-09
-9.55653e-10
3.01539e-11
1.58281e-09
-6.19433e-10
9.69345e-11
1.4542e-09
-3.13705e-10
1.69494e-10
1.17323e-09
-6.51626e-11
2.27049e-10
7.87584e-10
1.04477e-10
2.61622e-10
3.7084e-10
1.50403e-10
2.84335e-10
-5.5114e-12
6.7667e-11
2.99471e-10
-2.90685e-10
-1.18729e-10
3.19064e-10
-4.79099e-10
-3.60019e-10
3.43213e-10
-5.66548e-10
-6.24041e-10
3.6505e-10
-5.90218e-10
-8.79729e-10
3.9658e-10
-5.93013e-10
-1.09266e-09
4.23994e-10
-6.10615e-10
-1.2482e-09
4.30447e-10
-6.67598e-10
-1.33458e-09
4.05022e-10
-7.75991e-10
-1.33604e-09
3.65043e-10
-9.2109e-10
-1.2363e-09
3.15348e-10
-1.06736e-09
-1.05305e-09
2.70617e-10
-1.17509e-09
-8.13002e-10
2.48114e-10
-1.20435e-09
-5.56465e-10
2.48225e-10
-1.1241e-09
-3.43788e-10
2.57068e-10
-9.14819e-10
-2.26734e-10
2.65509e-10
-5.99569e-10
-2.38036e-10
2.83608e-10
-2.03232e-10
-3.45188e-10
3.14946e-10
-9.2701e-10
3.7012e-10
-1.74423e-11
-1.71601e-09
-1.74423e-11
2.60052e-10
-2.87052e-09
-2.72384e-11
5.35075e-10
-2.51092e-09
-3.2751e-11
8.60136e-10
-2.33029e-09
-1.92784e-11
1.19165e-09
-2.08354e-09
2.02868e-11
1.47808e-09
-1.77587e-09
7.84055e-11
1.66142e-09
-1.40032e-09
1.47595e-10
1.70474e-09
-9.82088e-10
2.1598e-10
1.60011e-09
-5.72937e-10
2.73473e-10
1.37929e-09
-2.31334e-10
3.1219e-10
1.06679e-09
1.69873e-11
3.43121e-10
7.12287e-10
9.72145e-11
3.70376e-10
3.49347e-10
9.07876e-12
4.04035e-10
2.16817e-12
-2.06759e-10
4.36025e-10
-3.28093e-10
-4.73656e-10
4.59339e-10
-6.32392e-10
-7.64935e-10
4.69395e-10
-9.07717e-10
-1.03896e-09
4.59866e-10
-1.13088e-09
-1.25852e-09
4.06968e-10
-1.29317e-09
-1.41784e-09
3.34627e-10
-1.40242e-09
-1.49695e-09
2.53508e-10
-1.44724e-09
-1.53108e-09
1.99108e-10
-1.4419e-09
-1.48309e-09
1.80822e-10
-1.39749e-09
-1.36433e-09
1.93717e-10
-1.31565e-09
-1.20425e-09
2.34521e-10
-1.18008e-09
-1.04395e-09
2.87475e-10
-9.79165e-10
-9.30055e-10
3.42238e-10
-7.07985e-10
-9.07381e-10
3.94559e-10
-3.94028e-10
-9.76188e-10
4.38145e-10
-8.17172e-11
-1.08809e-09
4.67155e-10
-1.45785e-09
4.92642e-10
6.74785e-11
-1.93867e-09
6.74785e-11
3.76885e-10
-3.42391e-09
8.4808e-11
6.5265e-10
-3.04381e-09
1.12113e-10
9.47478e-10
-2.91367e-09
1.47463e-10
1.21184e-09
-2.68956e-09
2.06914e-10
1.41015e-09
-2.36939e-09
2.69931e-10
1.52146e-09
-1.94636e-09
3.22308e-10
1.55092e-09
-1.45285e-09
3.45405e-10
1.51273e-09
-9.51707e-10
3.41368e-10
1.41287e-09
-5.12532e-10
3.29269e-10
1.25887e-09
-2.05847e-10
3.51268e-10
1.02764e-09
-4.62591e-11
3.76024e-10
7.09551e-10
-5.59659e-11
4.09426e-10
2.95542e-10
-1.81803e-10
4.35459e-10
-1.95673e-10
-3.62172e-10
4.38381e-10
-7.24958e-10
-5.83254e-10
4.08212e-10
-1.23436e-09
-8.19543e-10
3.41239e-10
-1.65366e-09
-1.05955e-09
2.51736e-10
-1.91904e-09
-1.29404e-09
1.45632e-10
-2.01903e-09
-1.5113e-09
8.8298e-11
-1.98315e-09
-1.69069e-09
7.05425e-11
-1.8467e-09
-1.78739e-09
9.60491e-11
-1.64225e-09
-1.79768e-09
1.51151e-10
-1.39498e-09
-1.74361e-09
2.2258e-10
-1.11882e-09
-1.66622e-09
2.9748e-10
-8.17523e-10
-1.61824e-09
3.6699e-10
-5.07401e-10
-1.6316e-09
4.23818e-10
-2.1876e-10
-1.69872e-09
4.66623e-10
1.36322e-11
-1.7713e-09
4.94117e-10
-1.94435e-09
5.3016e-10
3.30609e-10
-2.69352e-09
3.30609e-10
5.71011e-10
-4.16329e-09
3.61793e-10
7.72949e-10
-3.79081e-09
4.22265e-10
9.36943e-10
-3.65202e-09
4.57114e-10
1.03824e-09
-3.41079e-09
5.09588e-10
1.09207e-09
-3.03631e-09
5.12127e-10
1.12773e-09
-2.5431e-09
4.72766e-10
1.17214e-09
-1.97755e-09
4.08688e-10
1.23835e-09
-1.41145e-09
3.42872e-10
1.31734e-09
-9.16275e-10
2.98663e-10
1.35116e-09
-5.25281e-10
2.86074e-10
1.262e-09
-2.51969e-10
3.21282e-10
9.96832e-10
-8.13647e-11
3.38957e-10
5.37425e-10
-1.04084e-11
3.50804e-10
-6.9172e-11
-2.27669e-11
3.33775e-10
-7.4894e-10
-1.20884e-10
2.75431e-10
-1.40424e-09
-3.22338e-10
1.95788e-10
-1.92225e-09
-6.41479e-10
1.08376e-10
-2.23414e-09
-1.04985e-09
4.29558e-11
-2.35173e-09
-1.48262e-09
3.31609e-11
-2.29289e-09
-1.88436e-09
5.61047e-11
-2.10266e-09
-2.17685e-09
1.09898e-10
-1.83154e-09
-2.3354e-09
1.80564e-10
-1.51165e-09
-2.38583e-09
2.5168e-10
-1.15706e-09
-2.38515e-09
3.16177e-10
-7.8416e-10
-2.39101e-09
3.74315e-10
-4.25787e-10
-2.42798e-09
4.28189e-10
-1.29909e-10
-2.48002e-09
4.79674e-10
7.04624e-11
-2.51207e-09
5.26121e-10
-2.51021e-09
5.99808e-10
7.01734e-10
-4.17179e-09
7.01734e-10
7.25404e-10
-4.98011e-09
7.09182e-10
8.01781e-10
-4.67949e-09
7.3916e-10
8.04229e-10
-4.44755e-09
7.23917e-10
7.51774e-10
-4.11129e-09
6.8715e-10
6.90455e-10
-3.64754e-09
6.11181e-10
6.83697e-10
-3.09904e-09
5.0835e-10
7.84306e-10
-2.51825e-09
3.96581e-10
9.89719e-10
-1.95151e-09
3.06074e-10
1.24503e-09
-1.44802e-09
2.66152e-10
1.43125e-09
-9.66374e-10
2.64232e-10
1.44203e-09
-5.13635e-10
2.78189e-10
1.2046e-09
-1.07856e-10
3.03883e-10
7.2766e-10
2.2771e-10
2.82767e-10
7.69939e-11
4.28152e-10
2.36858e-10
-6.42892e-10
4.29345e-10
1.8899e-10
-1.32352e-09
2.08287e-10
1.43032e-10
-1.83426e-09
-2.73022e-10
1.04945e-10
-2.17685e-09
-8.74753e-10
1.01329e-10
-2.34118e-09
-1.54122e-09
1.34863e-10
-2.35617e-09
-2.15593e-09
1.87207e-10
-2.25266e-09
-2.62415e-09
2.44664e-10
-2.05047e-09
-2.92628e-09
2.98945e-10
-1.75144e-09
-3.10672e-09
3.45485e-10
-1.3647e-09
-3.22667e-09
3.89154e-10
-9.30454e-10
-3.32854e-09
4.39978e-10
-5.13292e-10
-3.41874e-09
5.01301e-10
-1.80272e-10
-3.47036e-09
5.66162e-10
4.0161e-11
-3.47081e-09
6.23768e-10
-3.28349e-09
6.88915e-10
9.92536e-10
-6.1955e-09
9.92536e-10
8.10692e-10
-5.70152e-09
8.80068e-10
7.65863e-10
-5.49072e-09
8.37122e-10
6.80907e-10
-5.16185e-09
7.79504e-10
5.62465e-10
-4.7101e-09
6.94343e-10
4.84184e-10
-4.18298e-09
5.87654e-10
5.20634e-10
-3.63741e-09
4.7472e-10
7.16568e-10
-3.10949e-09
3.70513e-10
1.03736e-09
-2.60957e-09
3.18745e-10
1.3703e-09
-2.10016e-09
3.0983e-10
1.58742e-09
-1.50777e-09
3.24736e-10
1.59012e-09
-8.44893e-10
3.36453e-10
1.34772e-09
-1.83073e-10
3.27426e-10
8.80038e-10
3.98751e-10
3.00623e-10
2.68822e-10
7.50509e-10
2.78891e-10
-3.74635e-10
7.98668e-10
2.43951e-10
-9.75373e-10
5.20223e-10
2.35926e-10
-1.47971e-09
-1.10315e-10
2.68273e-10
-1.88056e-09
-8.87617e-10
3.26277e-10
-2.17241e-09
-1.73616e-09
3.94069e-10
-2.36221e-09
-2.50763e-09
4.51841e-10
-2.44243e-09
-3.12784e-09
5.02125e-10
-2.37999e-09
-3.59028e-09
5.26732e-10
-2.14022e-09
-3.94771e-09
5.26089e-10
-1.75245e-09
-4.24481e-09
5.43213e-10
-1.29028e-09
-4.49229e-09
5.90027e-10
-8.44336e-10
-4.6652e-09
6.56321e-10
-4.74437e-10
-4.73561e-09
7.18185e-10
-1.83365e-10
-4.70507e-09
7.4168e-10
-4.35184e-09
7.02351e-10
1.02681e-09
-8.25058e-09
1.02681e-09
7.94015e-10
-6.28808e-09
8.35926e-10
7.68484e-10
-6.21063e-09
7.59272e-10
7.46158e-10
-5.80683e-09
6.74642e-10
7.26978e-10
-5.28223e-09
5.89675e-10
7.75651e-10
-4.75459e-09
5.1252e-10
9.3498e-10
-4.27328e-09
4.59644e-10
1.21761e-09
-3.84533e-09
4.33381e-10
1.53716e-09
-3.40011e-09
4.51697e-10
1.79121e-09
-2.83793e-09
4.67022e-10
1.88356e-09
-2.10267e-09
4.88162e-10
1.76029e-09
-1.22034e-09
4.83715e-10
1.44115e-09
-3.29252e-10
4.44932e-10
9.93499e-10
4.22182e-10
3.93432e-10
4.66775e-10
8.51332e-10
3.81479e-10
-6.83552e-11
8.88307e-10
3.87676e-10
-5.97922e-10
5.41202e-10
4.41547e-10
-1.11839e-09
-1.81545e-10
5.22715e-10
-1.62076e-09
-1.05626e-09
6.08175e-10
-2.09467e-09
-1.98562e-09
6.72652e-10
-2.50533e-09
-2.83658e-09
7.01815e-10
-2.77576e-09
-3.58282e-09
6.94514e-10
-2.83266e-09
-4.24097e-09
6.71056e-10
-2.65788e-09
-4.84204e-09
6.61358e-10
-2.30169e-09
-5.37674e-09
6.81189e-10
-1.85364e-09
-5.79608e-09
7.16755e-10
-1.4018e-09
-6.04419e-09
7.45814e-10
-9.92791e-10
-6.09962e-09
7.43827e-10
-6.00379e-10
-6.00684e-09
6.8737e-10
-5.69222e-09
5.64564e-10
8.5481e-10
-9.94127e-09
8.5481e-10
8.38629e-10
-6.91729e-09
6.61964e-10
1.01241e-09
-6.96649e-09
5.92301e-10
1.21623e-09
-6.53466e-09
5.25168e-10
1.43374e-09
-6.00636e-09
4.98407e-10
1.69413e-09
-5.53691e-09
5.06269e-10
1.99877e-09
-5.1401e-09
5.42321e-10
2.2976e-09
-4.7591e-09
5.94268e-10
2.48701e-09
-4.26175e-09
6.53045e-10
2.50147e-09
-3.55962e-09
6.8977e-10
2.31963e-09
-2.62864e-09
6.90018e-10
1.97458e-09
-1.55231e-09
6.55336e-10
1.54004e-09
-5.13455e-10
5.89673e-10
1.08249e-09
2.93344e-10
5.48653e-10
6.05184e-10
7.36604e-10
5.4801e-10
1.12594e-10
7.46752e-10
5.90179e-10
-4.14708e-10
3.55509e-10
6.78001e-10
-1.02344e-09
-3.54858e-10
7.64888e-10
-1.68442e-09
-1.22344e-09
8.34141e-10
-2.35739e-09
-2.14161e-09
8.56732e-10
-2.93436e-09
-3.05622e-09
8.36706e-10
-3.31121e-09
-3.96755e-09
7.97375e-10
-3.42993e-09
-4.87863e-09
7.68119e-10
-3.30498e-09
-5.75694e-09
7.60499e-10
-3.00886e-09
-6.51983e-09
7.67581e-10
-2.62516e-09
-7.07333e-09
7.67283e-10
-2.1983e-09
-7.36575e-09
7.35813e-10
-1.71357e-09
-7.41816e-09
6.62922e-10
-1.09625e-09
-7.34275e-09
5.54962e-10
-7.33942e-09
4.4142e-10
6.42566e-10
-1.12134e-08
6.42566e-10
1.09037e-09
-7.89522e-09
5.08742e-10
1.61349e-09
-8.02285e-09
5.08419e-10
2.14978e-09
-7.59402e-09
4.93405e-10
2.68332e-09
-7.12095e-09
5.49942e-10
3.1913e-09
-6.69636e-09
6.23278e-10
3.59099e-09
-6.28199e-09
7.20669e-10
3.78119e-09
-5.78131e-09
8.19213e-10
3.71753e-09
-5.08688e-09
8.84268e-10
3.40153e-09
-4.15073e-09
9.07827e-10
2.89352e-09
-3.00907e-09
8.89651e-10
2.30979e-09
-1.79121e-09
8.19939e-10
1.72808e-09
-7.06906e-10
7.66664e-10
1.1921e-09
6.69009e-11
7.50551e-10
6.57134e-10
4.80636e-10
7.82642e-10
7.78965e-11
4.78087e-10
8.53253e-10
-5.7689e-10
1.10429e-10
9.28834e-10
-1.35099e-09
-5.11746e-10
9.89703e-10
-2.18942e-09
-1.31598e-09
1.01816e-09
-2.99491e-09
-2.23806e-09
1.00732e-09
-3.64932e-09
-3.27063e-09
9.74346e-10
-4.06831e-09
-4.40707e-09
9.42859e-10
-4.2284e-09
-5.59948e-09
9.25936e-10
-4.16799e-09
-6.73849e-09
9.17829e-10
-3.94738e-09
-7.68679e-09
8.98149e-10
-3.59794e-09
-8.34874e-09
8.47537e-10
-3.0975e-09
-8.7151e-09
7.60482e-10
-2.39085e-09
-8.86078e-09
6.55089e-10
-1.43422e-09
-8.96036e-09
5.95877e-10
-9.43367e-09
6.29813e-10
6.07906e-10
-1.24444e-08
6.07906e-10
1.59037e-09
-9.59312e-09
6.39677e-10
2.53231e-09
-9.72113e-09
6.86909e-10
3.44469e-09
-9.26088e-09
6.91486e-10
4.29439e-09
-8.77921e-09
7.59093e-10
4.98299e-09
-8.27213e-09
8.56939e-10
5.39093e-09
-7.67223e-09
9.73894e-10
5.43362e-09
-6.88341e-09
1.07166e-09
5.10695e-09
-5.855e-09
1.12281e-09
4.48241e-09
-4.61781e-09
1.12813e-09
3.69064e-09
-3.27096e-09
1.0912e-09
2.8727e-09
-1.98884e-09
1.04928e-09
2.10152e-09
-9.38722e-10
1.03275e-09
1.35939e-09
-2.15831e-10
1.05592e-09
6.19234e-10
1.47896e-10
1.11454e-09
-1.86315e-10
1.6349e-10
1.18264e-09
-1.09213e-09
-1.34607e-10
1.24117e-09
-2.08042e-09
-6.78939e-10
1.2737e-09
-3.07202e-09
-1.45384e-09
1.26665e-09
-3.96158e-09
-2.45333e-09
1.24423e-09
-4.65452e-09
-3.67834e-09
1.22226e-09
-5.10004e-09
-5.08325e-09
1.20863e-09
-5.30177e-09
-6.54984e-09
1.19675e-09
-5.292e-09
-7.91085e-09
1.16936e-09
-5.08111e-09
-9.02803e-09
1.11394e-09
-4.6369e-09
-9.84516e-09
1.03134e-09
-3.9057e-09
-1.03986e-08
9.41325e-10
-2.85514e-09
-1.08381e-08
9.29299e-10
-1.53572e-09
-1.12651e-08
9.94043e-10
-1.20352e-08
1.07463e-09
8.95853e-10
-1.42859e-08
8.95853e-10
2.37028e-09
-1.21613e-08
9.7539e-10
3.70204e-09
-1.21427e-08
9.90699e-10
4.95044e-09
-1.16127e-08
1.02508e-09
6.03597e-09
-1.10146e-08
1.101e-09
6.83302e-09
-1.02827e-08
1.19902e-09
7.21986e-09
-9.34031e-09
1.30038e-09
7.13728e-09
-8.13318e-09
1.37936e-09
6.61553e-09
-6.6886e-09
1.42064e-09
5.77001e-09
-5.12856e-09
1.42899e-09
4.75863e-09
-3.60935e-09
1.42118e-09
3.70133e-09
-2.29143e-09
1.42587e-09
2.64302e-09
-1.27397e-09
1.45598e-09
1.57688e-09
-5.87957e-10
1.50386e-09
4.74108e-10
-2.31227e-10
1.5595e-09
-6.87849e-10
-1.84486e-10
1.60646e-09
-1.90288e-09
-4.30812e-10
1.62769e-09
-3.12353e-09
-9.56615e-10
1.62774e-09
-4.27087e-09
-1.78528e-09
1.60706e-09
-5.25049e-09
-2.94443e-09
1.58089e-09
-5.99732e-09
-4.41059e-09
1.55765e-09
-6.48617e-09
-6.08437e-09
1.53245e-09
-6.71833e-09
-7.79917e-09
1.49473e-09
-6.68405e-09
-9.38079e-09
1.43512e-09
-6.34208e-09
-1.07217e-08
1.35466e-09
-5.63535e-09
-1.18248e-08
1.29005e-09
-4.55367e-09
-1.27658e-08
1.31508e-09
-3.12857e-09
-1.36116e-08
1.37682e-09
-1.51714e-09
-1.43308e-08
1.46459e-09
-1.50888e-08
1.51867e-09
1.35151e-09
-1.70627e-08
1.35151e-09
3.26771e-09
-1.56278e-08
1.41884e-09
4.96699e-09
-1.5381e-08
1.43707e-09
6.52788e-09
-1.47256e-08
1.48156e-09
7.82994e-09
-1.39034e-08
1.55547e-09
8.72762e-09
-1.28183e-08
1.64756e-09
9.10569e-09
-1.14096e-08
1.73701e-09
8.93958e-09
-9.69927e-09
1.80404e-09
8.30177e-09
-7.81088e-09
1.84546e-09
7.30925e-09
-5.92611e-09
1.87736e-09
6.09178e-09
-4.22051e-09
1.91041e-09
4.7397e-09
-2.81638e-09
1.95164e-09
3.30026e-09
-1.75877e-09
1.99545e-09
1.7934e-09
-1.04038e-09
2.03377e-09
2.30243e-10
-6.43294e-10
2.05867e-09
-1.36051e-09
-5.59373e-10
2.05912e-09
-2.9396e-09
-7.93165e-10
2.03897e-09
-4.43815e-09
-1.37176e-09
2.00328e-09
-5.77585e-09
-2.33973e-09
1.95966e-09
-6.88822e-09
-3.71355e-09
1.91698e-09
-7.73027e-09
-5.43492e-09
1.8692e-09
-8.27051e-09
-7.36901e-09
1.80526e-09
-8.47619e-09
-9.34909e-09
1.73115e-09
-8.2968e-09
-1.12356e-08
1.66335e-09
-7.6914e-09
-1.29582e-08
1.63944e-09
-6.62762e-09
-1.45078e-08
1.64109e-09
-5.15479e-09
-1.59132e-08
1.69016e-09
-3.43667e-09
-1.71169e-08
1.77373e-09
-1.66362e-09
-1.79701e-08
1.81088e-09
-1.86116e-08
1.77299e-09
1.89094e-09
-2.0923e-08
1.89094e-09
4.24124e-09
-2.00426e-08
1.94989e-09
6.34855e-09
-1.9549e-08
1.97825e-09
8.23422e-09
-1.87015e-08
2.04174e-09
9.74797e-09
-1.75547e-08
2.1274e-09
1.07452e-08
-1.60095e-08
2.22001e-09
1.11392e-08
-1.40504e-08
2.30087e-09
1.09357e-08
-1.17858e-08
2.36037e-09
1.02171e-08
-9.42054e-09
2.40282e-09
9.0869e-09
-7.17088e-09
2.44486e-09
7.63113e-09
-5.19746e-09
2.49464e-09
5.92449e-09
-3.59188e-09
2.53798e-09
4.0288e-09
-2.37518e-09
2.5671e-09
2.01024e-09
-1.53463e-09
2.57181e-09
-6.13508e-11
-1.05782e-09
2.54984e-09
-2.1253e-09
-9.46629e-10
2.51408e-09
-4.11414e-09
-1.21974e-09
2.46604e-09
-5.94894e-09
-1.917e-09
2.40558e-09
-7.55363e-09
-3.08092e-09
2.33803e-09
-8.86482e-09
-4.70682e-09
2.26493e-09
-9.83089e-09
-6.71647e-09
2.18944e-09
-1.03999e-08
-8.97319e-09
2.11651e-09
-1.05116e-08
-1.13263e-08
2.0526e-09
-1.01111e-08
-1.3658e-08
2.0135e-09
-9.18115e-09
-1.58939e-08
2.01554e-09
-7.76573e-09
-1.79787e-08
2.05905e-09
-5.99655e-09
-1.98355e-08
2.12215e-09
-4.05259e-09
-2.1289e-08
2.14541e-09
-2.06322e-09
-2.21898e-08
2.0998e-09
-2.28371e-08
2.02856e-09
2.49502e-09
-2.59794e-08
2.49502e-09
5.36397e-09
-2.55583e-08
2.56746e-09
7.9421e-09
-2.48121e-08
2.63295e-09
1.01715e-08
-2.36842e-08
2.72919e-09
1.18852e-08
-2.20912e-08
2.82664e-09
1.29633e-08
-1.99687e-08
2.90757e-09
1.33692e-08
-1.73827e-08
2.96611e-09
1.31458e-08
-1.45217e-08
3.00181e-09
1.23619e-08
-1.16262e-08
3.02676e-09
1.10753e-08
-8.9128e-09
3.05721e-09
9.34203e-09
-6.53661e-09
3.09482e-09
7.23726e-09
-4.58455e-09
3.11905e-09
4.85368e-09
-3.08796e-09
3.12284e-09
2.30266e-09
-2.05895e-09
3.10845e-09
-3.08566e-10
-1.49057e-09
3.07911e-09
-2.88937e-09
-1.37998e-09
3.04052e-09
-5.35358e-09
-1.74054e-09
2.98952e-09
-7.60779e-09
-2.61409e-09
2.92508e-09
-9.55975e-09
-4.03358e-09
2.84883e-09
-1.11265e-08
-5.98169e-09
2.76948e-09
-1.22355e-08
-8.36938e-09
2.69488e-09
-1.28169e-08
-1.10682e-08
2.63519e-09
-1.28139e-08
-1.39384e-08
2.60284e-09
-1.22006e-08
-1.6856e-08
2.60397e-09
-1.10039e-08
-1.9707e-08
2.63547e-09
-9.31745e-09
-2.23508e-08
2.67298e-09
-7.29113e-09
-2.45969e-08
2.66979e-09
-5.03813e-09
-2.6261e-08
2.60332e-09
-2.59019e-09
-2.72899e-08
2.51121e-09
-2.80161e-08
2.48557e-09
3.20945e-09
-3.24429e-08
3.20945e-09
6.70588e-09
-3.2416e-08
3.32534e-09
9.80447e-09
-3.13591e-08
3.43007e-09
1.23866e-08
-2.98047e-08
3.5365e-09
1.42908e-08
-2.76046e-08
3.61963e-09
1.54531e-08
-2.47971e-08
3.68141e-09
1.59023e-08
-2.15068e-08
3.68658e-09
1.56859e-08
-1.79813e-08
3.6776e-09
1.48275e-08
-1.44667e-08
3.68837e-09
1.3353e-08
-1.11717e-08
3.71466e-09
1.13061e-08
-8.25304e-09
3.74359e-09
8.77345e-09
-5.82554e-09
3.76118e-09
5.88312e-09
-3.9666e-09
3.76874e-09
2.77306e-09
-2.70734e-09
3.76877e-09
-4.28956e-10
-2.03723e-09
3.76086e-09
-3.61257e-09
-1.93655e-09
3.74152e-09
-6.65545e-09
-2.41842e-09
3.70076e-09
-9.42559e-09
-3.52569e-09
3.63867e-09
-1.17979e-08
-5.28228e-09
3.56519e-09
-1.36661e-08
-7.65745e-09
3.495e-09
-1.49432e-08
-1.05535e-08
3.44019e-09
-1.55648e-08
-1.38405e-08
3.41175e-09
-1.54955e-08
-1.7367e-08
3.40944e-09
-1.47386e-08
-2.09777e-08
3.42275e-09
-1.335e-08
-2.44942e-08
3.43315e-09
-1.14335e-08
-2.76861e-08
3.40796e-09
-9.08318e-09
-3.03216e-08
3.3192e-09
-6.33503e-09
-3.22759e-08
3.19266e-09
-3.21406e-09
-3.35901e-08
3.12228e-09
-3.43906e-08
3.16399e-09
4.08261e-09
-4.06265e-08
4.08261e-09
8.27187e-09
-4.08269e-08
4.23018e-09
1.1919e-08
-3.93279e-08
4.33674e-09
1.48775e-08
-3.71806e-08
4.43526e-09
1.70246e-08
-3.42325e-08
4.49374e-09
1.83706e-08
-3.06106e-08
4.46739e-09
1.89425e-08
-2.65371e-08
4.43956e-09
1.87551e-08
-2.22708e-08
4.4386e-09
1.78071e-08
-1.80358e-08
4.46445e-09
1.61032e-08
-1.403e-08
4.50508e-09
1.36946e-08
-1.04407e-08
4.54614e-09
1.06904e-08
-7.44003e-09
4.58479e-09
7.23801e-09
-5.14951e-09
4.62036e-09
3.48486e-09
-3.60678e-09
4.65191e-09
-4.27693e-10
-2.79247e-09
4.67069e-09
-4.33919e-09
-2.6923e-09
4.66246e-09
-8.07657e-09
-3.32353e-09
4.62492e-09
-1.14583e-08
-4.73162e-09
4.56277e-09
-1.43264e-08
-6.92666e-09
4.49534e-09
-1.65582e-08
-9.85429e-09
4.43793e-09
-1.80676e-08
-1.33984e-08
4.40126e-09
-1.8804e-08
-1.7407e-08
4.38306e-09
-1.87464e-08
-2.1703e-08
4.37034e-09
-1.79095e-08
-2.60904e-08
4.35044e-09
-1.63505e-08
-3.03194e-08
4.3028e-09
-1.41403e-08
-3.40997e-08
4.20405e-09
-1.1307e-08
-3.72191e-08
4.0561e-09
-7.86078e-09
-3.96339e-08
3.93203e-09
-3.92614e-09
-4.13745e-08
3.92277e-09
-4.22071e-08
4.00239e-09
5.10217e-09
-5.08214e-08
5.10217e-09
1.00114e-08
-5.09316e-08
5.24092e-09
1.4272e-08
-4.889e-08
5.34172e-09
1.77212e-08
-4.5961e-08
5.36005e-09
2.02826e-08
-4.21266e-08
5.34075e-09
2.1946e-08
-3.76181e-08
5.32544e-09
2.27212e-08
-3.26953e-08
5.33704e-09
2.2588e-08
-2.75872e-08
5.38263e-09
2.15166e-08
-2.2491e-08
5.45e-09
1.95196e-08
-1.76251e-08
5.52001e-09
1.66743e-08
-1.32405e-08
5.58986e-09
1.31093e-08
-9.56712e-09
5.66072e-09
8.97497e-09
-6.75481e-09
5.73103e-09
4.42799e-09
-4.84311e-09
5.78928e-09
-3.51176e-10
-3.82467e-09
5.82087e-09
-5.14063e-09
-3.70989e-09
5.81236e-09
-9.69829e-09
-4.53429e-09
5.77029e-09
-1.37993e-08
-6.33317e-09
5.71117e-09
-1.72603e-08
-9.08923e-09
5.65349e-09
-1.9953e-08
-1.27073e-08
5.60697e-09
-2.17945e-08
-1.70399e-08
5.57209e-09
-2.27319e-08
-2.19087e-08
5.53652e-09
-2.2737e-08
-2.71102e-08
5.49072e-09
-2.1829e-08
-3.23819e-08
5.42269e-09
-2.00456e-08
-3.74059e-08
5.30661e-09
-1.73997e-08
-4.1885e-08
5.13781e-09
-1.3881e-08
-4.56831e-08
4.98043e-09
-9.57271e-09
-4.87606e-08
4.91526e-09
-4.73342e-09
-5.10175e-08
4.95113e-09
-5.18555e-08
5.04105e-09
6.2329e-09
-6.32549e-08
6.2329e-09
1.19317e-08
-6.28863e-08
6.31589e-09
1.69688e-08
-6.02059e-08
6.32252e-09
2.11333e-08
-5.64249e-08
6.32033e-09
2.43237e-08
-5.16601e-08
6.33444e-09
2.64772e-08
-4.61906e-08
6.38063e-09
2.75347e-08
-4.02817e-08
6.46737e-09
2.74357e-08
-3.41392e-08
6.57856e-09
2.61643e-08
-2.79781e-08
6.69032e-09
2.37748e-08
-2.20796e-08
6.79329e-09
2.03731e-08
-1.67648e-08
6.90093e-09
1.61056e-08
-1.23106e-08
7.01126e-09
1.11157e-08
-8.86372e-09
7.11697e-09
5.58442e-09
-6.48271e-09
7.19468e-09
-2.45244e-10
-5.20609e-09
7.2303e-09
-6.07707e-09
-5.08462e-09
7.21825e-09
-1.16013e-08
-6.17516e-09
7.17585e-09
-1.65559e-08
-8.47956e-09
7.1237e-09
-2.07452e-08
-1.19314e-08
7.07651e-09
-2.40304e-08
-1.6391e-08
7.03482e-09
-2.63142e-08
-2.16738e-08
6.98666e-09
-2.75237e-08
-2.75805e-08
6.9255e-09
-2.76289e-08
-3.38508e-08
6.84349e-09
-2.66238e-08
-4.01425e-08
6.70828e-09
-2.44977e-08
-4.60989e-08
6.50514e-09
-2.12054e-08
-5.14966e-08
6.29013e-09
-1.67957e-08
-5.62284e-08
6.17151e-09
-1.15092e-08
-6.01186e-08
6.16132e-09
-5.70602e-09
-6.29194e-08
6.19176e-09
-6.37763e-08
6.23189e-09
7.44055e-09
-7.80971e-08
7.44055e-09
1.41912e-08
-7.70396e-08
7.44485e-09
2.02797e-08
-7.37161e-08
7.44161e-09
2.54252e-08
-6.90634e-08
7.48758e-09
2.94483e-08
-6.32916e-08
7.57812e-09
3.22032e-08
-5.6708e-08
7.71487e-09
3.35631e-08
-4.95749e-08
7.88051e-09
3.34598e-08
-4.21267e-08
8.04718e-09
3.19188e-08
-3.4658e-08
8.19823e-09
2.90406e-08
-2.75434e-08
8.34612e-09
2.49543e-08
-2.11559e-08