/*--------------------------------*- C++ -*----------------------------------*\
| =========                 |                                                 |
| \\      /  F ield         | OpenFOAM: The Open Source CFD Toolbox           |
|  \\    /   O peration     | Version:  2312                                  |
|   \\  /    A nd           | Website:  www.openfoam.com                      |
|    \\/     M anipulation  |                                                 |
\*---------------------------------------------------------------------------*/
FoamFile
{
    version     2.0;
    format      ascii;
    arch        "LSB;label=32;scalar=64";
    class       volVectorField;
    location    "0.39227";
    object      U;
}
// * * * * * * * * * * * * * * * * * * * * * * * * * * * * * * * * * * * * * //

dimensions      [0 1 -1 0 0 0 0];

internalField   nonuniform List<vector> 
90000
(
(1.58649e-06 -1.98777e-06 1.58649e-06)
(1.18571e-07 1.51111e-06 7.63565e-07)
(-3.34382e-06 7.53662e-07 5.57703e-07)
(-4.30777e-06 4.15274e-07 1.82324e-07)
(-5.04092e-06 1.54727e-07 -4.94393e-08)
(-5.11993e-06 -1.91567e-07 -2.18684e-07)
(-4.58725e-06 -5.37477e-07 -3.22331e-07)
(-3.64946e-06 -7.44324e-07 -3.40259e-07)
(-2.60095e-06 -7.1241e-07 -3.02429e-07)
(-1.77495e-06 -4.63233e-07 -3.30284e-07)
(-1.37777e-06 -8.52042e-08 -4.68483e-07)
(-1.26103e-06 3.74568e-07 -6.74255e-07)
(-1.16412e-06 7.0914e-07 -9.5975e-07)
(-8.33756e-07 8.4591e-07 -1.2341e-06)
(2.29317e-08 7.50694e-07 -1.40241e-06)
(1.45668e-06 4.75969e-07 -1.38147e-06)
(3.1658e-06 1.35679e-07 -1.10524e-06)
(4.64566e-06 -1.1769e-07 -5.63422e-07)
(5.43681e-06 -1.667e-07 2.86243e-08)
(5.06018e-06 5.65383e-08 5.51873e-07)
(3.28748e-06 4.93161e-07 8.94297e-07)
(1.68898e-07 1.07846e-06 9.49485e-07)
(-3.98582e-06 1.59547e-06 7.74656e-07)
(-8.45701e-06 1.92414e-06 4.06719e-07)
(-1.22757e-05 1.72399e-06 -2.9579e-07)
(-1.42378e-05 9.13378e-07 -1.13384e-06)
(-1.36037e-05 -6.08522e-07 -1.81568e-06)
(-1.04966e-05 -2.19831e-06 -1.6741e-06)
(-4.24147e-06 -3.77554e-06 -7.18006e-07)
(-3.85173e-08 -4.21919e-06 3.34203e-06)
(-4.56858e-07 -2.97539e-06 -4.56858e-07)
(-1.05092e-06 2.79038e-06 -3.36296e-07)
(-1.33215e-06 1.20602e-06 -2.92754e-07)
(-1.55593e-06 5.30356e-07 -1.94431e-07)
(-1.7113e-06 -1.79069e-07 -9.29081e-08)
(-1.78577e-06 -1.01732e-06 -2.15729e-08)
(-1.76611e-06 -1.74773e-06 7.22958e-09)
(-1.64381e-06 -2.11119e-06 -2.6204e-08)
(-1.44656e-06 -1.94701e-06 -1.31546e-07)
(-1.16888e-06 -1.3387e-06 -2.69997e-07)
(-7.65243e-07 -4.76563e-07 -3.83163e-07)
(-2.09443e-07 4.4459e-07 -4.22754e-07)
(4.75756e-07 1.08019e-06 -3.78569e-07)
(1.21027e-06 1.29384e-06 -2.56099e-07)
(1.88264e-06 1.08642e-06 -7.20695e-08)
(2.2981e-06 5.85879e-07 1.18208e-07)
(2.2983e-06 1.06488e-07 2.45674e-07)
(1.91345e-06 -3.92306e-08 1.57709e-07)
(1.21874e-06 3.10021e-07 4.28427e-09)
(1.87728e-07 1.11705e-06 -3.01365e-07)
(-9.84064e-07 2.13127e-06 -6.09306e-07)
(-2.07634e-06 3.17291e-06 -7.11936e-07)
(-2.89158e-06 3.78337e-06 -6.65655e-07)
(-3.06672e-06 3.66321e-06 -4.29522e-07)
(-2.58311e-06 2.25847e-06 1.41279e-07)
(-1.63524e-06 -4.57139e-07 7.26555e-07)
(3.59962e-08 -4.21156e-06 1.35137e-06)
(2.20434e-06 -7.42851e-06 1.66802e-06)
(2.35038e-06 -9.54521e-06 2.09105e-06)
(7.46694e-07 -1.03606e-05 2.30643e-06)
(-5.76765e-07 -2.0766e-06 -5.76765e-07)
(2.55049e-08 1.65298e-06 -2.16062e-07)
(1.4764e-06 9.29446e-08 -5.40595e-08)
(1.91953e-06 -5.32924e-07 1.42053e-07)
(2.00715e-06 -1.26756e-06 2.92701e-07)
(1.68942e-06 -2.01986e-06 3.44818e-07)
(1.0963e-06 -2.58841e-06 2.85985e-07)
(4.31609e-07 -2.77599e-06 1.5687e-07)
(-3.74569e-08 -2.50265e-06 5.25456e-09)
(-8.96003e-08 -1.88828e-06 -1.63391e-07)
(3.51406e-07 -1.10243e-06 -2.22541e-07)
(1.18011e-06 -3.62849e-07 -1.22258e-07)
(2.12139e-06 1.64494e-07 1.04822e-07)
(2.7693e-06 4.08215e-07 3.80676e-07)
(2.74829e-06 4.18138e-07 6.50241e-07)
(1.89602e-06 3.89733e-07 7.47081e-07)
(3.32461e-07 5.68272e-07 6.24384e-07)
(-1.58261e-06 1.09313e-06 3.21113e-07)
(-3.34975e-06 1.97852e-06 -1.92813e-07)
(-4.35846e-06 3.02818e-06 -7.50716e-07)
(-4.18784e-06 3.82935e-06 -1.17791e-06)
(-2.73518e-06 4.19805e-06 -1.35718e-06)
(-1.35144e-07 3.75141e-06 -1.22582e-06)
(3.19999e-06 2.29595e-06 -6.80144e-07)
(6.53031e-06 -2.9978e-07 1.77888e-07)
(8.96958e-06 -3.99469e-06 1.21978e-06)
(9.70463e-06 -7.87273e-06 2.0298e-06)
(8.99226e-06 -1.02254e-05 2.10886e-06)
(5.67252e-06 -8.76656e-06 1.5249e-06)
(1.48066e-06 -8.77098e-06 -8.26684e-07)
(-1.47658e-07 -2.6381e-06 -1.47658e-07)
(1.32139e-06 -1.30923e-06 2.82006e-07)
(3.57629e-06 -2.29812e-06 4.91808e-07)
(4.59122e-06 -2.55299e-06 6.72038e-07)
(4.93358e-06 -2.72333e-06 7.58579e-07)
(4.55502e-06 -2.85032e-06 7.47996e-07)
(3.6868e-06 -2.88981e-06 6.45875e-07)
(2.64493e-06 -2.7632e-06 4.74329e-07)
(1.78181e-06 -2.49394e-06 2.97663e-07)
(1.37442e-06 -2.15334e-06 1.72544e-07)
(1.48766e-06 -1.80786e-06 1.18644e-07)
(1.96214e-06 -1.46649e-06 2.00563e-07)
(2.42348e-06 -1.10866e-06 4.01202e-07)
(2.42326e-06 -6.53321e-07 6.11188e-07)
(1.71886e-06 -1.92456e-08 6.78109e-07)
(2.42404e-07 8.42289e-07 6.18464e-07)
(-1.81341e-06 1.88343e-06 3.88166e-07)
(-3.91292e-06 2.93063e-06 3.59583e-08)
(-5.40749e-06 3.823e-06 -4.07159e-07)
(-5.70325e-06 4.26513e-06 -7.68969e-07)
(-4.45862e-06 4.09029e-06 -1.02837e-06)
(-1.61452e-06 3.25689e-06 -1.06484e-06)
(2.40882e-06 1.66401e-06 -8.57767e-07)
(6.66661e-06 -4.38373e-07 -4.09143e-07)
(1.01968e-05 -2.79361e-06 3.39613e-07)
(1.18708e-05 -5.2468e-06 9.54602e-07)
(1.08015e-05 -7.14368e-06 1.35497e-06)
(7.68165e-06 -7.9507e-06 1.26993e-06)
(3.27182e-06 -3.57692e-06 4.88367e-07)
(3.60926e-07 -2.66794e-06 -1.943e-06)
(4.55921e-07 -4.46895e-06 4.55921e-07)
(2.60737e-06 -5.7512e-06 8.91412e-07)
(5.17791e-06 -5.77759e-06 1.04823e-06)
(6.52707e-06 -5.33168e-06 1.1339e-06)
(7.09211e-06 -4.64534e-06 1.13019e-06)
(6.90187e-06 -3.90107e-06 1.04501e-06)
(6.12153e-06 -3.21422e-06 9.07131e-07)
(5.02829e-06 -2.6723e-06 7.34936e-07)
(3.94223e-06 -2.37471e-06 5.75756e-07)
(3.07263e-06 -2.30831e-06 4.66934e-07)
(2.4464e-06 -2.36702e-06 4.3069e-07)
(1.91692e-06 -2.36626e-06 4.45297e-07)
(1.29621e-06 -2.07509e-06 4.35008e-07)
(4.64317e-07 -1.28633e-06 3.79846e-07)
(-7.2206e-07 -1.00532e-08 2.567e-07)
(-2.19355e-06 1.5662e-06 7.5769e-08)
(-3.63744e-06 3.05374e-06 -1.39166e-07)
(-4.70325e-06 4.13992e-06 -2.95991e-07)
(-5.0215e-06 4.54471e-06 -3.65246e-07)
(-4.26627e-06 3.99384e-06 -3.57257e-07)
(-2.33511e-06 2.69251e-06 -2.61063e-07)
(4.86565e-07 7.88869e-07 -1.26487e-07)
(3.73999e-06 -1.33065e-06 1.54999e-07)
(6.68966e-06 -3.08555e-06 4.43586e-07)
(8.55553e-06 -4.0482e-06 4.85517e-07)
(8.68272e-06 -4.08488e-06 1.46396e-07)
(6.67839e-06 -3.17919e-06 -4.56868e-07)
(2.88012e-06 -2.2571e-06 -1.04173e-06)
(-1.14617e-06 2.11033e-06 -1.74156e-06)
(-1.47469e-06 1.83084e-06 -2.89927e-06)
(9.74076e-07 -7.72989e-06 9.74076e-07)
(3.40974e-06 -1.07366e-05 1.25897e-06)
(5.81764e-06 -9.74878e-06 1.30577e-06)
(7.35766e-06 -8.50499e-06 1.23875e-06)
(8.25229e-06 -6.88041e-06 1.11568e-06)
(8.49931e-06 -5.15897e-06 9.4048e-07)
(8.19078e-06 -3.67215e-06 7.76456e-07)
(7.44898e-06 -2.63173e-06 6.75607e-07)
(6.35197e-06 -2.13918e-06 6.24578e-07)
(4.96378e-06 -2.11327e-06 5.79492e-07)
(3.3284e-06 -2.30336e-06 5.15101e-07)
(1.50866e-06 -2.39659e-06 4.16507e-07)
(-3.50089e-07 -2.04031e-06 2.57996e-07)
(-2.05993e-06 -1.11972e-06 3.16523e-08)
(-3.42186e-06 2.88351e-07 -2.19008e-07)
(-4.28125e-06 1.86656e-06 -3.87106e-07)
(-4.51295e-06 3.16816e-06 -3.69269e-07)
(-4.06361e-06 3.66725e-06 -1.43487e-07)
(-3.02159e-06 3.20324e-06 1.26882e-07)
(-1.50369e-06 1.75325e-06 4.88471e-07)
(2.48122e-07 -2.69662e-07 7.95291e-07)
(1.87767e-06 -2.49739e-06 1.11967e-06)
(3.02935e-06 -4.19143e-06 1.20249e-06)
(3.35878e-06 -4.67523e-06 1.00345e-06)
(2.76482e-06 -3.70542e-06 4.97608e-07)
(1.32217e-06 -1.46592e-06 -3.73522e-07)
(-6.12971e-07 1.79506e-06 -1.36147e-06)
(-2.66596e-06 4.49138e-06 -2.11144e-06)
(-4.05516e-06 7.79322e-06 -2.56399e-06)
(-2.22713e-06 4.03135e-06 -2.7947e-06)
(1.06799e-06 -1.16883e-05 1.06799e-06)
(3.31522e-06 -1.55748e-05 1.13667e-06)
(5.46449e-06 -1.3668e-05 9.85517e-07)
(7.21437e-06 -1.16387e-05 7.63611e-07)
(8.63714e-06 -9.14493e-06 5.31005e-07)
(9.68595e-06 -6.58175e-06 3.69126e-07)
(1.02486e-05 -4.37199e-06 3.04148e-07)
(1.01397e-05 -2.7447e-06 3.5367e-07)
(9.1887e-06 -1.81676e-06 4.81378e-07)
(7.33876e-06 -1.45055e-06 5.90782e-07)
(4.72245e-06 -1.38008e-06 6.02779e-07)
(1.68175e-06 -1.33015e-06 4.93699e-07)
(-1.36792e-06 -1.05919e-06 2.83375e-07)
(-3.79649e-06 -5.44103e-07 1.31657e-08)
(-5.14233e-06 1.68958e-07 -1.73719e-07)
(-5.3855e-06 8.42752e-07 -1.42015e-07)
(-4.63973e-06 1.20817e-06 7.29607e-08)
(-3.18918e-06 8.05291e-07 4.63023e-07)
(-1.392e-06 -3.74315e-07 9.78513e-07)
(2.04577e-07 -2.23232e-06 1.42557e-06)
(1.09878e-06 -4.25469e-06 1.87817e-06)
(1.01767e-06 -5.87676e-06 2.00652e-06)
(-7.35568e-08 -6.34887e-06 1.77307e-06)
(-1.90672e-06 -5.22692e-06 1.24137e-06)
(-4.08882e-06 -2.59003e-06 4.73227e-07)
(-6.03123e-06 1.09965e-06 -3.7524e-07)
(-7.06649e-06 5.15282e-06 -1.24087e-06)
(-6.90725e-06 8.09528e-06 -1.56382e-06)
(-5.38875e-06 9.8691e-06 -1.71218e-06)
(-2.14836e-06 2.71424e-06 -1.69748e-06)
(5.76547e-07 -1.49711e-05 5.76547e-07)
(2.35315e-06 -1.96796e-05 4.3056e-07)
(4.59611e-06 -1.70144e-05 1.33064e-07)
(6.71158e-06 -1.44643e-05 -1.36654e-07)
(8.86959e-06 -1.14528e-05 -3.0752e-07)
(1.08945e-05 -8.40017e-06 -2.88595e-07)
(1.24279e-05 -5.64472e-06 -6.12034e-08)
(1.30303e-05 -3.36398e-06 2.47311e-07)
(1.23546e-05 -1.69809e-06 5.11332e-07)
(1.02698e-05 -6.12952e-07 7.63885e-07)
(6.9843e-06 -5.47988e-09 8.96708e-07)
(3.07923e-06 2.30849e-07 8.85925e-07)
(-7.44796e-07 1.29101e-07 7.85778e-07)
(-3.7311e-06 -2.07537e-07 6.94517e-07)
(-5.38067e-06 -8.0676e-07 6.66555e-07)
(-5.67379e-06 -1.58516e-06 7.6075e-07)
(-4.82395e-06 -2.60596e-06 1.05651e-06)
(-3.3628e-06 -3.91798e-06 1.44548e-06)
(-1.99221e-06 -5.44819e-06 1.88139e-06)
(-1.23003e-06 -7.10093e-06 2.21765e-06)
(-1.39409e-06 -8.39975e-06 2.31551e-06)
(-2.65304e-06 -8.81362e-06 2.16752e-06)
(-4.79167e-06 -7.90509e-06 1.79665e-06)
(-7.26181e-06 -5.60048e-06 1.284e-06)
(-9.38276e-06 -2.17471e-06 7.30793e-07)
(-1.05087e-05 1.5986e-06 1.9715e-07)
(-1.02082e-05 4.82143e-06 -1.58205e-07)
(-8.40967e-06 6.61383e-06 -2.8275e-07)
(-5.10485e-06 6.90294e-06 -2.38333e-07)
(-1.54373e-06 -1.1994e-06 2.90729e-07)
(-2.85723e-07 -1.6582e-05 -2.85723e-07)
(1.08793e-06 -2.31492e-05 -5.05919e-07)
(3.90149e-06 -1.99388e-05 -7.78523e-07)
(6.48524e-06 -1.73625e-05 -9.18114e-07)
(9.39712e-06 -1.43368e-05 -8.51892e-07)
(1.22606e-05 -1.11572e-05 -5.58414e-07)
(1.45497e-05 -7.99551e-06 -8.84934e-08)
(1.56785e-05 -4.99629e-06 4.32468e-07)
(1.52356e-05 -2.37587e-06 8.73837e-07)
(1.31722e-05 -3.17669e-07 1.20789e-06)
(9.8158e-06 9.47606e-07 1.41513e-06)
(5.78034e-06 1.3183e-06 1.54273e-06)
(1.79382e-06 7.01077e-07 1.61266e-06)
(-1.58444e-06 -7.09138e-07 1.70509e-06)
(-3.94953e-06 -2.60097e-06 1.82276e-06)
(-5.25574e-06 -4.76214e-06 1.93558e-06)
(-5.79301e-06 -6.91778e-06 2.10151e-06)
(-5.91428e-06 -8.84394e-06 2.23801e-06)
(-6.01008e-06 -1.04144e-05 2.26845e-06)
(-6.3806e-06 -1.15509e-05 2.11561e-06)
(-7.20702e-06 -1.19043e-05 1.87833e-06)
(-8.47604e-06 -1.12456e-05 1.59688e-06)
(-9.93976e-06 -9.54765e-06 1.34794e-06)
(-1.12216e-05 -6.96291e-06 1.2001e-06)
(-1.19219e-05 -3.91431e-06 1.17445e-06)
(-1.16813e-05 -1.16071e-06 1.14582e-06)
(-1.02391e-05 6.75509e-07 1.13249e-06)
(-7.6163e-06 1.12505e-06 1.23106e-06)
(-3.86754e-06 3.74739e-07 1.44672e-06)
(-8.56757e-07 -6.42915e-06 1.82482e-06)
(-7.58444e-07 -1.70147e-05 -7.58444e-07)
(6.28891e-07 -2.67281e-05 -8.12099e-07)
(4.0427e-06 -2.32239e-05 -8.91465e-07)
(6.9683e-06 -2.10986e-05 -7.95906e-07)
(1.02623e-05 -1.84117e-05 -4.56747e-07)
(1.33679e-05 -1.52933e-05 3.10046e-08)
(1.57311e-05 -1.17381e-05 5.76462e-07)
(1.68693e-05 -7.94602e-06 1.05371e-06)
(1.65552e-05 -4.31998e-06 1.39444e-06)
(1.49173e-05 -1.22962e-06 1.63459e-06)
(1.22411e-05 7.81768e-07 1.84348e-06)
(8.89802e-06 1.33687e-06 2.03244e-06)
(5.30775e-06 4.00108e-07 2.25758e-06)
(1.75972e-06 -1.70888e-06 2.46089e-06)
(-1.6275e-06 -4.40202e-06 2.60587e-06)
(-4.8083e-06 -7.24462e-06 2.6479e-06)
(-7.71295e-06 -9.87922e-06 2.56059e-06)
(-1.02104e-05 -1.19915e-05 2.20273e-06)
(-1.21405e-05 -1.35031e-05 1.73474e-06)
(-1.34952e-05 -1.42493e-05 1.25995e-06)
(-1.42574e-05 -1.43632e-05 8.67752e-07)
(-1.44472e-05 -1.36145e-05 6.58316e-07)
(-1.41948e-05 -1.2057e-05 6.70474e-07)
(-1.35659e-05 -1.00275e-05 8.81404e-07)
(-1.24856e-05 -7.92754e-06 1.18031e-06)
(-1.08108e-05 -6.30622e-06 1.50706e-06)
(-8.45032e-06 -5.6279e-06 1.83181e-06)
(-5.51679e-06 -6.06329e-06 2.11196e-06)
(-2.16122e-06 -7.18565e-06 2.30382e-06)
(-1.89002e-07 -1.19458e-05 2.47694e-06)
(-9.24665e-08 -1.80789e-05 -9.24665e-08)
(1.85415e-06 -3.14457e-05 4.6425e-08)
(5.1984e-06 -2.77394e-05 2.17813e-07)
(8.00233e-06 -2.6196e-05 4.51493e-07)
(1.08074e-05 -2.38489e-05 8.72964e-07)
(1.31255e-05 -2.07148e-05 1.28864e-06)
(1.46703e-05 -1.67186e-05 1.60659e-06)
(1.53669e-05 -1.21439e-05 1.73723e-06)
(1.532e-05 -7.55536e-06 1.71949e-06)
(1.46318e-05 -3.53202e-06 1.66599e-06)
(1.33733e-05 -7.07112e-07 1.81563e-06)
(1.14615e-05 3.64691e-07 1.9999e-06)
(8.72896e-06 -2.63804e-07 2.26078e-06)
(5.07524e-06 -2.11742e-06 2.47497e-06)
(5.3516e-07 -4.6195e-06 2.52894e-06)
(-4.59524e-06 -7.17951e-06 2.36018e-06)
(-9.81833e-06 -9.62359e-06 1.91982e-06)
(-1.44913e-05 -1.18107e-05 1.32658e-06)
(-1.79256e-05 -1.36794e-05 6.8995e-07)
(-1.97366e-05 -1.50773e-05 1.68245e-07)
(-2.00359e-05 -1.61222e-05 -1.44333e-07)
(-1.91576e-05 -1.63646e-05 -1.25738e-07)
(-1.74442e-05 -1.57917e-05 1.45489e-07)
(-1.51824e-05 -1.47048e-05 5.83397e-07)
(-1.25678e-05 -1.35159e-05 1.08004e-06)
(-9.68328e-06 -1.27216e-05 1.55841e-06)
(-6.619e-06 -1.26935e-05 1.95299e-06)
(-3.61512e-06 -1.339e-05 2.25448e-06)
(-7.6637e-07 -1.4323e-05 2.44656e-06)
(3.26545e-07 -1.70376e-05 2.67753e-06)
(1.67145e-06 -2.27574e-05 1.67145e-06)
(4.53513e-06 -3.79392e-05 1.85378e-06)
(6.7376e-06 -3.41595e-05 2.20168e-06)
(8.56784e-06 -3.28364e-05 2.38211e-06)
(9.88901e-06 -3.05221e-05 2.66902e-06)
(1.06472e-05 -2.70545e-05 2.66201e-06)
(1.1081e-05 -2.24594e-05 2.41729e-06)
(1.14718e-05 -1.71447e-05 2.0529e-06)
(1.20281e-05 -1.17751e-05 1.68249e-06)
(1.27737e-05 -7.05473e-06 1.44726e-06)
(1.33699e-05 -3.47238e-06 1.40498e-06)
(1.3134e-05 -1.37669e-06 1.62364e-06)
(1.13937e-05 -7.04118e-07 1.75975e-06)
(7.76943e-06 -1.12081e-06 1.89288e-06)
(2.42498e-06 -2.24085e-06 1.85564e-06)
(-4.05792e-06 -3.79388e-06 1.52794e-06)
(-1.08057e-05 -5.87507e-06 1.03635e-06)
(-1.67049e-05 -8.5778e-06 5.27302e-07)
(-2.08527e-05 -1.17337e-05 2.97709e-08)
(-2.29798e-05 -1.49717e-05 -2.20883e-07)
(-2.3254e-05 -1.78801e-05 -2.6966e-07)
(-2.19913e-05 -1.98227e-05 -4.04958e-08)
(-1.96751e-05 -2.0663e-05 3.66232e-07)
(-1.67196e-05 -2.0633e-05 8.11101e-07)
(-1.33488e-05 -2.02436e-05 1.234e-06)
(-9.7012e-06 -2.0034e-05 1.63062e-06)
(-6.02828e-06 -2.02945e-05 2.00966e-06)
(-2.74298e-06 -2.09013e-05 2.35963e-06)
(5.01759e-08 -2.14306e-05 2.65191e-06)
(6.93246e-07 -2.22834e-05 3.05072e-06)
(4.05087e-06 -3.39845e-05 4.05087e-06)
(7.63969e-06 -4.57586e-05 4.11952e-06)
(7.62724e-06 -4.23865e-05 4.29354e-06)
(8.04572e-06 -4.05435e-05 4.14221e-06)
(7.77387e-06 -3.76617e-05 3.86591e-06)
(7.18514e-06 -3.34663e-05 3.33455e-06)
(6.83075e-06 -2.8234e-05 2.64839e-06)
(7.29684e-06 -2.24757e-05 1.96493e-06)
(8.84601e-06 -1.67811e-05 1.4449e-06)
(1.11816e-05 -1.17659e-05 1.19667e-06)
(1.34327e-05 -7.40695e-06 1.21251e-06)
(1.44708e-05 -3.77656e-06 1.35117e-06)
(1.33599e-05 -9.36905e-07 1.52651e-06)
(9.76546e-06 1.05269e-06 1.4337e-06)
(4.13775e-06 1.99802e-06 1.21029e-06)
(-2.77077e-06 1.57084e-06 9.56922e-07)
(-9.88252e-06 -4.75473e-07 7.12903e-07)
(-1.5852e-05 -4.35217e-06 4.9172e-07)
(-2.01031e-05 -9.55965e-06 4.12861e-07)
(-2.26238e-05 -1.50995e-05 5.31466e-07)
(-2.35082e-05 -2.02048e-05 7.73938e-07)
(-2.3062e-05 -2.40152e-05 1.058e-06)
(-2.15371e-05 -2.63166e-05 1.34922e-06)
(-1.90337e-05 -2.74643e-05 1.60227e-06)
(-1.56024e-05 -2.80475e-05 1.8504e-06)
(-1.14735e-05 -2.85841e-05 2.16133e-06)
(-7.18835e-06 -2.92257e-05 2.52878e-06)
(-3.42634e-06 -2.97487e-05 2.89423e-06)
(-4.03852e-07 -2.99087e-05 3.19857e-06)
(4.9056e-07 -2.8942e-05 3.55555e-06)
(6.10944e-06 -5.1764e-05 6.10944e-06)
(1.00103e-05 -5.34797e-05 5.37847e-06)
(7.76385e-06 -5.09205e-05 5.08018e-06)
(7.23089e-06 -4.81071e-05 4.66182e-06)
(6.19521e-06 -4.41554e-05 4.03311e-06)
(5.19085e-06 -3.91826e-05 3.25214e-06)
(4.96806e-06 -3.36896e-05 2.46303e-06)
(6.13384e-06 -2.81241e-05 1.84526e-06)
(8.76067e-06 -2.27801e-05 1.51068e-06)
(1.20752e-05 -1.7724e-05 1.43429e-06)
(1.48617e-05 -1.23659e-05 1.53883e-06)
(1.5991e-05 -6.78319e-06 1.64238e-06)
(1.47893e-05 -1.36461e-06 1.62446e-06)
(1.12095e-05 3.21337e-06 1.49978e-06)
(5.76869e-06 6.09108e-06 1.40001e-06)
(-5.43515e-07 6.45087e-06 1.22282e-06)
(-6.77745e-06 3.92982e-06 1.18586e-06)
(-1.2296e-05 -1.44854e-06 1.35817e-06)
(-1.68135e-05 -8.69582e-06 1.66213e-06)
(-2.02748e-05 -1.63681e-05 2.02056e-06)
(-2.26882e-05 -2.33312e-05 2.33478e-06)
(-2.40529e-05 -2.87831e-05 2.61819e-06)
(-2.41603e-05 -3.26173e-05 2.73492e-06)
(-2.26475e-05 -3.52852e-05 2.70962e-06)
(-1.94811e-05 -3.73614e-05 2.80731e-06)
(-1.51996e-05 -3.91111e-05 3.08513e-06)
(-1.0643e-05 -4.04322e-05 3.47734e-06)
(-6.56322e-06 -4.1042e-05 3.84109e-06)
(-3.27694e-06 -4.08792e-05 3.97199e-06)
(-9.1412e-07 -3.81215e-05 3.72191e-06)
(6.37691e-06 -7.23216e-05 6.37691e-06)
(1.01526e-05 -6.00151e-05 5.12231e-06)
(7.64036e-06 -5.8564e-05 4.58709e-06)
(7.55043e-06 -5.48849e-05 3.97629e-06)
(7.33155e-06 -4.99802e-05 3.33446e-06)
(7.46663e-06 -4.46817e-05 2.74606e-06)
(8.50433e-06 -3.95322e-05 2.34495e-06)
(1.07326e-05 -3.47583e-05 2.17871e-06)
(1.3782e-05 -3.00659e-05 2.26551e-06)
(1.66884e-05 -2.47171e-05 2.34132e-06)
(1.84437e-05 -1.80872e-05 2.45762e-06)
(1.82857e-05 -1.03504e-05 2.43743e-06)
(1.60463e-05 -2.4405e-06 2.23228e-06)
(1.21883e-05 4.25575e-06 1.95921e-06)
(7.30529e-06 8.32901e-06 1.90066e-06)
(1.99336e-06 8.88953e-06 1.94025e-06)
(-3.32219e-06 5.61935e-06 2.22785e-06)
(-8.56304e-06 -1.00655e-06 2.68747e-06)
(-1.36794e-05 -9.6472e-06 3.19755e-06)
(-1.85734e-05 -1.8613e-05 3.60868e-06)
(-2.30199e-05 -2.67448e-05 3.81038e-06)
(-2.64571e-05 -3.35796e-05 3.7857e-06)
(-2.81075e-05 -3.91934e-05 3.66364e-06)
(-2.75012e-05 -4.39738e-05 3.62836e-06)
(-2.48142e-05 -4.814e-05 3.75944e-06)
(-2.07657e-05 -5.14829e-05 3.96193e-06)
(-1.62577e-05 -5.3589e-05 4.12011e-06)
(-1.19629e-05 -5.4207e-05 4.0947e-06)
(-8.03029e-06 -5.35659e-05 3.74997e-06)
(-3.07984e-06 -5.01543e-05 2.99104e-06)
(5.00215e-06 -9.10762e-05 5.00215e-06)
(9.08991e-06 -6.60367e-05 3.75685e-06)
(9.15548e-06 -6.58911e-05 3.26633e-06)
(1.11108e-05 -6.16946e-05 2.79269e-06)
(1.32127e-05 -5.64014e-05 2.57854e-06)
(1.56029e-05 -5.1405e-05 2.58362e-06)
(1.84527e-05 -4.70341e-05 2.74796e-06)
(2.15018e-05 -4.30329e-05 3.01409e-06)
(2.39697e-05 -3.83719e-05 3.3249e-06)
(2.49985e-05 -3.20724e-05 3.51818e-06)
(2.41433e-05 -2.37189e-05 3.50466e-06)
(2.14805e-05 -1.39059e-05 3.30612e-06)
(1.75603e-05 -4.14919e-06 2.95462e-06)
(1.30991e-05 3.74751e-06 2.73798e-06)
(8.4368e-06 8.20115e-06 2.73752e-06)
(3.60347e-06 8.47681e-06 2.96065e-06)
(-1.4792e-06 4.67296e-06 3.42958e-06)
(-7.15346e-06 -2.4657e-06 3.93468e-06)
(-1.35279e-05 -1.13849e-05 4.38332e-06)
(-2.02249e-05 -2.06434e-05 4.57677e-06)
(-2.64951e-05 -2.94727e-05 4.51481e-06)
(-3.12892e-05 -3.77595e-05 4.32614e-06)
(-3.37657e-05 -4.56106e-05 4.19058e-06)
(-3.37103e-05 -5.30231e-05 4.17516e-06)
(-3.15787e-05 -5.95251e-05 4.23331e-06)
(-2.81682e-05 -6.43926e-05 4.22883e-06)
(-2.41212e-05 -6.70826e-05 4.02753e-06)
(-1.95806e-05 -6.7595e-05 3.57336e-06)
(-1.42303e-05 -6.67182e-05 2.92807e-06)
(-5.68122e-06 -6.50755e-05 2.24894e-06)
(3.26888e-06 -0.000105861 3.26888e-06)
(8.69046e-06 -7.39576e-05 2.54587e-06)
(1.34838e-05 -7.48551e-05 2.53932e-06)
(1.87922e-05 -7.05472e-05 2.44909e-06)
(2.41466e-05 -6.5538e-05 2.74114e-06)
(2.93706e-05 -6.1095e-05 3.12372e-06)
(3.39468e-05 -5.70911e-05 3.63263e-06)
(3.69246e-05 -5.27359e-05 4.15598e-06)
(3.75604e-05 -4.68084e-05 4.50309e-06)
(3.56383e-05 -3.86389e-05 4.62631e-06)
(3.14754e-05 -2.82453e-05 4.50127e-06)
(2.59852e-05 -1.67396e-05 4.11074e-06)
(2.0155e-05 -6.04866e-06 3.83149e-06)
(1.45817e-05 2.02967e-06 3.7416e-06)
(9.25342e-06 6.24889e-06 3.91275e-06)
(3.7146e-06 6.25124e-06 4.28216e-06)
(-2.44228e-06 2.46879e-06 4.68674e-06)
(-9.59604e-06 -4.29523e-06 5.04129e-06)
(-1.7701e-05 -1.26789e-05 5.24366e-06)
(-2.59549e-05 -2.1876e-05 5.23087e-06)
(-3.32626e-05 -3.16098e-05 5.09042e-06)
(-3.86383e-05 -4.18566e-05 4.95467e-06)
(-4.15234e-05 -5.23915e-05 4.89325e-06)
(-4.20046e-05 -6.24944e-05 4.86848e-06)
(-4.0591e-05 -7.10542e-05 4.76088e-06)
(-3.77471e-05 -7.71185e-05 4.45547e-06)
(-3.35158e-05 -8.03848e-05 3.93312e-06)
(-2.74979e-05 -8.13331e-05 3.33379e-06)
(-1.93034e-05 -8.14118e-05 3.01466e-06)
(-7.36668e-06 -8.37806e-05 3.13811e-06)
(2.85475e-06 -0.000118275 2.85475e-06)
(1.08e-05 -8.72435e-05 3.08219e-06)
(2.0605e-05 -8.85653e-05 3.34373e-06)
(2.98649e-05 -8.41307e-05 3.32871e-06)
(3.86946e-05 -7.93876e-05 3.71161e-06)
(4.64267e-05 -7.47787e-05 4.26646e-06)
(5.19515e-05 -6.97591e-05 4.88554e-06)
(5.42186e-05 -6.33473e-05 5.39504e-06)
(5.27735e-05 -5.47454e-05 5.66218e-06)
(4.79673e-05 -4.38682e-05 5.67881e-06)
(4.08392e-05 -3.14049e-05 5.47121e-06)
(3.27723e-05 -1.8871e-05 5.25084e-06)
(2.48339e-05 -8.1545e-06 5.15966e-06)
(1.72881e-05 -5.54153e-07 5.27688e-06)
(9.91111e-06 3.2756e-06 5.58593e-06)
(2.20952e-06 3.30122e-06 5.94195e-06)
(-6.34877e-06 -9.72693e-09 6.25201e-06)
(-1.58329e-05 -5.91188e-06 6.44526e-06)
(-2.57617e-05 -1.38036e-05 6.4276e-06)
(-3.51925e-05 -2.34065e-05 6.33048e-06)
(-4.31117e-05 -3.47008e-05 6.23868e-06)
(-4.88053e-05 -4.74242e-05 6.18816e-06)
(-5.20349e-05 -6.07359e-05 6.13936e-06)
(-5.29924e-05 -7.32407e-05 5.99277e-06)
(-5.18978e-05 -8.35557e-05 5.6788e-06)
(-4.86382e-05 -9.09226e-05 5.21314e-06)
(-4.27798e-05 -9.54794e-05 4.72906e-06)
(-3.38753e-05 -9.83651e-05 4.66082e-06)
(-2.20339e-05 -0.000100987 4.97762e-06)
(-7.775e-06 -0.000107297 5.36454e-06)
(4.18509e-06 -0.000133521 4.18509e-06)
(1.60314e-05 -0.000108568 4.6925e-06)
(3.03707e-05 -0.00010916 4.7831e-06)
(4.32576e-05 -0.000104222 4.97898e-06)
(5.49588e-05 -9.88579e-05 5.42161e-06)
(6.44169e-05 -9.27055e-05 5.96949e-06)
(7.03684e-05 -8.50298e-05 6.51115e-06)
(7.18865e-05 -7.50658e-05 6.91772e-06)
(6.8825e-05 -6.26949e-05 7.1286e-06)
(6.19349e-05 -4.86884e-05 7.1677e-06)
(5.26126e-05 -3.43358e-05 7.12522e-06)
(4.22601e-05 -2.1326e-05 7.14804e-06)
(3.1694e-05 -1.09948e-05 7.30224e-06)
(2.10916e-05 -3.96598e-06 7.54957e-06)
(1.02738e-05 -3.57446e-07 7.83714e-06)
(-1.0396e-06 -6.47769e-08 8.08109e-06)
(-1.2936e-05 -2.80267e-06 8.19623e-06)
(-2.51238e-05 -8.14383e-06 8.20665e-06)
(-3.69744e-05 -1.61514e-05 8.11043e-06)
(-4.76212e-05 -2.69458e-05 7.98607e-06)
(-5.62606e-05 -4.0414e-05 7.87453e-06)
(-6.24412e-05 -5.5821e-05 7.74578e-06)
(-6.60502e-05 -7.17305e-05 7.54647e-06)
(-6.70505e-05 -8.64294e-05 7.22736e-06)
(-6.51854e-05 -9.86916e-05 6.80093e-06)
(-5.99556e-05 -0.000108259 6.46724e-06)
(-5.10201e-05 -0.0001157 6.59145e-06)
(-3.84681e-05 -0.000122124 6.89847e-06)
(-2.32365e-05 -0.000127892 7.34113e-06)
(-7.61611e-06 -0.000135623 7.61067e-06)
(6.58056e-06 -0.000156569 6.58056e-06)
(2.2904e-05 -0.000138767 6.98627e-06)
(4.11908e-05 -0.000137454 7.08784e-06)
(5.74846e-05 -0.000131542 7.32572e-06)
(7.18396e-05 -0.00012447 7.73078e-06)
(8.28821e-05 -0.000115418 8.23017e-06)
(8.92788e-05 -0.000103682 8.70419e-06)
(9.03179e-05 -8.90944e-05 9.05129e-06)
(8.62554e-05 -7.24143e-05 9.26435e-06)
(7.80633e-05 -5.51744e-05 9.42834e-06)
(6.69907e-05 -3.90528e-05 9.59929e-06)
(5.41395e-05 -2.54697e-05 9.81316e-06)
(4.01884e-05 -1.51344e-05 1.004e-05)
(2.54659e-05 -8.14712e-06 1.02371e-05)
(1.01229e-05 -4.38874e-06 1.0363e-05)
(-5.64463e-06 -3.73204e-06 1.03639e-05)
(-2.14947e-05 -6.12519e-06 1.02614e-05)
(-3.68878e-05 -1.16311e-05 1.00805e-05)
(-5.10776e-05 -2.06067e-05 9.86076e-06)
(-6.3335e-05 -3.32733e-05 9.64429e-06)
(-7.31134e-05 -4.92139e-05 9.39816e-06)
(-8.00332e-05 -6.72481e-05 9.06636e-06)
(-8.37753e-05 -8.57063e-05 8.68367e-06)
(-8.39203e-05 -0.000103023 8.33654e-06)
(-8.00108e-05 -0.000118314 8.21215e-06)
(-7.16738e-05 -0.000131556 8.21213e-06)
(-5.89744e-05 -0.00014329 8.45499e-06)
(-4.29781e-05 -0.000153571 8.88875e-06)
(-2.54716e-05 -0.00016148 9.08918e-06)
(-8.3258e-06 -0.000168515 8.90158e-06)
(9.37853e-06 -0.000189761 9.37853e-06)
(3.05544e-05 -0.00017817 9.70359e-06)
(5.29716e-05 -0.000174469 9.85101e-06)
(7.29484e-05 -0.000166977 1.01858e-05)
(8.9988e-05 -0.000157167 1.0642e-05)
(0.000102574 -0.000144045 1.11316e-05)
(0.00010953 -0.000127214 1.15541e-05)
(0.000110453 -0.000107331 1.18659e-05)
(0.000105807 -8.6052e-05 1.20904e-05)
(9.65419e-05 -6.53845e-05 1.23139e-05)
(8.36036e-05 -4.70174e-05 1.25764e-05)
(6.77879e-05 -3.20121e-05 1.28024e-05)
(4.97709e-05 -2.06792e-05 1.29479e-05)
(3.01919e-05 -1.2903e-05 1.29623e-05)
(9.73191e-06 -8.5316e-06 1.28385e-05)
(-1.09437e-05 -7.54501e-06 1.26483e-05)
(-3.12018e-05 -1.00667e-05 1.24001e-05)
(-5.03257e-05 -1.64355e-05 1.20905e-05)
(-6.7531e-05 -2.70867e-05 1.17437e-05)
(-8.21173e-05 -4.20743e-05 1.13676e-05)
(-9.3511e-05 -6.07139e-05 1.098e-05)
(-0.000101196 -8.16473e-05 1.06058e-05)
(-0.000104612 -0.000103292 1.0275e-05)
(-0.000103181 -0.000124364 1.00652e-05)
(-9.65388e-05 -0.000144145 1.00653e-05)
(-8.48069e-05 -0.000162318 1.02869e-05)
(-6.88521e-05 -0.000178655 1.06235e-05)
(-5.02438e-05 -0.000191983 1.07596e-05)
(-3.05171e-05 -0.000200774 1.05474e-05)
(-1.03056e-05 -0.000207214 1.01817e-05)
(1.24344e-05 -0.000234335 1.24344e-05)
(3.9222e-05 -0.000227789 1.28246e-05)
(6.65802e-05 -0.000221607 1.31743e-05)
(9.06427e-05 -0.000211773 1.36805e-05)
(0.000110392 -0.000198119 1.41916e-05)
(0.000124357 -0.000179807 1.46199e-05)
(0.000131753 -0.000157086 1.49359e-05)
(0.000132636 -0.00013145 1.51279e-05)
(0.000127584 -0.000105144 1.52597e-05)
(0.00011723 -8.03446e-05 1.54191e-05)
(0.00010213 -5.86278e-05 1.56151e-05)
(8.29299e-05 -4.08706e-05 1.57343e-05)
(6.04704e-05 -2.73192e-05 1.57403e-05)
(3.578e-05 -1.7971e-05 1.56526e-05)
(9.96162e-06 -1.27373e-05 1.54923e-05)
(-1.59985e-05 -1.16196e-05 1.52905e-05)
(-4.12274e-05 -1.47778e-05 1.50281e-05)
(-6.483e-05 -2.26171e-05 1.46962e-05)
(-8.58731e-05 -3.55136e-05 1.43018e-05)
(-0.000103475 -5.33591e-05 1.3893e-05)
(-0.000116859 -7.53216e-05 1.35099e-05)
(-0.000125317 -0.000100081 1.3203e-05)
(-0.000128217 -0.000126187 1.3034e-05)
(-0.000125147 -0.000152429 1.3034e-05)
(-0.000116103 -0.000177866 1.3192e-05)
(-0.000101671 -0.000201529 1.33913e-05)
(-8.30699e-05 -0.00022208 1.33906e-05)
(-6.16469e-05 -0.000237688 1.30728e-05)
(-3.81274e-05 -0.000247308 1.26088e-05)
(-1.29917e-05 -0.000254163 1.24452e-05)
(1.60336e-05 -0.000291888 1.60336e-05)
(4.95417e-05 -0.00028964 1.66613e-05)
(8.26532e-05 -0.00028067 1.72135e-05)
(0.000111081 -0.000267314 1.77748e-05)
(0.000133521 -0.000248391 1.82284e-05)
(0.000148825 -0.000223759 1.85704e-05)
(0.000156847 -0.000194374 1.85954e-05)
(0.000157995 -0.000162432 1.85377e-05)
(0.000152626 -0.000130381 1.85843e-05)
(0.000140973 -0.000100351 1.87144e-05)
(0.000123366 -7.38922e-05 1.88577e-05)
(0.00010045 -5.20007e-05 1.89388e-05)
(7.3312e-05 -3.52178e-05 1.89676e-05)
(4.33068e-05 -2.3771e-05 1.89602e-05)
(1.17442e-05 -1.75803e-05 1.89174e-05)
(-2.02069e-05 -1.6524e-05 1.88193e-05)
(-5.13622e-05 -2.07275e-05 1.86078e-05)
(-8.04481e-05 -3.06104e-05 1.8284e-05)
(-0.000106177 -4.64624e-05 1.79021e-05)
(-0.000127385 -6.80549e-05 1.7541e-05)
(-0.000143111 -9.44594e-05 1.72623e-05)
(-0.000152603 -0.000124386 1.71195e-05)
(-0.000155374 -0.000156373 1.7108e-05)
(-0.000151257 -0.000189018 1.71726e-05)
(-0.000140528 -0.00022087 1.7226e-05)
(-0.000123974 -0.000250079 1.71067e-05)
(-0.000102616 -0.000274507 1.66716e-05)
(-7.71307e-05 -0.000292573 1.60305e-05)
(-4.77765e-05 -0.000304224 1.56437e-05)
(-1.61432e-05 -0.000311874 1.58234e-05)
(2.04517e-05 -0.000365087 2.04517e-05)
(6.18018e-05 -0.000366022 2.12447e-05)
(0.000101112 -0.000353289 2.18281e-05)
(0.000134144 -0.000334829 2.23749e-05)
(0.000159646 -0.00030911 2.27016e-05)
(0.000177068 -0.000276962 2.25476e-05)
(0.000186633 -0.000240125 2.23751e-05)
(0.000188561 -0.000201152 2.23466e-05)
(0.000182907 -0.000162404 2.24654e-05)
(0.000169661 -0.000125905 2.26662e-05)
(0.00014909 -9.3362e-05 2.28703e-05)
(0.000122001 -6.62096e-05 2.30613e-05)
(8.96977e-05 -4.5454e-05 2.32384e-05)
(5.36672e-05 -3.14499e-05 2.33995e-05)
(1.53253e-05 -2.40437e-05 2.3498e-05)
(-2.38337e-05 -2.30459e-05 2.34557e-05)
(-6.21175e-05 -2.85973e-05 2.32584e-05)
(-9.77435e-05 -4.11482e-05 2.29327e-05)
(-0.000129008 -6.08827e-05 2.25833e-05)
(-0.000154507 -8.73872e-05 2.22896e-05)
(-0.000173209 -0.000119591 2.21048e-05)
(-0.000184443 -0.000156075 2.20137e-05)
(-0.000187854 -0.00019519 2.19471e-05)
(-0.000183392 -0.000235189 2.18467e-05)
(-0.000171392 -0.000273942 2.16158e-05)
(-0.000152517 -0.000308825 2.11335e-05)
(-0.000127314 -0.000337581 2.03844e-05)
(-9.59445e-05 -0.000359362 1.97265e-05)
(-5.8974e-05 -0.000374587 1.96625e-05)
(-1.96928e-05 -0.000382822 2.00539e-05)
(2.56193e-05 -0.000457002 2.56193e-05)
(7.5655e-05 -0.000458666 2.6428e-05)
(0.000121595 -0.000440989 2.69989e-05)
(0.000160142 -0.000415619 2.70952e-05)
(0.000190171 -0.000381694 2.69667e-05)
(0.000211292 -0.000341016 2.68453e-05)
(0.000223528 -0.000296017 2.68696e-05)
(0.00022679 -0.000249145 2.70824e-05)
(0.00022078 -0.000202496 2.74156e-05)
(0.000205412 -0.000158137 2.77643e-05)
(0.000181156 -0.000118253 2.81134e-05)
(0.00014906 -8.48651e-05 2.84685e-05)
(0.000110534 -5.93502e-05 2.88266e-05)
(6.71103e-05 -4.20965e-05 2.91265e-05)
(2.04301e-05 -3.29498e-05 2.92902e-05)
(-2.74775e-05 -3.18754e-05 2.92431e-05)
(-7.42585e-05 -3.91294e-05 2.90213e-05)
(-0.000117588 -5.51409e-05 2.87152e-05)
(-0.000155413 -7.98897e-05 2.84207e-05)
(-0.000186185 -0.000112624 2.81865e-05)
(-0.00020887 -0.000152017 2.80131e-05)
(-0.000222798 -0.000196405 2.78331e-05)
(-0.000227543 -0.000243893 2.76058e-05)