/*--------------------------------*- C++ -*----------------------------------*\
| =========                 |                                                 |
| \\      /  F ield         | OpenFOAM: The Open Source CFD Toolbox           |
|  \\    /   O peration     | Version:  2312                                  |
|   \\  /    A nd           | Website:  www.openfoam.com                      |
|    \\/     M anipulation  |                                                 |
\*---------------------------------------------------------------------------*/
FoamFile
{
    version     2.0;
    format      ascii;
    arch        "LSB;label=32;scalar=64";
    class       surfaceScalarField;
    location    "1.0996775";
    object      alphaPhi0.water;
}
// * * * * * * * * * * * * * * * * * * * * * * * * * * * * * * * * * * * * * //

dimensions      [0 3 -1 0 0 0 0];

oriented        oriented;

internalField   nonuniform List<scalar> 
263100
(
-1.88407e-09
3.76796e-09
-1.88407e-09
-3.93018e-10
6.37843e-11
-1.48027e-09
-6.06831e-11
9.96817e-10
-1.27179e-09
2.42005e-10
8.62508e-10
-1.10882e-09
5.55073e-10
5.63256e-10
-8.18362e-10
9.80854e-10
1.46461e-10
-5.11019e-10
1.46682e-09
-2.3463e-10
-1.85254e-10
1.91797e-09
-4.53149e-10
7.43452e-11
2.16371e-09
-3.83698e-10
2.17797e-10
2.03396e-09
-3.05222e-11
2.48429e-10
1.55555e-09
4.68432e-10
1.06937e-10
8.10557e-10
1.03725e-09
-1.86497e-10
3.49103e-11
1.44787e-09
-5.58118e-10
-4.87825e-10
1.56757e-09
-9.23159e-10
-5.29539e-10
1.37823e-09
-1.2083e-09
-1.10906e-11
9.43531e-10
-1.32848e-09
9.17769e-10
3.88199e-10
-1.17966e-09
1.96398e-09
-6.56047e-11
-8.40827e-10
2.59839e-09
-2.12046e-10
-2.81873e-10
2.47811e-09
4.6599e-11
2.13127e-10
1.42446e-09
6.7585e-10
5.14497e-10
-6.29565e-10
1.57026e-09
6.16165e-10
-3.31178e-09
2.31143e-09
4.97573e-10
-5.96703e-09
2.58751e-09
1.87973e-10
-7.6377e-09
2.0347e-09
-2.50748e-10
-7.3444e-09
6.05317e-10
-7.92119e-10
-4.46671e-09
-1.46766e-09
-1.3095e-09
2.03545e-09
-3.67997e-09
-2.72617e-09
1.11594e-08
-4.5048e-09
-4.52557e-09
3.1951e-08
-2.07073e-08
-2.95544e-10
4.42409e-09
-2.95544e-10
-3.7744e-10
5.23718e-10
-2.44465e-10
-4.83299e-10
1.44447e-09
-2.24236e-10
-5.20913e-10
1.25407e-09
-2.34371e-10
-4.30376e-10
7.83287e-10
-1.85738e-10
-2.31076e-10
2.31662e-10
-1.52038e-10
1.28924e-10
-3.28138e-10
-1.24275e-10
6.00521e-10
-6.58346e-10
-1.12794e-10
1.11855e-09
-6.23258e-10
-1.12365e-10
1.60795e-09
-2.47405e-10
-9.3456e-11
2.01625e-09
2.58105e-10
-6.17023e-12
2.3172e-09
8.26374e-10
1.13584e-10
2.50743e-09
1.18111e-09
2.90616e-10
2.53641e-09
1.2242e-09
5.37263e-10
2.37534e-09
9.67363e-10
8.01636e-10
1.97815e-09
5.74739e-10
1.00045e-09
1.36177e-09
1.74311e-10
1.06733e-09
6.74459e-10
-1.08838e-10
9.67962e-10
-3.60548e-11
2.69686e-11
7.07057e-10
-6.97199e-10
5.6195e-10
3.77368e-10
-1.28247e-09
1.40866e-09
7.81829e-11
-1.8083e-09
2.4114e-09
-9.69612e-11
-2.22661e-09
3.08936e-09
-1.49595e-10
-2.35713e-09
2.95612e-09
-3.66435e-11
-2.25613e-09
1.81688e-09
3.10158e-10
-2.32929e-09
-1.52859e-10
1.01789e-09
-2.69738e-09
-3.06564e-09
2.14801e-09
-3.66438e-10
-9.84027e-09
4.00841e-09
9.1948e-09
-2.03069e-08
6.41387e-09
3.72181e-08
4.06841e-09
2.49579e-10
3.99084e-09
2.49579e-10
-3.66915e-10
1.33097e-09
-1.84313e-11
-7.47789e-10
2.03829e-09
-6.047e-11
-1.05376e-09
1.82996e-09
-1.1642e-10
-1.27876e-09
1.32896e-09
-1.64647e-10
-1.33251e-09
7.16583e-10
-2.7227e-10
-1.16451e-09
8.85939e-11
-4.22899e-10
-7.09751e-10
-3.97919e-10
-5.50675e-10
5.63804e-11
-6.18625e-10
-6.04136e-10
1.1108e-09
-5.81753e-10
-5.52144e-10
2.29384e-09
-3.80602e-10
-3.76145e-10
3.4267e-09
-1.08371e-10
-3.07096e-11
4.21742e-09
1.73188e-10
3.82873e-10
4.39524e-09
4.45205e-10
7.64433e-10
3.80949e-09
6.36621e-10
1.07704e-09
2.54895e-09
8.17527e-10
1.17571e-09
8.53339e-10
1.00829e-09
1.01748e-09
-9.24605e-10
1.21242e-09
6.11224e-10
-2.2636e-09
1.47782e-09
4.23307e-11
-2.88577e-09
1.77638e-09
-4.37289e-10
-2.59999e-09
2.13938e-09
-8.5965e-10
-1.4064e-09
2.44476e-09
-1.06712e-09
3.35256e-10
2.49624e-09
-9.8476e-10
2.2323e-09
1.9255e-09
-6.97971e-10
3.90192e-09
7.71448e-10
-4.50492e-10
4.81031e-09
-5.44206e-10
-3.37583e-10
2.87111e-09
-1.28187e-09
3.41176e-10
-2.98023e-09
-6.11775e-09
2.32164e-09
-2.40042e-09
-2.73486e-08
6.66703e-09
2.30929e-08
1.19128e-08
5.3809e-10
3.0124e-09
5.3809e-10
-1.40375e-10
1.95356e-09
3.00327e-10
-6.11943e-10
2.4804e-09
2.48679e-10
-1.03256e-09
2.33306e-09
1.36522e-10
-1.41857e-09
1.95997e-09
-2.67299e-11
-1.71794e-09
1.4085e-09
-1.77104e-10
-1.78941e-09
7.61037e-10
-3.90656e-10
-1.54818e-09
1.39534e-10
-5.75907e-10
-9.02855e-10
-3.88417e-10
-6.82675e-10
1.2475e-10
-7.60308e-10
-6.68308e-10
1.38964e-09
-9.56164e-10
-5.22475e-10
2.61671e-09
-9.27213e-10
-2.56419e-10
3.45927e-09
-6.09844e-10
7.69175e-11
3.68964e-09
4.87397e-11
2.87834e-10
3.13809e-09
9.22177e-10
3.74652e-10
1.90023e-09
1.87718e-09
2.76371e-10
2.48889e-10
2.74613e-09
4.61812e-12
-1.39322e-09
3.29919e-09
-3.56457e-10
-2.47821e-09
3.41449e-09
-7.61824e-10
-2.61267e-09
3.11092e-09
-1.104e-09
-1.5928e-09
2.53516e-09
-1.30914e-09
3.76678e-10
1.93419e-09
-1.33847e-09
2.86675e-09
1.31506e-09
-1.17196e-09
5.12777e-09
7.0449e-10
-8.85013e-10
6.59812e-09
2.9472e-11
-5.54932e-10
7.68009e-09
-7.5826e-10
-6.76741e-10
9.27568e-09
-3.66291e-10
-2.30417e-09
3.83933e-09
2.9249e-09
-3.38598e-09
-7.64288e-09
-1.31859e-08
-2.44818e-09
1.2197e-08
3.45227e-09
8.2197e-10
1.51186e-09
8.2197e-10
2.39232e-10
2.18714e-09
6.72211e-10
-6.51588e-11
2.47071e-09
6.07246e-10
-3.94831e-10
2.44386e-09
5.10481e-10
-7.87261e-10
2.28399e-09
3.55923e-10
-1.18342e-09
1.92101e-09
1.62773e-10
-1.49839e-09
1.3649e-09
-2.25063e-11
-1.64408e-09
6.95673e-10
-1.60928e-10
-1.52408e-09
2.82306e-11
-3.07731e-10
-1.12506e-09
-5.91793e-10
-3.6224e-10
-5.29162e-10
-1.02248e-09
-3.50022e-10
1.17211e-10
-1.11917e-09
-3.01541e-10
6.52716e-10
-7.48833e-10
-2.6992e-10
9.47407e-10
1.54107e-10
-2.9783e-10
8.97332e-10
1.47789e-09
-4.24474e-10
4.87731e-10
2.9499e-09
-5.98354e-10
-1.29506e-10
4.18198e-09
-7.64566e-10
-6.92691e-10
4.79077e-09
-8.78719e-10
-8.52733e-10
4.57933e-09
-9.52819e-10
-3.64786e-10
3.67473e-09
-9.90904e-10
7.81789e-10
2.46208e-09
-9.97808e-10
2.50575e-09
1.27002e-09
-9.64527e-10
4.35118e-09
4.94924e-10
-9.07094e-10
5.84376e-09
2.04144e-10
-8.49409e-10
6.34725e-09
4.47238e-10
-7.53837e-10
5.61602e-09
6.82802e-10
-5.19581e-10
5.25696e-09
9.42789e-10
-7.40464e-10
3.92054e-09
6.43278e-09
-1.94737e-09
-4.61684e-09
-9.74937e-10
-3.44137e-09
9.06971e-09
-1.29867e-09
7.93155e-10
1.17017e-10
7.93155e-10
6.82138e-10
1.9091e-09
7.71078e-10
7.7851e-10
1.97718e-09
7.46784e-10
7.90552e-10
2.07919e-09
6.99156e-10
6.26326e-10
2.16707e-09
6.20837e-10
2.93197e-10
2.06773e-09
5.13941e-10
-1.91793e-10
1.74779e-09
4.12386e-10
-7.97032e-10
1.24385e-09
3.45632e-10
-1.47543e-09
6.81566e-10
2.88203e-10
-2.12656e-09
8.35461e-11
2.10789e-10
-2.62586e-09
-3.56634e-10
3.87709e-11
-2.9203e-09
-5.21393e-10
-1.27855e-10
-2.88228e-09
-2.4317e-10
-3.96769e-10
-2.48066e-09
5.26508e-10
-6.52972e-10
-1.78568e-09
1.72321e-09
-8.41154e-10
-9.11995e-10
3.08969e-09
-9.3121e-10
1.29808e-11
4.18741e-09
-8.59386e-10
8.72208e-10
4.66565e-09
-6.68233e-10
1.68004e-09
4.27056e-09
-4.3228e-10
2.42862e-09
3.2144e-09
-2.15035e-10
3.15676e-09
1.91814e-09
-9.98306e-11
3.81714e-09
8.24812e-10
-1.16074e-10
4.34283e-09
3.28893e-10
-2.43616e-10
4.56324e-09
6.09444e-10
-4.91912e-10
4.34134e-09
1.7378e-09
-9.17773e-10
2.83123e-09
3.59623e-09
-1.23752e-09
6.29589e-10
4.62168e-09
-1.30014e-09
2.56296e-10
9.59259e-09
-2.603e-09
-3.38332e-09
7.17059e-09
-4.32205e-09
8.78306e-09
-2.95782e-09
2.96408e-10
-2.50509e-10
2.96408e-10
1.00934e-09
1.20105e-09
3.86972e-10
1.66971e-09
1.28903e-09
3.87482e-10
2.22106e-09
1.49048e-09
3.91694e-10
2.5235e-09
1.77674e-09
4.33438e-10
2.45362e-09
1.98896e-09
4.8106e-10
1.9289e-09
2.041e-09
5.47228e-10
9.03077e-10
1.9644e-09
6.01516e-10
-5.2432e-10
1.75612e-09
6.27875e-10
-2.19671e-09
1.455e-09
5.54038e-10
-3.85125e-09
1.15591e-09
3.73558e-10
-5.06663e-09
8.93292e-10
1.21265e-11
-5.53094e-09
7.68784e-10
-3.54062e-10
-5.09033e-09
9.01757e-10
-6.37241e-10
-3.80468e-09
1.36544e-09
-7.61096e-10
-1.92356e-09
2.02817e-09
-6.61585e-10
1.59391e-10
2.61884e-09
-3.62426e-10
2.06386e-09
2.83597e-09
7.33385e-11
3.48838e-09
2.57963e-09
4.12189e-10
4.26369e-09
1.87354e-09
7.09808e-10
4.36152e-09
1.04489e-09
9.18136e-10
3.92654e-09
4.92281e-10
9.08161e-10
3.11488e-09
5.73342e-10
7.04896e-10
1.95214e-09
1.53184e-09
3.73939e-10
7.04543e-10
3.22079e-09
-1.07125e-10
-6.43353e-10
5.8886e-09
-8.22812e-10
-2.64509e-09
8.16448e-09
-1.42749e-09
-1.95417e-09
1.1161e-08
-2.15544e-09
-2.531e-09
1.04805e-08
-2.64035e-09
7.82019e-09
-1.51379e-09
-6.74434e-10
1.32412e-09
-6.74434e-10
9.30587e-10
2.93651e-10
-3.66935e-10
2.26697e-09
6.01627e-10
-3.47384e-10
3.4685e-09
8.97695e-10
-3.15467e-10
4.3492e-09
1.37905e-09
-1.99191e-10
4.67961e-09
1.92943e-09
2.31931e-12
4.28506e-09
2.49498e-09
2.03088e-10
3.08572e-09
3.02315e-09
3.93768e-10
1.19222e-09
3.40169e-09
4.93834e-10
-1.12988e-09
3.55626e-09
4.62427e-10
-3.44991e-09
3.40247e-09
3.14251e-10
-5.24387e-09
2.85286e-09
7.79653e-11
-6.15002e-09
2.03665e-09
-1.12108e-10
-5.89639e-09
1.20283e-09
-2.96847e-10
-4.57443e-09
5.71943e-10
-2.61616e-10
-2.48384e-09
2.09062e-10
3.2508e-12
-7.20556e-11
1.84711e-10
3.01923e-10
2.0926e-09
2.45789e-10
7.05168e-10
3.58863e-09
2.46976e-10
1.11019e-09
4.17472e-09
7.57211e-11
1.47234e-09
3.89155e-09
-8.59669e-11
1.65466e-09
2.94073e-09
1.99836e-11
1.63741e-09
1.51968e-09
6.93898e-10
1.48332e-09
-2.01333e-10
2.1365e-09
1.26448e-09
-1.97989e-09
4.18605e-09
9.25674e-10
-3.0867e-09
6.69127e-09
3.81892e-10
-3.8227e-09
8.94682e-09
-1.82084e-13
-2.54105e-09
1.00418e-08
-1.43172e-10
-9.59807e-10
8.81458e-09
8.37045e-11
5.61222e-09
1.22661e-09
-1.55188e-09
4.60827e-09
-1.55188e-09
7.59442e-10
-6.05654e-10
-1.21057e-09
2.61429e-09
8.23937e-11
-1.15758e-09
4.26944e-09
4.01574e-10
-9.91492e-10
5.52577e-09
1.01333e-09
-7.31021e-10
6.16194e-09
1.88756e-09
-4.39127e-10
5.96158e-09
3.00683e-09
-1.55797e-10
4.87483e-09
4.22919e-09
4.30095e-11
3.05319e-09
5.22877e-09
1.7061e-10
7.71863e-10
5.79874e-09
2.35906e-10
-1.51713e-09
5.67028e-09
2.46247e-10
-3.38329e-09
4.75247e-09
2.25128e-10
-4.48915e-09
3.15829e-09
2.79766e-10
-4.70988e-09
1.34657e-09
4.09909e-10
-4.08692e-09
-2.55312e-10
5.71487e-10
-2.81599e-09
-1.4095e-09
7.42303e-10
-1.24627e-09
-1.99738e-09
1.0244e-09
2.1282e-10
-2.09985e-09
1.30322e-09
1.32723e-09
-1.94497e-09
1.48458e-09
1.89632e-09
-1.65657e-09
1.54606e-09
1.82699e-09
-1.2005e-09
1.52896e-09
1.13438e-09
-4.83641e-10
1.49239e-09
1.76895e-11
6.03366e-10
1.44666e-09
-1.28605e-09
2.25833e-09
1.361e-09
-2.55091e-09
4.33312e-09
1.23732e-09
-3.07817e-09
6.15402e-09
1.12941e-09
-2.57953e-09
7.21254e-09
1.25444e-09
-8.13886e-10
6.56124e-09
1.69971e-09
6.44007e-10
4.86715e-09
2.45467e-09
3.52173e-09
2.70243e-09
-1.80829e-09
8.31873e-09
-1.80829e-09
7.72262e-10
-1.81933e-09
-1.32448e-09
2.71866e-09
-7.09127e-10
-1.12763e-09
4.37733e-09
-4.10703e-10
-8.28569e-10
5.5553e-09
3.44205e-10
-4.93965e-10
6.11774e-09
1.53666e-09
-1.91475e-10
5.96303e-09
3.14951e-09
4.68786e-11
5.22647e-09
4.86251e-09
1.63376e-10
4.02807e-09
6.32591e-09
1.97457e-10
2.56824e-09
7.12098e-09
2.80173e-10
1.06898e-09
6.93923e-09
4.28047e-10
-2.74296e-10
5.71054e-09
6.44109e-10
-1.43172e-09
3.72385e-09
9.1388e-10
-2.35429e-09
1.46013e-09
1.1912e-09
-3.00321e-09
-5.8574e-10
1.41392e-09
-3.37455e-09
-2.10492e-09
1.54122e-09
-3.38661e-09
-2.93585e-09
1.44866e-09
-2.99569e-09
-3.18937e-09
1.20175e-09
-2.35105e-09
-3.0142e-09
9.13459e-10
-1.68119e-09
-2.54792e-09
6.77813e-10
-1.18141e-09
-1.82839e-09
5.36517e-10
-9.97702e-10
-7.96337e-10
4.78445e-10
-1.16345e-09
5.98112e-10
4.55703e-10
-1.45658e-09
2.30252e-09
4.68573e-10
-1.56332e-09
4.05395e-09
5.45325e-10
-1.04413e-09
5.00031e-09
7.43155e-10
1.64528e-10
4.80993e-09
1.26493e-09
1.29455e-09
3.66473e-09
1.81524e-09
1.18265e-09
2.99512e-09
2.02775e-09
3.59052e-09
1.17571e-09
-7.26936e-10
9.76738e-09
-7.26936e-10
1.15179e-09
-3.68314e-09
-9.51702e-11
2.30572e-09
-2.08854e-09
1.39901e-10
3.11164e-09
-1.6306e-09
3.25768e-10
3.53078e-09
-6.80958e-10
5.24298e-10
3.56238e-09
7.993e-10
6.41109e-10
3.38461e-09
2.66976e-09
6.21541e-10
3.19565e-09
4.58177e-09
4.74389e-10
3.10918e-09
6.10879e-09
3.6065e-10
3.07421e-09
6.94334e-09
3.32035e-10
2.927e-09
6.77835e-09
4.97012e-10
2.42963e-09
5.66411e-09
8.05329e-10
1.40063e-09
3.96208e-09
1.12293e-09
-2.55403e-10
2.23926e-09
1.27242e-09
-2.19078e-09
5.25797e-10
1.27027e-09
-4.10048e-09
-7.17173e-10
1.00288e-09
-5.53131e-09
-1.52725e-09
5.18814e-10
-6.14553e-09
-2.02332e-09
-5.90496e-11
-5.95881e-09
-2.29629e-09
-4.33632e-10
-5.10993e-09
-2.23957e-09
-7.22381e-10
-3.93377e-09
-1.73218e-09
-8.83003e-10
-2.77894e-09
-7.70007e-10
-8.4076e-10
-1.83799e-09
6.6937e-10
-7.18474e-10
-9.55811e-10
2.21837e-09
-5.43807e-10
4.58359e-11
3.5154e-09
-2.37829e-10
1.21046e-09
3.91243e-09
1.32021e-10
2.10453e-09
3.66018e-09
4.60786e-10
1.9094e-09
3.51544e-09
5.58114e-10
7.11607e-10
4.43454e-09
-8.82139e-12
5.07079e-09
-5.26294e-10
1.31193e-09
7.07154e-09
1.31193e-09
1.21824e-09
-5.28289e-09
1.59075e-09
6.85483e-10
-3.58256e-09
1.92797e-09
-1.10694e-10
-2.83793e-09
1.91419e-09
-9.8612e-10
-1.64188e-09
1.76555e-09
-1.62134e-09
5.18053e-11
1.33998e-09
-1.73624e-09
2.02432e-09
7.55419e-10
-1.078e-09
3.75546e-09
2.10109e-10
2.2124e-10
5.09109e-09
-1.84621e-10
1.78919e-09
5.8233e-09
-2.90862e-10
3.10785e-09
5.89416e-09
-2.15696e-10
3.55038e-09
5.58098e-09
-8.18755e-11
2.79553e-09
5.02132e-09
2.42427e-11
1.00692e-09
4.42727e-09
-3.15322e-11
-1.5731e-09
3.77598e-09
-2.7802e-10
-4.28394e-09
3.11892e-09
-7.25452e-10
-6.48039e-09
2.31601e-09
-1.25538e-09
-7.58446e-09
1.15995e-09
-1.70951e-09
-7.51931e-09
5.73497e-11
-2.0795e-09
-6.50578e-09
-7.77206e-10
-2.16952e-09
-4.97045e-09
-9.98799e-10
-1.99118e-09
-3.2707e-09
-5.34677e-10
-1.67651e-09
-1.60019e-09
5.37065e-10
-1.28478e-09
2.37711e-11
1.70938e-09
-8.51234e-10
1.5817e-09
2.67441e-09
-4.28449e-10
2.70799e-09
3.15898e-09
-4.83666e-11
2.86852e-09
3.73741e-09
1.29191e-10
1.85971e-09
5.01848e-09
-8.4053e-11
7.2931e-10
6.42739e-09
-4.14406e-10
6.12381e-09
9.41934e-11
3.41892e-09
1.6471e-10
3.41892e-09
3.73144e-10
-5.36114e-09
3.11986e-09
-2.31193e-09
-3.74244e-09
2.84961e-09
-4.77111e-09
-2.53921e-09
2.18698e-09
-6.78e-09
-9.69417e-10
1.39065e-09
-7.8634e-09
7.99502e-10
4.2252e-10
-7.64681e-09
2.34557e-09
-4.14502e-10
-6.11198e-09
3.45798e-09
-1.07524e-09
-3.49863e-09
4.22934e-09
-1.55037e-09
-4.7795e-10
4.70788e-09
-1.66796e-09
2.01241e-09
5.24882e-09
-1.57824e-09
3.26822e-09
6.08908e-09
-1.47767e-09
3.01992e-09
7.0783e-09
-1.51564e-09
1.46668e-09
8.02656e-09
-1.76016e-09
-8.86418e-10
8.55409e-09
-2.15975e-09
-3.32182e-09
8.35082e-09
-2.56298e-09
-5.1683e-09
7.21627e-09
-2.8587e-09
-6.12036e-09
5.26138e-09
-2.99326e-09
-6.03917e-09
3.00285e-09
-2.9029e-09
-5.22822e-09
1.12537e-09
-2.60831e-09
-3.99713e-09
3.41923e-11
-2.15809e-09
-2.48601e-09
-2.27741e-10
-1.68908e-09
-7.97907e-10
2.54216e-10
-1.23151e-09
9.30628e-10
1.01265e-09
-7.95215e-10
2.41344e-09
1.86825e-09
-3.65662e-10
3.22379e-09
2.77195e-09
-3.49232e-11
3.03033e-09
4.23465e-09
1.55525e-10
2.22334e-09
6.06125e-09
2.79255e-10
1.58376e-09
6.87624e-09
7.38086e-10
6.688e-09
1.4788e-09
3.78878e-09
-7.40333e-09
3.78878e-09
-1.75323e-09
-1.69477e-09
2.04297e-09
-6.09604e-09
-5.17708e-10
1.29095e-09
-9.45035e-09
8.1565e-10
1.98412e-10
-1.1808e-08
2.26148e-09
-6.47476e-10
-1.26355e-08
3.32459e-09
-1.44718e-09
-1.17648e-08
3.93508e-09
-2.1887e-09
-9.27071e-09
3.81189e-09
-2.5617e-09
-5.75928e-09
3.5886e-09
-2.57851e-09
-2.13648e-09
3.79852e-09
-2.42731e-09
6.84601e-10
4.92381e-09
-2.22968e-09
2.35932e-09
6.82474e-09
-2.17818e-09
2.63655e-09
9.31918e-09
-2.33354e-09
1.87951e-09
1.1506e-08
-2.59609e-09
5.66895e-10
1.27286e-08
-2.79991e-09
-7.90339e-10
1.26005e-08
-2.89414e-09
-1.82834e-09
1.10209e-08
-2.82358e-09
-2.42959e-09
8.30766e-09
-2.54092e-09
-2.68538e-09
5.2741e-09
-2.12714e-09
-2.64305e-09
2.68993e-09
-1.70703e-09
-2.34008e-09
1.07521e-09
-1.40456e-09
-1.67132e-09
3.07223e-10
-1.2e-09
-5.67008e-10
3.10699e-10
-1.07487e-09
7.9424e-10
8.07231e-10
-9.79232e-10
2.00027e-09
1.76741e-09
-8.40157e-10
2.57621e-09
3.23509e-09
-6.98327e-10
2.59396e-09
5.14865e-09
-5.36782e-10
2.50512e-09
6.65022e-09
-7.85941e-11
1.74256e-09
7.41076e-09
6.4432e-10
8.61303e-09
1.03404e-10
1.41851e-09
-1.01173e-08
1.41851e-09
-4.70301e-09
5.32905e-09
-5.90276e-10
-9.03366e-09
5.35276e-09
-1.2352e-09
-1.20075e-08
6.15194e-09
-2.0417e-09
-1.36015e-08
6.84021e-09
-2.65198e-09
-1.35614e-08
6.52823e-09
-2.9066e-09
-1.17856e-08
5.28384e-09
-2.79367e-09
-8.84712e-09
3.65087e-09
-2.46725e-09
-5.50329e-09
2.50633e-09
-1.98742e-09
-2.47636e-09
2.59935e-09
-1.607e-09
-1.94515e-10
4.16852e-09
-1.37569e-09
1.20731e-09
6.92447e-09
-1.43425e-09
1.97362e-09
1.01818e-08
-1.65342e-09
2.31792e-09
1.28847e-08
-1.83998e-09
2.42958e-09
1.42512e-08
-1.8357e-09
2.40391e-09
1.39846e-08
-1.62681e-09
2.16734e-09
1.21433e-08
-1.19525e-09
1.57669e-09
9.26359e-09
-6.83751e-10
6.59129e-10
6.23262e-09
-3.34352e-10
-4.48159e-10
3.76895e-09
-2.08874e-10
-1.3416e-09
2.1388e-09
-3.27393e-10
-1.6757e-09
1.26774e-09
-6.91547e-10
-1.30264e-09
1.03898e-09
-1.07546e-09
-4.70928e-10
1.44424e-09
-1.36593e-09
4.23756e-10
2.5907e-09
-1.56291e-09
9.81208e-10
4.51288e-09
-1.65853e-09
1.25887e-09
6.5883e-09
-1.55033e-09
1.09876e-09
8.21681e-09
-1.27684e-09
4.7326e-11
1.00363e-08
-1.50216e-09
1.09701e-08
-2.35532e-09
-1.56841e-09
-6.7783e-09
-1.56841e-09
-6.4079e-09
1.36466e-08
-3.14061e-09
-9.34099e-09
1.19092e-08
-3.3101e-09
-1.09082e-08
1.14715e-08
-3.44276e-09
-1.10566e-08
1.04051e-08
-3.1172e-09
-9.84985e-09
8.16796e-09
-2.56881e-09
-7.78944e-09
5.26699e-09
-1.80106e-09
-5.54971e-09
2.60933e-09
-1.00772e-09
-3.59268e-09
1.02356e-09
-3.54365e-10
-2.16126e-09
1.26451e-09
-6.49868e-11
-1.22655e-09
3.30943e-09
-1.4649e-10
-2.90432e-10
6.2856e-09
-4.77672e-10
9.07471e-10
9.55287e-09
-8.56723e-10
2.35195e-09
1.20305e-08
-9.72219e-10
3.75803e-09
1.31714e-08
-7.77747e-10
4.73229e-09
1.28352e-08
-3.12072e-10
4.94499e-09
1.12411e-08
2.06564e-10
4.1361e-09
9.01986e-09
6.14381e-10
2.49259e-09
6.79684e-09
7.2e-10
5.69722e-10
4.94479e-09
4.89188e-10
-9.53413e-10
3.51308e-09
-1.30488e-12
-1.75643e-09
2.41905e-09
-4.0254e-10
-1.81872e-09
1.79492e-09
-6.80278e-10
-1.49225e-09
1.98991e-09
-8.3118e-10
-1.25552e-09
3.34565e-09
-9.67491e-10
-1.14283e-09
5.43945e-09
-1.07179e-09
-1.13316e-09
7.55267e-09
-1.0913e-09
-1.52916e-09
9.7687e-09
-1.36861e-09
-1.79112e-09
1.19862e-08
-1.98735e-09
1.02641e-08
-1.41916e-09
-3.75334e-09
9.22983e-10
-3.75334e-09
-5.80214e-09
1.98708e-08
-3.9453e-09
-6.68155e-09
1.6417e-08
-3.4327e-09
-6.47968e-09
1.44357e-08
-2.99192e-09
-5.35186e-09
1.16165e-08
-2.19102e-09
-3.80105e-09
7.98807e-09
-1.25755e-09
-2.42885e-09
4.34235e-09
-3.823e-10
-1.74606e-09
1.74202e-09
1.856e-10
-1.76056e-09
5.30758e-10
4.27263e-10
-2.16625e-09
1.32207e-09
1.72798e-10
-2.31236e-09
3.52918e-09
-3.5227e-10
-1.65171e-09
6.16749e-09
-9.22997e-10
-5.59867e-11
8.64282e-09
-1.15469e-09
2.09598e-09
1.04089e-08
-1.06264e-09
4.17559e-09
1.11818e-08
-6.49473e-10
5.48688e-09
1.10535e-08
-7.35839e-11
5.66154e-09
1.0264e-08
3.16705e-10
4.68238e-09
9.12625e-09
4.81437e-10
3.00403e-09
7.79015e-09
4.10764e-10
1.27271e-09
6.31617e-09
2.06747e-10
3.51677e-11
4.68696e-09
1.51012e-11
-5.98047e-10
3.04124e-09
3.19875e-11
-9.73984e-10
1.94968e-09
2.6371e-10
-1.51224e-09
1.98279e-09
5.57709e-10
-2.16224e-09
3.25058e-09
6.81946e-10
-2.70654e-09
5.09659e-09
7.19104e-10
-3.03074e-09
6.99098e-09
6.05363e-10
-2.99544e-09
8.9545e-09
4.02545e-10
-1.52543e-09
9.49916e-09
5.84394e-10
6.2457e-09
2.13993e-09
-3.67347e-09
8.37623e-09
-3.67347e-09
-3.24849e-09
2.24531e-08
-2.94133e-09
-2.55733e-09
1.82788e-08
-2.51347e-09
-1.38707e-09
1.5269e-08
-1.98287e-09
-1.57363e-11
1.15799e-08
-1.33348e-09
1.02447e-09
7.61966e-09
-6.95726e-10
1.27442e-09
4.35475e-09
-3.21537e-10
5.3411e-10
2.58241e-09
-2.07449e-10
-8.68759e-10
2.25222e-09
-4.86974e-10
-2.132e-09
3.24208e-09
-8.95319e-10
-2.57521e-09
4.90688e-09
-1.24529e-09
-1.86249e-09
6.40136e-09
-1.3214e-09
-1.60971e-10
7.63672e-09
-1.11547e-09
1.96755e-09
8.44929e-09
-6.04654e-10
3.75004e-09
8.98271e-09
1.13834e-12
4.7301e-09
9.41478e-09
3.00775e-10
4.77121e-09
9.52756e-09
4.26353e-10
4.10222e-09
9.26141e-09
3.72781e-10
3.16478e-09
8.43376e-09
2.42844e-10
2.36412e-09
6.93075e-09
2.28559e-10
1.76343e-09
4.98766e-09
4.02689e-10
1.10357e-09
3.09966e-09
7.20774e-10
-6.13334e-13
2.16838e-09
9.76592e-10
-1.42814e-09
2.42271e-09
1.0143e-09
-2.6995e-09
3.57252e-09
8.92637e-10
-3.31111e-09
4.74722e-09
8.22909e-10
-3.15235e-09
5.73716e-09
8.9846e-10
-1.97701e-09
6.2631e-09
1.29971e-09
-2.17747e-10
5.33111e-09
2.22135e-09
4.17598e-09
1.81374e-09
-2.69892e-09
1.37783e-08
-2.69892e-09
-8.61496e-10
2.2561e-08
-1.97572e-09
5.8566e-10
1.86454e-08
-1.84765e-09
1.92259e-09
1.54176e-08
-1.51624e-09
3.14009e-09
1.15116e-08
-1.17476e-09
3.65017e-09
7.96732e-09
-8.8079e-10
3.19002e-09
5.46418e-09
-6.76728e-10
1.98435e-09
4.31493e-09
-5.67785e-10
4.3327e-10
4.27353e-09
-5.33014e-10
-8.25776e-10
4.88816e-09
-4.76365e-10
-1.28818e-09
5.44965e-09
-1.94063e-10
-7.73999e-10
5.54694e-09
2.11906e-10
3.34678e-10
5.69684e-09
7.05894e-10
1.4514e-09
6.07498e-09
1.15804e-09
2.22485e-09
6.7438e-09
1.4151e-09
2.59855e-09
7.70076e-09
1.35783e-09
2.7248e-09
8.42388e-09
1.07195e-09
2.82917e-09
8.52489e-09
7.9941e-10
2.93366e-09
7.86833e-09
6.8255e-10
2.86026e-09
6.48216e-09
7.67809e-10
2.28375e-09
4.87971e-09
9.1981e-10
8.78855e-10
3.81116e-09
8.87515e-10
-1.07684e-09
3.80532e-09
4.54049e-10
-2.81839e-09
4.53312e-09
-2.9015e-10
-3.63307e-09
5.35294e-09
-9.20434e-10
-3.3495e-09
5.54963e-09
-1.03499e-09
-2.28406e-09
5.66851e-09
-8.95199e-10
-8.64778e-10
5.71874e-09
-6.83459e-10
-3.43736e-10
5.95435e-09
-8.38421e-10
6.64916e-09
-2.40154e-09
-1.81321e-09
1.73691e-08
-1.81321e-09
4.11901e-10
2.16723e-08
-1.33545e-09
2.19972e-09
1.81779e-08
-1.30359e-09
3.81465e-09
1.48074e-08
-9.6336e-10
5.02312e-09
1.09114e-08
-5.40242e-10
5.37487e-09
7.72875e-09
-2.04391e-11
4.87374e-09
5.76658e-09
3.11748e-10
3.74601e-09
4.95874e-09
6.12144e-10
2.42966e-09
4.81206e-09
9.17902e-10
1.44897e-09
4.68709e-09
1.33378e-09
8.61639e-10
4.32978e-09
1.87547e-09
4.45577e-10
3.64389e-09
2.51193e-09
-4.10543e-11
3.47226e-09
2.93892e-09
-5.43728e-10
4.01658e-09
2.83303e-09
-8.61519e-10
5.12762e-09
2.25459e-09
-6.40414e-10
6.3016e-09
1.54366e-09
8.80366e-11
7.14893e-09
9.43902e-10
1.12475e-09
7.23905e-09
6.55649e-10
1.90253e-09
6.82075e-09
6.5689e-10
1.83989e-09
6.14391e-09
7.40643e-10
5.52513e-10
5.82566e-09
6.14433e-10
-1.49752e-09
6.08412e-09
-1.94198e-11
-3.53259e-09
6.9347e-09
-9.4132e-10
-4.49686e-09
7.21137e-09
-1.57124e-09
-3.97532e-09
6.59703e-09
-1.57986e-09
-2.69088e-09
5.93468e-09
-1.38658e-09
-1.47907e-09
6.23067e-09
-1.35385e-09
-9.20823e-10
7.3866e-09
-1.65504e-09
-1.24061e-09
9.66204e-09
-2.6859e-09
8.707e-09
-2.62764e-09
-9.64121e-10
1.93035e-08
-9.6412e-10
1.681e-09
1.9513e-08
-3.7957e-10
3.606e-09
1.63763e-08
-6.28472e-12
5.31828e-09
1.27494e-08
4.85299e-10
6.38188e-09
8.9957e-09
1.01344e-09
6.63603e-09
6.17467e-09
1.48073e-09
6.12937e-09
4.64533e-09
1.82681e-09
5.17159e-09
3.92531e-09
2.20857e-09
4.05183e-09
3.57649e-09
2.59429e-09
2.92276e-09
3.17102e-09
2.91121e-09
1.54717e-09
2.83471e-09
3.17051e-09
-2.51854e-10
2.76659e-09
3.01571e-09
-2.09198e-09
3.2873e-09
2.40622e-09
-3.46187e-09
4.29089e-09
1.51425e-09
-3.95536e-09
5.57204e-09
4.93519e-10
-3.22168e-09
6.13567e-09
-1.16729e-10
-1.68922e-09
6.33405e-09
-2.85401e-10
-2.47564e-10
6.39328e-09
-2.0937e-10
3.18509e-10
6.61419e-09
-4.07014e-11
-4.16333e-10
7.24722e-09
-1.28432e-10
-2.02401e-09
8.25648e-09
-6.55535e-10
-3.76429e-09
9.29771e-09
-1.35167e-09
-4.44248e-09
9.29628e-09
-1.56369e-09
-3.72115e-09
7.86508e-09
-1.20476e-09
-2.37226e-09
5.94503e-09
-4.26594e-10
-1.47936e-09
5.27549e-09
1.68736e-10
-1.12128e-09
6.22637e-09
1.85932e-10
-1.17976e-09
8.37717e-09
-2.80109e-10
-8.13861e-10
1.0769e-08
-7.64522e-10
8.31321e-09
1.18422e-10
3.34414e-10
1.87087e-08
3.34414e-10
3.11031e-09
1.5868e-08
1.0489e-09
5.07184e-09
1.30874e-08
1.48936e-09
6.43443e-09
9.50448e-09
2.03844e-09
6.90848e-09
6.13671e-09
2.53164e-09
6.48436e-09
3.96662e-09
2.76839e-09
5.56053e-09
2.94379e-09
2.75418e-09
4.48759e-09
2.57985e-09
2.54709e-09
3.30758e-09
2.56508e-09
2.33047e-09
1.80371e-09
2.72015e-09
2.11536e-09
-1.63645e-10
3.19687e-09
1.79656e-09
-2.47739e-09
4.20593e-09
1.10051e-09
-4.57306e-09
5.49528e-09
1.44719e-10
-5.5758e-09
6.15091e-09
-5.81339e-10
-5.10707e-09
6.16961e-09
-7.91288e-10
-3.52738e-09
5.51752e-09
-7.1251e-10
-1.77834e-09
5.09032e-09
-3.062e-10
-9.5533e-10
5.69402e-09
7.05886e-12
-1.3446e-09
7.1473e-09
-8.77352e-11
-2.62084e-09
9.17484e-09
-6.59078e-10
-3.88939e-09
1.08131e-08
-1.33026e-09
-4.05659e-09
1.09769e-08
-1.54478e-09
-2.9044e-09
9.17868e-09
-1.01025e-09
-1.42303e-09
6.31344e-09
1.9104e-10
-7.17209e-10
4.58136e-09
8.92124e-10
-9.05394e-10
4.93963e-09
8.59526e-10
-1.17559e-09
6.31449e-09
5.8048e-10
-1.01704e-09
7.92054e-09
7.05832e-10
-3.7246e-11
9.17433e-09
9.74712e-10
7.83509e-09
6.00712e-10
1.51045e-09
1.57888e-08
1.51045e-09
4.16766e-09
1.10828e-08
2.31555e-09
5.7431e-09
8.88913e-09
2.76457e-09
6.25536e-09
6.07766e-09
3.02125e-09
5.67643e-09
3.84646e-09
2.93598e-09
4.44555e-09
2.71288e-09
2.51164e-09
3.19264e-09
2.23972e-09
1.95082e-09
2.10913e-09
2.15404e-09
1.48217e-09
1.0454e-09
2.42136e-09
1.1747e-09
-4.03929e-10
3.2318e-09
9.14466e-10
-2.31478e-09
4.57567e-09
5.2958e-10
-4.18531e-09
6.00703e-09
9.17992e-11
-5.20619e-09
6.71732e-09
-1.58403e-10
-4.96871e-09
6.08887e-09
-1.25794e-10
-3.64551e-09
4.58698e-09
2.96203e-10
-2.1172e-09
3.20051e-09
7.90784e-10
-1.46054e-09
3.06985e-09
1.31162e-09
-1.94737e-09
4.75724e-09
1.30676e-09
-3.21828e-09
7.65237e-09
5.88442e-10
-4.21211e-09
1.02263e-08
-2.74027e-10
-4.06113e-09
1.10132e-08
-5.69288e-10
-2.63275e-09
9.38423e-09
-1.09106e-11
-8.98058e-10
6.46748e-09
8.83743e-10
-2.91102e-10
4.24846e-09
1.46662e-09
-1.02314e-09
4.15951e-09
1.25333e-09
-1.9446e-09
5.54967e-09
4.6149e-10
-2.09739e-09
6.5835e-09
2.60639e-11
-1.46913e-09
7.25579e-09
1.14948e-10
-4.23667e-10
8.12441e-09
-1.28752e-11
6.95824e-09
3.26849e-10
2.43571e-09
1.10081e-08
2.43571e-09
4.27652e-09
6.572e-09
2.87905e-09
5.12943e-09
5.19158e-09
3.00459e-09
4.74519e-09
3.73638e-09
2.84485e-09
3.46511e-09
2.79641e-09
2.39909e-09
2.00494e-09
2.34405e-09
1.84397e-09
7.90339e-10
2.03489e-09
1.38496e-09
-1.30604e-10
1.82352e-09
1.17925e-09
-1.04487e-09
2.14166e-09
1.10027e-09
-2.26189e-09
3.33206e-09
1.01902e-09
-3.53093e-09
4.93155e-09
8.26188e-10
-4.28241e-09
6.03526e-09
6.56381e-10
-3.97348e-09
5.62538e-09
7.38022e-10
-2.70309e-09
3.66333e-09
1.12559e-09
-1.3463e-09
1.453e-09
1.74948e-09
-1.00054e-09
5.9766e-10
2.21253e-09
-1.79668e-09
1.84727e-09
1.93837e-09
-3.1033e-09
4.77757e-09
1.1568e-09
-3.99655e-09
8.04004e-09
3.25247e-10
-3.59579e-09
9.31455e-09
2.93523e-10
-1.8955e-09
8.17584e-09
9.10442e-10
-1.63732e-10
5.54643e-09
1.90538e-09
1.20616e-10
3.24272e-09
2.79592e-09
-1.32402e-09
3.01304e-09
2.60406e-09
-2.91531e-09
4.09e-09
1.64148e-09
-3.60185e-09
5.12974e-09
1.11108e-09
-3.45568e-09
5.59756e-09
8.25044e-10
-2.45992e-09
5.57646e-09
6.12473e-10
-2.84545e-10
4.77697e-09
1.03473e-09
3.68823e-09
2.84954e-09
2.6076e-09
5.90933e-09
2.6076e-09
3.66979e-09
2.93763e-09
2.89549e-09
3.87064e-09
2.41362e-09
2.86168e-09
3.01694e-09
2.26307e-09
2.57465e-09
1.55918e-09
2.31089e-09
2.13293e-09
1.15541e-10
2.1595e-09
1.74668e-09
-1.02837e-09
1.7084e-09
1.51567e-09
-1.98837e-09
1.32576e-09
1.43846e-09
-3.05657e-09
1.82788e-09
1.31517e-09
-4.05054e-09
3.18637e-09
1.0479e-09
-4.46791e-09
4.58703e-09
6.69267e-10
-3.92855e-09
4.91176e-09
5.1264e-10
-2.44683e-09
3.38339e-09
7.2568e-10
-9.22702e-10
9.94297e-10
1.15332e-09
-4.21033e-10
-4.60252e-10
1.45719e-09
-1.08627e-09
1.82859e-10
1.14556e-09
-2.19675e-09
2.63826e-09
3.80235e-10
-2.70703e-09
5.42111e-09
-1.01474e-10
-1.83735e-09
7.00089e-09
1.57085e-10
1.07312e-10
6.3189e-09
9.94759e-10
1.87916e-09
4.02224e-09
2.29792e-09
1.9218e-09
2.18925e-09
3.2288e-09
5.08077e-11
1.90792e-09
3.14206e-09
-2.31651e-09
3.15579e-09
2.19322e-09
-3.61944e-09
3.51228e-09
1.87533e-09
-3.75957e-09
2.93507e-09
2.34087e-09
-3.70572e-09
3.31163e-09
2.23445e-09
-1.83837e-09
1.99074e-09
1.70446e-09
1.39622e-09
-1.87621e-09
3.3872e-09
5.16706e-10
4.57078e-09
2.55562e-09
1.01349e-09
2.55562e-09
2.79105e-09
4.95304e-10
2.66159e-09
2.43557e-09
7.74938e-10
2.39711e-09
1.43989e-09
1.6065e-09
1.99512e-09
8.91553e-11
2.37909e-09
1.53511e-09
-1.19882e-09
2.40252e-09
1.18921e-09
-2.38355e-09
1.96029e-09
9.65809e-10
-3.67804e-09
1.8442e-09
7.09399e-10
-4.85014e-09
2.50767e-09
3.50042e-10
-5.5701e-09
3.85678e-09
-1.35185e-10
-5.16594e-09
4.2766e-09
-2.83026e-10
-3.5164e-09
2.99767e-09
1.07248e-10
-1.51977e-09
7.66772e-10
5.23489e-10
-2.52267e-10
-1.25252e-09
9.5797e-10
-2.57831e-10
-1.41612e-09
1.01123e-09
-8.71185e-10
2.26153e-10
6.69738e-10
-9.83573e-10
2.41581e-09
4.53043e-10
1.85062e-10
3.66809e-09
6.91545e-10
2.28543e-09
3.49033e-09
1.49114e-09
4.0612e-09
2.04003e-09
2.56323e-09
3.89021e-09
1.18534e-09
3.06799e-09
2.09912e-09
1.34237e-09
2.72114e-09
-3.95623e-10
2.65728e-09
1.86292e-09
-2.16157e-09
4.02625e-09
1.03617e-09
-2.4634e-09
2.82771e-09
1.12051e-09
-2.25796e-09
9.84864e-10
1.84782e-09
-1.90694e-09
7.87635e-10
2.2453e-09
-2.9524e-10
-2.13423e-09
2.57257e-09
9.83025e-10
-6.15725e-09
3.06926e-09
1.29134e-09
3.00445e-10
1.95114e-09
-2.58825e-09
1.95114e-09
1.50058e-09
-2.87252e-10
1.64111e-09
8.60407e-10
6.16061e-10
1.11501e-09
-4.33133e-11
2.17582e-09
5.46678e-10
-9.31521e-10
3.16581e-09
1.89436e-10
-1.93907e-09
3.28797e-09
8.01732e-11
-3.18593e-09
3.04082e-09
4.26352e-12
-4.66379e-09
3.19058e-09
-1.2745e-10
-5.82601e-09
3.73763e-09
-3.89534e-10
-5.8098e-09
3.82302e-09
-3.25854e-10
-4.35319e-09
2.38421e-09
1.14004e-10
-2.20456e-09
-9.66389e-11
6.83533e-10
-3.06381e-10
-2.66811e-09
1.35865e-09
3.56373e-10
-3.85809e-09
1.85352e-09
2.50043e-10
-3.06157e-09
1.73453e-09
3.23646e-10
-1.20625e-09
1.38192e-09
1.40089e-09
1.61176e-14
1.36924e-09
3.41257e-09
-2.91261e-10
1.96813e-09
5.09784e-09