/*--------------------------------*- C++ -*----------------------------------*\
| =========                 |                                                 |
| \\      /  F ield         | OpenFOAM: The Open Source CFD Toolbox           |
|  \\    /   O peration     | Version:  2312                                  |
|   \\  /    A nd           | Website:  www.openfoam.com                      |
|    \\/     M anipulation  |                                                 |
\*---------------------------------------------------------------------------*/
FoamFile
{
    version     2.0;
    format      ascii;
    arch        "LSB;label=32;scalar=64";
    class       volScalarField;
    location    "1.0996775";
    object      alpha.water;
}
// * * * * * * * * * * * * * * * * * * * * * * * * * * * * * * * * * * * * * //

dimensions      [0 0 0 0 0 0 0];

internalField   nonuniform List<scalar> 
90000
(
1
1.00005
1.00004
1.00003
1.00003
1.00002
1.00002
1.00001
1
0.999998
0.999995
0.999993
0.999994
0.999997
1
1.00001
1.00002
1.00002
1.00002
1.00002
1.00002
1.00001
1.00001
1
1
1.00001
1.00002
1.00002
1.00003
1.00003
1.00005
1.00007
1.00006
1.00005
1.00004
1.00003
1.00002
1.00001
1
0.999994
0.99999
0.99999
0.999994
1
1.00001
1.00002
1.00003
1.00003
1.00003
1.00002
1.00002
1.00001
1.00001
1.00001
1.00002
1.00003
1.00003
1.00001
0.999913
0.999603
1.00004
1.00005
1.00004
1.00004
1.00003
1.00002
1.00002
1.00001
1
0.999997
0.999993
0.99999
0.99999
0.999991
0.999993
0.999996
0.999999
1
1
1
0.999999
0.999998
1
1
1.00001
1.00003
1.00006
1.00014
1.00029
0.999958
1.00003
1.00003
1.00003
1.00003
1.00002
1.00002
1.00002
1.00001
1.00001
1
0.999999
0.999993
0.999987
0.999982
0.999977
0.999974
0.999974
0.999975
0.999979
0.999983
0.999989
0.999994
0.999999
1
1.00001
1
0.99998
0.999958
1.0001
1
1.00002
1.00001
1.00001
1.00001
1.00001
1.00001
1.00002
1.00002
1.00002
1.00001
1.00001
1
0.999993
0.999983
0.999974
0.999967
0.999964
0.999966
0.999972
0.99998
0.99999
0.999998
1
1.00001
1.00001
1.00002
1.00002
0.999983
1.00002
0.999993
1
0.999985
0.999988
0.999991
0.999997
1
1.00001
1.00002
1.00002
1.00002
1.00002
1.00002
1.00001
0.999996
0.999986
0.999978
0.999974
0.999975
0.99998
0.999989
0.999999
1.00001
1.00001
1.00001
1.00001
1.00001
1.00001
0.999994
0.999994
0.999984
0.999988
0.999962
0.999969
0.999975
0.999983
0.999993
1
1.00001
1.00002
1.00003
1.00003
1.00002
1.00002
1.00001
1
0.999996
0.999992
0.999991
0.999994
1
1.00001
1.00001
1.00002
1.00002
1.00002
1.00001
1.00001
0.999997
0.999991
0.999993
0.999974
0.99995
0.999957
0.999964
0.999972
0.999982
0.999992
1
1.00001
1.00001
1.00002
1.00002
1.00002
1.00002
1.00001
1.00001
1.00001
1
1
1.00001
1.00001
1.00001
1.00002
1.00002
1.00002
1.00001
1.00001
1
1
1.00001
0.999967
0.999953
0.99996
0.999965
0.999972
0.999978
0.999984
0.999989
0.999994
0.999999
1
1.00001
1.00001
1.00002
1.00002
1.00002
1.00001
1.00001
1
1
1
1
1.00001
1.00001
1
1
1
1
1.00001
1.00002
0.999972
0.999978
0.999982
0.999985
0.999986
0.999987
0.999986
0.999986
0.999985
0.999987
0.999991
0.999997
1
1.00001
1.00001
1.00002
1.00001
1.00001
1
0.999997
0.999993
0.99999
0.999987
0.999984
0.999981
0.999981
0.999986
0.999995
1
0.999999
0.999989
1.00002
1.00002
1.00002
1.00001
1.00001
0.999998
0.999991
0.999985
0.999983
0.999985
0.999989
0.999996
1
1.00001
1.00001
1.00001
1
0.999999
0.999993
0.999987
0.999981
0.999974
0.999969
0.999967
0.99997
0.999977
0.999985
0.999986
0.999981
1.00002
1.00005
1.00005
1.00004
1.00003
1.00002
1.00001
0.999995
0.999985
0.99998
0.999979
0.999981
0.999984
0.999988
0.999992
0.999995
0.999996
0.999996
0.999995
0.999992
0.999987
0.99998
0.999974
0.99997
0.99997
0.999975
0.99998
0.999981
0.999977
0.999981
1.00004
1.00007
1.00006
1.00004
1.00003
1.00002
1
0.999988
0.999979
0.999974
0.999972
0.999971
0.999971
0.999973
0.999975
0.999979
0.999984
0.999989
0.999992
0.999993
0.999991
0.999987
0.999983
0.999981
0.999982
0.999984
0.999983
0.999979
0.999977
0.999985
1.00004
1.00004
1.00003
1.00002
1
0.999991
0.999981
0.999976
0.999973
0.999972
0.999971
0.999969
0.999967
0.999967
0.999969
0.999974
0.999982
0.999989
0.999995
0.999998
0.999997
0.999994
0.999991
0.999989
0.999987
0.999983
0.999975
0.999969
0.999969
0.999972
1.00002
0.999992
0.999984
0.999975
0.99997
0.999968
0.99997
0.999975
0.99998
0.999983
0.999983
0.999981
0.999977
0.999976
0.999978
0.999983
0.99999
0.999997
1
1
1
1
0.999997
0.999994
0.999988
0.99998
0.99997
0.999965
0.999961
0.99996
0.999989
0.999948
0.999949
0.99995
0.999956
0.999966
0.999978
0.99999
0.999998
1
1
0.999995
0.999991
0.999989
0.99999
0.999994
0.999998
1
1
1
1
1
1
1
0.999999
0.999993
0.999988
0.999985
0.999981
0.99999
0.999964
0.999932
0.999943
0.999953
0.999966
0.99998
0.999994
1
1.00001
1.00001
1
0.999996
0.999993
0.999993
0.999994
0.999995
0.999995
0.999993
0.999992
0.999992
0.999995
1
1.00001
1.00001
1.00001
1.00001
1.00002
1.00002
1.00002
1.00004
0.99996
0.999944
0.999958
0.999969
0.99998
0.99999
0.999996
0.999998
0.999996
0.999992
0.999988
0.999988
0.99999
0.999993
0.999994
0.999992
0.999987
0.999982
0.99998
0.999982
0.999988
0.999997
1
1.00001
1.00001
1.00001
1.00001
1.00002
1.00003
1.00003
0.999971
0.999963
0.999972
0.999978
0.999983
0.999986
0.999986
0.999984
0.999981
0.999981
0.999985
0.999991
0.999998
1
1
0.999993
0.999985
0.999978
0.999977
0.99998
0.999987
0.999991
0.999991
0.999987
0.999983
0.999983
0.999984
0.999984
0.999981
0.999956
0.999981
0.999973
0.999977
0.99998
0.999983
0.999985
0.999985
0.999985
0.999987
0.999992
1
1.00001
1.00001
1.00001
1
0.999991
0.999982
0.999979
0.999981
0.999986
0.999988
0.999986
0.999978
0.999971
0.999969
0.999969
0.999966
0.999956
0.999938
0.99993
0.999985
0.999979
0.999984
0.999989
0.999995
0.999999
1
1
1.00001
1.00001
1.00001
1.00002
1.00001
1
0.999988
0.99998
0.999979
0.999983
0.99999
0.999993
0.99999
0.999982
0.999976
0.999977
0.999983
0.999985
0.999979
0.999966
0.999954
0.999977
0.999989
0.999992
0.999999
1.00001
1.00001
1.00002
1.00002
1.00002
1.00002
1.00002
1.00001
1
0.999992
0.999982
0.999978
0.999982
0.999992
1
1.00001
1
0.999993
0.999985
0.999987
0.999995
1
1
0.999991
0.999985
0.999989
1
0.999998
1.00001
1.00001
1.00002
1.00002
1.00002
1.00002
1.00002
1.00001
1.00001
1
0.999993
0.999986
0.999985
0.999993
1.00001
1.00002
1.00003
1.00002
1.00001
0.999999
0.999999
1.00001
1.00001
1.00001
0.999998
0.999989
0.999989
0.99999
0.999983
1.00001
1.00001
1.00001
1.00001
1.00001
1.00001
1.00001
1.00001
1.00001
1.00001
1
0.999997
0.999994
0.999999
1.00001
1.00002
1.00003
1.00002
1.00001
1
1
1.00002
1.00003
1.00003
1.00001
1
1
0.999998
0.999987
0.999995
1
0.999998
0.999999
0.999999
1
1
1.00001
1.00001
1.00002
1.00001
1
0.999995
0.999994
0.999999
1
1.00001
0.999998
0.999989
0.999985
0.999994
1.00001
1.00003
1.00003
1.00002
1.00001
1.00001
1.00001
1.00001
1.00002
1.00004
0.999997
0.999986
0.999988
0.999988
0.999991
0.999996
1
1.00001
1.00001
1
0.999993
0.999989
0.999992
0.999997
0.999998
0.999993
0.999985
0.999982
0.999992
1.00001
1.00002
1.00003
1.00001
1
1
1.00001
1.00001
1.00001
1.00004
1.00001
0.999991
0.999979
0.99998
0.99998
0.999982
0.999987
0.999993
0.999997
0.999997
0.999995
0.999996
1
1.00001
1.00001
1.00001
1.00001
1
1.00001
1.00002
1.00002
1.00002
1
0.999989
0.999983
0.999991
0.999996
0.999995
1.00001
1.00001
0.999968
0.999987
0.999976
0.999976
0.999976
0.999978
0.999983
0.999989
0.999992
0.999995
0.999999
1.00001
1.00002
1.00002
1.00002
1.00001
1.00001
1.00001
1.00001
1.00001
1.00001
0.999991
0.99998
0.999982
0.999989
0.999997
1
1.00001
1
0.999974
0.99999
0.999986
0.999978
0.99998
0.99998
0.999981
0.999983
0.999983
0.999982
0.999984
0.999989
0.999998
1
1
1
0.999995
0.999994
0.999998
0.999998
0.999991
0.999979
0.999969
0.999972
0.999988
0.999996
0.999998
1.00001
1.00001
0.99998
0.999984
1.00002
0.999989
0.999988
0.999988
0.999984
0.999979
0.999972
0.999967
0.999965
0.999968
0.999977
0.999987
0.999994
0.999996
0.999996
0.999998
1
1
0.999997
0.999984
0.999978
0.999978
0.99998
0.999989
0.999992
0.999989
0.999993
0.999989
0.999977
1.00001
0.999999
0.999996
0.999994
0.999988
0.99998
0.999972
0.999966
0.999964
0.999968
0.999978
0.99999
1
1.00001
1.00001
1.00001
1.00002
1.00002
1.00001
1
0.999992
0.999994
0.999998
0.999986
0.999983
0.999991
0.999988
0.999979
0.999985
1
1.00001
0.999991
0.999998
0.999992
0.999987
0.999983
0.999982
0.999982
0.999983
0.999987
0.999993
0.999998
1
1
1
1.00001
1.00001
1
1
1
1
1
1
0.999984
0.999981
0.999995
0.999987
0.999969
0.999994
1.00001
0.999986
1.00001
0.999996
0.999995
0.999997
0.999999
0.999999
0.999995
0.99999
0.999984
0.99998
0.999979
0.99998
0.999985
0.999991
0.999997
0.999997
0.999993
0.99999
0.999998
0.999996
0.999981
0.999979
0.999975
0.999977
0.999982
0.999971
0.999968
0.999999
0.999997
0.999999
1
0.999999
1
1
1
0.999998
0.99999
0.999981
0.999976
0.999975
0.999979
0.999988
0.999998
1
1
0.999994
0.999989
0.999978
0.99998
0.999974
0.999951
0.99996
0.99998
0.999973
0.999958
0.999968
0.999988
1
1
1
0.999992
1
1
1
1
0.999998
0.999994
0.999991
0.99999
0.999992
0.999998
1.00001
1.00001
1
0.99999
0.999978
0.999985
0.999977
0.999974
0.999977
0.99997
0.999989
1.00001
0.999984
0.999965
1
1.00002
1
0.999997
0.999987
0.999999
1
0.999999
1
1.00001
1.00001
1
0.999996
0.999993
0.999993
0.999995
0.999995
0.999991
0.999984
0.999981
0.999976
1
0.999999
0.999991
1
1.00001
1.00002
1.00002
0.999992
0.999995
1.00003
1.00002
0.99999
0.999986
1
1.00001
1
1.00001
1.00001
1
0.999995
0.999988
0.999986
0.999985
0.999986
0.999985
0.999982
0.999978
0.999978
0.999997
0.999992
1.00001
1
0.999991
1.00001
1.00002
1.00001
1
1
1.00002
1.00003
0.999995
0.999992
1
1.00002
1.00001
1
1
0.999994
0.999989
0.999989
0.999993
0.999995
0.999992
0.999989
0.999987
0.999989
0.999996
0.999987
1.00002
1.00001
1
1
1.00001
1.00002
1.00003
0.999999
1.00001
1.00002
1.00001
0.999996
0.999991
1.00001
1.00001
0.999994
1.00001
0.999999
0.99999
0.999994
1
1.00001
1.00001
1
0.999999
1
1
1
1.00002
0.999991
1.00001
1.00001
0.999999
0.999997
1.00001
1.00001
1.00001
0.999988
1.00001
1.00002
0.999984
0.999986
1.00001
1
0.999984
1
1.00003
0.999995
1
1.00001
1.00001
1
1
1
1
1.00001
1
0.999984
1.00001
0.999997
0.999988
1.00001
0.999991
0.999977
0.999992
1
0.999992
0.999992
1
1.00001
0.999988
1
1.00002
0.999984
0.999992
1.00005
1.00004
1
1
0.999996
0.999997
1
1
0.999994
0.999989
0.99999
1
0.999991
0.999985
1.00002
0.999975
0.999989
0.999999
1
0.999993
1.00002
1
1
0.999998
1.00001
1.00001
0.999988
0.999995
1
1.00003
1.00003
1
0.999998
0.999993
1
1.00001
0.999996
0.999984
0.999992
1
0.999999
1
1.00002
0.999974
1.00002
1
0.999996
0.999991
1.00001
0.999991
1.00001
1
1
1.00001
1.00001
1.00002
0.999983
0.99998
1.00003
1.00003
0.999972
0.999964
0.999997
1.00002
1.00001
0.999991
0.999989
1
1.00002
1.00001
1.00002
1
1
0.99999
1.00001
0.999992
0.99999
0.999982
1.00001
1
0.999994
0.999995
1.00001
1.00002
0.999985
0.999963
1.00002
1.00002
0.999984
0.999994
1.00003
0.999983
1.00001
1
0.999979
1
1.00003
0.999998
0.999997
1.00001
0.999991
0.999997
0.999964
1.00001
1.00001
0.999958
0.999995
1.00001
0.999993
0.999982
1.00001
1.00001
0.999978
0.999986
1.00003
0.999972
1
1.00002
0.999982
1.00001
1.00003
0.999958
0.999997
0.99998
1.00001
1.00001
0.999987
1
1.00001
1
0.999963
1.00008
0.999991
0.999964
1.00002
0.999998
0.999992
0.999996
1
1.00002
0.999998
0.999981
1.00002
1
0.999998
1.00002
0.999972
0.999983
1.00002
1.00003
0.999961
0.999892
0.999982
1.00001
1.00001
0.999959
0.999988
1.00003
0.999976
1.00005
0.999961
0.999977
1.00002
0.999991
1.00001
0.999998
0.99995
1.00001
1.00003
0.999967
0.999983
1.00001
0.999983
1
0.999978
0.999991
0.999991
1
0.999993
1
1.00002
0.999844
0.999998
0.999986
0.999977
0.999975
0.999975
1.00001
0.999987
1.00001
0.99999
0.999983
0.999988
0.999982
0.999995
0.999976
0.999998
1
0.999963
1.00001
1.00001
0.99999
0.999991
1
0.999986
1.00001
0.99999
0.999965
0.999996
0.999981
1.00004
0.999874
0.999989
0.999625
0.99993
0.999983
0.999857
0.999933
0.999988
1.00001
0.999971
1.00003
1
0.999981
0.999995
0.999985
0.999995
0.999996
0.999981
0.999999
1
1
1.00001
1
0.999997
0.999995
0.999942
0.999831
0.999971
0.999927
0.999721
0.999914
1.00002
1
1
1.00006
1
1.00001
1.00001
1.00001
1
1
0.999981
0.999865
0.999975
0.999812
0.999664
0.999707
0.999946
0.999965
0.999879
0.999985
1
1
1
1
1.00001
1
1
0.999997
0.999997
0.999964
0.834056
0.902557
0.823756
0.902028
0.853057
0.891007
0.861373
0.864393
0.885409
0.842395
0.847576
0.808514
0.856726
0.866842
0.792077
0.800094
0.862934
0.858655
0.811039
0.845881
0.842093
0.88583
0.864946
0.862397
0.890108
0.851174
0.90253
0.824312
0.904729
0.834187
0.17663
0.35871
0.173559
0.34518
0.181548
0.268891
0.187054
0.186833
0.22802
0.144614
0.201547
0.110129
0.202871
0.213016
0.105221
0.109873
0.205608
0.203965
0.113305
0.192414
0.144527
0.229052
0.187595
0.189569
0.266971
0.178157
0.346825
0.173887
0.360633
0.177292
0.00650964
0.0129354
0.00575708
0.00862832
0.00114693
0.00103189
0.000206255
0.00362808
0.000265491
0.000126636
0.000120688
0.000289722
0.000323118
0.00219561
0.000183632
0.000113338
0.00119631
0.000836193
0.000259766
0.000110831
0.000115412
0.000678663
0.00384146
0.000227343
0.000908412
0.00121297
0.00870654
0.00597725
0.0137883
0.0061908
0.00347622
0.00023841
0.0026452
0.000789802
0.000450142
3.24627e-05
0.000112773
5.51128e-05
0.000158718
3.10477e-05
3.71215e-05
1.03305e-05
7.80402e-05
0.000102021
7.25875e-06
6.58746e-06
5.75927e-05
2.98095e-05
6.9251e-06
3.89228e-05
3.15864e-05
6.02859e-05
6.79997e-05
0.000118019
3.74181e-05
0.000503017
0.000802861
0.00263154
0.00023878
0.00335914
0.000653573
0.000123856
0.000403797
9.39586e-05
2.71401e-05
3.53411e-05
0.000157352
1.0577e-05
1.22829e-05
2.66558e-05
5.09392e-05
3.47268e-06
4.38642e-05
1.11968e-05
2.28819e-06
2.48065e-06
1.39665e-05
5.3941e-05
3.8029e-06
5.53393e-05
2.45599e-05
2.00477e-05
9.2817e-06
0.000161041
4.21597e-05
3.32724e-05
9.37461e-05
0.000414925
0.000117707
0.000640336
8.6522e-06
9.45752e-06
5.45166e-05
1.10303e-05
1.14413e-06
4.0091e-07
4.87793e-06
1.5523e-06
1.17345e-06
4.89838e-06
6.597e-06
3.43053e-06
8.07306e-06
1.35746e-05
4.16754e-06
4.42708e-06
1.52675e-05
1.14366e-05
5.28569e-06
5.695e-06
1.12155e-06
9.31875e-07
1.25973e-06
4.9945e-06
3.43862e-07
1.13099e-06
1.07901e-05
5.6395e-05
1.00244e-05
8.40208e-06
3.50271e-07
7.69783e-07
2.41234e-06
1.16264e-06
7.08521e-08
6.98141e-08
9.12604e-10
2.94688e-08
1.0758e-06
1.25628e-06
1.73855e-07
2.37439e-06
5.82801e-06
6.70493e-06
6.38732e-06
6.23078e-06
5.34366e-06
5.54977e-06
3.092e-06
3.21284e-07
9.7157e-07
9.69232e-07
3.03894e-08
9.48122e-10
7.41208e-08
7.53811e-08
1.12944e-06
2.56189e-06
7.7655e-07
3.50905e-07
2.23104e-08
5.51899e-08
2.11661e-07
3.89494e-07
2.79712e-07
1.20333e-08
5.2526e-10
2.77495e-09
2.53823e-08
3.5561e-09
5.90341e-09
2.21172e-07
2.04876e-07
6.04348e-07
4.17853e-06
4.80937e-06
5.38046e-07
1.79652e-08
1.27152e-07
4.13657e-09
3.97504e-08
2.44051e-08
2.35753e-09
5.36019e-10
1.50475e-08
3.34285e-07
4.45671e-07
2.15908e-07
5.78774e-08
2.23724e-08
1.53163e-09
6.14761e-09
1.3224e-08
4.95811e-08
4.82995e-08
2.53719e-09
3.91822e-10
1.4868e-10
5.60302e-11
5.05555e-10
3.22336e-10
1.77106e-09
4.52092e-09
1.16704e-08
1.2795e-07
2.58051e-07
1.0612e-08
4.08317e-09
1.66612e-09
3.06428e-10
8.95833e-10
5.46098e-11
1.55735e-10
3.57373e-10
2.61459e-09
5.93185e-08
5.91252e-08
1.40754e-08
5.90961e-09
1.51768e-09
3.78647e-10
1.02999e-09
8.16618e-10
3.2629e-09
1.43196e-09
3.2069e-10
1.2145e-10
4.34097e-11
4.42308e-11
1.00794e-10
5.76138e-11
1.01838e-10
3.76381e-10
1.16602e-09
4.1578e-09
4.92872e-09
1.06529e-09
6.54503e-10
9.642e-11
6.06256e-11
9.44895e-11
4.26815e-11
4.21996e-11
1.05849e-10
2.77855e-10
1.72258e-09
3.9369e-09
8.59475e-10
9.71289e-10
3.7717e-10
2.34214e-10
3.17917e-10
1.34521e-10
1.59162e-10
8.73898e-11
5.14807e-11
2.79271e-11
1.14695e-11
8.56616e-12
1.16282e-11
9.38959e-12
1.54072e-11
5.52508e-11
1.21354e-10
3.09456e-10
3.60944e-10
1.10768e-10
5.51434e-11
1.56867e-11
9.93352e-12
1.12177e-11
8.33911e-12
1.11106e-11
2.51257e-11
4.48218e-11
7.79975e-11
1.9028e-10
1.37253e-10
3.1296e-10
2.37371e-10
4.38355e-11
7.47837e-11
3.71799e-11
1.81454e-11
1.43696e-11
5.43438e-12
2.54211e-12
1.46353e-12
1.11854e-12
1.71749e-12
2.88012e-12
5.29261e-12
1.20234e-11
1.76082e-11
2.79913e-11
2.64909e-11
1.97174e-11
1.23105e-11
5.28387e-12
2.93902e-12
1.69963e-12
1.1515e-12
1.39365e-12
2.23912e-12
4.84071e-12
1.36937e-11
1.90279e-11
3.64834e-11
7.56629e-11
4.44615e-11
4.43145e-12
8.948e-12
5.31508e-12
2.02619e-12
1.33847e-12
6.05406e-13
2.7107e-13
1.99285e-13
2.49323e-13
5.06531e-13
1.07805e-12
2.31059e-12
4.85289e-12
5.30373e-12
7.65228e-12
7.1214e-12
4.85417e-12
4.9243e-12
2.33198e-12
1.09906e-12
5.14983e-13
2.53611e-13
1.971e-13
2.5214e-13
5.4588e-13
1.25508e-12
1.87853e-12
5.33374e-12
9.1173e-12
4.47251e-12
3.30338e-13
6.23197e-13
5.06941e-13
2.2035e-13
8.29544e-14
3.05377e-14
1.25022e-14
1.03304e-14
1.70739e-14
4.15513e-14
1.08616e-13
2.87149e-13
6.26183e-13
1.05478e-12
1.54511e-12
1.54024e-12
1.04797e-12
6.34545e-13
2.91243e-13
1.11077e-13
4.28475e-14
1.74466e-14
1.0449e-14
1.18735e-14
2.7683e-14
7.87223e-14
2.2176e-13
5.1474e-13
6.33999e-13
3.34247e-13
1.48407e-14
3.5558e-14
2.36464e-14
8.92327e-15
2.45771e-15
7.04968e-16
2.76215e-16
2.64289e-16
4.83165e-16
1.28891e-15
4.07251e-15
1.33891e-14
3.3744e-14
7.35705e-14
1.15166e-13
1.15181e-13
7.46575e-14
3.42144e-14
1.36388e-14
4.17448e-15
1.33182e-15
4.98768e-16
2.67126e-16
2.60944e-16
6.34546e-16
2.3395e-15
9.09589e-15
2.42185e-14
3.64112e-14
1.50573e-14
3.42098e-16
1.03336e-15
5.39474e-16
1.75596e-16
4.79537e-17
1.31299e-17
5.65079e-18
6.76243e-18
1.35335e-17
3.66635e-17
1.16804e-16
3.89519e-16
1.08859e-15
2.52213e-15
4.12658e-15
4.12054e-15
2.54115e-15
1.10443e-15
3.99689e-16
1.21003e-16
3.81028e-17
1.40652e-17
6.84222e-18
5.37021e-18
1.16747e-17
4.53725e-17
1.79503e-16
5.56046e-16
1.06587e-15
3.49119e-16
5.74822e-18
1.87902e-17
9.61623e-18
3.04576e-18
8.17314e-19
2.21084e-19
1.1422e-19
1.70442e-19
3.66054e-19
9.81437e-19
2.99312e-18
9.58475e-18
2.62901e-17
5.9432e-17
9.74744e-17
9.80108e-17
6.00864e-17
2.65998e-17
9.82593e-18
3.1119e-18
1.01772e-18
3.79398e-19
1.73745e-19
1.09676e-19
1.97009e-19
7.7471e-19
3.13165e-18
9.89473e-18
1.94346e-17
5.86273e-18
8.10373e-20
2.9298e-19
1.47248e-19
4.61478e-20
1.18275e-20
3.25145e-21
2.14951e-21
3.85159e-21
8.54007e-21
2.22837e-20
6.57908e-20
2.02726e-19
5.3356e-19
1.17479e-18
1.90572e-18
1.90694e-18
1.18264e-18
5.43454e-19
2.0864e-19
6.83759e-20
2.32081e-20
8.90571e-21
3.9944e-21
2.10825e-21
2.91221e-21
1.14328e-20
4.80645e-20
1.54173e-19
3.04348e-19
8.41897e-20
9.56888e-22
3.8306e-21
1.92767e-21
5.85554e-22
1.47629e-22
4.20535e-23
3.75195e-23
7.72731e-23
1.70224e-22
4.24764e-22
1.19497e-21
3.50466e-21
8.95349e-21
1.93292e-20
3.07246e-20
3.06744e-20
1.9428e-20
9.14861e-21
3.60943e-21
1.2348e-21
4.4011e-22
1.76881e-22
8.04984e-23
3.80372e-23
3.808e-23
1.43093e-22
6.24472e-22
2.02658e-21
4.05704e-21
1.00891e-21
9.3876e-24
4.14327e-23
2.11858e-23
6.3624e-24
1.55839e-24
4.79953e-25
6.09372e-25
1.34482e-24
2.85013e-24
6.67887e-24
1.76967e-23
4.94157e-23
1.20899e-22
2.49206e-22
3.87163e-22
3.89622e-22
2.51917e-22
1.22155e-22
5.03892e-23
1.84044e-23
6.98115e-24
2.97287e-24
1.40143e-24
6.34567e-25
4.55875e-25
1.52055e-24
6.85181e-24
2.23676e-23
4.49699e-23
9.99703e-24
7.475e-26
3.93602e-25
1.90976e-25
5.82051e-26
1.36389e-26
5.19916e-27
9.01865e-27
1.96941e-26
3.92078e-26
8.59711e-26
2.13986e-25
5.58753e-25
1.28111e-24
2.53149e-24
3.91633e-24
3.97505e-24
2.60691e-24
1.3098e-24
5.71195e-25
2.23331e-25
9.05734e-26
4.13918e-26
2.07078e-26
9.41531e-27
5.15878e-27
1.38729e-26
6.36495e-26
2.073e-25
4.14698e-25
8.20508e-26
5.16677e-28
2.90562e-27
1.44379e-27
4.3262e-28
1.02543e-28
5.43625e-29
1.13907e-28
2.40184e-28
4.52092e-28
9.19631e-28
2.08226e-27
4.88907e-27
1.04418e-26
1.99247e-26
3.01734e-26
3.01444e-26
2.01764e-26
1.08182e-26
5.12984e-27
2.19014e-27
9.67279e-28
4.81468e-28
2.58731e-28
1.21513e-28
5.54579e-29
1.08641e-28
4.94889e-28
1.60303e-27
3.18554e-27
5.6138e-28
2.89567e-30
1.72002e-29
9.28287e-30
2.71269e-30
6.81205e-31
5.17703e-31
1.21101e-30
2.47306e-30
4.32523e-30
7.91177e-30
1.59694e-29
3.4006e-29
6.85355e-29
1.24054e-28
1.7935e-28
1.79563e-28
1.27469e-28
7.38131e-29
3.7475e-29
1.73261e-29
8.43481e-30
4.6461e-30
2.70036e-30
1.3289e-30
5.49422e-31
7.1789e-31
3.15408e-30
1.03026e-29
2.0512e-29
3.23373e-30
1.2777e-32
9.89052e-32
5.08773e-32
1.54113e-32
4.19031e-33
4.64576e-33
1.13779e-32
2.14577e-32
3.32965e-32
5.36877e-32
9.78334e-32
1.92018e-31
3.5518e-31
5.88348e-31
8.13797e-31
8.34791e-31
6.21764e-31
3.78537e-31
2.07639e-31
1.08601e-31
6.02898e-32
3.68809e-32
2.3131e-32
1.20739e-32
4.90673e-33
4.19592e-33
1.68318e-32
5.59709e-32
1.11212e-31
1.57112e-32
5.82024e-35
4.71148e-34
2.37715e-34
7.46734e-35
2.33659e-35
3.69773e-35
8.75315e-35
1.50078e-34
2.11014e-34
3.11561e-34
5.14303e-34
8.74961e-34
1.38183e-33
2.07085e-33
2.82652e-33
3.00265e-33
2.34797e-33
1.54637e-33
9.61195e-34
5.75619e-34
3.56333e-34
2.38657e-34
1.63684e-34
9.34712e-35
3.95255e-35
2.37719e-35
7.7976e-35
2.5694e-34
4.97449e-34
6.35996e-35
2.18449e-37
1.57478e-36
9.10738e-37
2.79337e-37
1.18321e-37
2.42137e-37
5.50688e-37
8.90466e-37
1.17126e-36
1.5734e-36
2.22044e-36
3.15547e-36
4.46293e-36
6.51105e-36
8.72434e-36
8.92913e-36
7.05588e-36
5.11809e-36
3.66678e-36
2.49552e-36
1.72384e-36
1.29201e-36
9.93964e-37
6.26363e-37
2.7762e-37
1.2952e-37
3.0232e-37
9.51861e-37
1.79226e-36
2.14103e-37
5.50158e-40
5.06794e-39
3.00514e-39
9.2107e-40
5.8126e-40
1.42914e-39
3.19607e-39
4.77107e-39
5.56672e-39
6.27566e-39
7.27212e-39
9.16392e-39
1.24102e-38
1.66868e-38
1.92985e-38
1.80832e-38
1.55522e-38
1.36828e-38
1.16538e-38
8.94168e-39
6.90214e-39
5.86047e-39
5.09019e-39
3.52108e-39
1.63766e-39
6.5051e-40
9.51571e-40
2.81892e-39
5.36452e-39
6.21479e-40
1.5862e-42
1.78575e-41
8.96804e-42
3.03508e-42
2.7708e-42
7.4907e-42
1.52639e-41
2.02575e-41
2.05559e-41
2.00219e-41
2.11642e-41
2.55092e-41
3.04924e-41
3.2942e-41
3.24235e-41
3.16373e-41
3.23527e-41
3.25886e-41
2.98295e-41
2.49237e-41
2.2245e-41
2.22881e-41
2.23806e-41
1.7022e-41
8.31784e-42
3.08691e-42
2.76243e-42
7.32876e-42
1.4402e-41
1.64445e-42
5.19824e-45
4.54851e-44
2.28522e-44
9.39014e-45
1.24949e-44
3.15549e-44
5.74114e-44
7.03191e-44
6.41885e-44
5.76547e-44
5.73032e-44
5.9772e-44
5.46203e-44
4.73806e-44
4.56569e-44
5.0208e-44
5.4575e-44
5.52897e-44
5.44704e-44
5.52915e-44
6.24516e-44
7.45834e-44
8.47975e-44
6.84965e-44
3.50673e-44
1.32454e-44
8.55334e-45
1.83877e-44
3.54106e-44
3.97449e-45
1.02329e-47
8.21124e-47
5.01089e-47
2.71983e-47
4.48552e-47
1.06168e-46
1.91606e-46
2.17172e-46
1.82203e-46
1.43828e-46
1.20719e-46
9.73814e-47
7.15216e-47
5.72465e-47
5.80602e-47
6.35402e-47
6.46303e-47
6.71433e-47
8.0978e-47
1.07054e-46
1.47384e-46
1.99893e-46
2.38188e-46
2.1267e-46
1.20745e-46
5.0031e-47
2.74012e-47
4.33628e-47
7.32296e-47
8.31697e-48
1.82904e-50
1.61595e-49
1.11285e-49
7.08836e-50
1.21045e-49
2.94777e-49
5.13439e-49
4.97473e-49
3.82104e-49
2.54029e-49
1.8121e-49
1.2967e-49
9.20926e-50
7.30897e-50
6.61063e-50
5.89058e-50
5.53189e-50
6.75274e-50
1.05765e-49
1.71778e-49
2.67453e-49
4.07997e-49
5.23504e-49
5.63106e-49
3.70405e-49
1.67326e-49
8.17605e-50
8.98774e-50
1.20791e-49
1.55911e-50
3.96038e-53
3.3828e-52
2.3093e-52
1.55745e-52
2.93447e-52
6.83821e-52
1.02419e-51
9.04844e-52
6.03661e-52
3.60154e-52
2.42882e-52
1.73166e-52
1.18406e-52
7.83693e-53
5.37284e-53
4.15618e-53
4.53937e-53
7.421e-53
1.41584e-52
2.54013e-52
4.21753e-52
7.04107e-52
1.06981e-51
1.27664e-51
9.47017e-52
4.40612e-52
2.02865e-52
1.75368e-52
1.92883e-52
3.05791e-53
6.52609e-56
5.73924e-55
3.57003e-55
2.96336e-55
5.90432e-55
1.23415e-54
1.75161e-54
1.52858e-54
9.43745e-55
5.37705e-55
3.55751e-55
2.36658e-55
1.34873e-55
7.13626e-56
4.4122e-56
3.88852e-56
5.2692e-56
9.511e-56
1.81191e-55
3.20719e-55
5.52674e-55
1.02028e-54
1.79686e-54
2.28674e-54
1.81759e-54
8.59339e-55
4.05813e-55
3.38096e-55
3.5106e-55
6.22186e-56
1.10336e-58
7.61813e-58
4.98293e-58
5.27254e-58
9.25054e-58
1.91057e-57
2.68978e-57
2.25376e-57
1.27368e-57
7.05323e-58
4.41623e-58
2.55108e-58
1.24601e-58
6.4272e-59
4.53839e-59
4.59254e-59
6.1209e-59
9.90031e-59
1.79353e-58
3.33238e-58
6.5159e-58
1.389e-57
2.74989e-57
3.57785e-57
2.89834e-57
1.38817e-57
7.02777e-58
6.13127e-58
6.43767e-58
1.16611e-58
2.41331e-61
8.43674e-61
9.05971e-61
9.66347e-61
1.62539e-60
3.49912e-60
4.169e-60
3.16189e-60
1.62629e-60
8.57654e-61
4.79616e-61
2.45109e-61
1.17337e-61
6.84894e-62
5.41585e-62
5.3417e-62
6.43158e-62
9.83067e-62
1.94471e-61
4.24618e-61
9.51243e-61
2.16034e-60
4.26048e-60
5.25755e-60
4.0968e-60
1.98847e-60
1.09363e-60
1.0031e-60
1.07285e-60
1.93959e-61
2.03483e-64
1.49625e-63
1.84008e-63
1.75921e-63
3.13023e-63
6.14659e-63
6.11719e-63
4.58122e-63
2.30076e-63
1.14706e-63
5.74982e-64
2.73386e-64
1.33661e-64
8.12055e-65
6.1158e-65
5.50702e-65
6.54696e-65
1.10579e-64
2.5323e-64
6.08803e-64
1.37039e-63
2.92346e-63
5.46722e-63
6.40383e-63
5.15418e-63
2.71877e-63
1.63679e-63
1.56056e-63
1.67604e-63
2.98184e-64
3.32379e-67
3.91825e-66
3.04172e-66
2.80781e-66
4.59682e-66
7.59063e-66
7.22113e-66
5.71565e-66
2.87706e-66
1.32783e-66
6.03042e-67
2.68477e-67
1.2451e-67
6.85565e-68
4.59229e-68
4.04396e-68
5.41764e-68
1.08916e-67
2.7699e-67
6.66952e-67
1.42006e-66
2.93642e-66
5.86103e-66
7.35673e-66
7.01348e-66
4.12011e-66
2.56187e-66
2.42664e-66
2.53011e-66
4.3347e-67
9.92546e-70
5.17014e-69
3.74607e-69
3.66247e-69
5.49957e-69
8.50836e-69
8.2768e-69
6.44059e-69
2.9879e-69
1.20944e-69
4.91246e-70
2.02871e-70
8.65852e-71
4.2914e-71
2.77599e-71
2.75625e-71
4.47686e-71
1.02555e-70
2.6441e-70
6.0982e-70
1.28569e-69
2.86821e-69
6.64676e-69
9.70758e-69
1.02392e-68
6.14758e-69
3.69827e-69
3.4123e-69
3.53072e-69
5.96783e-70
1.03023e-72
3.67469e-72
4.0413e-72
4.28276e-72
6.63944e-72
1.00723e-71
9.6322e-72
6.71922e-72
2.7503e-72
9.75425e-73
3.72876e-73
1.55118e-73
6.71036e-74
3.43156e-74
2.43618e-74
2.73377e-74
4.69434e-74
1.0308e-73
2.4306e-73
5.31377e-73
1.1664e-72
2.88894e-72
7.37576e-72
1.1415e-71
1.17691e-71
6.80921e-72
4.18152e-72
4.03529e-72
4.59002e-72
8.06721e-73
5.84016e-76
5.86141e-75
5.80309e-75
5.67689e-75
7.69336e-75
1.00321e-74
9.35756e-75
6.08446e-75
2.3094e-75
7.90273e-76
3.20941e-76
1.46547e-76
6.80099e-77
3.66964e-77
2.69449e-77
2.91281e-77
4.45306e-77
8.37938e-77
1.78521e-76
3.93751e-76
9.41763e-76
2.5389e-75
6.61911e-75
9.73765e-75
9.49361e-75
5.58652e-75
3.98541e-75
4.40102e-75
5.86707e-75
1.06674e-75
1.49358e-78
1.3772e-77
8.74783e-78
7.27866e-78
7.73059e-78
9.28985e-78
9.32409e-78
6.1456e-78
2.30281e-78
8.32903e-79
3.7086e-79
1.76191e-79
8.0246e-80
4.13517e-80
2.80556e-80
2.65988e-80
3.48625e-80
5.89896e-80
1.25917e-79
3.06159e-79
8.07687e-79
2.24653e-78
5.58476e-78
7.53881e-78
7.11341e-78
4.63028e-78
3.72505e-78
4.77465e-78
6.96616e-78
1.23766e-78
4.40248e-81
1.36115e-80
9.21762e-81
6.33164e-81
6.89545e-81
1.01869e-80
1.09001e-80
7.105e-81
2.6751e-81
1.03136e-81
4.65415e-82
2.07395e-82
8.63142e-83
4.13388e-83
2.64657e-83
2.35911e-83
2.98535e-83
5.16546e-83
1.19218e-82
3.15017e-82
8.49e-82
2.24452e-81
5.1077e-81
6.56757e-81
6.12512e-81
4.28955e-81
3.55657e-81
4.67079e-81
6.64878e-81
1.11097e-81
1.8936e-84
6.45749e-84
7.07462e-84
5.68833e-84
7.67168e-84
1.23855e-83
1.15911e-83
6.43125e-84
2.38202e-84
9.06356e-85
3.7269e-85
1.46066e-85
5.6954e-86
2.80955e-86
1.94536e-86
1.88446e-86
2.56845e-86
4.74723e-86
1.13985e-85
3.01804e-85
7.83077e-85
1.96725e-84
4.37571e-84
5.84202e-84
5.65148e-84
4.08089e-84
3.23021e-84
3.91193e-84
4.91047e-84
7.76139e-85
1.0055e-87
1.10937e-86
9.98015e-87
8.33814e-87
1.22178e-86
1.46225e-86
9.84494e-87
4.30639e-87
1.46459e-87
4.72636e-88
1.54002e-88
5.14536e-89
2.04712e-89
1.19379e-89
9.86868e-90
1.08197e-89
1.57617e-89
2.97782e-89
7.09556e-89
1.8507e-88
4.87098e-88
1.31309e-87
3.31072e-87
5.28221e-87
5.69108e-87
4.15204e-87
3.03903e-87
3.15034e-87
3.28211e-87
4.97869e-88
2.3806e-90
2.27404e-89
1.57065e-89
1.34658e-89
1.627e-89
1.34265e-89
7.87371e-90
3.24075e-90
9.84111e-91
2.51758e-91
6.59324e-92
2.07879e-92
8.69776e-93
5.40928e-93
4.59837e-93
4.97216e-93
7.01632e-93
1.29292e-92
3.06855e-92
8.38092e-92
2.53767e-91
8.48119e-91
2.70893e-90
5.42518e-90
6.48954e-90
4.67187e-90
3.05701e-90
2.71945e-90
2.40031e-90
3.58026e-91
4.90104e-93
1.81043e-92
1.35504e-92
1.07434e-92
1.21717e-92
1.07659e-92
7.54955e-93
3.18577e-93
8.52964e-94
1.88339e-94
4.62701e-95
1.44811e-95
5.997e-96
3.3687e-96
2.41031e-96
2.30558e-96
3.1265e-96
5.91378e-96
1.48731e-95
4.44981e-95
1.53645e-94
6.0903e-94
2.32035e-93
5.42152e-93
6.86195e-93
4.84341e-93
2.94173e-93
2.4924e-93
2.13066e-93
3.30878e-94
1.84293e-96
8.41502e-96
9.90714e-96
8.67448e-96
1.0238e-95
1.11187e-95
8.07116e-96
2.87783e-96
6.36535e-97
1.31113e-97
3.34651e-98
1.0511e-98
3.87086e-99
1.77323e-99
1.07476e-99
1.00782e-99
1.50154e-99
3.20203e-99
8.78387e-99
2.72795e-98
9.57652e-98
3.86087e-97
1.54767e-96
3.93614e-96
5.2575e-96
4.00997e-96
2.65405e-96
2.46524e-96
2.41836e-96
4.0474e-97
1.26979e-99
1.45562e-98
1.40138e-98
1.13812e-98
1.43418e-98
1.44771e-98
7.31294e-99
1.75421e-99
3.14941e-100
6.45218e-101
1.71737e-101
5.19641e-102
1.71396e-102
7.2017e-103
4.57264e-103
4.64187e-103
7.45463e-103
1.72625e-102
4.82378e-102
1.416e-101
4.52656e-101
1.70266e-100
6.81117e-100
1.95776e-99
3.04057e-99
3.03512e-99
2.48552e-99
2.83252e-99
3.36215e-99
5.89262e-100
2.89181e-102
2.58498e-101
1.84165e-101
1.49406e-101
1.8167e-101
1.49707e-101
4.67495e-102
7.93522e-103
1.41634e-103
3.21896e-104
9.21522e-105
3.03903e-105
1.16484e-105
5.67473e-106
3.67356e-106
3.31484e-106
4.45833e-106
8.73326e-106
2.17822e-105
5.77809e-105
1.718e-104
6.37959e-104
2.71846e-103
9.31975e-103
1.97812e-102
2.61298e-102
2.6162e-102
3.55715e-102
4.79527e-102
8.30447e-103
4.82428e-105
2.03378e-104
1.41829e-104
1.2543e-104
1.39044e-104
8.7782e-105
2.40544e-105
4.7053e-106
1.0084e-106
2.3566e-107
6.89081e-108
2.67053e-108
1.20835e-108
6.17795e-109
3.83559e-109
2.9965e-109
3.01487e-109
3.95302e-109
8.24744e-109
2.25118e-108
7.74708e-108
3.2684e-107
1.56568e-106
6.43753e-106
1.68098e-105
2.56719e-105
2.79428e-105
4.01789e-105
5.58633e-105
9.2865e-106
1.71856e-105
1.71856e-105
4.57609e-105
6.76786e-105
4.22052e-105
1.4828e-105
3.19853e-106
5.32638e-107
8.9349e-108
2.68957e-108