/*--------------------------------*- C++ -*----------------------------------*\
| =========                 |                                                 |
| \\      /  F ield         | OpenFOAM: The Open Source CFD Toolbox           |
|  \\    /   O peration     | Version:  2312                                  |
|   \\  /    A nd           | Website:  www.openfoam.com                      |
|    \\/     M anipulation  |                                                 |
\*---------------------------------------------------------------------------*/
FoamFile
{
    version     2.0;
    format      ascii;
    arch        "LSB;label=32;scalar=64";
    class       volScalarField;
    location    "1.0996775";
    object      epsilon;
}
// * * * * * * * * * * * * * * * * * * * * * * * * * * * * * * * * * * * * * //

dimensions      [0 2 -3 0 0 0 0];

internalField   nonuniform List<scalar> 
90000
(
9.18438e-06
9.18668e-06
9.18725e-06
9.18748e-06
9.18755e-06
9.18743e-06
9.18719e-06
9.18692e-06
9.18667e-06
9.18647e-06
9.18632e-06
9.18623e-06
9.18623e-06
9.1863e-06
9.18639e-06
9.18658e-06
9.18697e-06
9.18753e-06
9.18796e-06
9.18797e-06
9.18747e-06
9.1866e-06
9.18674e-06
9.18811e-06
9.18938e-06
9.18999e-06
9.18965e-06
9.1888e-06
9.18912e-06
9.19108e-06
9.18711e-06
9.23358e-06
9.23733e-06
9.23727e-06
9.23699e-06
9.23672e-06
9.23655e-06
9.23647e-06
9.23635e-06
9.23618e-06
9.23613e-06
9.23628e-06
9.23647e-06
9.23665e-06
9.23681e-06
9.23693e-06
9.23697e-06
9.23691e-06
9.23672e-06
9.23647e-06
9.23663e-06
9.23699e-06
9.23726e-06
9.2372e-06
9.23669e-06
9.23594e-06
9.23645e-06
9.23812e-06
9.23591e-06
9.19774e-06
9.18776e-06
9.23755e-06
9.24145e-06
9.24136e-06
9.24106e-06
9.24084e-06
9.24079e-06
9.24083e-06
9.24082e-06
9.24066e-06
9.24056e-06
9.24078e-06
9.24113e-06
9.24149e-06
9.24164e-06
9.24147e-06
9.24104e-06
9.2406e-06
9.24094e-06
9.24164e-06
9.24211e-06
9.24231e-06
9.24234e-06
9.24238e-06
9.24266e-06
9.24321e-06
9.24354e-06
9.24442e-06
9.24405e-06
9.19597e-06
9.18777e-06
9.23765e-06
9.24174e-06
9.24184e-06
9.2417e-06
9.24151e-06
9.2414e-06
9.24137e-06
9.24136e-06
9.24125e-06
9.24111e-06
9.24121e-06
9.24145e-06
9.24169e-06
9.24169e-06
9.24145e-06
9.24124e-06
9.24164e-06
9.24229e-06
9.2427e-06
9.24274e-06
9.24266e-06
9.24313e-06
9.24412e-06
9.24506e-06
9.24564e-06
9.2461e-06
9.24573e-06
9.24363e-06
9.1919e-06
9.18745e-06
9.23742e-06
9.24179e-06
9.24209e-06
9.2421e-06
9.24196e-06
9.24174e-06
9.24157e-06
9.2415e-06
9.24146e-06
9.24143e-06
9.24138e-06
9.24128e-06
9.24109e-06
9.24101e-06
9.2414e-06
9.24196e-06
9.24241e-06
9.24259e-06
9.24247e-06
9.24226e-06
9.24258e-06
9.24355e-06
9.2446e-06
9.24527e-06
9.24529e-06
9.24482e-06
9.24407e-06
9.24057e-06
9.19033e-06
9.18706e-06
9.23755e-06
9.24191e-06
9.24229e-06
9.24241e-06
9.24238e-06
9.2422e-06
9.24192e-06
9.24168e-06
9.24157e-06
9.2416e-06
9.24178e-06
9.24199e-06
9.24204e-06
9.24198e-06
9.24201e-06
9.24213e-06
9.24217e-06
9.24204e-06
9.24189e-06
9.24207e-06
9.24259e-06
9.24319e-06
9.24359e-06
9.24371e-06
9.24365e-06
9.24379e-06
9.24531e-06
9.2422e-06
9.19078e-06
9.18727e-06
9.23814e-06
9.24226e-06
9.2426e-06
9.24281e-06
9.24296e-06
9.24298e-06
9.24276e-06
9.24227e-06
9.24179e-06
9.24173e-06
9.24209e-06
9.24259e-06
9.24285e-06
9.24268e-06
9.24213e-06
9.24151e-06
9.24116e-06
9.24133e-06
9.24181e-06
9.24228e-06
9.24252e-06
9.24239e-06
9.24198e-06
9.24216e-06
9.24364e-06
9.24546e-06
9.24705e-06
9.24357e-06
9.19074e-06
9.18766e-06
9.23914e-06
9.2429e-06
9.24317e-06
9.24341e-06
9.2437e-06
9.24387e-06
9.24377e-06
9.24332e-06
9.24263e-06
9.24219e-06
9.24229e-06
9.24265e-06
9.24285e-06
9.24261e-06
9.24191e-06
9.24102e-06
9.24052e-06
9.24116e-06
9.24187e-06
9.24225e-06
9.24218e-06
9.2417e-06
9.24168e-06
9.24292e-06
9.24459e-06
9.24618e-06
9.2469e-06
9.24263e-06
9.19018e-06
9.18823e-06
9.24025e-06
9.24368e-06
9.24378e-06
9.24393e-06
9.24419e-06
9.24443e-06
9.24448e-06
9.24427e-06
9.24382e-06
9.24322e-06
9.24267e-06
9.24231e-06
9.24216e-06
9.24212e-06
9.24209e-06
9.24206e-06
9.2421e-06
9.24229e-06
9.2425e-06
9.2425e-06
9.24221e-06
9.24187e-06
9.24242e-06
9.24364e-06
9.24495e-06
9.24589e-06
9.24585e-06
9.24126e-06
9.18967e-06
9.18955e-06
9.24069e-06
9.24385e-06
9.24382e-06
9.24374e-06
9.24381e-06
9.24399e-06
9.24428e-06
9.24451e-06
9.24452e-06
9.24415e-06
9.24334e-06
9.24223e-06
9.24143e-06
9.24174e-06
9.24268e-06
9.2436e-06
9.24423e-06
9.24451e-06
9.24443e-06
9.244e-06
9.24334e-06
9.24278e-06
9.24284e-06
9.2436e-06
9.24443e-06
9.24484e-06
9.24451e-06
9.24017e-06
9.18956e-06
9.19076e-06
9.24044e-06
9.24346e-06
9.24336e-06
9.24303e-06
9.2427e-06
9.24266e-06
9.2431e-06
9.24377e-06
9.24428e-06
9.24433e-06
9.24381e-06
9.24282e-06
9.24174e-06
9.24168e-06
9.24296e-06
9.24445e-06
9.24563e-06
9.24635e-06
9.24637e-06
9.24575e-06
9.2447e-06
9.24363e-06
9.243e-06
9.2432e-06
9.24375e-06
9.24415e-06
9.24405e-06
9.2401e-06
9.19006e-06
9.19094e-06
9.2406e-06
9.24381e-06
9.24376e-06
9.24352e-06
9.24322e-06
9.24302e-06
9.24302e-06
9.24323e-06
9.24356e-06
9.2438e-06
9.24376e-06
9.24331e-06
9.24242e-06
9.24154e-06
9.24273e-06
9.24461e-06
9.24613e-06
9.2469e-06
9.24681e-06
9.24603e-06
9.24491e-06
9.24379e-06
9.24296e-06
9.24307e-06
9.24363e-06
9.24414e-06
9.24431e-06
9.24081e-06
9.1906e-06
9.19062e-06
9.24127e-06
9.24476e-06
9.24515e-06
9.24575e-06
9.24627e-06
9.24649e-06
9.24626e-06
9.24543e-06
9.24421e-06
9.24355e-06
9.24385e-06
9.2441e-06
9.24403e-06
9.2438e-06
9.24402e-06
9.24469e-06
9.24517e-06
9.24523e-06
9.24498e-06
9.24455e-06
9.24406e-06
9.24354e-06
9.24316e-06
9.24337e-06
9.24377e-06
9.24422e-06
9.24458e-06
9.241e-06
9.19083e-06
9.19267e-06
9.24141e-06
9.24581e-06
9.24697e-06
9.24834e-06
9.24938e-06
9.24971e-06
9.24901e-06
9.24734e-06
9.24522e-06
9.24354e-06
9.24371e-06
9.24466e-06
9.24551e-06
9.24595e-06
9.24591e-06
9.24525e-06
9.24392e-06
9.2426e-06
9.24229e-06
9.24288e-06
9.24347e-06
9.24378e-06
9.2438e-06
9.2438e-06
9.24399e-06
9.24441e-06
9.24472e-06
9.24092e-06
9.19121e-06
9.19554e-06
9.24098e-06
9.24735e-06
9.24914e-06
9.25051e-06
9.25106e-06
9.25058e-06
9.24914e-06
9.2471e-06
9.24498e-06
9.2432e-06
9.24319e-06
9.2446e-06
9.24606e-06
9.24686e-06
9.24674e-06
9.2457e-06
9.24401e-06
9.24246e-06
9.24197e-06
9.24276e-06
9.24382e-06
9.2445e-06
9.24466e-06
9.24444e-06
9.24465e-06
9.24516e-06
9.24543e-06
9.24183e-06
9.1927e-06
9.19682e-06
9.24493e-06
9.24997e-06
9.25089e-06
9.25103e-06
9.25026e-06
9.24879e-06
9.24718e-06
9.24582e-06
9.24462e-06
9.24339e-06
9.24309e-06
9.24444e-06
9.24594e-06
9.24677e-06
9.24673e-06
9.24603e-06
9.24499e-06
9.24398e-06
9.24343e-06
9.24362e-06
9.24447e-06
9.24525e-06
9.24552e-06
9.24555e-06
9.24598e-06
9.24668e-06
9.24743e-06
9.24476e-06
9.19471e-06
9.19628e-06
9.2495e-06
9.25226e-06
9.2517e-06
9.25024e-06
9.24836e-06
9.24667e-06
9.24585e-06
9.24576e-06
9.24528e-06
9.24439e-06
9.24396e-06
9.24474e-06
9.24573e-06
9.24625e-06
9.24634e-06
9.24616e-06
9.24571e-06
9.24512e-06
9.24472e-06
9.24483e-06
9.24519e-06
9.2457e-06
9.24619e-06
9.24674e-06
9.24761e-06
9.24863e-06
9.24959e-06
9.24634e-06
9.19537e-06
9.19627e-06
9.25222e-06
9.25388e-06
9.2526e-06
9.25084e-06
9.24901e-06
9.24756e-06
9.24685e-06
9.24662e-06
9.24605e-06
9.2454e-06
9.24491e-06
9.24491e-06
9.24507e-06
9.24519e-06
9.24548e-06
9.24581e-06
9.24599e-06
9.24595e-06
9.24593e-06
9.24602e-06
9.24621e-06
9.24658e-06
9.24717e-06
9.24821e-06
9.24939e-06
9.25036e-06
9.25075e-06
9.2464e-06
9.19551e-06
9.19888e-06
9.25346e-06
9.25549e-06
9.25431e-06
9.25279e-06
9.25141e-06
9.25025e-06
9.24914e-06
9.24788e-06
9.24674e-06
9.24587e-06
9.24501e-06
9.24437e-06
9.24393e-06
9.24382e-06
9.24422e-06
9.24501e-06
9.24579e-06
9.24635e-06
9.24666e-06
9.24682e-06
9.24709e-06
9.24758e-06
9.24896e-06
9.25061e-06
9.25162e-06
9.25194e-06
9.25155e-06
9.24695e-06
9.19686e-06
9.20197e-06
9.2542e-06
9.25694e-06
9.25597e-06
9.25475e-06
9.25364e-06
9.25261e-06
9.25137e-06
9.24986e-06
9.24829e-06
9.2468e-06
9.24539e-06
9.24413e-06
9.24314e-06
9.24267e-06
9.24322e-06
9.24447e-06
9.2457e-06
9.24663e-06
9.24725e-06
9.24776e-06
9.24863e-06
9.25041e-06
9.2523e-06
9.25341e-06
9.25367e-06
9.25359e-06
9.25338e-06
9.24954e-06
9.1997e-06
9.20502e-06
9.25513e-06
9.25827e-06
9.25757e-06
9.25673e-06
9.25595e-06
9.255e-06
9.25367e-06
9.25202e-06
9.25017e-06
9.24822e-06
9.2463e-06
9.24471e-06
9.24363e-06
9.24325e-06
9.2439e-06
9.24515e-06
9.24639e-06
9.24755e-06
9.24872e-06
9.25019e-06
9.25214e-06
9.25401e-06
9.25504e-06
9.25517e-06
9.25511e-06
9.25539e-06
9.25573e-06
9.25235e-06
9.20275e-06
9.20798e-06
9.2567e-06
9.26035e-06
9.25993e-06
9.25929e-06
9.2585e-06
9.25733e-06
9.25576e-06
9.25389e-06
9.25179e-06
9.24955e-06
9.24769e-06
9.2463e-06
9.24539e-06
9.2449e-06
9.2451e-06
9.246e-06
9.24739e-06
9.24921e-06
9.25134e-06
9.25364e-06
9.25561e-06
9.25666e-06
9.25673e-06
9.25684e-06
9.25741e-06
9.25816e-06
9.25866e-06
9.25528e-06
9.20593e-06
9.21133e-06
9.25958e-06
9.26351e-06
9.26324e-06
9.26249e-06
9.2613e-06
9.25967e-06
9.25774e-06
9.25566e-06
9.25357e-06
9.25169e-06
9.24995e-06
9.24823e-06
9.24652e-06
9.24522e-06
9.24512e-06
9.24638e-06
9.24857e-06
9.2513e-06
9.25421e-06
9.25659e-06
9.25795e-06
9.2585e-06
9.25896e-06
9.25983e-06
9.26104e-06
9.26204e-06
9.26244e-06
9.25904e-06
9.20992e-06
9.21569e-06
9.26398e-06
9.26795e-06
9.26754e-06
9.26637e-06
9.26466e-06
9.26267e-06
9.26065e-06
9.25859e-06
9.25651e-06
9.25437e-06
9.2521e-06
9.24962e-06
9.24707e-06
9.24525e-06
9.24545e-06
9.24735e-06
9.25031e-06
9.25372e-06
9.25666e-06
9.25872e-06
9.26004e-06
9.26121e-06
9.26266e-06
9.26444e-06
9.26611e-06
9.26705e-06
9.26752e-06
9.26403e-06
9.21528e-06
9.22146e-06
9.2701e-06
9.27379e-06
9.27298e-06
9.27135e-06
9.26936e-06
9.26731e-06
9.26514e-06
9.26276e-06
9.26023e-06
9.25749e-06
9.25448e-06
9.25122e-06
9.24819e-06
9.24652e-06
9.2468e-06
9.24891e-06
9.25241e-06
9.25582e-06
9.25861e-06
9.26097e-06
9.26326e-06
9.26547e-06
9.26773e-06
9.27004e-06
9.27175e-06
9.27296e-06
9.27383e-06
9.27059e-06
9.22222e-06
9.22926e-06
9.27805e-06
9.28116e-06
9.27988e-06
9.278e-06
9.27589e-06
9.2736e-06
9.27102e-06
9.26816e-06
9.26507e-06
9.2616e-06
9.25773e-06
9.25383e-06
9.25077e-06
9.24871e-06
9.24861e-06
9.25074e-06
9.25432e-06
9.25797e-06
9.26159e-06
9.26511e-06
9.26817e-06
9.27088e-06
9.27371e-06
9.27598e-06
9.27783e-06
9.27975e-06
9.28138e-06
9.27926e-06
9.22949e-06
9.23945e-06
9.2875e-06
9.29024e-06
9.28876e-06
9.28673e-06
9.28432e-06
9.28151e-06
9.27831e-06
9.27487e-06
9.27094e-06
9.26653e-06
9.26194e-06
9.2579e-06
9.25452e-06
9.25155e-06
9.251e-06
9.25336e-06
9.25736e-06
9.26203e-06
9.26666e-06
9.27073e-06
9.27426e-06
9.27762e-06
9.28078e-06
9.28328e-06
9.28584e-06
9.2886e-06
9.29062e-06
9.28771e-06
9.23855e-06
9.25165e-06
9.29881e-06
9.30159e-06
9.29985e-06
9.29737e-06
9.29438e-06
9.29089e-06
9.28696e-06
9.28268e-06
9.27787e-06
9.27272e-06
9.26784e-06
9.26344e-06
9.25888e-06
9.2549e-06
9.2542e-06
9.25727e-06
9.26224e-06
9.26775e-06
9.27305e-06
9.27801e-06
9.28258e-06
9.28633e-06
9.29002e-06
9.29341e-06
9.29679e-06
9.29988e-06
9.30097e-06
9.2979e-06
9.25011e-06
9.26582e-06
9.31244e-06
9.31485e-06
9.31272e-06
9.30979e-06
9.30627e-06
9.30217e-06
9.29757e-06
9.29243e-06
9.28675e-06
9.28091e-06
9.27538e-06
9.26966e-06
9.26378e-06
9.25909e-06
9.25858e-06
9.26258e-06
9.26855e-06
9.2751e-06
9.28144e-06
9.2873e-06
9.29287e-06
9.29755e-06
9.30219e-06
9.30662e-06
9.31045e-06
9.3133e-06
9.31414e-06
9.31129e-06
9.26491e-06
9.28262e-06
9.32846e-06
9.33066e-06
9.32825e-06
9.32497e-06
9.32099e-06
9.31629e-06
9.31087e-06
9.30467e-06
9.29787e-06
9.29097e-06
9.28404e-06
9.27672e-06
9.26958e-06
9.26435e-06
9.26421e-06
9.26913e-06
9.27609e-06
9.28371e-06
9.29121e-06
9.2981e-06
9.30504e-06
9.31133e-06
9.31711e-06
9.32219e-06
9.32626e-06
9.32912e-06
9.33088e-06
9.32903e-06
9.28277e-06
9.30295e-06
9.34817e-06
9.35025e-06
9.34753e-06
9.34376e-06
9.33906e-06
9.33344e-06
9.32691e-06
9.3194e-06
9.31126e-06
9.30292e-06
9.2943e-06
9.28543e-06
9.27714e-06
9.2714e-06
9.27153e-06
9.27733e-06
9.2853e-06
9.29415e-06
9.3031e-06
9.31141e-06
9.32007e-06
9.32796e-06
9.3345e-06
9.34017e-06
9.34468e-06
9.34836e-06
9.35166e-06
9.35021e-06
9.30407e-06
9.32787e-06
9.37272e-06
9.37447e-06
9.37118e-06
9.36661e-06
9.36092e-06
9.35417e-06
9.34636e-06
9.33751e-06
9.32795e-06
9.31791e-06
9.3074e-06
9.29681e-06
9.28724e-06
9.28072e-06
9.2809e-06
9.28766e-06
9.29705e-06
9.30729e-06
9.31793e-06
9.32806e-06
9.33835e-06
9.34727e-06
9.35479e-06
9.36141e-06
9.36705e-06
9.37197e-06
9.37653e-06
9.37516e-06
9.32969e-06
9.35854e-06
9.40276e-06
9.40394e-06
9.39994e-06
9.39442e-06
9.38762e-06
9.37964e-06
9.37048e-06
9.36014e-06
9.34876e-06
9.33652e-06
9.32379e-06
9.31133e-06
9.30042e-06
9.29301e-06
9.29313e-06
9.30083e-06
9.31176e-06
9.32351e-06
9.33604e-06
9.34809e-06
9.35974e-06
9.36994e-06
9.37918e-06
9.38736e-06
9.39439e-06
9.4006e-06
9.40575e-06
9.40453e-06
9.36041e-06
9.39593e-06
9.43917e-06
9.43976e-06
9.43501e-06
9.42839e-06
9.4202e-06
9.41061e-06
9.39965e-06
9.38731e-06
9.37369e-06
9.35918e-06
9.34438e-06
9.33012e-06
9.31778e-06
9.30937e-06
9.3093e-06
9.31774e-06
9.33027e-06
9.34384e-06
9.35841e-06
9.37242e-06
9.38598e-06
9.39807e-06
9.40937e-06
9.41916e-06
9.42781e-06
9.43514e-06
9.44054e-06
9.43983e-06
9.39698e-06
9.4411e-06
9.48317e-06
9.48308e-06
9.47721e-06
9.46912e-06
9.45923e-06
9.44771e-06
9.4346e-06
9.42004e-06
9.40418e-06
9.38751e-06
9.37064e-06
9.35431e-06
9.34002e-06
9.33036e-06
9.33038e-06
9.33988e-06
9.3542e-06
9.37003e-06
9.38693e-06
9.40311e-06
9.41908e-06
9.4334e-06
9.44661e-06
9.45818e-06
9.46866e-06
9.47695e-06
9.48273e-06
9.4825e-06
9.44097e-06
9.49552e-06
9.53571e-06
9.53463e-06
9.52747e-06
9.51798e-06
9.50649e-06
9.49307e-06
9.47776e-06
9.46091e-06
9.44268e-06
9.42355e-06
9.40419e-06
9.38528e-06
9.36874e-06
9.35776e-06
9.35821e-06
9.36941e-06
9.38575e-06
9.40411e-06
9.42373e-06
9.44227e-06
9.46093e-06
9.4775e-06
9.49264e-06
9.50622e-06
9.51842e-06
9.52744e-06
9.53375e-06
9.53398e-06
9.49475e-06
9.56079e-06
9.59842e-06
9.59657e-06
9.58862e-06
9.57802e-06
9.56495e-06
9.54946e-06
9.53183e-06
9.51251e-06
9.49168e-06
9.46967e-06
9.44748e-06
9.42594e-06
9.40738e-06
9.39492e-06
9.39532e-06
9.40816e-06
9.4267e-06
9.44772e-06
9.47061e-06
9.49192e-06
9.51305e-06
9.53193e-06
9.5494e-06
9.56513e-06
9.57864e-06
9.58856e-06
9.5959e-06
9.59762e-06
9.56058e-06
9.6394e-06
9.67472e-06
9.67265e-06
9.66389e-06
9.65169e-06
9.63646e-06
9.61862e-06
9.59857e-06
9.57668e-06
9.55311e-06
9.52814e-06
9.50318e-06
9.47906e-06
9.45836e-06
9.44416e-06
9.44377e-06
9.45794e-06
9.47938e-06
9.50327e-06
9.52934e-06
9.55349e-06
9.57692e-06
9.59841e-06
9.6188e-06
9.63669e-06
9.65135e-06
9.66331e-06
9.67264e-06
9.67575e-06
9.64045e-06
9.73451e-06
9.76819e-06
9.76521e-06
9.75461e-06
9.74017e-06
9.72261e-06
9.70247e-06
9.67993e-06
9.65518e-06
9.62873e-06
9.60081e-06
9.57316e-06
9.54618e-06
9.52277e-06
9.50704e-06
9.50625e-06
9.52201e-06
9.54651e-06
9.57343e-06
9.60196e-06
9.62877e-06
9.65489e-06
9.67949e-06
9.70267e-06
9.7229e-06
9.73924e-06
9.75394e-06
9.7654e-06
9.76849e-06
9.73526e-06
9.84963e-06
9.88043e-06
9.8757e-06
9.86324e-06
9.84708e-06
9.8277e-06
9.80519e-06
9.7799e-06
9.75204e-06
9.72279e-06
9.69193e-06
9.66141e-06
9.63186e-06
9.60533e-06
9.58811e-06
9.5876e-06
9.60525e-06
9.63214e-06
9.66184e-06
9.69259e-06
9.72243e-06
9.75171e-06
9.77962e-06
9.80492e-06
9.82779e-06
9.84662e-06
9.86336e-06
9.87602e-06
9.87939e-06
9.84863e-06
9.98776e-06
1.00148e-05
1.00091e-05
9.99595e-06
9.97853e-06
9.95701e-06
9.93169e-06
9.90401e-06
9.87365e-06
9.84214e-06
9.80863e-06
9.77502e-06
9.74346e-06
9.7138e-06
9.69439e-06
9.6941e-06
9.71362e-06
9.74283e-06
9.77517e-06
9.80818e-06
9.84131e-06
9.87338e-06
9.90389e-06
9.93104e-06
9.95645e-06
9.97856e-06
9.99606e-06
1.0009e-05
1.00146e-05
9.98648e-06
1.01544e-05
1.0179e-05
1.01728e-05
1.01583e-05
1.01387e-05
1.01148e-05
1.00872e-05
1.00579e-05
1.00253e-05
9.99151e-06
9.95632e-06
9.92016e-06
9.88706e-06
9.85493e-06
9.83281e-06
9.83393e-06
9.85542e-06
9.88598e-06
9.92071e-06
9.95603e-06
9.99139e-06
1.00249e-05
1.00571e-05
1.00874e-05
1.01142e-05
1.01388e-05
1.01577e-05
1.01716e-05
1.01795e-05
1.0155e-05
1.03583e-05
1.03806e-05
1.03724e-05
1.03556e-05
1.0334e-05
1.03087e-05
1.02789e-05
1.02479e-05
1.0214e-05
1.01789e-05
1.01444e-05
1.01067e-05
1.00713e-05
1.00393e-05
1.00159e-05
1.00171e-05
1.00402e-05
1.00718e-05
1.01071e-05
1.01439e-05
1.01797e-05
1.02142e-05
1.02477e-05
1.02808e-05
1.03086e-05
1.03337e-05
1.03559e-05
1.03728e-05
1.03816e-05
1.03581e-05
1.06096e-05
1.063e-05
1.06193e-05
1.06009e-05
1.0577e-05
1.05503e-05
1.05193e-05
1.04876e-05
1.04544e-05
1.04197e-05
1.03868e-05
1.03515e-05
1.0318e-05
1.02898e-05
1.02687e-05
1.02686e-05
1.02892e-05
1.032e-05
1.03524e-05
1.03861e-05
1.04201e-05
1.04544e-05
1.0488e-05
1.05197e-05
1.05498e-05
1.05774e-05
1.06019e-05
1.06198e-05
1.06302e-05
1.06083e-05
1.09257e-05
1.09513e-05
1.09362e-05
1.09156e-05
1.08902e-05
1.08623e-05
1.08295e-05
1.07991e-05
1.07733e-05
1.07464e-05
1.07295e-05
1.07244e-05
1.07296e-05
1.07396e-05
1.07575e-05
1.07612e-05
1.07419e-05
1.07286e-05
1.07243e-05
1.07318e-05
1.07476e-05
1.07724e-05
1.08011e-05
1.08289e-05
1.08601e-05
1.08917e-05
1.09164e-05
1.09338e-05
1.09497e-05
1.0927e-05
1.13669e-05
1.14246e-05
1.14042e-05
1.13974e-05
1.13734e-05
1.13347e-05
1.13069e-05
1.13029e-05
1.13193e-05
1.13663e-05
1.15297e-05
1.1813e-05
1.22224e-05
1.26804e-05
1.31563e-05
1.31686e-05
1.269e-05
1.22239e-05
1.18211e-05
1.15324e-05
1.13685e-05
1.13202e-05
1.13021e-05
1.13076e-05
1.13347e-05
1.13719e-05
1.1397e-05
1.14061e-05
1.14246e-05
1.13669e-05
1.22288e-05
1.24316e-05
1.25102e-05
1.26977e-05
1.26228e-05
1.25355e-05
1.26743e-05
1.28484e-05
1.32091e-05
1.39807e-05
1.57685e-05
1.88058e-05
2.29675e-05
2.73749e-05
3.22021e-05
3.22703e-05
2.74704e-05
2.2979e-05
1.88977e-05
1.57919e-05
1.39964e-05
1.32179e-05
1.28511e-05
1.26781e-05
1.2539e-05
1.26177e-05
1.26966e-05
1.25166e-05
1.24337e-05
1.22297e-05
1.50724e-05
1.56285e-05
1.69398e-05
1.96039e-05
1.8157e-05
1.8055e-05
2.21378e-05
2.27159e-05
2.5217e-05
3.36397e-05
4.92902e-05
7.33066e-05
0.000107978
0.000141114
0.000176189
0.000176397
0.000141748
0.000108199
7.43536e-05
4.94118e-05
3.37598e-05
2.53013e-05
2.2754e-05
2.22064e-05
1.80963e-05
1.8138e-05
1.95971e-05
1.69667e-05
1.56318e-05
1.50602e-05
2.64067e-05
3.02167e-05
3.86742e-05
5.83504e-05
5.00007e-05
5.66729e-05
0.000116205
0.000115629
0.000140604
0.00026729
0.000357668
0.000467634
0.000682075
0.000829987
0.000961813
0.000958376
0.000832636
0.000682402
0.00047421
0.000358905
0.000268586
0.000141424
0.00011618
0.000117145
5.70896e-05
5.0072e-05
5.84137e-05
3.88095e-05
3.01526e-05
2.63121e-05
7.683e-05
0.000130654
0.000145108
0.000282061
0.000336701
0.000387702
0.000655671
0.000777786
0.000844375
0.00153443
0.00194691
0.00208038
0.00260417
0.00281417
0.00308144
0.0030491
0.00284233
0.00260798
0.00209275
0.00192305
0.0015301
0.000844927
0.00078443
0.000661463
0.000390603
0.000341261
0.000284823
0.00014563
0.000129881
7.67281e-05
0.000248661
0.00061146
0.000640505
0.00123034
0.001781
0.00217287
0.00306728
0.00415108
0.00437326
0.00577614
0.00639663
0.00612307
0.00682979
0.00767525
0.00710213
0.00696951
0.00758882
0.00684137
0.00593627
0.00620198
0.00572231
0.0043791
0.00419055
0.00311274
0.00221578
0.00181746
0.00126099
0.0006428
0.000605138
0.000254135
0.000523903
0.000813193
0.001102
0.00184542
0.00264774
0.00333693
0.00452462
0.00580517
0.00584066
0.0080831
0.00862405
0.0087971
0.00844076
0.00884581
0.00831169
0.00819086
0.00861823
0.00854138
0.00772094
0.00806569
0.00796283
0.00590861
0.00583282
0.00461059
0.00347414
0.00273607
0.00187951
0.00111424
0.000810589
0.000525916
0.000682351
0.000897299
0.00111699
0.0020001
0.00257768
0.0026811
0.00385706
0.00496187
0.00458992
0.00711488
0.00731799
0.00596547
0.00596992
0.00673747
0.00660687
0.00662952
0.00686053
0.00622422
0.00597474
0.00728573
0.00729019
0.00467138
0.00504091
0.00390465
0.00273271
0.00263081
0.0020259
0.0011599
0.000905246
0.000677038
0.000660773
0.000697546
0.000925905
0.00172522
0.00185602
0.00188089
0.00247547
0.00314383
0.00352568
0.00485513
0.00441256
0.00416494
0.00413878
0.00449356
0.00550117
0.00559496
0.00474831
0.00432802
0.00451052
0.00448504
0.00507277
0.00351036
0.00316079
0.00250519
0.00190832
0.00189059
0.00175969
0.00093951
0.00071171
0.000661975
0.000530015
0.000550607
0.00071162
0.00128792
0.00127125
0.00119219
0.0015732
0.00181295
0.00212005
0.0029267
0.00275403
0.00269404
0.00302553
0.00332094
0.00363791
0.00367436
0.00342811
0.0030727
0.00278355
0.0027185
0.00302642
0.00215326
0.0018482
0.00158891
0.00121256
0.00128581
0.00130755
0.000720568
0.000564138
0.000523625
0.00033812
0.000387694
0.000473502
0.000754671
0.000716948
0.000604362
0.000900404
0.00112091
0.00137109
0.00181914
0.00193199
0.0019215
0.001959
0.00210096
0.00214903
0.00215463
0.00214671
0.0019701
0.00189901
0.001893
0.00184922
0.00138164
0.00112665
0.000912224
0.000610413
0.000728079
0.00076691
0.000474967
0.000397942
0.000340624
0.000218041
0.000251607
0.00028432
0.000368181
0.000350571
0.000302776
0.000365329
0.000502505
0.000740781
0.00113921
0.00145994
0.00167747
0.00180279
0.00188015
0.00187143
0.00186791
0.00189936
0.00180659
0.00166801
0.00144977
0.00114545
0.000742272
0.000506551
0.000372925
0.00030563
0.000357371
0.000373569
0.000283361
0.000255359
0.000219972
0.000153223
0.000166759
0.000173615
0.000188469
0.0001833
0.000173432
0.000184373
0.000218756
0.000297636
0.000495798
0.000836216
0.00123845
0.0015687
0.00177505
0.001844
0.0018413
0.00178267
0.00157167
0.00123516
0.000832797
0.000499023
0.000298773
0.000220215
0.000186615
0.000175422
0.000186635
0.000191565
0.000174403
0.000168317
0.000154717
0.000114905
0.000119317
0.000118985
0.000119643
0.000117924
0.000116598
0.000119623
0.000127732
0.000146697
0.000196837
0.000328124
0.000597788
0.00098112
0.00133313
0.00153371
0.00153225
0.00133652
0.000984093
0.000596351
0.000327359
0.000198131
0.000147629
0.000128526
0.000119886
0.000116908
0.000118925
0.00012083
0.00011924
0.000119937
0.000116037
9.09009e-05
9.22074e-05
9.09962e-05
9.0495e-05
9.00236e-05
9.00494e-05
9.1127e-05
9.39995e-05
9.90584e-05
0.000110153
0.0001385
0.000215213
0.000375591
0.000624689
0.000849762
0.000848013
0.000624559
0.000376652
0.000215001
0.000138709
0.000111094
9.96828e-05
9.44284e-05
9.14903e-05
9.01285e-05
9.02019e-05
9.08138e-05
9.1643e-05
9.25973e-05
9.13574e-05
7.4793e-05
7.47257e-05
7.37738e-05
7.37505e-05
7.36281e-05
7.41229e-05
7.5456e-05
7.70095e-05
7.90723e-05
8.2099e-05
8.77166e-05
0.000101422
0.000133602
0.000191901
0.000265715
0.000265484
0.000191812
0.000133978
0.000101525
8.82082e-05
8.25695e-05
7.94802e-05
7.74011e-05
7.57918e-05
7.45328e-05
7.41414e-05
7.37445e-05
7.42169e-05
7.4967e-05
7.4812e-05
6.31558e-05
6.19388e-05
6.16014e-05
6.17565e-05
6.23303e-05
6.31627e-05
6.4512e-05
6.55714e-05
6.67872e-05
6.80025e-05
6.93987e-05
7.15818e-05
7.59984e-05
8.43228e-05
9.54795e-05
9.57146e-05
8.46858e-05
7.62395e-05
7.15116e-05
6.95903e-05
6.82198e-05
6.69066e-05
6.56826e-05
6.44624e-05
6.3342e-05
6.24895e-05
6.19166e-05
6.18165e-05
6.25044e-05
6.37195e-05
5.51509e-05
5.26655e-05
5.25686e-05
5.29425e-05
5.34975e-05
5.43384e-05
5.53162e-05
5.5944e-05
5.66956e-05
5.72503e-05
5.75262e-05
5.76351e-05
5.78868e-05
5.86e-05
5.97333e-05
5.97089e-05
5.87644e-05
5.81061e-05
5.78174e-05
5.76633e-05
5.72835e-05
5.68125e-05
5.6217e-05
5.52411e-05
5.42454e-05
5.33945e-05
5.29936e-05
5.27309e-05
5.32925e-05
5.56098e-05
4.85252e-05
4.57486e-05
4.54803e-05
4.57869e-05
4.63125e-05
4.69381e-05
4.74335e-05
4.786e-05
4.82328e-05
4.82784e-05
4.80481e-05
4.77669e-05
4.74448e-05
4.70928e-05
4.6881e-05
4.68464e-05
4.7215e-05
4.76116e-05
4.80031e-05
4.82984e-05
4.84185e-05
4.8387e-05
4.80621e-05
4.7475e-05
4.68646e-05
4.63334e-05
4.59995e-05
4.56692e-05
4.61241e-05
4.88635e-05
4.28988e-05
4.0089e-05
3.97226e-05
3.99967e-05
4.04236e-05
4.08296e-05
4.10745e-05
4.12466e-05
4.11768e-05
4.0868e-05
4.04797e-05
4.00574e-05
3.95109e-05
3.89356e-05
3.85645e-05
3.8629e-05
3.91256e-05
3.9652e-05
4.01474e-05
4.06153e-05
4.10226e-05
4.13119e-05
4.12823e-05
4.10619e-05
4.07815e-05
4.04991e-05
4.02167e-05
3.99254e-05
4.03127e-05
4.30325e-05
3.78823e-05
3.52459e-05
3.49766e-05
3.51906e-05
3.54464e-05
3.56175e-05
3.56695e-05
3.55482e-05
3.52418e-05
3.48363e-05
3.43435e-05
3.37638e-05
3.30966e-05
3.25184e-05
3.21906e-05
3.22767e-05
3.26806e-05
3.3198e-05
3.38111e-05
3.44563e-05
3.5027e-05
3.54291e-05
3.55966e-05
3.56243e-05
3.55707e-05
3.54412e-05
3.52212e-05
3.50498e-05
3.54375e-05
3.79114e-05
3.3431e-05
3.12727e-05
3.09855e-05
3.10504e-05
3.11006e-05
3.11135e-05
3.10006e-05
3.06956e-05
3.03005e-05
2.98205e-05
2.92541e-05
2.86328e-05
2.79977e-05
2.74699e-05
2.71544e-05
2.71949e-05
2.75384e-05
2.80584e-05
2.87101e-05
2.93975e-05
3.00221e-05
3.05075e-05
3.08194e-05
3.10042e-05
3.10743e-05
3.10515e-05
3.09563e-05
3.09236e-05
3.13249e-05
3.35556e-05
2.97902e-05
2.78175e-05
2.75083e-05
2.75004e-05
2.7476e-05
2.73885e-05
2.71009e-05
2.67171e-05
2.63073e-05
2.58041e-05
2.52098e-05
2.45796e-05
2.39665e-05
2.34596e-05
2.3141e-05
2.3144e-05
2.34562e-05
2.39772e-05
2.46356e-05
2.53205e-05
2.59564e-05
2.64812e-05
2.68646e-05
2.71267e-05
2.73035e-05
2.7396e-05
2.74235e-05
2.74746e-05
2.7847e-05
2.98431e-05
2.64855e-05
2.47795e-05
2.45602e-05
2.44987e-05
2.43928e-05
2.41803e-05
2.38498e-05
2.35204e-05
2.31367e-05
2.26272e-05
2.20277e-05
2.13999e-05
2.08088e-05
2.0326e-05
2.00219e-05
2.00109e-05
2.02951e-05
2.07845e-05
2.13973e-05
2.20332e-05
2.26371e-05
2.31721e-05
2.36084e-05
2.39357e-05
2.41783e-05
2.43482e-05
2.4457e-05
2.4551e-05
2.48831e-05
2.6597e-05
2.36406e-05
2.23351e-05
2.20798e-05
2.19275e-05
2.17373e-05
2.14822e-05
2.12035e-05
2.08998e-05
2.04973e-05
1.99873e-05
1.94136e-05
1.88224e-05
1.82682e-05
1.78048e-05
1.75064e-05
1.74803e-05
1.77385e-05
1.81988e-05
1.87759e-05
1.93848e-05
1.99728e-05
2.0503e-05
2.09451e-05
2.12899e-05
2.1565e-05
2.17816e-05
2.19388e-05
2.20603e-05
2.23611e-05
2.3786e-05
2.13531e-05
2.02651e-05
1.99423e-05
1.97439e-05
1.95492e-05
1.93349e-05
1.90805e-05
1.87514e-05
1.83409e-05
1.7862e-05
1.73404e-05
1.67983e-05
1.62825e-05
1.58488e-05
1.5573e-05
1.55552e-05
1.58018e-05
1.62337e-05
1.67677e-05
1.7326e-05
1.78602e-05
1.83492e-05
1.87752e-05
1.91277e-05
1.94136e-05
1.9639e-05
1.98093e-05
1.9943e-05
2.02087e-05
2.13741e-05
1.93488e-05
1.83954e-05
1.81092e-05
1.79584e-05
1.78212e-05
1.76326e-05
1.73549e-05
1.70173e-05
1.66376e-05
1.62002e-05
1.57197e-05
1.52191e-05
1.47485e-05
1.43625e-05
1.41243e-05
1.41162e-05
1.43401e-05
1.47246e-05
1.51987e-05
1.56977e-05
1.61801e-05
1.66294e-05
1.70292e-05
1.73692e-05
1.7644e-05
1.78611e-05
1.80277e-05
1.81565e-05
1.83797e-05
1.93253e-05
1.76294e-05
1.68204e-05
1.66231e-05
1.65351e-05
1.64078e-05
1.62003e-05
1.59284e-05
1.56325e-05
1.52935e-05
1.48907e-05
1.44423e-05
1.39829e-05
1.3561e-05
1.32205e-05
1.30117e-05
1.30079e-05
1.32105e-05
1.35523e-05
1.39699e-05
1.44104e-05
1.48436e-05
1.52533e-05
1.56236e-05
1.5941e-05
1.61974e-05
1.63965e-05
1.65455e-05
1.66581e-05
1.6841e-05
1.76049e-05
1.61427e-05
1.55094e-05
1.53822e-05
1.52997e-05
1.51621e-05
1.49729e-05
1.47581e-05
1.45087e-05
1.41959e-05
1.38273e-05
1.34252e-05
1.30239e-05
1.26579e-05
1.23567e-05
1.21658e-05
1.21584e-05
1.23383e-05
1.26408e-05
1.30085e-05
1.3397e-05
1.3784e-05
1.41525e-05
1.44868e-05
1.47707e-05
1.49981e-05
1.51728e-05
1.53032e-05
1.54025e-05
1.5554e-05
1.61635e-05
1.48911e-05
1.44376e-05
1.43227e-05
1.42275e-05
1.41174e-05
1.39821e-05
1.3812e-05
1.35783e-05
1.32881e-05
1.2961e-05
1.2615e-05
1.22734e-05
1.19521e-05
1.16746e-05
1.1495e-05
1.14874e-05
1.16544e-05
1.19296e-05
1.22555e-05
1.25946e-05
1.29301e-05
1.32481e-05
1.35364e-05
1.37832e-05
1.39835e-05
1.41397e-05
1.42574e-05
1.43468e-05
1.44725e-05
1.49524e-05
1.39295e-05
1.35619e-05
1.34387e-05
1.33711e-05
1.32955e-05
1.31842e-05
1.30198e-05
1.27979e-05
1.25426e-05
1.2264e-05
1.19742e-05
1.16825e-05
1.13942e-05
1.11375e-05
1.09757e-05
1.09753e-05
1.11292e-05
1.13724e-05
1.16531e-05
1.19427e-05
1.22282e-05
1.25009e-05
1.2748e-05
1.29614e-05
1.31385e-05
1.32786e-05
1.33837e-05
1.34621e-05
1.35653e-05
1.39396e-05
1.31307e-05
1.28038e-05
1.2726e-05
1.26862e-05
1.2607e-05
1.24927e-05
1.23357e-05
1.21461e-05
1.19344e-05
1.17037e-05
1.14622e-05
1.12092e-05
1.0952e-05
1.07265e-05
1.05898e-05
1.05908e-05
1.07198e-05
1.09238e-05
1.11631e-05
1.14163e-05
1.16679e-05
1.1906e-05
1.21201e-05
1.23044e-05
1.24565e-05
1.25755e-05
1.26632e-05
1.27278e-05
1.28102e-05
1.30986e-05
1.24066e-05
1.21904e-05
1.21631e-05
1.2107e-05
1.20189e-05
1.1913e-05
1.17809e-05
1.16268e-05
1.14485e-05
1.12531e-05
1.1045e-05
1.0822e-05
1.05987e-05
1.04114e-05
1.02992e-05
1.02942e-05
1.03951e-05
1.05667e-05
1.07779e-05
1.10065e-05
1.12336e-05
1.14433e-05
1.16274e-05
1.17817e-05
1.19052e-05
1.19992e-05
1.20676e-05
1.2119e-05
1.21844e-05
1.24088e-05
1.18592e-05
1.17575e-05
1.17009e-05
1.16221e-05
1.15452e-05
1.14573e-05
1.13496e-05
1.12187e-05
1.10653e-05
1.08987e-05
1.07187e-05
1.05266e-05
1.0341e-05
1.0189e-05
1.00934e-05
1.00814e-05
1.01598e-05
1.03065e-05
1.04935e-05
1.06951e-05
1.08913e-05
1.10686e-05
1.12197e-05
1.13432e-05
1.14409e-05
1.15166e-05
1.15749e-05
1.16211e-05
1.16767e-05
1.18484e-05
1.14697e-05
1.13641e-05
1.1272e-05
1.12126e-05
1.11585e-05
1.10878e-05
1.09979e-05
1.08866e-05
1.07602e-05
1.06231e-05
1.04722e-05
1.0313e-05
1.01632e-05
1.00376e-05
9.9518e-06
9.93644e-06
1.00007e-05
1.01238e-05
1.02787e-05
1.04423e-05
1.05991e-05
1.07411e-05
1.08648e-05
1.09693e-05
1.10555e-05
1.11252e-05
1.11806e-05
1.12245e-05
1.12697e-05
1.13917e-05
1.10852e-05
1.09448e-05
1.08998e-05
1.08803e-05
1.08431e-05
1.07836e-05
1.07054e-05
1.06127e-05
1.05119e-05
1.03994e-05
1.02717e-05
1.01394e-05
1.00162e-05
9.90967e-06
9.83557e-06
9.82426e-06
9.88028e-06
9.9797e-06
1.01003e-05
1.02261e-05
1.03491e-05
1.04673e-05
1.05779e-05
1.0676e-05
1.07576e-05
1.08225e-05
1.0872e-05
1.09072e-05
1.09357e-05
1.10115e-05
1.07012e-05
1.06307e-05
1.06466e-05
1.06375e-05
1.05998e-05
1.05419e-05
1.0471e-05
1.03954e-05
1.03139e-05
1.02163e-05
1.01049e-05
9.99401e-06
9.89134e-06
9.80204e-06
9.74075e-06
9.73458e-06
9.78504e-06
9.86613e-06
9.96062e-06
1.00604e-05
1.01635e-05
1.02678e-05
1.03672e-05
1.04539e-05
1.05244e-05
1.05778e-05
1.06144e-05
1.06352e-05
1.06465e-05
1.06867e-05
1.04353e-05
1.04597e-05