/*--------------------------------*- C++ -*----------------------------------*\
| =========                 |                                                 |
| \\      /  F ield         | OpenFOAM: The Open Source CFD Toolbox           |
|  \\    /   O peration     | Version:  2312                                  |
|   \\  /    A nd           | Website:  www.openfoam.com                      |
|    \\/     M anipulation  |                                                 |
\*---------------------------------------------------------------------------*/
FoamFile
{
    version     2.0;
    format      ascii;
    arch        "LSB;label=32;scalar=64";
    class       volScalarField;
    location    "1.0996775";
    object      k;
}
// * * * * * * * * * * * * * * * * * * * * * * * * * * * * * * * * * * * * * //

dimensions      [0 2 -2 0 0 0 0];

internalField   nonuniform List<scalar> 
90000
(
2.32778e-05
2.32819e-05
2.32828e-05
2.32832e-05
2.32833e-05
2.32831e-05
2.32827e-05
2.32823e-05
2.3282e-05
2.32816e-05
2.32813e-05
2.32811e-05
2.32811e-05
2.32812e-05
2.32814e-05
2.32817e-05
2.32823e-05
2.32833e-05
2.32841e-05
2.32841e-05
2.32832e-05
2.32817e-05
2.32821e-05
2.32846e-05
2.3287e-05
2.32881e-05
2.32874e-05
2.32858e-05
2.3287e-05
2.32914e-05
2.32829e-05
2.33652e-05
2.33722e-05
2.33721e-05
2.33716e-05
2.33711e-05
2.33709e-05
2.33708e-05
2.33706e-05
2.33703e-05
2.33703e-05
2.33706e-05
2.33709e-05
2.33713e-05
2.33715e-05
2.33717e-05
2.33717e-05
2.33716e-05
2.33712e-05
2.33708e-05
2.33711e-05
2.33718e-05
2.33723e-05
2.33723e-05
2.33714e-05
2.33701e-05
2.33711e-05
2.33744e-05
2.33706e-05
2.33039e-05
2.32839e-05
2.33725e-05
2.33798e-05
2.33797e-05
2.33792e-05
2.33788e-05
2.33787e-05
2.33788e-05
2.33788e-05
2.33785e-05
2.33784e-05
2.33788e-05
2.33795e-05
2.33801e-05
2.33804e-05
2.338e-05
2.33792e-05
2.33783e-05
2.3379e-05
2.33803e-05
2.33811e-05
2.33815e-05
2.33815e-05
2.33815e-05
2.3382e-05
2.33831e-05
2.33837e-05
2.33856e-05
2.3386e-05
2.33004e-05
2.32838e-05
2.33728e-05
2.33803e-05
2.33805e-05
2.33803e-05
2.338e-05
2.33798e-05
2.33798e-05
2.33798e-05
2.33796e-05
2.33793e-05
2.33795e-05
2.338e-05
2.33804e-05
2.33804e-05
2.33799e-05
2.33795e-05
2.33802e-05
2.33814e-05
2.33822e-05
2.33822e-05
2.3382e-05
2.33828e-05
2.33846e-05
2.33863e-05
2.33875e-05
2.33885e-05
2.3388e-05
2.3385e-05
2.32923e-05
2.32832e-05
2.33724e-05
2.33804e-05
2.33809e-05
2.33809e-05
2.33807e-05
2.33803e-05
2.33801e-05
2.338e-05
2.33799e-05
2.33799e-05
2.33798e-05
2.33796e-05
2.33792e-05
2.33791e-05
2.33798e-05
2.33809e-05
2.33817e-05
2.3382e-05
2.33817e-05
2.33813e-05
2.33818e-05
2.33836e-05
2.33855e-05
2.33867e-05
2.33867e-05
2.33859e-05
2.3385e-05
2.33786e-05
2.32889e-05
2.32824e-05
2.33726e-05
2.33805e-05
2.33812e-05
2.33814e-05
2.33813e-05
2.3381e-05
2.33805e-05
2.33802e-05
2.33801e-05
2.33802e-05
2.33805e-05
2.33809e-05
2.3381e-05
2.33808e-05
2.33809e-05
2.33812e-05
2.33813e-05
2.33811e-05
2.33807e-05
2.3381e-05
2.33819e-05
2.3383e-05
2.33837e-05
2.33839e-05
2.33838e-05
2.33839e-05
2.3387e-05
2.33809e-05
2.32894e-05
2.32829e-05
2.33735e-05
2.33811e-05
2.33818e-05
2.33821e-05
2.33824e-05
2.33824e-05
2.3382e-05
2.33811e-05
2.33804e-05
2.33804e-05
2.33811e-05
2.33821e-05
2.33825e-05
2.33822e-05
2.33811e-05
2.338e-05
2.33795e-05
2.33798e-05
2.33806e-05
2.33814e-05
2.33818e-05
2.33815e-05
2.33808e-05
2.3381e-05
2.33837e-05
2.3387e-05
2.33901e-05
2.33835e-05
2.32892e-05
2.32835e-05
2.33752e-05
2.33822e-05
2.33828e-05
2.33833e-05
2.33838e-05
2.33841e-05
2.33839e-05
2.3383e-05
2.33817e-05
2.33811e-05
2.33814e-05
2.33822e-05
2.33826e-05
2.33821e-05
2.33807e-05
2.3379e-05
2.33782e-05
2.33794e-05
2.33807e-05
2.33814e-05
2.33812e-05
2.33803e-05
2.33801e-05
2.33823e-05
2.33854e-05
2.33883e-05
2.33897e-05
2.33817e-05
2.32881e-05
2.32846e-05
2.33772e-05
2.33837e-05
2.3384e-05
2.33843e-05
2.33848e-05
2.33852e-05
2.33853e-05
2.33848e-05
2.33839e-05
2.33829e-05
2.3382e-05
2.33815e-05
2.33813e-05
2.33812e-05
2.33811e-05
2.33809e-05
2.33809e-05
2.33813e-05
2.33816e-05
2.33816e-05
2.33811e-05
2.33804e-05
2.33814e-05
2.33836e-05
2.3386e-05
2.33877e-05
2.33876e-05
2.33791e-05
2.3287e-05
2.32871e-05
2.3378e-05
2.3384e-05
2.3384e-05
2.3384e-05
2.33842e-05
2.33845e-05
2.3385e-05
2.33854e-05
2.33854e-05
2.33847e-05
2.33832e-05
2.33812e-05
2.33798e-05
2.33805e-05
2.33822e-05
2.33838e-05
2.33849e-05
2.33853e-05
2.3385e-05
2.33842e-05
2.3383e-05
2.3382e-05
2.33821e-05
2.33835e-05
2.3385e-05
2.33857e-05
2.3385e-05
2.3377e-05
2.32867e-05
2.32893e-05
2.33776e-05
2.33832e-05
2.33831e-05
2.33826e-05
2.33821e-05
2.3382e-05
2.33828e-05
2.33841e-05
2.3385e-05
2.33851e-05
2.33841e-05
2.33823e-05
2.33803e-05
2.33804e-05
2.33827e-05
2.33854e-05
2.33875e-05
2.33887e-05
2.33887e-05
2.33875e-05
2.33856e-05
2.33836e-05
2.33824e-05
2.33828e-05
2.33838e-05
2.33844e-05
2.33842e-05
2.33769e-05
2.32876e-05
2.32896e-05
2.3378e-05
2.33839e-05
2.33838e-05
2.33833e-05
2.33827e-05
2.33824e-05
2.33825e-05
2.3383e-05
2.33837e-05
2.33841e-05
2.3384e-05
2.33832e-05
2.33816e-05
2.338e-05
2.33823e-05
2.33857e-05
2.33885e-05
2.33899e-05
2.33897e-05
2.33882e-05
2.33861e-05
2.33839e-05
2.33823e-05
2.33826e-05
2.33836e-05
2.33845e-05
2.33847e-05
2.33783e-05
2.32887e-05
2.32888e-05
2.33793e-05
2.33857e-05
2.33863e-05
2.33874e-05
2.33884e-05
2.33888e-05
2.33885e-05
2.3387e-05
2.33848e-05
2.33837e-05
2.33843e-05
2.33848e-05
2.33846e-05
2.33843e-05
2.33847e-05
2.33859e-05
2.33868e-05
2.3387e-05
2.33865e-05
2.33856e-05
2.33846e-05
2.33835e-05
2.33827e-05
2.33831e-05
2.33839e-05
2.33847e-05
2.33854e-05
2.33788e-05
2.32892e-05
2.32925e-05
2.33794e-05
2.33875e-05
2.33897e-05
2.33923e-05
2.33942e-05
2.33949e-05
2.33936e-05
2.33906e-05
2.33867e-05
2.33837e-05
2.33842e-05
2.33859e-05
2.33875e-05
2.33884e-05
2.33883e-05
2.33871e-05
2.33846e-05
2.33822e-05
2.33815e-05
2.33825e-05
2.33835e-05
2.33839e-05
2.33838e-05
2.33839e-05
2.33843e-05
2.33851e-05
2.33857e-05
2.33788e-05
2.329e-05
2.32977e-05
2.33784e-05
2.33904e-05
2.33938e-05
2.33964e-05
2.33974e-05
2.33965e-05
2.33939e-05
2.33901e-05
2.33862e-05
2.33831e-05
2.33832e-05
2.33859e-05
2.33886e-05
2.33901e-05
2.33898e-05
2.33879e-05
2.33847e-05
2.33818e-05
2.33807e-05
2.3382e-05
2.33839e-05
2.33851e-05
2.33853e-05
2.33849e-05
2.33855e-05
2.33866e-05
2.33872e-05
2.33806e-05
2.32929e-05
2.32998e-05
2.3386e-05
2.33953e-05
2.33971e-05
2.33973e-05
2.33959e-05
2.33931e-05
2.33901e-05
2.33876e-05
2.33854e-05
2.33832e-05
2.33829e-05
2.33855e-05
2.33883e-05
2.33898e-05
2.33897e-05
2.33884e-05
2.33864e-05
2.33844e-05
2.33832e-05
2.33834e-05
2.33848e-05
2.33862e-05
2.33867e-05
2.33869e-05
2.33878e-05
2.33892e-05
2.33907e-05
2.33859e-05
2.32963e-05
2.32985e-05
2.33945e-05
2.33996e-05
2.33985e-05
2.33958e-05
2.33923e-05
2.3389e-05
2.33874e-05
2.33872e-05
2.33864e-05
2.33849e-05
2.33844e-05
2.33859e-05
2.33878e-05
2.33887e-05
2.33888e-05
2.33885e-05
2.33876e-05
2.33864e-05
2.33855e-05
2.33855e-05
2.3386e-05
2.33868e-05
2.33877e-05
2.33888e-05
2.33905e-05
2.33925e-05
2.33943e-05
2.33883e-05
2.32971e-05
2.32984e-05
2.33994e-05
2.34024e-05
2.34e-05
2.33966e-05
2.33931e-05
2.33903e-05
2.33889e-05
2.33885e-05
2.33876e-05
2.33867e-05
2.3386e-05
2.33861e-05
2.33864e-05
2.33866e-05
2.33871e-05
2.33877e-05
2.33879e-05
2.33877e-05
2.33876e-05
2.33876e-05
2.33878e-05
2.33883e-05
2.33893e-05
2.33912e-05
2.33934e-05
2.33952e-05
2.33959e-05
2.33878e-05
2.32968e-05
2.33034e-05
2.34015e-05
2.34051e-05
2.34028e-05
2.33999e-05
2.33972e-05
2.33949e-05
2.33929e-05
2.33906e-05
2.33887e-05
2.33873e-05
2.33859e-05
2.33848e-05
2.33841e-05
2.3384e-05
2.33847e-05
2.33861e-05
2.33874e-05
2.33884e-05
2.33888e-05
2.3389e-05
2.33893e-05
2.339e-05
2.33925e-05
2.33954e-05
2.33972e-05
2.33977e-05
2.33968e-05
2.33883e-05
2.32988e-05
2.33089e-05
2.34026e-05
2.34075e-05
2.34055e-05
2.34031e-05
2.34009e-05
2.3399e-05
2.33967e-05
2.33941e-05
2.33913e-05
2.33888e-05
2.33863e-05
2.33842e-05
2.33825e-05
2.33818e-05
2.33828e-05
2.3385e-05
2.33872e-05
2.33887e-05
2.33897e-05
2.33905e-05
2.3392e-05
2.33952e-05
2.33985e-05
2.34004e-05
2.34006e-05
2.34003e-05
2.33998e-05
2.33929e-05
2.33038e-05
2.33143e-05
2.34038e-05
2.34094e-05
2.34079e-05
2.34062e-05
2.34047e-05
2.3403e-05
2.34006e-05
2.33977e-05
2.33945e-05
2.33911e-05
2.33878e-05
2.33851e-05
2.33834e-05
2.3383e-05
2.33842e-05
2.33863e-05
2.33883e-05
2.33903e-05
2.33923e-05
2.33949e-05
2.33984e-05
2.34016e-05
2.34033e-05
2.34031e-05
2.34027e-05
2.34031e-05
2.34038e-05
2.33977e-05
2.3309e-05
2.33192e-05
2.3406e-05
2.34125e-05
2.34115e-05
2.34102e-05
2.34088e-05
2.34067e-05
2.3404e-05
2.34008e-05
2.33972e-05
2.33933e-05
2.33903e-05
2.33882e-05
2.33869e-05
2.33862e-05
2.33865e-05
2.33878e-05
2.33901e-05
2.33933e-05
2.33971e-05
2.34012e-05
2.34046e-05
2.34062e-05
2.34059e-05
2.34057e-05
2.34065e-05
2.34078e-05
2.34088e-05
2.34027e-05
2.33146e-05
2.33246e-05
2.34102e-05
2.34173e-05
2.34167e-05
2.34153e-05
2.34132e-05
2.34104e-05
2.34072e-05
2.34037e-05
2.34001e-05
2.33972e-05
2.33945e-05
2.33919e-05
2.33891e-05
2.33868e-05
2.33865e-05
2.33885e-05
2.33923e-05
2.33971e-05
2.34022e-05
2.34064e-05
2.34084e-05
2.34089e-05
2.34093e-05
2.34106e-05
2.34128e-05
2.34146e-05
2.34154e-05
2.34093e-05
2.33216e-05
2.33314e-05
2.34171e-05
2.34244e-05
2.34236e-05
2.34216e-05
2.34186e-05
2.34153e-05
2.34119e-05
2.34086e-05
2.34053e-05
2.34019e-05
2.33983e-05
2.33943e-05
2.33899e-05
2.33867e-05
2.33869e-05
2.33901e-05
2.33953e-05
2.34013e-05
2.34063e-05
2.34097e-05
2.34115e-05
2.34131e-05
2.34153e-05
2.34184e-05
2.34215e-05
2.34232e-05
2.34242e-05
2.34178e-05
2.33306e-05
2.33406e-05
2.34271e-05
2.34339e-05
2.34326e-05
2.34298e-05
2.34264e-05
2.34231e-05
2.34196e-05
2.34158e-05
2.34117e-05
2.34072e-05
2.34023e-05
2.33967e-05
2.33914e-05
2.33887e-05
2.33892e-05
2.33927e-05
2.33987e-05
2.34046e-05
2.34091e-05
2.34128e-05
2.34165e-05
2.342e-05
2.34237e-05
2.34278e-05
2.34309e-05
2.34331e-05
2.34346e-05
2.34284e-05
2.33421e-05
2.33533e-05
2.34403e-05
2.34462e-05
2.34441e-05
2.34409e-05
2.34374e-05
2.34337e-05
2.34296e-05
2.34249e-05
2.34199e-05
2.34141e-05
2.34075e-05
2.34008e-05
2.33956e-05
2.33923e-05
2.3392e-05
2.33955e-05
2.34015e-05
2.34076e-05
2.34136e-05
2.34195e-05
2.34244e-05
2.34288e-05
2.34336e-05
2.34376e-05
2.34408e-05
2.34441e-05
2.34469e-05
2.34432e-05
2.33539e-05
2.33705e-05
2.34563e-05
2.34615e-05
2.34589e-05
2.34556e-05
2.34516e-05
2.3447e-05
2.34418e-05
2.34361e-05
2.34296e-05
2.34221e-05
2.34142e-05
2.34075e-05
2.3402e-05
2.3397e-05
2.33959e-05
2.33996e-05
2.34064e-05
2.34143e-05
2.3422e-05
2.34286e-05
2.34343e-05
2.34399e-05
2.34454e-05
2.34496e-05
2.3454e-05
2.34587e-05
2.34623e-05
2.34571e-05
2.33688e-05
2.33913e-05
2.34753e-05
2.34805e-05
2.34776e-05
2.34735e-05
2.34685e-05
2.34626e-05
2.34561e-05
2.3449e-05
2.34409e-05
2.34321e-05
2.3424e-05
2.34169e-05
2.34094e-05
2.34027e-05
2.34014e-05
2.34064e-05
2.34148e-05
2.3424e-05
2.34326e-05
2.34406e-05
2.34482e-05
2.34545e-05
2.34608e-05
2.34665e-05
2.34723e-05
2.34776e-05
2.34793e-05
2.34736e-05
2.33882e-05
2.3415e-05
2.34981e-05
2.35026e-05
2.3499e-05
2.34941e-05
2.34882e-05
2.34813e-05
2.34737e-05
2.34651e-05
2.34555e-05
2.34457e-05
2.34368e-05
2.34274e-05
2.34177e-05
2.34098e-05
2.34089e-05
2.34156e-05
2.34256e-05
2.34363e-05
2.34467e-05
2.34565e-05
2.34658e-05
2.34736e-05
2.34814e-05
2.34887e-05
2.34951e-05
2.35001e-05
2.35011e-05
2.34958e-05
2.34133e-05
2.34429e-05
2.35246e-05
2.35288e-05
2.35248e-05
2.35193e-05
2.35128e-05
2.3505e-05
2.3496e-05
2.34855e-05
2.3474e-05
2.34626e-05
2.34513e-05
2.34393e-05
2.34274e-05
2.34187e-05
2.34184e-05
2.34266e-05
2.34381e-05
2.34507e-05
2.34632e-05
2.34748e-05
2.34866e-05
2.34971e-05
2.35066e-05
2.3515e-05
2.35216e-05
2.35265e-05
2.3529e-05
2.35257e-05
2.34431e-05
2.34767e-05
2.35573e-05
2.35614e-05
2.3557e-05
2.35508e-05
2.35431e-05
2.35338e-05
2.35229e-05
2.35101e-05
2.34963e-05
2.34826e-05
2.34685e-05
2.34539e-05
2.34401e-05
2.34305e-05
2.34307e-05
2.34403e-05
2.34534e-05
2.34681e-05
2.34831e-05
2.34972e-05
2.35119e-05
2.35252e-05
2.35358e-05
2.35452e-05
2.35525e-05
2.35584e-05
2.35639e-05
2.35609e-05
2.34785e-05
2.35185e-05
2.35984e-05
2.3602e-05
2.35966e-05
2.35891e-05
2.35797e-05
2.35685e-05
2.35554e-05
2.35404e-05
2.35243e-05
2.35078e-05
2.34906e-05
2.34731e-05
2.34572e-05
2.34463e-05
2.34465e-05
2.34576e-05
2.34732e-05
2.34903e-05
2.35079e-05
2.35248e-05
2.35423e-05
2.35574e-05
2.35697e-05
2.35806e-05
2.359e-05
2.35978e-05
2.36053e-05
2.36024e-05
2.35214e-05
2.35701e-05
2.36485e-05
2.36512e-05
2.36446e-05
2.36355e-05
2.36243e-05
2.36111e-05
2.35958e-05
2.35784e-05
2.35593e-05
2.3539e-05
2.35179e-05
2.34974e-05
2.34793e-05
2.3467e-05
2.34671e-05
2.34798e-05
2.34981e-05
2.35176e-05
2.3538e-05
2.35582e-05
2.35778e-05
2.3595e-05
2.36103e-05
2.36239e-05
2.36356e-05
2.36456e-05
2.36542e-05
2.36517e-05
2.35732e-05
2.36328e-05
2.37091e-05
2.37108e-05
2.3703e-05
2.36922e-05
2.36787e-05
2.36629e-05
2.36445e-05
2.36238e-05
2.36009e-05
2.35768e-05
2.35524e-05
2.35288e-05
2.35083e-05
2.34943e-05
2.34942e-05
2.35081e-05
2.35291e-05
2.35515e-05
2.35753e-05
2.35988e-05
2.36215e-05
2.36418e-05
2.36608e-05
2.3677e-05
2.36913e-05
2.37034e-05
2.37125e-05
2.37107e-05
2.36346e-05
2.37084e-05
2.37822e-05
2.37829e-05
2.37733e-05
2.37601e-05
2.37439e-05
2.37248e-05
2.37028e-05
2.36785e-05
2.3652e-05
2.36243e-05
2.35964e-05
2.35694e-05
2.35455e-05
2.35294e-05
2.35297e-05
2.35453e-05
2.35689e-05
2.35952e-05
2.3623e-05
2.36502e-05
2.36768e-05
2.37006e-05
2.37229e-05
2.37419e-05
2.37594e-05
2.37733e-05
2.3783e-05
2.37819e-05
2.3708e-05
2.37994e-05
2.38698e-05
2.38689e-05
2.38573e-05
2.38417e-05
2.38228e-05
2.38005e-05
2.37749e-05
2.37467e-05
2.37164e-05
2.36846e-05
2.36526e-05
2.36213e-05
2.35939e-05
2.35755e-05
2.35767e-05
2.35951e-05
2.36218e-05
2.36524e-05
2.36849e-05
2.37158e-05
2.37466e-05
2.37741e-05
2.37994e-05
2.38219e-05
2.38423e-05
2.38575e-05
2.38679e-05
2.38673e-05
2.37979e-05
2.39085e-05
2.39744e-05
2.39723e-05
2.39594e-05
2.39419e-05
2.39202e-05
2.38943e-05
2.38649e-05
2.38326e-05
2.37981e-05
2.37616e-05
2.37249e-05
2.36894e-05
2.3659e-05
2.36383e-05
2.36393e-05
2.36603e-05
2.36906e-05
2.37258e-05
2.37637e-05
2.37987e-05
2.38335e-05
2.38648e-05
2.38939e-05
2.392e-05
2.39427e-05
2.39592e-05
2.39712e-05
2.3973e-05
2.3908e-05
2.40399e-05
2.41016e-05
2.40991e-05
2.40846e-05
2.40643e-05
2.40388e-05
2.4009e-05
2.39757e-05
2.39393e-05
2.39003e-05
2.38592e-05
2.38182e-05
2.37785e-05
2.37449e-05
2.37214e-05
2.37209e-05
2.37441e-05
2.37793e-05
2.38192e-05
2.3862e-05
2.39013e-05
2.394e-05
2.39755e-05
2.40093e-05
2.40392e-05
2.40637e-05
2.40835e-05
2.40988e-05
2.41031e-05
2.40413e-05
2.41986e-05
2.42568e-05
2.42526e-05
2.42349e-05
2.42108e-05
2.41816e-05
2.41482e-05
2.41109e-05
2.40699e-05
2.40263e-05
2.39807e-05
2.39355e-05
2.38912e-05
2.38532e-05
2.38274e-05
2.3826e-05
2.38518e-05
2.38922e-05
2.39368e-05
2.39832e-05
2.40268e-05
2.40699e-05
2.41101e-05
2.41485e-05
2.41824e-05
2.42096e-05
2.4234e-05
2.4253e-05
2.4257e-05
2.41991e-05
2.43899e-05
2.44422e-05
2.44353e-05
2.44147e-05
2.43879e-05
2.43558e-05
2.43184e-05
2.42766e-05
2.42308e-05
2.41829e-05
2.41327e-05
2.4083e-05
2.40349e-05
2.39916e-05
2.39636e-05
2.39626e-05
2.39917e-05
2.40356e-05
2.40845e-05
2.41341e-05
2.41826e-05
2.42305e-05
2.42759e-05
2.43179e-05
2.43562e-05
2.43874e-05
2.44152e-05
2.44359e-05
2.44401e-05
2.43876e-05
2.46187e-05
2.46638e-05
2.46556e-05
2.46339e-05
2.4605e-05
2.45694e-05
2.45274e-05
2.44816e-05
2.44322e-05
2.43809e-05
2.43269e-05
2.42722e-05
2.42215e-05
2.41731e-05
2.41417e-05
2.41411e-05
2.41735e-05
2.42206e-05
2.42733e-05
2.43261e-05
2.43799e-05
2.44318e-05
2.44816e-05
2.45265e-05
2.45688e-05
2.46052e-05
2.46339e-05
2.4655e-05
2.46633e-05
2.46166e-05
2.48938e-05
2.49337e-05
2.4925e-05
2.49011e-05
2.48686e-05
2.48291e-05
2.47835e-05
2.47352e-05
2.46827e-05
2.46282e-05
2.4572e-05
2.45138e-05
2.44612e-05
2.44092e-05
2.43735e-05
2.43751e-05
2.44106e-05
2.44595e-05
2.45155e-05
2.45714e-05
2.46284e-05
2.46822e-05
2.47345e-05
2.47843e-05
2.48283e-05
2.48686e-05
2.48997e-05
2.49226e-05
2.49349e-05
2.48956e-05
2.52289e-05
2.52637e-05
2.52522e-05
2.52246e-05
2.51884e-05
2.51466e-05
2.50982e-05
2.50475e-05
2.49932e-05
2.4937e-05
2.48826e-05
2.48236e-05
2.47682e-05
2.47168e-05
2.46793e-05
2.46812e-05
2.47188e-05
2.47687e-05
2.48247e-05
2.48818e-05
2.49389e-05
2.49938e-05
2.50475e-05
2.51013e-05
2.51467e-05
2.5188e-05
2.52249e-05
2.52524e-05
2.52653e-05
2.523e-05
2.56395e-05
2.56691e-05
2.56538e-05
2.56237e-05
2.55845e-05
2.55408e-05
2.5491e-05
2.54396e-05
2.53864e-05
2.53325e-05
2.5282e-05
2.52289e-05
2.51784e-05
2.51346e-05
2.51024e-05
2.51034e-05
2.51348e-05
2.51811e-05
2.52305e-05
2.52809e-05
2.53333e-05
2.5387e-05
2.54401e-05
2.54908e-05
2.55401e-05
2.55858e-05
2.56258e-05
2.5654e-05
2.56687e-05
2.56398e-05
2.61516e-05
2.61861e-05
2.61643e-05
2.61323e-05
2.60924e-05
2.60467e-05
2.59936e-05
2.59446e-05
2.59053e-05
2.58672e-05
2.58475e-05
2.58506e-05
2.58755e-05
2.59075e-05
2.59521e-05
2.596e-05
2.59122e-05
2.58744e-05
2.5852e-05
2.58516e-05
2.58688e-05
2.59036e-05
2.59485e-05
2.59931e-05
2.60434e-05
2.60943e-05
2.61333e-05
2.61611e-05
2.61835e-05
2.6157e-05
2.68588e-05
2.694e-05
2.69116e-05
2.6902e-05
2.68642e-05
2.68031e-05
2.67602e-05
2.67536e-05
2.67851e-05
2.68809e-05
2.71806e-05
2.77174e-05
2.84925e-05
2.93116e-05
3.01684e-05
3.01952e-05
2.9333e-05
2.84962e-05
2.77363e-05
2.71855e-05
2.68859e-05
2.67869e-05
2.67527e-05
2.67608e-05
2.68051e-05
2.68623e-05
2.69005e-05
2.69136e-05
2.69396e-05
2.68628e-05
2.81989e-05
2.84932e-05
2.86183e-05
2.89013e-05
2.87915e-05
2.86712e-05
2.88937e-05
2.91635e-05
2.97315e-05
3.10506e-05
3.39848e-05
3.88037e-05
4.52124e-05
5.12366e-05
5.74188e-05
5.75269e-05
5.13968e-05
4.52426e-05
3.89904e-05
3.40147e-05
3.10775e-05
2.97455e-05
2.91679e-05
2.88997e-05
2.8678e-05
2.87829e-05
2.89011e-05
2.86268e-05
2.8493e-05
2.82039e-05
3.23598e-05
3.31643e-05
3.49667e-05
3.84268e-05
3.66359e-05
3.66158e-05
4.19256e-05
4.27888e-05
4.60843e-05
5.6419e-05
7.58889e-05
9.92577e-05
0.000132465
0.000158529
0.000180446
0.000180742
0.000159093
0.000132886
0.000100537
7.58303e-05
5.65513e-05
4.61919e-05
4.28363e-05
4.20139e-05
3.66746e-05
3.66114e-05
3.84193e-05
3.50042e-05
3.31666e-05
3.23428e-05
4.69443e-05
5.15138e-05
6.09127e-05
7.94486e-05
7.24725e-05
7.96562e-05
0.000125194
0.000128091
0.000150705
0.000225051
0.000293046
0.000337643
0.000446724
0.000511766
0.000544812
0.000544815
0.000512254
0.000448659
0.000341373
0.000291687
0.000225578
0.000151329
0.0001285
0.00012587
8.0085e-05
7.26253e-05
7.95879e-05
6.10453e-05
5.14535e-05
4.68341e-05
9.88949e-05
0.00014633
0.000155305
0.000258829
0.000255802
0.000308992
0.000397864
0.000459058
0.000560217
0.000715751
0.000911183
0.000910354
0.00108483
0.00116977
0.00115028
0.00114473
0.00117003
0.00108984
0.000912664
0.000888629
0.000711888
0.00056126
0.000461553
0.000400625
0.00030972
0.000258546
0.000261149
0.000155807
0.00014565
9.87772e-05
0.000228086
0.000390032
0.000434355
0.000665553
0.000814132
0.000956839
0.0011015
0.0014205
0.00147872
0.00165325
0.0018847
0.0018086
0.00192889
0.00204298
0.00198446
0.00197042
0.00203601
0.0019342
0.00178651
0.00180958
0.00163254
0.00147875
0.00142673
0.00111411
0.000970179
0.000825885
0.000677391
0.000437065
0.000388051
0.000230324
0.00031942
0.000447922
0.000547078
0.000840306
0.0010021
0.00129014
0.00148361
0.00162037
0.00180363
0.00213034
0.00229944
0.00214494
0.00220158
0.00223293
0.00214849
0.00213031
0.00225018
0.00221141
0.00202614
0.00214771
0.00210762
0.00179768
0.00162707
0.00151713
0.00132279
0.00102196
0.000863113
0.000551291
0.000448971
0.000320917
0.000391259
0.000490511
0.000557543
0.000895393
0.00100238
0.00105734
0.00131739
0.0015736
0.00164602
0.00202475
0.00194631
0.0017523
0.00192257
0.00204027
0.00183897
0.00183917
0.00207045
0.00199774
0.00173516
0.00194963
0.00207052
0.00171087
0.00160615
0.00133704
0.00107242
0.00101655
0.000911581
0.000570329
0.000496188
0.000390081
0.000401173
0.000436743
0.000530045
0.000794259
0.000832992
0.000831848
0.000976478
0.00116282
0.00127268
0.00153168
0.00142894
0.00140396
0.00140162
0.00148507
0.00167806
0.00169393
0.00152716
0.00142903
0.00147578
0.0014447
0.0015764
0.00127346
0.00117194
0.00098514
0.000839919
0.000842146
0.000808078
0.000533407
0.000443897
0.00040167
0.000341535
0.000373956
0.000447887
0.000669641
0.000644149
0.000603045
0.000723002
0.000803677
0.000884325
0.00108313
0.00102656
0.00103201
0.00111525
0.00118455
0.00127357
0.00127999
0.00120939
0.00112787
0.00105867
0.00102297
0.00111089
0.000895588
0.000818237
0.000730234
0.000607913
0.000650452
0.000679065
0.00045277
0.000382
0.000345217
0.000258206
0.000294369
0.000340617
0.000480261
0.000444689
0.000382183
0.000495757
0.000576254
0.000654837
0.000789736
0.000807124
0.000806376
0.000813271
0.000855228
0.000868887
0.000869298
0.000867585
0.000816256
0.000802564
0.000796133
0.000800899
0.00065912
0.000579756
0.00050062
0.000384456
0.00044803
0.00048702
0.000342681
0.000298158
0.000262828
0.000193899
0.000220277
0.000241442
0.000300516
0.000279862
0.000241194
0.000274095
0.000340764
0.000440957
0.000585675
0.000679532
0.000735728
0.000765071
0.00078737
0.000783495
0.000781788
0.000792739
0.000767159
0.000732759
0.000674763
0.000587953
0.000442154
0.000343284
0.000276783
0.000242925
0.000283459
0.000304037
0.000242191
0.000221895
0.000195261
0.000154008
0.000166828
0.000173025
0.000187299
0.000180394
0.000168673
0.000173591
0.000194186
0.000240426
0.000343924
0.000480716
0.000613426
0.000708757
0.00076346
0.000778139
0.000777399
0.000766288
0.000709832
0.000612314
0.000478641
0.000345209
0.000240974
0.00019493
0.000175113
0.000169995
0.000182748
0.000189269
0.000173985
0.000167982
0.000154802
0.000127535
0.000132826
0.000133235
0.000134501
0.000132023
0.000129605
0.000130775
0.000135961
0.000148998
0.00018515
0.000264485
0.000391778
0.000534642
0.000645755
0.00070165
0.000701267
0.000647419
0.000535593
0.000391036
0.000263659
0.000185861
0.000149686
0.000136496
0.000131087
0.000129818
0.000133215
0.0001354
0.000133411
0.000133456
0.000128239
0.000109215
0.000111515
0.000110524
0.000110166
0.000109332
0.000108827
0.000109236
0.000111067
0.00011483
0.000124028
0.000147225
0.00020189
0.000294716
0.000408286
0.000493037
0.000492276
0.00040854
0.000295387
0.00020157
0.000147108
0.000124608
0.000115301
0.000111363
0.000109444
0.000108913
0.000109659
0.000110547
0.00011108
0.000111894
0.000109605
9.59818e-05
9.6544e-05
9.57777e-05
9.57539e-05
9.54482e-05
9.55389e-05
9.63038e-05
9.73471e-05
9.88764e-05
0.000101396
0.00010659
0.000119372
0.000147303
0.000191926
0.00023954
0.000239213
0.00019176
0.000147595
0.000119454
0.000106998
0.000101776
9.91802e-05
9.76457e-05
9.65572e-05
9.59064e-05
9.58553e-05
9.57859e-05
9.62272e-05
9.69058e-05
9.60076e-05
8.56905e-05
8.50518e-05
8.48345e-05
8.49209e-05
8.52056e-05
8.57229e-05
8.66863e-05
8.74836e-05
8.83931e-05
8.93096e-05
9.05496e-05
9.28519e-05
9.77333e-05
0.000106626
0.000117779
0.000117894
0.000106844
9.79355e-05
9.2836e-05
9.07511e-05
8.94894e-05
8.8451e-05
8.75712e-05
8.67069e-05
8.59655e-05
8.53677e-05
8.4995e-05
8.50046e-05
8.56489e-05
8.62002e-05
7.81354e-05
7.62765e-05
7.61658e-05
7.63618e-05
7.67378e-05
7.74259e-05
7.82394e-05
7.87363e-05
7.92749e-05
7.96256e-05
7.98018e-05
7.99476e-05
8.03684e-05
8.13784e-05
8.28461e-05
8.28279e-05
8.15363e-05
8.05883e-05
8.01445e-05
7.9953e-05
7.96728e-05
7.93486e-05
7.89362e-05
7.81957e-05
7.74323e-05
7.67523e-05
7.64599e-05
7.63054e-05
7.68554e-05
7.86106e-05
7.17205e-05
6.92451e-05
6.89168e-05
6.91048e-05
6.95939e-05
7.01889e-05
7.06254e-05
7.09269e-05
7.11304e-05
7.10461e-05
7.07478e-05
7.04293e-05
7.00979e-05
6.97855e-05
6.96355e-05
6.96043e-05
6.99117e-05
7.02654e-05
7.0659e-05
7.09854e-05
7.12006e-05
7.12822e-05
7.11e-05
7.06635e-05
7.0172e-05
6.97123e-05
6.94227e-05
6.91527e-05
6.962e-05
7.19986e-05
6.59301e-05
6.31875e-05
6.27842e-05
6.30575e-05
6.35071e-05
6.38845e-05
6.40445e-05
6.40979e-05
6.39169e-05
6.35201e-05
6.30487e-05
6.25389e-05
6.19128e-05
6.12925e-05
6.09097e-05
6.09832e-05
6.15136e-05
6.20882e-05
6.26519e-05
6.32e-05
6.37181e-05
6.41137e-05
6.41888e-05
6.40597e-05
6.3839e-05
6.35827e-05
6.33131e-05
6.30511e-05
6.34801e-05
6.60615e-05
6.05611e-05
5.79086e-05
5.76209e-05
5.78585e-05
5.80914e-05
5.81886e-05
5.81483e-05
5.795e-05
5.75692e-05
5.70709e-05
5.64581e-05
5.57385e-05
5.49345e-05
5.42606e-05
5.38902e-05
5.39903e-05
5.446e-05
5.50711e-05
5.57971e-05
5.65654e-05
5.727e-05
5.77939e-05
5.80586e-05
5.81616e-05
5.81555e-05
5.80473e-05
5.78365e-05
5.76887e-05
5.81443e-05
6.06538e-05
5.56703e-05
5.34179e-05
5.30742e-05
5.31013e-05
5.30923e-05
5.304e-05
5.28761e-05
5.25193e-05
5.204e-05
5.14281e-05
5.06933e-05
4.98906e-05
4.90851e-05
4.84281e-05
4.80406e-05
4.8086e-05
4.85089e-05
4.91588e-05
4.99716e-05
5.08301e-05
5.16214e-05
5.22477e-05
5.26656e-05
5.29304e-05
5.30575e-05
5.30688e-05
5.29919e-05
5.29865e-05
5.34684e-05
5.58421e-05
5.15108e-05
4.9304e-05
4.88931e-05
4.88306e-05
4.87675e-05
4.86515e-05
4.83184e-05
4.7851e-05
4.73108e-05
4.66305e-05
4.58358e-05
4.50059e-05
4.42051e-05
4.35404e-05
4.31201e-05
4.31192e-05
4.35284e-05
4.42158e-05
4.50796e-05
4.59756e-05
4.68082e-05
4.74967e-05
4.80041e-05
4.83596e-05
4.86066e-05
4.87453e-05
4.87987e-05
4.88771e-05
4.93335e-05
5.15557e-05
4.75637e-05
4.55388e-05
4.52321e-05
4.514e-05
4.5011e-05
4.47574e-05
4.43412e-05
4.38907e-05
4.335e-05
4.26493e-05
4.18426e-05
4.10043e-05
4.02051e-05
3.95366e-05
3.91088e-05
3.90905e-05
3.94854e-05
4.01643e-05
4.1008e-05
4.18772e-05
4.26962e-05
4.34134e-05
4.39911e-05
4.44221e-05
4.47418e-05
4.49671e-05
4.51136e-05
4.5245e-05
4.56734e-05
4.76828e-05
4.40199e-05
4.24378e-05
4.2097e-05
4.19007e-05
4.1659e-05
4.13229e-05
4.09332e-05
4.04954e-05
3.99306e-05
3.92314e-05
3.84509e-05
3.76375e-05
3.68542e-05
3.61809e-05
3.57429e-05
3.57065e-05
3.60835e-05
3.67473e-05
3.75697e-05
3.84249e-05
3.92373e-05
3.99576e-05
4.05501e-05
4.10099e-05
4.13771e-05
4.167e-05
4.18893e-05
4.2068e-05
4.24778e-05
4.42282e-05
4.11031e-05
3.97524e-05
3.93095e-05
3.90342e-05
3.87622e-05
3.84586e-05
3.80951e-05
3.76305e-05
3.7057e-05
3.63899e-05
3.5657e-05
3.48792e-05
3.41195e-05
3.34668e-05
3.30512e-05
3.3031e-05
3.34054e-05
3.40469e-05
3.48272e-05
3.56298e-05
3.63851e-05
3.70663e-05
3.7654e-05
3.81404e-05
3.85384e-05
3.88578e-05
3.91047e-05
3.9303e-05
3.96721e-05
4.11508e-05
3.84719e-05
3.72178e-05
3.68047e-05
3.65769e-05
3.63749e-05
3.61107e-05
3.57266e-05
3.52548e-05
3.47152e-05
3.40858e-05
3.33815e-05
3.26341e-05
3.19193e-05
3.13251e-05
3.09598e-05
3.09606e-05
3.13153e-05
3.19048e-05
3.26169e-05
3.33529e-05
3.40533e-05
3.46972e-05
3.52664e-05
3.57501e-05
3.61433e-05
3.64558e-05
3.66957e-05
3.68809e-05
3.71909e-05
3.8423e-05
3.6105e-05
3.49913e-05
3.46972e-05
3.45578e-05
3.43785e-05
3.40942e-05
3.37157e-05
3.32924e-05
3.27959e-05
3.21959e-05
3.15168e-05
3.08127e-05
3.01602e-05
2.96304e-05
2.93076e-05
2.93181e-05
2.96504e-05
3.01886e-05
3.08312e-05
3.14967e-05
3.21404e-05
3.2741e-05
3.3279e-05
3.37378e-05
3.41074e-05
3.43934e-05
3.46058e-05
3.47655e-05
3.50238e-05
3.60535e-05
3.39968e-05
3.31132e-05
3.29191e-05
3.27991e-05
3.26073e-05
3.2337e-05
3.20218e-05
3.16495e-05
3.11789e-05
3.06176e-05
2.99986e-05
2.93753e-05
2.88032e-05
2.83306e-05
2.80333e-05
2.80385e-05
2.83386e-05
2.88222e-05
2.9396e-05
2.99914e-05
3.05748e-05
3.11233e-05
3.16159e-05
3.20317e-05
3.23631e-05
3.26166e-05
3.28053e-05
3.29501e-05
3.31722e-05
3.40258e-05
3.22012e-05
3.1558e-05
3.13851e-05
3.12519e-05
3.10889e-05
3.08783e-05
3.06119e-05
3.02531e-05
2.98113e-05
2.93115e-05
2.87789e-05
2.82477e-05
2.77435e-05
2.73051e-05
2.70246e-05
2.70276e-05
2.73045e-05
2.77438e-05
2.82535e-05
2.8776e-05
2.92865e-05
2.97664e-05
3.01985e-05
3.05669e-05
3.08652e-05
3.10974e-05
3.12728e-05
3.14075e-05
3.15973e-05
3.22898e-05
3.07857e-05
3.02419e-05
3.00641e-05
2.99667e-05
2.98441e-05
2.966e-05
2.93972e-05
2.90548e-05
2.86669e-05
2.82447e-05
2.78024e-05
2.73516e-05
2.69006e-05
2.6497e-05
2.62471e-05
2.62556e-05
2.65054e-05
2.68901e-05
2.73271e-05
2.77736e-05
2.82115e-05
2.86281e-05
2.90053e-05
2.93309e-05
2.9601e-05
2.98144e-05
2.99745e-05
3.00943e-05
3.02512e-05
3.08001e-05
2.95641e-05
2.907e-05
2.8962e-05
2.89e-05
2.87694e-05
2.85825e-05
2.83346e-05
2.8043e-05
2.77224e-05
2.7374e-05
2.7007e-05
2.6618e-05
2.62189e-05
2.58676e-05
2.56557e-05
2.56609e-05
2.5866e-05
2.61855e-05
2.6557e-05
2.6948e-05
2.73359e-05
2.77038e-05
2.80352e-05
2.83211e-05
2.85568e-05
2.87405e-05
2.88753e-05
2.8974e-05
2.90986e-05
2.95255e-05
2.84405e-05
2.81188e-05
2.80804e-05
2.79902e-05
2.78479e-05
2.76797e-05
2.7475e-05
2.72392e-05
2.69676e-05
2.66695e-05
2.63506e-05
2.60068e-05
2.56601e-05
2.53671e-05
2.51899e-05
2.5181e-05
2.53388e-05
2.5607e-05
2.59368e-05
2.62931e-05
2.66466e-05
2.69732e-05
2.72603e-05
2.75012e-05
2.76933e-05
2.78386e-05
2.7943e-05
2.80202e-05
2.81189e-05
2.84546e-05
2.75902e-05
2.74499e-05
2.73592e-05
2.72323e-05
2.71106e-05
2.6976e-05
2.68125e-05
2.66127e-05
2.63768e-05
2.61196e-05
2.58413e-05
2.55428e-05
2.52511e-05
2.50085e-05
2.48532e-05
2.48301e-05
2.49516e-05
2.5182e-05
2.54769e-05
2.57945e-05
2.61033e-05
2.63818e-05
2.66185e-05
2.6811e-05
2.69618e-05
2.70766e-05
2.71631e-05
2.72302e-05
2.73125e-05
2.75717e-05
2.69804e-05
2.68352e-05
2.66861e-05
2.65926e-05
2.6512e-05
2.64082e-05
2.62745e-05
2.6106e-05
2.59123e-05
2.57005e-05
2.5465e-05
2.52137e-05
2.4974e-05
2.47701e-05
2.46283e-05
2.45995e-05
2.46991e-05
2.48944e-05
2.51408e-05
2.54006e-05
2.56492e-05
2.58731e-05
2.60666e-05
2.62282e-05
2.63589e-05
2.6462e-05
2.65417e-05
2.66025e-05
2.66658e-05
2.68506e-05
2.64044e-05
2.61976e-05
2.61193e-05
2.60873e-05
2.60324e-05
2.59454e-05
2.58293e-05
2.56892e-05
2.55346e-05
2.53591e-05
2.51571e-05
2.4945e-05
2.47459e-05
2.45724e-05
2.44506e-05
2.44306e-05
2.452e-05
2.46798e-05
2.48733e-05
2.5074e-05
2.52692e-05
2.54547e-05
2.56263e-05
2.57761e-05
2.58982e-05
2.5993e-05
2.60629e-05
2.61106e-05
2.61498e-05
2.62684e-05
2.58243e-05
2.57114e-05
2.57295e-05
2.57145e-05
2.56584e-05
2.55721e-05
2.54653e-05
2.53497e-05
2.5223e-05
2.50684e-05
2.489e-05
2.47115e-05
2.45458e-05
2.44019e-05
2.43038e-05
2.42955e-05
2.43791e-05
2.45119e-05
2.4665e-05
2.48249e-05
2.49879e-05
2.51508e-05
2.53037e-05
2.54349e-05
2.55393e-05
2.56161e-05