/*--------------------------------*- C++ -*----------------------------------*\
| =========                 |                                                 |
| \\      /  F ield         | OpenFOAM: The Open Source CFD Toolbox           |
|  \\    /   O peration     | Version:  2312                                  |
|   \\  /    A nd           | Website:  www.openfoam.com                      |
|    \\/     M anipulation  |                                                 |
\*---------------------------------------------------------------------------*/
FoamFile
{
    version     2.0;
    format      ascii;
    arch        "LSB;label=32;scalar=64";
    class       volScalarField;
    location    "1.0996775";
    object      nut;
}
// * * * * * * * * * * * * * * * * * * * * * * * * * * * * * * * * * * * * * //

dimensions      [0 2 -1 0 0 0 0];

internalField   nonuniform List<scalar> 
90000
(
5.30979e-06
5.3103e-06
5.3104e-06
5.31044e-06
5.31046e-06
5.31044e-06
5.31041e-06
5.31038e-06
5.31035e-06
5.31031e-06
5.31027e-06
5.31023e-06
5.31021e-06
5.31023e-06
5.31026e-06
5.31029e-06
5.31035e-06
5.31047e-06
5.31058e-06
5.31059e-06
5.31048e-06
5.31027e-06
5.31037e-06
5.31074e-06
5.31108e-06
5.31122e-06
5.31111e-06
5.31089e-06
5.31123e-06
5.31211e-06
5.3105e-06
5.32124e-06
5.32225e-06
5.32225e-06
5.32218e-06
5.32212e-06
5.3221e-06
5.3221e-06
5.32209e-06
5.32207e-06
5.32207e-06
5.32212e-06
5.32217e-06
5.32221e-06
5.32224e-06
5.32224e-06
5.32223e-06
5.3222e-06
5.32215e-06
5.32209e-06
5.32214e-06
5.32226e-06
5.32235e-06
5.32236e-06
5.32224e-06
5.32209e-06
5.32226e-06
5.32278e-06
5.32232e-06
5.31398e-06
5.31062e-06
5.32226e-06
5.32332e-06
5.32332e-06
5.32327e-06
5.32323e-06
5.32324e-06
5.32325e-06
5.32324e-06
5.32319e-06
5.32319e-06
5.32327e-06
5.32338e-06
5.32347e-06
5.32349e-06
5.32342e-06
5.32328e-06
5.32315e-06
5.32325e-06
5.32344e-06
5.32356e-06
5.3236e-06
5.32358e-06
5.32357e-06
5.32365e-06
5.32382e-06
5.32391e-06
5.32427e-06
5.32467e-06
5.3134e-06
5.31057e-06
5.32232e-06
5.3234e-06
5.32344e-06
5.32341e-06
5.32338e-06
5.32338e-06
5.32338e-06
5.32338e-06
5.32334e-06
5.3233e-06
5.32334e-06
5.32342e-06
5.32348e-06
5.32348e-06
5.3234e-06
5.32331e-06
5.3234e-06
5.32358e-06
5.32369e-06
5.3237e-06
5.32364e-06
5.32373e-06
5.32399e-06
5.32423e-06
5.32441e-06
5.32463e-06
5.32459e-06
5.32447e-06
5.31205e-06
5.31045e-06
5.32229e-06
5.32341e-06
5.32347e-06
5.32347e-06
5.32344e-06
5.32341e-06
5.32339e-06
5.32339e-06
5.32339e-06
5.32338e-06
5.32336e-06
5.32332e-06
5.32327e-06
5.32325e-06
5.32337e-06
5.32352e-06
5.32364e-06
5.32368e-06
5.32363e-06
5.32355e-06
5.32361e-06
5.32385e-06
5.32412e-06
5.32429e-06
5.32429e-06
5.32419e-06
5.32417e-06
5.32328e-06
5.31139e-06
5.31035e-06
5.3223e-06
5.32341e-06
5.32349e-06
5.32351e-06
5.32349e-06
5.32344e-06
5.32339e-06
5.32338e-06
5.3234e-06
5.32343e-06
5.32348e-06
5.32353e-06
5.32352e-06
5.3235e-06
5.32353e-06
5.32358e-06
5.32361e-06
5.32357e-06
5.32351e-06
5.32352e-06
5.32364e-06
5.32378e-06
5.32388e-06
5.32392e-06
5.3239e-06
5.32384e-06
5.32438e-06
5.32341e-06
5.31139e-06
5.31043e-06
5.32236e-06
5.32346e-06
5.32357e-06
5.32362e-06
5.32366e-06
5.32365e-06
5.32357e-06
5.32344e-06
5.32339e-06
5.32346e-06
5.32358e-06
5.32372e-06
5.32378e-06
5.32371e-06
5.32356e-06
5.32341e-06
5.32335e-06
5.32341e-06
5.32351e-06
5.3236e-06
5.32364e-06
5.32359e-06
5.32347e-06
5.32348e-06
5.32386e-06
5.3243e-06
5.32479e-06
5.3238e-06
5.31131e-06
5.31051e-06
5.32256e-06
5.32361e-06
5.32372e-06
5.32381e-06
5.32388e-06
5.32391e-06
5.32386e-06
5.32372e-06
5.32352e-06
5.3235e-06
5.3236e-06
5.32373e-06
5.32379e-06
5.32371e-06
5.32349e-06
5.32323e-06
5.32314e-06
5.32333e-06
5.32351e-06
5.32358e-06
5.32355e-06
5.32341e-06
5.32335e-06
5.32365e-06
5.32408e-06
5.32449e-06
5.32469e-06
5.32353e-06
5.3111e-06
5.31064e-06
5.32285e-06
5.32381e-06
5.32389e-06
5.32397e-06
5.32405e-06
5.32409e-06
5.32408e-06
5.324e-06
5.32386e-06
5.32372e-06
5.32363e-06
5.3236e-06
5.32359e-06
5.32358e-06
5.32355e-06
5.3235e-06
5.32348e-06
5.32352e-06
5.32357e-06
5.32357e-06
5.32349e-06
5.32337e-06
5.32349e-06
5.32381e-06
5.32416e-06
5.32439e-06
5.32436e-06
5.32313e-06
5.31091e-06
5.31102e-06
5.32297e-06
5.32385e-06
5.3239e-06
5.32392e-06
5.32396e-06
5.32401e-06
5.32407e-06
5.32411e-06
5.3241e-06
5.32399e-06
5.32378e-06
5.32351e-06
5.32336e-06
5.32348e-06
5.32372e-06
5.32392e-06
5.32403e-06
5.32406e-06
5.32401e-06
5.32389e-06
5.32371e-06
5.32355e-06
5.32358e-06
5.32379e-06
5.32399e-06
5.32407e-06
5.32395e-06
5.3228e-06
5.31083e-06
5.31134e-06
5.32291e-06
5.32374e-06
5.32376e-06
5.3237e-06
5.32364e-06
5.32365e-06
5.32377e-06
5.32394e-06
5.32407e-06
5.32407e-06
5.32393e-06
5.32367e-06
5.32341e-06
5.32347e-06
5.3238e-06
5.32415e-06
5.32442e-06
5.32457e-06
5.32455e-06
5.32437e-06
5.3241e-06
5.32381e-06
5.32365e-06
5.3237e-06
5.32382e-06
5.32389e-06
5.32383e-06
5.32278e-06
5.31097e-06
5.31136e-06
5.32302e-06
5.32385e-06
5.32383e-06
5.32375e-06
5.32366e-06
5.32363e-06
5.32368e-06
5.32378e-06
5.32388e-06
5.32395e-06
5.32394e-06
5.32382e-06
5.32358e-06
5.32338e-06
5.32374e-06
5.32422e-06
5.3246e-06
5.32478e-06
5.32474e-06
5.32452e-06
5.32421e-06
5.32388e-06
5.32363e-06
5.32367e-06
5.3238e-06
5.32392e-06
5.32394e-06
5.32303e-06
5.31114e-06
5.31119e-06
5.32321e-06
5.3241e-06
5.32418e-06
5.32433e-06
5.32447e-06
5.32455e-06
5.32452e-06
5.32433e-06
5.32404e-06
5.32391e-06
5.324e-06
5.32408e-06
5.32406e-06
5.32401e-06
5.32409e-06
5.32427e-06
5.3244e-06
5.32442e-06
5.32434e-06
5.3242e-06
5.32402e-06
5.32382e-06
5.32366e-06
5.32374e-06
5.32386e-06
5.32398e-06
5.32407e-06
5.32314e-06
5.31126e-06
5.31168e-06
5.32319e-06
5.32433e-06
5.32465e-06
5.32504e-06
5.32534e-06
5.32544e-06
5.32527e-06
5.32484e-06
5.32431e-06
5.32393e-06
5.32402e-06
5.32429e-06
5.32452e-06
5.32464e-06
5.32463e-06
5.32445e-06
5.32411e-06
5.32375e-06
5.32364e-06
5.32374e-06
5.32383e-06
5.32385e-06
5.32382e-06
5.32384e-06
5.32393e-06
5.32406e-06
5.32416e-06
5.32318e-06
5.31141e-06
5.31239e-06
5.32296e-06
5.32474e-06
5.32526e-06
5.32566e-06
5.32582e-06
5.32569e-06
5.3253e-06
5.32477e-06
5.32423e-06
5.32382e-06
5.3239e-06
5.3243e-06
5.32469e-06
5.3249e-06
5.32486e-06
5.32457e-06
5.32411e-06
5.32366e-06
5.32345e-06
5.32358e-06
5.32383e-06
5.32398e-06
5.324e-06
5.32395e-06
5.32409e-06
5.32429e-06
5.3244e-06
5.3235e-06
5.31184e-06
5.31263e-06
5.32416e-06
5.3255e-06
5.32576e-06
5.32581e-06
5.32559e-06
5.32518e-06
5.32473e-06
5.32436e-06
5.32405e-06
5.32379e-06
5.32382e-06
5.32422e-06
5.32462e-06
5.32483e-06
5.3248e-06
5.3246e-06
5.3243e-06
5.32399e-06
5.32376e-06
5.3237e-06
5.32389e-06
5.32408e-06
5.32415e-06
5.32419e-06
5.32438e-06
5.32462e-06
5.32487e-06
5.32421e-06
5.31227e-06
5.31235e-06
5.32539e-06
5.32611e-06
5.32596e-06
5.32556e-06
5.32502e-06
5.32451e-06
5.32425e-06
5.32423e-06
5.32413e-06
5.32398e-06
5.32399e-06
5.32424e-06
5.3245e-06
5.32463e-06
5.32464e-06
5.32457e-06
5.32442e-06
5.32421e-06
5.32404e-06
5.32397e-06
5.32399e-06
5.32409e-06
5.32422e-06
5.3244e-06
5.32467e-06
5.32497e-06
5.32524e-06
5.3244e-06
5.31224e-06
5.31233e-06
5.32606e-06
5.32648e-06
5.32611e-06
5.32559e-06
5.32504e-06
5.32458e-06
5.32435e-06
5.32431e-06
5.32425e-06
5.3242e-06
5.32416e-06
5.32419e-06
5.32424e-06
5.32428e-06
5.32436e-06
5.32442e-06
5.32442e-06
5.32437e-06
5.3243e-06
5.32425e-06
5.32422e-06
5.32427e-06
5.32439e-06
5.32466e-06
5.32497e-06
5.32521e-06
5.3253e-06
5.32415e-06
5.31202e-06
5.31307e-06
5.32631e-06
5.32679e-06
5.32642e-06
5.32595e-06
5.32551e-06
5.32516e-06
5.32486e-06
5.32456e-06
5.32436e-06
5.32422e-06
5.32406e-06
5.32394e-06
5.32387e-06
5.32388e-06
5.32399e-06
5.32416e-06
5.32432e-06
5.32441e-06
5.32443e-06
5.32441e-06
5.32441e-06
5.32445e-06
5.32478e-06
5.32518e-06
5.3254e-06
5.32543e-06
5.32527e-06
5.32405e-06
5.31217e-06
5.31382e-06
5.32638e-06
5.32701e-06
5.32668e-06
5.32628e-06
5.32592e-06
5.32563e-06
5.32532e-06
5.32498e-06
5.32465e-06
5.32435e-06
5.32405e-06
5.32379e-06
5.32361e-06
5.32355e-06
5.32371e-06
5.32398e-06
5.32424e-06
5.32442e-06
5.32452e-06
5.32459e-06
5.32474e-06
5.32517e-06
5.32561e-06
5.32581e-06
5.32577e-06
5.32568e-06
5.32559e-06
5.32463e-06
5.31277e-06
5.31448e-06
5.32639e-06
5.32711e-06
5.32685e-06
5.32656e-06
5.32632e-06
5.32608e-06
5.32578e-06
5.32542e-06
5.32502e-06
5.3246e-06
5.32419e-06
5.32388e-06
5.32374e-06
5.32374e-06
5.32391e-06
5.32415e-06
5.32438e-06
5.3246e-06
5.32485e-06
5.32518e-06
5.32565e-06
5.32605e-06
5.32619e-06
5.32607e-06
5.32592e-06
5.32593e-06
5.32602e-06
5.32519e-06
5.31339e-06
5.31503e-06
5.32646e-06
5.32733e-06
5.32714e-06
5.32693e-06
5.32672e-06
5.32646e-06
5.32613e-06
5.32575e-06
5.32531e-06
5.32484e-06
5.3245e-06
5.32435e-06
5.3243e-06
5.32426e-06
5.32427e-06
5.32438e-06
5.32462e-06
5.32501e-06
5.32552e-06
5.32606e-06
5.32648e-06
5.32659e-06
5.3264e-06
5.32627e-06
5.32632e-06
5.32649e-06
5.32664e-06
5.32581e-06
5.3141e-06
5.31553e-06
5.32676e-06
5.32772e-06
5.3276e-06
5.3274e-06
5.32713e-06
5.32679e-06
5.32642e-06
5.32602e-06
5.32562e-06
5.32534e-06
5.32514e-06
5.32493e-06
5.32464e-06
5.32435e-06
5.32426e-06
5.32446e-06
5.32491e-06
5.32553e-06
5.3262e-06
5.32671e-06
5.32687e-06
5.32679e-06
5.32671e-06
5.3268e-06
5.32706e-06
5.32733e-06
5.32748e-06
5.32664e-06
5.315e-06
5.31614e-06
5.32735e-06
5.32837e-06
5.32827e-06
5.32801e-06
5.32765e-06
5.32727e-06
5.3269e-06
5.32657e-06
5.32626e-06
5.32597e-06
5.32565e-06
5.32522e-06
5.32469e-06
5.32427e-06
5.32428e-06
5.32464e-06
5.32528e-06
5.32605e-06
5.32666e-06
5.32698e-06
5.32707e-06
5.32712e-06
5.32731e-06
5.32768e-06
5.32811e-06
5.32838e-06
5.32853e-06
5.32763e-06
5.31602e-06
5.31699e-06
5.32836e-06
5.32935e-06
5.32921e-06
5.32889e-06
5.3285e-06
5.32815e-06
5.32781e-06
5.32744e-06
5.32704e-06
5.3266e-06
5.32607e-06
5.32541e-06
5.32475e-06
5.32446e-06
5.32452e-06
5.32489e-06
5.32564e-06
5.32634e-06
5.32681e-06
5.32714e-06
5.32747e-06
5.32781e-06
5.3282e-06
5.32874e-06
5.32914e-06
5.32945e-06
5.32964e-06
5.3287e-06
5.31726e-06
5.31828e-06
5.32983e-06
5.33071e-06
5.33048e-06
5.33012e-06
5.32975e-06
5.32939e-06
5.32897e-06
5.32849e-06
5.32798e-06
5.32736e-06
5.32658e-06
5.32575e-06
5.32518e-06
5.32484e-06
5.32476e-06
5.32512e-06
5.32582e-06
5.32649e-06
5.32714e-06
5.32778e-06
5.32828e-06
5.32869e-06
5.32927e-06
5.32976e-06
5.33015e-06
5.33057e-06
5.33092e-06
5.33043e-06
5.31842e-06
5.32026e-06
5.33167e-06
5.33243e-06
5.33213e-06
5.33179e-06
5.33137e-06
5.33088e-06
5.33034e-06
5.32975e-06
5.32904e-06
5.32816e-06
5.32721e-06
5.32646e-06
5.32591e-06
5.32535e-06
5.32515e-06
5.3255e-06
5.32627e-06
5.32718e-06
5.32805e-06
5.32871e-06
5.32925e-06
5.32987e-06
5.33055e-06
5.33103e-06
5.33158e-06
5.33214e-06
5.33261e-06
5.33189e-06
5.31999e-06
5.32268e-06
5.3338e-06
5.33456e-06
5.33426e-06
5.33381e-06
5.33324e-06
5.33258e-06
5.33188e-06
5.33111e-06
5.33019e-06
5.32916e-06
5.32828e-06
5.32758e-06
5.32679e-06
5.32602e-06
5.32582e-06
5.32636e-06
5.32731e-06
5.32831e-06
5.32919e-06
5.32998e-06
5.33082e-06
5.33152e-06
5.33226e-06
5.33289e-06
5.33361e-06
5.33426e-06
5.3344e-06
5.33357e-06
5.32218e-06
5.32534e-06
5.33633e-06
5.33701e-06
5.33661e-06
5.33605e-06
5.33538e-06
5.33462e-06
5.3338e-06
5.33284e-06
5.33172e-06
5.33063e-06
5.32974e-06
5.32879e-06
5.32774e-06
5.32686e-06
5.32674e-06
5.32748e-06
5.32857e-06
5.32971e-06
5.33079e-06
5.33185e-06
5.33292e-06
5.33376e-06
5.33462e-06
5.33543e-06
5.33615e-06
5.33676e-06
5.33675e-06
5.33596e-06
5.32508e-06
5.32837e-06
5.33922e-06
5.33985e-06
5.33941e-06
5.33882e-06
5.33812e-06
5.33729e-06
5.3363e-06
5.33509e-06
5.33374e-06
5.33253e-06
5.33139e-06
5.33012e-06
5.32882e-06
5.32785e-06
5.32782e-06
5.32872e-06
5.32995e-06
5.33128e-06
5.33268e-06
5.33401e-06
5.33537e-06
5.33653e-06
5.33754e-06
5.33843e-06
5.3391e-06
5.33968e-06
5.33982e-06
5.33937e-06
5.32839e-06
5.33206e-06
5.3428e-06
5.34347e-06
5.34301e-06
5.34236e-06
5.34154e-06
5.34054e-06
5.33931e-06
5.33781e-06
5.33622e-06
5.33479e-06
5.33332e-06
5.33176e-06
5.33024e-06
5.32919e-06
5.32921e-06
5.33024e-06
5.33163e-06
5.33321e-06
5.33491e-06
5.33652e-06
5.33823e-06
5.33978e-06
5.34085e-06
5.34184e-06
5.34261e-06
5.34319e-06
5.34377e-06
5.34323e-06
5.33223e-06
5.33677e-06
5.34737e-06
5.34802e-06
5.34745e-06
5.34665e-06
5.34565e-06
5.34443e-06
5.34295e-06
5.3412e-06
5.33938e-06
5.33764e-06
5.33583e-06
5.33394e-06
5.33221e-06
5.33101e-06
5.331e-06
5.33217e-06
5.33388e-06
5.33575e-06
5.33766e-06
5.33955e-06
5.3416e-06
5.34333e-06
5.3446e-06
5.34578e-06
5.34684e-06
5.34755e-06
5.34836e-06
5.34783e-06
5.33707e-06
5.34264e-06
5.35297e-06
5.3535e-06
5.35279e-06
5.35182e-06
5.35063e-06
5.3492e-06
5.34749e-06
5.3455e-06
5.34335e-06
5.34113e-06
5.33887e-06
5.33666e-06
5.33471e-06
5.33336e-06
5.33334e-06
5.33468e-06
5.33674e-06
5.33886e-06
5.34097e-06
5.34322e-06
5.34545e-06
5.34743e-06
5.3491e-06
5.3506e-06
5.35191e-06
5.35288e-06
5.35384e-06
5.35339e-06
5.34299e-06
5.34976e-06
5.35967e-06
5.3601e-06
5.35928e-06
5.35814e-06
5.35672e-06
5.35499e-06
5.35293e-06
5.35056e-06
5.34797e-06
5.34533e-06
5.34271e-06
5.34017e-06
5.33794e-06
5.3364e-06
5.3364e-06
5.33787e-06
5.34019e-06
5.34262e-06
5.34509e-06
5.34774e-06
5.3503e-06
5.3526e-06
5.35475e-06
5.35652e-06
5.35809e-06
5.35939e-06
5.36042e-06
5.36004e-06
5.34994e-06
5.35828e-06
5.36778e-06
5.36812e-06
5.36713e-06
5.36575e-06
5.36401e-06
5.36191e-06
5.35944e-06
5.35669e-06
5.35372e-06
5.35068e-06
5.34769e-06
5.34474e-06
5.3421e-06
5.34031e-06
5.34041e-06
5.34207e-06
5.34461e-06
5.34746e-06
5.35043e-06
5.35354e-06
5.3565e-06
5.35911e-06
5.36167e-06
5.36372e-06
5.36568e-06
5.36725e-06
5.36835e-06
5.36799e-06
5.35817e-06
5.36852e-06
5.37758e-06
5.37777e-06
5.37658e-06
5.37494e-06
5.37289e-06
5.37041e-06
5.36752e-06
5.36436e-06
5.36098e-06
5.3575e-06
5.35401e-06
5.35061e-06
5.3476e-06
5.34557e-06
5.34583e-06
5.34777e-06
5.35057e-06
5.35395e-06
5.35752e-06
5.36096e-06
5.36427e-06
5.3673e-06
5.37018e-06
5.37263e-06
5.37495e-06
5.37669e-06
5.37784e-06
5.37742e-06
5.36828e-06
5.38086e-06
5.38937e-06
5.38949e-06
5.38815e-06
5.38624e-06
5.3838e-06
5.38087e-06
5.37754e-06
5.37393e-06
5.3701e-06
5.36612e-06
5.36212e-06
5.3583e-06
5.3551e-06
5.35282e-06
5.35304e-06
5.35525e-06
5.35841e-06
5.36236e-06
5.36651e-06
5.37024e-06
5.374e-06
5.37745e-06
5.38072e-06
5.3836e-06
5.38624e-06
5.38807e-06
5.38933e-06
5.38921e-06
5.38076e-06
5.39581e-06
5.40376e-06
5.4038e-06
5.40221e-06
5.39988e-06
5.39697e-06
5.39361e-06
5.38988e-06
5.38582e-06
5.38154e-06
5.3771e-06
5.37269e-06
5.36843e-06
5.36499e-06
5.36242e-06
5.36239e-06
5.36483e-06
5.3686e-06
5.37307e-06
5.37766e-06
5.38176e-06
5.386e-06
5.38986e-06
5.39363e-06
5.39701e-06
5.39982e-06
5.402e-06
5.40367e-06
5.40387e-06
5.39587e-06
5.41386e-06
5.42121e-06
5.421e-06
5.41895e-06
5.41621e-06
5.41292e-06
5.40918e-06
5.40501e-06
5.40048e-06
5.39571e-06
5.39087e-06
5.38608e-06
5.38133e-06
5.37741e-06
5.37463e-06
5.37445e-06
5.37722e-06
5.38157e-06
5.38651e-06
5.39136e-06
5.39591e-06
5.4006e-06
5.4049e-06
5.40917e-06
5.41309e-06
5.41615e-06
5.41892e-06
5.42106e-06
5.42112e-06
5.4137e-06
5.43553e-06
5.44188e-06
5.44141e-06
5.43909e-06
5.43605e-06
5.43244e-06
5.42822e-06
5.42354e-06
5.41855e-06
5.41336e-06
5.40809e-06
5.40285e-06
5.39779e-06
5.39322e-06
5.39029e-06
5.39014e-06
5.39332e-06
5.39797e-06
5.40328e-06
5.40835e-06
5.41346e-06
5.41858e-06
5.42341e-06
5.42812e-06
5.43259e-06
5.43608e-06
5.43922e-06
5.44148e-06
5.44149e-06
5.43505e-06
5.4614e-06
5.46663e-06
5.4661e-06
5.46366e-06
5.46037e-06
5.45634e-06
5.45157e-06
5.44643e-06
5.44115e-06
5.43569e-06
5.43011e-06
5.42431e-06
5.41915e-06
5.414e-06
5.41075e-06
5.41064e-06
5.41426e-06
5.41909e-06
5.4247e-06
5.42999e-06
5.43566e-06
5.44112e-06
5.44649e-06
5.45155e-06
5.4564e-06
5.46044e-06
5.46359e-06
5.46589e-06
5.46653e-06
5.46117e-06
5.4925e-06
5.4968e-06
5.4963e-06
5.49364e-06
5.4899e-06
5.48536e-06
5.48021e-06
5.47477e-06
5.46929e-06
5.46356e-06
5.45789e-06
5.45186e-06
5.44668e-06
5.44123e-06
5.43754e-06
5.43761e-06
5.44158e-06
5.4465e-06
5.45232e-06
5.45778e-06
5.46373e-06
5.46927e-06
5.47491e-06
5.48044e-06
5.48533e-06
5.48983e-06
5.49332e-06
5.49592e-06
5.49707e-06
5.49298e-06
5.53031e-06
5.53365e-06
5.53302e-06
5.52988e-06
5.52556e-06
5.52073e-06
5.51545e-06
5.50981e-06
5.50412e-06
5.49836e-06
5.493e-06
5.48736e-06
5.4821e-06
5.47678e-06
5.47289e-06
5.4731e-06
5.47714e-06
5.48206e-06
5.48764e-06
5.49292e-06
5.49872e-06
5.50431e-06
5.50989e-06
5.51576e-06
5.52083e-06
5.52556e-06
5.52987e-06
5.53288e-06
5.53382e-06
5.53093e-06
5.57649e-06
5.57865e-06
5.57763e-06
5.57421e-06
5.56973e-06
5.56479e-06
5.55944e-06
5.55377e-06
5.54809e-06
5.54295e-06
5.53836e-06
5.53395e-06
5.5297e-06
5.52562e-06
5.52275e-06
5.52326e-06
5.526e-06
5.52985e-06
5.53416e-06
5.53827e-06
5.5431e-06
5.54836e-06
5.55377e-06
5.55913e-06
5.56474e-06
5.57011e-06
5.5746e-06
5.57749e-06
5.57837e-06
5.57729e-06
5.63367e-06
5.6353e-06
5.6337e-06
5.63056e-06
5.62646e-06
5.62116e-06
5.6152e-06
5.60983e-06
5.60622e-06
5.60375e-06
5.60404e-06
5.60805e-06
5.61611e-06
5.62481e-06
5.63479e-06
5.63626e-06
5.62561e-06
5.61615e-06
5.60871e-06
5.60462e-06
5.60382e-06
5.60594e-06
5.61048e-06
5.6153e-06
5.62089e-06
5.62647e-06
5.63054e-06
5.63353e-06
5.63503e-06
5.63531e-06
5.71183e-06
5.71739e-06
5.71555e-06
5.71485e-06
5.71085e-06
5.70434e-06
5.70003e-06
5.6992e-06
5.70437e-06
5.72151e-06
5.76691e-06
5.85311e-06
5.97787e-06
6.098e-06
6.22606e-06
6.23133e-06
6.10229e-06
5.97873e-06
5.85711e-06
5.76763e-06
5.72254e-06
5.70468e-06
5.69922e-06
5.69993e-06
5.70516e-06
5.71078e-06
5.71441e-06
5.71542e-06
5.7172e-06
5.7135e-06
5.85223e-06
5.87757e-06
5.89205e-06
5.92042e-06
5.91036e-06
5.90194e-06
5.92823e-06
5.95763e-06
6.0229e-06
6.20663e-06
6.59208e-06
7.20606e-06
8.01022e-06
8.6308e-06
9.21439e-06
9.22956e-06
8.65464e-06
8.01691e-06
7.24016e-06
6.5939e-06
6.21037e-06
6.02448e-06
5.95817e-06
5.92894e-06
5.90309e-06
5.90927e-06
5.92085e-06
5.89252e-06
5.87652e-06
5.85386e-06
6.25274e-06
6.33384e-06
6.49596e-06
6.77906e-06
6.65292e-06
6.68315e-06
7.14606e-06
7.25392e-06
7.57975e-06
8.51609e-06
1.05157e-05
1.20956e-05
1.46254e-05
1.60283e-05
1.66324e-05
1.66674e-05
1.60704e-05
1.46885e-05
1.22346e-05
1.04736e-05
8.52567e-06
7.58981e-06
7.25785e-06
7.15405e-06
6.68932e-06
6.651e-06
6.77876e-06
6.49959e-06
6.33337e-06
6.25129e-06
7.51094e-06
7.90391e-06
8.63449e-06
9.7358e-06
9.45393e-06
1.00764e-05
1.21391e-05
1.27707e-05
1.45379e-05
1.70538e-05
2.1609e-05
2.19407e-05
2.63323e-05
2.83997e-05
2.77744e-05
2.78743e-05
2.83634e-05
2.65482e-05
2.21173e-05
2.13353e-05
1.70512e-05
1.45735e-05
1.27915e-05
1.21721e-05
1.01108e-05
9.48032e-06
9.75938e-06
8.6419e-06
7.9022e-06
7.50258e-06
1.14567e-05
1.47497e-05
1.49595e-05
2.13759e-05
1.74907e-05
2.21636e-05
2.17283e-05
2.43847e-05
3.34518e-05
3.00482e-05
3.83802e-05
3.58525e-05
4.06718e-05
4.37616e-05
3.86452e-05
3.86789e-05
4.33469e-05
4.0989e-05
3.58217e-05
3.69567e-05
2.9809e-05
3.35546e-05
2.44416e-05
2.1838e-05
2.21027e-05
1.76291e-05
2.15498e-05
1.50026e-05
1.47001e-05
1.14446e-05
1.88292e-05
2.23911e-05
2.651e-05
3.24027e-05
3.34942e-05
3.79215e-05
3.56009e-05
4.37484e-05
4.49995e-05
4.25877e-05
4.99775e-05
4.80793e-05
4.90288e-05
4.89418e-05
4.99042e-05
5.0137e-05
4.91616e-05
4.92155e-05
4.83883e-05
4.75193e-05
4.1918e-05
4.49414e-05
4.37176e-05
3.58887e-05
3.82313e-05
3.37767e-05
3.27498e-05
2.67459e-05
2.23958e-05
1.87869e-05
1.75273e-05
2.22052e-05
2.44433e-05
3.44368e-05
3.41341e-05
4.48917e-05
4.37825e-05
4.07059e-05
5.01275e-05
5.05317e-05
5.51795e-05
4.7069e-05
5.16806e-05
5.0729e-05
4.99829e-05
4.98653e-05
5.2876e-05
5.15292e-05
4.78535e-05
5.14698e-05
5.02063e-05
4.92243e-05
4.08483e-05
4.49295e-05
4.53292e-05
3.43544e-05
3.56725e-05
2.45486e-05
2.23809e-05
1.76243e-05
2.01913e-05
2.41325e-05
2.50467e-05
3.60759e-05
3.50814e-05
3.75284e-05
4.04965e-05
4.49146e-05
5.31263e-05
5.18581e-05
4.65879e-05
4.6325e-05
5.57237e-05
5.56062e-05
4.60676e-05
4.59204e-05
5.62359e-05
5.7708e-05
4.53524e-05
4.69543e-05
5.29253e-05
5.63938e-05
4.6058e-05
4.1205e-05
3.78774e-05
3.53517e-05
3.6916e-05
2.52389e-05
2.44776e-05
2.02274e-05
2.19207e-05
2.46106e-05
2.73087e-05
3.29096e-05
3.36466e-05
3.31106e-05
3.46665e-05
3.87087e-05
4.13466e-05
4.34888e-05
4.16464e-05
4.25935e-05
4.27198e-05
4.41716e-05
4.60684e-05
4.61566e-05
4.42052e-05
4.24656e-05
4.34569e-05
4.18827e-05
4.4089e-05
4.15779e-05
3.91074e-05
3.48657e-05
3.3271e-05
3.37614e-05
3.33974e-05
2.72558e-05
2.49175e-05
2.19351e-05
1.98073e-05
2.28582e-05
2.53706e-05
3.13356e-05
2.93754e-05
2.74534e-05
2.99045e-05
3.20643e-05
3.31986e-05
3.60768e-05
3.44384e-05
3.55799e-05
3.69989e-05
3.80264e-05
4.01269e-05
4.01302e-05
3.83993e-05
3.726e-05
3.6238e-05
3.46446e-05
3.66991e-05
3.35245e-05
3.26025e-05
3.02043e-05
2.74297e-05
2.96141e-05
3.17399e-05
2.56048e-05
2.328e-05
2.04836e-05
1.77462e-05
2.01159e-05
2.20523e-05
2.75068e-05
2.48237e-05
2.17514e-05
2.45664e-05
2.66624e-05
2.81476e-05
3.0856e-05
3.03472e-05
3.04563e-05
3.03863e-05
3.1332e-05
3.16174e-05
3.15652e-05
3.15568e-05
3.04373e-05
3.05263e-05
3.01344e-05
3.12183e-05
2.82994e-05
2.68501e-05
2.47262e-05
2.17927e-05
2.48129e-05
2.7835e-05
2.22515e-05
2.01055e-05
1.8252e-05
1.55188e-05
1.73563e-05
1.84527e-05
2.20759e-05
2.01073e-05
1.72924e-05
1.85081e-05
2.07974e-05
2.36235e-05
2.70989e-05
2.84661e-05
2.90417e-05
2.92214e-05
2.96762e-05
2.95216e-05
2.94486e-05
2.9778e-05
2.93192e-05
2.89712e-05
2.82649e-05
2.71613e-05
2.37043e-05
2.09376e-05
1.84884e-05
1.73777e-05
2.02351e-05
2.22702e-05
1.86303e-05
1.73536e-05
1.55993e-05
1.39317e-05
1.50207e-05
1.55192e-05
1.67523e-05
1.59781e-05
1.47641e-05
1.47096e-05
1.55138e-05
1.74791e-05
2.14716e-05
2.48715e-05
2.73456e-05
2.88202e-05
2.95531e-05
2.95526e-05
2.95397e-05
2.96454e-05
2.88531e-05
2.73191e-05
2.47584e-05
2.14924e-05
1.74921e-05
1.55293e-05
1.47888e-05
1.48263e-05
1.61048e-05
1.68301e-05
1.56211e-05
1.50883e-05
1.39398e-05
1.27399e-05
1.33077e-05
1.34273e-05
1.36083e-05
1.33026e-05
1.29656e-05
1.2867e-05
1.30248e-05
1.36202e-05
1.56742e-05
1.9187e-05
2.31087e-05
2.62209e-05
2.81517e-05
2.88895e-05
2.88856e-05
2.82254e-05
2.62347e-05
2.30766e-05
1.91119e-05
1.56917e-05
1.36595e-05
1.30464e-05
1.29001e-05
1.29738e-05
1.34301e-05
1.36554e-05
1.34339e-05
1.33648e-05
1.27551e-05
1.18098e-05
1.2138e-05
1.20818e-05
1.20703e-05
1.19504e-05
1.18368e-05
1.17849e-05
1.1811e-05
1.19802e-05
1.25685e-05
1.4085e-05
1.70453e-05
2.0813e-05
2.40164e-05
2.57457e-05
2.57192e-05
2.40513e-05
2.0849e-05
1.7008e-05
1.40414e-05
1.25789e-05
1.2003e-05
1.18201e-05
1.1783e-05
1.18451e-05
1.19983e-05
1.2111e-05
1.21174e-05
1.21691e-05
1.18348e-05
1.10856e-05
1.12259e-05
1.1191e-05
1.1189e-05
1.11361e-05
1.10828e-05
1.10621e-05
1.1075e-05
1.11276e-05
1.12706e-05
1.16573e-05
1.26449e-05
1.46167e-05
1.72756e-05
1.94349e-05
1.93987e-05
1.72537e-05
1.46337e-05
1.26494e-05
1.16812e-05
1.12904e-05
1.11387e-05
1.10867e-05
1.10711e-05
1.11068e-05
1.11536e-05
1.11974e-05
1.12289e-05
1.12738e-05
1.10887e-05
1.04639e-05
1.05111e-05
1.05147e-05
1.05097e-05
1.04829e-05
1.04707e-05
1.04834e-05
1.05046e-05
1.0529e-05
1.05564e-05
1.06332e-05
1.08398e-05
1.13116e-05
1.21346e-05
1.30758e-05
1.30691e-05
1.2132e-05
1.13225e-05
1.08467e-05
1.06512e-05
1.05651e-05
1.0524e-05
1.05079e-05
1.04965e-05
1.05002e-05
1.0496e-05
1.05008e-05
1.05202e-05
1.05627e-05
1.04951e-05
9.96289e-06
9.94253e-06
9.93199e-06
9.91267e-06
9.90668e-06
9.92905e-06
9.95958e-06
9.97331e-06
9.97617e-06
9.96714e-06
9.96328e-06
9.98081e-06
1.00423e-05
1.0171e-05
1.03412e-05
1.03409e-05
1.01819e-05
1.00592e-05
9.99842e-06
9.9773e-06
9.97318e-06
9.97417e-06
9.97533e-06
9.96199e-06
9.94772e-06
9.92953e-06
9.92858e-06
9.93776e-06
9.97528e-06
1.00012e-05
9.54029e-06
9.43285e-06
9.39873e-06
9.38679e-06
9.41209e-06
9.44613e-06
9.4641e-06
9.46001e-06
9.44085e-06
9.40956e-06
9.37544e-06
9.34592e-06
9.32103e-06
9.30719e-06
9.30907e-06
9.30761e-06
9.31671e-06
9.33281e-06
9.36069e-06
9.3896e-06
9.42322e-06
9.45096e-06
9.46626e-06
9.46603e-06
9.45638e-06
9.43989e-06
9.42958e-06
9.42404e-06
9.45764e-06
9.54785e-06
9.11938e-06
8.96354e-06
8.93113e-06
8.94728e-06
8.9795e-06
8.99618e-06
8.98741e-06
8.96482e-06
8.92937e-06
8.88549e-06
8.83809e-06
8.78739e-06
8.73146e-06
8.68381e-06
8.65821e-06
8.66463e-06
8.70411e-06
8.74976e-06
8.79942e-06
8.85088e-06
8.90727e-06
8.95507e-06
8.98249e-06
8.99443e-06
8.99395e-06
8.9841e-06
8.97063e-06
8.96145e-06
8.99655e-06
9.12731e-06
8.71354e-06
8.5629e-06
8.5433e-06
8.56152e-06
8.56829e-06
8.55568e-06
8.53138e-06
8.50221e-06
8.46377e-06
8.41471e-06
8.35316e-06
8.28135e-06
8.20633e-06
8.14859e-06
8.11958e-06
8.12804e-06
8.16785e-06
8.22202e-06
8.28717e-06
8.35749e-06
8.42741e-06
8.48489e-06
8.52248e-06
8.54612e-06
8.55719e-06
8.55652e-06
8.54757e-06
8.54553e-06
8.58607e-06
8.73351e-06
8.34333e-06
8.21205e-06
8.18182e-06
8.17309e-06
8.15711e-06
8.13767e-06
8.11692e-06
8.08732e-06
8.0439e-06
7.98231e-06
7.90602e-06
7.82377e-06
7.74495e-06
7.68389e-06
7.64926e-06
7.65229e-06
7.69034e-06
7.75142e-06
7.82805e-06
7.90997e-06
7.98842e-06
8.05324e-06
8.09977e-06
8.13266e-06
8.15331e-06
8.16278e-06
8.16418e-06
8.17113e-06
8.21385e-06
8.36373e-06
8.01615e-06
7.86481e-06
7.82122e-06
7.80346e-06
7.79023e-06
7.778e-06
7.75327e-06
7.71323e-06
7.65747e-06
7.58393e-06
7.50039e-06
7.4166e-06
7.3381e-06
7.27291e-06
7.23136e-06
7.23015e-06
7.26992e-06
7.33835e-06
7.424e-06
7.51322e-06
7.59702e-06
7.66711e-06
7.72002e-06
7.75909e-06
7.78783e-06
7.80588e-06
7.81512e-06
7.82567e-06
7.8659e-06
8.01591e-06
7.68751e-06
7.53206e-06
7.49726e-06
7.48552e-06
7.4751e-06
7.45605e-06
7.41949e-06
7.3713e-06
7.31005e-06
7.23495e-06
7.15336e-06
7.07114e-06
6.99132e-06
6.92132e-06
6.87523e-06
6.87257e-06
6.91394e-06
6.98528e-06
7.07328e-06
7.16342e-06
7.2477e-06
7.32023e-06
7.37742e-06
7.41983e-06
7.4515e-06
7.4742e-06
7.48954e-06
7.50439e-06
7.54507e-06
7.69367e-06
7.37704e-06
7.25708e-06
7.22353e-06
7.20605e-06
7.18547e-06
7.15394e-06
7.11193e-06
7.06177e-06
7.00096e-06
6.93037e-06
6.85406e-06
6.77344e-06
6.69143e-06
6.61705e-06
6.56786e-06
6.56429e-06
6.60608e-06
6.67806e-06
6.76576e-06
6.85502e-06
6.93749e-06
7.00848e-06
7.06553e-06
7.10963e-06
7.14519e-06
7.17465e-06
7.19839e-06
7.21996e-06
7.26227e-06
7.40151e-06
7.12082e-06
7.01812e-06
6.97366e-06
6.94543e-06
6.91721e-06
6.88473e-06
6.84528e-06
6.79653e-06
6.7385e-06
6.67229e-06
6.5989e-06
6.51793e-06
6.43467e-06
6.36028e-06
6.3131e-06
6.31266e-06
6.35581e-06
6.42659e-06
6.51038e-06
6.59434e-06
6.67119e-06
6.73881e-06
6.79643e-06
6.84461e-06
6.88533e-06
6.91959e-06
6.94755e-06
6.97113e-06
7.00932e-06
7.13033e-06
6.88457e-06
6.77694e-06
6.73209e-06
6.70485e-06
6.68203e-06
6.65575e-06
6.61918e-06
6.57338e-06
6.51916e-06
6.45459e-06
6.37987e-06
6.29794e-06
6.21728e-06
6.14889e-06
6.10762e-06
6.11141e-06
6.15467e-06
6.22176e-06
6.29971e-06
6.37786e-06
6.45029e-06
6.5156e-06
6.57311e-06
6.62241e-06
6.6635e-06
6.69681e-06
6.72253e-06
6.74239e-06
6.77294e-06
6.87544e-06
6.65489e-06
6.55127e-06
6.51807e-06
6.5002e-06
6.48285e-06
6.45775e-06
6.42296e-06
6.38123e-06
6.32959e-06
6.26509e-06
6.19e-06
6.11088e-06
6.03697e-06
5.97682e-06
5.94113e-06
5.94712e-06
5.98941e-06
6.05223e-06
6.12393e-06
6.19578e-06
6.26334e-06
6.32503e-06
6.37973e-06
6.42628e-06
6.4639e-06
6.49293e-06
6.51419e-06
6.53004e-06
6.55545e-06
6.64514e-06
6.44382e-06
6.36284e-06
6.34045e-06
6.32824e-06
6.31122e-06
6.28546e-06
6.25321e-06
6.21368e-06
6.1631e-06
6.10165e-06
6.03286e-06
5.96301e-06
5.89878e-06
5.84591e-06
5.81371e-06
5.81935e-06
5.85793e-06
5.91456e-06
5.9785e-06
6.04264e-06
6.10374e-06
6.15999e-06
6.20984e-06
6.25174e-06
6.28501e-06
6.31036e-06
6.32919e-06
6.34402e-06
6.36721e-06
6.4465e-06
6.26701e-06
6.20823e-06
6.18964e-06
6.17827e-06
6.16168e-06
6.13728e-06
6.10613e-06
6.0665e-06
6.01921e-06
5.96595e-06
5.90884e-06
5.85118e-06
5.79588e-06
5.74758e-06
5.71812e-06
5.72318e-06
5.75731e-06
5.80694e-06
5.86212e-06
5.91724e-06
5.97006e-06
6.01922e-06
6.06331e-06
6.10092e-06
6.13147e-06
6.15531e-06
6.17354e-06
6.18807e-06
6.2087e-06
6.27568e-06
6.12357e-06
6.06933e-06
6.05316e-06
6.04444e-06
6.02912e-06
6.00522e-06
5.97381e-06
5.93663e-06
5.89679e-06
5.85445e-06
5.80981e-06
5.76333e-06
5.71589e-06
5.67348e-06
5.64902e-06
5.65288e-06
5.68131e-06
5.72234e-06
5.76751e-06
5.81308e-06
5.85777e-06
5.90046e-06
5.93958e-06
5.97367e-06
6.00217e-06
6.02481e-06
6.04186e-06
6.05477e-06
6.07152e-06
6.12484e-06
5.99077e-06
5.94008e-06
5.93209e-06
5.92525e-06
5.90869e-06
5.88552e-06
5.8575e-06
5.82714e-06
5.79565e-06
5.76233e-06
5.727e-06
5.68876e-06
5.64907e-06
5.61431e-06
5.59401e-06
5.59575e-06
5.61712e-06
5.64927e-06
5.68616e-06
5.72493e-06
5.7639e-06
5.80171e-06
5.83642e-06
5.8668e-06
5.892e-06
5.91163e-06
5.92588e-06
5.93614e-06
5.94881e-06
5.98981e-06
5.86764e-06
5.83738e-06
5.83453e-06
5.82393e-06
5.80714e-06
5.78822e-06
5.76686e-06
5.74341e-06
5.71712e-06
5.68852e-06
5.65792e-06
5.62482e-06
5.59126e-06
5.56255e-06
5.5449e-06
5.54365e-06
5.55886e-06
5.585e-06
5.61748e-06
5.65296e-06
5.68861e-06
5.72208e-06
5.75205e-06
5.77746e-06
5.79769e-06
5.81278e-06
5.82326e-06
5.8307e-06
5.84028e-06
5.87242e-06
5.77692e-06
5.76781e-06
5.75745e-06
5.74284e-06
5.72955e-06
5.7163e-06
5.70083e-06
5.68172e-06
5.6588e-06
5.63381e-06
5.60698e-06
5.57816e-06
5.54929e-06
5.52438e-06
5.50767e-06
5.50402e-06
5.51508e-06
5.53749e-06
5.56691e-06
5.59901e-06
5.63057e-06
5.65925e-06
5.68369e-06
5.70339e-06
5.71846e-06
5.72938e-06
5.73699e-06
5.74246e-06
5.74967e-06
5.77442e-06
5.712e-06
5.70316e-06
5.6861e-06
5.67623e-06
5.6692e-06
5.66078e-06
5.64937e-06
5.63414e-06
5.6161e-06
5.59595e-06
5.57304e-06
5.54793e-06
5.52317e-06
5.50135e-06
5.48543e-06
5.48104e-06
5.49003e-06
5.50934e-06
5.53426e-06
5.56078e-06
5.58625e-06
5.60907e-06
5.62847e-06
5.64417e-06
5.65613e-06
5.66476e-06
5.67065e-06
5.67441e-06
5.6786e-06
5.69591e-06
5.66043e-06
5.64358e-06
5.63308e-06
5.62937e-06
5.62496e-06
5.61822e-06
5.60871e-06
5.59653e-06
5.58237e-06
5.56549e-06
5.54524e-06
5.52329e-06
5.50233e-06
5.48374e-06
5.47042e-06
5.46779e-06
5.47666e-06
5.493e-06
5.51282e-06
5.53327e-06
5.55292e-06
5.57115e-06
5.58748e-06
5.60106e-06
5.61136e-06
5.61861e-06
5.62314e-06
5.62552e-06
5.62773e-06
5.63982e-06
5.60877e-06
5.59668e-06
5.59621e-06
5.59448e-06
5.5899e-06
5.58287e-06
5.57382e-06
5.56351e-06
5.55151e-06
5.53607e-06
5.51772e-06
5.49922e-06
5.48204e-06
5.46729e-06
5.45757e-06
5.4573e-06