/*--------------------------------*- C++ -*----------------------------------*\
| =========                 |                                                 |
| \\      /  F ield         | OpenFOAM: The Open Source CFD Toolbox           |
|  \\    /   O peration     | Version:  2312                                  |
|   \\  /    A nd           | Website:  www.openfoam.com                      |
|    \\/     M anipulation  |                                                 |
\*---------------------------------------------------------------------------*/
FoamFile
{
    version     2.0;
    format      ascii;
    arch        "LSB;label=32;scalar=64";
    class       volScalarField;
    location    "1.0996775";
    object      p;
}
// * * * * * * * * * * * * * * * * * * * * * * * * * * * * * * * * * * * * * //

dimensions      [1 -1 -2 0 0 0 0];

internalField   nonuniform List<scalar> 
90000
(
4852.3
4852.3
4852.3
4852.3
4852.3
4852.3
4852.3
4852.3
4852.3
4852.29
4852.29
4852.29
4852.29
4852.29
4852.29
4852.29
4852.29
4852.29
4852.29
4852.3
4852.3
4852.3
4852.3
4852.3
4852.3
4852.3
4852.3
4852.3
4852.3
4852.29
4754.2
4754.2
4754.2
4754.2
4754.2
4754.2
4754.2
4754.2
4754.2
4754.2
4754.19
4754.19
4754.19
4754.19
4754.19
4754.19
4754.19
4754.19
4754.19
4754.19
4754.19
4754.19
4754.2
4754.2
4754.2
4754.2
4754.2
4754.2
4754.2
4754.2
4656.1
4656.09
4656.1
4656.1
4656.1
4656.1
4656.1
4656.1
4656.1
4656.1
4656.1
4656.1
4656.09
4656.09
4656.09
4656.09
4656.09
4656.09
4656.09
4656.09
4656.09
4656.09
4656.1
4656.1
4656.1
4656.1
4656.1
4656.1
4656.1
4656.1
4557.99
4557.99
4557.99
4557.99
4557.99
4557.99
4558
4558
4558
4558
4558
4558
4558
4558
4557.99
4557.99
4557.99
4557.99
4557.99
4557.99
4558
4558
4558
4558
4558
4558
4558
4557.99
4557.99
4558
4459.89
4459.89
4459.89
4459.89
4459.89
4459.89
4459.9
4459.9
4459.9
4459.9
4459.9
4459.9
4459.9
4459.9
4459.9
4459.9
4459.9
4459.9
4459.9
4459.9
4459.9
4459.9
4459.9
4459.9
4459.9
4459.9
4459.9
4459.9
4459.89
4459.9
4361.79
4361.79
4361.79
4361.79
4361.79
4361.79
4361.79
4361.8
4361.8
4361.8
4361.8
4361.8
4361.8
4361.8
4361.8
4361.8
4361.8
4361.8
4361.8
4361.8
4361.8
4361.8
4361.8
4361.8
4361.8
4361.8
4361.8
4361.8
4361.8
4361.8
4263.69
4263.69
4263.69
4263.69
4263.69
4263.69
4263.69
4263.7
4263.7
4263.7
4263.7
4263.7
4263.7
4263.7
4263.7
4263.7
4263.7
4263.7
4263.7
4263.7
4263.7
4263.7
4263.7
4263.7
4263.7
4263.7
4263.7
4263.7
4263.7
4263.7
4165.6
4165.6
4165.6
4165.6
4165.6
4165.6
4165.6
4165.6
4165.6
4165.6
4165.6
4165.6
4165.6
4165.6
4165.6
4165.6
4165.6
4165.6
4165.6
4165.6
4165.6
4165.6
4165.6
4165.6
4165.6
4165.6
4165.6
4165.6
4165.6
4165.6
4067.5
4067.5
4067.5
4067.5
4067.5
4067.5
4067.5
4067.5
4067.5
4067.5
4067.5
4067.5
4067.5
4067.5
4067.5
4067.5
4067.5
4067.5
4067.5
4067.5
4067.5
4067.5
4067.5
4067.5
4067.5
4067.5
4067.5
4067.5
4067.5
4067.5
3969.41
3969.41
3969.41
3969.4
3969.4
3969.4
3969.4
3969.4
3969.4
3969.4
3969.4
3969.4
3969.4
3969.4
3969.4
3969.4
3969.4
3969.4
3969.4
3969.4
3969.4
3969.4
3969.4
3969.4
3969.4
3969.4
3969.4
3969.4
3969.4
3969.4
3871.31
3871.31
3871.31
3871.3
3871.3
3871.3
3871.3
3871.3
3871.3
3871.3
3871.3
3871.3
3871.3
3871.3
3871.3
3871.3
3871.3
3871.3
3871.3
3871.3
3871.3
3871.3
3871.3
3871.3
3871.3
3871.3
3871.3
3871.3
3871.3
3871.3
3773.2
3773.2
3773.2
3773.2
3773.2
3773.2
3773.2
3773.2
3773.2
3773.2
3773.2
3773.2
3773.2
3773.2
3773.2
3773.2
3773.2
3773.2
3773.2
3773.2
3773.2
3773.2
3773.2
3773.2
3773.2
3773.2
3773.2
3773.2
3773.2
3773.2
3675.1
3675.1
3675.1
3675.1
3675.1
3675.1
3675.1
3675.1
3675.1
3675.1
3675.1
3675.1
3675.1
3675.1
3675.1
3675.1
3675.1
3675.1
3675.1
3675.1
3675.1
3675.1
3675.1
3675.1
3675.1
3675.1
3675.1
3675.1
3675.1
3675.1
3577
3577
3577
3577
3577
3577
3577
3577
3577
3577
3577
3577
3577
3577
3577
3577
3577
3577
3577
3577
3577.01
3577.01
3577.01
3577.01
3577.01
3577.01
3577
3577
3577
3577
3478.9
3478.9
3478.9
3478.9
3478.9
3478.9
3478.9
3478.9
3478.91
3478.91
3478.91
3478.91
3478.91
3478.91
3478.91
3478.91
3478.9
3478.9
3478.9
3478.91
3478.91
3478.91
3478.91
3478.91
3478.91
3478.91
3478.91
3478.91
3478.91
3478.91
3380.8
3380.8
3380.8
3380.8
3380.8
3380.8
3380.8
3380.81
3380.81
3380.81
3380.81
3380.81
3380.81
3380.81
3380.81
3380.81
3380.81
3380.8
3380.8
3380.8
3380.81
3380.81
3380.81
3380.81
3380.81
3380.81
3380.81
3380.81
3380.81
3380.81
3282.7
3282.7
3282.7
3282.7
3282.7
3282.71
3282.71
3282.71
3282.71
3282.71
3282.71
3282.71
3282.71
3282.71
3282.71
3282.71
3282.71
3282.7
3282.7
3282.7
3282.71
3282.71
3282.71
3282.71
3282.71
3282.71
3282.71
3282.71
3282.71
3282.71
3184.61
3184.61
3184.61
3184.61
3184.61
3184.61
3184.61
3184.61
3184.61
3184.61
3184.61
3184.61
3184.61
3184.61
3184.61
3184.61
3184.61
3184.61
3184.61
3184.61
3184.61
3184.61
3184.61
3184.61
3184.61
3184.61
3184.61
3184.61
3184.61
3184.61
3086.51
3086.51
3086.51
3086.51
3086.51
3086.51
3086.51
3086.51
3086.51
3086.51
3086.51
3086.51
3086.51
3086.51
3086.51
3086.51
3086.51
3086.51
3086.51
3086.51
3086.51
3086.51
3086.51
3086.51
3086.51
3086.51
3086.51
3086.51
3086.51
3086.51
2988.41
2988.41
2988.41
2988.41
2988.41
2988.41
2988.41
2988.41
2988.41
2988.41
2988.41
2988.4
2988.4
2988.4
2988.4
2988.4
2988.4
2988.41
2988.41
2988.41
2988.41
2988.41
2988.41
2988.41
2988.41
2988.41
2988.41
2988.41
2988.41
2988.41
2890.31
2890.31
2890.31
2890.31
2890.31
2890.31
2890.31
2890.31
2890.31
2890.3
2890.3
2890.3
2890.3
2890.3
2890.3
2890.3
2890.3
2890.3
2890.3
2890.31
2890.31
2890.31
2890.31
2890.31
2890.31
2890.31
2890.31
2890.31
2890.32
2890.32
2792.21
2792.21
2792.21
2792.21
2792.21
2792.21
2792.21
2792.2
2792.2
2792.2
2792.2
2792.2
2792.2
2792.2
2792.2
2792.2
2792.2
2792.2
2792.2
2792.2
2792.2
2792.21
2792.21
2792.21
2792.21
2792.21
2792.21
2792.21
2792.21
2792.21
2694.11
2694.11
2694.11
2694.11
2694.11
2694.11
2694.1
2694.1
2694.1
2694.1
2694.1
2694.1
2694.1
2694.1
2694.1
2694.1
2694.1
2694.1
2694.1
2694.1
2694.1
2694.11
2694.11
2694.11
2694.11
2694.11
2694.11
2694.11
2694.11
2694.11
2596.01
2596.01
2596.01
2596.01
2596.01
2596
2596
2596
2596
2596
2595.99
2595.99
2595.99
2595.99
2595.99
2595.99
2595.99
2595.99
2596
2596
2596
2596
2596.01
2596.01
2596.01
2596.01
2596.01
2596.01
2596.01
2596.01
2497.91
2497.91
2497.91
2497.91
2497.91
2497.9
2497.9
2497.9
2497.9
2497.89
2497.89
2497.89
2497.89
2497.89
2497.89
2497.89
2497.89
2497.89
2497.89
2497.9
2497.9
2497.9
2497.9
2497.91
2497.91
2497.91
2497.91
2497.91
2497.92
2497.91
2399.81
2399.81
2399.81
2399.81
2399.81
2399.8
2399.8
2399.8
2399.8
2399.79
2399.79
2399.79
2399.79
2399.79
2399.79
2399.79
2399.79
2399.79
2399.79
2399.79
2399.8
2399.8
2399.8
2399.8
2399.81
2399.81
2399.81
2399.82
2399.82
2399.82
2301.72
2301.72
2301.72
2301.71
2301.71
2301.71
2301.7
2301.7
2301.7
2301.69
2301.69
2301.69
2301.68
2301.68
2301.68
2301.68
2301.68
2301.69
2301.69
2301.69
2301.69
2301.7
2301.7
2301.71
2301.71
2301.71
2301.72
2301.72
2301.72
2301.72
2203.63
2203.63
2203.62
2203.62
2203.62
2203.61
2203.61
2203.6
2203.6
2203.59
2203.59
2203.58
2203.58
2203.58
2203.58
2203.58
2203.58
2203.58
2203.58
2203.59
2203.59
2203.6
2203.6
2203.61
2203.61
2203.62
2203.62
2203.63
2203.63
2203.63
2105.54
2105.54
2105.53
2105.53
2105.52
2105.52
2105.51
2105.5
2105.5
2105.49
2105.48
2105.48
2105.47
2105.47
2105.47
2105.47
2105.47
2105.47
2105.48
2105.48
2105.49
2105.5
2105.5
2105.51
2105.52
2105.52
2105.53
2105.53
2105.54
2105.54
2007.45
2007.45
2007.45
2007.44
2007.43
2007.42
2007.42
2007.41
2007.4
2007.39
2007.38
2007.37
2007.37
2007.36
2007.36
2007.36
2007.36
2007.37
2007.37
2007.38
2007.39
2007.4
2007.4
2007.41
2007.42
2007.43
2007.44
2007.45
2007.45
2007.45
1909.37
1909.37
1909.36
1909.35
1909.34
1909.33
1909.32
1909.31
1909.3
1909.29
1909.27
1909.27
1909.26
1909.25
1909.25
1909.25
1909.25
1909.26
1909.26
1909.27
1909.28
1909.29
1909.31
1909.32
1909.33
1909.34
1909.35
1909.36
1909.37
1909.37
1811.29
1811.29
1811.28
1811.27
1811.26
1811.25
1811.23
1811.21
1811.2
1811.18
1811.17
1811.16
1811.15
1811.14
1811.14
1811.14
1811.14
1811.15
1811.15
1811.17
1811.18
1811.19
1811.21
1811.23
1811.24
1811.26
1811.27
1811.28
1811.29
1811.29
1713.22
1713.22
1713.21
1713.19
1713.18
1713.16
1713.14
1713.12
1713.1
1713.08
1713.06
1713.04
1713.03
1713.02
1713.02
1713.02
1713.02
1713.03
1713.04
1713.06
1713.08
1713.09
1713.11
1713.14
1713.16
1713.18
1713.19
1713.2
1713.21
1713.22
1615.16
1615.15
1615.14
1615.12
1615.1
1615.08
1615.05
1615.02
1615
1614.97
1614.95
1614.93
1614.91
1614.9
1614.9
1614.9
1614.91
1614.92
1614.93
1614.95
1614.97
1615
1615.02
1615.05
1615.08
1615.1
1615.12
1615.13
1615.15
1615.15
1517.1
1517.1
1517.08
1517.06
1517.03
1517
1516.97
1516.93
1516.9
1516.86
1516.83
1516.81
1516.79
1516.78
1516.77
1516.77
1516.78
1516.79
1516.81
1516.84
1516.87
1516.9
1516.93
1516.97
1517
1517.03
1517.05
1517.08
1517.09
1517.1
1419.07
1419.06
1419.04
1419.01
1418.97
1418.93
1418.89
1418.84
1418.8
1418.76
1418.72
1418.69
1418.66
1418.65
1418.64
1418.64
1418.65
1418.67
1418.69
1418.72
1418.76
1418.8
1418.84
1418.89
1418.93
1418.97
1419
1419.03
1419.05
1419.06
1321.05
1321.04
1321.01
1320.97
1320.93
1320.87
1320.82
1320.76
1320.7
1320.65
1320.6
1320.56
1320.53
1320.51
1320.5
1320.5
1320.51
1320.53
1320.56
1320.6
1320.65
1320.7
1320.76
1320.81
1320.87
1320.92
1320.97
1321
1321.03
1321.04
1223.06
1223.04
1223.01
1222.96
1222.9
1222.83
1222.76
1222.68
1222.61
1222.54
1222.47
1222.42
1222.38
1222.36
1222.34
1222.34
1222.35
1222.38
1222.42
1222.47
1222.53
1222.6
1222.68
1222.75
1222.82
1222.89
1222.95
1223
1223.03
1223.05
1125.1
1125.08
1125.04
1124.97
1124.89
1124.8
1124.71
1124.61
1124.51
1124.42
1124.34
1124.28
1124.22
1124.19
1124.17
1124.17
1124.19
1124.22
1124.27
1124.34
1124.42
1124.51
1124.6
1124.7
1124.8
1124.89
1124.96
1125.03
1125.07
1125.09
1027.19
1027.16
1027.1
1027.02
1026.92
1026.8
1026.68
1026.55
1026.42
1026.31
1026.2
1026.12
1026.05
1026
1025.98
1025.98
1026
1026.05
1026.11
1026.2
1026.3
1026.42
1026.54
1026.67
1026.79
1026.91
1027.01
1027.09
1027.15
1027.18
929.34
929.301
929.226
929.119
928.985
928.832
928.668
928.501
928.338
928.187
928.054
927.943
927.859
927.801
927.772
927.771
927.799
927.856
927.939
928.048
928.181
928.33
928.491
928.658
928.82
928.973
929.107
929.213
929.287
929.325
831.565
831.515
831.418
831.278
831.105
830.906
830.692
830.475
830.263
830.069
829.897
829.756
829.647
829.573
829.536
829.535
829.571
829.643
829.75
829.891
830.061
830.253
830.463
830.678
830.892
831.091
831.264
831.402
831.499
831.549
733.89
733.825
733.7
733.52
733.295
733.037
732.759
732.477
732.204
731.953
731.731
731.551
731.412
731.318
731.271
731.271
731.316
731.408
731.545
731.724
731.943
732.193
732.464
732.744
733.021
733.278
733.502
733.682
733.808
733.871
636.342
636.261
636.102
635.871
635.581
635.246
634.885
634.52
634.167
633.844
633.56
633.328
633.154
633.035
632.974
632.973
633.032
633.149
633.321
633.551
633.832
634.155
634.506
634.869
635.226
635.559
635.85
636.08
636.239
636.319
538.956
538.858
538.658
538.365
537.993
537.562
537.095
536.622
536.165
535.748
535.387
535.092
534.873
534.722
534.643
534.642
534.719
534.866
535.084
535.377
535.736
536.151
536.604
537.075
537.538
537.967
538.339
538.631
538.832
538.93
441.769
441.655
441.41
441.05
440.577
440.026
439.419
438.809
438.22
437.679
437.221
436.849
436.577
436.389
436.282
436.279
436.384
436.571
436.841
437.211
437.666
438.205
438.79
439.396
439.997
440.546
441.018
441.382
441.631
441.744
344.803
344.705
344.414
343.993
343.392
342.699
341.902
341.124
340.372
339.655
339.082
338.606
338.288
338.056
337.874
337.87
338.048
338.282
338.597
339.068
339.64
340.357
341.106
341.878
342.667
343.356
343.956
344.384
344.686
344.785
248.018
248.119
247.705
247.32
246.507
245.7
244.583
243.621
242.693
241.62
240.993
240.337
240.067
239.805
239.344
239.343
239.779
240.061
240.328
240.964
241.599
242.681
243.609
244.561
245.663
246.464
247.279
247.676
248.113
248.013
150.953
152.264
151.065
151.449
149.851
149.373
147.456
146.417
145.57
143.635
143.122
141.79
142.261
142.07
140.308
140.355
141.992
142.282
141.804
143.024
143.596
145.569
146.426
147.456
149.321
149.786
151.414
151.054
152.304
150.987
59.1805
63.6256
60.8505
63.2221
59.1067
60.2581
56.6361
55.9728
56.162
52.4643
53.7494
50.8435
53.4066
53.5801
49.2343
49.2195
53.3966
53.4927
50.8785
53.3863
52.3896
56.1903
56.0326
56.7109
60.1795
59.0102
63.2302
60.8775
63.6932
59.2738
4.33391
7.3307
4.76925
9.03216
5.08674
7.45291
4.38533
4.38563
5.23111
2.31165
4.48295
1.47759
3.90796
4.12664
0.790159
0.873265
4.12828
4.02306
1.52902
4.17733
2.30548
5.27591
4.4385
4.48555
7.39003
5.03186
8.98134
4.78666
7.28835
4.28221
-4.70326
-5.15995
-4.84657
-5.01786
-4.89018
-5.0121
-4.96707
-4.92974
-5.04009
-5.00337
-5.0444
-4.98243
-5.07408
-5.0369
-4.99382
-4.99416
-5.04861
-5.05825
-4.97993
-5.0318
-5.00057
-5.03137
-4.92584
-4.96854
-5.01598
-4.87953
-5.02606
-4.85614
-5.19863
-4.70834
-5.03867
-5.14522
-5.06906
-5.14001
-5.10795
-5.12244
-5.11504
-5.12809
-5.12112
-5.11381
-5.12056
-5.11196
-5.11853
-5.12567
-5.10763
-5.10789
-5.12255
-5.11995
-5.11074
-5.1179
-5.11452
-5.12314
-5.12957
-5.11522
-5.12168
-5.10666
-5.13855
-5.06656
-5.14747
-5.04003
-5.25262
-5.23953
-5.24539
-5.24251
-5.23735
-5.23115
-5.22799
-5.22792
-5.22525
-5.22098
-5.22012
-5.21474
-5.21534
-5.21484
-5.2098
-5.21046
-5.21505
-5.21481
-5.21408
-5.21961
-5.22111
-5.2249
-5.22833
-5.22841
-5.23159
-5.23815
-5.24191
-5.24369
-5.23799
-5.25212
-5.35656
-5.34965
-5.34824
-5.34449
-5.33971
-5.33496
-5.33195
-5.32794
-5.32508
-5.32246
-5.32037
-5.31665
-5.31512
-5.31354
-5.31169
-5.31193
-5.31397
-5.31525
-5.31652
-5.32029
-5.32253
-5.32531
-5.32828
-5.33242
-5.33552
-5.34048
-5.34465
-5.34806
-5.34936
-5.35661
-5.4464
-5.44464
-5.44311
-5.44028
-5.43725
-5.43379
-5.4306
-5.42755
-5.42496
-5.4228
-5.4208
-5.41838
-5.41682
-5.41549
-5.41433
-5.41447
-5.41582
-5.41711
-5.4185
-5.42085
-5.42281
-5.42513
-5.42786
-5.43093
-5.43418
-5.43776
-5.44061
-5.44337
-5.44467
-5.4468
-5.5407
-5.5399
-5.53854
-5.53654
-5.53443
-5.532
-5.52952
-5.52716
-5.52506
-5.52322
-5.52166
-5.52019
-5.51908
-5.51819
-5.51762
-5.5177
-5.51837
-5.51928
-5.52035
-5.52179
-5.52331
-5.52524
-5.52744
-5.52983
-5.53238
-5.53486
-5.53691
-5.53894
-5.5401
-5.54101
-5.63677
-5.63624
-5.63525
-5.63382
-5.63225
-5.63045
-5.6286
-5.62681
-5.6252
-5.62377
-5.62259
-5.62163
-5.62094
-5.62045
-5.62028
-5.62037
-5.62062
-5.62111
-5.6218
-5.62273
-5.62389
-5.6254
-5.62707
-5.62895
-5.63084
-5.63265
-5.63419
-5.63568
-5.63652
-5.63701
-5.73383
-5.73342
-5.73273
-5.73172
-5.73052
-5.72925
-5.72793
-5.72667
-5.72551
-5.72449
-5.7236
-5.72291
-5.72245
-5.72219
-5.72212
-5.72219
-5.72234
-5.72262
-5.72307
-5.72373
-5.72463
-5.7257
-5.72693
-5.7283
-5.72965
-5.73095
-5.73208
-5.73309
-5.73373
-5.73406
-5.83155
-5.83127
-5.83077
-5.83008
-5.82923
-5.82835
-5.82746
-5.82661
-5.82583
-5.82514
-5.82456
-5.8241
-5.8238
-5.82364
-5.82362
-5.82366
-5.82377
-5.82395
-5.82426
-5.8247
-5.82527
-5.82601
-5.82684
-5.82777
-5.82873
-5.82964
-5.83043
-5.83111
-5.8316
-5.83183
-5.92978
-5.92959
-5.92926
-5.92881
-5.92825
-5.92765
-5.92707
-5.92652
-5.92603
-5.9256
-5.92527
-5.92505
-5.92492
-5.92486
-5.92485
-5.92488
-5.92494
-5.92504
-5.9252
-5.92544
-5.92577
-5.92621
-5.92675
-5.92736
-5.92799
-5.9286
-5.92914
-5.92959
-5.92992
-5.93009
-6.02839
-6.02828
-6.02808
-6.02778
-6.02741
-6.02703
-6.02666
-6.02634
-6.02605
-6.02584
-6.02571
-6.02567
-6.02568
-6.0257
-6.02572
-6.02573
-6.02574
-6.02576
-6.0258
-6.02589
-6.02604
-6.02628
-6.02659
-6.02695
-6.02734
-6.02771
-6.02805
-6.02834
-6.02856
-6.02867
-6.12723
-6.12717
-6.12704
-6.12684
-6.12662
-6.1264
-6.1262
-6.12603
-6.12591
-6.12585
-6.12588
-6.12596
-6.12607
-6.12615
-6.12618
-6.12618
-6.12615
-6.12611
-6.12606
-6.12604
-6.12607
-6.12616
-6.1263
-6.12648
-6.12668
-6.12689
-6.12708
-6.12726
-6.12739
-6.12746
-6.22615
-6.22611
-6.22604
-6.22593
-6.22583
-6.22573
-6.22565
-6.2256
-6.22559
-6.22565
-6.22577
-6.22593
-6.22608
-6.22618
-6.22622
-6.22621
-6.22616
-6.22607
-6.22597
-6.22589
-6.22584
-6.22583
-6.22585
-6.22591
-6.22599
-6.22608
-6.22617
-6.22626
-6.22632
-6.22636
-6.32509
-6.32508
-6.32505
-6.32503
-6.325
-6.32498
-6.32498
-6.32501
-6.32509
-6.32523
-6.3254
-6.32558
-6.32574
-6.32585
-6.3259
-6.32589
-6.32583
-6.32572
-6.3256
-6.32548
-6.32538
-6.32531
-6.32526
-6.32524
-6.32523
-6.32523
-6.32525
-6.32527
-6.3253
-6.32531
-6.42403
-6.42405
-6.42407
-6.42409
-6.42411
-6.42414
-6.4242
-6.42431
-6.42446
-6.42462
-6.4248
-6.42497
-6.42511
-6.42523
-6.42529
-6.42529
-6.42523
-6.42512
-6.42499
-6.42486
-6.42473
-6.42462
-6.42453
-6.42445
-6.42438
-6.42432
-6.42428
-6.42426
-6.42425
-6.42424
-6.52295
-6.52298
-6.52301
-6.52306
-6.52313
-6.52322
-6.52335
-6.52352
-6.52369
-6.52386
-6.52401
-6.52415
-6.52428
-6.52438
-6.52445
-6.52445
-6.5244
-6.52431
-6.5242
-6.52406
-6.52393
-6.52379
-6.52366
-6.52353
-6.52342
-6.52331
-6.52323
-6.52317
-6.52313
-6.5231
-6.62179
-6.62181
-6.62186
-6.62194
-6.62206
-6.62222
-6.6224
-6.62259
-6.62276
-6.6229
-6.62303
-6.62314
-6.62325
-6.62334
-6.6234
-6.62341
-6.62338
-6.62331
-6.62322
-6.6231
-6.62296
-6.62281
-6.62264
-6.62248
-6.62233
-6.62219
-6.62208
-6.62199
-6.62193
-6.6219
-6.72054
-6.72057
-6.72064
-6.72076
-6.72092
-6.7211
-6.72129
-6.72147
-6.72162
-6.72174
-6.72186
-6.72197
-6.72207
-6.72214
-6.72219
-6.7222
-6.72218
-6.72213
-6.72206
-6.72195
-6.72182
-6.72165
-6.72147
-6.72129
-6.72112
-6.72096
-6.72083
-6.72074
-6.72068
-6.72065
-6.81924
-6.81928
-6.81937
-6.81949
-6.81965
-6.81982
-6.81999
-6.82015
-6.82029
-6.82043
-6.82055
-6.82066
-6.82074
-6.82081
-6.82084
-6.82085
-6.82084
-6.8208
-6.82074
-6.82064
-6.82051
-6.82034
-6.82016
-6.81997
-6.8198
-6.81965
-6.81953
-6.81944
-6.81938
-6.81935
-6.91789
-6.91794
-6.91801
-6.91811
-6.91824
-6.91839
-6.91855
-6.9187
-6.91885
-6.91899
-6.91912
-6.91923
-6.91931
-6.91936
-6.91938
-6.91939
-6.91938
-6.91935
-6.91929
-6.91919
-6.91906
-6.91891
-6.91874
-6.91857
-6.91841
-6.91827
-6.91816
-6.91807
-6.91802
-6.91798
-7.01645
-7.01648
-7.01652
-7.0166
-7.01671
-7.01685
-7.01701
-7.01718
-7.01733
-7.01748
-7.0176
-7.0177
-7.01777
-7.01782
-7.01784
-7.01785
-7.01784
-7.01781
-7.01774
-7.01765
-7.01752
-7.01738
-7.01722
-7.01707
-7.01693
-7.0168
-7.01669
-7.01661
-7.01655
-7.01651
-7.1149
-7.11491
-7.11495
-7.11502
-7.11513
-7.11527
-7.11543
-7.11559
-7.11575
-7.11589
-7.11601
-7.1161
-7.11617
-7.11622
-7.11625
-7.11625
-7.11624
-7.1162
-7.11612
-7.11602
-7.1159
-7.11576
-7.11561
-7.11547
-7.11534
-7.11522
-7.11512
-7.11503
-7.11497
-7.11494
-7.21329
-7.2133
-7.21334
-7.21342
-7.21353
-7.21366
-7.21381
-7.21396
-7.21411
-7.21425
-7.21437
-7.21446
-7.21453
-7.21458
-7.21461
-7.21461
-7.21459
-7.21453
-7.21444
-7.21433
-7.21421
-7.21407
-7.21393
-7.21379
-7.21367
-7.21356
-7.21346
-7.21339
-7.21333
-7.21331
-7.31166
-7.31168
-7.31173
-7.31181
-7.31191
-7.31203
-7.31215
-7.31228
-7.31242
-7.31256
-7.31268
-7.31278
-7.31286
-7.31292
-7.31294
-7.31293
-7.31289
-7.31282
-7.31272
-7.3126
-7.31247
-7.31234
-7.3122
-7.31208
-7.31196
-7.31186
-7.31177
-7.3117
-7.31166
-7.31164
-7.41
-7.41003
-7.41008
-7.41016
-7.41024
-7.41033
-7.41044
-7.41055
-7.41068
-7.41081
-7.41094
-7.41105
-7.41113
-7.41118
-7.41119
-7.41117
-7.41112
-7.41104
-7.41094
-7.41082
-7.4107
-7.41058
-7.41046
-7.41034
-7.41023
-7.41014
-7.41006
-7.41
-7.40996
-7.40994
-7.5083
-7.50832
-7.50838
-7.50844
-7.50851
-7.50859
-7.50868
-7.50878
-7.5089
-7.50902
-7.50914
-7.50924
-7.50931
-7.50935
-7.50936
-7.50933
-7.50927
-7.50919
-7.5091
-7.50899
-7.50888
-7.50877
-7.50867
-7.50857
-7.50847
-7.50839
-7.50831
-7.50826
-7.50822
-7.5082
-7.60656
-7.60658
-7.60663
-7.60669
-7.60675
-7.60681
-7.60689
-7.60699
-7.60709
-7.60719
-7.60729
-7.60737
-7.60742
-7.60745
-7.60744
-7.60741
-7.60736
-7.60728
-7.6072
-7.60711
-7.60702
-7.60693
-7.60683
-7.60675
-7.60666
-7.60658
-7.60652
-7.60647
-7.60643
-7.60641
-7.70479
-7.70482
-7.70486
-7.7049
-7.70495
-7.70501
-7.70509
-7.70517
-7.70525
-7.70533
-7.7054
-7.70545
-7.70548
-7.70549
-7.70548
-7.70545
-7.7054
-7.70535
-7.70528
-7.7052
-7.70512
-7.70504
-7.70496
-7.70488
-7.70481
-7.70474
-7.70468
-7.70463
-7.7046
-7.70458
-7.80299
-7.80302
-7.80304
-7.80307
-7.80312
-7.80317
-7.80324
-7.8033
-7.80336
-7.80341
-7.80345
-7.80348
-7.8035
-7.8035
-7.80349
-7.80347
-7.80343
-7.80339
-7.80333
-7.80327
-7.8032
-7.80313
-7.80306
-7.80299
-7.80292
-7.80285
-7.8028
-7.80276
-7.80273
-7.80271
-7.90113
-7.90114
-7.90116
-7.90118
-7.90122
-7.90126
-7.90131
-7.90136
-7.9014
-7.90143
-7.90145
-7.90147
-7.90147
-7.90147
-7.90147
-7.90145
-7.90143
-7.90139
-7.90135
-7.9013
-7.90124
-7.90118
-7.90112
-7.90105
-7.90099
-7.90093
-7.90088
-7.90085
-7.90082
-7.90081
-7.99918
-7.99919
-7.9992
-7.99922
-7.99925
-7.99929
-7.99933
-7.99936
-7.99938
-7.99939
-7.9994
-7.99941
-7.99941
-7.99941
-7.9994
-7.99939
-7.99938
-7.99935
-7.99932
-7.99928
-7.99923
-7.99918
-7.99913
-7.99907
-7.99902
-7.99897
-7.99893
-7.9989
-7.99887
-7.99886
-8.09718
-8.09718
-8.09719
-8.09722
-8.09725
-8.09727
-8.0973
-8.09732
-8.09733
-8.09733
-8.09733
-8.09733
-8.09733
-8.09732
-8.09731
-8.0973
-8.09729
-8.09727
-8.09725
-8.09721
-8.09718
-8.09713
-8.09709
-8.09705
-8.097
-8.09697
-8.09693
-8.09691
-8.09689
-8.09688
-8.19514
-8.19515
-8.19517
-8.19519
-8.19521
-8.19524
-8.19525
-8.19526
-8.19526
-8.19526
-8.19526
-8.19525
-8.19524
-8.19523
-8.19522
-8.1952
-8.19519
-8.19517
-8.19514
-8.19512
-8.19509
-8.19506
-8.19502
-8.19499
-8.19496
-8.19493
-8.19491
-8.19489
-8.19488
-8.19487
-8.29311
-8.29312
-8.29314
-8.29315
-8.29317
-8.29318
-8.29319
-8.29319
-8.29319
-8.29318
-8.29317
-8.29316
-8.29315
-8.29313
-8.29312
-8.2931
-8.29308
-8.29306
-8.29304
-8.29301
-8.29299
-8.29297
-8.29294
-8.29292
-8.2929
-8.29288
-8.29286
-8.29285
-8.29284
-8.29283
-8.39106
-8.39108
-8.39109
-8.3911
-8.3911
-8.3911
-8.3911
-8.39109
-8.39108
-8.39107
-8.39106
-8.39105
-8.39104
-8.39102
-8.391
-8.39099
-8.39097
-8.39095
-8.39093
-8.39091
-8.39089
-8.39087
-8.39085
-8.39084
-8.39082
-8.3908
-8.39079
-8.39078
-8.39077
-8.39077
-8.48899
-8.48901
-8.48901
-8.489
-8.489
-8.48898
-8.48897
-8.48896
-8.48894
-8.48893
-8.48892
-8.48891
-8.48889
-8.48888
-8.48887
-8.48885
-8.48884
-8.48882
-8.48881
-8.48879
-8.48878
-8.48876
-8.48875
-8.48873
-8.48872
-8.48871
-8.4887
-8.48869
-8.48868
-8.48867
-8.58688
-8.58689
-8.58688
-8.58686
-8.58685
-8.58683
-8.58681
-8.58679
-8.58677
-8.58676
-8.58674
-8.58673
-8.58673
-8.58672
-8.58671
-8.5867
-8.58669
-8.58668
-8.58667
-8.58666
-8.58665
-8.58663
-8.58662
-8.58661
-8.58659
-8.58658
-8.58657
-8.58656
-8.58655
-8.58654
-8.68471
-8.68471
-8.6847
-8.68468
-8.68466
-8.68464
-8.68462
-8.6846
-8.68458
-8.68457
-8.68456
-8.68455
-8.68455
-8.68454
-8.68454
-8.68453
-8.68453
-8.68452
-8.68451
-8.6845
-8.68449
-8.68448
-8.68447
-8.68445
-8.68444
-8.68443
-8.68442
-8.6844
-8.6844
-8.68439
-8.78251
-8.7825
-8.78249
-8.78247
-8.78245
-8.78244
-8.78242
-8.78241
-8.78239
-8.78239
-8.78238
-8.78238
-8.78237
-8.78237
-8.78237
-8.78236
-8.78236
-8.78235
-8.78234
-8.78233
-8.78232
-8.78231
-8.7823
-8.78228
-8.78227
-8.78226
-8.78224
-8.78223
-8.78223
-8.78222
-8.88028
-8.88027
-8.88026
-8.88025
-8.88024
-8.88024
-8.88023
-8.88023
-8.88022
-8.88022
-8.88022
-8.88022
-8.88022
-8.88022
-8.88021
-8.88021
-8.8802
-8.88019
-8.88018
-8.88017
-8.88016
-8.88014
-8.88013
-8.88011
-8.8801
-8.88008
-8.88007
-8.88006
-8.88006
-8.88006
-8.97806
-8.97805
-8.97805
-8.97805
-8.97805
-8.97805
-8.97806
-8.97806
-8.97807
-8.97807
-8.97808
-8.97808
-8.97808
-8.97808
-8.97808
-8.97807
-8.97806
-8.97805
-8.97804
-8.97802
-8.97801
-8.97799
-8.97797
-8.97796
-8.97794
-8.97793
-8.97792
-8.97791
-8.9779
-8.9779
-9.07586
-9.07586
-9.07586
-9.07587
-9.07588
-9.07589
-9.0759
-9.07592
-9.07593
-9.07594
-9.07595
-9.07596
-9.07596
-9.07596
-9.07596
-9.07595
-9.07594
-9.07593
-9.07591
-9.07589
-9.07587
-9.07586
-9.07584
-9.07582
-9.0758
-9.07579
-9.07578
-9.07577
-9.07577
-9.07577
-9.17369
-9.17369
-9.1737
-9.17371
-9.17372
-9.17374
-9.17376
-9.17378
-9.1738
-9.17381
-9.17383
-9.17383
-9.17384
-9.17384
-9.17384
-9.17383
-9.17382
-9.17381
-9.17379
-9.17378
-9.17376
-9.17374
-9.17372
-9.1737
-9.17369
-9.17367
-9.17366
-9.17366
-9.17365
-9.17365
-9.27155
-9.27155
-9.27156
-9.27157
-9.27159
-9.27161
-9.27163
-9.27165
-9.27167
-9.27169
-9.2717
-9.27171
-9.27172
-9.27172
-9.27172
-9.27172
-9.27171
-9.2717
-9.27168
-9.27167
-9.27165
-9.27163
-9.27161
-9.2716
-9.27158
-9.27157
-9.27156
-9.27155
-9.27155
-9.27155
-9.36943
-9.36943
-9.36944
-9.36945
-9.36947
-9.36949
-9.36951
-9.36952
-9.36954
-9.36956
-9.36957
-9.36958
-9.36959
-9.3696
-9.3696
-9.36959
-9.36959
-9.36958
-9.36957
-9.36956
-9.36954
-9.36953
-9.36951
-9.3695
-9.36948
-9.36947
-9.36946
-9.36946
-9.36945
-9.36945
-9.46733
-9.46733
-9.46734
-9.46735
-9.46736
-9.46737
-9.46739
-9.4674
-9.46742
-9.46743
-9.46744
-9.46745
-9.46746
-9.46746
-9.46747
-9.46747
-9.46746
-9.46746
-9.46745
-9.46744
-9.46743
-9.46742
-9.46741
-9.4674
-9.46738
-9.46738
-9.46737
-9.46736
-9.46736
-9.46736
-9.56523
-9.56523
-9.56524
-9.56524
-9.56525
-9.56526
-9.56527
-9.56528
-9.56529
-9.5653
-9.56531
-9.56532
-9.56533
-9.56533
-9.56533
-9.56533
-9.56533
-9.56533
-9.56532
-9.56532
-9.56531
-9.5653
-9.5653
-9.56529
-9.56528
-9.56527
-9.56527
-9.56526
-9.56526
-9.56526
-9.66314
-9.66314
-9.66314
-9.66314
-9.66315
-9.66315
-9.66316
-9.66317
-9.66317
-9.66318
-9.66318
-9.66319
-9.66319
-9.6632
-9.6632
-9.6632
-9.6632
-9.6632
-9.6632
-9.66319
-9.66319
-9.66318
-9.66318
-9.66317
-9.66317
-9.66317
-9.66316
-9.66316
-9.66316
-9.66316
-9.76104
-9.76104
-9.76105
-9.76105
-9.76105
-9.76105
-9.76105
-9.76105
-9.76106
-9.76106
-9.76106
-9.76106
-9.76106
-9.76106
-9.76107
-9.76107
-9.76107
-9.76107
-9.76107
-9.76106
-9.76106
-9.76106
-9.76106
-9.76106
-9.76106
-9.76106
-9.76105
-9.76105
-9.76105
-9.76105
4852.3
4852.31
4852.3
4852.3
4852.3
4852.3
4852.3
4852.3
4852.3
4852.29
4852.29
4852.29
4852.29
4852.29
4852.29
4852.29
4852.29
4852.29
4852.29
4852.3
4852.3
4852.3
4852.3
4852.3
4852.3
4852.3
4852.3
4852.3
4852.31
4852.31
4754.2
4754.2
4754.2
4754.2
4754.2
4754.2
4754.2
4754.2
4754.2
4754.2
4754.19
4754.19
4754.19
4754.19
4754.19
4754.19
4754.19
4754.19
4754.19
4754.19
4754.19
4754.19
4754.2
4754.2
4754.2
4754.2
4754.2
4754.2
4754.2
4754.19
4656.09
4656.09
4656.09
4656.1
4656.1
4656.1
4656.1
4656.1
4656.1
4656.1
4656.1
4656.1
4656.09
4656.09
4656.09
4656.09
4656.09
4656.09
4656.09
4656.09
4656.09
4656.09
4656.1
4656.1
4656.1
4656.1
4656.1
4656.09
4656.1
4656.1
4557.99
4557.99
4557.99
4557.99
4557.99
4557.99
4558
4558
4558
4558
4558
4558
4558
4558
4557.99
4557.99
4557.99
4557.99
4557.99
4557.99
4558
4558
4558
4558
4558
4558
4558
4558
4557.99
4557.99
4459.89
4459.89
4459.89
4459.89
4459.89
4459.89
4459.9
4459.9
4459.9
4459.9
4459.9
4459.9
4459.9
4459.9
4459.9
4459.9
4459.9
4459.9
4459.9
4459.9
4459.9
4459.9
4459.9
4459.9
4459.9
4459.9
4459.9
4459.9
4459.89
4459.9
4361.79
4361.79
4361.79
4361.79
4361.79
4361.79
4361.79
4361.8
4361.8
4361.8
4361.8
4361.8
4361.8
4361.8
4361.8
4361.8
4361.8
4361.8
4361.8
4361.8
4361.8
4361.8
4361.8
4361.8
4361.8
4361.8
4361.8
4361.8
4361.8
4361.8
4263.69
4263.69
4263.69
4263.69
4263.69
4263.69
4263.69
4263.69
4263.7
4263.7
4263.7
4263.7
4263.7
4263.7
4263.7
4263.7
4263.7
4263.7
4263.7
4263.7
4263.7
4263.7
4263.7
4263.7
4263.7
4263.7
4263.7
4263.7
4263.7
4263.7
4165.6
4165.6
4165.6
4165.6
4165.6
4165.6
4165.6
4165.6
4165.59
4165.6
4165.6
4165.6
4165.6
4165.6
4165.6
4165.6
4165.6
4165.6
4165.6
4165.6
4165.6
4165.6
4165.6
4165.6
4165.6
4165.6
4165.6
4165.6
4165.6
4165.6
4067.5
4067.5
4067.5
4067.5
4067.5
4067.5
4067.5
4067.5
4067.5
4067.5
4067.5
4067.5
4067.5
4067.5
4067.5
4067.5
4067.5
4067.5
4067.5
4067.5
4067.5
4067.5
4067.5
4067.5
4067.5
4067.5
4067.5
4067.5
4067.5
4067.5
3969.41
3969.41
3969.41
3969.4
3969.4
3969.4
3969.4
3969.4
3969.4
3969.4
3969.4
3969.4
3969.4
3969.4
3969.4
3969.4
3969.4
3969.4
3969.4
3969.4
3969.4
3969.4
3969.4
3969.4
3969.4
3969.4
3969.4
3969.4
3969.4
3969.4
3871.31
3871.31
3871.31
3871.3
3871.3
3871.3
3871.3
3871.3
3871.3
3871.3
3871.3
3871.3
3871.3
3871.3
3871.3
3871.3
3871.3
3871.3
3871.3
3871.3
3871.3
3871.3
3871.3
3871.3
3871.3
3871.3
3871.3
3871.3
3871.3
3871.3
3773.2
3773.2
3773.2
3773.2
3773.2
3773.2
3773.2
3773.2
3773.2
3773.2
3773.2
3773.2
3773.2
3773.2
3773.2
3773.2
3773.2
3773.2
3773.2
3773.2
3773.2
3773.2
3773.2
3773.2
3773.2
3773.2
3773.2
3773.2
3773.2
3773.2
3675.1
3675.1
3675.1
3675.1
3675.1
3675.1
3675.1
3675.1
3675.1
3675.1
3675.1
3675.1
3675.1
3675.1
3675.1
3675.1
3675.1
3675.1
3675.1
3675.1
3675.1
3675.1
3675.11
3675.1
3675.1
3675.1
3675.1
3675.1
3675.1
3675.1
3577
3577
3577
3577
3577
3577
3577
3577
3577
3577
3577
3577
3577
3577
3577
3577
3577
3577
3577
3577.01
3577.01
3577.01
3577.01
3577.01
3577.01
3577.01
3577.01
3577
3577
3577
3478.9
3478.9
3478.9
3478.9
3478.9
3478.9
3478.9
3478.91
3478.91
3478.91
3478.91
3478.91
3478.91
3478.91
3478.91
3478.91
3478.91
3478.9
3478.9
3478.91
3478.91
3478.91
3478.91
3478.91
3478.91
3478.91
3478.91
3478.91
3478.91
3478.91
3380.8
3380.8
3380.8
3380.8
3380.8
3380.8
3380.81
3380.81
3380.81
3380.81
3380.81
3380.81
3380.81
3380.81
3380.81
3380.81
3380.81
3380.8
3380.8
3380.8
3380.81
3380.81
3380.81
3380.81
3380.81
3380.81
3380.81
3380.81
3380.81
3380.81
3282.7
3282.7
3282.7
3282.7
3282.7
3282.71
3282.71
3282.71
3282.71
3282.71
3282.71
3282.71
3282.71
3282.71
3282.71
3282.71
3282.71
3282.7
3282.7
3282.7
3282.71
3282.71
3282.71
3282.71
3282.71
3282.71
3282.71
3282.71
3282.71
3282.71
3184.61
3184.61
3184.61
3184.61
3184.61
3184.61
3184.61
3184.61
3184.61
3184.61
3184.61
3184.61
3184.61
3184.61
3184.61
3184.61
3184.61
3184.61
3184.61
3184.61
3184.61
3184.61
3184.6
3184.6
3184.61
3184.61
3184.61
3184.61
3184.6
3184.6
3086.51
3086.51
3086.51
3086.51
3086.51
3086.51
3086.51
3086.51
3086.51
3086.51
3086.51
3086.51
3086.51
3086.51
3086.51
3086.51
3086.51
3086.51
3086.51
3086.51
3086.51
3086.51
3086.51
3086.51
3086.51
3086.51
3086.51
3086.51
3086.51
3086.51
2988.41
2988.41
2988.41
2988.41
2988.41
2988.41
2988.41
2988.41
2988.41
2988.41
2988.41
2988.4
2988.4
2988.4
2988.4
2988.4
2988.4
2988.41
2988.41
2988.41
2988.41
2988.41
2988.41
2988.41
2988.41
2988.41
2988.41
2988.41
2988.41
2988.41
2890.31
2890.31
2890.31
2890.31
2890.31
2890.31
2890.31