/*--------------------------------*- C++ -*----------------------------------*\
| =========                 |                                                 |
| \\      /  F ield         | OpenFOAM: The Open Source CFD Toolbox           |
|  \\    /   O peration     | Version:  2312                                  |
|   \\  /    A nd           | Website:  www.openfoam.com                      |
|    \\/     M anipulation  |                                                 |
\*---------------------------------------------------------------------------*/
FoamFile
{
    version     2.0;
    format      ascii;
    arch        "LSB;label=32;scalar=64";
    class       volScalarField;
    location    "1.0996775";
    object      p_rgh;
}
// * * * * * * * * * * * * * * * * * * * * * * * * * * * * * * * * * * * * * //

dimensions      [1 -1 -2 0 0 0 0];

internalField   nonuniform List<scalar> 
90000
(
4901.35
4901.36
4901.36
4901.35
4901.35
4901.35
4901.35
4901.35
4901.35
4901.34
4901.34
4901.34
4901.34
4901.34
4901.34
4901.34
4901.34
4901.35
4901.35
4901.35
4901.35
4901.35
4901.35
4901.35
4901.35
4901.35
4901.35
4901.35
4901.35
4901.35
4901.36
4901.36
4901.36
4901.36
4901.35
4901.35
4901.35
4901.35
4901.35
4901.34
4901.34
4901.34
4901.34
4901.34
4901.34
4901.35
4901.35
4901.35
4901.35
4901.35
4901.35
4901.35
4901.35
4901.35
4901.35
4901.35
4901.35
4901.35
4901.34
4901.29
4901.35
4901.36
4901.36
4901.35
4901.35
4901.35
4901.35
4901.35
4901.35
4901.35
4901.34
4901.34
4901.34
4901.34
4901.34
4901.34
4901.34
4901.34
4901.34
4901.34
4901.34
4901.34
4901.35
4901.35
4901.35
4901.35
4901.36
4901.38
4901.42
4901.34
4901.35
4901.35
4901.35
4901.35
4901.35
4901.35
4901.35
4901.35
4901.35
4901.35
4901.35
4901.34
4901.34
4901.34
4901.34
4901.33
4901.33
4901.33
4901.34
4901.34
4901.34
4901.34
4901.35
4901.35
4901.35
4901.35
4901.34
4901.33
4901.38
4901.35
4901.35
4901.35
4901.35
4901.35
4901.35
4901.35
4901.35
4901.35
4901.35
4901.35
4901.35
4901.35
4901.34
4901.34
4901.34
4901.33
4901.33
4901.33
4901.33
4901.34
4901.34
4901.35
4901.35
4901.35
4901.35
4901.35
4901.36
4901.34
4901.35
4901.34
4901.34
4901.33
4901.34
4901.34
4901.34
4901.35
4901.35
4901.36
4901.36
4901.36
4901.36
4901.36
4901.35
4901.35
4901.34
4901.34
4901.34
4901.34
4901.34
4901.34
4901.35
4901.35
4901.35
4901.35
4901.35
4901.35
4901.35
4901.34
4901.34
4901.34
4901.34
4901.32
4901.32
4901.33
4901.33
4901.34
4901.35
4901.35
4901.36
4901.36
4901.36
4901.36
4901.36
4901.36
4901.35
4901.35
4901.35
4901.34
4901.35
4901.35
4901.35
4901.36
4901.36
4901.36
4901.36
4901.35
4901.35
4901.35
4901.34
4901.34
4901.33
4901.31
4901.32
4901.32
4901.33
4901.33
4901.34
4901.35
4901.35
4901.36
4901.36
4901.36
4901.36
4901.36
4901.36
4901.36
4901.36
4901.35
4901.35
4901.35
4901.35
4901.36
4901.36
4901.36
4901.36
4901.36
4901.35
4901.35
4901.35
4901.36
4901.32
4901.31
4901.32
4901.32
4901.33
4901.33
4901.33
4901.34
4901.34
4901.34
4901.35
4901.35
4901.36
4901.36
4901.36
4901.36
4901.36
4901.36
4901.35
4901.35
4901.35
4901.35
4901.35
4901.35
4901.35
4901.35
4901.35
4901.35
4901.36
4901.36
4901.33
4901.33
4901.34
4901.34
4901.34
4901.34
4901.34
4901.34
4901.33
4901.33
4901.34
4901.34
4901.35
4901.36
4901.36
4901.36
4901.36
4901.36
4901.35
4901.35
4901.34
4901.34
4901.34
4901.33
4901.33
4901.33
4901.33
4901.34
4901.35
4901.35
4901.35
4901.37
4901.37
4901.37
4901.37
4901.36
4901.35
4901.34
4901.33
4901.33
4901.33
4901.34
4901.34
4901.35
4901.36
4901.36
4901.36
4901.35
4901.35
4901.34
4901.34
4901.33
4901.32
4901.32
4901.32
4901.32
4901.33
4901.33
4901.33
4901.33
4901.37
4901.41
4901.41
4901.4
4901.39
4901.37
4901.36
4901.34
4901.33
4901.33
4901.33
4901.33
4901.33
4901.34
4901.34
4901.34
4901.35
4901.35
4901.35
4901.34
4901.34
4901.33
4901.32
4901.32
4901.32
4901.32
4901.33
4901.33
4901.33
4901.33
4901.4
4901.43
4901.42
4901.4
4901.39
4901.37
4901.35
4901.34
4901.33
4901.32
4901.32
4901.32
4901.32
4901.32
4901.32
4901.33
4901.33
4901.34
4901.34
4901.34
4901.34
4901.34
4901.33
4901.33
4901.33
4901.33
4901.33
4901.33
4901.32
4901.33
4901.4
4901.4
4901.39
4901.37
4901.35
4901.34
4901.33
4901.32
4901.32
4901.32
4901.32
4901.31
4901.31
4901.31
4901.31
4901.32
4901.33
4901.34
4901.35
4901.35
4901.35
4901.35
4901.34
4901.34
4901.34
4901.33
4901.32
4901.31
4901.31
4901.32
4901.38
4901.33
4901.32
4901.31
4901.31
4901.31
4901.31
4901.32
4901.33
4901.33
4901.33
4901.33
4901.32
4901.32
4901.32
4901.33
4901.34
4901.35
4901.36
4901.36
4901.36
4901.36
4901.35
4901.35
4901.34
4901.33
4901.31
4901.31
4901.3
4901.3
4901.33
4901.27
4901.27
4901.28
4901.29
4901.3
4901.32
4901.34
4901.35
4901.36
4901.36
4901.35
4901.34
4901.34
4901.34
4901.35
4901.35
4901.36
4901.36
4901.36
4901.36
4901.36
4901.36
4901.36
4901.36
4901.35
4901.34
4901.34
4901.33
4901.34
4901.29
4901.24
4901.26
4901.28
4901.3
4901.32
4901.35
4901.36
4901.37
4901.37
4901.36
4901.35
4901.35
4901.34
4901.35
4901.35
4901.35
4901.34
4901.34
4901.34
4901.35
4901.36
4901.37
4901.38
4901.38
4901.38
4901.38
4901.39
4901.39
4901.42
4901.29
4901.26
4901.28
4901.3
4901.32
4901.34
4901.35
4901.35
4901.35
4901.34
4901.34
4901.34
4901.34
4901.34
4901.35
4901.34
4901.33
4901.32
4901.32
4901.32
4901.34
4901.35
4901.36
4901.37
4901.37
4901.37
4901.38
4901.39
4901.41
4901.4
4901.3
4901.29
4901.31
4901.32
4901.33
4901.33
4901.33
4901.33
4901.32
4901.32
4901.33
4901.34
4901.35
4901.36
4901.36
4901.34
4901.33
4901.32
4901.31
4901.32
4901.33
4901.34
4901.34
4901.33
4901.33
4901.33
4901.33
4901.33
4901.32
4901.28
4901.32
4901.31
4901.31
4901.32
4901.33
4901.33
4901.33
4901.33
4901.33
4901.34
4901.36
4901.37
4901.38
4901.37
4901.36
4901.34
4901.32
4901.31
4901.32
4901.33
4901.33
4901.33
4901.32
4901.3
4901.3
4901.3
4901.3
4901.28
4901.24
4901.23
4901.33
4901.32
4901.33
4901.34
4901.35
4901.36
4901.36
4901.36
4901.37
4901.38
4901.38
4901.38
4901.37
4901.35
4901.33
4901.31
4901.31
4901.32
4901.33
4901.34
4901.33
4901.32
4901.31
4901.31
4901.33
4901.33
4901.32
4901.3
4901.27
4901.32
4901.34
4901.34
4901.36
4901.37
4901.39
4901.39
4901.39
4901.39
4901.39
4901.38
4901.37
4901.36
4901.33
4901.31
4901.3
4901.31
4901.33
4901.36
4901.37
4901.36
4901.34
4901.33
4901.33
4901.35
4901.37
4901.36
4901.34
4901.33
4901.34
4901.37
4901.36
4901.37
4901.39
4901.4
4901.4
4901.4
4901.4
4901.39
4901.38
4901.37
4901.35
4901.33
4901.31
4901.31
4901.33
4901.36
4901.39
4901.4
4901.39
4901.37
4901.35
4901.35
4901.37
4901.39
4901.38
4901.36
4901.34
4901.34
4901.34
4901.33
4901.37
4901.38
4901.38
4901.38
4901.38
4901.38
4901.38
4901.38
4901.38
4901.37
4901.35
4901.34
4901.33
4901.34
4901.37
4901.39
4901.4
4901.39
4901.36
4901.35
4901.36
4901.39
4901.42
4901.42
4901.39
4901.37
4901.36
4901.36
4901.34
4901.35
4901.37
4901.36
4901.36
4901.35
4901.36
4901.36
4901.37
4901.38
4901.38
4901.37
4901.35
4901.33
4901.33
4901.34
4901.35
4901.35
4901.34
4901.31
4901.31
4901.33
4901.38
4901.42
4901.43
4901.41
4901.39
4901.39
4901.4
4901.39
4901.41
4901.45
4901.36
4901.33
4901.33
4901.33
4901.33
4901.34
4901.36
4901.37
4901.36
4901.34
4901.32
4901.31
4901.32
4901.33
4901.33
4901.32
4901.3
4901.3
4901.32
4901.37
4901.41
4901.41
4901.39
4901.36
4901.36
4901.38
4901.38
4901.4
4901.46
4901.4
4901.35
4901.31
4901.32
4901.31
4901.31
4901.32
4901.34
4901.34
4901.34
4901.33
4901.33
4901.34
4901.36
4901.37
4901.36
4901.35
4901.34
4901.35
4901.38
4901.4
4901.39
4901.36
4901.32
4901.31
4901.34
4901.35
4901.35
4901.39
4901.39
4901.29
4901.34
4901.31
4901.31
4901.3
4901.31
4901.32
4901.33
4901.33
4901.33
4901.34
4901.36
4901.38
4901.39
4901.38
4901.36
4901.35
4901.35
4901.36
4901.37
4901.35
4901.32
4901.29
4901.3
4901.33
4901.36
4901.38
4901.39
4901.38
4901.31
4901.36
4901.35
4901.33
4901.33
4901.32
4901.32
4901.32
4901.31
4901.3
4901.3
4901.31
4901.33
4901.34
4901.34
4901.32
4901.3
4901.3
4901.31
4901.32
4901.3
4901.27
4901.25
4901.27
4901.32
4901.35
4901.36
4901.39
4901.4
4901.33
4901.34
4901.44
4901.37
4901.37
4901.36
4901.34
4901.32
4901.29
4901.27
4901.25
4901.26
4901.27
4901.29
4901.31
4901.31
4901.3
4901.31
4901.32
4901.32
4901.31
4901.28
4901.27
4901.27
4901.29
4901.32
4901.34
4901.34
4901.36
4901.36
4901.33
4901.43
4901.4
4901.41
4901.4
4901.38
4901.34
4901.31
4901.28
4901.26
4901.26
4901.28
4901.31
4901.33
4901.34
4901.34
4901.34
4901.35
4901.35
4901.34
4901.31
4901.29
4901.31
4901.33
4901.3
4901.31
4901.34
4901.35
4901.33
4901.36
4901.42
4901.43
4901.39
4901.43
4901.41
4901.39
4901.37
4901.35
4901.34
4901.33
4901.32
4901.33
4901.33
4901.32
4901.31
4901.31
4901.31
4901.31
4901.3
4901.29
4901.3
4901.3
4901.32
4901.33
4901.29
4901.3
4901.36
4901.35
4901.31
4901.4
4901.46
4901.39
4901.46
4901.46
4901.45
4901.45
4901.44
4901.42
4901.39
4901.36
4901.32
4901.28
4901.26
4901.25
4901.24
4901.25
4901.26
4901.26
4901.25
4901.24
4901.28
4901.28
4901.25
4901.26
4901.27
4901.29
4901.33
4901.32
4901.32
4901.44
4901.44
4901.46
4901.46
4901.5
4901.51
4901.5
4901.48
4901.45
4901.39
4901.34
4901.29
4901.26
4901.25
4901.26
4901.27
4901.27
4901.26
4901.23
4901.21
4901.18
4901.2
4901.19
4901.14
4901.19
4901.28
4901.28
4901.26
4901.32
4901.41
4901.47
4901.48
4901.5
4901.48
4901.56
4901.55
4901.53
4901.51
4901.47
4901.43
4901.39
4901.35
4901.32
4901.31
4901.3
4901.29
4901.25
4901.2
4901.15
4901.17
4901.15
4901.16
4901.19
4901.19
4901.28
4901.38
4901.33
4901.3
4901.46
4901.53
4901.5
4901.52
4901.5
4901.55
4901.62
4901.6
4901.6
4901.58
4901.54
4901.48
4901.42
4901.37
4901.32
4901.29
4901.25
4901.21
4901.16
4901.13
4901.11
4901.19
4901.2
4901.18
4901.26
4901.31
4901.37
4901.41
4901.36
4901.42
4901.6
4901.57
4901.52
4901.53
4901.61
4901.63
4901.7
4901.71
4901.69
4901.63
4901.56
4901.48
4901.41
4901.36
4901.3
4901.24
4901.18
4901.13
4901.1
4901.15
4901.12
4901.18
4901.17
4901.15
4901.24
4901.33
4901.32
4901.36
4901.42
4901.52
4901.62
4901.56
4901.59
4901.67
4901.75
4901.71
4901.82
4901.79
4901.73
4901.67
4901.61
4901.55
4901.49
4901.4
4901.32
4901.24
4901.18
4901.16
4901.09
4901.17
4901.11
4901.11
4901.12
4901.15
4901.24
4901.32
4901.28
4901.38
4901.51
4901.54
4901.56
4901.61
4901.72
4901.79
4901.76
4901.82
4901.95
4901.89
4901.86
4901.82
4901.77
4901.68
4901.56
4901.45
4901.36
4901.28
4901.2
4901.19
4901.04
4901.07
4901.06
4901.02
4901.03
4901.12
4901.17
4901.22
4901.22
4901.38
4901.52
4901.49
4901.6
4901.78
4901.83
4901.82
4901.93
4902.06
4902.12
4902.11
4902.08
4901.99
4901.88
4901.76
4901.63
4901.52
4901.4
4901.27
4901.09
4901.09
4900.99
4900.91
4900.95
4900.9
4900.87
4900.97
4901.07
4901.12
4901.22
4901.38
4901.52
4901.57
4901.74
4901.92
4901.9
4902.01
4902.29
4902.29
4902.4
4902.36
4902.26
4902.16
4902.04
4901.89
4901.7
4901.51
4901.35
4901.25
4901.07
4900.93
4900.97
4900.75
4900.78
4900.82
4900.85
4900.88
4901.06
4901.1
4901.23
4901.37
4901.56
4901.77
4901.82
4902
4902.17
4902.36
4902.44
4902.38
4902.71
4902.64
4902.59
4902.46
4902.24
4901.99
4901.81
4901.63
4901.41
4901.23
4901.14
4900.8
4900.88
4900.74
4900.67
4900.65
4900.77
4900.76
4900.94
4901.04
4901.21
4901.43
4901.64
4901.92
4901.97
4902.16
4902.54
4902.66
4902.53
4902.55
4903.13
4903.15
4903
4902.73
4902.5
4902.29
4902.08
4901.78
4901.54
4901.21
4901
4900.76
4900.7
4900.54
4900.48
4900.45
4900.62
4900.66
4900.77
4900.95
4901.23
4901.54
4901.65
4901.84
4902.36
4902.59
4902.68
4902.91
4903.17
4903.05
4903.75
4903.63
4903.36
4903.23
4903.05
4902.59
4902.22
4901.9
4901.48
4901.18
4900.76
4900.73
4900.54
4900.21
4900.3
4900.36
4900.35
4900.42
4900.71
4900.96
4901.09
4901.45
4901.97
4902.1
4902.59
4903
4903.12
4903.47
4903.71
4903.49
4904.39
4904.22
4904.16
4903.86
4903.38
4903.02
4902.59
4902.08
4901.46
4901.54
4900.8
4900.38
4900.42
4900.16
4900.06
4900.07
4900.17
4900.39
4900.53
4900.74
4901.27
4901.6
4902.05
4902.61
4902.87
4903.34
4903.89
4904.21
4904.11
4903.91
4905.24
4905.24
4905.02
4904.42
4904.07
4903.71
4902.86
4902.56
4901.6
4901.13
4900.85
4900.36
4900.15
4899.93
4899.61
4899.87
4900.06
4899.98
4900.31
4900.81
4901.14
4901.77
4902.24
4902.91
4903.51
4904.1
4904.54
4904.94
4905.25
4904.6
4906.45
4906.29
4905.96
4905.53
4904.93
4904.41
4903.49
4902.81
4901.98
4901.23
4900.68
4900.17
4899.92
4899.59
4899.51
4899.52
4899.53
4899.98
4900.31
4900.67
4901.25
4902.03
4902.69
4903.55
4904.27
4904.85
4905.59
4905.95
4906.52
4905.86
4907.72
4906.12
4907.13
4906.99
4905.59
4905.14
4904.28
4903.42
4902.31
4901.49
4900.74
4900
4899.79
4899.49
4899.07
4899.08
4899.44
4899.81
4900.08
4900.71
4901.4
4902.43
4903.35
4904.29
4905.14
4905.43
4906.89
4907.09
4906.56
4907.36
4908.92
4910.11
4908.92
4909.58
4907.7
4907.27
4905.33
4904.3
4903.42
4901.48
4900.88
4899
4899.99
4899.02
4896.56
4896.81
4899.59
4899.96
4899.08
4900.8
4901.45
4903.42
4904.28
4905.31
4907.2
4907.64
4909.26
4908.89
4910.14
4908.66
4110.12
4446.87
4061.82
4443.9
4202.22
4387.47
4240.09
4254.08
4356.22
4143.86
4170.28
3977.88
4214.32
4263.57
3896.53
3935.41
4244.43
4223.77
3990.16
4161.69
4142.32
4358.29
4256.82
4245.14
4383.03
4192.99
4446.35
4064.55
4457.48
4110.85
883.446
1787.57
868.685
1722.32
908.539
1343.17
935.086
933.996
1138.68
722.973
1006.91
551.47
1012.89
1063.32
526.494
549.599
1026.66
1018.42
567.241
961.406
722.538
1143.83
937.817
947.636
1333.61
891.704
1730.41
870.325
1797.05
886.672
33.2037
65.1784
29.2621
43.5823
5.95062
5.24808
1.12607
18.4337
1.35201
0.687926
0.616875
1.53198
1.60888
11.0967
0.985137
0.630017
6.04142
4.21425
1.38328
0.579727
0.634072
3.44606
19.5145
1.23104
4.62102
6.29458
43.9689
30.3638
69.4443
31.5894
17.9971
1.23168
13.691
4.07385
2.35832
0.194838
0.615438
0.305725
0.84575
0.196179
0.220688
0.0914441
0.433242
0.549486
0.0799703
0.0762487
0.324023
0.183671
0.0751402
0.232612
0.198241
0.337283
0.370549
0.642253
0.221088
2.63166
4.1425
13.6232
1.23133
17.3933
3.42248
0.658208
2.12011
0.498475
0.153302
0.202499
0.845374
0.0758905
0.0875016
0.16713
0.295308
0.0518147
0.262999
0.0922122
0.0505465
0.0508925
0.106526
0.316357
0.054208
0.318894
0.156008
0.12856
0.0686869
0.864294
0.237809
0.184649
0.497963
2.18016
0.627511
3.35357
0.036105
0.0473172
0.289391
0.0608709
0.0128485
0.0136349
0.0405536
0.0268002
0.0276402
0.0501498
0.0613113
0.0481212
0.0744481
0.105411
0.0570229
0.0581657
0.114027
0.0922839
0.0581649
0.0565823
0.0299053
0.0261148
0.024897
0.0407026
0.0127679
0.0120069
0.0594352
0.2996
0.0506304
0.034712
5.95961e-05
0.00409595
0.0145624
0.0105959
0.0076884
0.0111366
0.0139539
0.0171567
0.025443
0.0285788
0.0246967
0.0390836
0.0594255
0.0655269
0.0649652
0.0639711
0.057793
0.0576225
0.0428699
0.0254493
0.027023
0.024693
0.0168601
0.0136213
0.0107682
0.00720341
0.0100853
0.0151158
0.00409959
-0.000345893
0.00207715
0.0030601
0.00528145
0.0082635
0.00976756
0.0107195
0.0131306
0.0155077
0.0177348
0.0194491
0.0210187
0.0236893
0.024708
0.0278067
0.0481661
0.0515833
0.0272612
0.0234657
0.0230041
0.0208788
0.0195617
0.0175479
0.0152247
0.0128247
0.0103562
0.00963872
0.00821011
0.0049021
0.00287357
0.00176854
0.0039873
0.00454158
0.00557251
0.00720882
0.00877645
0.0103152
0.0121559
0.0139435
0.015547
0.016984
0.0181597
0.0191306
0.0198363
0.0203662
0.0211944
0.0218375
0.0201919
0.0196592
0.0189621
0.0180243
0.016862
0.015355
0.0136781
0.0117982
0.00992332
0.00843199
0.00689219
0.00515197
0.00426384
0.00374625
0.00502389
0.0054321
0.00612582
0.00714776
0.00833441
0.00960502
0.0109187
0.012185
0.0133434
0.0143612
0.0152472
0.0159423
0.0163981
0.0166654
0.0167536
0.0166894
0.0165192
0.0162365
0.0157839
0.0151224
0.0142242
0.0131494
0.0119214
0.0105555
0.00920314
0.0079079
0.00679505
0.00576361
0.00512777
0.0047964
0.00539698
0.00568627
0.00618223
0.0068736
0.0077188
0.00860177
0.00948908
0.0103406
0.0111161
0.0118145
0.0123895
0.0128482
0.0131527
0.0133078
0.0133367
0.0132878
0.0131855
0.0129974
0.0126941
0.0122472
0.0116784
0.0109415
0.01011
0.00917592
0.00822285
0.00731522
0.00652142
0.00584141
0.00535651
0.00512246
0.00526634
0.00546395
0.00578732
0.00623869
0.0068031
0.00739573
0.00797884
0.00852585
0.00902341
0.00945127
0.00977948
0.010004
0.0101341
0.0101946
0.0101959
0.0101684
0.0101149
0.010009
0.00984889
0.00960955
0.00927905
0.00883804
0.00830115
0.00769464
0.00705691
0.00645203
0.00591029
0.00546266
0.00512592
0.00495992
0.00475864
0.00487228
0.00507401
0.0053707
0.00573822
0.00611976
0.00648659
0.00681352
0.00709653
0.00731495
0.00743855
0.00747774
0.00746883
0.00744653
0.00742555
0.00741527
0.00740537
0.00738589
0.00734593
0.0072637
0.00710971
0.00687281
0.00656062
0.0061984
0.00580987
0.00543886
0.00509599
0.00480936
0.00459056
0.00447837
0.00402388
0.00408186
0.00421336
0.00440967
0.00463223
0.0048505
0.00505075
0.00521666
0.00533966
0.00539626
0.00536972
0.00528654
0.00518487
0.0051041
0.00507097
0.00507384
0.00509983
0.00514429
0.00518951
0.00521289
0.00518151
0.00509428
0.0049528
0.00477197
0.00456815
0.00436421
0.00416567
0.00399241
0.00386115
0.00379179
0.00319524
0.00323591
0.00331246
0.00341897
0.00352348
0.00361874
0.00369947
0.00375215
0.00375952
0.0037007
0.0035764
0.0034204
0.00327383
0.0031695
0.00312783
0.00314104
0.00319464
0.00327993
0.00337632
0.00346074
0.00351373
0.00352486
0.0034964
0.00343656
0.00335855
0.0032727
0.00318154
0.00309403
0.0030256
0.0029879
0.00235888
0.00237456
0.00239605
0.00242271
0.00244628
0.00246683
0.00247142
0.00244042
0.00235958
0.0022245
0.00205146
0.00187163
0.00171347
0.00159833
0.00154588
0.00155793
0.00162246
0.00172803
0.00185292
0.00197405
0.0020722
0.00214308
0.00218793
0.00221019
0.0022182
0.00221549
0.00220117
0.00217724
0.002154
0.00213988
0.00151844
0.00150085
0.00148112
0.00146003
0.00143974
0.00140945
0.00134762
0.00124101
0.001095
0.000925278
0.000749034
0.000582125
0.000435641
0.000320862
0.000258518
0.000260951
0.000321627
0.000427932
0.000559325
0.000694339
0.000816476
0.000925186
0.00102038
0.00110142
0.00117076
0.00122756
0.00126858
0.00129247
0.00130485
0.00131159
0.000703129
0.000673155
0.000635928
0.000588289
0.000524802
0.000430954
0.000296742
0.000130553
-4.41598e-05
-0.000210048
-0.000361621
-0.000500452
-0.00062637
-0.000731616
-0.000795715
-0.000802573
-0.000754841
-0.000663971
-0.000545438
-0.000413881
-0.000279639
-0.000144467
-1.00951e-05
0.000117547
0.000234187
0.000335894
0.00041866
0.000480098
0.000521924
0.000546328
-3.78247e-05
-6.06183e-05
-0.000111022
-0.000193126
-0.000312825
-0.000470161
-0.000654028
-0.000841019
-0.00100862
-0.00115121
-0.00127612
-0.00139276
-0.00150151
-0.00159301
-0.00165087
-0.00166296
-0.00163135
-0.0015638
-0.00146752
-0.00134845
-0.0012109
-0.00105766
-0.000894452
-0.000731643
-0.000578798
-0.000442926
-0.000329186
-0.000241438
-0.000181551
-0.000150328
-0.000692554
-0.000717432
-0.000789865
-0.00090767
-0.00106598
-0.0012508
-0.00144125
-0.00161648
-0.00176579
-0.00189428
-0.00201078
-0.00212
-0.00221674
-0.00229212
-0.00233774
-0.00234952
-0.00233063
-0.00228419
-0.00220915
-0.00210337
-0.00196725
-0.00180448
-0.00162445
-0.00144054
-0.00126626
-0.00111182
-0.000984169
-0.000888091
-0.000826214
-0.00079894
-0.00128765
-0.00133188
-0.00141624
-0.00154117
-0.00169761
-0.00187074
-0.00204272
-0.00220125
-0.00234405
-0.00247596
-0.00259857
-0.00270768
-0.00279496
-0.00285531
-0.00288864
-0.00289747
-0.00288511
-0.00285055
-0.00278739
-0.00268937
-0.00255568
-0.00239213
-0.00221022
-0.00202499
-0.00185105
-0.00169931
-0.00157649
-0.00148596
-0.00142865
-0.00140362
-0.00183604
-0.00188512
-0.00195535
-0.00205711
-0.00218839
-0.00234024
-0.00249867
-0.00265428
-0.00280422
-0.00294449
-0.00307163
-0.0031773
-0.00325534
-0.00330566
-0.00333273
-0.00334059
-0.00333039
-0.00329849
-0.00323753
-0.00314182
-0.00301215
-0.00285627
-0.00268643
-0.00251635
-0.00235832
-0.00222092
-0.0021087
-0.00202341
-0.00196514
-0.00193389
-0.00229837
-0.00232644
-0.00237241
-0.00244895
-0.00256187
-0.00270475
-0.00286349
-0.00302601
-0.00318365
-0.00332814
-0.00345198
-0.0035496
-0.00361991
-0.0036664
-0.00369383
-0.00370361
-0.00369362
-0.00365897
-0.00359437
-0.00349758
-0.00337196
-0.00322621
-0.00307148
-0.00291867
-0.00277655
-0.00265087
-0.00254473
-0.00245977
-0.00239738
-0.00235968
-0.00265179
-0.00266213
-0.00269712
-0.00276633
-0.00287585
-0.00301773
-0.00317765
-0.00334234
-0.0035004
-0.00364177
-0.00375949
-0.00385139
-0.003919
-0.00396621
-0.0039954
-0.00400482
-0.0039903
-0.00394761
-0.00387463
-0.00377287
-0.00364776
-0.00350793
-0.00336272
-0.00322064
-0.00308797
-0.00296913
-0.00286718
-0.00278465
-0.00272419
-0.00268875
-0.00294087
-0.00295381
-0.00299377
-0.00306861
-0.00317761
-0.00331182
-0.00345985
-0.00361334
-0.003763
-0.00389981
-0.00401694
-0.00411145
-0.00418315
-0.00423289
-0.00426044
-0.00426271
-0.00423652
-0.0041801
-0.00409466
-0.00398456
-0.00385656
-0.00371863
-0.0035786
-0.00344309
-0.0033173
-0.00320534
-0.00311053
-0.00303579
-0.0029838
-0.00295673
-0.00321079
-0.0032319
-0.00328132
-0.00336096
-0.00346127
-0.00357516
-0.00370065
-0.00383498
-0.00397327
-0.00410796
-0.00423068
-0.00433431
-0.00441376
-0.00446572
-0.0044879
-0.00447846
-0.00443708
-0.00436563
-0.00426852
-0.00415194
-0.00402287
-0.00388849
-0.00375497
-0.00362759
-0.00351024
-0.00340703
-0.00332105
-0.00325493
-0.00321079
-0.00318998
-0.00345336
-0.0034759
-0.00353052
-0.00360649
-0.00369222
-0.00378436
-0.00388696
-0.00400301
-0.00413072
-0.0042629
-0.00438886
-0.00449766
-0.00458012
-0.00463007
-0.00464466
-0.00462406
-0.00457116
-0.00449092
-0.00438983
-0.00427478
-0.00415205
-0.00402743
-0.00390527
-0.00378936
-0.00368344
-0.00358951
-0.00351108
-0.00345041
-0.00340957
-0.00338988
-0.00364851
-0.00367128
-0.00372515
-0.00379192
-0.00386284
-0.00393919
-0.00402719
-0.00413044
-0.00424733
-0.00437019
-0.00448754
-0.00458795
-0.00466152
-0.00470197
-0.00470717
-0.0046789
-0.00462187
-0.00454238
-0.00444726
-0.00434276
-0.00423395
-0.00412469
-0.00401777
-0.00391562
-0.00382097
-0.00373657
-0.00366468
-0.00360725
-0.00356749
-0.00354716
-0.00380721
-0.00383453
-0.00388166
-0.00393587
-0.00399513
-0.0040631
-0.00414346
-0.0042369
-0.00433911
-0.00444267
-0.00453825
-0.00461673
-0.0046708
-0.00469609
-0.0046917
-0.00465998
-0.0046056
-0.00453423
-0.00445145
-0.00436207
-0.0042696
-0.00417646
-0.00408445
-0.00399529
-0.0039112
-0.00383474
-0.00376822
-0.00371534
-0.00367781
-0.00365743
-0.00394402
-0.00397442
-0.00401066
-0.00405172
-0.00410203
-0.0041643
-0.00423783
-0.00431886
-0.0044015
-0.00447948
-0.00454685
-0.00459862
-0.00463094
-0.00464186
-0.00463139
-0.00460128
-0.00455466
-0.00449527
-0.00442676
-0.0043522
-0.00427391
-0.00419365
-0.00411301
-0.00403369
-0.0039579
-0.00388841
-0.00382801
-0.00377955
-0.00374554
-0.00372782
-0.00404372
-0.00407102
-0.00409448
-0.0041249
-0.0041677
-0.00422258
-0.00428527
-0.00434967
-0.00440999
-0.00446208
-0.00450346
-0.00453274
-0.00454903
-0.0045518
-0.00454118
-0.00451756
-0.00448201
-0.00443609
-0.00438149
-0.00431984
-0.00425283
-0.00418211
-0.00410958
-0.00403747
-0.00396831
-0.0039049
-0.0038501
-0.00380659
-0.00377643
-0.00376104
-0.00407674
-0.00409395
-0.00410825
-0.0041326
-0.00416917
-0.00421459
-0.00426324
-0.00430915
-0.00434828
-0.00437885
-0.00440093
-0.00441527
-0.00442253
-0.00442278
-0.00441561
-0.00440035
-0.00437634
-0.00434326
-0.00430127
-0.00425114
-0.00419417
-0.00413217
-0.00406741
-0.00400253
-0.00394027
-0.00388348
-0.00383477
-0.00379637
-0.0037698
-0.0037563
-0.00403124
-0.0040378
-0.00404956
-0.00407257
-0.0041047
-0.00414084
-0.00417585
-0.0042054
-0.00422771
-0.00424275
-0.00425192
-0.00425673
-0.00425861
-0.00425743
-0.00425262
-0.00424291
-0.00422677
-0.00420301
-0.00417102
-0.00413102
-0.00408408
-0.00403187
-0.00397672
-0.00392129
-0.00386817
-0.00381997
-0.00377886
-0.00374652
-0.00372415
-0.00371235
-0.00392607
-0.00392782
-0.00394248
-0.00396654
-0.00399531
-0.00402375
-0.00404793
-0.00406561
-0.00407621
-0.00408094
-0.00408154
-0.00407936
-0.00407579
-0.00407089
-0.00406416
-0.00405448
-0.00404048
-0.00402094
-0.00399517
-0.00396307
-0.00392543
-0.00388367
-0.00383977
-0.00379587
-0.00375404
-0.00371628
-0.00368421
-0.00365903
-0.00364146
-0.00363191
-0.00379388
-0.00379883
-0.00381669
-0.00384029
-0.00386435
-0.0038853
-0.00390076
-0.00390985
-0.00391296
-0.00391111
-0.00390571
-0.00389799
-0.00388876
-0.00387833
-0.00386658
-0.00385301
-0.00383688
-0.00381754
-0.00379447
-0.00376767
-0.00373768
-0.00370552
-0.00367252
-0.0036401
-0.00360958
-0.0035822
-0.00355898
-0.00354069
-0.00352783
-0.0035207
-0.00365639
-0.00366869
-0.00368553
-0.00370352
-0.00371925
-0.00373072
-0.0037372
-0.00373882
-0.00373621
-0.00373003
-0.00372099
-0.00370959
-0.00369639
-0.00368161
-0.00366548
-0.00364814
-0.00362942
-0.00360922
-0.00358752
-0.00356447
-0.00354045
-0.00351597
-0.00349173
-0.00346847
-0.00344689
-0.00342763
-0.00341118
-0.00339797
-0.00338833
-0.00338254
-0.00351233
-0.00352877
-0.00353942
-0.00354727
-0.00355092
-0.00355052
-0.00354682
-0.00354061
-0.00353255
-0.00352295
-0.00351183
-0.00349923
-0.00348514
-0.00346971
-0.003453
-0.00343526
-0.00341672
-0.00339769
-0.00337838
-0.00335897
-0.00333966
-0.00332067
-0.0033024
-0.00328514
-0.00326917
-0.00325469
-0.00324196
-0.00323119
-0.00322262
-0.00321661
-0.00334243
-0.00335709
-0.00335866
-0.0033545
-0.0033454
-0.00333312
-0.0033194
-0.00330559
-0.00329241
-0.00327996
-0.00326803
-0.00325624
-0.00324422
-0.00323158
-0.00321815
-0.00320392
-0.00318911
-0.00317393
-0.00315852
-0.00314306
-0.00312773
-0.00311265
-0.00309797
-0.00308387
-0.00307048
-0.00305788
-0.00304625
-0.00303578
-0.00302682
-0.00301981
-0.00312768
-0.00313587
-0.00312886
-0.00311492
-0.0030964
-0.00307578
-0.00305531
-0.00303647
-0.00302003
-0.00300615
-0.00299464
-0.0029849
-0.00297626
-0.002968
-0.00295958
-0.00295057
-0.00294085
-0.00293039
-0.0029192
-0.00290738
-0.00289509
-0.00288247
-0.00286964
-0.00285671
-0.00284391
-0.00283147
-0.00281967
-0.00280888
-0.00279946
-0.00279171
-0.00286216
-0.00286224
-0.00284994
-0.0028317
-0.00281017
-0.00278775
-0.00276637
-0.00274734
-0.00273141
-0.00271879
-0.00270923
-0.0027022
-0.0026968
-0.00269222
-0.00268769
-0.00268264
-0.00267666
-0.0026695
-0.00266104
-0.00265135
-0.00264049
-0.00262865
-0.00261611
-0.00260311
-0.00259003
-0.00257728
-0.0025653
-0.00255457
-0.00254555
-0.00253844
-0.0025563
-0.00254998
-0.0025369
-0.00252077
-0.00250316
-0.00248578
-0.00246978
-0.00245597
-0.00244482
-0.00243638
-0.00243036
-0.00242629
-0.00242342
-0.00242096
-0.00241821
-0.00241453
-0.00240952
-0.00240292
-0.00239463
-0.00238469
-0.00237322
-0.00236054
-0.00234701
-0.0023331
-0.00231934
-0.00230629
-0.00229453
-0.00228462
-0.00227705
-0.00227184
-0.00223166
-0.00222232
-0.00221266
-0.00220319
-0.00219435
-0.00218672
-0.00218051
-0.00217582
-0.00217257
-0.00217055
-0.00216937
-0.00216876
-0.00216789
-0.0021663
-0.00216351
-0.00215904
-0.00215267
-0.00214428
-0.00213389
-0.0021217
-0.00210801
-0.0020932
-0.00207785
-0.00206252
-0.00204788
-0.00203461
-0.00202334
-0.00201463
-0.00200893
-0.0020062
-0.00191166
-0.00190268
-0.00189864
-0.00189761
-0.00189906
-0.00190245
-0.00190716
-0.00191257
-0.00191819
-0.00192341
-0.00192771
-0.00193067
-0.00193182
-0.00193082
-0.00192737
-0.00192137
-0.00191278
-0.00190174
-0.00188846
-0.00187333
-0.00185686
-0.00183959
-0.00182219
-0.00180537
-0.00178988
-0.00177642
-0.00176561
-0.00175796
-0.00175384
-0.00175325
-0.00161337
-0.00160696
-0.00160861
-0.00161514
-0.00162525
-0.00163764
-0.00165128
-0.00166518
-0.00167833
-0.0016899
-0.00169918
-0.00170565
-0.00170893
-0.00170887
-0.00170536
-0.00169846
-0.00168838
-0.00167543
-0.00166003
-0.00164276
-0.00162426
-0.00160523
-0.00158644
-0.00156866
-0.00155265
-0.00153911
-0.0015286
-0.00152158
-0.00151834
-0.0015189
-0.00134416
-0.001341
-0.00134671
-0.00135811
-0.00137338
-0.00139107
-0.00141006
-0.00142907
-0.00144697
-0.00146271
-0.00147553
-0.00148485
-0.0014903
-0.00149172
-0.00148914
-0.0014827
-0.00147268
-0.00145953
-0.0014438
-0.00142614
-0.00140728
-0.00138802
-0.00136912
-0.00135138
-0.00133553
-0.00132223
-0.00131198
-0.00130519
-0.00130212
-0.00130278
-0.00110275
-0.00110226
-0.00111
-0.00112302
-0.00113971
-0.00115881
-0.00117916
-0.00119956
-0.00121893
-0.00123622
-0.00125066
-0.00126162
-0.00126874
-0.00127187
-0.00127097
-0.00126618
-0.00125778
-0.00124624
-0.00123209
-0.001216
-0.00119868
-0.00118088
-0.00116338
-0.0011469
-0.00113213
-0.00111963
-0.00110989
-0.00110323
-0.0010999
-0.00109998
-0.00088302
-0.000884052
-0.00089193
-0.000903907
-0.000919097
-0.000936459
-0.000955005
-0.00097377
-0.000991808
-0.00100831
-0.00102239
-0.00103359
-0.00104151
-0.00104597
-0.00104686
-0.00104425
-0.00103836
-0.0010296
-0.00101839
-0.0010053
-0.000990952
-0.000976017
-0.00096116
-0.000947021
-0.000934164
-0.000923156
-0.000914362
-0.000908075
-0.000904514
-0.000903827
-0.000677482
-0.000679019
-0.000685489
-0.000695038
-0.000707067
-0.00072086
-0.000735713
-0.000750921
-0.000765786
-0.000779686
-0.000791891
-0.000802027
-0.000809728
-0.000814719
-0.000816851
-0.00081616
-0.0008128
-0.000807049
-0.000799206
-0.000789713
-0.000779036
-0.000767705
-0.000756245
-0.000745165
-0.000734918
-0.000725943
-0.000718598
-0.000713102
-0.000709646
-0.000708388
-0.00047969
-0.000481123
-0.000485652
-0.000492253
-0.000500576
-0.000510145
-0.000520572
-0.000531418
-0.000542238
-0.000552549
-0.000561894
-0.000569887
-0.000576246
-0.000580737
-0.00058323
-0.000583737
-0.000582308
-0.0005791
-0.000574323
-0.000568254
-0.000561224
-0.000553548
-0.000545668
-0.000537898
-0.000530578
-0.000524025
-0.000518538
-0.000514273
-0.000511375
-0.000509961
-0.000285601
-0.000286584
-0.000289194
-0.000292929
-0.00029768
-0.000303184
-0.000309256
-0.000315653
-0.00032214
-0.000328447
-0.000334277
-0.000339366
-0.000343557
-0.000346694
-0.000348671
-0.000349483
-0.000349134
-0.000347694
-0.000345282
-0.000342048
-0.000338179
-0.000333845
-0.000329319
-0.000324774
-0.000320429
-0.000316477
-0.000313103
-0.000310394
-0.000308473
-0.000307352
-9.44291e-05
-9.48007e-05
-9.56571e-05
-9.68445e-05
-9.83628e-05
-0.000100133
-0.000102112
-0.000104218
-0.000106405
-0.000108534
-0.000110533
-0.000112295
-0.00011378
-0.00011493
-0.000115708
-0.000116103
-0.000116115
-0.00011576
-0.00011507
-0.000114094
-0.000112894
-0.000111515
-0.000110055
-0.00010857
-0.000107137
-0.000105817
-0.000104679
-0.000103735
-0.000103035
-0.000102588
4901.36
4901.36
4901.36
4901.36
4901.35
4901.35
4901.35
4901.35
4901.35
4901.34
4901.34