/*--------------------------------*- C++ -*----------------------------------*\
| =========                 |                                                 |
| \\      /  F ield         | OpenFOAM: The Open Source CFD Toolbox           |
|  \\    /   O peration     | Version:  2312                                  |
|   \\  /    A nd           | Website:  www.openfoam.com                      |
|    \\/     M anipulation  |                                                 |
\*---------------------------------------------------------------------------*/
FoamFile
{
    version     2.0;
    format      ascii;
    arch        "LSB;label=32;scalar=64";
    class       surfaceScalarField;
    location    "1.0996775";
    object      phi;
}
// * * * * * * * * * * * * * * * * * * * * * * * * * * * * * * * * * * * * * //

dimensions      [0 3 -1 0 0 0 0];

oriented        oriented;

internalField   nonuniform List<scalar> 
263100
(
-1.9581e-09
3.91621e-09
-1.9581e-09
-2.38835e-10
-2.04095e-10
-1.50264e-09
1.42093e-10
8.83883e-10
-1.25505e-09
4.85342e-10
7.44099e-10
-1.07797e-09
8.20159e-10
4.31302e-10
-7.5686e-10
1.25661e-09
-5.81062e-12
-4.21289e-10
1.74438e-09
-4.0914e-10
-6.90113e-11
2.18764e-09
-6.48738e-10
2.15421e-10
2.41246e-09
-5.95299e-10
3.80649e-10
2.249e-09
-2.51508e-10
4.25165e-10
1.72704e-09
2.42341e-10
2.8968e-10
9.24448e-10
8.07184e-10
5.1576e-12
8.08082e-11
1.21869e-09
-3.65654e-10
-5.15541e-10
1.34139e-09
-7.35985e-10
-6.28433e-10
1.15389e-09
-1.03226e-09
-1.73586e-10
7.19055e-10
-1.16547e-09
7.01136e-10
1.64127e-10
-1.03075e-09
1.71711e-09
-2.85876e-10
-7.22361e-10
2.33705e-09
-4.36792e-10
-1.75859e-10
2.21753e-09
-1.82141e-10
3.08368e-10
1.18462e-09
4.37786e-10
6.01165e-10
-8.35467e-10
1.3234e-09
7.01986e-10
-3.48367e-09
2.06566e-09
5.87085e-10
-6.10082e-09
2.34157e-09
2.79291e-10
-7.73724e-09
1.79989e-09
-1.6064e-10
-7.42704e-09
3.93706e-10
-7.01974e-10
-4.54866e-09
-1.65288e-09
-1.22438e-09
1.95333e-09
-3.84422e-09
-2.65729e-09
1.10926e-08
-4.67118e-09
-4.46796e-09
3.17478e-08
-2.06551e-08
-1.29419e-10
4.18646e-09
-1.29419e-10
-3.07525e-10
9.77069e-11
-1.02144e-10
-4.19704e-10
1.10093e-09
-8.61728e-11
-4.71728e-10
9.25168e-10
-1.10628e-10
-3.86273e-10
4.39718e-10
-7.53085e-11
-1.89519e-10
-1.28527e-10
-5.50258e-11
1.67184e-10
-7.05001e-10
-4.12594e-11
6.37091e-10
-1.05403e-09
-4.45772e-11
1.15404e-09
-1.03513e-09
-5.68663e-11
1.63939e-09
-6.69698e-10
-4.70041e-11
2.03558e-09
-1.70198e-10
3.62234e-11
2.31786e-09
3.97758e-10
1.46625e-10
2.49258e-09
7.44479e-10
3.18594e-10
2.51069e-09
7.73118e-10
5.68899e-10
2.33968e-09
5.01674e-10
8.41541e-10
1.93062e-09
9.58986e-11
1.05001e-09
1.29847e-09
-3.18558e-10
1.13198e-09
5.9539e-10
-6.22165e-10
1.05571e-09
-1.37932e-10
-4.99896e-10
8.11721e-10
-8.2099e-10
2.22166e-11
4.92764e-10
-1.42356e-09
8.56153e-10
1.96921e-10
-1.96227e-09
1.85046e-09
2.29159e-11
-2.39199e-09
2.5447e-09
-3.95818e-11
-2.51862e-09
2.41566e-09
6.06552e-11
-2.4068e-09
1.30264e-09
3.91917e-10
-2.46938e-09
-6.23042e-10
1.08428e-09
-2.81506e-09
-3.50102e-09
2.19751e-09
-4.54258e-10
-1.02545e-08
4.05229e-09
9.13931e-09
-2.07213e-08
6.459e-09
3.67693e-08
4.12045e-09
4.36357e-10
3.32449e-09
4.36357e-10
-3.66785e-10
8.17598e-10
1.08361e-10
-8.16716e-10
1.53695e-09
3.57728e-11
-1.17608e-09
1.33835e-09
-3.20382e-11
-1.43839e-09
8.23312e-10
-9.9126e-11
-1.51533e-09
1.95624e-10
-2.24385e-10
-1.3557e-09
-4.46972e-10
-3.94068e-10
-8.94673e-10
-9.51093e-10
-5.39655e-10
-1.14046e-10
-1.18457e-09
-6.06275e-10
9.64235e-10
-1.15656e-09
-5.66001e-10
2.17777e-09
-9.63448e-10
-3.94417e-10
3.34739e-09
-7.01191e-10
-4.43575e-11
4.17467e-09
-4.32325e-10
3.76211e-10
4.38657e-09
-1.72091e-10
7.60198e-10
3.82653e-09
-1.07972e-12
1.08963e-09
2.58414e-09
1.5823e-10
1.20658e-09
8.96764e-10
3.30239e-10
1.06454e-09
-8.90056e-10
5.18758e-10
6.71058e-10
-2.25064e-09
7.71959e-10
1.12843e-10
-2.9058e-09
1.06123e-09
-3.60978e-10
-2.6652e-09
1.42176e-09
-7.84737e-10
-1.52167e-09
1.71992e-09
-9.9304e-10
1.92316e-10
1.76943e-09
-9.20387e-10
2.0722e-09
1.1971e-09
-6.44686e-10
3.74303e-09
5.58417e-11
-4.09134e-10
4.66188e-09
-1.23699e-09
-2.91719e-10
2.77103e-09
-1.98098e-09
3.8244e-10
-3.03501e-09
-6.81158e-09
2.37361e-09
-2.41754e-09
-2.80587e-08
6.72972e-09
2.23746e-08
1.19862e-08
6.79104e-10
1.98034e-09
6.79104e-10
-2.0048e-10
1.34754e-09
3.82786e-10
-7.61025e-10
1.8276e-09
2.99047e-10
-1.24484e-09
1.67334e-09
1.78129e-10
-1.67637e-09
1.28948e-09
-4.58979e-12
-2.00751e-09
7.20363e-10
-1.62538e-10
-2.09019e-09
5.7477e-11
-3.89534e-10
-1.84196e-09
-5.74784e-10
-5.91045e-10
-1.17515e-09
-1.1109e-09
-7.0568e-10
-1.10743e-10
-1.48775e-09
-6.97017e-10
1.19967e-09
-1.68399e-09
-5.52209e-10
2.47999e-09
-1.65483e-09
-2.87606e-10
3.38413e-09
-1.34864e-09
5.24363e-11
3.66403e-09
-6.92999e-10
2.82074e-10
3.1509e-09
1.81279e-10
3.7221e-10
1.94283e-09
1.13739e-09
2.70277e-10
3.10425e-10
2.00603e-09
-2.43906e-12
-1.33018e-09
2.55964e-09
-3.6012e-10
-2.42876e-09
2.67127e-09
-7.61716e-10
-2.59504e-09
2.36431e-09
-1.09922e-09
-1.62058e-09
1.7842e-09
-1.301e-09
3.14226e-10
1.15969e-09
-1.34052e-09
2.78021e-09
5.08774e-10
-1.17321e-09
5.03467e-09
-1.34662e-10
-8.92632e-10
6.51082e-09
-8.42137e-10
-5.50219e-10
7.61195e-09
-1.66442e-09
-6.47888e-10
9.25511e-09
-1.32929e-09
-2.27102e-09
3.84268e-09
1.95084e-09
-3.32774e-09
-7.6385e-09
-1.41744e-08
-2.38172e-09
1.12391e-08
3.51628e-09
8.92833e-10
2.1347e-10
8.92833e-10
1.48774e-10
1.43161e-09
7.03065e-10
-2.32493e-10
1.61832e-09
6.28746e-10
-6.17863e-10
1.57048e-09
5.26883e-10
-1.05347e-09
1.40015e-09
3.64749e-10
-1.47643e-09
1.02417e-09
1.60419e-10
-1.79729e-09
4.53725e-10
-3.24439e-11
-1.93877e-09
-2.25733e-10
-1.62744e-10
-1.79735e-09
-8.91206e-10
-3.14193e-10
-1.36382e-09
-1.50302e-09
-3.69023e-10
-7.23843e-10
-1.91763e-09
-3.54734e-10
-3.11345e-11
-1.99102e-09
-3.02657e-10
5.44953e-10
-1.59728e-09
-2.71639e-10
8.82488e-10
-6.69454e-10
-3.03803e-10
8.73035e-10
6.82091e-10
-4.33135e-10
4.94208e-10
2.18565e-09
-6.10805e-10
-1.08042e-10
3.44793e-09
-7.81137e-10
-6.64135e-10
4.07973e-09
-9.06129e-10
-8.23497e-10
3.88061e-09
-9.93209e-10
-3.41988e-10
2.97597e-09
-1.03795e-09
7.95949e-10
1.7456e-09
-1.04602e-09
2.50763e-09
5.11527e-10
-1.01231e-09
4.3488e-09
-3.30236e-10
-9.53214e-10
5.84659e-09
-7.04181e-10
-8.81632e-10
6.37113e-09
-5.508e-10
-7.71585e-10
5.63638e-09
-3.85825e-10
-5.01825e-10
5.27764e-09
-2.03307e-10
-7.27179e-10
3.93407e-09
5.24718e-09
-1.91418e-09
-4.62691e-09
-2.16542e-09
-3.41014e-09
7.9282e-09
-1.28217e-09
8.07056e-10
-1.37632e-09
8.07056e-10
6.00661e-10
9.23255e-10
7.69273e-10
6.48593e-10
8.74298e-10
7.44778e-10
6.24999e-10
9.44957e-10
6.98528e-10
4.35199e-10
1.01561e-09
6.25179e-10
8.82013e-11
9.00984e-10
5.22768e-10
-3.99833e-10
5.70938e-10
4.25392e-10
-9.97668e-10
6.67737e-11
3.62162e-10
-1.66137e-09
-4.78729e-10
3.10578e-10
-2.29279e-09
-1.04601e-09
2.36509e-10
-2.76713e-09
-1.44277e-09
6.44034e-11
-3.03671e-09
-1.55363e-09
-1.00136e-10
-2.97672e-09
-1.21676e-09
-3.70344e-10
-2.55643e-09
-3.83299e-10
-6.342e-10
-1.84366e-09
8.77548e-10
-8.34423e-10
-9.50749e-10
2.30637e-09
-9.38837e-10
-6.86343e-12
3.45996e-09
-8.80748e-10
8.68518e-10
3.98176e-09
-7.0246e-10
1.69086e-09
3.60843e-09
-4.76032e-10
2.45343e-09
2.54971e-09
-2.63528e-10
3.19462e-09
1.2221e-09
-1.46667e-10
3.8685e-09
6.55891e-11
-1.5893e-10
4.40805e-09
-5.22834e-10
-2.80035e-10
4.62724e-09
-3.5196e-10
-5.06543e-10
4.39169e-09
6.62532e-10
-9.14813e-10
2.87647e-09
2.41549e-09
-1.22472e-09
6.46367e-10
3.37457e-09
-1.28748e-09
2.36929e-10
8.31311e-09
-2.59673e-09
-3.41678e-09
5.88596e-09
-4.33784e-09
7.54728e-09
-2.9826e-09
2.59961e-10
-1.86562e-09
2.59961e-10
9.5401e-10
-5.28861e-11
3.49889e-10
1.60417e-09
-7.59673e-11
3.60886e-10
2.15036e-09
8.91622e-11
3.71072e-10
2.45245e-09
3.519e-10
4.244e-10
2.38507e-09
5.50598e-10
4.82091e-10
1.86355e-09
6.00377e-10
5.58099e-10
8.4368e-10
5.34017e-10
6.20572e-10
-5.7669e-10
3.5681e-10
6.54943e-10
-2.24371e-09
1.06036e-10
5.8747e-10
-3.89605e-09
-1.26853e-10
4.11484e-10
-5.11071e-09
-3.10999e-10
4.96939e-11
-5.57279e-09
-3.5068e-10
-3.23803e-10
-5.13368e-09
-1.26718e-10
-6.13268e-10
-3.84706e-09
4.20246e-10
-7.45021e-10
-1.96231e-09
1.16092e-09
-6.53627e-10
1.2942e-10
1.81676e-09
-3.61962e-10
2.04862e-09
2.08149e-09
6.79771e-11
3.49162e-09
1.84818e-09
4.03985e-10
4.28509e-09
1.14296e-09
6.99384e-10
4.40789e-09
2.70335e-10
9.14113e-10
3.99292e-09
-3.49614e-10
9.14277e-10
3.18933e-09
-3.56317e-10
7.20212e-10
2.01635e-09
5.02625e-10
4.00862e-10
7.44981e-10
2.09659e-09
-8.04188e-11
-6.33332e-10
4.68905e-09
-8.12613e-10
-2.67816e-09
6.93541e-09
-1.43251e-09
-2.0072e-09
9.90514e-09
-2.17826e-09
-2.57546e-09
9.21637e-09
-2.67598e-09
6.58717e-09
-1.53905e-09
-7.51725e-10
-3.24144e-10
-7.51725e-10
8.88844e-10
-1.1931e-09
-4.172e-10
2.25476e-09
-9.78414e-10
-3.88901e-10
3.48484e-09
-7.08101e-10
-3.58052e-10
4.39676e-09
-2.47529e-10
-2.37153e-10
4.74964e-09
3.03121e-10
-2.95436e-11
4.36344e-09
8.80244e-10
1.82704e-10
3.17063e-09
1.42203e-09
3.81775e-10
1.27648e-09
1.83871e-09
4.90052e-10
-1.05098e-09
2.04808e-09
4.64235e-10
-3.38102e-09
1.96263e-09
3.2067e-10
-5.18772e-09
1.49158e-09
8.56945e-11
-6.10512e-09
7.53069e-10
-1.03291e-10
-5.86645e-09
1.06231e-13
-2.80999e-10
-4.55573e-09
-5.55823e-10
-2.4886e-10
-2.47633e-09
-8.50726e-10
1.92005e-11
-7.13144e-11
-8.21635e-10
3.21315e-10
2.09222e-09
-7.21337e-10
7.28071e-10
3.59415e-09
-7.01378e-10
1.13713e-09
4.1949e-09
-8.71229e-10
1.50362e-09
3.9257e-09
-1.05836e-09
1.68886e-09
2.98072e-09
-9.86808e-10
1.67421e-09
1.55645e-09
-3.55485e-10
1.51708e-09
-1.77382e-10
1.04683e-09
1.28558e-09
-1.98093e-09
3.06424e-09
9.34975e-10
-3.11857e-09
5.55204e-09
3.77477e-10
-3.87251e-09
7.81067e-09
-1.44966e-11
-2.5907e-09
8.90012e-09
-1.66078e-10
-9.89011e-10
7.66671e-09
6.21013e-11
4.47395e-09
1.22445e-09
-1.64604e-09
3.01473e-09
-1.64604e-09
7.58978e-10
-2.20342e-09
-1.29452e-09
2.66684e-09
-1.55661e-09
-1.23996e-09
4.36905e-09
-1.25685e-09
-1.06455e-09
5.66505e-09
-6.58626e-10
-7.96865e-10
6.33199e-09
2.13497e-10
-4.9058e-10
6.1504e-09
1.33968e-09
-1.92722e-10
5.07035e-09
2.58419e-09
1.31274e-12
3.24254e-09
3.61046e-09
1.37835e-10
9.50488e-10
4.2117e-09
2.08735e-10
-1.35234e-09
4.11964e-09
2.24846e-10
-3.2335e-09
3.24014e-09
2.10502e-10
-4.35975e-09
1.68334e-09
2.72897e-10
-4.60119e-09
-9.18686e-11
4.09512e-10
-4.00501e-09
-1.66274e-09
5.86308e-10
-2.76415e-09
-2.78988e-09
7.73753e-10
-1.22375e-09
-3.34704e-09
1.06086e-09
2.10932e-10
-3.42121e-09
1.34205e-09
1.31404e-09
-3.24539e-09
1.51945e-09
1.87432e-09
-2.93149e-09
1.58097e-09
1.80432e-09
-2.45351e-09
1.54949e-09
1.11784e-09
-1.71183e-09
1.5003e-09
6.6182e-12
-5.90856e-10
1.44111e-09
-1.29388e-09
1.10762e-09
1.34119e-09
-2.55847e-09
3.23395e-09
1.20426e-09
-3.09008e-09
5.10985e-09
1.09152e-09
-2.58513e-09
6.20766e-09
1.22389e-09
-7.97535e-10
5.55979e-09
1.68586e-09
6.54223e-10
3.87395e-09
2.47979e-09
2.53794e-09
2.7107e-09
-1.90828e-09
6.88803e-09
-1.90828e-09
8.02471e-10
-3.396e-09
-1.40079e-09
2.82412e-09
-2.28271e-09
-1.19052e-09
4.54488e-09
-1.99443e-09
-8.80275e-10
5.76525e-09
-1.24703e-09
-5.3182e-10
6.34832e-09
-5.42326e-11
-2.18933e-10
6.20608e-09
1.5539e-09
1.99928e-11
5.46637e-09
3.25826e-09
1.52742e-10
4.25626e-09
4.71128e-09
1.91311e-10
2.7832e-09
5.49008e-09
2.71518e-10
1.26953e-09
5.28226e-09
4.22673e-10
-8.97017e-11
4.02095e-09
6.44846e-10
-1.26816e-09
1.99967e-09
9.23552e-10
-2.21899e-09
-2.95505e-10
1.21142e-09
-2.90871e-09
-2.36441e-09
1.44478e-09
-3.31975e-09
-3.89448e-09
1.5667e-09
-3.37575e-09
-4.72133e-09
1.48044e-09
-3.0194e-09
-4.95408e-09
1.2274e-09
-2.39759e-09
-4.73574e-09
9.21919e-10
-1.73667e-09
-4.2019e-09
6.67265e-10
-1.22987e-09
-3.3991e-09
5.03103e-10
-1.02677e-09
-2.26858e-09
4.26646e-10
-1.16815e-09
-7.56469e-10
3.90743e-10
-1.43474e-09
1.07423e-09
3.96077e-10
-1.51692e-09
2.95159e-09
4.73849e-10
-9.72449e-10
3.99776e-09
6.90135e-10
2.50145e-10
3.88071e-09
1.23918e-09
1.36409e-09
2.77778e-09
1.81328e-09
1.20322e-09
2.16346e-09
2.02381e-09
2.72577e-09
1.14495e-09
-7.60868e-10
8.47667e-09
-7.60868e-10
1.23608e-09
-5.16417e-09
-9.67899e-11
2.45174e-09
-3.53229e-09
1.52163e-10
3.29945e-09
-3.07415e-09
3.46805e-10
3.73884e-09
-2.13322e-09
5.5684e-10
3.77599e-09
-6.72051e-10
6.8436e-10
3.5902e-09
1.16732e-09
6.6846e-10
3.38695e-09
3.02981e-09
5.19254e-10
3.28636e-09
4.48906e-09
4.01111e-10
3.23227e-09
5.24028e-09
3.72394e-10
3.06838e-09
4.96925e-09
5.3522e-10
2.55319e-09
3.74361e-09
8.40566e-10
1.49994e-09
1.93378e-09
1.15734e-09
-1.87333e-10
1.16621e-10
1.30465e-09
-2.15984e-09
-1.66642e-09
1.29703e-09
-4.1086e-09
-2.94653e-09
1.01846e-09
-5.57145e-09
-3.75685e-09
5.13589e-10
-6.20009e-09
-4.21908e-09
-9.08565e-11
-6.01005e-09
-4.4229e-09
-4.84121e-10
-5.14074e-09
-4.25682e-09
-7.89191e-10
-3.92633e-09
-3.61949e-09
-9.59136e-10
-2.72691e-09
-2.50244e-09
-9.17916e-10
-1.74286e-09
-8.90196e-10
-7.87517e-10
-8.20762e-10
8.27933e-10
-5.96369e-10
2.06809e-10
2.28474e-09
-2.64292e-10
1.37994e-09
2.8124e-09
1.24954e-10
2.24998e-09
2.66996e-09
4.67829e-10
1.98986e-09
2.61479e-09
5.61297e-10
7.10703e-10
3.61073e-09
-2.34355e-11
4.11772e-09
-5.63514e-10
1.37892e-09
5.79448e-09
1.37892e-09
1.33505e-09
-6.66578e-09
1.68516e-09
8.21645e-10
-4.93918e-09
2.0459e-09
1.89265e-11
-4.1907e-09
2.04034e-09
-8.73806e-10
-3.0167e-09
1.89081e-09
-1.52936e-09
-1.3652e-09
1.45463e-09
-1.66453e-09
5.40718e-10
8.57098e-10
-1.02825e-09
2.17807e-09
2.98636e-10
2.45573e-10
3.39598e-09
-1.1106e-10
1.79122e-09
3.98354e-09
-2.33744e-10
3.09101e-09
3.88704e-09
-1.77525e-10
3.51085e-09
3.40019e-09
-5.13765e-11
2.73377e-09
2.68468e-09
3.73022e-11
9.26084e-10
1.9636e-09
-4.02175e-11
-1.66555e-09
1.22611e-09
-3.11267e-10
-4.37502e-09
5.3018e-10
-7.84144e-10
-6.55116e-09
-2.63534e-10
-1.33724e-09
-7.61373e-09
-1.36628e-09
-1.80975e-09
-7.48532e-09
-2.3799e-09
-2.18642e-09
-6.39678e-09
-3.08896e-09
-2.2629e-09
-4.78854e-09
-3.15961e-09
-2.06243e-09
-3.03199e-09
-2.52369e-09
-1.71455e-09
-1.33046e-09
-1.26756e-09
-1.28668e-09
3.05571e-10
8.0345e-11
-8.33779e-10
1.84716e-09
1.1992e-09
-3.8495e-10
2.92143e-09
1.8145e-09
9.26336e-12
3.00515e-09
2.5064e-09
1.76762e-10
1.89931e-09
3.87219e-09
-4.79035e-11
6.93021e-10
5.32461e-09
-4.0227e-10
4.80699e-09
8.01678e-11
3.58442e-09
-1.29416e-09
3.58442e-09
4.74049e-10
-6.71203e-09
3.29139e-09
-2.24102e-09
-5.10069e-09
2.9984e-09
-4.73991e-09
-3.9057e-09
2.33051e-09
-6.79701e-09
-2.368e-09
1.51742e-09
-7.93154e-09
-6.57966e-10
5.26059e-10
-7.76192e-09
7.94025e-10
-3.36827e-10
-6.26428e-09
1.77835e-09
-1.02661e-09
-3.68394e-09
2.39626e-09
-1.52584e-09
-6.87949e-10
2.68395e-09
-1.6594e-09
1.78081e-09
3.02723e-09
-1.59001e-09
3.0225e-09
3.68116e-09
-1.52107e-09
2.77026e-09
4.50979e-09
-1.58674e-09
1.23325e-09
5.33953e-09
-1.86554e-09
-1.07751e-09
5.79333e-09
-2.29261e-09
-3.4409e-09
5.56335e-09
-2.71182e-09
-5.18689e-09
4.44789e-09
-3.00924e-09
-6.01537e-09
2.5507e-09
-3.1297e-09
-5.80483e-09
3.8848e-10
-3.01326e-09
-4.88858e-09
-1.35223e-09
-2.67681e-09
-3.5873e-09
-2.29602e-09
-2.17569e-09
-2.05595e-09
-2.38857e-09
-1.66328e-09
-3.84647e-10
-1.74547e-09
-1.17673e-09
1.28989e-09
-8.4854e-10
-7.1731e-10
2.69494e-09
1.167e-10
-2.85331e-10
3.40626e-09
1.10258e-09
4.2922e-11
3.11469e-09
2.62585e-09
2.1501e-10
2.22836e-09
4.48419e-09
3.13104e-10
1.54732e-09
5.27753e-09
7.59091e-10
4.8725e-09
1.48664e-09
3.94717e-09
-9.11153e-09
3.94717e-09
-1.73962e-09
-3.06215e-09
2.14818e-09
-6.16636e-09
-1.9447e-09
1.37175e-09
-9.59063e-09
-6.39532e-10
2.53683e-10
-1.20112e-08
7.59423e-10
-6.18996e-10
-1.28933e-08
1.75095e-09
-1.44916e-09
-1.20727e-08
2.25037e-09
-2.21191e-09
-9.6163e-09
1.97188e-09
-2.5998e-09
-6.13636e-09
1.57508e-09
-2.62511e-09
-2.53726e-09
1.59402e-09
-2.49281e-09
2.68071e-10
2.53659e-09
-2.3153e-09
1.94425e-09
4.27467e-09
-2.28576e-09
2.25359e-09
6.63702e-09
-2.46562e-09
1.56445e-09
8.7285e-09
-2.73874e-09
3.66235e-10
9.90181e-09
-2.9554e-09
-8.32899e-10
9.76726e-09
-3.05203e-09
-1.6867e-09
8.21863e-09
-2.9618e-09
-2.10615e-09
5.57111e-09
-2.63908e-09
-2.21524e-09
2.64231e-09
-2.17276e-09
-2.08355e-09
1.97238e-10
-1.69744e-09
-1.76464e-09
-1.26817e-09
-1.35172e-09
-1.13941e-09
-1.8856e-09
-1.12433e-09
-1.21194e-10
-1.76309e-09
-9.92003e-10
1.12945e-09
-1.18179e-09
-9.093e-10
2.22439e-09
-1.83224e-10
-7.93247e-10
2.69914e-09
1.29864e-09
-6.81223e-10
2.64263e-09
3.19737e-09
-5.42504e-10
2.51476e-09
4.65093e-09
-8.63671e-11
1.73055e-09
5.34253e-09
6.5195e-10
6.42848e-09
9.14924e-11
1.46038e-09
-1.19703e-08
1.46038e-09
-4.80943e-09
3.8739e-09
-6.00554e-10
-9.23386e-09
3.81532e-09
-1.27606e-09
-1.22852e-08
4.58346e-09
-2.11683e-09
-1.39423e-08
5.20356e-09
-2.73831e-09
-1.39561e-08
4.79016e-09
-2.98416e-09
-1.22179e-08
3.41501e-09
-2.87068e-09
-9.31151e-09
1.64065e-09
-2.55348e-09
-5.99945e-09
3.44157e-10
-2.07076e-09
-2.99237e-09
2.80023e-10
-1.69402e-09
-7.1392e-10
1.72483e-09
-1.47808e-09
7.18813e-10
4.37422e-09
-1.55235e-09
1.56799e-09
7.54548e-09
-1.78402e-09
2.05232e-09
1.01884e-08
-1.97404e-09
2.35311e-09
1.15262e-08
-1.95492e-09
2.5433e-09
1.12634e-08
-1.71185e-09
2.51728e-09
9.4659e-09
-1.23842e-09
2.10346e-09
6.65589e-09
-6.76652e-10
1.29602e-09
3.73189e-09
-2.75262e-10
2.05836e-10
1.41536e-09
-1.10066e-10
-7.43562e-10
-6.64449e-11
-2.27702e-10
-1.17847e-09
-8.14634e-10
-6.11243e-10
-9.3162e-10
-9.66732e-10
-1.02641e-09
-2.16398e-10
-5.39441e-10
-1.35786e-09
5.8108e-10
5.84983e-10
-1.59184e-09
1.06527e-09
2.47073e-09
-1.71524e-09
1.30236e-09
4.48548e-09
-1.62037e-09
1.1314e-09
6.03919e-09
-1.3476e-09
6.5181e-11
7.80972e-09
-1.55958e-09
8.76465e-09
-2.42654e-09
-1.6536e-09
-8.62985e-09
-1.6536e-09
-6.58902e-09
1.2077e-08
-3.2666e-09
-9.60025e-09
1.02352e-08
-3.40828e-09
-1.12366e-08
9.75225e-09
-3.53462e-09
-1.14322e-08
8.60101e-09
-3.20568e-09
-1.02621e-08
6.26775e-09
-2.65264e-09
-8.2498e-09
3.26799e-09
-1.87096e-09
-6.05827e-09
5.10014e-10
-1.06715e-09
-4.13507e-09
-1.16883e-09
-4.16666e-10
-2.71468e-09
-1.01793e-09
-1.28461e-10
-1.75778e-09
9.71269e-10
-2.08107e-10
-7.48065e-10
3.90619e-09
-5.44161e-10
5.82555e-10
7.13577e-09
-9.19832e-10
2.21391e-09
9.58268e-09
-1.01922e-09
3.84385e-09
1.07133e-08
-8.02729e-10
5.0386e-09
1.03835e-08
-2.89672e-10
5.43577e-09
8.82641e-09
2.80609e-10
4.7422e-09
6.67879e-09
7.22616e-10
3.12604e-09
4.57127e-09
8.40285e-10
1.15559e-09
2.85794e-09
5.98081e-10
-4.60296e-10
1.54259e-09
7.62465e-11
-1.37269e-09
5.15495e-10
-3.58814e-10
-1.53431e-09
-9.04198e-11
-6.77318e-10
-1.28669e-09
8.17825e-11
-8.64228e-10
-1.11303e-09
1.39056e-09
-1.01671e-09
-1.04058e-09
3.43813e-09
-1.12471e-09
-1.05094e-09
5.51158e-09
-1.1475e-09
-1.45884e-09
7.70074e-09
-1.42526e-09
-1.74616e-09
9.94832e-09
-2.04863e-09
8.29966e-09
-1.45112e-09
-3.85877e-09
-9.19382e-10
-3.85877e-09
-5.98072e-09
1.81599e-08
-4.03083e-09
-6.90692e-09
1.46108e-08
-3.51354e-09
-6.7476e-09
1.25866e-08
-3.05591e-09
-5.67747e-09
9.70528e-09
-2.2311e-09
-4.19223e-09
6.01122e-09
-1.27642e-09
-2.88145e-09
2.30756e-09
-3.86239e-10
-2.25498e-09
-3.24878e-10
1.86546e-10
-2.30376e-09
-1.55822e-09
4.31805e-10
-2.71342e-09
-7.71563e-10
1.73208e-10
-2.80125e-09
1.44529e-09
-3.59984e-10
-2.02373e-09
4.11271e-09
-9.42111e-10
-2.55733e-10
6.58165e-09
-1.15689e-09
2.09876e-09
8.33598e-09
-1.03605e-09
4.38284e-09
9.10068e-09
-5.84907e-10
5.86746e-09
8.98192e-09
1.80606e-11
6.1438e-09
8.23529e-09
4.28952e-10
5.18988e-09
7.16565e-09
5.90848e-10
3.48435e-09
5.91392e-09
4.90839e-10
1.6947e-09
4.52324e-09
2.49228e-10
3.92685e-10
2.93656e-09
2.09717e-11
-2.837e-10
1.27063e-09
1.22583e-11
-6.80175e-10
1.24775e-10
2.40215e-10
-1.24422e-09
1.10532e-10
5.53564e-10
-1.93004e-09
1.34212e-09
7.07e-10
-2.50598e-09
3.17744e-09
7.6438e-10
-2.86335e-09
5.09224e-09
6.66395e-10
-2.86718e-09
7.10295e-09
4.66478e-10
-1.43014e-09
7.72515e-09
6.44456e-10
4.54368e-09
2.23232e-09
-3.73082e-09
6.49216e-09
-3.73082e-09
-3.34516e-09
2.0632e-08
-2.98328e-09
-2.71464e-09
1.63994e-08
-2.5328e-09
-1.60407e-09
1.33479e-08
-1.97755e-09
-3.03381e-10
9.62106e-09
-1.30764e-09
6.64302e-10
5.63592e-09
-6.62895e-10
8.43376e-10
2.37435e-09
-2.90562e-10
4.42966e-11
6.40068e-10
-1.80859e-10
-1.37619e-09
3.62994e-10
-4.83791e-10
-2.6127e-09
1.42217e-09
-9.07818e-10
-2.964e-09
3.13304e-09
-1.2557e-09
-2.0991e-09
4.66892e-09
-1.31136e-09
-2.1981e-10
5.92388e-09
-1.08577e-09
2.08557e-09
6.72762e-09
-5.38697e-10
3.99882e-09
7.2692e-09
9.4933e-11
5.05804e-09
7.70684e-09
4.05363e-10
5.11633e-09
7.85685e-09
5.15382e-10
4.42766e-09
7.63102e-09
4.16104e-10
3.46232e-09
6.82068e-09
2.40364e-10
2.64963e-09
5.29901e-09
1.99359e-10
2.06893e-09
3.29294e-09
3.59807e-10
1.45105e-09
1.30346e-09
6.87479e-10
3.73096e-10
2.92792e-10
9.75971e-10
-1.05802e-09
5.21893e-10
1.05026e-09
-2.35958e-09
1.68618e-09
9.58371e-10
-3.01039e-09
2.89815e-09
9.12106e-10
-2.9165e-09
3.96788e-09
1.00822e-09
-1.81313e-09
4.56797e-09
1.42153e-09
-1.02181e-10
3.68451e-09
2.34665e-09
2.56382e-09
1.94666e-09
-2.70638e-09
1.18229e-08
-2.70638e-09
-9.32542e-10
2.06854e-08
-1.97008e-09
4.49621e-10
1.67233e-08
-1.83327e-09
1.7146e-09
1.34678e-08
-1.49781e-09
2.85158e-09
9.55074e-09
-1.15753e-09
3.27989e-09
6.01949e-09
-8.73181e-10
2.75501e-09
3.55451e-09
-6.8077e-10
1.52273e-09
2.47841e-09
-5.91221e-10
-8.1609e-12
2.52399e-09
-5.72443e-10
-1.18458e-09
3.20119e-09
-5.01826e-10
-1.50845e-09
3.80539e-09
-2.06279e-10
-8.42877e-10
3.95062e-09
2.3294e-10
4.00964e-10
4.13486e-09
7.5842e-10
1.61153e-09
4.50965e-09
1.24687e-09
2.42665e-09
5.19926e-09
1.51124e-09
2.79654e-09
6.16904e-09
1.42981e-09
2.89706e-09
6.90682e-09
1.10401e-09
2.98666e-09
6.98285e-09
7.92973e-10
3.1085e-09
6.24949e-09
6.52565e-10
3.09821e-09
4.74481e-09
7.2838e-10
2.60818e-09
3.01293e-09
8.90734e-10
1.26516e-09
1.8424e-09
8.83521e-10
-6.71232e-10
1.79994e-09
4.76326e-10
-2.4245e-09
2.58614e-09
-2.80527e-10
-3.27062e-09
3.49411e-09
-9.27227e-10
-3.03293e-09
3.77209e-09
-1.05036e-09
-2.02671e-09
3.96564e-09
-8.95909e-10
-6.86491e-10
4.07369e-09
-6.77978e-10
-2.56858e-10
4.32393e-09
-8.39627e-10
5.03237e-09
-2.46843e-09
-1.81804e-09
1.53705e-08
-1.81804e-09
3.19012e-10
1.979e-08
-1.34829e-09
2.03035e-09
1.62427e-08
-1.32218e-09
3.56595e-09
1.28493e-08
-9.91272e-10
4.69955e-09
8.94518e-09
-5.78434e-10
4.99456e-09
5.77504e-09
-7.10508e-11
4.47301e-09
3.84093e-09
2.49624e-10
3.37516e-09
3.08133e-09
5.48118e-10
2.14097e-09
2.98788e-09
8.64452e-10
1.2746e-09
2.90438e-09
1.29888e-09
8.16423e-10
2.57459e-09
1.86525e-09
5.10793e-10
1.93742e-09
2.53275e-09
8.97524e-11
1.80986e-09
2.99219e-09
-3.98663e-10
2.38866e-09
2.87895e-09
-7.45637e-10
3.54733e-09
2.2793e-09
-5.7174e-10
4.74386e-09
1.52713e-09
1.3812e-10
5.55684e-09
8.95e-10
1.20052e-09
5.54892e-09
5.90082e-10
2.05147e-09
4.97816e-09
5.90531e-10
2.07918e-09
4.1381e-09
6.94336e-10
8.6357e-10
3.69956e-09
5.91288e-10
-1.15728e-09
3.92246e-09
-3.80569e-11
-3.19249e-09
4.82249e-09
-9.85194e-10
-4.1735e-09
5.23172e-09
-1.65137e-09
-3.66835e-09
4.72475e-09
-1.67845e-09
-2.4102e-09
4.14763e-09
-1.50266e-09
-1.25745e-09
4.51642e-09
-1.48017e-09
-8.03775e-10
5.74707e-09
-1.80993e-09
-1.26353e-09
8.06985e-09
-2.89433e-09
7.00175e-09
-2.86593e-09
-1.00921e-09
1.73278e-08
-1.00921e-09
1.54143e-09
1.76598e-08
-4.3902e-10
3.38883e-09
1.44618e-08
-7.6432e-11
5.03069e-09
1.08061e-08
4.05156e-10
6.04334e-09
7.02928e-09
9.22783e-10
6.28013e-09
4.19311e-09
1.38177e-09
5.80107e-09
2.65052e-09
1.72475e-09
4.92024e-09
1.92804e-09
2.10969e-09
3.91153e-09
1.59214e-09
2.50216e-09
2.89899e-09
1.19023e-09
2.84839e-09
1.61022e-09
8.89862e-10
3.12043e-09
-1.316e-10
8.67246e-10
2.98374e-09
-1.97667e-09
1.48334e-09
2.36461e-09
-3.39613e-09
2.5804e-09
1.43427e-09
-3.94009e-09
3.92175e-09
3.77707e-10
-3.23883e-09
4.49137e-09
-2.53847e-10
-1.68767e-09
4.61024e-09
-4.38614e-10
-1.85962e-10
4.52985e-09
-3.59888e-10
4.58397e-10
4.56805e-09
-1.64521e-10
-2.17789e-10
5.05858e-09
-2.2969e-10
-1.79394e-09
5.99546e-09
-7.51821e-10
-3.52206e-09
7.05698e-09
-1.46507e-09
-4.19485e-09
7.13163e-09
-1.6916e-09
-3.46181e-09
5.82039e-09
-1.33807e-09
-2.11147e-09
3.98502e-09
-5.54143e-10
-1.26518e-09
3.42902e-09
2.57409e-11
-9.85436e-10
4.48594e-09
7.37619e-12
-1.13299e-09
6.72682e-09
-4.8871e-10
-8.37107e-10
9.15817e-09
-9.91838e-10
6.61008e-09
-1.37521e-10
2.58268e-10
1.68084e-08
2.58268e-10
2.93835e-09
1.41163e-08
9.61843e-10
4.81956e-09
1.12841e-08
1.39139e-09
6.12226e-09
7.67134e-09
1.92947e-09
6.57274e-09
4.26268e-09
2.41038e-09
6.17306e-09
2.04739e-09
2.63156e-09
5.31825e-09
9.67275e-10
2.61305e-09
4.34252e-09
5.50408e-10
2.41661e-09
3.27026e-09
4.93687e-10
2.22416e-09
1.84873e-09
6.38295e-10
2.02106e-09
-6.81265e-11
1.14976e-09
1.70331e-09
-2.38919e-09
2.24658e-09
9.90311e-10
-4.51559e-09
3.64971e-09
1.12862e-11
-5.56287e-09
4.42054e-09
-7.42511e-10
-5.12523e-09
4.49758e-09
-9.71443e-10
-3.55186e-09
3.84247e-09
-9.00762e-10
-1.77192e-09
3.30922e-09
-4.84086e-10
-9.05374e-10
3.77549e-09
-1.54766e-10
-1.26669e-09
5.08398e-09
-2.37771e-10
-2.52566e-09
7.01305e-09
-8.13893e-10
-3.76687e-09
8.60865e-09
-1.51034e-09
-3.8858e-09
8.7818e-09
-1.74038e-09
-2.66856e-09
7.01502e-09
-1.20304e-09
-1.12163e-09
4.18975e-09
3.96697e-11
-4.20102e-10
2.54261e-09
7.72729e-10
-6.79858e-10
3.03896e-09
7.60065e-10
-1.0599e-09
4.57354e-09
4.6523e-10
-9.91233e-10
6.2972e-09
5.63299e-10
-6.08079e-11
7.59571e-09
8.21697e-10
6.10247e-09
5.22462e-10
1.43865e-09
1.40023e-08
1.43865e-09
3.98383e-09
9.53847e-09
2.23753e-09
5.47506e-09
7.30191e-09
2.677e-09
5.93704e-09
4.4694e-09
2.91102e-09
5.35486e-09
2.17779e-09
2.81086e-09
4.16605e-09
9.54902e-10
2.38747e-09
2.99128e-09
3.72957e-10
1.83157e-09
2.00805e-09
1.77196e-10
1.37391e-09
1.04069e-09
3.62899e-10
1.07391e-09
-3.414e-10
1.14211e-09
8.19007e-10
-2.22798e-09
2.51854e-09
4.31686e-10
-4.10386e-09
4.03602e-09
-1.91843e-11
-5.14238e-09
4.84505e-09
-2.77205e-10
-4.93278e-09
4.3178e-09
-2.4076e-10
-3.6281e-09
2.85544e-09
1.88238e-10
-2.10696e-09
1.44959e-09
7.03552e-10
-1.4477e-09
1.22523e-09
1.23422e-09
-1.95781e-09
2.82683e-09
1.24586e-09
-3.25091e-09
5.64077e-09
5.07222e-10
-4.24047e-09
8.17079e-09
-3.99293e-10
-4.03006e-09
8.92781e-09
-7.42056e-10
-2.48707e-09
7.25954e-09
-1.92133e-10
-6.12741e-10
4.29817e-09
7.29318e-10
7.23436e-11
2.09678e-09
1.35741e-09
-6.91092e-10
2.12508e-09
1.18068e-09
-1.69607e-09
3.68281e-09
3.82105e-10
-1.93354e-09
4.86968e-09
-5.5293e-11
-1.35812e-09
5.60148e-09
6.81764e-11
-3.48689e-10
6.47069e-09
-1.44335e-11
5.18185e-09
3.59393e-10
2.39216e-09
9.35295e-09
2.39216e-09
4.09258e-09
5.28004e-09
2.81228e-09
4.84844e-09
3.85215e-09
2.91568e-09
4.41717e-09
2.34088e-09
2.74925e-09
3.14184e-09
1.29703e-09
2.29825e-09
1.73326e-09
7.03354e-10
1.74398e-09
6.03723e-10
2.319e-10
1.29102e-09
-2.20714e-10
-1.3704e-10
1.09666e-09
-1.05528e-09
6.65927e-11
1.03267e-09
-2.215e-09
1.20562e-09
9.5139e-10
-3.4513e-09
2.8159e-09
7.58136e-10
-4.18515e-09
3.97234e-09
5.90033e-10
-3.87422e-09
3.62378e-09
6.82827e-10
-2.60675e-09
1.71027e-09
1.09627e-09
-1.26332e-09
-4.97536e-10
1.75095e-09
-9.56625e-10
-1.36792e-09
2.23824e-09
-1.81216e-09
-1.71899e-10
1.96881e-09
-3.18757e-09
2.75106e-09
1.1634e-09
-4.11832e-09
6.01569e-09
2.78098e-10
-3.67779e-09
7.27919e-09
2.03087e-10
-1.86976e-09
6.10319e-09
8.19418e-10
1.12806e-11
3.43422e-09
1.81303e-09
4.11144e-10
1.09491e-09
2.73865e-09
-1.00201e-09
9.40313e-10
2.55101e-09
-2.61921e-09
2.16997e-09
1.55845e-09
-3.33228e-09
3.33148e-09
1.00198e-09
-3.19163e-09
3.82774e-09
7.42147e-10
-2.23714e-09
3.76705e-09
6.00868e-10
-1.60448e-10
2.95843e-09
1.05331e-09
1.79204e-09
2.85068e-09
2.56973e-09
4.37284e-09
2.56973e-09
3.47098e-09
1.76185e-09
2.82948e-09
3.57984e-09
1.13034e-09
2.7864e-09
2.68509e-09
8.73435e-10
2.49326e-09
1.23223e-09
7.78157e-10
2.0497e-09
-1.63265e-10
4.54143e-10
1.66417e-09
-1.22937e-09
-1.73451e-10
1.43305e-09
-2.1073e-09
-7.04274e-10
1.35479e-09
-3.10088e-09
-3.00205e-10
1.22764e-09
-4.03115e-09
1.01729e-09
9.5432e-10
-4.39343e-09
2.4217e-09
5.70479e-10
-3.80293e-09
2.75692e-09
4.24587e-10
-2.29295e-09
1.2509e-09
6.52756e-10
-7.74991e-10
-1.12946e-09
1.10419e-09
-3.25496e-10
-2.58657e-09
1.4163e-09
-1.07612e-09
-1.9398e-09
1.09685e-09
-2.28178e-09
5.24484e-10
2.88138e-10
-2.8346e-09
3.32434e-09
-2.24892e-10
-1.93942e-09
4.92648e-09
2.30473e-11
1.14099e-10
4.23096e-09
8.74744e-10
2.02038e-09
1.92165e-09
2.21823e-09
2.15364e-09
1.0359e-10
3.20265e-09
2.93638e-10
-1.11012e-10
3.11493e-09
-2.11306e-09
1.29569e-09
2.10618e-09
-3.40907e-09
1.74161e-09
1.73326e-09
-3.48942e-09
1.13428e-09
2.18837e-09
-3.38355e-09
1.36397e-09
2.13883e-09
-1.5652e-09
-4.35925e-11
1.65125e-09
1.53513e-09
-3.89073e-09
3.33902e-09
-1.48498e-09
4.49331e-09
2.50146e-09
-5.06546e-10
2.50146e-09
2.5913e-09
-8.34958e-10
2.58582e-09
2.14735e-09
-6.8893e-10
2.30826e-09
1.10883e-09
2.44993e-11
1.8945e-09
-2.41751e-10
6.70904e-10
1.42682e-09
-1.49285e-09
5.69723e-10
1.07102e-09
-2.6183e-09
2.65595e-11
8.35553e-10
-3.84094e-09
-1.52825e-10
5.65764e-10
-4.93344e-09
4.8609e-10
1.94751e-10
-5.56975e-09
1.82796e-09
-2.84656e-10
-5.08393e-09
2.25832e-09
-4.27924e-10
-3.37289e-09
9.63937e-10
-1.83861e-11
-1.36702e-09
-1.27501e-09
4.23268e-10
-1.41401e-10
-3.31095e-09
8.61406e-10
-2.29699e-10
-3.48305e-09
8.94349e-10
-9.30737e-10
-1.83718e-09
5.18848e-10
-1.09254e-09
3.66506e-10
2.63927e-10
1.06458e-10
1.62374e-09
4.86604e-10
2.31276e-09
1.46062e-09
1.30193e-09
4.21253e-09
2.63264e-11
2.41316e-09
4.11897e-09
-7.83584e-10
2.96627e-09
2.32854e-09
-5.4016e-10
2.63577e-09
-2.34997e-10
9.04304e-10
1.74445e-09
-2.03377e-09
2.37621e-09
8.64422e-10
-2.27405e-09
1.10217e-09
9.37327e-10
-1.96813e-09
-9.3263e-10
1.70978e-09
-1.58944e-09
-1.30009e-09
2.13327e-09
-5.06524e-11
-4.2343e-09
2.43862e-09
1.10466e-09
-8.18421e-09
2.92451e-09
-5.84406e-10
1.05062e-10
1.86334e-09
-4.20247e-09
1.86334e-09
1.29695e-09
-1.89646e-09
1.52916e-09
5.84095e-10
-1.07741e-09
9.89724e-10
-3.56341e-10
4.27762e-10
4.11056e-10
-1.24547e-09
1.37928e-09
5.21396e-11
-2.22201e-09
1.48894e-09
-6.07522e-11
-3.4127e-09
1.25685e-09
-1.35863e-10
-4.81525e-09
1.44147e-09
-2.58572e-10
-5.88684e-09
2.02673e-09
-5.04054e-10
-5.78184e-09
2.13076e-09
-4.14264e-10
-4.25712e-09
6.93779e-10
5.38186e-11
-2.08511e-09
-1.82887e-09
6.44694e-10
-2.20047e-10
-4.46029e-09
1.34453e-09
3.79299e-10
-5.71862e-09
1.82847e-09
1.87226e-10
-4.95327e-09