/*--------------------------------*- C++ -*----------------------------------*\
| =========                 |                                                 |
| \\      /  F ield         | OpenFOAM: The Open Source CFD Toolbox           |
|  \\    /   O peration     | Version:  2312                                  |
|   \\  /    A nd           | Website:  www.openfoam.com                      |
|    \\/     M anipulation  |                                                 |
\*---------------------------------------------------------------------------*/
FoamFile
{
    version     2.0;
    format      ascii;
    arch        "LSB;label=32;scalar=64";
    class       volVectorField;
    location    "1.0996775";
    object      U;
}
// * * * * * * * * * * * * * * * * * * * * * * * * * * * * * * * * * * * * * //

dimensions      [0 1 -1 0 0 0 0];

internalField   nonuniform List<vector> 
90000
(
(-1.40554e-05 2.20493e-05 -1.40554e-05)
(-1.20587e-05 -1.75643e-06 -1.01473e-05)
(2.16935e-06 5.78125e-06 -9.19416e-06)
(2.5894e-06 4.8076e-06 -9.32422e-06)
(6.26821e-06 3.15942e-06 -8.20354e-06)
(1.00723e-05 7.41402e-07 -6.91585e-06)
(1.48254e-05 -1.79076e-06 -5.40614e-06)
(1.97753e-05 -3.27515e-06 -3.62636e-06)
(2.33968e-05 -3.08179e-06 -2.02303e-06)
(2.38241e-05 -1.15708e-06 -1.16324e-06)
(2.02979e-05 1.98803e-06 -1.5527e-06)
(1.34272e-05 5.52801e-06 -2.82518e-06)
(4.78485e-06 8.29099e-06 -4.74766e-06)
(-2.86654e-06 9.35948e-06 -6.74413e-06)
(-6.76679e-06 8.52908e-06 -8.48749e-06)
(-5.13671e-06 6.22877e-06 -9.36082e-06)
(2.17047e-06 2.89256e-06 -8.62256e-06)
(1.23558e-05 -5.19373e-07 -6.63867e-06)
(2.09505e-05 -2.36353e-06 -3.2141e-06)
(2.37708e-05 -1.45892e-06 3.64879e-07)
(1.82228e-05 2.16987e-06 2.74458e-06)
(3.18503e-06 7.35456e-06 3.17985e-06)
(-2.08518e-05 1.20557e-05 1.42722e-06)
(-4.83385e-05 1.45845e-05 -2.79002e-06)
(-7.05639e-05 1.24938e-05 -8.14732e-06)
(-7.80226e-05 5.31174e-06 -1.37254e-05)
(-6.1947e-05 -6.11143e-06 -2.03516e-05)
(-2.76843e-05 -1.68141e-05 -3.77722e-05)
(8.07508e-05 -7.7983e-06 -7.84111e-05)
(8.52009e-05 0.000180405 -0.000174311)
(-2.27657e-07 4.37281e-05 -2.27657e-07)
(-2.0115e-06 -1.15704e-06 -3.78233e-07)
(-3.97838e-06 1.12227e-05 -5.42511e-07)
(-4.55372e-06 9.33719e-06 -1.03942e-06)
(-4.414e-06 4.85994e-06 -1.24696e-06)
(-3.00296e-06 -9.03042e-07 -1.64059e-06)
(-2.75018e-07 -6.1749e-06 -2.03297e-06)
(3.87162e-06 -9.19104e-06 -2.38619e-06)
(8.87863e-06 -8.6767e-06 -2.59983e-06)
(1.3935e-05 -4.63189e-06 -2.49906e-06)
(1.8338e-05 1.5896e-06 -1.78352e-06)
(2.17406e-05 7.87817e-06 -5.65634e-07)
(2.40648e-05 1.21872e-05 1.14012e-06)
(2.50768e-05 1.30747e-05 3.44075e-06)
(2.43832e-05 1.04126e-05 5.90631e-06)
(2.15502e-05 4.88296e-06 7.83177e-06)
(1.63263e-05 -1.48635e-06 8.74633e-06)
(9.59182e-06 -6.26382e-06 8.3708e-06)
(2.35708e-06 -7.05462e-06 6.59922e-06)
(-4.77127e-06 -2.2448e-06 4.11647e-06)
(-1.12157e-05 6.56548e-06 1.78927e-06)
(-1.69973e-05 1.70365e-05 -2.5375e-08)
(-2.20399e-05 2.54006e-05 -8.45065e-07)
(-2.49779e-05 2.70683e-05 -1.36408e-07)
(-2.52203e-05 1.87982e-05 2.49555e-06)
(-2.3859e-05 4.79637e-07 8.79933e-06)
(-2.55839e-05 -2.78825e-05 2.08087e-05)
(-4.12342e-05 -7.55648e-05 4.14741e-05)
(4.86532e-05 -0.000117376 5.57208e-05)
(7.70201e-05 0.000366778 4.43815e-05)
(3.8923e-06 3.88976e-05 3.8923e-06)
(1.46282e-06 5.47763e-06 1.75767e-06)
(-6.58892e-06 1.38811e-05 1.17318e-06)
(-9.87984e-06 1.1795e-05 4.62232e-07)
(-1.29135e-05 6.20188e-06 -1.41624e-07)
(-1.4751e-05 -5.0549e-07 -9.7291e-07)
(-1.4484e-05 -6.63836e-06 -2.26013e-06)
(-1.15689e-05 -1.07302e-05 -3.47781e-06)
(-5.52338e-06 -1.15529e-05 -4.23368e-06)
(3.72074e-06 -9.25247e-06 -4.2872e-06)
(1.53104e-05 -5.13827e-06 -3.40193e-06)
(2.75485e-05 -1.02915e-06 -1.17424e-06)
(3.78826e-05 1.84663e-06 1.98511e-06)
(4.336e-05 2.57337e-06 5.04562e-06)
(4.17375e-05 1.38087e-06 7.87076e-06)
(3.26255e-05 -1.04899e-06 9.45889e-06)
(1.77003e-05 -3.07718e-06 9.164e-06)
(-2.45376e-07 -3.32788e-06 6.80125e-06)
(-1.64722e-05 -8.32745e-07 3.30385e-06)
(-2.68084e-05 4.71764e-06 -1.12173e-06)
(-2.90774e-05 1.20192e-05 -4.50831e-06)
(-2.20887e-05 1.90538e-05 -5.76317e-06)
(-7.24369e-06 2.31182e-05 -5.1039e-06)
(1.13669e-05 1.92434e-05 -2.67431e-06)
(2.94685e-05 6.92322e-06 3.22396e-07)
(4.39439e-05 -1.09209e-05 2.17557e-06)
(4.3219e-05 -3.07112e-05 8.82631e-06)
(-5.28818e-06 -9.82971e-05 2.56684e-05)
(-3.74983e-05 -0.000265894 6.65148e-05)
(-1.31062e-05 0.000300994 9.89296e-05)
(5.06131e-06 2.72326e-05 5.06131e-06)
(3.30385e-06 1.18322e-05 3.15838e-06)
(-5.65095e-06 1.76186e-05 2.80355e-06)
(-9.85619e-06 1.56618e-05 2.26877e-06)
(-1.42952e-05 1.09372e-05 1.45151e-06)
(-1.82976e-05 4.79665e-06 2.9982e-07)
(-2.0565e-05 -1.91573e-06 -1.15026e-06)
(-2.00175e-05 -7.67058e-06 -2.59936e-06)
(-1.56605e-05 -1.15835e-05 -3.67745e-06)
(-7.02198e-06 -1.35128e-05 -4.09535e-06)
(5.01918e-06 -1.36114e-05 -3.60465e-06)
(1.83367e-05 -1.23082e-05 -2.2771e-06)
(2.96918e-05 -9.61949e-06 -1.82377e-07)
(3.58912e-05 -5.47105e-06 1.96865e-06)
(3.48048e-05 -3.751e-07 2.7808e-06)
(2.60541e-05 5.61267e-06 2.5116e-06)
(1.1491e-05 1.12733e-05 1.05778e-06)
(-5.47173e-06 1.54572e-05 -1.41866e-06)
(-1.97981e-05 1.76851e-05 -4.06206e-06)
(-2.64946e-05 1.77999e-05 -6.14884e-06)
(-2.28773e-05 1.67353e-05 -7.35754e-06)
(-7.83276e-06 1.50674e-05 -7.33715e-06)
(1.52913e-05 1.17942e-05 -5.82719e-06)
(3.95069e-05 4.91324e-06 -2.79403e-06)
(5.86015e-05 -5.40122e-06 1.45029e-06)
(7.1631e-05 -1.63441e-05 2.38942e-06)
(8.6818e-05 -1.71321e-05 -8.24517e-06)
(8.4445e-05 -2.09995e-05 -1.46862e-05)
(-3.4247e-05 -0.000225721 -4.12263e-06)
(-7.09931e-05 0.000164235 3.72525e-05)
(5.55631e-06 1.14867e-05 5.55631e-06)
(6.13388e-06 1.4758e-05 4.5231e-06)
(-5.74671e-07 1.78724e-05 4.46178e-06)
(-4.06542e-06 1.67844e-05 4.32429e-06)
(-8.03872e-06 1.39832e-05 3.81745e-06)
(-1.24733e-05 9.20609e-06 2.9265e-06)
(-1.6362e-05 2.8497e-06 2.05234e-06)
(-1.88929e-05 -3.9047e-06 1.03637e-06)
(-1.90725e-05 -1.01669e-05 -1.61751e-07)
(-1.61703e-05 -1.55237e-05 -1.02137e-06)
(-1.06995e-05 -1.89513e-05 -1.6357e-06)
(-3.84491e-06 -1.93247e-05 -2.03734e-06)
(2.79074e-06 -1.5855e-05 -2.50702e-06)
(7.52237e-06 -7.71477e-06 -3.13683e-06)
(9.22496e-06 4.01995e-06 -4.13478e-06)
(7.21443e-06 1.71458e-05 -5.24854e-06)
(2.00838e-06 2.82541e-05 -6.04163e-06)
(-4.21938e-06 3.45365e-05 -6.55834e-06)
(-8.31556e-06 3.41826e-05 -6.85926e-06)
(-7.26916e-06 2.78832e-05 -6.75168e-06)
(1.10334e-06 1.83032e-05 -6.12796e-06)
(1.62088e-05 8.40216e-06 -5.1497e-06)
(3.44475e-05 -2.63997e-07 -3.99789e-06)
(5.15753e-05 -6.28968e-06 -2.4053e-06)
(6.21361e-05 -9.66091e-06 6.46761e-08)
(6.11021e-05 -1.42331e-05 3.80921e-06)
(5.5836e-05 -1.26992e-05 1.24377e-06)
(6.21445e-05 4.41846e-05 -7.03473e-06)
(-1.19382e-05 -7.60937e-05 -1.52798e-05)
(-4.73718e-05 9.02769e-05 -3.86756e-06)
(4.02404e-06 -6.44137e-06 4.02403e-06)
(7.48077e-06 1.24977e-05 4.25536e-06)
(6.83443e-06 1.27915e-05 4.55579e-06)
(6.59422e-06 1.28701e-05 4.80939e-06)
(5.58061e-06 1.24011e-05 5.0284e-06)
(2.85594e-06 9.9271e-06 5.08974e-06)
(-1.36938e-06 5.2916e-06 4.92667e-06)
(-6.81532e-06 -8.40265e-07 4.77144e-06)
(-1.31997e-05 -7.54475e-06 4.45155e-06)
(-1.97918e-05 -1.38471e-05 3.60954e-06)
(-2.54143e-05 -1.82866e-05 1.95798e-06)
(-2.92281e-05 -1.92999e-05 -4.44243e-07)
(-3.03656e-05 -1.53191e-05 -3.19143e-06)
(-2.79979e-05 -5.77466e-06 -5.92181e-06)
(-2.22818e-05 8.34979e-06 -8.09538e-06)
(-1.41867e-05 2.3932e-05 -9.3956e-06)
(-4.89248e-06 3.66456e-05 -9.19293e-06)
(4.23442e-06 4.25814e-05 -7.7785e-06)
(1.26781e-05 3.93734e-05 -5.65721e-06)
(2.06694e-05 2.88429e-05 -3.3062e-06)
(2.83004e-05 1.52796e-05 -1.40341e-06)
(3.54741e-05 2.50439e-06 -1.96285e-07)
(4.16979e-05 -5.83758e-06 1.3467e-07)
(4.56616e-05 -7.30459e-06 -7.57169e-07)
(4.59809e-05 -1.11837e-06 -3.13367e-06)
(3.80625e-05 7.98165e-06 -5.22771e-06)
(1.10482e-05 1.27686e-05 -5.89703e-06)
(1.07497e-05 6.8719e-05 -1.48153e-05)
(-1.53536e-05 2.61328e-05 -2.50276e-05)
(-3.11392e-05 7.83018e-05 -1.87606e-05)
(-5.10914e-07 -1.84745e-05 -5.10914e-07)
(4.88378e-06 4.63079e-06 9.96181e-07)
(1.34693e-05 3.89143e-06 1.41525e-06)
(1.88733e-05 4.97294e-06 1.71168e-06)
(2.32145e-05 6.71009e-06 2.60624e-06)
(2.45012e-05 7.1674e-06 3.8427e-06)
(2.16642e-05 5.77339e-06 5.16035e-06)
(1.40369e-05 2.67612e-06 6.15567e-06)
(1.85707e-06 -1.61673e-06 6.6726e-06)
(-1.37503e-05 -6.1401e-06 6.17165e-06)
(-3.07229e-05 -9.54542e-06 4.64347e-06)
(-4.54296e-05 -1.09613e-05 1.38261e-06)
(-5.41391e-05 -8.74404e-06 -2.38686e-06)
(-5.4401e-05 -2.53582e-06 -5.77778e-06)
(-4.56678e-05 7.43084e-06 -7.94273e-06)
(-2.95524e-05 1.8921e-05 -8.31747e-06)
(-9.09751e-06 2.8348e-05 -6.97957e-06)
(1.13308e-05 3.21953e-05 -4.11619e-06)
(2.82092e-05 2.88267e-05 -1.66983e-07)
(3.95094e-05 1.95721e-05 3.21556e-06)
(4.4088e-05 8.06401e-06 5.36386e-06)
(4.2521e-05 -1.42485e-06 6.08611e-06)
(3.6315e-05 -4.58879e-06 5.45341e-06)
(2.63534e-05 4.2752e-07 3.55475e-06)
(1.41151e-05 1.39881e-05 -1.07066e-07)
(1.17576e-06 3.68439e-05 -5.28945e-06)
(-1.80756e-05 5.40937e-05 -9.8799e-06)
(-2.48419e-05 9.43834e-05 -1.55639e-05)
(-2.51067e-05 8.16953e-05 -1.94956e-05)
(-1.60854e-05 7.21586e-05 -1.29792e-05)
(-8.51526e-06 -1.52951e-05 -8.51526e-06)
(-2.38239e-06 -6.81233e-06 -6.04464e-06)
(1.72159e-05 -5.9114e-06 -5.47902e-06)
(2.86297e-05 -3.67866e-06 -4.80333e-06)
(3.95445e-05 8.95086e-08 -3.24964e-06)
(4.61143e-05 3.93398e-06 -1.13982e-06)
(4.61847e-05 7.32513e-06 1.42542e-06)
(3.84165e-05 9.62325e-06 3.75915e-06)
(2.29399e-05 1.06467e-05 5.24063e-06)
(1.60005e-06 1.02145e-05 5.442e-06)
(-2.21803e-05 8.47018e-06 4.42599e-06)
(-4.34028e-05 5.3566e-06 2.38365e-06)
(-5.73935e-05 2.01767e-06 2.00927e-08)
(-6.09536e-05 -1.11069e-07 -2.46009e-06)
(-5.30702e-05 1.38256e-07 -3.6407e-06)
(-3.57694e-05 2.51788e-06 -3.12208e-06)
(-1.28582e-05 5.67254e-06 -8.51062e-07)
(1.05999e-05 7.30757e-06 2.49974e-06)
(2.94043e-05 6.15059e-06 5.79894e-06)
(3.99507e-05 1.79258e-06 8.30232e-06)
(4.14875e-05 -3.53807e-06 9.95205e-06)
(3.53009e-05 -6.41113e-06 1.02186e-05)
(2.31926e-05 -2.88784e-06 9.2191e-06)
(7.05232e-06 8.51473e-06 7.39475e-06)
(-1.1112e-05 2.70176e-05 4.36633e-06)
(-2.63065e-05 5.32616e-05 -1.98069e-07)
(-3.63183e-05 7.72102e-05 -3.69589e-06)
(-3.44524e-05 9.7508e-05 -6.05463e-06)
(-1.69606e-05 8.8539e-05 -5.23246e-06)
(-2.82906e-06 5.61603e-05 4.58138e-06)
(-1.55108e-05 1.0022e-05 -1.55108e-05)
(-8.51603e-06 -1.77618e-05 -1.33454e-05)
(1.97914e-05 -1.32837e-05 -1.28081e-05)
(3.48927e-05 -1.01241e-05 -1.12213e-05)
(5.02956e-05 -4.62742e-06 -8.68174e-06)
(6.03855e-05 2.68266e-06 -5.62344e-06)
(6.30562e-05 1.13895e-05 -2.50489e-06)
(5.68616e-05 2.03943e-05 1.57962e-07)
(4.22423e-05 2.77309e-05 2.2426e-06)
(2.14056e-05 3.19443e-05 3.57282e-06)
(-2.14295e-06 3.11545e-05 4.06383e-06)
(-2.35639e-05 2.4489e-05 3.90446e-06)
(-3.87621e-05 1.29758e-05 3.90722e-06)
(-4.5636e-05 2.48794e-07 4.12535e-06)
(-4.37158e-05 -1.10252e-05 4.48534e-06)
(-3.42895e-05 -1.85749e-05 5.12668e-06)
(-2.0124e-05 -2.16547e-05 6.58827e-06)
(-4.71301e-06 -2.167e-05 8.10588e-06)
(8.40918e-06 -2.06022e-05 9.08172e-06)
(1.67594e-05 -1.96767e-05 9.29365e-06)
(1.91984e-05 -1.78625e-05 8.92615e-06)
(1.54047e-05 -1.33998e-05 8.33859e-06)
(6.09614e-06 -4.10613e-06 7.53933e-06)
(-6.42585e-06 1.17996e-05 6.43996e-06)
(-1.96605e-05 3.27738e-05 5.08923e-06)
(-2.92433e-05 5.48785e-05 3.94883e-06)
(-2.95492e-05 7.18882e-05 4.2934e-06)
(-1.81689e-05 7.36398e-05 7.16861e-06)
(2.70802e-06 5.76982e-05 1.21691e-05)
(7.68995e-06 3.34606e-05 1.48892e-05)
(-1.77007e-05 5.01911e-05 -1.77007e-05)
(-9.71806e-06 -2.81038e-05 -1.45188e-05)
(2.13687e-05 -1.91079e-05 -1.30924e-05)
(3.65116e-05 -1.60651e-05 -1.0752e-05)
(5.17259e-05 -9.11412e-06 -7.7353e-06)
(6.09343e-05 1.58675e-06 -4.71986e-06)
(6.32277e-05 1.52051e-05 -2.02777e-06)
(5.88124e-05 3.028e-05 3.01916e-07)
(4.9001e-05 4.27782e-05 1.7714e-06)
(3.54688e-05 4.99586e-05 3.45603e-06)
(2.03971e-05 4.85034e-05 5.24324e-06)
(5.67168e-06 3.75579e-05 7.2656e-06)
(-7.14864e-06 1.91353e-05 9.4305e-06)
(-1.75888e-05 -1.98082e-06 1.14159e-05)
(-2.57637e-05 -2.13955e-05 1.28002e-05)
(-3.13392e-05 -3.56129e-05 1.32492e-05)
(-3.37638e-05 -4.29962e-05 1.20746e-05)
(-3.22923e-05 -4.44632e-05 9.60142e-06)
(-2.73036e-05 -4.19809e-05 6.65196e-06)
(-2.07714e-05 -3.69939e-05 3.99307e-06)
(-1.47979e-05 -2.98858e-05 1.92695e-06)
(-1.11148e-05 -1.99601e-05 6.01573e-07)
(-1.08109e-05 -6.41256e-06 -3.8819e-07)
(-1.29974e-05 1.16404e-05 -6.43288e-07)
(-1.50838e-05 3.17612e-05 -1.02887e-07)
(-1.32842e-05 4.60623e-05 1.46608e-06)
(-3.92694e-06 5.00984e-05 5.10837e-06)
(8.98247e-06 3.9052e-05 9.04567e-06)
(1.5125e-05 2.56156e-05 1.10621e-05)
(7.96317e-06 2.3944e-05 6.21596e-06)
(-8.79162e-06 8.08917e-05 -8.79162e-06)
(-3.0146e-07 -4.26355e-05 -4.75365e-06)
(2.03096e-05 -2.87304e-05 -2.55025e-06)
(2.8641e-05 -2.51985e-05 -3.71798e-07)
(3.53301e-05 -1.67329e-05 1.97658e-06)
(3.76661e-05 -3.12594e-06 3.26697e-06)
(3.6883e-05 1.42413e-05 3.54396e-06)
(3.48747e-05 3.2386e-05 3.10115e-06)
(3.33464e-05 4.71013e-05 3.01727e-06)
(3.26794e-05 5.49983e-05 3.75768e-06)
(3.17694e-05 5.2509e-05 5.7861e-06)
(2.86223e-05 3.95618e-05 8.74079e-06)
(2.10639e-05 1.92401e-05 1.1829e-05)
(7.54495e-06 -3.81927e-06 1.35707e-05)
(-1.11918e-05 -2.3853e-05 1.39899e-05)
(-3.14486e-05 -3.82909e-05 1.22235e-05)
(-4.88895e-05 -4.63763e-05 8.41157e-06)
(-5.96212e-05 -4.93619e-05 3.47307e-06)
(-6.183e-05 -4.83496e-05 -1.64015e-06)
(-5.63257e-05 -4.38097e-05 -5.43142e-06)
(-4.55975e-05 -3.58344e-05 -7.72887e-06)
(-3.32946e-05 -2.41348e-05 -8.66933e-06)
(-2.22265e-05 -8.10766e-06 -8.62154e-06)
(-1.269e-05 9.99931e-06 -7.85461e-06)
(-3.15323e-06 2.65055e-05 -5.79657e-06)
(8.1483e-06 3.37399e-05 -2.37055e-06)
(1.93017e-05 3.1051e-05 7.76444e-07)
(2.25796e-05 2.33668e-05 1.99231e-06)
(1.37243e-05 2.51007e-05 -9.92332e-07)
(3.44326e-06 3.35899e-05 -4.78627e-06)
(1.04772e-05 7.85853e-05 1.04772e-05)
(1.58226e-05 -5.94716e-05 1.30574e-05)
(1.03867e-05 -4.2743e-05 1.56464e-05)
(4.95884e-06 -3.69985e-05 1.53494e-05)
(-4.42769e-06 -2.67534e-05 1.43475e-05)
(-1.24351e-05 -1.13308e-05 1.12717e-05)
(-1.67519e-05 7.39192e-06 7.05075e-06)
(-1.44113e-05 2.58978e-05 3.1397e-06)
(-4.72302e-06 3.97907e-05 1.50635e-07)
(9.93909e-06 4.66816e-05 -7.0684e-07)
(2.50618e-05 4.47011e-05 5.43216e-07)
(3.43852e-05 3.5605e-05 3.14839e-06)
(3.28793e-05 2.17614e-05 5.24447e-06)
(1.98423e-05 6.8009e-06 6.0093e-06)
(-2.78665e-06 -6.34967e-06 4.20566e-06)
(-3.01764e-05 -1.64425e-05 1.81858e-07)
(-5.5337e-05 -2.42504e-05 -4.76629e-06)
(-7.19573e-05 -3.04692e-05 -9.19641e-06)
(-7.65791e-05 -3.55277e-05 -1.24086e-05)
(-7.01578e-05 -3.75876e-05 -1.40569e-05)
(-5.62758e-05 -3.42796e-05 -1.41379e-05)
(-3.91616e-05 -2.53701e-05 -1.30951e-05)
(-2.17236e-05 -1.08224e-05 -1.1163e-05)
(-4.88958e-06 4.94173e-06 -8.54497e-06)
(1.12885e-05 1.72531e-05 -5.44226e-06)
(2.47633e-05 2.25503e-05 -2.2742e-06)
(3.09379e-05 2.48155e-05 -3.47739e-07)
(2.52946e-05 3.19481e-05 -1.19094e-06)
(1.29389e-05 4.57762e-05 -3.55219e-06)
(3.63365e-06 4.49252e-05 -2.78002e-07)
(3.17338e-05 2.76303e-05 3.17338e-05)
(2.68757e-05 -6.95444e-05 2.96059e-05)
(-1.46182e-05 -5.29259e-05 2.76461e-05)
(-3.42726e-05 -4.34176e-05 2.28322e-05)
(-5.82094e-05 -3.01629e-05 1.68145e-05)
(-7.46111e-05 -1.34883e-05 9.24695e-06)
(-7.97424e-05 3.7695e-06 1.56323e-06)
(-7.1432e-05 1.88299e-05 -5.1017e-06)
(-5.05976e-05 2.89723e-05 -9.15493e-06)
(-2.1872e-05 3.35152e-05 -1.05735e-05)
(6.79631e-06 3.45607e-05 -1.01693e-05)
(2.62672e-05 3.51203e-05 -9.28123e-06)
(3.11576e-05 3.5298e-05 -8.78415e-06)
(2.17012e-05 3.56324e-05 -9.64294e-06)
(1.66086e-06 3.39894e-05 -1.17623e-05)
(-2.25975e-05 2.92896e-05 -1.40885e-05)
(-4.3916e-05 1.98065e-05 -1.58916e-05)
(-5.70605e-05 6.12721e-06 -1.70363e-05)
(-6.00081e-05 -9.18073e-06 -1.69577e-05)
(-5.4004e-05 -2.18563e-05 -1.56745e-05)
(-4.26204e-05 -2.72612e-05 -1.33396e-05)
(-2.83073e-05 -2.46398e-05 -1.0706e-05)
(-1.22103e-05 -1.53479e-05 -7.9006e-06)
(4.65681e-06 -4.03116e-06 -4.99108e-06)
(2.03817e-05 5.45266e-06 -2.01224e-06)
(3.13214e-05 1.37691e-05 9.09699e-07)
(3.33914e-05 2.58083e-05 2.34413e-06)
(2.69035e-05 4.28103e-05 3.00829e-06)
(2.0039e-05 5.43418e-05 5.2882e-06)
(9.40496e-06 4.81322e-05 1.06471e-05)
(3.98439e-05 -5.46699e-05 3.98439e-05)
(2.15428e-05 -5.49321e-05 2.72591e-05)
(-4.79819e-05 -4.05671e-05 2.17994e-05)
(-7.89466e-05 -2.74737e-05 1.40712e-05)
(-0.000108907 -1.19048e-05 5.15949e-06)
(-0.000125849 2.95566e-06 -3.39912e-06)
(-0.000126442 1.37754e-05 -1.05676e-05)
(-0.000109806 1.85143e-05 -1.44033e-05)
(-7.93696e-05 2.01989e-05 -1.61087e-05)
(-4.32521e-05 2.16115e-05 -1.61983e-05)
(-9.34612e-06 2.79352e-05 -1.52027e-05)
(1.3891e-05 4.02994e-05 -1.44865e-05)
(2.28698e-05 5.64157e-05 -1.48482e-05)
(2.02908e-05 7.15705e-05 -1.57611e-05)
(1.00801e-05 8.03258e-05 -1.64903e-05)
(-2.62239e-06 7.90716e-05 -1.67348e-05)
(-1.32139e-05 6.60039e-05 -1.6034e-05)
(-1.94106e-05 4.30856e-05 -1.40252e-05)
(-2.1864e-05 1.7229e-05 -1.10797e-05)
(-2.16272e-05 -4.66384e-06 -8.04634e-06)
(-1.93619e-05 -1.79014e-05 -5.65389e-06)
(-1.47922e-05 -2.18221e-05 -4.04541e-06)
(-6.78917e-06 -1.83529e-05 -3.15661e-06)
(4.71358e-06 -1.12452e-05 -2.66421e-06)
(1.69023e-05 -2.62651e-06 -1.95522e-06)
(2.51114e-05 1.05615e-05 -1.08199e-06)
(2.72247e-05 2.89282e-05 1.5941e-08)
(2.64266e-05 4.5257e-05 3.36747e-06)
(2.25649e-05 5.09311e-05 8.06149e-06)
(9.9328e-06 5.53514e-05 4.43065e-06)
(2.53611e-05 -0.0001132 2.53611e-05)
(-6.38597e-06 -2.21484e-07 1.04543e-05)
(-7.738e-05 5.89648e-06 3.46895e-06)
(-0.000108236 1.72348e-05 -4.66027e-06)
(-0.000132237 2.87678e-05 -1.0946e-05)
(-0.000140879 3.33536e-05 -1.41303e-05)
(-0.000132203 2.96808e-05 -1.49769e-05)
(-0.000108448 1.93488e-05 -1.45389e-05)
(-7.67506e-05 1.03309e-05 -1.26262e-05)
(-4.46046e-05 9.62539e-06 -1.09163e-05)
(-1.7282e-05 2.1595e-05 -9.57422e-06)
(1.4332e-06 4.38554e-05 -9.79296e-06)
(1.22088e-05 7.20521e-05 -1.08077e-05)
(1.84894e-05 9.66003e-05 -1.16065e-05)
(2.21762e-05 0.000109818 -1.10661e-05)
(2.45665e-05 0.000108074 -9.11881e-06)
(2.55e-05 9.10615e-05 -5.66711e-06)
(2.34598e-05 6.30441e-05 -1.62061e-06)
(1.74358e-05 3.28351e-05 2.12226e-06)
(7.80613e-06 8.10315e-06 4.23769e-06)
(-3.17178e-06 -7.50965e-06 4.00857e-06)
(-1.07441e-05 -1.44054e-05 1.75201e-06)
(-1.15689e-05 -1.45288e-05 -1.23045e-06)
(-6.35756e-06 -9.61614e-06 -3.49903e-06)
(1.72668e-06 7.22539e-07 -4.86614e-06)
(8.61406e-06 1.77136e-05 -5.72537e-06)
(1.24297e-05 3.74449e-05 -5.40072e-06)
(1.43735e-05 5.18222e-05 -3.97288e-06)
(4.88508e-06 6.32921e-05 -5.24197e-06)
(-2.73778e-06 7.74472e-05 -1.28989e-05)
(-9.62531e-07 -0.000110933 -9.62532e-07)
(-3.75933e-05 8.01128e-05 -1.35738e-05)
(-8.48352e-05 7.18074e-05 -1.54342e-05)
(-0.000105018 7.35355e-05 -1.72759e-05)
(-0.000114496 7.12893e-05 -1.62884e-05)
(-0.000109471 5.7522e-05 -1.39535e-05)
(-9.30731e-05 3.53965e-05 -1.00595e-05)
(-7.16491e-05 1.14983e-05 -5.69059e-06)
(-5.04707e-05 -4.52423e-06 -1.99456e-06)
(-3.35268e-05 -4.96812e-06 1.1908e-07)
(-2.20429e-05 1.1715e-05 -4.6005e-07)
(-1.26364e-05 4.07787e-05 -2.54083e-06)
(-1.24458e-06 7.38562e-05 -4.98237e-06)
(1.36999e-05 0.000100022 -5.63396e-06)
(3.03691e-05 0.000112714 -4.25213e-06)
(4.48419e-05 0.000109651 -7.51189e-07)
(5.32195e-05 9.24304e-05 3.78934e-06)
(5.20093e-05 6.69099e-05 7.68457e-06)
(4.01457e-05 4.10694e-05 9.54176e-06)
(2.16166e-05 2.04567e-05 8.86233e-06)
(2.48035e-06 6.58239e-06 6.16933e-06)
(-1.08245e-05 -1.44194e-06 3.03323e-06)
(-1.55469e-05 -4.77638e-06 6.5826e-07)
(-1.44934e-05 -1.48554e-06 -7.53856e-07)
(-1.19982e-05 1.03676e-05 -1.77461e-06)
(-1.05512e-05 2.95854e-05 -2.71996e-06)
(-9.95722e-06 4.98591e-05 -3.58833e-06)
(-1.18619e-05 6.88002e-05 -6.13596e-06)
(-1.90705e-05 9.15544e-05 -1.14216e-05)
(-1.26912e-05 8.95824e-05 -9.64839e-06)
(-2.06441e-05 -5.1335e-05 -2.06441e-05)
(-5.07806e-05 0.000154013 -2.22901e-05)
(-6.55577e-05 0.000127662 -1.97393e-05)
(-6.91261e-05 0.000115174 -1.79552e-05)
(-6.28023e-05 9.44363e-05 -1.33123e-05)
(-4.95089e-05 6.2988e-05 -7.53205e-06)
(-3.49704e-05 2.78214e-05 -1.93607e-06)
(-2.48078e-05 -1.72205e-06 2.58279e-06)
(-2.17827e-05 -1.68672e-05 4.51645e-06)
(-2.46894e-05 -1.27148e-05 3.08485e-06)
(-2.8148e-05 8.56234e-06 -8.46945e-07)
(-2.53745e-05 3.89186e-05 -5.06788e-06)
(-1.28869e-05 6.85475e-05 -7.21081e-06)
(8.40625e-06 8.99788e-05 -7.1608e-06)
(3.26359e-05 9.94781e-05 -4.39932e-06)
(5.21024e-05 9.71104e-05 -1.88457e-07)
(6.13223e-05 8.5442e-05 3.13054e-06)
(5.78425e-05 6.90869e-05 4.99916e-06)
(4.39636e-05 5.22357e-05 5.3225e-06)
(2.58792e-05 3.72473e-05 4.76059e-06)
(9.76048e-06 2.33184e-05 4.02502e-06)
(-4.33225e-07 1.06789e-05 4.2675e-06)
(-5.1803e-06 1.62662e-06 5.85045e-06)
(-9.48092e-06 2.02725e-06 7.75307e-06)
(-1.57663e-05 1.39272e-05 8.37716e-06)
(-2.21393e-05 3.32857e-05 8.04822e-06)
(-2.70756e-05 5.40878e-05 6.34664e-06)
(-2.98198e-05 7.6628e-05 3.57544e-06)
(-2.34973e-05 9.3604e-05 3.04585e-06)
(-8.81965e-06 6.60301e-05 1.31839e-05)
(-2.52048e-05 2.94385e-05 -2.52048e-05)
(-4.03891e-05 0.000197395 -2.03964e-05)
(-2.98528e-05 0.00015857 -1.79122e-05)
(-2.2238e-05 0.000132641 -1.46319e-05)
(-9.58843e-06 9.81614e-05 -1.01422e-05)
(2.77356e-06 5.84248e-05 -5.34194e-06)
(9.22132e-06 2.18519e-05 -2.14464e-06)
(6.21253e-06 -1.95129e-06 -7.95899e-07)
(-5.69369e-06 -8.77323e-06 -2.42512e-06)
(-2.03325e-05 1.347e-06 -5.50252e-06)
(-2.9444e-05 2.20418e-05 -8.52242e-06)
(-2.73881e-05 4.43427e-05 -1.00086e-05)
(-1.30103e-05 6.31767e-05 -9.7732e-06)
(8.89494e-06 7.57621e-05 -7.06033e-06)
(3.08568e-05 8.20994e-05 -3.459e-06)
(4.6167e-05 8.36253e-05 -2.29776e-07)
(5.19227e-05 8.07347e-05 1.63943e-06)
(4.85102e-05 7.45984e-05 2.02831e-06)
(3.97325e-05 6.49037e-05 1.40856e-06)
(3.05133e-05 5.09464e-05 1.86609e-06)
(2.34094e-05 3.28008e-05 3.6843e-06)
(1.75822e-05 1.37708e-05 6.33445e-06)
(9.60143e-06 9.8026e-07 8.90477e-06)
(-3.02881e-06 7.02809e-07 9.92052e-06)
(-1.7372e-05 1.31681e-05 9.28595e-06)
(-2.75039e-05 2.98673e-05 8.37545e-06)
(-3.08116e-05 4.61256e-05 8.05225e-06)
(-2.55387e-05 5.98977e-05 9.9165e-06)
(-7.23868e-06 5.54182e-05 1.55807e-05)
(2.72265e-06 3.01651e-05 1.51727e-05)
(-2.28993e-05 9.46348e-05 -2.28993e-05)
(-2.29627e-05 0.000209938 -1.72555e-05)
(2.73615e-07 0.000168595 -1.64043e-05)
(9.55951e-06 0.000136014 -1.4062e-05)
(2.32607e-05 9.66708e-05 -1.12606e-05)
(3.16147e-05 5.84884e-05 -8.91828e-06)
(3.1304e-05 2.94047e-05 -7.16137e-06)
(2.21888e-05 1.58284e-05 -6.18804e-06)
(7.50141e-06 1.59173e-05 -6.23138e-06)
(-7.2055e-06 2.54802e-05 -6.34999e-06)
(-1.51159e-05 3.71626e-05 -5.5284e-06)
(-1.30568e-05 4.50934e-05 -2.98461e-06)
(-2.84318e-06 5.14857e-05 8.82672e-07)
(1.00906e-05 5.64683e-05 4.46946e-06)
(2.05055e-05 6.23315e-05 6.66424e-06)
(2.65573e-05 6.9383e-05 6.66172e-06)
(2.88955e-05 7.40536e-05 5.09297e-06)
(2.97061e-05 7.38262e-05 3.65831e-06)
(3.06576e-05 6.66398e-05 3.35049e-06)
(3.12357e-05 5.13699e-05 4.21768e-06)
(2.8953e-05 3.12616e-05 5.88602e-06)
(2.02043e-05 1.37617e-05 6.73175e-06)
(3.40846e-06 6.86737e-06 4.84865e-06)
(-1.60337e-05 1.28009e-05 -2.76653e-07)
(-2.96285e-05 2.46448e-05 -5.06734e-06)
(-3.27695e-05 3.36536e-05 -6.37862e-06)
(-2.64273e-05 4.0396e-05 -5.65627e-06)
(-1.32423e-05 4.19906e-05 -3.83334e-06)
(-3.04655e-06 3.41342e-05 -2.60485e-06)
(-5.6542e-07 3.2966e-05 -1.29631e-05)
(-1.83482e-05 0.000138575 -1.83482e-05)
(-1.13086e-05 0.000205239 -1.46939e-05)
(1.61783e-05 0.000166549 -1.43349e-05)
(2.75385e-05 0.000132892 -1.22129e-05)
(4.19192e-05 9.38851e-05 -9.57296e-06)
(4.95566e-05 6.00065e-05 -6.68064e-06)
(4.83755e-05 3.83858e-05 -3.52304e-06)
(3.97863e-05 3.04367e-05 -5.52678e-07)
(2.76405e-05 3.10351e-05 2.08651e-06)
(1.66737e-05 3.37592e-05 5.33116e-06)
(9.77999e-06 3.42387e-05 9.12696e-06)
(6.38037e-06 3.01779e-05 1.29951e-05)
(3.06444e-06 2.83429e-05 1.61207e-05)
(-1.65112e-06 3.20758e-05 1.60634e-05)
(-6.16727e-06 4.14144e-05 1.26842e-05)
(-7.50659e-06 5.34113e-05 8.33572e-06)
(-2.75489e-06 6.19862e-05 4.70338e-06)
(6.76083e-06 6.25178e-05 2.92055e-06)
(1.67794e-05 5.57231e-05 3.06112e-06)
(2.18061e-05 4.31332e-05 3.9787e-06)
(1.6287e-05 3.08612e-05 3.90428e-06)
(-6.49595e-07 2.64659e-05 3.57849e-07)
(-2.2257e-05 3.15856e-05 -6.26293e-06)
(-3.81602e-05 4.00916e-05 -1.15644e-05)
(-4.06546e-05 4.30073e-05 -1.29737e-05)
(-3.12903e-05 4.10719e-05 -1.25264e-05)
(-1.84384e-05 4.2962e-05 -1.16486e-05)
(-7.84021e-06 4.77526e-05 -1.1972e-05)
(-1.04312e-05 6.07254e-05 -1.81156e-05)
(-8.94162e-06 6.11088e-05 -1.92893e-05)
(-1.31166e-05 0.000165913 -1.31166e-05)
(-1.81247e-06 0.000188993 -9.41036e-06)
(2.79304e-05 0.000155052 -7.7533e-06)
(4.22951e-05 0.000119627 -3.8418e-06)
(5.61077e-05 8.12173e-05 5.99318e-07)
(6.26288e-05 5.08119e-05 4.67762e-06)
(6.11965e-05 3.36928e-05 7.72549e-06)
(5.39618e-05 2.66005e-05 1.05265e-05)
(4.42687e-05 2.40785e-05 1.32778e-05)
(3.40647e-05 2.01746e-05 1.61225e-05)
(2.26916e-05 1.41114e-05 1.86434e-05)
(7.47789e-06 8.32139e-06 1.84162e-05)
(-1.08233e-05 1.03835e-05 1.51525e-05)
(-2.76233e-05 2.01814e-05 9.49214e-06)
(-3.78187e-05 3.47324e-05 2.38133e-06)
(-3.678e-05 4.50874e-05 -2.29518e-06)
(-2.48835e-05 5.04453e-05 -3.72488e-06)
(-8.10781e-06 4.95394e-05 -3.39468e-06)
(3.76518e-06 4.64721e-05 -1.96216e-06)
(3.64279e-06 4.42836e-05 -2.22516e-06)
(-8.75663e-06 4.69465e-05 -5.5797e-06)
(-2.70645e-05 5.50931e-05 -1.06649e-05)
(-3.99008e-05 6.20128e-05 -1.3663e-05)
(-3.94547e-05 5.81374e-05 -1.29829e-05)
(-2.81658e-05 4.55068e-05 -8.73022e-06)
(-1.63885e-05 3.8541e-05 -4.63952e-06)
(-1.01417e-05 4.48847e-05 -3.43335e-06)
(-9.95886e-06 6.22256e-05 -5.4578e-06)
(-1.0488e-05 8.78896e-05 -9.27712e-06)
(-5.01314e-06 6.92773e-05 -4.15426e-06)
(-4.65777e-06 0.000174112 -4.65777e-06)
(1.21014e-05 0.000160249 9.75491e-07)
(4.10046e-05 0.000130044 4.23104e-06)
(5.53193e-05 9.31693e-05 8.40412e-06)
(6.43678e-05 5.66663e-05 1.17841e-05)
(6.44693e-05 3.05561e-05 1.371e-05)
(5.78581e-05 1.68362e-05 1.45479e-05)
(4.84814e-05 1.07966e-05 1.41112e-05)
(3.82096e-05 7.96557e-06 1.36886e-05)
(2.59197e-05 5.61186e-06 1.3134e-05)
(9.34365e-06 5.49592e-06 1.16405e-05)
(-1.21896e-05 1.01226e-05 7.45097e-06)
(-3.5175e-05 2.22852e-05 1.03365e-06)
(-5.18943e-05 3.43425e-05 -4.71338e-06)
(-5.47811e-05 4.34422e-05 -7.02285e-06)
(-4.37867e-05 4.2879e-05 -7.49619e-06)
(-2.61847e-05 4.01091e-05 -5.15973e-06)
(-1.15807e-05 4.11488e-05 -3.08709e-06)
(-8.87882e-06 4.78448e-05 -3.36432e-06)
(-1.83428e-05 6.0356e-05 -7.19665e-06)
(-3.1997e-05 7.47918e-05 -1.25416e-05)
(-3.94935e-05 8.23915e-05 -1.54562e-05)
(-3.37824e-05 7.44612e-05 -1.33774e-05)
(-1.81757e-05 5.20139e-05 -6.59138e-06)
(-5.15625e-06 3.25554e-05 4.62964e-07)
(-3.86242e-06 3.14466e-05 1.59816e-06)
(-8.55062e-06 4.4981e-05 -3.35758e-07)
(-1.18369e-05 6.55672e-05 -4.36914e-07)
(-4.90506e-06 8.50952e-05 1.08128e-06)
(1.48453e-06 6.4189e-05 -7.88351e-07)
(5.12665e-06 0.00015732 5.12665e-06)
(2.60529e-05 0.000119184 1.04542e-05)
(4.89659e-05 9.35104e-05 1.34646e-05)
(5.80885e-05 6.04692e-05 1.56103e-05)
(5.73898e-05 3.11184e-05 1.5956e-05)
(4.80697e-05 1.30211e-05 1.42374e-05)
(3.5877e-05 4.71236e-06 1.13505e-05)
(2.49863e-05 2.01928e-06 8.6818e-06)
(1.55074e-05 2.82142e-06 6.95729e-06)
(4.05998e-06 7.63031e-06 5.53636e-06)
(-1.25275e-05 1.83399e-05 3.05004e-06)
(-3.20055e-05 3.27011e-05 -3.14185e-07)
(-4.71999e-05 4.50658e-05 -2.69273e-06)
(-5.16111e-05 4.72375e-05 -3.5131e-06)
(-4.34561e-05 4.02216e-05 -1.44296e-06)
(-2.83302e-05 2.86073e-05 2.14324e-06)
(-1.65246e-05 2.28683e-05 6.04902e-06)
(-1.576e-05 3.29127e-05 6.29088e-06)
(-2.57517e-05 5.4439e-05 1.15432e-06)
(-3.80701e-05 7.80598e-05 -5.67764e-06)
(-4.26073e-05 9.13372e-05 -9.4551e-06)
(-3.35364e-05 8.43267e-05 -8.1171e-06)
(-1.39521e-05 5.86617e-05 -1.32536e-06)
(6.12016e-07 3.1516e-05 3.90258e-06)
(-1.31833e-06 2.22872e-05 3.85872e-06)
(-1.2258e-05 3.30535e-05 -1.99884e-06)
(-1.9199e-05 4.76666e-05 -6.32518e-06)
(-1.77522e-05 6.03803e-05 -6.71552e-06)
(-7.8019e-06 7.20081e-05 -7.32628e-06)
(-4.51671e-07 5.88729e-05 -6.04366e-06)
(1.19507e-05 0.000118356 1.19507e-05)
(3.28529e-05 7.40954e-05 1.49811e-05)
(4.62501e-05 5.55053e-05 1.65446e-05)
(4.75406e-05 3.29805e-05 1.64284e-05)
(3.85004e-05 1.60269e-05 1.44026e-05)
(2.41392e-05 7.09921e-06 1.1299e-05)
(1.09264e-05 2.96104e-06 8.45405e-06)
(1.58943e-06 9.2492e-07 7.00568e-06)
(-6.24361e-06 3.24152e-06 6.42633e-06)
(-1.61629e-05 1.25279e-05 5.77836e-06)
(-2.84058e-05 2.78959e-05 4.40789e-06)
(-3.87992e-05 4.20765e-05 3.00134e-06)
(-4.12324e-05 4.48881e-05 3.21702e-06)
(-3.28767e-05 3.23683e-05 5.7185e-06)
(-1.87275e-05 1.21542e-05 9.45103e-06)
(-9.44619e-06 -1.14318e-06 1.28145e-05)
(-1.27082e-05 1.73697e-06 1.16696e-05)
(-2.51034e-05 2.76194e-05 6.72114e-06)
(-3.73674e-05 6.02829e-05 8.7623e-10)
(-4.04677e-05 8.04368e-05 -1.9587e-06)
(-2.86217e-05 7.84668e-05 1.18809e-06)
(-8.01256e-06 5.53928e-05 8.0414e-06)
(5.31411e-06 2.61568e-05 1.38865e-05)
(-9.83553e-07 1.33306e-05 1.32306e-05)
(-1.86747e-05 2.14912e-05 7.38944e-06)
(-3.0808e-05 3.73242e-05 2.46654e-06)
(-3.35072e-05 4.54681e-05 -8.07075e-07)
(-3.0596e-05 4.93357e-05 -3.52291e-06)
(-9.08689e-06 5.24698e-05 -9.66989e-07)
(4.97703e-06 3.71953e-05 1.39225e-05)
(1.45292e-05 6.94927e-05 1.45292e-05)
(3.18624e-05 3.4192e-05 1.67923e-05)
(3.6489e-05 2.34463e-05 1.75526e-05)
(3.24408e-05 1.44531e-05 1.64718e-05)
(1.98636e-05 9.47258e-06 1.40408e-05)
(5.02817e-06 5.44833e-06 1.1744e-05)
(-7.21015e-06 -1.17158e-07 1.01693e-05)
(-1.66625e-05 -4.73935e-06 9.51737e-06)
(-2.59057e-05 -2.13595e-06 8.54371e-06)
(-3.57485e-05 1.05609e-05 6.55351e-06)
(-4.26189e-05 2.66984e-05 3.74102e-06)
(-4.17134e-05 3.47734e-05 2.33973e-06)
(-3.08446e-05 2.51527e-05 3.50291e-06)
(-1.45546e-05 2.72873e-06 6.07461e-06)
(-3.46076e-06 -1.77842e-05 8.30497e-06)
(-5.60013e-06 -1.92448e-05 6.75369e-06)
(-1.70446e-05 6.84887e-07 1.6014e-06)
(-2.68701e-05 3.22143e-05 -2.74726e-06)
(-2.62958e-05 5.77277e-05 -2.04519e-06)
(-1.05152e-05 6.00244e-05 3.72739e-06)
(1.23751e-05 4.0949e-05 1.19738e-05)
(2.41105e-05 1.41518e-05 1.88706e-05)
(1.42274e-05 2.88404e-08 1.95504e-05)
(-1.03635e-05 9.34878e-06 1.3543e-05)
(-2.99668e-05 2.0074e-05 9.96584e-06)
(-3.55763e-05 2.43942e-05 1.21282e-05)