/*--------------------------------*- C++ -*----------------------------------*\
| =========                 |                                                 |
| \\      /  F ield         | OpenFOAM: The Open Source CFD Toolbox           |
|  \\    /   O peration     | Version:  2312                                  |
|   \\  /    A nd           | Website:  www.openfoam.com                      |
|    \\/     M anipulation  |                                                 |
\*---------------------------------------------------------------------------*/
FoamFile
{
    version     2.0;
    format      ascii;
    arch        "LSB;label=32;scalar=64";
    class       surfaceScalarField;
    location    "0.303149";
    object      alphaPhi0.water;
}
// * * * * * * * * * * * * * * * * * * * * * * * * * * * * * * * * * * * * * //

dimensions      [0 3 -1 0 0 0 0];

oriented        oriented;

internalField   nonuniform List<scalar> 
263100
(
1.19213e-10
-2.38423e-10
1.19213e-10
-2.5942e-11
1.14643e-10
4.01364e-11
-8.89394e-11
3.28097e-11
3.80175e-11
-1.11412e-10
8.09173e-12
2.20403e-11
-1.1437e-10
-1.11707e-11
2.17167e-11
-9.34618e-11
-3.58738e-11
2.24791e-11
-5.11043e-11
-5.92469e-11
2.43217e-11
-2.47924e-12
-6.98635e-11
2.85985e-11
3.58921e-11
-6.26604e-11
3.16e-11
5.36181e-11
-3.71936e-11
2.67417e-11
4.70973e-11
1.70038e-12
1.20822e-11
2.74241e-11
3.51805e-11
-8.26187e-12
1.319e-11
5.87382e-11
-3.72718e-11
2.10438e-11
6.5272e-11
-6.59112e-11
6.22416e-11
4.84429e-11
-8.24347e-11
1.27244e-10
2.39952e-11
-8.17723e-11
1.94482e-10
-6.24374e-12
-5.3725e-11
2.40188e-10
-2.68658e-11
-1.15092e-11
2.34065e-10
-2.54107e-11
3.89395e-11
1.56101e-10
2.42757e-12
8.30138e-11
3.74886e-12
4.91437e-11
1.10739e-10
-2.04655e-10
9.34143e-11
1.22549e-10
-4.48325e-10
1.37348e-10
1.13895e-10
-6.78434e-10
1.48099e-10
8.95983e-11
-8.22659e-10
9.8973e-11
5.28497e-11
-8.38284e-10
-6.0029e-12
2.92473e-11
-7.08778e-10
-1.40606e-10
1.87553e-11
-4.46245e-10
-2.96469e-10
4.16256e-11
-8.29208e-11
-4.43484e-10
8.7881e-11
-4.7642e-10
4.01253e-10
-3.58488e-11
-1.57185e-10
-3.58488e-11
-1.77085e-12
1.08355e-10
-1.19862e-11
3.1833e-11
2.1378e-11
-8.01626e-12
5.5048e-11
-4.71797e-12
3.55995e-12
7.80631e-11
-3.61681e-11
1.5808e-11
9.81445e-11
-6.82157e-11
2.5946e-11
1.15908e-10
-9.70139e-11
3.35625e-11
1.31247e-10
-1.07604e-10
3.5851e-11
1.41242e-10
-9.18081e-11
3.25456e-11
1.47647e-10
-5.74294e-11
2.71783e-11
1.54611e-10
-1.41501e-11
2.22151e-11
1.5795e-10
2.63228e-11
1.88313e-11
1.58429e-10
4.96315e-11
2.1921e-11
1.54235e-10
5.07017e-11
3.20647e-11
1.37877e-10
3.30372e-11
4.51075e-11
1.0737e-10
8.88627e-12
5.90361e-11
6.16473e-11
-6.37562e-12
5.93796e-11
1.7058e-12
4.14505e-13
4.63115e-11
-7.09861e-11
3.45539e-11
2.65e-11
-1.49931e-10
9.52457e-11
-5.51888e-15
-2.12251e-10
1.46898e-10
-2.15042e-11
-2.6787e-10
1.87014e-10
-2.40082e-11
-2.92007e-10
1.87639e-10
-1.21489e-11
-2.64963e-10
1.27622e-10
7.46773e-12
-2.17279e-10
1.07901e-11
5.45797e-11
-1.26823e-10
-1.94729e-10
1.12411e-10
7.60045e-12
-4.26047e-10
1.65227e-10
1.07392e-10
-5.70638e-10
1.88667e-10
6.03927e-11
-6.09247e-10
2.27157e-10
-6.29819e-10
2.2589e-10
-2.29072e-12
-1.44706e-10
-2.29072e-12
1.22547e-10
-2.36742e-11
2.18879e-11
2.06333e-10
-8.45679e-11
3.52422e-11
2.6205e-10
-9.50872e-11
4.75504e-11
2.885e-10
-1.07282e-10
5.74321e-11
2.91949e-10
-1.20544e-10
6.15136e-11
2.78348e-10
-1.28872e-10
5.79905e-11
2.60033e-10
-1.26032e-10
4.91786e-11
2.48928e-10
-1.08593e-10
4.02837e-11
2.49247e-10
-7.81909e-11
3.28154e-11
2.61851e-10
-4.78531e-11
3.34679e-11
2.73731e-10
-1.76593e-11
4.44881e-11
2.68159e-10
3.16214e-12
6.44616e-11
2.27723e-10
1.83619e-11
8.5246e-11
1.43309e-10
3.0796e-11
9.91913e-11
1.81364e-11
4.90245e-11
9.76508e-11
-1.28309e-10
7.36163e-11
7.91685e-11
-2.68643e-10
1.07618e-10
4.59537e-11
-3.68731e-10
1.47458e-10
1.05933e-13
-3.98417e-10
1.80224e-10
-4.22844e-11
-3.52694e-10
1.87003e-10
-7.2742e-11
-2.32986e-10
1.65324e-10
-8.48717e-11
-6.19271e-11
1.04208e-10
-7.44275e-11
1.27309e-10
-1.23629e-11
-3.60008e-11
2.9645e-10
-1.64366e-10
1.93191e-11
3.91818e-10
-3.59154e-10
8.24205e-11
3.84963e-10
-5.36352e-10
1.30584e-10
3.32572e-10
-6.29161e-10
1.24386e-10
1.14112e-10
-4.50221e-10
7.29406e-11
-4.21779e-10
-8.24392e-11
4.93573e-11
-2.35427e-10
4.93573e-11
2.31241e-10
-2.72292e-10
8.2065e-11
3.44451e-10
-2.8e-10
9.58166e-11
4.17996e-10
-2.62913e-10
1.07672e-10
4.47539e-10
-2.3607e-10
1.12506e-10
4.40489e-10
-2.07564e-10
1.07194e-10
4.1022e-10
-1.79854e-10
9.42802e-11
3.70905e-10
-1.51143e-10
7.73693e-11
3.38287e-10
-1.23955e-10
6.08834e-11
3.20944e-10
-9.92606e-11
5.13044e-11
3.10384e-10
-7.46819e-11
5.03101e-11
2.97386e-10
-5.20446e-11
6.03702e-11
2.58825e-10
-2.02447e-11
7.50361e-11
1.80144e-10
2.35519e-11
8.66511e-11
5.81434e-11
7.98415e-11
8.62171e-11
-9.78877e-11
1.43418e-10
7.50049e-11
-2.62424e-10
2.00874e-10
5.07556e-11
-3.99657e-10
2.40563e-10
1.78775e-11
-4.72511e-10
2.46623e-10
-1.26021e-11
-4.60227e-10
2.17141e-10
-3.53687e-11
-3.58286e-10
1.54556e-10
-5.55365e-11
-1.71296e-10
5.65274e-11
-6.41151e-11
6.08046e-11
-6.32956e-11
-5.04115e-11
2.76045e-10
-1.83105e-10
-3.02181e-11
4.30415e-10
-2.96263e-10
-8.10149e-12
4.57945e-10
-3.7961e-10
7.39846e-12
3.4937e-10
-4.16877e-10
3.69361e-12
1.897e-10
-4.33327e-10
-2.14358e-11
2.22086e-11
-2.02954e-10
-6.49644e-11
-1.89272e-10
-1.97703e-10
1.18489e-10
-4.64027e-10
1.18489e-10
3.15174e-10
-6.05907e-10
1.53427e-10
4.42133e-10
-5.57752e-10
1.65364e-10
5.24888e-10
-4.98035e-10
1.66707e-10
5.63476e-10
-4.1851e-10
1.58057e-10
5.62237e-10
-3.33742e-10
1.41473e-10
5.29381e-10
-2.53432e-10
1.2038e-10
4.78012e-10
-1.8344e-10
9.75049e-11
4.22502e-10
-1.33873e-10
7.92095e-11
3.67008e-10
-9.85216e-11
6.85282e-11
3.10472e-10
-7.00288e-11
6.56951e-11
2.43287e-10
-3.54259e-11
6.44679e-11
1.59595e-10
1.49309e-11
6.25363e-11
5.22924e-11
8.72578e-11
5.77555e-11
-7.18407e-11
1.71463e-10
4.68216e-11
-2.03454e-10
2.56556e-10
3.29383e-11
-3.17749e-10
3.06325e-10
2.34653e-11
-3.96767e-10
3.15768e-10
1.86131e-11
-4.21076e-10
2.69391e-10
1.65389e-11
-3.80047e-10
1.75227e-10
1.60946e-11
-2.7328e-10
4.4447e-11
1.87753e-11
-1.19123e-10
-1.04162e-10
2.21853e-11
4.22113e-11
-2.38463e-10
2.96924e-11
1.68593e-10
-3.26286e-10
3.2848e-11
2.31429e-10
-3.46164e-10
3.29695e-12
2.06891e-10
-2.98641e-10
-4.00137e-11
9.14825e-11
-1.95495e-10
-8.93569e-11
-7.56937e-11
-1.13377e-10
-1.35923e-10
-1.50408e-10
7.53869e-11
-1.8657e-10
-7.0239e-11
-2.54843e-10
1.79857e-10
-8.14724e-10
1.79857e-10
3.56313e-10
-9.64165e-10
2.00148e-10
4.88574e-10
-8.71859e-10
1.9799e-10
5.854e-10
-7.62768e-10
1.83775e-10
6.44373e-10
-6.24825e-10
1.63046e-10
6.63855e-10
-4.75624e-10
1.37908e-10
6.48901e-10
-3.36857e-10
1.13718e-10
6.02289e-10
-2.18474e-10
9.68295e-11
5.27033e-10
-1.29737e-10
8.61916e-11
4.26189e-10
-6.30817e-11
8.04218e-11
3.05992e-10
-8.71168e-12
7.39096e-11
1.74027e-10
4.52866e-11
6.63598e-11
3.92188e-11
1.08771e-10
5.62106e-11
-8.2477e-11
1.80536e-10
4.38379e-11
-1.80326e-10
2.48996e-10
3.5948e-11
-2.51791e-10
3.07294e-10
3.65975e-11
-2.96491e-10
3.20597e-10
4.65705e-11
-3.07666e-10
2.77713e-10
6.56804e-11
-2.93963e-10
1.85021e-10
8.74523e-11
-2.5345e-10
3.89533e-11
1.12907e-10
-2.0129e-10
-1.2777e-10
1.37584e-10
-1.55132e-10
-2.88197e-10
1.55789e-10
-1.2987e-10
-3.93729e-10
1.48296e-10
-1.32643e-10
-4.11478e-10
1.06628e-10
-1.67794e-10
-3.42444e-10
5.04556e-11
-2.15389e-10
-2.03362e-10
-2.82964e-11
-2.61809e-10
-3.02311e-11
-9.9088e-11
-2.99114e-10
1.03393e-10
-1.59342e-10
-2.36658e-10
2.11796e-10
-1.78405e-10
-1.15627e-10
-1.73638e-10
1.88331e-10
-1.18133e-09
1.88331e-10
3.50728e-10
-1.29372e-09
1.88296e-10
4.95089e-10
-1.16562e-09
1.67958e-10
6.19574e-10
-1.01102e-09
1.41969e-10
7.19639e-10
-8.21763e-10
1.14825e-10
7.88353e-10
-6.212e-10
9.45216e-11
8.12981e-10
-4.29194e-10
8.50851e-11
7.82981e-10
-2.57511e-10
8.61427e-11
6.92826e-10
-1.16574e-10
9.38691e-11
5.47525e-10
-2.68494e-12
1.01627e-10
3.62442e-10
9.04178e-11
1.02604e-10
1.64811e-10
1.65335e-10
9.42483e-11
-1.41612e-11
2.21762e-10
8.27535e-11
-1.50731e-10
2.58799e-10
7.52746e-11
-2.34019e-10
2.71586e-10
7.79412e-11
-2.64775e-10
2.62207e-10
9.34389e-11
-2.60538e-10
2.18537e-10
1.15842e-10
-2.38947e-10
1.25792e-10
1.48834e-10
-2.17266e-10
-9.5982e-12
1.91976e-10
-2.18226e-10
-1.72297e-10
2.31824e-10
-2.52163e-10
-3.37305e-10
2.63696e-10
-3.18463e-10
-4.62449e-10
2.61422e-10
-4.10723e-10
-5.08759e-10
2.28827e-10
-5.07985e-10
-4.69695e-10
1.77685e-10
-5.86973e-10
-3.5137e-10
1.10793e-10
-6.12811e-10
-1.90407e-10
3.64204e-11
-5.64924e-10
-4.19337e-11
-1.20194e-11
-4.47263e-10
4.29377e-11
-3.24498e-11
-2.52936e-10
7.09639e-11
-2.82168e-11
-3.36223e-10
-1.04451e-11
1.30234e-10
-1.43015e-09
1.30234e-10
3.21224e-10
-1.57587e-09
1.16275e-10
4.98359e-10
-1.41249e-09
9.1758e-11
6.71566e-10
-1.23325e-09
7.05703e-11
8.31213e-10
-1.01859e-09
5.83333e-11
9.59165e-10
-7.88235e-10
5.97899e-11
1.03035e-09
-5.56437e-10
7.62973e-11
1.02443e-09
-3.32744e-10
1.00927e-10
9.29544e-10
-1.28401e-10
1.26073e-10
7.51508e-10
4.533e-11
1.4903e-10
5.19611e-10
1.76818e-10
1.64253e-10
2.73012e-10
2.62388e-10
1.68159e-10
5.27764e-11
2.94495e-10
1.66118e-10
-1.15179e-10
2.81019e-10
1.64502e-10
-2.23266e-10
2.27252e-10
1.71494e-10
-2.72708e-10
1.39491e-10
1.91682e-10
-2.86427e-10
2.78019e-11
2.24557e-10
-2.93733e-10
-1.08909e-10
2.62795e-10
-3.22765e-10
-2.58536e-10
2.99537e-10
-3.82862e-10
-4.11462e-10
3.21701e-10
-4.75911e-10
-5.38747e-10
3.17892e-10
-5.9989e-10
-6.11776e-10
2.97747e-10
-7.29163e-10
-6.18762e-10
2.64821e-10
-8.35072e-10
-5.60089e-10
2.22985e-10
-8.83613e-10
-4.52332e-10
1.77313e-10
-8.47428e-10
-3.3987e-10
1.42178e-10
-7.17622e-10
-2.63341e-10
1.21526e-10
-5.06674e-10
-2.51015e-10
1.13843e-10
-2.20167e-10
-3.01002e-10
1.17051e-10
-6.8132e-10
1.5238e-10
6.19453e-11
-1.5401e-09
6.19453e-11
3.12045e-10
-1.84954e-09
5.40118e-11
5.38835e-10
-1.6564e-09
4.38437e-11
7.70521e-10
-1.47982e-09
4.0975e-11
9.89781e-10
-1.2626e-09
5.02483e-11
1.16999e-09
-1.01642e-09
7.27997e-11
1.27828e-09
-7.48655e-10
1.08002e-10
1.28927e-09
-4.72105e-10
1.51709e-10
1.19516e-09
-2.05937e-10
1.94252e-10
1.01048e-09
2.65332e-11
2.25403e-10
7.64109e-10
1.97528e-10
2.47011e-10
4.96185e-10
2.88172e-10
2.63052e-10
2.38922e-10
2.95205e-10
2.77233e-10
1.60423e-11
2.32511e-10
2.92067e-10
-1.66801e-10
1.21719e-10
3.09297e-10
-3.12268e-10
-1.77529e-11
3.24113e-10
-4.33601e-10
-1.68068e-10
3.393e-10
-5.43149e-10
-3.21494e-10
3.45124e-10
-6.46787e-10
-4.68372e-10
3.37553e-10
-7.51537e-10
-5.96646e-10
3.15287e-10
-8.5484e-10
-6.98716e-10
2.90074e-10
-9.48477e-10
-7.54689e-10
2.64946e-10
-1.01805e-09
-7.64572e-10
2.4549e-10
-1.04704e-09
-7.35307e-10
2.36064e-10
-1.01878e-09
-6.87262e-10
2.40284e-10
-9.17581e-10
-6.50986e-10
2.45189e-10
-7.35766e-10
-6.56252e-10
2.47883e-10
-4.82069e-10
-7.22921e-10
2.56306e-10
-1.80867e-10
-8.33398e-10
2.70341e-10
-1.12678e-09
2.9852e-10
4.84348e-11
-1.61992e-09
4.84348e-11
3.61104e-10
-2.18268e-09
5.75241e-11
6.35613e-10
-1.96214e-09
6.38779e-11
9.12804e-10
-1.80579e-09
8.06533e-11
1.16434e-09
-1.5944e-09
1.11332e-10
1.36042e-09
-1.33433e-09
1.51948e-10
1.47273e-09
-1.02807e-09
1.96122e-10
1.48659e-09
-6.95917e-10
2.37795e-10
1.40562e-09
-3.69354e-10
2.71016e-10
1.24542e-09
-8.23631e-11
2.94537e-10
1.02408e-09
1.29042e-10
3.14189e-10
7.65852e-10
2.35062e-10
3.34784e-10
4.83882e-10
2.41412e-10
3.58572e-10
1.92768e-10
1.65898e-10
3.80223e-10
-1.04526e-10
4.87045e-11
3.9284e-10
-4.00177e-10
-9.17916e-11
3.92617e-10
-6.75938e-10
-2.44637e-10
3.76009e-10
-9.11602e-10
-3.96516e-10
3.35462e-10
-1.09289e-09
-5.49092e-10
2.88222e-10
-1.21518e-09
-6.89705e-10
2.43341e-10
-1.27419e-09
-8.23018e-10
2.13332e-10
-1.28228e-09
-9.19844e-10
2.05535e-10
-1.24878e-09
-9.78745e-10
2.15389e-10
-1.17826e-09
-1.00754e-09
2.38886e-10
-1.06235e-09
-1.03019e-09
2.66625e-10
-8.94761e-10
-1.07065e-09
2.93967e-10
-6.7169e-10
-1.15553e-09
3.20149e-10
-4.10554e-10
-1.28015e-09
3.41733e-10
-1.41847e-10
-1.41206e-09
3.56834e-10
-1.59943e-09
3.71061e-10
1.19776e-10
-1.83852e-09
1.19776e-10
4.85549e-10
-2.65296e-09
1.49111e-10
7.83017e-10
-2.39418e-09
1.74133e-10
1.06072e-09
-2.24824e-09
2.03428e-10
1.28808e-09
-2.02731e-09
2.43227e-10
1.44584e-09
-1.7385e-09
2.82807e-10
1.5272e-09
-1.38774e-09
3.13177e-10
1.54053e-09
-1.00156e-09
3.2547e-10
1.49735e-09
-6.20053e-10
3.25184e-10
1.39981e-09
-2.84075e-10
3.28693e-10
1.24326e-09
-2.8528e-11
3.41794e-10
1.02048e-09
1.2345e-10
3.60521e-10
7.25837e-10
1.76714e-10
3.84244e-10
3.56558e-10
1.58334e-10
4.00939e-10
-6.56793e-11
9.56136e-11
3.99084e-10
-5.06277e-10
7.22642e-13
3.72009e-10
-9.23209e-10
-1.27669e-10
3.24598e-10
-1.26944e-09
-2.93192e-10
2.68789e-10
-1.5032e-09
-4.96883e-10
2.09204e-10
-1.618e-09
-7.20204e-10
1.75201e-10
-1.63456e-09
-9.39525e-10
1.65593e-10
-1.57774e-09
-1.12195e-09
1.80697e-10
-1.46688e-09
-1.26047e-09
2.09356e-10
-1.31137e-09
-1.36594e-09
2.44469e-10
-1.11678e-09
-1.46e-09
2.79832e-10
-8.81072e-10
-1.57155e-09
3.12588e-10
-6.16825e-10
-1.71188e-09
3.4189e-10
-3.49602e-10
-1.86301e-09
3.67274e-10
-1.10626e-10
-1.98332e-09
3.85057e-10
-2.06654e-09
4.01039e-10
3.02026e-10
-2.41714e-09
3.02026e-10
6.49669e-10
-3.28272e-09
3.34277e-10
9.22283e-10
-2.99279e-09
3.72667e-10
1.14341e-09
-2.82118e-09
3.976e-10
1.29809e-09
-2.56598e-09
4.28644e-10
1.39373e-09
-2.22338e-09
4.32351e-10
1.44907e-09
-1.81423e-09
4.12286e-10
1.48125e-09
-1.37406e-09
3.7916e-10
1.49593e-09
-9.48794e-10
3.50415e-10
1.48418e-09
-5.73231e-10
3.34646e-10
1.40951e-09
-2.67048e-10
3.44439e-10
1.23034e-09
-3.21012e-11
3.63694e-10
9.23989e-10
1.35088e-10
3.75021e-10
4.92536e-10
2.38191e-10
3.77191e-10
-2.46773e-11
2.77073e-10
3.60476e-10
-5.6845e-10
2.46326e-10
3.22686e-10
-1.07525e-09
1.28955e-10
2.75214e-10
-1.48098e-09
-8.87129e-11
2.27529e-10
-1.74639e-09
-3.94013e-10
1.90758e-10
-1.88313e-09
-7.35952e-10
1.83239e-10
-1.9062e-09
-1.07578e-09
1.93043e-10
-1.83829e-09
-1.37076e-09
2.17898e-10
-1.70095e-09
-1.60672e-09
2.49322e-10
-1.50358e-09
-1.79773e-09
2.78246e-10
-1.24959e-09
-1.97179e-09
3.04848e-10
-9.51007e-10
-2.15187e-09
3.31611e-10
-6.35837e-10
-2.33467e-09
3.597e-10
-3.45725e-10
-2.49016e-09
3.90549e-10
-1.07242e-10
-2.58243e-09
4.14731e-10
-2.56782e-09
4.3845e-10
5.48187e-10
-3.48358e-09
5.48187e-10
7.8516e-10
-4.02676e-09
5.65132e-10
1.00486e-09
-3.74959e-09
5.89625e-10
1.15558e-09
-3.49731e-09
5.7718e-10
1.24744e-09
-3.16334e-09
5.56161e-10
1.30458e-09
-2.74629e-09
5.1477e-10
1.35883e-09
-2.28283e-09
4.61176e-10
1.43271e-09
-1.81201e-09
4.08252e-10
1.52007e-09
-1.36678e-09
3.71854e-10
1.58586e-09
-9.62445e-10
3.61545e-10
1.56486e-09
-5.81044e-10
3.70048e-10
1.40294e-09
-2.24703e-10
3.86679e-10
1.0721e-09
9.54405e-11
4.00056e-10
5.98379e-10
3.55884e-10
3.83497e-10
3.75345e-11
5.13165e-10
3.50744e-10
-5.44987e-10
5.303e-10
3.23835e-10
-1.07912e-09
3.9263e-10
2.95885e-10
-1.50518e-09
8.77264e-11
2.76019e-10
-1.8118e-09
-3.35652e-10
2.76407e-10
-2.00345e-09
-8.05796e-10
2.9201e-10
-2.09311e-09
-1.26729e-09
3.14501e-10
-2.08864e-09
-1.67224e-09
3.33399e-10
-1.98902e-09
-2.01456e-09
3.47739e-10
-1.78871e-09
-2.31436e-09
3.58792e-10
-1.49462e-09
-2.59345e-09
3.72597e-10
-1.14105e-09
-2.85351e-09
3.95009e-10
-7.76809e-10
-3.07592e-09
4.2508e-10
-4.46045e-10
-3.22685e-09
4.54255e-10
-1.65347e-10
-3.29037e-09
4.7496e-10
-3.19302e-09
4.97011e-10
7.56956e-10
-4.96408e-09
7.56956e-10
8.9071e-10
-4.80023e-09
6.99684e-10
1.06841e-09
-4.54568e-09
6.73294e-10
1.19833e-09
-4.2134e-09
6.40622e-10
1.28181e-09
-3.78874e-09
5.95588e-10
1.35353e-09
-3.30781e-09
5.42111e-10
1.44809e-09
-2.81603e-09
4.89016e-10
1.57883e-09
-2.34323e-09
4.48436e-10
1.71593e-09
-1.89337e-09
4.34663e-10
1.79913e-09
-1.44682e-09
4.43339e-10
1.75845e-09
-9.63802e-10
4.62479e-10
1.55297e-09
-4.57716e-10
4.74455e-10
1.18317e-09
3.08509e-11
4.67466e-10
6.8783e-10
4.3457e-10
4.4722e-10
1.23773e-10
6.71065e-10
4.34788e-10
-4.36781e-10
7.02961e-10
4.15299e-10
-9.55978e-10
5.27495e-10
4.1131e-10
-1.40873e-09
1.38898e-10
4.289e-10
-1.7865e-09
-3.87666e-10
4.58129e-10
-2.0827e-09
-9.66013e-10
4.86285e-10
-2.29051e-09
-1.53125e-09
5.03471e-10
-2.39177e-09
-2.05109e-09
5.13707e-10
-2.35846e-09
-2.52022e-09
5.07655e-10
-2.17346e-09
-2.95848e-09
4.95656e-10
-1.86249e-09
-3.36396e-09
4.96607e-10
-1.47782e-09
-3.71653e-09
5.15119e-10
-1.07626e-09
-3.98107e-09
5.39194e-10
-6.92693e-10
-4.1356e-09
5.5885e-10
-3.28876e-10
-4.18897e-09
5.65944e-10
-4.05783e-09
5.56872e-10
8.2013e-10
-6.56996e-09
8.2013e-10
9.4844e-10
-5.58745e-09
7.13996e-10
1.17634e-09
-5.39223e-09
6.69856e-10
1.37895e-09
-4.99232e-09
6.27512e-10
1.55058e-09
-4.49729e-09
5.88084e-10
1.71668e-09
-3.98086e-09
5.57684e-10
1.88921e-09
-3.48418e-09
5.45554e-10
2.0608e-09
-3.0171e-09
5.51e-10
2.17433e-09
-2.53997e-09
5.80222e-10
2.17922e-09
-2.00913e-09
6.02643e-10
2.03033e-09
-1.39409e-09
6.22262e-10
1.72028e-09
-7.27349e-10
6.20397e-10
1.28271e-09
-9.00381e-11
5.96781e-10
7.71026e-10
4.15626e-10
5.66673e-10
2.26405e-10
6.90787e-10
5.58979e-10
-3.15266e-10
7.10661e-10
5.66506e-10
-8.39278e-10
4.82459e-10
6.00502e-10
-1.34401e-09
3.0014e-11
6.44417e-10
-1.8204e-09
-5.65068e-10
6.84265e-10
-2.24694e-09
-1.21635e-09
7.07177e-10
-2.5882e-09
-1.86769e-09
7.07743e-10
-2.79096e-09
-2.50808e-09
6.89202e-10
-2.81307e-09
-3.1351e-09
6.65192e-10
-2.65409e-09
-3.74199e-09
6.50615e-10
-2.35125e-09
-4.29463e-09
6.50797e-10
-1.9577e-09
-4.74499e-09
6.53842e-10
-1.52129e-09
-5.05744e-09
6.54157e-10
-1.06576e-09
-5.22888e-09
6.46879e-10
-5.81862e-10
-5.29182e-09
6.23116e-10
-5.22467e-09
5.81135e-10
7.78161e-10
-8.09525e-09
7.78161e-10
1.07472e-09
-6.51511e-09
6.72174e-10
1.45754e-09
-6.37263e-09
6.36651e-10
1.82684e-09
-5.9306e-09
6.08976e-10
2.16184e-09
-5.3987e-09
6.076e-10
2.46409e-09
-4.86992e-09
6.29321e-10
2.71625e-09
-4.36311e-09
6.7062e-10
2.87894e-09
-3.85416e-09
7.19388e-10
2.89464e-09
-3.2778e-09
7.68182e-10
2.73087e-09
-2.59804e-09
7.99369e-10
2.40016e-09
-1.81929e-09
8.02825e-10
1.94163e-09
-1.00647e-09
7.84335e-10
1.41504e-09
-2.70829e-10
7.53441e-10
8.66748e-10
2.72323e-10
7.36699e-10
3.05548e-10
5.5009e-10
7.45812e-10
-2.64348e-10
5.43062e-10
7.80008e-10
-8.46206e-10
2.77856e-10
8.27337e-10
-1.44768e-09
-2.03684e-10
8.74135e-10
-2.05324e-09
-8.24955e-10
9.02125e-10
-2.61444e-09
-1.52324e-09
9.01938e-10
-3.05801e-09
-2.27252e-09
8.78676e-10
-3.3226e-09
-3.06382e-09
8.46002e-10
-3.38051e-09
-3.87648e-09
8.19164e-10
-3.24652e-09
-4.66469e-09
8.01505e-10
-2.96312e-09
-5.36199e-09
7.88569e-10
-2.57273e-09
-5.91201e-09
7.72297e-10
-2.09789e-09
-6.29202e-09
7.46287e-10
-1.54007e-09
-6.51856e-09
7.09789e-10
-8.81596e-10
-6.64175e-09
6.62056e-10
-6.7527e-09
6.1369e-10
7.3146e-10
-9.536e-09
7.3146e-10
1.34614e-09
-7.77455e-09
6.62853e-10
1.97551e-09
-7.65209e-09
6.68547e-10
2.57247e-09
-7.18325e-09
6.75914e-10
3.11232e-09
-6.63898e-09
7.23592e-10
3.56213e-09
-6.07757e-09
7.84777e-10
3.85985e-09
-5.48842e-09
8.58998e-10
3.9442e-09
-4.83234e-09
9.30134e-10
3.7966e-09
-4.06698e-09
9.78171e-10
3.42617e-09
-3.18393e-09
1.00251e-09
2.89259e-09
-2.22979e-09
9.94568e-10
2.27713e-09
-1.30272e-09
9.65774e-10
1.63953e-09
-5.2576e-10
9.49309e-10
1.00098e-09
1.22263e-11
9.57137e-10
3.48012e-10
2.73114e-10
9.89092e-10
-3.34837e-10
2.5091e-10
1.03356e-09
-1.05439e-09
-2.23347e-11
1.07641e-09
-1.80863e-09
-5.00941e-10
1.10487e-09
-2.55373e-09
-1.14161e-09
1.11039e-09
-3.21739e-09
-1.90973e-09
1.09248e-09
-3.72405e-09
-2.79351e-09
1.06199e-09
-4.02697e-09
-3.76743e-09
1.0311e-09
-4.11604e-09
-4.77862e-09
1.00432e-09
-4.01165e-09
-5.74804e-09
9.79224e-10
-3.74197e-09
-6.59444e-09
9.49305e-10
-3.32266e-09
-7.26839e-09
9.09733e-10
-2.75122e-09
-7.7644e-09
8.60413e-10
-2.02034e-09
-8.10825e-09
8.0708e-10
-1.13388e-09
-8.35735e-09
7.69329e-10
-8.71309e-09
7.70455e-10
8.0677e-10
-1.1142e-08
8.0677e-10
1.78302e-09
-9.59037e-09
8.28468e-10
2.70418e-09
-9.44472e-09
8.63216e-10
3.55571e-09
-8.9236e-09
8.83332e-10
4.29789e-09
-8.32227e-09
9.40388e-10
4.85903e-09
-7.6476e-09
1.01484e-09
5.16019e-09
-6.87433e-09
1.09904e-09
5.15201e-09
-5.96896e-09
1.1686e-09
4.8419e-09
-4.93335e-09
1.21048e-09
4.28552e-09
-3.8081e-09
1.22478e-09
3.5752e-09
-2.68517e-09
1.21968e-09
2.7982e-09
-1.67879e-09
1.21589e-09
2.00182e-09
-8.85913e-10
1.22677e-09
1.18745e-09
-3.56832e-10
1.2593e-09
3.41457e-10
-1.05337e-10
1.30372e-09
-5.51141e-10
-1.21567e-10
1.34523e-09
-1.48215e-09
-3.84986e-10
1.37198e-09
-2.42118e-09
-8.67831e-10
1.3796e-09
-3.30375e-09
-1.55589e-09
1.36305e-09
-4.05546e-09
-2.43745e-09
1.33536e-09
-4.61792e-09
-3.49352e-09
1.30551e-09
-4.96024e-09
-4.67303e-09
1.27577e-09
-5.07917e-09
-5.89232e-09
1.24358e-09
-4.98535e-09
-7.0523e-09
1.20352e-09
-4.68174e-09
-8.07773e-09
1.15486e-09
-4.16051e-09
-8.93095e-09
1.09971e-09
-3.41449e-09
-9.61038e-09
1.044e-09
-2.44844e-09
-1.01593e-08
1.01833e-09
-1.30383e-09
-1.0601e-08
1.02669e-09
-1.11244e-08
1.04691e-09
1.07179e-09
-1.32963e-08
1.07179e-09
2.397e-09
-1.20738e-08
1.1185e-09
3.60272e-09
-1.18265e-08
1.14089e-09
4.69463e-09
-1.12237e-08
1.17682e-09
5.60582e-09
-1.04979e-08
1.23984e-09
6.24914e-09
-9.62328e-09
1.31734e-09
6.54885e-09
-8.57269e-09
1.39577e-09
6.47294e-09
-7.34209e-09
1.46021e-09
6.04777e-09
-5.98536e-09
1.5037e-09
5.35389e-09
-4.60201e-09
1.53013e-09
4.48853e-09
-3.31309e-09
1.55115e-09
3.52446e-09
-2.22307e-09
1.5807e-09
2.49439e-09
-1.3928e-09
1.62186e-09
1.4067e-09
-8.38678e-10
1.66429e-09
2.63955e-10
-5.63043e-10
1.70168e-09
-9.21412e-10
-5.57372e-10
1.72492e-09
-2.11195e-09
-8.18233e-10
1.72583e-09
-3.25498e-09
-1.34073e-09
1.71194e-09
-4.2884e-09
-2.12222e-09
1.68555e-09
-5.14662e-09
-3.15919e-09
1.65172e-09
-5.784e-09
-4.41485e-09
1.61331e-09
-6.17604e-09
-5.81436e-09
1.56867e-09
-6.31225e-09
-7.25822e-09
1.51713e-09
-6.18148e-09
-8.64654e-09
1.45863e-09
-5.76832e-09
-9.90928e-09
1.39547e-09
-5.06088e-09
-1.10159e-08
1.33977e-09
-4.0718e-09
-1.19697e-08
1.32212e-09
-2.83007e-09
-1.27739e-08
1.31993e-09
-1.42567e-09
-1.33949e-08
1.33705e-09
-1.39405e-08
1.35647e-09
1.43443e-09
-1.61932e-08
1.43443e-09
3.10094e-09
-1.52733e-08
1.47536e-09
4.59841e-09
-1.48768e-08
1.50088e-09
5.93585e-09
-1.41557e-08
1.54725e-09
7.02218e-09
-1.32389e-08
1.61541e-09
7.75937e-09
-1.20848e-08
1.6966e-09
8.07664e-09
-1.06805e-08
1.77729e-09
7.96453e-09
-9.07186e-09
1.84568e-09
7.46952e-09
-7.36941e-09
1.90166e-09
6.66737e-09
-5.71147e-09
1.95392e-09
5.63517e-09
-4.22731e-09
2.00843e-09
4.42918e-09
-3.00091e-09
2.06445e-09
3.08708e-09
-2.06745e-09
2.11369e-09
1.63992e-09
-1.43076e-09
2.1491e-09
1.23957e-10
-1.09555e-09
2.16689e-09
-1.40914e-09
-1.06549e-09
2.16307e-09
-2.90268e-09
-1.34661e-09
2.14168e-09
-4.29367e-09
-1.94436e-09
2.10676e-09
-5.51615e-09
-2.86239e-09
2.06207e-09
-6.51697e-09
-4.08582e-09
2.01002e-09
-7.25573e-09
-5.56327e-09
1.9502e-09
-7.69972e-09
-7.20867e-09
1.8808e-09
-7.82059e-09
-8.92153e-09
1.80718e-09
-7.59182e-09
-1.06054e-08
1.7365e-09
-7.00245e-09
-1.21906e-08
1.68654e-09
-6.0509e-09
-1.36248e-08
1.64614e-09
-4.76917e-09
-1.48874e-08
1.62527e-09
-3.25004e-09
-1.59273e-08
1.63013e-09
-1.61542e-09
-1.66569e-08
1.63465e-09
-1.71483e-08
1.6192e-09
1.84809e-09
-1.99271e-08
1.84809e-09
3.87968e-09
-1.92436e-08
1.88547e-09
5.71759e-09
-1.86854e-08
1.92225e-09
7.33165e-09
-1.78019e-08
1.98881e-09
8.61118e-09
-1.66289e-08
2.07518e-09
9.4581e-09
-1.5125e-08
2.16923e-09
9.81837e-09
-1.33098e-08
2.25901e-09
9.69837e-09
-1.12843e-08
2.33873e-09
9.14911e-09
-9.20601e-09
2.4105e-09
8.22958e-09
-7.23441e-09
2.48668e-09
6.99024e-09
-5.4867e-09
2.56277e-09
5.48295e-09
-4.03822e-09
2.62756e-09
3.76169e-09
-2.91965e-09
2.67304e-09
1.89317e-09
-2.14564e-09
2.69598e-09
-4.14479e-11
-1.73108e-09
2.69093e-09
-1.96775e-09
-1.68404e-09
2.66814e-09
-3.81405e-09
-2.01173e-09
2.63108e-09
-5.50763e-09
-2.71904e-09
2.57832e-09
-6.97953e-09
-3.80645e-09
2.51141e-09
-8.16996e-09
-5.25059e-09
2.43269e-09
-9.02934e-09
-6.99333e-09
2.3479e-09
-9.51376e-09
-8.94619e-09
2.2629e-09
-9.5858e-09
-1.10042e-08
2.18236e-09
-9.22073e-09
-1.30592e-08
2.10965e-09
-8.41401e-09
-1.50259e-08
2.05069e-09
-7.19091e-09
-1.68261e-08
2.00998e-09
-5.62485e-09
-1.83938e-08
1.98957e-09
-3.83364e-09
-1.96185e-08
1.97166e-09
-1.93543e-09
-2.03946e-08
1.93477e-09
-2.08798e-08
1.90272e-09
2.30389e-09
-2.45678e-08
2.30389e-09
4.78791e-09
-2.4105e-08
2.35642e-09
7.02889e-09
-2.33714e-08
2.42636e-09
8.95352e-09
-2.22663e-08
2.5256e-09
1.04391e-08
-2.07558e-08
2.63321e-09
1.14008e-08
-1.88256e-08
2.73815e-09
1.18133e-08
-1.65481e-08
2.83388e-09
1.16996e-08
-1.40713e-08
2.91939e-09
1.10946e-08
-1.15743e-08
3.00402e-09
1.00295e-08
-9.21773e-09
3.09258e-09
8.54087e-09
-7.12125e-09
3.18131e-09
6.68507e-09
-5.36043e-09
3.24971e-09
4.54391e-09
-3.98784e-09
3.2929e-09
2.22212e-09
-3.04345e-09
3.31193e-09
-1.7376e-10
-2.54763e-09
3.30917e-09
-2.54929e-09
-2.49981e-09
3.28716e-09
-4.81569e-09
-2.90101e-09
3.24502e-09
-6.88368e-09
-3.75379e-09
3.18039e-09
-8.66677e-09
-5.05567e-09
3.09459e-09
-1.00875e-08
-6.78213e-09
2.99789e-09
-1.10837e-08
-8.86475e-09
2.89817e-09
-1.16049e-08
-1.12061e-08
2.80145e-09
-1.16176e-08
-1.36861e-08
2.71282e-09
-1.11067e-08
-1.61784e-08
2.63441e-09
-1.00831e-08
-1.85707e-08
2.56629e-09
-8.59417e-09
-2.07518e-08
2.51061e-09
-6.73911e-09
-2.25955e-08
2.45545e-09
-4.63021e-09
-2.39721e-08
2.3896e-09
-2.3435e-09
-2.48259e-08
2.31987e-09
-2.53657e-08
2.31013e-09
2.84783e-09
-3.02736e-08
2.84783e-09
5.87488e-09
-3.0034e-08
2.93742e-09
8.56843e-09
-2.9075e-08
3.04362e-09
1.08281e-08
-2.7654e-08
3.16352e-09
1.25314e-08
-2.5705e-08
3.2821e-09
1.36251e-08
-2.32778e-08
3.39394e-09
1.41161e-08
-2.0488e-08
3.48315e-09
1.40217e-08
-1.75175e-08
3.57362e-09
1.33495e-08
-1.45478e-08
3.67861e-09
1.21095e-08
-1.17344e-08
3.79058e-09
1.03326e-08
-9.20365e-09
3.89526e-09
8.09297e-09
-7.06232e-09
3.98002e-09
5.50089e-09
-5.39764e-09
4.04245e-09
2.68366e-09
-4.26694e-09
4.08172e-09
-2.3457e-10
-3.68832e-09
4.09751e-09
-3.13892e-09
-3.64954e-09
4.08659e-09
-5.91334e-09
-4.14676e-09
4.04278e-09
-8.43623e-09
-5.18676e-09
3.96563e-09
-1.0591e-08
-6.76877e-09
3.8637e-09
-1.22822e-08
-8.85885e-09
3.75138e-09
-1.34387e-08
-1.13695e-08
3.63739e-09
-1.40129e-08
-1.41832e-08
3.52808e-09
-1.39792e-08
-1.71547e-08
3.42326e-09
-1.33305e-08
-2.01365e-08
3.32147e-09
-1.2091e-08
-2.2988e-08
3.22473e-09
-1.03307e-08
-2.55528e-08
3.12984e-09
-8.149e-09
-2.76701e-08
3.02628e-09
-5.62887e-09
-2.92377e-08
2.91699e-09
-2.83057e-09
-3.02764e-08
2.84804e-09
-3.0914e-08
2.88104e-09
3.52298e-09
-3.72927e-08
3.52298e-09
7.14363e-09
-3.71973e-08
3.64184e-09
1.03198e-08
-3.59215e-08
3.76176e-09
1.29412e-08
-3.40788e-08
3.89162e-09
1.49089e-08
-3.16085e-08
4.01601e-09
1.6205e-08
-2.86149e-08
4.10928e-09
1.68282e-08
-2.52707e-08
4.21257e-09
1.67707e-08
-2.17646e-08
4.3415e-09
1.60175e-08
-1.82639e-08
4.48978e-09
1.45671e-08
-1.49212e-08
4.64262e-09
1.24619e-08
-1.18896e-08
4.78333e-09
9.79634e-09
-9.32025e-09
4.90413e-09
6.69997e-09
-7.33353e-09
5.00282e-09
3.31255e-09
-5.99396e-09
5.07544e-09
-2.26291e-10
-5.31246e-09
5.11405e-09
-3.76597e-09
-5.27908e-09
5.1095e-09
-7.14813e-09
-5.8937e-09
5.05796e-09
-1.02068e-08
-7.17384e-09
4.96353e-09
-1.27963e-08
-9.11286e-09
4.84268e-09
-1.48081e-08
-1.16506e-08
4.70855e-09
-1.61668e-08
-1.46722e-08
4.57001e-09
-1.68274e-08
-1.80285e-08
4.42772e-09
-1.67652e-08
-2.15504e-08
4.27967e-09
-1.5979e-08
-2.50751e-08
4.13232e-09
-1.45087e-08
-2.84268e-08
3.98848e-09
-1.24367e-08
-3.14079e-08
3.84377e-09
-9.84405e-09
-3.38591e-08
3.69097e-09
-6.79146e-09
-3.57401e-08
3.56483e-09
-3.39297e-09
-3.70823e-08
3.52348e-09
-3.78046e-08
3.56069e-09
4.32588e-09
-4.58781e-08
4.32588e-09
8.55355e-09
-4.57242e-08
4.44262e-09
1.22593e-08
-4.40726e-08
4.57482e-09
1.53243e-08
-4.17074e-08
4.68261e-09
1.76701e-08
-3.8643e-08
4.79019e-09
1.92589e-08
-3.5049e-08
4.9229e-09
2.00682e-08
-3.11217e-08
5.09134e-09
2.00616e-08
-2.70307e-08
5.29188e-09
1.92033e-08
-2.29244e-08
5.50756e-09
1.74986e-08
-1.89741e-08
5.71742e-09
1.50118e-08
-1.53806e-08
5.91135e-09
1.18533e-08
-1.2335e-08
6.08367e-09
8.16198e-09
-9.98196e-09
6.23031e-09
4.08973e-09
-8.38558e-09
6.33748e-09
-1.93419e-10
-7.56194e-09
6.39199e-09
-4.48745e-09
-7.52203e-09
6.38481e-09
-8.57557e-09
-8.28274e-09
6.31675e-09
-1.22546e-08
-9.86065e-09
6.20154e-09
-1.53549e-08
-1.22303e-08
6.05516e-09
-1.77552e-08
-1.52917e-08
5.88783e-09
-1.93728e-08
-1.88966e-08
5.70523e-09
-2.0154e-08
-2.28652e-08
5.50594e-09
-2.00665e-08
-2.70192e-08
5.29982e-09
-1.91266e-08
-3.11595e-08
5.09499e-09
-1.73913e-08
-3.50705e-08
4.88634e-09
-1.49329e-08
-3.8543e-08
4.67161e-09
-1.1808e-08
-4.14666e-08
4.47803e-09
-8.12169e-09
-4.38115e-08
4.36164e-09
-4.07369e-09
-4.55082e-08
4.31862e-09
-4.62993e-08
4.30847e-09
5.22607e-09
-5.62393e-08
5.22607e-09
1.00959e-08
-5.57688e-08
5.31766e-09
1.44383e-08
-5.37016e-08
5.41132e-09
1.80982e-08
-5.07891e-08
5.52949e-09
2.09653e-08
-4.7122e-08
5.69531e-09
2.29613e-08
-4.29043e-08
5.91269e-09
2.40107e-08
-3.83301e-08
6.17864e-09
2.40431e-08
-3.35521e-08
6.47317e-09
2.30297e-08
-2.87317e-08
6.76991e-09
2.10046e-08
-2.40844e-08
7.05119e-09
1.80511e-08
-1.98594e-08
7.31797e-09
1.43003e-08
-1.62826e-08
7.55759e-09
9.89141e-09
-1.34949e-08
7.75915e-09
4.99617e-09
-1.15708e-08
7.90035e-09
-1.65737e-10
-1.05592e-08
7.96704e-09
-5.33682e-09
-1.05028e-08
7.95391e-09
-1.02398e-08
-1.14459e-08
7.86947e-09
-1.46354e-08
-1.33816e-08
7.72901e-09
-1.83401e-08
-1.62439e-08
7.54817e-09
-2.1213e-08
-1.98967e-08
7.33302e-09
-2.31534e-08
-2.4155e-08
7.08464e-09
-2.40895e-08
-2.88262e-08
6.8152e-09
-2.39991e-08
-3.37018e-08
6.53784e-09
-2.28954e-08
-3.85491e-08
6.24729e-09
-2.08333e-08
-4.31146e-08
5.94062e-09
-1.78565e-08
-4.723e-08
5.64266e-09
-1.40753e-08
-5.07985e-08
5.43308e-09
-9.68712e-09
-5.36947e-08
5.31032e-09
-4.92629e-09
-5.57251e-08
5.20064e-09
-5.66175e-08
5.1125e-09
6.18929e-09
-6.85324e-08
6.18929e-09
1.18686e-08
-6.75948e-08
6.23464e-09
1.70285e-08
-6.51303e-08
6.33941e-09
2.1447e-08
-6.16865e-08
6.53097e-09
2.49639e-08
-5.74066e-08
6.7976e-09
2.74394e-08
-5.25055e-08
7.13111e-09
2.87457e-08
-4.71688e-08
7.51244e-09
2.87999e-08
-4.15634e-08
7.91176e-09
2.75962e-08
-3.59015e-08
8.30385e-09
2.51964e-08
-3.04601e-08
8.6829e-09
2.16995e-08
-2.55227e-08
9.04664e-09
1.72274e-08
-2.13178e-08
9.37557e-09
1.19367e-08
-1.79958e-08