/*--------------------------------*- C++ -*----------------------------------*\
| =========                 |                                                 |
| \\      /  F ield         | OpenFOAM: The Open Source CFD Toolbox           |
|  \\    /   O peration     | Version:  2312                                  |
|   \\  /    A nd           | Website:  www.openfoam.com                      |
|    \\/     M anipulation  |                                                 |
\*---------------------------------------------------------------------------*/
FoamFile
{
    version     2.0;
    format      ascii;
    arch        "LSB;label=32;scalar=64";
    class       volScalarField;
    location    "0.303149";
    object      alpha.water;
}
// * * * * * * * * * * * * * * * * * * * * * * * * * * * * * * * * * * * * * //

dimensions      [0 0 0 0 0 0 0];

internalField   nonuniform List<scalar> 
90000
(
1
0.999991
0.999993
0.999994
0.999996
0.999997
0.999999
1
1
1
1
1
1
1
1
1
1
1
1
1
0.999998
0.999996
0.999994
0.999993
0.999995
0.999999
1.00001
1.00001
1.00002
1.00002
0.999991
0.999987
0.99999
0.999992
0.999995
0.999997
1
1
1
1
1
1
1
1
1
1
1
1
1
0.999997
0.999993
0.99999
0.99999
0.999993
1
1.00001
1.00002
1.00003
1.00004
1.00004
0.999993
0.99999
0.999992
0.999994
0.999996
0.999998
1
1
1
1
1
1
1
1
1
1
1
1
1
0.999997
0.999995
0.999994
0.999996
0.999999
1
1.00001
1.00002
1.00002
1.00002
1.00002
0.999994
0.999993
0.999994
0.999996
0.999998
0.999999
1
1
1
1.00001
1.00001
1.00001
1.00001
1.00001
1.00001
1
1
0.999999
0.999998
0.999997
0.999997
0.999999
1
1
1.00001
1.00001
1.00001
1.00001
1
1
0.999996
0.999996
0.999997
0.999998
0.999999
1
1
1
1
1.00001
1.00001
1.00001
1.00001
1.00001
1
1
0.999998
0.999996
0.999996
0.999997
1
1
1.00001
1.00001
1.00001
1
0.999998
0.999994
0.999988
0.999986
0.999998
1
1
1
0.999999
0.999999
0.999999
1
1
1
1.00001
1.00001
1.00001
1
1
0.999998
0.999996
0.999995
0.999996
0.999998
1
1
1
1
1
0.999994
0.999987
0.999981
0.999976
0.999978
1
1
1
1
0.999998
0.999997
0.999997
0.999997
0.999999
1
1
1
1
1
1
0.999998
0.999998
0.999998
0.999999
1
1
1
1
0.999997
0.999992
0.999986
0.999979
0.999975
0.999972
0.999978
1
1
1
1
0.999998
0.999996
0.999996
0.999996
0.999997
0.999998
0.999999
1
1
1
1
1
1
1
1
1
1
0.999999
0.999996
0.999991
0.999986
0.999981
0.999977
0.999976
0.999976
0.999983
1
1.00001
1
1
1
0.999999
0.999998
0.999997
0.999997
0.999997
0.999997
0.999998
1
1
1
1.00001
1.00001
1.00001
1.00001
1
1
0.999996
0.999991
0.999986
0.999983
0.999981
0.99998
0.999981
0.999983
0.999988
1
1.00001
1.00001
1.00001
1.00001
1
1
1
0.999999
0.999997
0.999996
0.999997
0.999999
1
1.00001
1.00001
1.00001
1.00001
1.00001
1
0.999999
0.999994
0.99999
0.999987
0.999985
0.999985
0.999985
0.999987
0.999988
0.999992
1.00001
1.00002
1.00001
1.00001
1.00001
1.00001
1.00001
1.00001
1
0.999997
0.999995
0.999995
0.999996
0.999999
1
1.00001
1.00001
1.00001
1
1
0.999999
0.999996
0.999994
0.999992
0.999992
0.999991
0.999992
0.999993
0.999994
0.999996
1.00001
1.00002
1.00002
1.00002
1.00002
1.00002
1.00001
1.00001
1
0.999996
0.999993
0.999992
0.999993
0.999995
0.999997
0.999999
1
1
1
1
1
1
1
1
1
1
1
1
1
1
1.00001
1.00002
1.00002
1.00002
1.00002
1.00002
1.00001
1.00001
1
0.999996
0.999993
0.999992
0.999991
0.999992
0.999992
0.999994
0.999996
0.999999
1
1.00001
1.00001
1.00001
1.00002
1.00001
1.00001
1.00001
1.00001
1.00001
1.00001
1.00001
1.00001
1.00002
1.00002
1.00001
1.00001
1.00001
1.00001
1
0.999999
0.999997
0.999996
0.999994
0.999993
0.999991
0.999991
0.999992
0.999995
1
1.00001
1.00001
1.00002
1.00002
1.00002
1.00002
1.00002
1.00002
1.00002
1.00002
1.00001
1.00001
1.00001
1
1
1
0.999998
0.999997
0.999997
0.999998
1
1
1
0.999999
0.999996
0.999993
0.999992
0.999992
0.999995
1
1.00001
1.00001
1.00002
1.00002
1.00002
1.00002
1.00002
1.00002
1.00002
1.00001
1.00001
1
1
0.999984
0.999984
0.999984
0.999985
0.999987
0.999991
0.999996
1
1
1.00001
1
0.999999
0.999995
0.999993
0.999993
0.999996
1
1.00001
1.00001
1.00001
1.00001
1.00001
1.00001
1.00001
1.00001
1.00001
1
0.999999
0.999995
0.999988
0.999968
0.999971
0.999973
0.999976
0.999981
0.999989
0.999996
1
1.00001
1.00001
1
1
0.999996
0.999994
0.999994
0.999995
0.999998
1
1
1
1
1
1
1
1
0.999998
0.999993
0.999989
0.999989
0.99998
0.999961
0.999966
0.999969
0.999974
0.999981
0.999989
0.999997
1
1
1
1
1
0.999998
0.999996
0.999995
0.999995
0.999995
0.999994
0.999994
0.999993
0.999994
0.999995
0.999995
0.999995
0.999992
0.999988
0.999985
0.999985
0.99999
0.999977
0.999963
0.999969
0.999973
0.999978
0.999985
0.999992
0.999997
1
1
1
1
1
1
0.999999
0.999998
0.999996
0.999994
0.999992
0.99999
0.999989
0.999989
0.999989
0.999989
0.999987
0.999985
0.999984
0.999984
0.999987
0.999991
0.99998
0.999971
0.999976
0.99998
0.999985
0.999991
0.999996
0.999999
1
1
1
1
1
1
1
1
0.999997
0.999993
0.99999
0.999988
0.999987
0.999986
0.999985
0.999984
0.999982
0.999982
0.999983
0.999985
0.999987
0.999989
0.999985
0.999981
0.999985
0.999989
0.999994
0.999998
1
1
1
1
1
1
1
1
1
1
0.999997
0.999993
0.99999
0.999987
0.999986
0.999985
0.999983
0.999982
0.999982
0.999983
0.999985
0.999987
0.999987
0.999988
0.99999
0.99999
0.999993
0.999997
1
1
1.00001
1
1
1
1
1
1
1
1
0.999999
0.999997
0.999994
0.999991
0.999989
0.999988
0.999987
0.999987
0.999987
0.999989
0.99999
0.999991
0.999991
0.999989
0.999991
0.999995
0.999998
1
1
1.00001
1.00001
1.00001
1.00001
1
1
1
1
1
1
1
1
0.999998
0.999996
0.999994
0.999993
0.999992
0.999993
0.999994
0.999995
0.999997
0.999998
0.999997
0.999996
0.999995
0.999997
0.999999
1
1.00001
1.00001
1.00001
1.00001
1.00001
1
1
1
0.999999
0.999999
1
1
1
1
1
0.999999
0.999998
0.999997
0.999997
0.999999
1
1
1
1
1
1
1
1
1
1.00001
1.00001
1.00001
1.00001
1.00001
1
1
1
0.999999
0.999999
0.999999
1
1
1
1
1
1
1
1
1
1
1
1.00001
1.00001
1.00001
1.00001
1.00001
1.00001
1.00001
1.00001
1.00001
1.00001
1.00001
1.00001
1
1
1
1
0.999999
0.999999
0.999999
1
1
1
1
1
1
1
1
1
1.00001
1.00001
1.00001
1.00001
1.00001
1.00001
1.00001
1.00002
1.00002
1.00001
1.00001
1.00001
1
1
1
1
0.999999
0.999998
0.999998
0.999998
0.999998
0.999999
1
1
1
1
1
1
1
1
1
1.00001
1.00001
1.00001
1.00001
1.00001
1.00002
1.00002
1.00002
1
1
1
1
0.999999
0.999998
0.999997
0.999997
0.999996
0.999995
0.999996
0.999997
0.999997
0.999998
0.999998
0.999998
0.999998
0.999999
0.999998
0.999998
0.999998
0.999998
0.999998
0.999998
0.999999
1
1.00001
1.00001
1.00001
1.00001
1
1
0.999999
0.999998
0.999996
0.999995
0.999994
0.999993
0.999992
0.999993
0.999994
0.999995
0.999995
0.999995
0.999995
0.999995
0.999995
0.999995
0.999994
0.999992
0.999991
0.999991
0.99999
0.99999
0.999992
0.999997
1
1
1
0.999999
1
0.999998
0.999997
0.999995
0.999994
0.999992
0.99999
0.999989
0.99999
0.999991
0.999992
0.999993
0.999993
0.999993
0.999993
0.999993
0.999993
0.999992
0.999991
0.99999
0.999989
0.999988
0.999987
0.999988
0.999992
0.999997
0.999999
0.999998
0.999996
0.999999
0.999999
0.999997
0.999996
0.999994
0.999992
0.99999
0.999988
0.999987
0.999987
0.999989
0.99999
0.999991
0.999992
0.999993
0.999994
0.999995
0.999995
0.999994
0.999993
0.999992
0.999991
0.999989
0.999988
0.99999
0.999995
0.999997
0.999996
0.999995
0.999997
1
0.999998
0.999997
0.999996
0.999994
0.999991
0.999988
0.999986
0.999985
0.999986
0.999988
0.99999
0.999993
0.999995
0.999997
0.999999
0.999999
0.999998
0.999997
0.999996
0.999995
0.999993
0.999991
0.999991
0.999994
0.999996
0.999995
0.999993
0.999995
0.999999
0.999998
0.999999
0.999998
0.999997
0.999995
0.999992
0.999988
0.999985
0.999985
0.999987
0.99999
0.999993
0.999996
0.999999
1
1
1
1
1
0.999999
0.999997
0.999995
0.999993
0.999993
0.999995
0.999994
0.999992
0.999992
0.999996
0.999996
0.999995
1
1
0.999999
0.999996
0.999992
0.999989
0.999987
0.999988
0.99999
0.999993
0.999996
0.999998
1
1
1
1
1
1
1
0.999999
0.999995
0.999994
0.999994
0.999992
0.99999
0.99999
0.999992
0.999994
0.999993
0.999993
1
1
1
0.999997
0.999994
0.999992
0.999992
0.999993
0.999994
0.999995
0.999997
0.999998
1
1
1
1.00001
1.00001
1.00001
1
0.999999
0.999996
0.999996
0.999995
0.999993
0.999993
0.999994
0.999996
0.999997
0.999996
0.999998
1
1
1
0.999998
0.999997
0.999996
0.999997
0.999997
0.999996
0.999996
0.999997
1
1
1.00001
1.00001
1.00001
1.00001
1.00001
1
1
1
1
0.999999
0.999999
1
1
1
1
1
1
1
1
1
0.999999
1
1
0.999999
0.999998
0.999996
0.999997
1
1
1.00001
1.00001
1.00001
1.00001
1.00001
1.00001
1
1
1
1
1
1
1
1
1
1
1
1.00001
1
1
1
1
1
1
0.999999
0.999997
0.999998
1
1
1.00001
1.00001
1.00001
1.00001
1.00001
1.00001
1.00001
1.00001
1.00001
1.00001
1
1
1
1
1
1
1
1.00001
1.00001
1
1
1
1
1
1
0.999999
0.999999
1
1
1.00001
1
1
1
1
1.00001
1.00001
1.00001
1.00001
1.00001
1
1
1
0.999998
1
1
1
1
1.00001
1.00001
1
1.00001
1.00001
1
1
1
1
1
1
1
1
1
1
1
1.00001
1.00001
1.00001
1.00001
1.00001
1
1
1
1
0.999999
1
1
1
1.00001
1.00001
1.00001
1
1.00001
1.00001
1
1
1
1
1
1
1
1
1
1
1.00001
1.00001
1.00001
1.00001
1
1
1
1
1
1
1
1.00001
1
1.00001
1.00001
1.00001
1.00001
1.00001
1.00001
1.00001
1
1
1
1
1
1
1
1
1
1
1.00001
1
1
1
1
1
1.00001
1.00001
1
1
1.00001
1
1
1.00001
1.00001
1.00001
1
1.00001
1.00001
1
1
1
1
1
1
1
0.999999
1
1
1
1
1
1
1.00001
1.00001
1.00001
1.00001
1.00001
1
1
1.00001
0.999999
1
1.00001
1.00001
1.00001
1
1.00001
1.00001
1
1
1.00001
1
1
1
1
1
1
1
1
1
1
1.00001
1.00001
1.00001
1.00001
1.00001
1
0.999998
1
1.00001
0.999996
1
1.00001
1.00001
1
1.00001
1
1
1
1
1.00001
1
1
1
1
1
1
1
1
1
1.00001
1.00001
1.00001
1
1
1
0.999998
1
1.00001
1
0.999998
1.00001
1.00001
1.00001
1
1.00001
1
1
1
1
1
1
1
1
1
1
1
1
1
1.00001
1.00001
1
0.999999
0.999998
1
1
0.999998
1
1.00001
0.999999
1
1.00001
1.00001
0.999999
1
1
1
1
1
1
1
1
1
1
1
1
1
1
1
1
1
1
0.999999
1
1
1
1
1.00001
1.00001
0.999998
1
1
1.00001
0.999997
0.999998
1
1
1
1
1
1
1
1
1
1
1
1
1
1
1
1
0.999999
0.999998
1
1
1
1
1
0.999998
0.999993
1
1
1
1
0.999997
1
1
1
1
1
1
1
1
1
0.999998
0.999996
0.999992
0.999988
0.999983
0.999979
0.999976
0.999976
0.999977
0.999983
0.999988
0.999993
0.999996
1
0.999998
0.999996
1
1
1
1
0.999999
1
1
1.00001
1
1.00002
0.999566
0.998857
0.997375
0.995576
0.992835
0.990099
0.986987
0.983956
0.981381
0.979476
0.978488
0.97849
0.97947
0.981395
0.983974
0.986987
0.990096
0.992824
0.995575
0.997383
0.998848
0.999548
1
1
1
1.00001
0.23806
0.238948
0.240702
0.24328
0.246779
0.251111
0.256282
0.262332
0.268958
0.276
0.282946
0.289013
0.29393
0.297451
0.299409
0.299404
0.297441
0.293921
0.289002
0.282929
0.275981
0.268941
0.262304
0.256264
0.251112
0.246771
0.243283
0.240702
0.238951
0.23806
6.71167e-05
7.11383e-05
8.00085e-05
9.19382e-05
0.000105774
0.000121585
0.000140248
0.000154039
0.000137229
0.000126071
-5.03712e-07
-6.23707e-07
-6.46536e-07
-5.47487e-07
-4.5361e-07
-4.47306e-07
-5.46029e-07
-6.41147e-07
-6.18633e-07
-5.06371e-07
0.000126035
0.000137716
0.000154094
0.000140656
0.000122747
0.000105372
9.13181e-05
8.03085e-05
7.09519e-05
6.81532e-05
3.84944e-06
4.62629e-06
6.08268e-06
8.50314e-06
1.12617e-05
1.52135e-05
2.14556e-05
3.05814e-05
3.87603e-05
4.02928e-05
2.60251e-05
4.48033e-05
7.1275e-05
8.1986e-05
6.64063e-05
6.65747e-05
8.24401e-05
7.1817e-05
4.5061e-05
2.59373e-05
4.02912e-05
3.90956e-05
3.07587e-05
2.16537e-05
1.54501e-05
1.12088e-05
8.46897e-06
6.13175e-06
4.60761e-06
3.93503e-06
1.26049e-07
1.64352e-07
2.2246e-07
3.26497e-07
4.96807e-07
7.97624e-07
1.36917e-06
2.473e-06
4.41477e-06
8.49528e-06
2.22838e-05
3.70982e-05
3.6607e-05
3.53326e-05
2.89993e-05
2.90308e-05
3.55097e-05
3.68124e-05
3.73266e-05
2.25958e-05
8.66078e-06
4.51728e-06
2.52834e-06
1.39588e-06
8.15225e-07
5.00086e-07
3.26872e-07
2.25092e-07
1.64803e-07
1.28791e-07
3.57197e-09
5.21395e-09
7.11262e-09
1.04029e-08
1.54364e-08
2.33573e-08
3.69803e-08
6.33251e-08
1.14533e-07
2.70671e-07
1.08598e-06
2.15647e-06
2.85502e-06
6.19596e-06
1.20123e-05
1.19909e-05
6.18531e-06
2.86822e-06
2.1906e-06
1.1424e-06
2.88848e-07
1.23581e-07
6.85787e-08
3.94692e-08
2.45192e-08
1.57172e-08
1.0464e-08
7.228e-09
5.24429e-09
3.6741e-09
1.13137e-10
1.76924e-10
2.36583e-10
3.48375e-10
5.22801e-10
8.07898e-10
1.30208e-09
1.64493e-09
1.65169e-10
5.06451e-10
2.02753e-08
4.8272e-08
5.64255e-08
2.44939e-07
1.72592e-06
1.71711e-06
2.43042e-07
5.64835e-08
4.97114e-08
2.2387e-08
6.20296e-10
1.72359e-10
1.86595e-09
1.33577e-09
8.27513e-10
5.28703e-10
3.50839e-10
2.407e-10
1.77852e-10
1.16776e-10
6.73739e-12
9.50931e-12
1.24077e-11
1.99863e-11
3.44029e-11
6.24854e-11
1.18809e-10
1.97353e-10
1.67743e-10
6.70295e-10
2.51028e-11
3.07359e-11
3.32165e-11
8.02045e-10
1.72085e-08
1.72036e-08
7.96289e-10
3.27417e-11
3.17403e-11
2.54122e-11
7.93762e-10
1.86964e-10
2.03569e-10
1.22229e-10
6.32618e-11
3.4403e-11
1.99653e-11
1.2585e-11
9.56233e-12
6.91898e-12
1.06107e-12
1.71438e-12
2.29658e-12
3.21014e-12
4.46373e-12
7.23602e-12
1.15822e-11
1.88783e-11
3.41985e-11
5.57808e-11
2.46397e-11
1.59706e-11
1.6118e-11
8.14272e-12
8.51667e-12
8.72921e-12
7.91941e-12
1.60785e-11
1.71452e-11
2.55529e-11
5.57498e-11
3.48665e-11
1.92468e-11
1.18171e-11
7.42126e-12
4.50733e-12
3.23489e-12
2.32985e-12
1.71822e-12
1.1035e-12
5.13361e-13
7.63777e-13
9.469e-13
1.01016e-12
7.06103e-13
8.22807e-13
1.4002e-12
2.27887e-12
4.17039e-12
7.256e-12
1.26692e-11
1.92957e-11
2.82019e-11
4.45979e-12
3.42978e-12
3.43595e-12
4.46647e-12
2.8632e-11
1.95427e-11
1.28664e-11
7.41647e-12
4.21305e-12
2.30222e-12
1.41609e-12
8.37338e-13
7.05767e-13
1.01786e-12
9.55468e-13
7.63273e-13
5.3423e-13
3.44265e-14
5.58267e-14
7.06108e-14
9.50836e-14
1.45871e-13
2.62005e-13
4.47535e-13
4.55725e-13
6.43011e-13
1.10667e-12
1.39952e-12
1.9627e-12
2.93735e-12
3.25465e-12
2.89639e-12
2.8866e-12
3.25446e-12
2.94109e-12
1.97853e-12
1.40176e-12
1.11664e-12
6.56935e-13
4.61891e-13
4.5409e-13
2.67813e-13
1.46864e-13
9.55599e-14
7.15166e-14
5.57203e-14
3.60578e-14
8.82668e-16
1.5974e-15
2.1546e-15
3.47743e-15
6.95471e-15
1.39654e-14
2.6194e-14
4.6038e-14
9.79081e-14
1.9891e-13
2.50976e-13
3.04945e-13
4.1736e-13
4.54614e-13
4.41099e-13
4.41549e-13
4.55569e-13
4.18311e-13
3.0707e-13
2.49611e-13
2.02835e-13
1.00544e-13
4.70487e-14
2.67605e-14
1.4324e-14
7.00488e-15
3.49721e-15
2.19115e-15
1.59416e-15
9.3018e-16
2.33487e-17
4.48103e-17
5.96247e-17
9.23276e-17
1.63821e-16
3.11304e-16
6.38459e-16
1.48948e-15
3.58361e-15
8.43276e-15
1.77049e-14
3.48213e-14
6.03769e-14
9.37597e-14
1.30928e-13
1.30932e-13
9.40185e-14
6.0664e-14
3.52103e-14
1.7997e-14
8.67585e-15
3.69663e-15
1.52468e-15
6.55239e-16
3.20212e-16
1.64839e-16
9.30321e-17
6.0621e-17
4.47313e-17
2.46663e-17
5.67974e-19
1.16322e-18
1.50824e-18
2.27419e-18
3.82827e-18
7.05377e-18
1.39688e-17
2.94273e-17
6.60895e-17
1.6085e-16
4.04728e-16
9.17941e-16
1.70713e-15
2.9276e-15
4.50688e-15
4.50261e-15
2.93698e-15
1.71624e-15
9.29841e-16
4.1514e-16
1.65727e-16
6.83223e-17
3.01607e-17
1.43236e-17
7.2577e-18
3.86844e-18
2.28536e-18
1.53728e-18
1.15973e-18
6.00609e-19
1.20798e-20
2.64899e-20
3.36339e-20
4.92619e-20
8.07247e-20
1.43198e-19
2.71451e-19
5.3941e-19
1.14811e-18
2.63398e-18
6.07643e-18
1.2654e-17
2.26691e-17
3.70593e-17
5.65192e-17
5.64487e-17
3.72597e-17
2.28496e-17
1.28122e-17
6.21585e-18
2.71414e-18
1.18512e-18
5.5489e-19
2.78952e-19
1.47449e-19
8.15086e-20
4.96381e-20
3.42853e-20
2.64413e-20
1.27936e-20
2.23789e-22
5.26535e-22
6.53589e-22
9.23073e-22
1.47674e-21
2.49706e-21
4.5266e-21
8.59441e-21
1.71919e-20
3.69006e-20
8.04955e-20
1.59304e-19
2.74159e-19
4.34828e-19
6.49528e-19
6.47665e-19
4.36103e-19
2.76123e-19
1.61045e-19
8.23047e-20
3.81757e-20
1.77417e-20
8.82291e-21
4.66302e-21
2.57635e-21
1.4832e-21
9.35834e-22
6.6534e-22
5.25072e-22
2.36718e-22
3.56913e-24
9.04863e-24
1.0923e-23
1.51004e-23
2.29725e-23
3.73487e-23
6.4541e-23
1.15523e-22
2.14746e-22
4.31725e-22
8.86479e-22
1.65333e-21
2.71495e-21
4.15138e-21
6.06736e-21
6.06157e-21
4.17438e-21
2.73942e-21
1.67424e-21
9.05663e-22
4.47062e-22
2.22737e-22
1.18401e-22
6.63091e-23
3.85771e-23
2.32626e-23
1.5238e-23
1.11615e-23
9.03541e-24
3.7919e-24
4.94425e-26
1.35004e-25
1.57611e-25
2.11821e-25
3.07591e-25
4.80562e-25
7.7989e-25
1.30494e-24
2.25984e-24
4.20255e-24
7.95096e-24
1.38769e-23
2.16078e-23
3.15595e-23
4.48893e-23
4.48231e-23
3.16066e-23
2.16942e-23
1.41029e-23
8.17192e-24
4.33847e-24
2.3385e-24
1.34083e-24
8.02133e-25
4.93635e-25
3.12503e-25
2.1308e-25
1.61355e-25
1.34329e-25
5.2393e-26
5.80833e-28
1.71667e-27
1.96024e-27
2.5051e-27
3.55385e-27
5.19264e-27
7.92449e-27
1.2459e-26
1.99146e-26
3.36394e-26
5.83454e-26
9.45153e-26
1.36822e-25
1.88306e-25
2.60257e-25
2.60838e-25
1.89876e-25
1.37631e-25
9.58122e-26
6.00588e-26
3.48196e-26
2.05663e-26
1.28131e-26
8.21047e-27
5.36172e-27
3.58192e-27
2.55402e-27
2.00312e-27
1.71511e-27
6.2087e-28
5.93135e-30
1.8729e-29
2.07579e-29
2.57049e-29
3.47608e-29
4.74158e-29
6.86135e-29
9.98889e-29
1.45082e-28
2.22348e-28
3.52213e-28
5.18447e-28
6.86887e-28
8.88559e-28
1.19335e-27
1.19407e-27
8.95516e-28
6.91963e-28
5.25057e-28
3.62159e-28
2.3157e-28
1.50607e-28
1.02437e-28
7.08208e-29
4.94225e-29
3.49636e-29
2.6098e-29
2.11989e-29
1.86947e-29
6.28734e-30
5.06659e-32
1.7471e-31
1.85804e-31
2.25042e-31
2.83485e-31
3.71692e-31
5.01476e-31
6.65287e-31
8.80995e-31
1.22335e-30
1.73407e-30
2.28196e-30
2.75248e-30
3.31647e-30
4.26363e-30
4.25085e-30
3.32872e-30
2.78415e-30
2.32393e-30
1.7773e-30
1.26571e-30
9.16309e-31
6.86748e-31
5.15377e-31
3.85263e-31
2.88862e-31
2.26107e-31
1.9074e-31
1.73674e-31
5.42511e-32
3.69875e-34
1.37624e-33
1.42004e-33
1.6315e-33
1.97838e-33
2.45585e-33
3.01299e-33
3.68067e-33
4.45468e-33
5.50991e-33
6.89031e-33
8.11949e-33
8.82948e-33
9.79541e-33
1.1902e-32
1.18472e-32
9.755e-33
8.87537e-33
8.25176e-33
7.10964e-33
5.72742e-33
4.64427e-33
3.84541e-33
3.13985e-33
2.52483e-33
2.01628e-33
1.66174e-33
1.45758e-33
1.36904e-33
3.96774e-34
2.30653e-36
9.09914e-36
9.23218e-36
1.0094e-35
1.18303e-35
1.33927e-35
1.52428e-35
1.73419e-35
1.88729e-35
2.05787e-35
2.29312e-35
2.36359e-35
2.32663e-35
2.32549e-35
2.65897e-35
2.66413e-35
2.30987e-35
2.33726e-35
2.39073e-35
2.35092e-35
2.13263e-35
1.94506e-35
1.7911e-35
1.60229e-35
1.39361e-35
1.18842e-35
1.03139e-35
9.39454e-36
9.09885e-36
2.45201e-36
1.18248e-38
5.13236e-38
4.98897e-38
5.32281e-38
5.80867e-38
6.1434e-38
6.63675e-38
6.86812e-38
6.67825e-38
6.57146e-38
6.49546e-38
6.12423e-38
5.41435e-38
5.17523e-38
5.54964e-38
5.52855e-38
4.88336e-38
5.46157e-38
6.11148e-38
6.46426e-38
6.68052e-38
6.84432e-38
7.0611e-38
6.89809e-38
6.47036e-38
5.88528e-38
5.38557e-38
5.09294e-38
5.09303e-38
1.28179e-38
5.09247e-41
2.45763e-40
2.27457e-40
2.35263e-40
2.41486e-40
2.45711e-40
2.44895e-40
2.29973e-40
2.12744e-40
1.98731e-40
1.83561e-40
1.63999e-40
1.47239e-40
1.46125e-40
1.45301e-40
1.41801e-40
1.2089e-40
1.47088e-40
1.58621e-40
1.69772e-40
1.86739e-40
2.10983e-40
2.40496e-40
2.53646e-40
2.53847e-40
2.46203e-40
2.38838e-40
2.33041e-40
2.39819e-40
5.67919e-41
1.88993e-43
9.77679e-43
9.00581e-43
8.89661e-43
8.86813e-43
8.50382e-43
7.9675e-43
7.4534e-43
7.06285e-43
6.71412e-43
6.17987e-43
5.70856e-43
5.42422e-43
5.63797e-43
5.37314e-43
5.20747e-43
4.24153e-43
5.29608e-43
5.18996e-43
4.91448e-43
5.26341e-43
6.15333e-43
7.71634e-43
8.33617e-43
8.66984e-43
8.8744e-43
9.14394e-43
9.01244e-43
9.45962e-43
2.15771e-43
5.67818e-46
3.4827e-45
3.09279e-45
3.00286e-45
2.92157e-45
2.7445e-45
2.65938e-45
2.65501e-45
2.70293e-45
2.69974e-45
2.50102e-45
2.31323e-45
2.17496e-45
2.21479e-45
2.04757e-45
1.97022e-45
1.58754e-45
2.03923e-45
1.97625e-45
1.72619e-45
1.73776e-45
1.9723e-45
2.62784e-45
2.72567e-45
2.7474e-45
2.87641e-45
3.13867e-45
2.97676e-45
3.12747e-45
7.34299e-46
1.37479e-48
1.20495e-47
9.89118e-48
9.89092e-48
9.69101e-48
9.58019e-48
1.00104e-47
1.06122e-47
1.13644e-47
1.12975e-47
9.97461e-48
8.62528e-48
7.56491e-48
7.25471e-48
6.47519e-48
6.16911e-48
5.02719e-48
6.74323e-48
7.02507e-48
6.27012e-48
6.40357e-48
7.11814e-48
9.99193e-48
9.80692e-48
9.01866e-48
9.21689e-48
1.05957e-47
8.73522e-48
8.78491e-48
2.47406e-48
2.95065e-51
4.2398e-50
3.38954e-50
3.53827e-50
3.58718e-50
3.7396e-50
4.06177e-50
4.35722e-50
4.5849e-50
4.16325e-50
3.44927e-50
2.6487e-50
2.0971e-50
1.86754e-50
1.58888e-50
1.49397e-50
1.21578e-50
1.80456e-50
1.99842e-50
1.97159e-50
2.20772e-50
2.55772e-50
3.86828e-50
3.85549e-50
3.30156e-50
3.22305e-50
3.89319e-50
2.48095e-50
2.18449e-50
9.30961e-51
4.9861e-54
1.65865e-52
1.28916e-52
1.38523e-52
1.41945e-52
1.48778e-52
1.5924e-52
1.62619e-52
1.55803e-52
1.31941e-52
9.47578e-53
6.43856e-53
4.53352e-53
3.66594e-53
2.94638e-53
2.72844e-53
2.20243e-53
3.70631e-53
4.46596e-53
4.90309e-53
6.24152e-53
8.29874e-53
1.34791e-52
1.46969e-52
1.26059e-52
1.21547e-52
1.55167e-52
7.63297e-53
5.2886e-53
3.92969e-53
6.73126e-57
6.76068e-55
5.01519e-55
5.40197e-55
5.37055e-55
5.42244e-55
5.48421e-55
5.10598e-55
4.4221e-55
3.3456e-55
2.07774e-55
1.22572e-55
7.54044e-56
5.44617e-56
4.10017e-56
3.71566e-56
2.93394e-56
5.54621e-56
7.66345e-56
9.6381e-56
1.40149e-55
2.2267e-55
3.97783e-55
4.91336e-55
4.47307e-55
4.45274e-55
6.05554e-55
2.594e-55
1.4072e-55
1.65023e-55
1.04168e-59
2.50692e-57
1.80132e-57
1.89403e-57
1.78467e-57
1.70181e-57
1.56668e-57
1.34164e-57
1.02777e-57
6.7531e-58
3.621e-58
1.82491e-58
9.63951e-59
6.1089e-59
4.26227e-59
3.71695e-59
2.84042e-59
6.12825e-59
9.85683e-59
1.44416e-58
2.46601e-58
4.57813e-58
1.01489e-57
1.34908e-57
1.37079e-57
1.44631e-57
2.10632e-57
8.77175e-58
4.16488e-58
6.20715e-58
1.54033e-62
7.98754e-60
5.59041e-60
5.62653e-60
5.01248e-60
4.43746e-60
3.77466e-60
2.86416e-60
1.93348e-60
1.09709e-60
5.00703e-61
2.1246e-61
9.48346e-62
5.17987e-62
3.31237e-62
2.73655e-62
1.92814e-62
4.85804e-62
9.29553e-62
1.6142e-61
3.33527e-61
7.4297e-61
2.11322e-60
3.04596e-60
3.51971e-60
3.98016e-60
6.22711e-60
2.65941e-60
1.22087e-60
1.99027e-60
2.57369e-65
2.14496e-62
1.45718e-62
1.39601e-62
1.18138e-62
9.58164e-63
7.40023e-63
5.00602e-63
2.95227e-63
1.43307e-63
5.50183e-64
1.94299e-64
7.24378e-65
3.36098e-65
1.95484e-65
1.49542e-65
8.70429e-66
2.61855e-65
6.1277e-65
1.28547e-64
3.36301e-64
9.3106e-64
3.44606e-63
5.76108e-63
7.37578e-63
9.22524e-63
1.53583e-62
6.86151e-63
3.1853e-63
5.33939e-63
5.26628e-68
4.79429e-65
3.15418e-65
2.8752e-65
2.30516e-65
1.70893e-65
1.19455e-65
7.16453e-66
3.66444e-66
1.50971e-66
4.8383e-67
1.41354e-67
4.39188e-68
1.72723e-68
9.19212e-69
6.26077e-69
3.85998e-69
1.27283e-68
3.77448e-68
1.01976e-67
2.99052e-67
8.68594e-67
4.49794e-66
8.91373e-66
1.26671e-65
1.77377e-65
3.13816e-65
1.4773e-65
7.04005e-66
1.19093e-65
9.71652e-71
8.86395e-68
5.68158e-68
4.91119e-68
3.69551e-68
2.51526e-68
1.58657e-68
8.40005e-69
3.70842e-69
1.29153e-69
3.45168e-70
8.4181e-71
2.23521e-71
7.71884e-72
3.96475e-72
2.25731e-72
1.32708e-72
5.26436e-72
1.91572e-71
6.42849e-71
2.31646e-70
7.65502e-70
4.71541e-69
1.12366e-68
1.79124e-68
2.81233e-68
5.30202e-68
2.63872e-68
1.29666e-68
2.20539e-68
1.20917e-73
1.36078e-70
8.50572e-71
6.96614e-71
4.91288e-71
3.06256e-71
1.73907e-71
8.11997e-72
3.09078e-72
9.12914e-73
2.07266e-73
4.4313e-74
1.10753e-74
3.86103e-75
2.17286e-75
1.47552e-75
3.96587e-76
1.6874e-75
7.68664e-75
3.24275e-74
1.45186e-73
5.78187e-73
3.96475e-72
1.15858e-71
2.08927e-71
3.68557e-71
7.41084e-71
3.90652e-71
1.98109e-71
3.39321e-71
1.26891e-76
1.74589e-73
1.06065e-73
8.25378e-74
5.46436e-74
3.11029e-74
1.59026e-74
6.57703e-75
2.17872e-75
5.59113e-76
1.15199e-76
2.47386e-77
6.94283e-78
2.6857e-78
1.6564e-78
1.37836e-78
1.10255e-78
5.5817e-79
2.49703e-78
1.32779e-77
7.45663e-77
3.57661e-76
2.68807e-75
9.85335e-75
2.02236e-74
4.00681e-74
8.58623e-74
4.79811e-74
2.50897e-74
4.34707e-74
1.29831e-79
1.87696e-76
1.10594e-76
8.23124e-77
5.138e-77
2.66812e-77
1.23719e-77
4.61094e-78
1.37121e-78
3.27506e-79
7.02812e-80
1.76225e-80
5.58365e-81
2.30495e-81
1.47655e-81
1.31814e-81
1.64013e-81
2.2143e-81
1.68322e-81
4.4992e-81
3.13371e-80
1.82326e-79
1.52595e-78
7.04904e-78
1.6424e-77
3.63606e-77
8.27512e-77
4.89824e-77
2.63486e-77
4.65469e-77
1.3385e-82
1.70135e-79
9.71319e-80
6.9945e-80
4.15672e-80
1.97647e-80
8.4675e-81
2.95762e-81
8.45584e-82
2.08877e-82
5.17801e-83
1.45712e-83
4.84369e-84
2.01872e-84
1.29508e-84
1.18032e-84
1.62014e-84
3.01625e-84
5.85591e-84
6.41587e-84
1.0922e-83
7.68721e-83
7.99043e-82
4.39456e-81
1.14725e-80
2.78681e-80
6.67066e-80
4.17178e-80
2.29722e-80
4.19539e-80
9.44142e-86
1.31976e-82
7.29533e-83
5.17272e-83
2.97825e-83
1.30861e-83
5.36275e-84
1.87091e-84
5.5397e-85
1.50567e-85
4.09005e-86
1.19271e-86
3.94601e-87
1.62208e-87
1.03133e-87
9.46525e-88
1.34174e-87
2.71274e-87
6.64105e-87
1.74162e-86
3.65453e-86
3.89318e-86
4.74882e-85
2.56285e-84
7.14536e-84
1.83364e-83
4.54362e-83
2.98293e-83
1.66715e-83
3.22384e-83
5.0479e-89
8.97108e-86
4.7934e-86
3.43441e-86
1.96181e-86
8.14432e-87
3.3251e-87
1.21742e-87
3.86477e-88
1.10398e-88
3.07266e-89
8.85806e-90
2.86312e-90
1.1543e-90
7.26025e-91
6.68175e-91
9.63927e-91
2.01935e-90
5.32769e-90
1.67445e-89
5.24497e-89
1.08009e-88
3.35907e-88
1.53479e-87
4.24861e-87
1.07166e-86
2.7142e-86
1.86858e-86
1.01063e-86
2.16105e-86
2.76523e-92
5.52228e-89
2.85795e-89
2.13729e-89
1.24075e-89
4.97812e-90
2.08982e-90
8.13125e-91
2.64832e-91
7.61489e-92
2.0869e-92
5.84405e-93
1.83686e-93
7.25779e-94
4.51709e-94
4.16494e-94
6.09566e-94
1.30939e-93
3.59704e-93
1.21765e-92
4.36234e-92
1.33455e-91
4.14407e-91
1.41905e-90
3.41368e-90
6.23083e-90
1.60634e-89
1.05155e-89
5.15733e-90
1.31085e-89
2.13083e-95
3.24193e-92
1.62835e-92
1.30761e-92
7.79379e-93
3.09586e-93
1.33524e-93
5.2864e-94
1.71399e-94
4.82409e-95
1.28013e-95
3.46508e-96
1.05867e-96
4.10248e-97
2.52728e-97
2.33805e-97
3.47311e-97
7.64434e-97
2.17105e-96
7.70404e-96
2.96469e-95
1.04906e-94
3.48718e-94
1.14089e-93
2.66443e-93
4.40641e-93
9.1626e-93
5.58855e-93
2.23042e-93
7.59103e-93
1.079e-98
1.91725e-95
9.41007e-96
8.18915e-96
4.98786e-96
1.94088e-96
8.39833e-97
3.29896e-97
1.04259e-97
2.8352e-98
7.24858e-99
1.89632e-99
5.63946e-100
2.14651e-100
1.31023e-100
1.21835e-100
1.84015e-100
4.15837e-100
1.22176e-99
4.50866e-99
1.82266e-98
6.96841e-98
2.44899e-97
8.09483e-97
1.92528e-96
3.11486e-96
5.48077e-96
3.02204e-96
8.40003e-97
4.44161e-96
6.5714e-102
1.19489e-98
5.73421e-99
5.23419e-99
3.18017e-99
1.20715e-99
5.17106e-100
1.97979e-100
6.03722e-101
1.5802e-101
3.89387e-102
9.86656e-103
2.86283e-103
1.07244e-103
6.4986e-104
6.079e-104
9.35187e-104
2.17434e-103
6.62116e-103
2.53486e-102
1.06511e-101
4.27906e-101
1.57087e-100
5.31932e-100
1.30014e-99
2.10917e-99
3.41619e-99
1.76989e-99
3.21331e-100
2.75095e-99
3.50571e-105
7.62579e-102
3.58265e-102
3.35627e-102
2.00849e-102
7.41368e-103
3.11599e-103
1.15283e-103
3.38266e-104
8.52882e-105
2.03064e-105
4.9979e-106
1.41863e-106
5.24117e-107
3.15645e-107
2.97273e-107
4.66204e-107
1.11686e-106
3.52949e-106
1.39998e-105
6.07835e-105
2.53155e-104
9.61472e-104
3.33764e-103
8.39675e-103
1.38112e-102
2.15906e-102
1.07764e-102
1.25289e-103
1.74661e-102
2.55598e-108
4.92797e-105
2.27049e-105
2.1451e-105
1.25306e-105
4.49069e-106
1.84503e-106
6.57918e-107
1.85859e-107
4.52436e-108
1.04373e-108
2.50215e-109
6.96462e-110
2.5423e-110
1.52255e-110
1.44401e-110
2.3106e-110
5.70384e-110
1.87124e-109
7.68225e-109
3.43432e-108
1.47251e-107
5.74758e-107
2.03899e-106
5.27174e-106
8.8325e-106
1.37186e-105
6.76612e-106
5.28643e-107
1.12269e-105
1.62305e-111
3.19764e-108
1.44504e-108
1.36293e-108
7.7283e-109
2.69077e-109
1.07985e-109
3.711e-110
1.01073e-110
2.38048e-111
5.33395e-112
1.24788e-112
3.41277e-113
1.23217e-113
7.3519e-114
7.02296e-114
1.14403e-113
2.91368e-113
9.91967e-113
4.21067e-112
1.93444e-111
8.50843e-111
3.39919e-110
1.22819e-109
3.2553e-109
5.56087e-109
8.7062e-109
4.31417e-109
2.58557e-110
7.23657e-109
1.13376e-114
2.07541e-111
9.24402e-112
8.65813e-112
4.7504e-112
1.6069e-112
6.29688e-113
2.08507e-113
5.47928e-114
1.25019e-114
2.72595e-115
6.23542e-116
1.67833e-116
6.02658e-117
3.59381e-117
3.45853e-117
5.72528e-117
1.49555e-116
5.28204e-116
2.31609e-115
1.09242e-114
4.92095e-114
2.00825e-113
7.37446e-113
2.00078e-112
3.48794e-112
5.5314e-112
2.75974e-112
1.58065e-113
4.6535e-112
7.33562e-115
1.08365e-114
4.24509e-112
3.05696e-112
1.07257e-112
4.0422e-113
1.26148e-113
3.21512e-114
7.29268e-115
1.61238e-115
3.83771e-116
1.07753e-116
3.34269e-117
1.60445e-117
9.35868e-118
9.09156e-118
1.49642e-117
3.33311e-117
1.0516e-116
3.78972e-116
1.63245e-115
7.59343e-115
3.39102e-114
1.37485e-113
4.9714e-113
1.41119e-112
1.43585e-112
1.50819e-113
1.5174e-113
1.50754e-113
0.999991
0.999987
0.999989
0.999992
0.999995
0.999997
1
1
1
1
1
1
1
1
1
1
1.00001
1
1
0.999998
0.999993
0.99999
0.999989
0.999991
0.999998
1.00001
1.00002
1.00003
1.00003
1.00002
0.999987
0.999985
0.999988
0.999991
0.999995
0.999998
1
1
1
1
1
1
1
1
1.00001
1.00001
1.00001
1
1
0.999995
0.99999
0.999988
0.999988
0.999993
1
1.00001
1.00003
1.00004
1.00004
1.00003
0.99999
0.999989
0.999991
0.999994
0.999996
0.999999
1
1
1
1.00001
1.00001
1.00001
1.00001
1.00001
1.00001
1.00001
1
1
0.999999
0.999996
0.999995
0.999995
0.999997
1
1.00001
1.00001
1.00002
1.00002
1.00002
1.00001
0.999993
0.999993
0.999994
0.999996
0.999998
1
1
1
1.00001
1.00001
1.00001
1.00001
1.00001
1.00001
1.00001
1
1
0.999998
0.999997
0.999997
0.999999
1
1
1.00001
1.00001
1.00001
1.00001
1
0.999997
0.999991
0.999996
0.999997
0.999998
0.999998
0.999998
0.999999
1
1
1.00001
1.00001
1.00001
1.00001
1.00001
1.00001
1
0.999998
0.999996
0.999994
0.999995
0.999998
1
1.00001
1.00001
1.00001
1
0.999998
0.999989
0.999983
0.999977
0.999978
1
1
1
0.999998
0.999997
0.999997
0.999997
0.999999
1
1
1.00001
1.00001
1.00001
1
1
0.999997
0.999995
0.999995
0.999997
1
1
1.00001
1.00001
1
0.999995
0.999987
0.999977
0.99997
0.999966
0.999974
1
1
1
0.999998
0.999996
0.999994
0.999994
0.999995
0.999997
1
1
1
1
1
1
1
0.999999
1
1
1
1
1
0.999999
0.999993
0.999986
0.999978
0.999972
0.999968
0.999967
0.999978
1
1
1
0.999998
0.999996
0.999994
0.999994
0.999994
0.999995
0.999997
0.999998
1
1
1
1.00001
1.00001
1.00001
1.00001
1.00001
1
1
0.999996
0.999991
0.999985
0.999979
0.999975
0.999973
0.999973
0.999975
0.999985
1.00001
1.00001
1
1
1
0.999999
0.999998
0.999997
0.999996
0.999996
0.999996
0.999998
1
1.00001
1.00001
1.00001
1.00001
1.00001
1.00001
1
0.999998
0.999991
0.999985
0.999981
0.999978
0.999978
0.999978
0.99998
0.999982
0.99999
1.00001
1.00001
1.00001
1.00001
1.00001
1.00001
1.00001
1
0.999998
0.999996
0.999995
0.999996
0.999999
1
1.00001
1.00001
1.00001
1.00001
1.00001
1
0.999995
0.99999