/*--------------------------------*- C++ -*----------------------------------*\
| =========                 |                                                 |
| \\      /  F ield         | OpenFOAM: The Open Source CFD Toolbox           |
|  \\    /   O peration     | Version:  2312                                  |
|   \\  /    A nd           | Website:  www.openfoam.com                      |
|    \\/     M anipulation  |                                                 |
\*---------------------------------------------------------------------------*/
FoamFile
{
    version     2.0;
    format      ascii;
    arch        "LSB;label=32;scalar=64";
    class       volScalarField;
    location    "0.303149";
    object      epsilon;
}
// * * * * * * * * * * * * * * * * * * * * * * * * * * * * * * * * * * * * * //

dimensions      [0 2 -3 0 0 0 0];

internalField   nonuniform List<scalar> 
90000
(
1.49755e-05
1.49759e-05
1.49759e-05
1.49759e-05
1.49759e-05
1.49759e-05
1.49759e-05
1.49759e-05
1.49759e-05
1.49758e-05
1.49758e-05
1.49758e-05
1.49758e-05
1.49757e-05
1.49757e-05
1.49757e-05
1.49757e-05
1.49757e-05
1.49758e-05
1.49758e-05
1.49758e-05
1.49758e-05
1.49759e-05
1.49759e-05
1.49759e-05
1.49759e-05
1.49759e-05
1.49759e-05
1.49758e-05
1.49757e-05
1.49759e-05
1.49832e-05
1.49833e-05
1.49833e-05
1.49833e-05
1.49833e-05
1.49833e-05
1.49833e-05
1.49833e-05
1.49832e-05
1.49832e-05
1.49832e-05
1.49831e-05
1.49831e-05
1.4983e-05
1.4983e-05
1.4983e-05
1.49831e-05
1.49831e-05
1.49831e-05
1.49832e-05
1.49832e-05
1.49832e-05
1.49832e-05
1.49833e-05
1.49833e-05
1.49833e-05
1.49833e-05
1.49834e-05
1.49767e-05
1.49759e-05
1.49833e-05
1.49835e-05
1.49835e-05
1.49835e-05
1.49835e-05
1.49835e-05
1.49834e-05
1.49834e-05
1.49834e-05
1.49834e-05
1.49833e-05
1.49833e-05
1.49832e-05
1.49832e-05
1.49832e-05
1.49832e-05
1.49833e-05
1.49833e-05
1.49833e-05
1.49834e-05
1.49834e-05
1.49834e-05
1.49834e-05
1.49834e-05
1.49834e-05
1.49834e-05
1.49833e-05
1.49828e-05
1.49761e-05
1.49759e-05
1.49833e-05
1.49835e-05
1.49835e-05
1.49835e-05
1.49835e-05
1.49834e-05
1.49834e-05
1.49834e-05
1.49834e-05
1.49834e-05
1.49833e-05
1.49833e-05
1.49833e-05
1.49832e-05
1.49832e-05
1.49832e-05
1.49833e-05
1.49833e-05
1.49833e-05
1.49833e-05
1.49834e-05
1.49834e-05
1.49834e-05
1.49834e-05
1.49834e-05
1.49835e-05
1.49835e-05
1.49831e-05
1.49759e-05
1.4976e-05
1.49833e-05
1.49835e-05
1.49835e-05
1.49835e-05
1.49834e-05
1.49834e-05
1.49834e-05
1.49834e-05
1.49834e-05
1.49833e-05
1.49833e-05
1.49833e-05
1.49833e-05
1.49832e-05
1.49832e-05
1.49833e-05
1.49833e-05
1.49833e-05
1.49833e-05
1.49833e-05
1.49834e-05
1.49834e-05
1.49834e-05
1.49834e-05
1.49834e-05
1.49834e-05
1.49834e-05
1.49832e-05
1.49759e-05
1.4976e-05
1.49833e-05
1.49835e-05
1.49835e-05
1.49835e-05
1.49835e-05
1.49834e-05
1.49834e-05
1.49834e-05
1.49834e-05
1.49834e-05
1.49833e-05
1.49833e-05
1.49833e-05
1.49832e-05
1.49833e-05
1.49833e-05
1.49833e-05
1.49833e-05
1.49833e-05
1.49834e-05
1.49834e-05
1.49834e-05
1.49834e-05
1.49834e-05
1.49834e-05
1.49834e-05
1.49834e-05
1.49832e-05
1.4976e-05
1.49761e-05
1.49834e-05
1.49835e-05
1.49835e-05
1.49835e-05
1.49835e-05
1.49835e-05
1.49835e-05
1.49834e-05
1.49834e-05
1.49834e-05
1.49833e-05
1.49833e-05
1.49833e-05
1.49833e-05
1.49833e-05
1.49833e-05
1.49833e-05
1.49833e-05
1.49834e-05
1.49834e-05
1.49834e-05
1.49835e-05
1.49835e-05
1.49835e-05
1.49835e-05
1.49835e-05
1.49835e-05
1.49833e-05
1.4976e-05
1.49762e-05
1.49835e-05
1.49836e-05
1.49836e-05
1.49836e-05
1.49836e-05
1.49836e-05
1.49835e-05
1.49835e-05
1.49835e-05
1.49834e-05
1.49834e-05
1.49833e-05
1.49833e-05
1.49832e-05
1.49833e-05
1.49833e-05
1.49833e-05
1.49834e-05
1.49834e-05
1.49835e-05
1.49835e-05
1.49835e-05
1.49836e-05
1.49836e-05
1.49836e-05
1.49836e-05
1.49836e-05
1.49834e-05
1.49761e-05
1.49763e-05
1.49836e-05
1.49838e-05
1.49838e-05
1.49837e-05
1.49837e-05
1.49837e-05
1.49837e-05
1.49836e-05
1.49835e-05
1.49835e-05
1.49834e-05
1.49833e-05
1.49833e-05
1.49832e-05
1.49832e-05
1.49833e-05
1.49834e-05
1.49834e-05
1.49835e-05
1.49836e-05
1.49836e-05
1.49837e-05
1.49837e-05
1.49837e-05
1.49837e-05
1.49837e-05
1.49837e-05
1.49835e-05
1.49762e-05
1.49765e-05
1.49838e-05
1.49839e-05
1.49839e-05
1.49839e-05
1.49839e-05
1.49838e-05
1.49838e-05
1.49837e-05
1.49836e-05
1.49836e-05
1.49835e-05
1.49834e-05
1.49833e-05
1.49832e-05
1.49832e-05
1.49833e-05
1.49834e-05
1.49835e-05
1.49836e-05
1.49837e-05
1.49837e-05
1.49838e-05
1.49838e-05
1.49838e-05
1.49839e-05
1.49839e-05
1.49838e-05
1.49837e-05
1.49764e-05
1.49767e-05
1.4984e-05
1.49842e-05
1.49841e-05
1.49841e-05
1.49841e-05
1.4984e-05
1.49839e-05
1.49838e-05
1.49838e-05
1.49837e-05
1.49835e-05
1.49834e-05
1.49833e-05
1.49832e-05
1.49832e-05
1.49833e-05
1.49834e-05
1.49836e-05
1.49837e-05
1.49838e-05
1.49839e-05
1.49839e-05
1.4984e-05
1.4984e-05
1.4984e-05
1.49841e-05
1.49841e-05
1.49839e-05
1.49767e-05
1.49769e-05
1.49843e-05
1.49844e-05
1.49844e-05
1.49843e-05
1.49843e-05
1.49842e-05
1.49841e-05
1.4984e-05
1.49839e-05
1.49838e-05
1.49836e-05
1.49835e-05
1.49834e-05
1.49832e-05
1.49832e-05
1.49834e-05
1.49835e-05
1.49837e-05
1.49838e-05
1.49839e-05
1.4984e-05
1.49841e-05
1.49842e-05
1.49842e-05
1.49843e-05
1.49843e-05
1.49844e-05
1.49842e-05
1.4977e-05
1.49772e-05
1.49846e-05
1.49847e-05
1.49846e-05
1.49846e-05
1.49845e-05
1.49844e-05
1.49843e-05
1.49842e-05
1.4984e-05
1.49839e-05
1.49838e-05
1.49836e-05
1.49834e-05
1.49833e-05
1.49833e-05
1.49834e-05
1.49836e-05
1.49838e-05
1.4984e-05
1.49841e-05
1.49842e-05
1.49843e-05
1.49844e-05
1.49845e-05
1.49846e-05
1.49847e-05
1.49847e-05
1.49846e-05
1.49773e-05
1.49776e-05
1.49849e-05
1.4985e-05
1.4985e-05
1.49849e-05
1.49848e-05
1.49847e-05
1.49845e-05
1.49844e-05
1.49842e-05
1.49841e-05
1.49839e-05
1.49837e-05
1.49835e-05
1.49833e-05
1.49833e-05
1.49835e-05
1.49837e-05
1.49839e-05
1.49841e-05
1.49843e-05
1.49844e-05
1.49846e-05
1.49847e-05
1.49848e-05
1.4985e-05
1.49851e-05
1.49851e-05
1.4985e-05
1.49777e-05
1.49782e-05
1.49854e-05
1.49855e-05
1.49854e-05
1.49853e-05
1.49852e-05
1.4985e-05
1.49849e-05
1.49847e-05
1.49845e-05
1.49843e-05
1.49841e-05
1.49838e-05
1.49836e-05
1.49834e-05
1.49834e-05
1.49836e-05
1.49838e-05
1.49841e-05
1.49843e-05
1.49845e-05
1.49847e-05
1.49849e-05
1.49851e-05
1.49852e-05
1.49854e-05
1.49855e-05
1.49856e-05
1.49854e-05
1.49782e-05
1.49788e-05
1.4986e-05
1.49861e-05
1.4986e-05
1.49858e-05
1.49857e-05
1.49855e-05
1.49853e-05
1.49851e-05
1.49848e-05
1.49846e-05
1.49843e-05
1.4984e-05
1.49837e-05
1.49834e-05
1.49834e-05
1.49836e-05
1.49839e-05
1.49842e-05
1.49845e-05
1.49848e-05
1.49851e-05
1.49853e-05
1.49855e-05
1.49857e-05
1.49859e-05
1.4986e-05
1.49861e-05
1.4986e-05
1.49787e-05
1.49795e-05
1.49866e-05
1.49868e-05
1.49866e-05
1.49865e-05
1.49863e-05
1.49861e-05
1.49858e-05
1.49856e-05
1.49852e-05
1.49849e-05
1.49845e-05
1.49841e-05
1.49838e-05
1.49835e-05
1.49835e-05
1.49838e-05
1.49841e-05
1.49845e-05
1.49848e-05
1.49852e-05
1.49855e-05
1.49858e-05
1.49861e-05
1.49863e-05
1.49865e-05
1.49866e-05
1.49867e-05
1.49866e-05
1.49794e-05
1.49803e-05
1.49875e-05
1.49876e-05
1.49874e-05
1.49873e-05
1.4987e-05
1.49868e-05
1.49865e-05
1.49861e-05
1.49857e-05
1.49853e-05
1.49848e-05
1.49844e-05
1.4984e-05
1.49837e-05
1.49836e-05
1.4984e-05
1.49844e-05
1.49848e-05
1.49853e-05
1.49857e-05
1.49861e-05
1.49865e-05
1.49868e-05
1.49871e-05
1.49873e-05
1.49874e-05
1.49876e-05
1.49875e-05
1.49803e-05
1.49813e-05
1.49885e-05
1.49886e-05
1.49884e-05
1.49882e-05
1.49879e-05
1.49876e-05
1.49873e-05
1.49868e-05
1.49863e-05
1.49858e-05
1.49853e-05
1.49848e-05
1.49843e-05
1.49839e-05
1.49839e-05
1.49843e-05
1.49848e-05
1.49853e-05
1.49859e-05
1.49864e-05
1.49869e-05
1.49873e-05
1.49877e-05
1.4988e-05
1.49882e-05
1.49884e-05
1.49886e-05
1.49886e-05
1.49814e-05
1.49825e-05
1.49897e-05
1.49897e-05
1.49896e-05
1.49893e-05
1.4989e-05
1.49886e-05
1.49882e-05
1.49877e-05
1.49871e-05
1.49865e-05
1.49859e-05
1.49853e-05
1.49846e-05
1.49842e-05
1.49841e-05
1.49846e-05
1.49852e-05
1.49859e-05
1.49865e-05
1.49872e-05
1.49877e-05
1.49882e-05
1.49887e-05
1.49891e-05
1.49894e-05
1.49897e-05
1.49899e-05
1.49898e-05
1.49826e-05
1.4984e-05
1.49912e-05
1.49912e-05
1.4991e-05
1.49907e-05
1.49903e-05
1.49899e-05
1.49894e-05
1.49888e-05
1.49881e-05
1.49874e-05
1.49866e-05
1.49858e-05
1.49851e-05
1.49845e-05
1.49845e-05
1.4985e-05
1.49858e-05
1.49866e-05
1.49873e-05
1.49881e-05
1.49887e-05
1.49893e-05
1.49899e-05
1.49904e-05
1.49908e-05
1.49911e-05
1.49913e-05
1.49913e-05
1.4984e-05
1.49858e-05
1.4993e-05
1.4993e-05
1.49927e-05
1.49924e-05
1.4992e-05
1.49914e-05
1.49908e-05
1.49901e-05
1.49893e-05
1.49884e-05
1.49874e-05
1.49865e-05
1.49856e-05
1.49849e-05
1.49849e-05
1.49856e-05
1.49865e-05
1.49874e-05
1.49883e-05
1.49892e-05
1.499e-05
1.49907e-05
1.49914e-05
1.4992e-05
1.49925e-05
1.49929e-05
1.49931e-05
1.49931e-05
1.49859e-05
1.4988e-05
1.49953e-05
1.49952e-05
1.49949e-05
1.49945e-05
1.4994e-05
1.49933e-05
1.49925e-05
1.49916e-05
1.49906e-05
1.49895e-05
1.49884e-05
1.49872e-05
1.49862e-05
1.49854e-05
1.49855e-05
1.49863e-05
1.49873e-05
1.49884e-05
1.49895e-05
1.49906e-05
1.49915e-05
1.49925e-05
1.49933e-05
1.4994e-05
1.49946e-05
1.4995e-05
1.49953e-05
1.49954e-05
1.49882e-05
1.49907e-05
1.4998e-05
1.4998e-05
1.49976e-05
1.49971e-05
1.49964e-05
1.49955e-05
1.49946e-05
1.49935e-05
1.49922e-05
1.49909e-05
1.49896e-05
1.49882e-05
1.4987e-05
1.49862e-05
1.49862e-05
1.49871e-05
1.49884e-05
1.49897e-05
1.4991e-05
1.49923e-05
1.49935e-05
1.49946e-05
1.49956e-05
1.49964e-05
1.49971e-05
1.49976e-05
1.4998e-05
1.49981e-05
1.4991e-05
1.4994e-05
1.50013e-05
1.50012e-05
1.50007e-05
1.50001e-05
1.49993e-05
1.49982e-05
1.49971e-05
1.49958e-05
1.49943e-05
1.49928e-05
1.49912e-05
1.49896e-05
1.49881e-05
1.49872e-05
1.49872e-05
1.49882e-05
1.49897e-05
1.49913e-05
1.49929e-05
1.49945e-05
1.49959e-05
1.49972e-05
1.49983e-05
1.49993e-05
1.50001e-05
1.50007e-05
1.50012e-05
1.50014e-05
1.49942e-05
1.4998e-05
1.50053e-05
1.50051e-05
1.50045e-05
1.50037e-05
1.50027e-05
1.50015e-05
1.50002e-05
1.49986e-05
1.49969e-05
1.49951e-05
1.49932e-05
1.49913e-05
1.49895e-05
1.49884e-05
1.49884e-05
1.49895e-05
1.49913e-05
1.49932e-05
1.49952e-05
1.4997e-05
1.49987e-05
1.50002e-05
1.50015e-05
1.50027e-05
1.50037e-05
1.50045e-05
1.5005e-05
1.50052e-05
1.4998e-05
1.50027e-05
1.50099e-05
1.50096e-05
1.50089e-05
1.5008e-05
1.50069e-05
1.50056e-05
1.5004e-05
1.50021e-05
1.50001e-05
1.49979e-05
1.49956e-05
1.49933e-05
1.49913e-05
1.49899e-05
1.49899e-05
1.49912e-05
1.49933e-05
1.49956e-05
1.49979e-05
1.50001e-05
1.50022e-05
1.50039e-05
1.50055e-05
1.50069e-05
1.50081e-05
1.5009e-05
1.50096e-05
1.50098e-05
1.50027e-05
1.50083e-05
1.50153e-05
1.5015e-05
1.50142e-05
1.50133e-05
1.5012e-05
1.50104e-05
1.50086e-05
1.50064e-05
1.50039e-05
1.50013e-05
1.49986e-05
1.49959e-05
1.49935e-05
1.49919e-05
1.49919e-05
1.49934e-05
1.49958e-05
1.49986e-05
1.50014e-05
1.5004e-05
1.50064e-05
1.50085e-05
1.50104e-05
1.5012e-05
1.50133e-05
1.50143e-05
1.5015e-05
1.50153e-05
1.50083e-05
1.50148e-05
1.50218e-05
1.50215e-05
1.50206e-05
1.50195e-05
1.5018e-05
1.50162e-05
1.5014e-05
1.50114e-05
1.50086e-05
1.50055e-05
1.50023e-05
1.49991e-05
1.49963e-05
1.49945e-05
1.49945e-05
1.49963e-05
1.49991e-05
1.50023e-05
1.50056e-05
1.50087e-05
1.50115e-05
1.5014e-05
1.50163e-05
1.50181e-05
1.50196e-05
1.50207e-05
1.50215e-05
1.5022e-05
1.50149e-05
1.50226e-05
1.50296e-05
1.50292e-05
1.50283e-05
1.5027e-05
1.50252e-05
1.50231e-05
1.50205e-05
1.50175e-05
1.50142e-05
1.50106e-05
1.50069e-05
1.50032e-05
1.5e-05
1.4998e-05
1.49981e-05
1.50001e-05
1.50033e-05
1.5007e-05
1.50107e-05
1.50143e-05
1.50177e-05
1.50207e-05
1.50232e-05
1.50253e-05
1.50269e-05
1.50282e-05
1.50292e-05
1.50297e-05
1.50227e-05
1.50318e-05
1.50389e-05
1.50384e-05
1.50373e-05
1.50358e-05
1.50338e-05
1.50313e-05
1.50284e-05
1.5025e-05
1.50212e-05
1.5017e-05
1.50127e-05
1.50084e-05
1.50048e-05
1.50026e-05
1.50027e-05
1.50049e-05
1.50085e-05
1.50127e-05
1.5017e-05
1.50212e-05
1.50251e-05
1.50286e-05
1.50315e-05
1.50338e-05
1.50357e-05
1.50373e-05
1.50384e-05
1.50389e-05
1.50319e-05
1.50427e-05
1.50498e-05
1.50491e-05
1.50479e-05
1.50462e-05
1.5044e-05
1.50412e-05
1.50379e-05
1.50341e-05
1.50297e-05
1.5025e-05
1.502e-05
1.50151e-05
1.5011e-05
1.50085e-05
1.50085e-05
1.5011e-05
1.5015e-05
1.50198e-05
1.50248e-05
1.50297e-05
1.50342e-05
1.50381e-05
1.50413e-05
1.5044e-05
1.50462e-05
1.5048e-05
1.50492e-05
1.50497e-05
1.50429e-05
1.50555e-05
1.50624e-05
1.50617e-05
1.50604e-05
1.50585e-05
1.50561e-05
1.50531e-05
1.50494e-05
1.50451e-05
1.50402e-05
1.50347e-05
1.5029e-05
1.50235e-05
1.50189e-05
1.50161e-05
1.50162e-05
1.50188e-05
1.50234e-05
1.50288e-05
1.50345e-05
1.50401e-05
1.50451e-05
1.50494e-05
1.50531e-05
1.50561e-05
1.50586e-05
1.50605e-05
1.50617e-05
1.50624e-05
1.50556e-05
1.50701e-05
1.5077e-05
1.50763e-05
1.50749e-05
1.5073e-05
1.50704e-05
1.50671e-05
1.50631e-05
1.50583e-05
1.50528e-05
1.50466e-05
1.50402e-05
1.5034e-05
1.5029e-05
1.5026e-05
1.5026e-05
1.5029e-05
1.5034e-05
1.50401e-05
1.50465e-05
1.50527e-05
1.50582e-05
1.5063e-05
1.5067e-05
1.50704e-05
1.5073e-05
1.50749e-05
1.50762e-05
1.5077e-05
1.50701e-05
1.5087e-05
1.50938e-05
1.50931e-05
1.50917e-05
1.50898e-05
1.50871e-05
1.50837e-05
1.50794e-05
1.50741e-05
1.5068e-05
1.50612e-05
1.50541e-05
1.50475e-05
1.5042e-05
1.50388e-05
1.50388e-05
1.5042e-05
1.50475e-05
1.50542e-05
1.50612e-05
1.50679e-05
1.50739e-05
1.50791e-05
1.50835e-05
1.5087e-05
1.50897e-05
1.50916e-05
1.50929e-05
1.50935e-05
1.50866e-05
1.51061e-05
1.5113e-05
1.51124e-05
1.51111e-05
1.51092e-05
1.51065e-05
1.5103e-05
1.50985e-05
1.50929e-05
1.50864e-05
1.50792e-05
1.50716e-05
1.50645e-05
1.50587e-05
1.50553e-05
1.50553e-05
1.50587e-05
1.50646e-05
1.50718e-05
1.50794e-05
1.50865e-05
1.5093e-05
1.50985e-05
1.5103e-05
1.51065e-05
1.51091e-05
1.51109e-05
1.51121e-05
1.51125e-05
1.51056e-05
1.51277e-05
1.51346e-05
1.51341e-05
1.5133e-05
1.51314e-05
1.51289e-05
1.51255e-05
1.5121e-05
1.51154e-05
1.51088e-05
1.51013e-05
1.50934e-05
1.50859e-05
1.50798e-05
1.50763e-05
1.50763e-05
1.50799e-05
1.50861e-05
1.50937e-05
1.51016e-05
1.51091e-05
1.51158e-05
1.51214e-05
1.51259e-05
1.51292e-05
1.51315e-05
1.51331e-05
1.51339e-05
1.5134e-05
1.51272e-05
1.51517e-05
1.51586e-05
1.51584e-05
1.51577e-05
1.51564e-05
1.51545e-05
1.51515e-05
1.51475e-05
1.51422e-05
1.51357e-05
1.51282e-05
1.51202e-05
1.51126e-05
1.51064e-05
1.51028e-05
1.51028e-05
1.51064e-05
1.51128e-05
1.51206e-05
1.51286e-05
1.51361e-05
1.51428e-05
1.51482e-05
1.51523e-05
1.51551e-05
1.5157e-05
1.5158e-05
1.51583e-05
1.51583e-05
1.51514e-05
1.51779e-05
1.51849e-05
1.51851e-05
1.5185e-05
1.51845e-05
1.51834e-05
1.51813e-05
1.51781e-05
1.51735e-05
1.51675e-05
1.51605e-05
1.51527e-05
1.51453e-05
1.51391e-05
1.51356e-05
1.51356e-05
1.51392e-05
1.51454e-05
1.51529e-05
1.51606e-05
1.51678e-05
1.51739e-05
1.51786e-05
1.51819e-05
1.5184e-05
1.51851e-05
1.51854e-05
1.51853e-05
1.5185e-05
1.51781e-05
1.5206e-05
1.52131e-05
1.5214e-05
1.52148e-05
1.52154e-05
1.52156e-05
1.52149e-05
1.5213e-05
1.52097e-05
1.52048e-05
1.51986e-05
1.51917e-05
1.51848e-05
1.5179e-05
1.51757e-05
1.51756e-05
1.51789e-05
1.51845e-05
1.51913e-05
1.51983e-05
1.52045e-05
1.52095e-05
1.5213e-05
1.5215e-05
1.52159e-05
1.52158e-05
1.52151e-05
1.52143e-05
1.52136e-05
1.52067e-05
1.52355e-05
1.52428e-05
1.52446e-05
1.52467e-05
1.5249e-05
1.5251e-05
1.52523e-05
1.52523e-05
1.52509e-05
1.52479e-05
1.52434e-05
1.52379e-05
1.52321e-05
1.52271e-05
1.52241e-05
1.5224e-05
1.52268e-05
1.52316e-05
1.52373e-05
1.52427e-05
1.52473e-05
1.52503e-05
1.52518e-05
1.52519e-05
1.52508e-05
1.52489e-05
1.52467e-05
1.52448e-05
1.52435e-05
1.52362e-05
1.52655e-05
1.52733e-05
1.52763e-05
1.52802e-05
1.52846e-05
1.52891e-05
1.5293e-05
1.52958e-05
1.52972e-05
1.5297e-05
1.52951e-05
1.52919e-05
1.52881e-05
1.52845e-05
1.52822e-05
1.52822e-05
1.52843e-05
1.52878e-05
1.52915e-05
1.52947e-05
1.52965e-05
1.52967e-05
1.52952e-05
1.52924e-05
1.52885e-05
1.52842e-05
1.528e-05
1.52765e-05
1.5274e-05
1.52662e-05
1.52952e-05
1.53037e-05
1.53084e-05
1.53144e-05
1.53215e-05
1.5329e-05
1.53364e-05
1.5343e-05
1.53482e-05
1.53518e-05
1.53536e-05
1.53538e-05
1.53527e-05
1.53512e-05
1.53503e-05
1.53504e-05
1.53514e-05
1.53529e-05
1.53538e-05
1.53536e-05
1.53517e-05
1.53481e-05
1.53427e-05
1.5336e-05
1.53286e-05
1.53211e-05
1.53143e-05
1.53087e-05
1.53045e-05
1.52957e-05
1.53242e-05
1.53337e-05
1.53401e-05
1.53486e-05
1.53587e-05
1.53699e-05
1.53815e-05
1.53927e-05
1.54029e-05
1.54115e-05
1.5418e-05
1.54225e-05
1.54251e-05
1.54264e-05
1.5427e-05
1.54271e-05
1.54267e-05
1.54254e-05
1.54228e-05
1.54183e-05
1.54117e-05
1.54029e-05
1.53927e-05
1.53813e-05
1.53696e-05
1.53584e-05
1.53486e-05
1.53406e-05
1.53342e-05
1.53244e-05
1.53526e-05
1.53628e-05
1.53711e-05
1.53822e-05
1.53958e-05
1.5411e-05
1.54273e-05
1.54439e-05
1.54599e-05
1.54745e-05
1.54869e-05
1.54967e-05
1.55036e-05
1.55081e-05
1.55103e-05
1.55103e-05
1.55082e-05
1.55037e-05
1.54969e-05
1.54872e-05
1.54747e-05
1.546e-05
1.54439e-05
1.54272e-05
1.54108e-05
1.53956e-05
1.53823e-05
1.53716e-05
1.53631e-05
1.53527e-05
1.53776e-05
1.53893e-05
1.54002e-05
1.54146e-05
1.5432e-05
1.54515e-05
1.54729e-05
1.54951e-05
1.55171e-05
1.5538e-05
1.55571e-05
1.5573e-05
1.55852e-05
1.55929e-05
1.55964e-05
1.55964e-05
1.55929e-05
1.55852e-05
1.55731e-05
1.55572e-05
1.55382e-05
1.55171e-05
1.5495e-05
1.54728e-05
1.54513e-05
1.54319e-05
1.54148e-05
1.54006e-05
1.53895e-05
1.53777e-05
1.54006e-05
1.54141e-05
1.54281e-05
1.54458e-05
1.54671e-05
1.54912e-05
1.55173e-05
1.55449e-05
1.55728e-05
1.56001e-05
1.56257e-05
1.56482e-05
1.5666e-05
1.56778e-05
1.56835e-05
1.56835e-05
1.56778e-05
1.5666e-05
1.56482e-05
1.56257e-05
1.56002e-05
1.55728e-05
1.55448e-05
1.55172e-05
1.5491e-05
1.54671e-05
1.54461e-05
1.54283e-05
1.54144e-05
1.54008e-05
1.54276e-05
1.54442e-05
1.54615e-05
1.5483e-05
1.55087e-05
1.55376e-05
1.55692e-05
1.56024e-05
1.56368e-05
1.56714e-05
1.57048e-05
1.57364e-05
1.57658e-05
1.57926e-05
1.58156e-05
1.58155e-05
1.57925e-05
1.57656e-05
1.57363e-05
1.57046e-05
1.56713e-05
1.56367e-05
1.56022e-05
1.55691e-05
1.55376e-05
1.55088e-05
1.54833e-05
1.54617e-05
1.54444e-05
1.54276e-05
1.55267e-05
1.55398e-05
1.55549e-05
1.55734e-05
1.55968e-05
1.56237e-05
1.56527e-05
1.56843e-05
1.57204e-05
1.57646e-05
1.58335e-05
1.59557e-05
1.6161e-05
1.64364e-05
1.67866e-05
1.67856e-05
1.64371e-05
1.61603e-05
1.59552e-05
1.58335e-05
1.57645e-05
1.57203e-05
1.56844e-05
1.56525e-05
1.56236e-05
1.55972e-05
1.5574e-05
1.55549e-05
1.55404e-05
1.5526e-05
1.53911e-05
1.5404e-05
1.54221e-05
1.5445e-05
1.54791e-05
1.55114e-05
1.55629e-05
1.56475e-05
1.58569e-05
1.63376e-05
1.74994e-05
1.98999e-05
2.41325e-05
2.99573e-05
3.79507e-05
3.79325e-05
2.99711e-05
2.41215e-05
1.98973e-05
1.75108e-05
1.63452e-05
1.58596e-05
1.56459e-05
1.55583e-05
1.55079e-05
1.54725e-05
1.54424e-05
1.54191e-05
1.54034e-05
1.53892e-05
1.60532e-05
1.60668e-05
1.62718e-05
1.67381e-05
1.74237e-05
1.85165e-05
2.06603e-05
2.54071e-05
3.58796e-05
5.88106e-05
0.000109334
0.000209192
0.000382946
0.000619242
0.000958653
0.000958319
0.000619222
0.000383021
0.000209639
0.000110043
5.92481e-05
3.60404e-05
2.54337e-05
2.06022e-05
1.83595e-05
1.72352e-05
1.65961e-05
1.61968e-05
1.6002e-05
1.59068e-05
3.07693e-05
3.27119e-05
4.03325e-05
5.48863e-05
7.86413e-05
0.000129591
0.000258184
0.00056732
0.00121912
0.00240358
0.00431482
0.00701592
0.010192
0.0130895
0.0161257
0.0161255
0.013082
0.0102126
0.00704404
0.00433641
0.0024184
0.00122857
0.000573103
0.000260716
0.000130626
7.90516e-05
5.47522e-05
4.01767e-05
3.19461e-05
3.0541e-05
4.1904e-05
4.4128e-05
5.12357e-05
6.50721e-05
9.12769e-05
0.000148716
0.000282518
0.000561895
0.00108322
0.00206797
0.00410726
0.00819099
0.0139335
0.018709
0.0254198
0.0254171
0.0187232
0.0140305
0.00829889
0.00416183
0.00208875
0.00109258
0.000567231
0.000285449
0.00015013
9.16569e-05
6.49109e-05
5.11963e-05
4.37244e-05
4.20056e-05
4.84185e-05
5.06056e-05
5.60601e-05
6.55459e-05
8.14741e-05
0.000113505
0.000193111
0.000392954
0.000836711
0.00171138
0.0032551
0.00562134
0.00875515
0.011742
0.0154343
0.0154355
0.011746
0.00879489
0.00566512
0.00328211
0.00172735
0.000845727
0.000397636
0.000195168
0.000114375
8.16856e-05
6.54762e-05
5.60136e-05
5.04387e-05
4.86006e-05
5.23631e-05
5.43838e-05
5.79919e-05
6.38738e-05
7.24213e-05
8.5651e-05
0.000111126
0.000178755
0.000365861
0.000847313
0.00185597
0.00350464
0.00568564
0.0079723
0.0105281
0.010529
0.0079721
0.00570333
0.003526
0.00187196
0.000857056
0.000370548
0.000180639
0.000111863
8.60078e-05
7.25804e-05
6.39196e-05
5.7992e-05
5.43029e-05
5.25727e-05
5.41897e-05
5.58929e-05
5.82259e-05
6.18378e-05
6.66245e-05
7.28606e-05
8.15485e-05
9.68887e-05
0.000133936
0.000252207
0.000587089
0.00131421
0.00249342
0.00405555
0.00606524
0.0060637
0.00405398
0.00249963
0.00132162
0.000592736
0.000255158
0.000135155
9.74162e-05
8.18334e-05
7.30596e-05
6.67512e-05
6.18902e-05
5.8243e-05
5.58281e-05
5.4205e-05
5.38762e-05
5.54356e-05
5.70265e-05
5.94096e-05
6.24283e-05
6.60655e-05
7.03624e-05
7.57081e-05
8.36079e-05
0.000100377
0.000148855
0.000280034
0.00056887
0.00111894
0.00206768
0.00206604
0.00111819
0.000570063
0.000281347
0.000149807
0.000100892
8.38553e-05
7.58633e-05
7.04972e-05
6.62007e-05
6.25394e-05
5.94712e-05
5.70891e-05
5.54907e-05
5.39438e-05
5.24227e-05
5.39773e-05
5.50901e-05
5.67706e-05
5.8887e-05
6.13729e-05
6.42004e-05
6.7374e-05
7.10441e-05
7.57206e-05
8.28685e-05
9.63353e-05
0.000123448
0.00018907
0.00033912
0.00033881
0.000189116
0.000123726
9.66008e-05
8.30926e-05
7.58977e-05
7.11853e-05
6.75018e-05
6.4313e-05
6.14675e-05
5.89575e-05
5.67982e-05
5.51059e-05
5.39989e-05
5.24861e-05
5.05722e-05
5.18711e-05
5.26886e-05
5.39878e-05
5.5641e-05
5.75571e-05
5.96698e-05
6.19794e-05
6.44935e-05
6.72618e-05
7.03025e-05
7.37608e-05
7.78531e-05
8.31922e-05
9.18444e-05
9.18268e-05
8.31856e-05
7.78421e-05
7.37447e-05
7.03031e-05
6.7291e-05
6.45576e-05
6.20433e-05
5.9727e-05
5.76201e-05
5.57151e-05
5.40606e-05
5.27489e-05
5.18909e-05
5.06312e-05
4.85801e-05
4.95415e-05
5.01614e-05
5.11704e-05
5.24425e-05
5.39185e-05
5.55561e-05
5.72958e-05
5.91268e-05
6.10122e-05
6.28784e-05
6.46896e-05
6.63796e-05
6.78505e-05
6.8977e-05
6.90026e-05
6.78959e-05
6.64377e-05
6.47739e-05
6.29873e-05
6.11283e-05
5.92438e-05
5.73921e-05
5.56222e-05
5.39717e-05
5.248e-05
5.12003e-05
5.01951e-05
4.95762e-05
4.85422e-05
4.60752e-05
4.69197e-05
4.73961e-05
4.81865e-05
4.91808e-05
5.03193e-05
5.15665e-05
5.28567e-05
5.41751e-05
5.54461e-05
5.66486e-05
5.77263e-05
5.86466e-05
5.93303e-05
5.97232e-05
5.97527e-05
5.93817e-05
5.87083e-05
5.77965e-05
5.67226e-05
5.55099e-05
5.42277e-05
5.29051e-05
5.1595e-05
5.03364e-05
4.91872e-05
4.82031e-05
4.74366e-05
4.70054e-05
4.6129e-05
4.35785e-05
4.42202e-05
4.45481e-05
4.51339e-05
4.58854e-05
4.67348e-05
4.7643e-05
4.85448e-05
4.94152e-05
5.02106e-05
5.09095e-05
5.14841e-05
5.19127e-05
5.21881e-05
5.23419e-05
5.23456e-05
5.21895e-05
5.1897e-05
5.14661e-05
5.09033e-05
5.02021e-05
4.9406e-05
4.85438e-05
4.76394e-05
4.67401e-05
4.59065e-05
4.51751e-05
4.45894e-05
4.42721e-05
4.36715e-05
4.09734e-05
4.14844e-05
4.16543e-05
4.20695e-05
4.25901e-05
4.31719e-05
4.37616e-05
4.43199e-05
4.48114e-05
4.52085e-05
4.55078e-05
4.57047e-05
4.57829e-05
4.57942e-05
4.57855e-05
4.57818e-05
4.57977e-05
4.57975e-05
4.57372e-05
4.5563e-05
4.52666e-05
4.4857e-05
4.4356e-05
4.37891e-05
4.32034e-05
4.26419e-05
4.21308e-05
4.17164e-05
4.15153e-05
4.10101e-05
3.8277e-05
3.86696e-05
3.87543e-05
3.90362e-05
3.93801e-05
3.97533e-05
4.00879e-05
4.03666e-05
4.05683e-05
4.0669e-05
4.06687e-05
4.05664e-05
4.03929e-05
4.02218e-05
4.01107e-05
4.01178e-05
4.02519e-05
4.04409e-05
4.06135e-05
4.07149e-05
4.07179e-05
4.06116e-05
4.04002e-05
4.01093e-05
3.97705e-05
3.94209e-05
3.90906e-05
3.88182e-05
3.87227e-05
3.82748e-05
3.55563e-05
3.5906e-05
3.59517e-05
3.6121e-05
3.63275e-05
3.65199e-05
3.66609e-05
3.67411e-05
3.67292e-05
3.66149e-05
3.63977e-05
3.60894e-05
3.57543e-05
3.54608e-05
3.52728e-05
3.52736e-05
3.54641e-05
3.57671e-05
3.61057e-05
3.64136e-05
3.66396e-05
3.67553e-05
3.67579e-05
3.66688e-05
3.65236e-05
3.6342e-05
3.61494e-05
3.59909e-05
3.59788e-05
3.55949e-05
3.299e-05
3.33049e-05
3.32931e-05
3.33777e-05
3.34587e-05
3.35252e-05
3.35204e-05
3.34487e-05
3.32953e-05
3.30314e-05
3.26639e-05
3.22335e-05
3.17978e-05
3.14269e-05
3.12043e-05
3.12103e-05
3.14393e-05
3.18158e-05
3.22573e-05
3.26839e-05
3.30465e-05
3.33132e-05
3.34748e-05
3.35434e-05
3.35365e-05
3.34788e-05
3.33983e-05
3.33323e-05
3.33739e-05
3.30539e-05
3.06814e-05
3.09109e-05
3.08623e-05
3.08626e-05
3.08664e-05
3.08249e-05
3.07207e-05
3.05549e-05
3.0295e-05
2.99287e-05
2.94821e-05
2.89886e-05
2.85028e-05
2.80965e-05
2.78633e-05
2.78716e-05
2.81102e-05
2.85106e-05
2.89959e-05
2.9493e-05
2.9943e-05
3.03107e-05
3.05789e-05
3.07501e-05
3.08426e-05
3.08805e-05
3.08825e-05
3.08773e-05
3.09478e-05
3.07236e-05
2.85671e-05
2.87256e-05
2.86368e-05
2.85751e-05
2.85369e-05
2.84225e-05
2.82662e-05
2.80381e-05
2.77079e-05
2.72914e-05
2.68091e-05
2.62884e-05
2.57828e-05
2.53671e-05
2.51292e-05
2.51316e-05
2.53707e-05
2.57842e-05
2.62909e-05
2.68195e-05
2.73094e-05
2.77261e-05
2.80556e-05
2.82982e-05
2.84615e-05
2.8559e-05
2.86103e-05
2.86422e-05
2.87274e-05
2.85825e-05
2.66511e-05
2.67481e-05
2.66395e-05
2.65739e-05
2.64709e-05
2.63269e-05
2.61424e-05
2.58695e-05
2.55083e-05
2.5079e-05
2.45863e-05
2.40621e-05
2.35641e-05
2.31639e-05
2.29368e-05
2.29401e-05
2.31736e-05
2.35768e-05
2.40742e-05
2.45992e-05
2.50985e-05
2.5538e-05
2.58996e-05
2.61774e-05
2.63745e-05
2.65039e-05
2.65858e-05
2.66443e-05
2.67368e-05
2.66494e-05
2.49643e-05
2.50085e-05
2.48927e-05
2.48194e-05
2.4692e-05
2.45514e-05
2.43381e-05
2.40437e-05
2.36852e-05
2.32577e-05
2.27721e-05
2.22674e-05
2.17981e-05
2.14207e-05
2.12007e-05
2.11993e-05
2.14203e-05
2.18042e-05
2.22798e-05
2.27846e-05
2.32687e-05
2.37002e-05
2.40614e-05
2.4347e-05
2.45605e-05
2.47122e-05
2.48159e-05
2.48898e-05
2.49805e-05
2.49334e-05
2.34268e-05
2.34577e-05
2.33612e-05
2.3278e-05
2.31725e-05
2.30188e-05
2.27882e-05
2.25024e-05
2.21549e-05
2.17412e-05
2.12835e-05
2.08167e-05
2.03828e-05
2.00301e-05
1.98232e-05
1.98235e-05
2.00324e-05
2.03911e-05
2.08319e-05
2.12982e-05
2.1748e-05
2.21553e-05
2.25048e-05
2.27895e-05
2.30098e-05
2.31718e-05
2.32849e-05
2.33639e-05
2.34493e-05
2.34329e-05
2.21354e-05
2.21105e-05
2.2049e-05
2.19657e-05
2.18626e-05
2.16927e-05
2.14742e-05
2.12082e-05
2.08783e-05
2.04952e-05
2.00795e-05
1.96569e-05
1.92586e-05
1.89317e-05
1.87406e-05
1.87413e-05
1.89325e-05
1.92589e-05
1.96588e-05
2.00833e-05
2.04974e-05
2.08773e-05
2.1207e-05
2.14786e-05
2.16922e-05
2.18532e-05
2.19694e-05
2.20515e-05
2.21316e-05
2.21353e-05
2.10004e-05
2.09798e-05
2.09206e-05
2.08455e-05
2.07321e-05
2.05733e-05
2.03784e-05
2.01275e-05
1.98225e-05
1.94771e-05
1.91049e-05
1.87227e-05
1.83592e-05
1.80626e-05
1.7891e-05
1.78932e-05
1.80672e-05
1.83619e-05
1.87224e-05
1.91058e-05
1.94809e-05
1.98253e-05
2.01253e-05
2.03756e-05
2.05772e-05
2.07339e-05
2.08506e-05
2.0934e-05
2.10054e-05
2.10171e-05
2.00248e-05
2.00332e-05
1.99621e-05
1.989e-05
1.97801e-05
1.96385e-05
1.9453e-05
1.9218e-05
1.89456e-05
1.86422e-05
1.83133e-05
1.79729e-05
1.76503e-05
1.7389e-05
1.72374e-05
1.72398e-05
1.73955e-05
1.76577e-05
1.79782e-05
1.83181e-05
1.86506e-05
1.89566e-05
1.92259e-05
1.94545e-05
1.96421e-05
1.97901e-05
1.99012e-05
1.99801e-05
2.00426e-05
2.00551e-05
1.92303e-05
1.92148e-05
1.91596e-05
1.90874e-05
1.8985e-05
1.88522e-05
1.86782e-05
1.84719e-05
1.82375e-05
1.79741e-05
1.76851e-05
1.73856e-05
1.71021e-05
1.68697e-05
1.67316e-05
1.6731e-05
1.68681e-05
1.71001e-05
1.73832e-05
1.76829e-05
1.79755e-05
1.82456e-05
1.84848e-05
1.86893e-05
1.88579e-05
1.89914e-05
1.90921e-05
1.91641e-05
1.92193e-05
1.92327e-05
1.85346e-05
1.85156e-05
1.8473e-05
1.84009e-05
1.83093e-05
1.8189e-05
1.80397e-05
1.78645e-05
1.76609e-05
1.74287e-05
1.7175e-05
1.69141e-05
1.66659e-05
1.64588e-05
1.63336e-05
1.63325e-05
1.6456e-05
1.66633e-05
1.69133e-05
1.71758e-05
1.74302e-05
1.76645e-05
1.78721e-05
1.80501e-05
1.81977e-05
1.83159e-05
1.84066e-05
1.84724e-05
1.85218e-05
1.85356e-05
1.79347e-05
1.79392e-05
1.78875e-05
1.78235e-05
1.77454e-05
1.7642e-05
1.75151e-05
1.73616e-05
1.7181e-05
1.69776e-05
1.67596e-05
1.6536e-05
1.63215e-05
1.61405e-05
1.60301e-05
1.60304e-05
1.61416e-05
1.63242e-05
1.65411e-05
1.67663e-05
1.69835e-05
1.71838e-05
1.73623e-05
1.75167e-05
1.76462e-05
1.77511e-05
1.78324e-05
1.78917e-05
1.7935e-05
1.7947e-05
1.74525e-05
1.74453e-05
1.73964e-05
1.73474e-05
1.72792e-05
1.71897e-05
1.70778e-05
1.69427e-05
1.67866e-05
1.66141e-05
1.64296e-05
1.62388e-05
1.6054e-05
1.58964e-05
1.5799e-05
1.57991e-05
1.58961e-05
1.60534e-05
1.62382e-05
1.64296e-05
1.66151e-05
1.67875e-05
1.69422e-05
1.70768e-05
1.719e-05
1.72818e-05
1.73528e-05
1.74045e-05
1.74413e-05
1.74504e-05
1.70367e-05
1.70173e-05
1.69878e-05
1.69476e-05
1.68859e-05
1.68061e-05
1.67089e-05
1.65952e-05
1.64655e-05
1.6321e-05
1.61639e-05
1.59998e-05
1.58397e-05
1.5702e-05
1.56164e-05
1.56166e-05
1.57011e-05
1.58363e-05
1.59943e-05
1.61583e-05
1.63179e-05
1.64665e-05
1.65997e-05
1.67152e-05
1.6812e-05
1.68902e-05
1.69507e-05
1.69952e-05
1.70265e-05
1.70337e-05
1.66763e-05
1.66745e-05
1.66538e-05
1.66137e-05
1.6558e-05
1.64884e-05
1.6408e-05
1.63145e-05
1.62059e-05
1.60824e-05
1.59471e-05
1.58059e-05
1.56687e-05
1.55512e-05
1.54782e-05
1.54792e-05
1.5553e-05
1.56696e-05
1.5805e-05
1.5945e-05
1.60806e-05
1.62061e-05
1.63183e-05
1.64153e-05
1.64967e-05
1.65629e-05
1.66149e-05
1.66539e-05
1.66814e-05
1.66869e-05
1.6391e-05
1.63997e-05
1.63752e-05
1.63388e-05
1.62907e-05
1.62339e-05
1.61668e-05
1.60864e-05
1.59926e-05
1.58869e-05
1.5772e-05
1.56531e-05
1.55384e-05
1.544e-05
1.53773e-05
1.53778e-05
1.54416e-05
1.55412e-05
1.56558e-05
1.5773e-05
1.58859e-05
1.59903e-05
1.6084e-05
1.61657e-05
1.6235e-05
1.62921e-05
1.63377e-05
1.63722e-05
1.63961e-05
1.63984e-05
1.61571e-05
1.6158e-05
1.61366e-05
1.61085e-05
1.60703e-05
1.60232e-05
1.59638e-05
1.58932e-05
1.58134e-05
1.57251e-05
1.563e-05
1.55325e-05
1.5438e-05
1.53547e-05
1.52995e-05
1.52989e-05
1.53532e-05
1.54373e-05
1.5533e-05
1.56304e-05
1.57243e-05
1.58119e-05