/*--------------------------------*- C++ -*----------------------------------*\
| =========                 |                                                 |
| \\      /  F ield         | OpenFOAM: The Open Source CFD Toolbox           |
|  \\    /   O peration     | Version:  2312                                  |
|   \\  /    A nd           | Website:  www.openfoam.com                      |
|    \\/     M anipulation  |                                                 |
\*---------------------------------------------------------------------------*/
FoamFile
{
    version     2.0;
    format      ascii;
    arch        "LSB;label=32;scalar=64";
    class       volScalarField;
    location    "0.303149";
    object      k;
}
// * * * * * * * * * * * * * * * * * * * * * * * * * * * * * * * * * * * * * //

dimensions      [0 2 -2 0 0 0 0];

internalField   nonuniform List<scalar> 
90000
(
3.24917e-05
3.24922e-05
3.24922e-05
3.24922e-05
3.24922e-05
3.24922e-05
3.24922e-05
3.24922e-05
3.24922e-05
3.24921e-05
3.24921e-05
3.24921e-05
3.2492e-05
3.2492e-05
3.24919e-05
3.24919e-05
3.24919e-05
3.2492e-05
3.2492e-05
3.2492e-05
3.24921e-05
3.24921e-05
3.24921e-05
3.24922e-05
3.24922e-05
3.24923e-05
3.24922e-05
3.24922e-05
3.24921e-05
3.24919e-05
3.24923e-05
3.25036e-05
3.25038e-05
3.25038e-05
3.25038e-05
3.25038e-05
3.25038e-05
3.25038e-05
3.25038e-05
3.25037e-05
3.25037e-05
3.25036e-05
3.25035e-05
3.25035e-05
3.25034e-05
3.25034e-05
3.25034e-05
3.25035e-05
3.25035e-05
3.25036e-05
3.25036e-05
3.25037e-05
3.25037e-05
3.25037e-05
3.25037e-05
3.25038e-05
3.25038e-05
3.25039e-05
3.25039e-05
3.24934e-05
3.24922e-05
3.25038e-05
3.25041e-05
3.25041e-05
3.25041e-05
3.25041e-05
3.25041e-05
3.2504e-05
3.2504e-05
3.2504e-05
3.25039e-05
3.25039e-05
3.25038e-05
3.25038e-05
3.25037e-05
3.25037e-05
3.25037e-05
3.25038e-05
3.25038e-05
3.25039e-05
3.25039e-05
3.25039e-05
3.25039e-05
3.25039e-05
3.2504e-05
3.2504e-05
3.2504e-05
3.25038e-05
3.25031e-05
3.24925e-05
3.24922e-05
3.25038e-05
3.25041e-05
3.25041e-05
3.25041e-05
3.25041e-05
3.25041e-05
3.2504e-05
3.2504e-05
3.2504e-05
3.25039e-05
3.25039e-05
3.25038e-05
3.25038e-05
3.25037e-05
3.25037e-05
3.25038e-05
3.25038e-05
3.25039e-05
3.25039e-05
3.25039e-05
3.25039e-05
3.25039e-05
3.25039e-05
3.2504e-05
3.2504e-05
3.25041e-05
3.25042e-05
3.25035e-05
3.24923e-05
3.24923e-05
3.25038e-05
3.25041e-05
3.25041e-05
3.25041e-05
3.25041e-05
3.2504e-05
3.2504e-05
3.2504e-05
3.2504e-05
3.25039e-05
3.25039e-05
3.25038e-05
3.25038e-05
3.25037e-05
3.25037e-05
3.25038e-05
3.25038e-05
3.25039e-05
3.25039e-05
3.25039e-05
3.25039e-05
3.25039e-05
3.2504e-05
3.2504e-05
3.2504e-05
3.25039e-05
3.2504e-05
3.25036e-05
3.24922e-05
3.24924e-05
3.25038e-05
3.25041e-05
3.25041e-05
3.25041e-05
3.25041e-05
3.25041e-05
3.2504e-05
3.2504e-05
3.2504e-05
3.25039e-05
3.25039e-05
3.25038e-05
3.25038e-05
3.25038e-05
3.25038e-05
3.25038e-05
3.25039e-05
3.25039e-05
3.25039e-05
3.25039e-05
3.2504e-05
3.2504e-05
3.2504e-05
3.2504e-05
3.2504e-05
3.2504e-05
3.2504e-05
3.25037e-05
3.24923e-05
3.24925e-05
3.25039e-05
3.25042e-05
3.25042e-05
3.25042e-05
3.25042e-05
3.25041e-05
3.25041e-05
3.25041e-05
3.2504e-05
3.2504e-05
3.25039e-05
3.25038e-05
3.25038e-05
3.25038e-05
3.25038e-05
3.25038e-05
3.25039e-05
3.25039e-05
3.25039e-05
3.2504e-05
3.25041e-05
3.25041e-05
3.25041e-05
3.25041e-05
3.25041e-05
3.25041e-05
3.25041e-05
3.25038e-05
3.24924e-05
3.24927e-05
3.25041e-05
3.25044e-05
3.25043e-05
3.25043e-05
3.25043e-05
3.25043e-05
3.25042e-05
3.25042e-05
3.25041e-05
3.2504e-05
3.25039e-05
3.25039e-05
3.25038e-05
3.25038e-05
3.25038e-05
3.25038e-05
3.25039e-05
3.2504e-05
3.2504e-05
3.25041e-05
3.25042e-05
3.25042e-05
3.25043e-05
3.25043e-05
3.25043e-05
3.25043e-05
3.25042e-05
3.25039e-05
3.24925e-05
3.24928e-05
3.25043e-05
3.25046e-05
3.25046e-05
3.25045e-05
3.25045e-05
3.25045e-05
3.25044e-05
3.25043e-05
3.25042e-05
3.25041e-05
3.2504e-05
3.25039e-05
3.25038e-05
3.25038e-05
3.25038e-05
3.25039e-05
3.25039e-05
3.2504e-05
3.25041e-05
3.25042e-05
3.25043e-05
3.25044e-05
3.25044e-05
3.25045e-05
3.25045e-05
3.25045e-05
3.25044e-05
3.25041e-05
3.24927e-05
3.24931e-05
3.25046e-05
3.25049e-05
3.25048e-05
3.25048e-05
3.25047e-05
3.25047e-05
3.25046e-05
3.25045e-05
3.25044e-05
3.25043e-05
3.25041e-05
3.2504e-05
3.25038e-05
3.25037e-05
3.25038e-05
3.25039e-05
3.2504e-05
3.25041e-05
3.25043e-05
3.25044e-05
3.25045e-05
3.25046e-05
3.25047e-05
3.25047e-05
3.25047e-05
3.25047e-05
3.25047e-05
3.25044e-05
3.2493e-05
3.24934e-05
3.25049e-05
3.25052e-05
3.25051e-05
3.25051e-05
3.2505e-05
3.25049e-05
3.25048e-05
3.25047e-05
3.25046e-05
3.25044e-05
3.25042e-05
3.25041e-05
3.25039e-05
3.25037e-05
3.25037e-05
3.25039e-05
3.25041e-05
3.25043e-05
3.25045e-05
3.25046e-05
3.25047e-05
3.25048e-05
3.25049e-05
3.25049e-05
3.2505e-05
3.2505e-05
3.2505e-05
3.25048e-05
3.24934e-05
3.24938e-05
3.25053e-05
3.25055e-05
3.25055e-05
3.25054e-05
3.25053e-05
3.25052e-05
3.25051e-05
3.25049e-05
3.25047e-05
3.25046e-05
3.25044e-05
3.25042e-05
3.25039e-05
3.25037e-05
3.25037e-05
3.25039e-05
3.25042e-05
3.25044e-05
3.25047e-05
3.25048e-05
3.2505e-05
3.25051e-05
3.25052e-05
3.25053e-05
3.25053e-05
3.25054e-05
3.25055e-05
3.25052e-05
3.24939e-05
3.24943e-05
3.25058e-05
3.2506e-05
3.25059e-05
3.25058e-05
3.25057e-05
3.25055e-05
3.25053e-05
3.25052e-05
3.2505e-05
3.25048e-05
3.25046e-05
3.25043e-05
3.2504e-05
3.25038e-05
3.25038e-05
3.2504e-05
3.25043e-05
3.25046e-05
3.25049e-05
3.25051e-05
3.25053e-05
3.25055e-05
3.25056e-05
3.25057e-05
3.25058e-05
3.25059e-05
3.2506e-05
3.25058e-05
3.24944e-05
3.24949e-05
3.25063e-05
3.25066e-05
3.25065e-05
3.25063e-05
3.25062e-05
3.2506e-05
3.25057e-05
3.25055e-05
3.25053e-05
3.2505e-05
3.25048e-05
3.25045e-05
3.25042e-05
3.25039e-05
3.25039e-05
3.25041e-05
3.25045e-05
3.25048e-05
3.25051e-05
3.25054e-05
3.25056e-05
3.25058e-05
3.2506e-05
3.25062e-05
3.25064e-05
3.25065e-05
3.25066e-05
3.25064e-05
3.2495e-05
3.24957e-05
3.25071e-05
3.25073e-05
3.25071e-05
3.2507e-05
3.25067e-05
3.25065e-05
3.25063e-05
3.2506e-05
3.25057e-05
3.25054e-05
3.2505e-05
3.25047e-05
3.25043e-05
3.2504e-05
3.2504e-05
3.25042e-05
3.25046e-05
3.2505e-05
3.25054e-05
3.25057e-05
3.2506e-05
3.25063e-05
3.25066e-05
3.25069e-05
3.25071e-05
3.25072e-05
3.25073e-05
3.25071e-05
3.24957e-05
3.24967e-05
3.25079e-05
3.25081e-05
3.2508e-05
3.25078e-05
3.25075e-05
3.25072e-05
3.25069e-05
3.25066e-05
3.25062e-05
3.25058e-05
3.25053e-05
3.25049e-05
3.25044e-05
3.25041e-05
3.2504e-05
3.25044e-05
3.25048e-05
3.25053e-05
3.25057e-05
3.25062e-05
3.25066e-05
3.2507e-05
3.25073e-05
3.25076e-05
3.25079e-05
3.2508e-05
3.25082e-05
3.25079e-05
3.24965e-05
3.24978e-05
3.2509e-05
3.25092e-05
3.2509e-05
3.25088e-05
3.25085e-05
3.25082e-05
3.25078e-05
3.25073e-05
3.25068e-05
3.25063e-05
3.25057e-05
3.25051e-05
3.25046e-05
3.25042e-05
3.25041e-05
3.25045e-05
3.25051e-05
3.25056e-05
3.25062e-05
3.25068e-05
3.25073e-05
3.25078e-05
3.25082e-05
3.25086e-05
3.25088e-05
3.2509e-05
3.25092e-05
3.2509e-05
3.24976e-05
3.24991e-05
3.25103e-05
3.25104e-05
3.25102e-05
3.251e-05
3.25096e-05
3.25092e-05
3.25088e-05
3.25082e-05
3.25076e-05
3.25069e-05
3.25062e-05
3.25055e-05
3.25049e-05
3.25044e-05
3.25044e-05
3.25048e-05
3.25055e-05
3.25062e-05
3.25069e-05
3.25076e-05
3.25082e-05
3.25088e-05
3.25093e-05
3.25097e-05
3.251e-05
3.25103e-05
3.25105e-05
3.25103e-05
3.2499e-05
3.25006e-05
3.25118e-05
3.2512e-05
3.25117e-05
3.25114e-05
3.2511e-05
3.25106e-05
3.251e-05
3.25093e-05
3.25086e-05
3.25078e-05
3.25069e-05
3.25061e-05
3.25053e-05
3.25047e-05
3.25047e-05
3.25053e-05
3.25061e-05
3.25069e-05
3.25078e-05
3.25086e-05
3.25094e-05
3.251e-05
3.25106e-05
3.25111e-05
3.25115e-05
3.25118e-05
3.25121e-05
3.2512e-05
3.25007e-05
3.25025e-05
3.25137e-05
3.25138e-05
3.25135e-05
3.25132e-05
3.25127e-05
3.25121e-05
3.25115e-05
3.25107e-05
3.25098e-05
3.25088e-05
3.25079e-05
3.25069e-05
3.25059e-05
3.25051e-05
3.25051e-05
3.25058e-05
3.25068e-05
3.25078e-05
3.25088e-05
3.25098e-05
3.25107e-05
3.25115e-05
3.25122e-05
3.25128e-05
3.25133e-05
3.25137e-05
3.2514e-05
3.25139e-05
3.25026e-05
3.25048e-05
3.2516e-05
3.25161e-05
3.25157e-05
3.25153e-05
3.25148e-05
3.25141e-05
3.25133e-05
3.25123e-05
3.25113e-05
3.25102e-05
3.2509e-05
3.25077e-05
3.25065e-05
3.25056e-05
3.25056e-05
3.25065e-05
3.25077e-05
3.25089e-05
3.25101e-05
3.25112e-05
3.25123e-05
3.25132e-05
3.25141e-05
3.25148e-05
3.25154e-05
3.25159e-05
3.25163e-05
3.25162e-05
3.25049e-05
3.25076e-05
3.25188e-05
3.25189e-05
3.25185e-05
3.2518e-05
3.25173e-05
3.25165e-05
3.25155e-05
3.25143e-05
3.25131e-05
3.25117e-05
3.25102e-05
3.25087e-05
3.25073e-05
3.25063e-05
3.25063e-05
3.25073e-05
3.25087e-05
3.25102e-05
3.25116e-05
3.25129e-05
3.25142e-05
3.25154e-05
3.25164e-05
3.25173e-05
3.25181e-05
3.25187e-05
3.25191e-05
3.2519e-05
3.25078e-05
3.2511e-05
3.25224e-05
3.25223e-05
3.25219e-05
3.25213e-05
3.25204e-05
3.25194e-05
3.25181e-05
3.25167e-05
3.25152e-05
3.25135e-05
3.25117e-05
3.25099e-05
3.25083e-05
3.25071e-05
3.25072e-05
3.25084e-05
3.251e-05
3.25117e-05
3.25134e-05
3.25151e-05
3.25166e-05
3.25181e-05
3.25193e-05
3.25204e-05
3.25213e-05
3.2522e-05
3.25225e-05
3.25225e-05
3.25113e-05
3.25153e-05
3.25267e-05
3.25266e-05
3.2526e-05
3.25252e-05
3.25242e-05
3.25229e-05
3.25213e-05
3.25196e-05
3.25177e-05
3.25157e-05
3.25136e-05
3.25115e-05
3.25096e-05
3.25083e-05
3.25083e-05
3.25097e-05
3.25117e-05
3.25137e-05
3.25158e-05
3.25178e-05
3.25197e-05
3.25214e-05
3.25229e-05
3.25242e-05
3.25252e-05
3.25261e-05
3.25267e-05
3.25268e-05
3.25156e-05
3.25204e-05
3.25318e-05
3.25317e-05
3.25309e-05
3.25299e-05
3.25286e-05
3.25271e-05
3.25252e-05
3.25232e-05
3.25209e-05
3.25185e-05
3.2516e-05
3.25135e-05
3.25113e-05
3.25098e-05
3.25098e-05
3.25114e-05
3.25137e-05
3.25162e-05
3.25187e-05
3.25211e-05
3.25234e-05
3.25254e-05
3.25271e-05
3.25286e-05
3.25299e-05
3.25309e-05
3.25317e-05
3.25319e-05
3.25206e-05
3.25266e-05
3.2538e-05
3.25377e-05
3.25368e-05
3.25355e-05
3.2534e-05
3.25322e-05
3.253e-05
3.25276e-05
3.25249e-05
3.25221e-05
3.25191e-05
3.25161e-05
3.25135e-05
3.25116e-05
3.25116e-05
3.25135e-05
3.25162e-05
3.25192e-05
3.25222e-05
3.25251e-05
3.25278e-05
3.25301e-05
3.25322e-05
3.2534e-05
3.25355e-05
3.25367e-05
3.25376e-05
3.25378e-05
3.25267e-05
3.25339e-05
3.25451e-05
3.25447e-05
3.25437e-05
3.25423e-05
3.25405e-05
3.25384e-05
3.25359e-05
3.25331e-05
3.25299e-05
3.25265e-05
3.25229e-05
3.25194e-05
3.25162e-05
3.2514e-05
3.2514e-05
3.25161e-05
3.25193e-05
3.25229e-05
3.25265e-05
3.253e-05
3.25331e-05
3.25359e-05
3.25384e-05
3.25405e-05
3.25423e-05
3.25437e-05
3.25447e-05
3.2545e-05
3.2534e-05
3.25426e-05
3.25536e-05
3.25531e-05
3.2552e-05
3.25504e-05
3.25484e-05
3.2546e-05
3.25431e-05
3.25397e-05
3.25359e-05
3.25318e-05
3.25275e-05
3.25233e-05
3.25195e-05
3.25171e-05
3.2517e-05
3.25195e-05
3.25232e-05
3.25275e-05
3.25318e-05
3.25359e-05
3.25397e-05
3.2543e-05
3.2546e-05
3.25485e-05
3.25505e-05
3.25521e-05
3.25532e-05
3.25537e-05
3.25427e-05
3.25529e-05
3.25638e-05
3.25632e-05
3.25619e-05
3.25601e-05
3.25578e-05
3.2555e-05
3.25515e-05
3.25475e-05
3.25431e-05
3.25383e-05
3.25333e-05
3.25283e-05
3.25239e-05
3.25212e-05
3.25212e-05
3.2524e-05
3.25284e-05
3.25334e-05
3.25384e-05
3.25432e-05
3.25476e-05
3.25516e-05
3.25551e-05
3.25579e-05
3.25602e-05
3.2562e-05
3.25633e-05
3.2564e-05
3.2553e-05
3.2565e-05
3.25759e-05
3.25752e-05
3.25738e-05
3.25717e-05
3.25691e-05
3.25657e-05
3.25617e-05
3.2557e-05
3.25519e-05
3.25463e-05
3.25404e-05
3.25347e-05
3.25297e-05
3.25266e-05
3.25267e-05
3.25298e-05
3.25348e-05
3.25406e-05
3.25464e-05
3.2552e-05
3.25572e-05
3.25619e-05
3.25659e-05
3.25691e-05
3.25717e-05
3.25737e-05
3.25753e-05
3.25761e-05
3.25651e-05
3.25794e-05
3.25903e-05
3.25895e-05
3.25878e-05
3.25855e-05
3.25824e-05
3.25785e-05
3.25739e-05
3.25686e-05
3.25627e-05
3.25562e-05
3.25494e-05
3.25428e-05
3.25372e-05
3.25338e-05
3.25338e-05
3.25373e-05
3.25429e-05
3.25495e-05
3.25562e-05
3.25628e-05
3.25688e-05
3.25742e-05
3.25787e-05
3.25824e-05
3.25854e-05
3.25878e-05
3.25896e-05
3.25903e-05
3.25795e-05
3.25964e-05
3.26073e-05
3.26063e-05
3.26044e-05
3.26017e-05
3.25982e-05
3.25939e-05
3.25888e-05
3.25828e-05
3.2576e-05
3.25685e-05
3.25607e-05
3.25531e-05
3.25468e-05
3.25429e-05
3.25429e-05
3.25468e-05
3.25531e-05
3.25606e-05
3.25684e-05
3.25759e-05
3.25829e-05
3.2589e-05
3.25941e-05
3.25983e-05
3.26017e-05
3.26045e-05
3.26064e-05
3.26072e-05
3.25966e-05
3.26162e-05
3.26269e-05
3.26259e-05
3.26238e-05
3.26209e-05
3.26171e-05
3.26123e-05
3.26066e-05
3.25999e-05
3.25922e-05
3.25837e-05
3.25747e-05
3.25662e-05
3.2559e-05
3.25548e-05
3.25548e-05
3.2559e-05
3.2566e-05
3.25745e-05
3.25834e-05
3.2592e-05
3.25999e-05
3.26067e-05
3.26124e-05
3.26171e-05
3.2621e-05
3.26239e-05
3.26259e-05
3.26269e-05
3.26163e-05
3.2639e-05
3.26497e-05
3.26486e-05
3.26464e-05
3.26433e-05
3.26393e-05
3.26342e-05
3.2628e-05
3.26205e-05
3.26118e-05
3.26022e-05
3.25922e-05
3.25826e-05
3.25748e-05
3.25702e-05
3.25702e-05
3.25748e-05
3.25826e-05
3.25921e-05
3.26021e-05
3.26116e-05
3.26203e-05
3.26278e-05
3.26341e-05
3.26393e-05
3.26434e-05
3.26464e-05
3.26485e-05
3.26496e-05
3.26389e-05
3.26653e-05
3.26758e-05
3.26747e-05
3.26726e-05
3.26695e-05
3.26654e-05
3.266e-05
3.26532e-05
3.26451e-05
3.26355e-05
3.26249e-05
3.26139e-05
3.26035e-05
3.2595e-05
3.25901e-05
3.25902e-05
3.25951e-05
3.26036e-05
3.2614e-05
3.2625e-05
3.26354e-05
3.26448e-05
3.26529e-05
3.26597e-05
3.26652e-05
3.26693e-05
3.26723e-05
3.26744e-05
3.26754e-05
3.26647e-05
3.2695e-05
3.27055e-05
3.27046e-05
3.27026e-05
3.26997e-05
3.26956e-05
3.26901e-05
3.26831e-05
3.26744e-05
3.26642e-05
3.26529e-05
3.26412e-05
3.26301e-05
3.26211e-05
3.26158e-05
3.26158e-05
3.26211e-05
3.26302e-05
3.26414e-05
3.26532e-05
3.26644e-05
3.26744e-05
3.2683e-05
3.26901e-05
3.26955e-05
3.26995e-05
3.27024e-05
3.27042e-05
3.27049e-05
3.26943e-05
3.27286e-05
3.27391e-05
3.27384e-05
3.27368e-05
3.27342e-05
3.27304e-05
3.27251e-05
3.27182e-05
3.27095e-05
3.26991e-05
3.26874e-05
3.26752e-05
3.26635e-05
3.26541e-05
3.26486e-05
3.26486e-05
3.26541e-05
3.26637e-05
3.26756e-05
3.26879e-05
3.26996e-05
3.271e-05
3.27187e-05
3.27257e-05
3.27308e-05
3.27344e-05
3.27368e-05
3.27381e-05
3.27383e-05
3.27278e-05
3.27658e-05
3.27763e-05
3.27761e-05
3.2775e-05
3.27731e-05
3.27701e-05
3.27656e-05
3.27593e-05
3.27511e-05
3.2741e-05
3.27294e-05
3.27171e-05
3.27052e-05
3.26956e-05
3.26901e-05
3.26901e-05
3.26957e-05
3.27055e-05
3.27175e-05
3.273e-05
3.27417e-05
3.2752e-05
3.27603e-05
3.27666e-05
3.2771e-05
3.27738e-05
3.27754e-05
3.2776e-05
3.27759e-05
3.27654e-05
3.28063e-05
3.2817e-05
3.28174e-05
3.28174e-05
3.28167e-05
3.2815e-05
3.2812e-05
3.2807e-05
3.28e-05
3.27908e-05
3.27799e-05
3.2768e-05
3.27564e-05
3.2747e-05
3.27415e-05
3.27416e-05
3.2747e-05
3.27566e-05
3.27682e-05
3.27801e-05
3.27911e-05
3.28005e-05
3.28078e-05
3.28128e-05
3.2816e-05
3.28175e-05
3.28179e-05
3.28177e-05
3.28171e-05
3.28066e-05
3.28497e-05
3.28606e-05
3.2862e-05
3.28634e-05
3.28646e-05
3.28651e-05
3.28643e-05
3.28615e-05
3.28565e-05
3.28491e-05
3.28397e-05
3.28291e-05
3.28185e-05
3.28098e-05
3.28046e-05
3.28046e-05
3.28096e-05
3.28182e-05
3.28287e-05
3.28393e-05
3.28488e-05
3.28563e-05
3.28615e-05
3.28644e-05
3.28655e-05
3.28651e-05
3.28638e-05
3.28624e-05
3.28612e-05
3.28506e-05
3.2895e-05
3.29062e-05
3.29091e-05
3.29126e-05
3.29165e-05
3.292e-05
3.29223e-05
3.29228e-05
3.2921e-05
3.29167e-05
3.29101e-05
3.29019e-05
3.28933e-05
3.28858e-05
3.28813e-05
3.28811e-05
3.28853e-05
3.28926e-05
3.29011e-05
3.29093e-05
3.29159e-05
3.29202e-05
3.29221e-05
3.29218e-05
3.29196e-05
3.29163e-05
3.29126e-05
3.29094e-05
3.2907e-05
3.28959e-05
3.29408e-05
3.29527e-05
3.29576e-05
3.2964e-05
3.29714e-05
3.29789e-05
3.29856e-05
3.29908e-05
3.29937e-05
3.29939e-05
3.29917e-05
3.29874e-05
3.29819e-05
3.29767e-05
3.29734e-05
3.29734e-05
3.29765e-05
3.29816e-05
3.29869e-05
3.29912e-05
3.29934e-05
3.29931e-05
3.299e-05
3.29849e-05
3.29782e-05
3.29708e-05
3.29638e-05
3.29579e-05
3.29537e-05
3.29416e-05
3.29856e-05
3.29986e-05
3.30062e-05
3.30162e-05
3.3028e-05
3.30406e-05
3.30531e-05
3.30644e-05
3.30738e-05
3.30804e-05
3.30843e-05
3.30855e-05
3.30846e-05
3.30829e-05
3.30817e-05
3.30819e-05
3.30833e-05
3.30849e-05
3.30857e-05
3.30844e-05
3.30805e-05
3.30737e-05
3.30641e-05
3.30527e-05
3.304e-05
3.30274e-05
3.3016e-05
3.30067e-05
3.29997e-05
3.29861e-05
3.30285e-05
3.3043e-05
3.30536e-05
3.30677e-05
3.30846e-05
3.31034e-05
3.3123e-05
3.31422e-05
3.31598e-05
3.3175e-05
3.31867e-05
3.31951e-05
3.32004e-05
3.32033e-05
3.32046e-05
3.32047e-05
3.32036e-05
3.32008e-05
3.31956e-05
3.31872e-05
3.31753e-05
3.31599e-05
3.31422e-05
3.31229e-05
3.3103e-05
3.30842e-05
3.30678e-05
3.30543e-05
3.30438e-05
3.30287e-05
3.30691e-05
3.30849e-05
3.30987e-05
3.31173e-05
3.31402e-05
3.3166e-05
3.31937e-05
3.32221e-05
3.32496e-05
3.3275e-05
3.32969e-05
3.33142e-05
3.33267e-05
3.3335e-05
3.3339e-05
3.33391e-05
3.33351e-05
3.33268e-05
3.33144e-05
3.32972e-05
3.32753e-05
3.32498e-05
3.32222e-05
3.31935e-05
3.31657e-05
3.314e-05
3.31175e-05
3.30994e-05
3.30853e-05
3.30691e-05
3.3103e-05
3.31214e-05
3.31395e-05
3.31637e-05
3.31933e-05
3.32267e-05
3.32634e-05
3.33015e-05
3.33396e-05
3.3376e-05
3.34093e-05
3.34374e-05
3.34592e-05
3.34733e-05
3.34798e-05
3.34798e-05
3.34732e-05
3.34592e-05
3.34375e-05
3.34094e-05
3.33761e-05
3.33397e-05
3.33015e-05
3.32632e-05
3.32264e-05
3.31931e-05
3.31641e-05
3.31401e-05
3.31217e-05
3.31033e-05
3.31315e-05
3.31531e-05
3.31764e-05
3.32066e-05
3.32432e-05
3.32847e-05
3.33302e-05
3.33784e-05
3.34274e-05
3.34755e-05
3.35209e-05
3.35613e-05
3.35943e-05
3.36171e-05
3.36296e-05
3.36296e-05
3.36171e-05
3.35943e-05
3.35613e-05
3.35209e-05
3.34756e-05
3.34275e-05
3.33784e-05
3.33301e-05
3.32846e-05
3.32432e-05
3.32071e-05
3.31768e-05
3.31534e-05
3.31319e-05
3.31683e-05
3.31949e-05
3.32242e-05
3.32612e-05
3.33055e-05
3.33557e-05
3.34109e-05
3.34691e-05
3.35301e-05
3.35927e-05
3.36562e-05
3.37228e-05
3.37954e-05
3.38724e-05
3.39494e-05
3.39492e-05
3.38723e-05
3.37952e-05
3.37225e-05
3.3656e-05
3.35926e-05
3.353e-05
3.34689e-05
3.34107e-05
3.33557e-05
3.33057e-05
3.32616e-05
3.32244e-05
3.31952e-05
3.31682e-05
3.32907e-05
3.33148e-05
3.33431e-05
3.33777e-05
3.34198e-05
3.34679e-05
3.35208e-05
3.35811e-05
3.36573e-05
3.37684e-05
3.39724e-05
3.43656e-05
3.50469e-05
3.59662e-05
3.70998e-05
3.7097e-05
3.59681e-05
3.5045e-05
3.43646e-05
3.39733e-05
3.37688e-05
3.36574e-05
3.35812e-05
3.35204e-05
3.34676e-05
3.34202e-05
3.33784e-05
3.33431e-05
3.33155e-05
3.32899e-05
3.3097e-05
3.31228e-05
3.31569e-05
3.3199e-05
3.32626e-05
3.33345e-05
3.34628e-05
3.371e-05
3.43057e-05
3.56628e-05
3.87367e-05
4.47299e-05
5.46225e-05
6.72525e-05
8.2598e-05
8.25705e-05
6.72725e-05
5.46062e-05
4.47301e-05
3.87648e-05
3.56831e-05
3.43138e-05
3.37083e-05
3.34559e-05
3.33289e-05
3.32525e-05
3.3195e-05
3.31525e-05
3.31219e-05
3.3094e-05
3.40903e-05
3.41537e-05
3.45079e-05
3.52622e-05
3.63904e-05
3.82517e-05
4.18682e-05
4.93101e-05
6.39478e-05
9.13696e-05
0.000141231
0.000221808
0.000336816
0.000468687
0.000622479
0.000622362
0.000468676
0.000336878
0.000222116
0.000141819
9.18257e-05
6.41607e-05
4.93674e-05
4.18076e-05
3.80517e-05
3.61372e-05
3.50654e-05
3.44018e-05
3.40614e-05
3.38876e-05
5.35009e-05
5.59789e-05
6.56049e-05
8.15182e-05
0.000104693
0.000148276
0.000236005
0.000394177
0.000642993
0.00099007
0.00144158
0.00196736
0.00250492
0.00295236
0.00338306
0.00338293
0.00295118
0.00250801
0.00197227
0.00144596
0.000993753
0.000646054
0.000396742
0.000237542
0.000149094
0.00010512
8.14551e-05
6.54605e-05
5.51631e-05
5.32283e-05
6.65185e-05
6.89361e-05
7.67558e-05
9.12186e-05
0.00011677
0.000165797
0.000256946
0.000400939
0.000608915
0.000925168
0.0014547
0.00228913
0.00321938
0.00387915
0.00469899
0.00469879
0.00388131
0.0032342
0.00230965
0.00146822
0.00093165
0.000612379
0.000403412
0.000258778
0.000166934
0.000117185
9.11296e-05
7.67272e-05
6.85188e-05
6.66127e-05
7.29292e-05
7.51944e-05
8.08004e-05
9.01967e-05
0.000105519
0.000134985
0.000198711
0.000323242
0.000530316
0.000839468
0.00126272
0.00178784
0.00237047
0.00285516
0.0033876
0.00338794
0.00285602
0.00237768
0.00179726
0.00126973
0.000844662
0.000534071
0.00032584
0.00020025
0.000135772
0.000105757
9.0152e-05
8.07712e-05
7.50402e-05
7.31079e-05
7.6162e-05
7.82219e-05
8.17756e-05
8.74264e-05
9.54089e-05
0.000107504
0.000130112
0.000184827
0.000306479
0.000539152
0.00089587
0.00134145
0.00182136
0.00225038
0.00266067
0.0026609
0.00225036
0.00182507
0.00134689
0.000900996
0.000543331
0.00030922
0.000186271
0.000130786
0.000107845
9.55694e-05
8.74787e-05
8.17864e-05
7.81557e-05
7.63625e-05
7.72501e-05
7.90011e-05
8.12531e-05
8.46591e-05
8.90508e-05
9.46134e-05
0.000102202
0.00011546
0.000146285
0.00023323
0.000420563
0.000718791
0.00108977
0.00148629
0.00190475
0.00190453
0.00148593
0.00109156
0.000721533
0.000423359
0.000235206
0.000147282
0.000115921
0.000102461
9.47983e-05
8.91741e-05
8.4717e-05
8.1278e-05
7.89503e-05
7.72669e-05
7.63742e-05
7.80095e-05
7.96226e-05
8.19458e-05
8.47935e-05
8.81081e-05
9.1902e-05
9.65006e-05
0.000103077
0.000116509
0.000155196
0.000246239
0.000406584
0.000648532
0.000968537
0.000968031
0.000648138
0.000407126
0.00024706
0.000155929
0.000116928
0.000103268
9.6627e-05
9.20195e-05
8.82307e-05
8.48951e-05
8.20034e-05
7.96818e-05
7.80663e-05
7.64349e-05
7.50159e-05
7.63942e-05
7.76541e-05
7.94223e-05
8.15645e-05
8.40148e-05
8.67304e-05
8.97033e-05
9.30348e-05
9.71077e-05
0.000103065
0.000113894
0.000134467
0.000181472
0.000279605
0.000279407
0.000181479
0.000134647
0.000114083
0.000103238
9.72507e-05
9.31562e-05
8.98181e-05
8.68333e-05
8.41006e-05
8.1627e-05
7.94448e-05
7.76656e-05
7.64154e-05
7.50683e-05
7.36099e-05
7.46148e-05
7.55642e-05
7.69826e-05
7.87301e-05
8.07142e-05
8.28668e-05
8.51769e-05
8.7629e-05
9.02461e-05
9.30118e-05
9.60239e-05
9.94462e-05
0.00010375
0.000110569
0.000110556
0.000103747
9.94409e-05
9.60153e-05
9.30178e-05
9.02762e-05
8.76875e-05
8.52342e-05
8.29152e-05
8.07662e-05
7.87911e-05
7.70415e-05
7.56121e-05
7.46293e-05
7.36605e-05
7.19352e-05
7.26186e-05
7.33385e-05
7.44641e-05
7.58542e-05
7.7445e-05
7.91808e-05
8.10008e-05
8.28826e-05
8.4774e-05
8.65949e-05
8.82982e-05
8.98246e-05
9.10879e-05
9.20184e-05
9.20416e-05
9.11291e-05
8.98755e-05
8.83716e-05
8.66887e-05
8.48728e-05
8.29813e-05
8.10806e-05
7.9234e-05
7.74864e-05
7.58819e-05
7.44865e-05
7.33648e-05
7.2647e-05
7.18959e-05
6.96445e-05
7.02275e-05
7.07872e-05
7.16819e-05
7.27923e-05
7.4053e-05
7.54231e-05
7.68269e-05
7.82432e-05
7.95689e-05
8.07926e-05
8.18558e-05
8.27344e-05
8.33605e-05
8.37049e-05
8.37307e-05
8.34049e-05
8.27863e-05
8.19146e-05
8.08553e-05
7.96213e-05
7.82846e-05
7.6865e-05
7.54431e-05
7.40636e-05
7.2795e-05
7.16955e-05
7.08239e-05
7.03074e-05
6.96933e-05
6.72227e-05
6.76326e-05
6.80313e-05
6.87102e-05
6.95679e-05
7.05351e-05
7.1553e-05
7.25583e-05
7.35194e-05
7.43833e-05
7.51302e-05
7.57323e-05
7.61681e-05
7.6438e-05
7.65793e-05
7.65824e-05
7.64384e-05
7.61526e-05
7.57141e-05
7.51231e-05
7.43734e-05
7.35072e-05
7.2554e-05
7.15463e-05
7.05378e-05
6.95875e-05
6.87494e-05
6.80726e-05
6.76841e-05
6.73133e-05
6.45773e-05
6.48839e-05
6.51134e-05
6.56032e-05
6.62119e-05
6.68882e-05
6.75732e-05
6.82234e-05
6.87931e-05
6.92571e-05
6.96064e-05
6.98353e-05
6.993e-05
6.99475e-05
6.99386e-05
6.99351e-05
6.9951e-05
6.99442e-05
6.98661e-05
6.96586e-05
6.93126e-05
6.88363e-05
6.82566e-05
6.75988e-05
6.69177e-05
6.62626e-05
6.56649e-05
6.51757e-05
6.49159e-05
6.46146e-05
6.17333e-05
6.1944e-05
6.20713e-05
6.24121e-05
6.28261e-05
6.32747e-05
6.36831e-05
6.40306e-05
6.42897e-05
6.44357e-05
6.44648e-05
6.43769e-05
6.4207e-05
6.40315e-05
6.3915e-05
6.3922e-05
6.40613e-05
6.42549e-05
6.44242e-05
6.45113e-05
6.4485e-05
6.43336e-05
6.4064e-05
6.37041e-05
6.32911e-05
6.28669e-05
6.24676e-05
6.21362e-05
6.1998e-05
6.17323e-05
5.87674e-05
5.89547e-05
5.90312e-05
5.92467e-05
5.95034e-05
5.97492e-05
5.99387e-05
6.00598e-05
6.00766e-05
5.99762e-05
5.97563e-05
5.94308e-05
5.90689e-05
5.87489e-05
5.85433e-05
5.85445e-05
5.87531e-05
5.90832e-05
5.94486e-05
5.97735e-05
6.0002e-05
6.01039e-05
6.00775e-05
5.99465e-05
5.97519e-05
5.9518e-05
5.92747e-05
5.90723e-05
5.90315e-05
5.8809e-05
5.58779e-05
5.60524e-05
5.60594e-05
5.61735e-05
5.62864e-05
5.63831e-05
5.64002e-05
5.63401e-05
5.61843e-05
5.5899e-05
5.54914e-05
5.50071e-05
5.45116e-05
5.4088e-05
5.3833e-05
5.38398e-05
5.4102e-05
5.45316e-05
5.50333e-05
5.55132e-05
5.59154e-05
5.62035e-05
5.63682e-05
5.64248e-05
5.63944e-05
5.63067e-05
5.61949e-05
5.61012e-05
5.61273e-05
5.59472e-05
5.31934e-05
5.33008e-05
5.32596e-05
5.32723e-05
5.32906e-05
5.32552e-05
5.31489e-05
5.29679e-05
5.26734e-05
5.2251e-05
5.17297e-05
5.11485e-05
5.05723e-05
5.00882e-05
4.98092e-05
4.98189e-05
5.01041e-05
5.05815e-05
5.11567e-05
5.17421e-05
5.22671e-05
5.2691e-05
5.29945e-05
5.31818e-05
5.32754e-05
5.33055e-05
5.32945e-05
5.32755e-05
5.33417e-05
5.3241e-05
5.06689e-05
5.07198e-05
5.06248e-05
5.05612e-05
5.05219e-05
5.03947e-05
5.02156e-05
4.99472e-05
4.95538e-05
4.90527e-05
4.8467e-05
4.78301e-05
4.72081e-05
4.66943e-05
4.63992e-05
4.6402e-05
4.66986e-05
4.72096e-05
4.78326e-05
4.84791e-05
4.90738e-05
4.95753e-05
4.99677e-05
5.02524e-05
5.04397e-05
5.05476e-05
5.06007e-05
5.06304e-05
5.07206e-05
5.06855e-05
4.83215e-05
4.83224e-05
4.81979e-05
4.81232e-05
4.80021e-05
4.78313e-05
4.76071e-05
4.72728e-05
4.68271e-05
4.6292e-05
4.56737e-05
4.50114e-05
4.43788e-05
4.38675e-05
4.35761e-05
4.35801e-05
4.38792e-05
4.43942e-05
4.50259e-05
4.56891e-05
4.63153e-05
4.68621e-05
4.73086e-05
4.76483e-05
4.78867e-05
4.80408e-05
4.81365e-05
4.82029e-05
4.83078e-05
4.83179e-05
4.62033e-05
4.61593e-05
4.60216e-05
4.59321e-05
4.57767e-05
4.56013e-05
4.53335e-05
4.49624e-05
4.4506e-05
4.3958e-05
4.33319e-05
4.26764e-05
4.20632e-05
4.15674e-05
4.12775e-05
4.12758e-05
4.15669e-05
4.20709e-05
4.26921e-05
4.33474e-05
4.39716e-05
4.45241e-05
4.49836e-05
4.53444e-05
4.56121e-05
4.58006e-05
4.5928e-05
4.60177e-05
4.61255e-05
4.61651e-05
4.4233e-05
4.41887e-05
4.407e-05
4.39656e-05
4.38311e-05
4.36335e-05
4.33372e-05
4.29668e-05
4.25133e-05
4.19706e-05
4.13662e-05
4.07452e-05
4.01643e-05
3.96898e-05
3.94108e-05
3.94112e-05
3.96929e-05
4.01751e-05
4.07647e-05
4.13847e-05
4.19791e-05
4.25138e-05
4.29695e-05
4.33385e-05
4.36223e-05
4.38297e-05
4.39735e-05
4.4073e-05
4.41787e-05
4.42399e-05
4.25402e-05
4.24415e-05
4.23622e-05
4.22549e-05
4.21193e-05
4.18971e-05
4.16095e-05
4.12565e-05
4.08173e-05
4.03042e-05
3.97436e-05
3.91697e-05
3.86257e-05
3.81773e-05
3.79144e-05
3.79153e-05
3.81783e-05
3.86261e-05
3.91721e-05
3.97484e-05
4.03069e-05
4.0816e-05
4.1255e-05
4.16146e-05
4.18962e-05
4.21075e-05
4.22592e-05
4.23653e-05
4.24676e-05
4.25402e-05
4.10268e-05
4.09443e-05
4.08664e-05
4.07667e-05
4.06157e-05
4.04034e-05
4.0141e-05
3.98024e-05
3.93891e-05
3.89182e-05
3.84071e-05
3.78794e-05
3.73747e-05
3.69609e-05
3.67208e-05
3.67237e-05
3.6967e-05
3.73784e-05
3.7879e-05
3.84083e-05
3.8923e-05
3.93927e-05
3.97996e-05
4.01373e-05
4.04081e-05
4.06178e-05
4.07732e-05
4.08835e-05
4.0977e-05
4.10483e-05
3.97048e-05
3.96684e-05
3.95744e-05
3.94766e-05
3.93277e-05
3.91348e-05
3.88815e-05
3.85598e-05
3.81847e-05
3.77643e-05
3.73061e-05
3.68293e-05
3.63749e-05
3.60051e-05
3.57898e-05
3.5793e-05
3.60138e-05
3.63848e-05
3.68363e-05
3.73124e-05
3.77754e-05
3.81992e-05
3.85701e-05
3.88835e-05
3.91394e-05
3.93406e-05
3.9491e-05
3.95975e-05
3.9681e-05
3.97438e-05
3.86091e-05
3.85507e-05
3.84754e-05
3.83764e-05
3.82356e-05
3.80524e-05
3.7812e-05
3.75255e-05
3.7198e-05
3.68283e-05
3.64207e-05
3.59963e-05
3.55923e-05
3.52596e-05
3.50616e-05
3.50607e-05
3.52574e-05
3.55895e-05
3.5993e-05
3.64178e-05
3.68302e-05
3.72089e-05
3.75426e-05
3.78267e-05
3.806e-05
3.8244e-05
3.83827e-05
3.84815e-05
3.85567e-05
3.86124e-05
3.76392e-05
3.75832e-05
3.75236e-05
3.74239e-05
3.72962e-05
3.71285e-05
3.69194e-05
3.66728e-05
3.63853e-05
3.60561e-05
3.56948e-05
3.53215e-05
3.49645e-05
3.46653e-05
3.44841e-05
3.44826e-05
3.46614e-05
3.49608e-05
3.53204e-05
3.56959e-05
3.60582e-05
3.63902e-05
3.66831e-05
3.69333e-05
3.714e-05
3.73052e-05
3.74315e-05
3.75229e-05
3.75913e-05
3.76408e-05
3.67945e-05
3.6775e-05
3.67033e-05
3.66136e-05
3.65036e-05
3.63576e-05
3.61779e-05
3.59601e-05
3.57029e-05
3.54122e-05
3.50991e-05
3.47764e-05
3.44654e-05
3.4202e-05
3.40408e-05
3.40413e-05
3.42035e-05
3.44692e-05
3.47835e-05
3.51083e-05
3.54203e-05
3.57068e-05
3.59611e-05
3.61802e-05
3.63633e-05
3.65113e-05
3.66257e-05
3.67089e-05
3.67697e-05
3.6811e-05
3.61067e-05
3.60767e-05
3.60083e-05
3.59385e-05
3.58416e-05
3.57142e-05
3.55546e-05
3.53616e-05
3.51376e-05
3.48892e-05
3.46222e-05
3.43452e-05
3.40755e-05
3.38447e-05
3.37016e-05
3.37017e-05
3.38442e-05
3.40747e-05
3.43443e-05
3.46223e-05
3.48906e-05
3.51389e-05
3.53609e-05
3.55533e-05
3.57148e-05
3.58453e-05
3.5946e-05
3.60193e-05
3.60715e-05
3.61042e-05
3.55098e-05
3.54674e-05
3.5425e-05
3.53672e-05
3.52791e-05
3.51648e-05
3.50253e-05
3.48617e-05
3.46743e-05
3.44648e-05
3.42363e-05
3.39969e-05
3.37621e-05
3.35594e-05
3.34329e-05
3.34332e-05
3.35582e-05
3.37574e-05
3.39892e-05
3.42286e-05
3.44606e-05
3.46757e-05
3.4868e-05
3.50342e-05
3.51731e-05
3.52851e-05
3.53717e-05
3.54352e-05
3.548e-05
3.55061e-05
3.49899e-05
3.49745e-05
3.49443e-05
3.48869e-05
3.48069e-05
3.47068e-05
3.45907e-05
3.44551e-05
3.42974e-05
3.41178e-05
3.39203e-05
3.37135e-05
3.35116e-05
3.33378e-05
3.3229e-05
3.32304e-05
3.33404e-05
3.3513e-05
3.37123e-05
3.39174e-05
3.41153e-05
3.42979e-05
3.44605e-05
3.46009e-05
3.47185e-05
3.48139e-05
3.48887e-05
3.49447e-05
3.49842e-05
3.50048e-05
3.45744e-05
3.45765e-05
3.45413e-05
3.44889e-05
3.44197e-05
3.43374e-05
3.424e-05
3.41231e-05
3.39867e-05
3.38324e-05
3.36642e-05
3.34896e-05
3.33203e-05
3.3174e-05
3.308e-05
3.30807e-05
3.31763e-05
3.33243e-05
3.34935e-05
3.36657e-05
3.3831e-05
3.39835e-05
3.412e-05
3.42387e-05
3.43391e-05
3.44217e-05
3.44876e-05
3.45373e-05
3.45718e-05
3.45852e-05
3.42321e-05
3.42259e-05
3.41949e-05
3.41541e-05
3.40987e-05
3.40304e-05
3.3944e-05
3.38414e-05
3.37249e-05
3.35957e-05
3.34563e-05
3.33126e-05
3.31728e-05
3.30486e-05
3.29656e-05
3.29647e-05
3.30466e-05
3.31718e-05
3.33133e-05
3.34568e-05
3.35947e-05
3.37229e-05
3.38384e-05