/*--------------------------------*- C++ -*----------------------------------*\
| =========                 |                                                 |
| \\      /  F ield         | OpenFOAM: The Open Source CFD Toolbox           |
|  \\    /   O peration     | Version:  2312                                  |
|   \\  /    A nd           | Website:  www.openfoam.com                      |
|    \\/     M anipulation  |                                                 |
\*---------------------------------------------------------------------------*/
FoamFile
{
    version     2.0;
    format      ascii;
    arch        "LSB;label=32;scalar=64";
    class       volScalarField;
    location    "0.303149";
    object      nut;
}
// * * * * * * * * * * * * * * * * * * * * * * * * * * * * * * * * * * * * * //

dimensions      [0 2 -1 0 0 0 0];

internalField   nonuniform List<scalar> 
90000
(
6.3446e-06
6.34465e-06
6.34465e-06
6.34465e-06
6.34465e-06
6.34465e-06
6.34465e-06
6.34465e-06
6.34465e-06
6.34465e-06
6.34464e-06
6.34464e-06
6.34464e-06
6.34463e-06
6.34463e-06
6.34462e-06
6.34463e-06
6.34463e-06
6.34464e-06
6.34464e-06
6.34464e-06
6.34464e-06
6.34465e-06
6.34466e-06
6.34467e-06
6.34467e-06
6.34467e-06
6.34466e-06
6.34465e-06
6.34463e-06
6.34466e-06
6.34602e-06
6.34605e-06
6.34605e-06
6.34605e-06
6.34605e-06
6.34605e-06
6.34605e-06
6.34604e-06
6.34604e-06
6.34603e-06
6.34603e-06
6.34602e-06
6.34602e-06
6.34601e-06
6.34601e-06
6.34601e-06
6.34601e-06
6.34602e-06
6.34603e-06
6.34603e-06
6.34604e-06
6.34604e-06
6.34604e-06
6.34604e-06
6.34604e-06
6.34605e-06
6.34606e-06
6.34605e-06
6.34478e-06
6.34466e-06
6.34605e-06
6.34609e-06
6.34609e-06
6.34609e-06
6.34609e-06
6.34609e-06
6.34608e-06
6.34608e-06
6.34608e-06
6.34607e-06
6.34607e-06
6.34606e-06
6.34606e-06
6.34605e-06
6.34605e-06
6.34605e-06
6.34606e-06
6.34607e-06
6.34607e-06
6.34608e-06
6.34608e-06
6.34607e-06
6.34607e-06
6.34608e-06
6.34608e-06
6.34608e-06
6.34607e-06
6.34599e-06
6.34468e-06
6.34466e-06
6.34605e-06
6.34609e-06
6.34609e-06
6.34609e-06
6.34609e-06
6.34609e-06
6.34609e-06
6.34608e-06
6.34608e-06
6.34607e-06
6.34607e-06
6.34606e-06
6.34606e-06
6.34605e-06
6.34605e-06
6.34606e-06
6.34606e-06
6.34607e-06
6.34608e-06
6.34608e-06
6.34607e-06
6.34607e-06
6.34607e-06
6.34608e-06
6.34609e-06
6.3461e-06
6.3461e-06
6.34602e-06
6.34466e-06
6.34467e-06
6.34605e-06
6.34609e-06
6.34609e-06
6.34609e-06
6.34609e-06
6.34609e-06
6.34609e-06
6.34608e-06
6.34608e-06
6.34607e-06
6.34607e-06
6.34606e-06
6.34606e-06
6.34605e-06
6.34606e-06
6.34606e-06
6.34607e-06
6.34607e-06
6.34607e-06
6.34607e-06
6.34607e-06
6.34607e-06
6.34608e-06
6.34608e-06
6.34608e-06
6.34608e-06
6.34608e-06
6.34603e-06
6.34466e-06
6.34468e-06
6.34606e-06
6.3461e-06
6.3461e-06
6.3461e-06
6.3461e-06
6.34609e-06
6.34609e-06
6.34608e-06
6.34608e-06
6.34607e-06
6.34607e-06
6.34606e-06
6.34606e-06
6.34606e-06
6.34606e-06
6.34607e-06
6.34607e-06
6.34607e-06
6.34607e-06
6.34607e-06
6.34608e-06
6.34608e-06
6.34608e-06
6.34608e-06
6.34608e-06
6.34608e-06
6.34608e-06
6.34604e-06
6.34466e-06
6.3447e-06
6.34607e-06
6.34611e-06
6.34611e-06
6.34611e-06
6.3461e-06
6.3461e-06
6.3461e-06
6.34609e-06
6.34609e-06
6.34608e-06
6.34607e-06
6.34606e-06
6.34606e-06
6.34606e-06
6.34606e-06
6.34606e-06
6.34607e-06
6.34607e-06
6.34607e-06
6.34608e-06
6.34609e-06
6.34609e-06
6.3461e-06
6.3461e-06
6.3461e-06
6.34609e-06
6.34609e-06
6.34605e-06
6.34467e-06
6.34471e-06
6.34609e-06
6.34613e-06
6.34613e-06
6.34612e-06
6.34612e-06
6.34612e-06
6.34611e-06
6.34611e-06
6.3461e-06
6.34609e-06
6.34608e-06
6.34607e-06
6.34606e-06
6.34606e-06
6.34606e-06
6.34606e-06
6.34607e-06
6.34608e-06
6.34608e-06
6.34609e-06
6.3461e-06
6.34611e-06
6.34611e-06
6.34612e-06
6.34612e-06
6.34611e-06
6.34611e-06
6.34606e-06
6.34469e-06
6.34474e-06
6.34612e-06
6.34615e-06
6.34615e-06
6.34615e-06
6.34614e-06
6.34614e-06
6.34613e-06
6.34613e-06
6.34611e-06
6.3461e-06
6.34609e-06
6.34607e-06
6.34606e-06
6.34605e-06
6.34606e-06
6.34607e-06
6.34608e-06
6.34609e-06
6.3461e-06
6.34611e-06
6.34612e-06
6.34613e-06
6.34614e-06
6.34614e-06
6.34614e-06
6.34613e-06
6.34613e-06
6.34608e-06
6.34472e-06
6.34476e-06
6.34615e-06
6.34618e-06
6.34618e-06
6.34618e-06
6.34617e-06
6.34616e-06
6.34616e-06
6.34614e-06
6.34613e-06
6.34612e-06
6.3461e-06
6.34608e-06
6.34607e-06
6.34605e-06
6.34606e-06
6.34607e-06
6.34609e-06
6.3461e-06
6.34612e-06
6.34613e-06
6.34615e-06
6.34615e-06
6.34616e-06
6.34616e-06
6.34616e-06
6.34616e-06
6.34616e-06
6.34612e-06
6.34475e-06
6.34479e-06
6.34619e-06
6.34622e-06
6.34622e-06
6.34621e-06
6.3462e-06
6.34619e-06
6.34618e-06
6.34616e-06
6.34615e-06
6.34613e-06
6.34611e-06
6.34609e-06
6.34607e-06
6.34605e-06
6.34605e-06
6.34607e-06
6.3461e-06
6.34612e-06
6.34614e-06
6.34616e-06
6.34617e-06
6.34618e-06
6.34619e-06
6.34619e-06
6.34619e-06
6.3462e-06
6.3462e-06
6.34616e-06
6.34479e-06
6.34483e-06
6.34624e-06
6.34626e-06
6.34626e-06
6.34625e-06
6.34624e-06
6.34622e-06
6.3462e-06
6.34618e-06
6.34617e-06
6.34615e-06
6.34613e-06
6.34611e-06
6.34608e-06
6.34605e-06
6.34605e-06
6.34608e-06
6.34611e-06
6.34614e-06
6.34617e-06
6.34619e-06
6.3462e-06
6.34622e-06
6.34622e-06
6.34623e-06
6.34624e-06
6.34624e-06
6.34625e-06
6.34622e-06
6.34485e-06
6.3449e-06
6.34629e-06
6.34632e-06
6.34631e-06
6.34629e-06
6.34628e-06
6.34626e-06
6.34623e-06
6.34621e-06
6.34619e-06
6.34617e-06
6.34615e-06
6.34612e-06
6.34609e-06
6.34606e-06
6.34606e-06
6.34609e-06
6.34612e-06
6.34616e-06
6.34619e-06
6.34621e-06
6.34624e-06
6.34625e-06
6.34627e-06
6.34628e-06
6.34629e-06
6.3463e-06
6.34631e-06
6.34628e-06
6.34491e-06
6.34498e-06
6.34636e-06
6.34638e-06
6.34637e-06
6.34635e-06
6.34633e-06
6.3463e-06
6.34628e-06
6.34625e-06
6.34623e-06
6.3462e-06
6.34617e-06
6.34614e-06
6.3461e-06
6.34607e-06
6.34607e-06
6.3461e-06
6.34614e-06
6.34617e-06
6.34621e-06
6.34625e-06
6.34628e-06
6.3463e-06
6.34632e-06
6.34634e-06
6.34636e-06
6.34638e-06
6.34639e-06
6.34636e-06
6.34498e-06
6.34508e-06
6.34644e-06
6.34646e-06
6.34645e-06
6.34642e-06
6.3464e-06
6.34637e-06
6.34634e-06
6.34631e-06
6.34628e-06
6.34624e-06
6.3462e-06
6.34616e-06
6.34612e-06
6.34609e-06
6.34608e-06
6.34611e-06
6.34615e-06
6.34619e-06
6.34624e-06
6.34628e-06
6.34632e-06
6.34636e-06
6.34639e-06
6.34642e-06
6.34644e-06
6.34646e-06
6.34647e-06
6.34644e-06
6.34506e-06
6.3452e-06
6.34653e-06
6.34656e-06
6.34654e-06
6.34652e-06
6.34649e-06
6.34646e-06
6.34642e-06
6.34638e-06
6.34634e-06
6.34629e-06
6.34624e-06
6.34618e-06
6.34613e-06
6.34609e-06
6.34609e-06
6.34612e-06
6.34617e-06
6.34622e-06
6.34628e-06
6.34633e-06
6.34639e-06
6.34643e-06
6.34647e-06
6.34651e-06
6.34654e-06
6.34656e-06
6.34657e-06
6.34653e-06
6.34516e-06
6.34532e-06
6.34665e-06
6.34668e-06
6.34666e-06
6.34663e-06
6.3466e-06
6.34657e-06
6.34652e-06
6.34647e-06
6.34642e-06
6.34635e-06
6.34628e-06
6.34621e-06
6.34615e-06
6.3461e-06
6.3461e-06
6.34614e-06
6.3462e-06
6.34627e-06
6.34634e-06
6.3464e-06
6.34647e-06
6.34653e-06
6.34658e-06
6.34662e-06
6.34665e-06
6.34667e-06
6.34669e-06
6.34666e-06
6.34529e-06
6.34547e-06
6.3468e-06
6.34683e-06
6.3468e-06
6.34677e-06
6.34674e-06
6.3467e-06
6.34664e-06
6.34658e-06
6.34651e-06
6.34642e-06
6.34634e-06
6.34626e-06
6.34618e-06
6.34612e-06
6.34612e-06
6.34617e-06
6.34625e-06
6.34633e-06
6.34642e-06
6.3465e-06
6.34658e-06
6.34665e-06
6.3467e-06
6.34675e-06
6.34679e-06
6.34682e-06
6.34684e-06
6.34681e-06
6.34545e-06
6.34564e-06
6.34698e-06
6.347e-06
6.34698e-06
6.34695e-06
6.3469e-06
6.34685e-06
6.34679e-06
6.34671e-06
6.34662e-06
6.34652e-06
6.34642e-06
6.34632e-06
6.34623e-06
6.34616e-06
6.34615e-06
6.34622e-06
6.34632e-06
6.34642e-06
6.34652e-06
6.34662e-06
6.34671e-06
6.34679e-06
6.34686e-06
6.34691e-06
6.34696e-06
6.347e-06
6.34702e-06
6.34701e-06
6.34565e-06
6.34586e-06
6.3472e-06
6.34722e-06
6.34719e-06
6.34715e-06
6.3471e-06
6.34704e-06
6.34696e-06
6.34687e-06
6.34676e-06
6.34665e-06
6.34653e-06
6.34641e-06
6.3463e-06
6.34621e-06
6.3462e-06
6.34629e-06
6.3464e-06
6.34652e-06
6.34664e-06
6.34676e-06
6.34686e-06
6.34696e-06
6.34704e-06
6.34711e-06
6.34717e-06
6.34722e-06
6.34725e-06
6.34724e-06
6.34588e-06
6.34613e-06
6.34747e-06
6.34749e-06
6.34746e-06
6.34741e-06
6.34735e-06
6.34727e-06
6.34717e-06
6.34706e-06
6.34693e-06
6.3468e-06
6.34666e-06
6.34651e-06
6.34637e-06
6.34626e-06
6.34626e-06
6.34637e-06
6.3465e-06
6.34665e-06
6.34679e-06
6.34692e-06
6.34705e-06
6.34716e-06
6.34726e-06
6.34735e-06
6.34743e-06
6.34748e-06
6.34753e-06
6.34751e-06
6.34615e-06
6.34646e-06
6.34781e-06
6.34782e-06
6.34778e-06
6.34773e-06
6.34765e-06
6.34755e-06
6.34743e-06
6.3473e-06
6.34714e-06
6.34698e-06
6.3468e-06
6.34663e-06
6.34646e-06
6.34633e-06
6.34634e-06
6.34646e-06
6.34663e-06
6.3468e-06
6.34697e-06
6.34713e-06
6.34728e-06
6.34742e-06
6.34754e-06
6.34765e-06
6.34774e-06
6.34781e-06
6.34785e-06
6.34784e-06
6.34649e-06
6.34687e-06
6.34823e-06
6.34824e-06
6.34819e-06
6.34812e-06
6.34802e-06
6.34789e-06
6.34774e-06
6.34758e-06
6.34739e-06
6.34719e-06
6.34698e-06
6.34677e-06
6.34657e-06
6.34643e-06
6.34644e-06
6.34658e-06
6.34678e-06
6.34698e-06
6.34719e-06
6.34738e-06
6.34756e-06
6.34773e-06
6.34788e-06
6.34801e-06
6.34812e-06
6.3482e-06
6.34826e-06
6.34826e-06
6.34692e-06
6.34737e-06
6.34874e-06
6.34874e-06
6.34868e-06
6.34858e-06
6.34846e-06
6.3483e-06
6.34812e-06
6.34792e-06
6.34769e-06
6.34745e-06
6.3472e-06
6.34695e-06
6.34672e-06
6.34656e-06
6.34657e-06
6.34674e-06
6.34697e-06
6.34722e-06
6.34746e-06
6.3477e-06
6.34792e-06
6.34812e-06
6.3483e-06
6.34846e-06
6.34858e-06
6.34868e-06
6.34875e-06
6.34876e-06
6.34742e-06
6.34799e-06
6.34936e-06
6.34934e-06
6.34926e-06
6.34914e-06
6.34898e-06
6.3488e-06
6.34858e-06
6.34834e-06
6.34807e-06
6.34778e-06
6.34748e-06
6.34719e-06
6.34692e-06
6.34674e-06
6.34674e-06
6.34693e-06
6.34721e-06
6.34751e-06
6.3478e-06
6.34809e-06
6.34835e-06
6.34859e-06
6.3488e-06
6.34898e-06
6.34913e-06
6.34925e-06
6.34934e-06
6.34936e-06
6.34802e-06
6.34873e-06
6.35009e-06
6.35005e-06
6.34995e-06
6.3498e-06
6.34962e-06
6.3494e-06
6.34915e-06
6.34886e-06
6.34854e-06
6.3482e-06
6.34785e-06
6.34749e-06
6.34717e-06
6.34696e-06
6.34696e-06
6.34717e-06
6.3475e-06
6.34786e-06
6.34822e-06
6.34856e-06
6.34887e-06
6.34915e-06
6.3494e-06
6.34962e-06
6.3498e-06
6.34994e-06
6.35005e-06
6.35007e-06
6.34873e-06
6.3496e-06
6.35094e-06
6.35089e-06
6.35077e-06
6.3506e-06
6.35039e-06
6.35014e-06
6.34984e-06
6.3495e-06
6.34912e-06
6.34872e-06
6.34829e-06
6.34787e-06
6.34749e-06
6.34723e-06
6.34723e-06
6.34748e-06
6.34786e-06
6.34829e-06
6.34872e-06
6.34913e-06
6.3495e-06
6.34984e-06
6.35014e-06
6.35039e-06
6.3506e-06
6.35077e-06
6.35089e-06
6.35093e-06
6.3496e-06
6.35064e-06
6.35195e-06
6.35189e-06
6.35175e-06
6.35156e-06
6.35132e-06
6.35103e-06
6.35068e-06
6.35028e-06
6.34983e-06
6.34934e-06
6.34884e-06
6.34834e-06
6.34789e-06
6.3476e-06
6.34759e-06
6.34788e-06
6.34833e-06
6.34884e-06
6.34935e-06
6.34983e-06
6.35028e-06
6.35068e-06
6.35103e-06
6.35133e-06
6.35157e-06
6.35176e-06
6.3519e-06
6.35195e-06
6.35064e-06
6.35186e-06
6.35315e-06
6.35309e-06
6.35293e-06
6.35271e-06
6.35244e-06
6.3521e-06
6.35169e-06
6.35121e-06
6.35068e-06
6.35011e-06
6.34951e-06
6.34892e-06
6.34841e-06
6.34808e-06
6.34808e-06
6.34841e-06
6.34893e-06
6.34952e-06
6.35012e-06
6.35069e-06
6.35122e-06
6.35169e-06
6.3521e-06
6.35245e-06
6.35272e-06
6.35294e-06
6.3531e-06
6.35317e-06
6.35187e-06
6.3533e-06
6.35459e-06
6.35451e-06
6.35433e-06
6.35409e-06
6.35377e-06
6.35337e-06
6.35289e-06
6.35234e-06
6.35172e-06
6.35106e-06
6.35036e-06
6.34967e-06
6.34908e-06
6.34872e-06
6.34872e-06
6.3491e-06
6.34969e-06
6.35037e-06
6.35107e-06
6.35174e-06
6.35236e-06
6.35291e-06
6.35338e-06
6.35377e-06
6.35408e-06
6.35433e-06
6.35452e-06
6.35461e-06
6.35331e-06
6.35501e-06
6.3563e-06
6.3562e-06
6.356e-06
6.35572e-06
6.35535e-06
6.35489e-06
6.35434e-06
6.35371e-06
6.353e-06
6.35223e-06
6.35142e-06
6.35063e-06
6.34996e-06
6.34956e-06
6.34956e-06
6.34997e-06
6.35064e-06
6.35142e-06
6.35223e-06
6.35301e-06
6.35373e-06
6.35437e-06
6.35491e-06
6.35535e-06
6.35571e-06
6.356e-06
6.35621e-06
6.3563e-06
6.35502e-06
6.35703e-06
6.3583e-06
6.35819e-06
6.35796e-06
6.35764e-06
6.35723e-06
6.35671e-06
6.35609e-06
6.35538e-06
6.35457e-06
6.35368e-06
6.35275e-06
6.35185e-06
6.3511e-06
6.35064e-06
6.35064e-06
6.3511e-06
6.35185e-06
6.35274e-06
6.35367e-06
6.35457e-06
6.35539e-06
6.35612e-06
6.35673e-06
6.35723e-06
6.35765e-06
6.35797e-06
6.3582e-06
6.3583e-06
6.35704e-06
6.35938e-06
6.36063e-06
6.36051e-06
6.36026e-06
6.35991e-06
6.35946e-06
6.35889e-06
6.35821e-06
6.35741e-06
6.35649e-06
6.35547e-06
6.35441e-06
6.35339e-06
6.35255e-06
6.35205e-06
6.35205e-06
6.35254e-06
6.35338e-06
6.35439e-06
6.35545e-06
6.35647e-06
6.3574e-06
6.35821e-06
6.3589e-06
6.35947e-06
6.35993e-06
6.36027e-06
6.36051e-06
6.36063e-06
6.35939e-06
6.36209e-06
6.36333e-06
6.3632e-06
6.36294e-06
6.36258e-06
6.3621e-06
6.36149e-06
6.36074e-06
6.35984e-06
6.35881e-06
6.35767e-06
6.35648e-06
6.35534e-06
6.35441e-06
6.35387e-06
6.35388e-06
6.35442e-06
6.35534e-06
6.35647e-06
6.35765e-06
6.35879e-06
6.35982e-06
6.36072e-06
6.36147e-06
6.3621e-06
6.36258e-06
6.36294e-06
6.36319e-06
6.36332e-06
6.36208e-06
6.3652e-06
6.36642e-06
6.3663e-06
6.36605e-06
6.36568e-06
6.36519e-06
6.36454e-06
6.36374e-06
6.36276e-06
6.36163e-06
6.36037e-06
6.35906e-06
6.35783e-06
6.35682e-06
6.35625e-06
6.35625e-06
6.35683e-06
6.35783e-06
6.35907e-06
6.36037e-06
6.36161e-06
6.36274e-06
6.3637e-06
6.36452e-06
6.36517e-06
6.36566e-06
6.36602e-06
6.36627e-06
6.36638e-06
6.36515e-06
6.36873e-06
6.36994e-06
6.36984e-06
6.36961e-06
6.36926e-06
6.36877e-06
6.36812e-06
6.36728e-06
6.36625e-06
6.36504e-06
6.3637e-06
6.3623e-06
6.36099e-06
6.35992e-06
6.35931e-06
6.35931e-06
6.35992e-06
6.361e-06
6.36233e-06
6.36372e-06
6.36505e-06
6.36625e-06
6.36727e-06
6.36811e-06
6.36876e-06
6.36924e-06
6.36958e-06
6.3698e-06
6.36988e-06
6.36866e-06
6.37269e-06
6.3739e-06
6.37383e-06
6.37364e-06
6.37334e-06
6.3729e-06
6.37228e-06
6.37146e-06
6.37042e-06
6.36919e-06
6.3678e-06
6.36636e-06
6.36498e-06
6.36387e-06
6.36323e-06
6.36323e-06
6.36387e-06
6.365e-06
6.36639e-06
6.36785e-06
6.36924e-06
6.37047e-06
6.3715e-06
6.37232e-06
6.37293e-06
6.37336e-06
6.37364e-06
6.37379e-06
6.37383e-06
6.37262e-06
6.37708e-06
6.37829e-06
6.37827e-06
6.37816e-06
6.37796e-06
6.37761e-06
6.37709e-06
6.37635e-06
6.37538e-06
6.37419e-06
6.37282e-06
6.37137e-06
6.36998e-06
6.36885e-06
6.36821e-06
6.36821e-06
6.36886e-06
6.37e-06
6.37141e-06
6.37288e-06
6.37426e-06
6.37546e-06
6.37644e-06
6.37718e-06
6.37768e-06
6.37801e-06
6.37819e-06
6.37825e-06
6.37824e-06
6.37704e-06
6.38184e-06
6.38306e-06
6.38313e-06
6.38315e-06
6.3831e-06
6.38293e-06
6.3826e-06
6.38203e-06
6.38122e-06
6.38016e-06
6.37888e-06
6.37749e-06
6.37615e-06
6.37506e-06
6.37443e-06
6.37444e-06
6.37507e-06
6.37617e-06
6.37752e-06
6.37891e-06
6.38019e-06
6.38127e-06
6.3821e-06
6.38267e-06
6.38301e-06
6.38317e-06
6.38318e-06
6.38314e-06
6.38306e-06
6.38186e-06
6.3869e-06
6.38814e-06
6.38834e-06
6.38855e-06
6.38875e-06
6.38886e-06
6.38881e-06
6.38854e-06
6.388e-06
6.38719e-06
6.38612e-06
6.38491e-06
6.38371e-06
6.38271e-06
6.38213e-06
6.38213e-06
6.3827e-06
6.38368e-06
6.38488e-06
6.38609e-06
6.38716e-06
6.38799e-06
6.38854e-06
6.38882e-06
6.38889e-06
6.38878e-06
6.38857e-06
6.38837e-06
6.38818e-06
6.38696e-06
6.39213e-06
6.39341e-06
6.3938e-06
6.39429e-06
6.39483e-06
6.39534e-06
6.39572e-06
6.39589e-06
6.39578e-06
6.39538e-06
6.39469e-06
6.39381e-06
6.39287e-06
6.39206e-06
6.39157e-06
6.39155e-06
6.39202e-06
6.39282e-06
6.39375e-06
6.39463e-06
6.39532e-06
6.39572e-06
6.39583e-06
6.39567e-06
6.39531e-06
6.3948e-06
6.39428e-06
6.39381e-06
6.39347e-06
6.39219e-06
6.39733e-06
6.39869e-06
6.39935e-06
6.40021e-06
6.40122e-06
6.40227e-06
6.40325e-06
6.40405e-06
6.40459e-06
6.4048e-06
6.40471e-06
6.40435e-06
6.40384e-06
6.40333e-06
6.40301e-06
6.40301e-06
6.40333e-06
6.40383e-06
6.40433e-06
6.40469e-06
6.40479e-06
6.40456e-06
6.404e-06
6.40321e-06
6.40222e-06
6.40116e-06
6.40019e-06
6.39936e-06
6.39877e-06
6.39737e-06
6.40229e-06
6.40379e-06
6.40479e-06
6.40613e-06
6.40773e-06
6.40949e-06
6.41126e-06
6.41292e-06
6.41434e-06
6.41543e-06
6.41617e-06
6.41657e-06
6.41668e-06
6.41663e-06
6.41657e-06
6.41659e-06
6.41667e-06
6.41673e-06
6.41661e-06
6.41621e-06
6.41547e-06
6.41436e-06
6.41292e-06
6.41126e-06
6.40946e-06
6.4077e-06
6.40612e-06
6.40483e-06
6.40387e-06
6.40231e-06
6.40681e-06
6.40849e-06
6.40991e-06
6.41182e-06
6.41414e-06
6.41676e-06
6.41953e-06
6.42229e-06
6.42487e-06
6.42715e-06
6.42899e-06
6.43038e-06
6.43132e-06
6.43189e-06
6.43216e-06
6.43218e-06
6.43193e-06
6.43136e-06
6.43043e-06
6.42904e-06
6.4272e-06
6.4249e-06
6.42232e-06
6.41955e-06
6.41675e-06
6.41413e-06
6.41184e-06
6.40998e-06
6.40854e-06
6.4068e-06
6.4107e-06
6.41258e-06
6.41445e-06
6.41704e-06
6.42024e-06
6.42387e-06
6.42781e-06
6.43191e-06
6.43591e-06
6.43965e-06
6.44293e-06
6.44559e-06
6.44755e-06
6.44889e-06
6.44955e-06
6.44955e-06
6.44889e-06
6.44756e-06
6.4456e-06
6.44295e-06
6.43967e-06
6.43593e-06
6.43193e-06
6.42782e-06
6.42386e-06
6.42025e-06
6.41707e-06
6.41453e-06
6.4126e-06
6.41069e-06
6.41342e-06
6.41565e-06
6.41813e-06
6.42151e-06
6.4257e-06
6.43049e-06
6.4358e-06
6.44134e-06
6.44693e-06
6.4523e-06
6.45728e-06
6.46154e-06
6.4649e-06
6.46712e-06
6.46821e-06
6.46821e-06
6.46711e-06
6.46489e-06
6.46155e-06
6.45729e-06
6.45231e-06
6.44694e-06
6.44135e-06
6.43578e-06
6.43048e-06
6.4257e-06
6.42156e-06
6.41819e-06
6.41568e-06
6.41345e-06
6.41487e-06
6.41757e-06
6.42081e-06
6.42512e-06
6.43042e-06
6.43648e-06
6.4432e-06
6.4504e-06
6.45775e-06
6.465e-06
6.47192e-06
6.47821e-06
6.48355e-06
6.48751e-06
6.48996e-06
6.48996e-06
6.48751e-06
6.48356e-06
6.47823e-06
6.47193e-06
6.46502e-06
6.45776e-06
6.4504e-06
6.44319e-06
6.43648e-06
6.43042e-06
6.42517e-06
6.42085e-06
6.4176e-06
6.41491e-06
6.41785e-06
6.42128e-06
6.42539e-06
6.43076e-06
6.43724e-06
6.44465e-06
6.45285e-06
6.46159e-06
6.47089e-06
6.48076e-06
6.49145e-06
6.50405e-06
6.51994e-06
6.53856e-06
6.55878e-06
6.55872e-06
6.53857e-06
6.51989e-06
6.50402e-06
6.49145e-06
6.48077e-06
6.4709e-06
6.46159e-06
6.45283e-06
6.44466e-06
6.43726e-06
6.4308e-06
6.42542e-06
6.4213e-06
6.41785e-06
6.42409e-06
6.42791e-06
6.43263e-06
6.43828e-06
6.44484e-06
6.45229e-06
6.46074e-06
6.47095e-06
6.48541e-06
6.50999e-06
6.56025e-06
6.66154e-06
6.84027e-06
7.08313e-06
7.37947e-06
7.37877e-06
7.08356e-06
6.83982e-06
6.66137e-06
6.56053e-06
6.51018e-06
6.48548e-06
6.47095e-06
6.4607e-06
6.45228e-06
6.44487e-06
6.43832e-06
6.43262e-06
6.42797e-06
6.42403e-06
6.40544e-06
6.41007e-06
6.41573e-06
6.42248e-06
6.43291e-06
6.44732e-06
6.47553e-06
6.53603e-06
6.67971e-06
7.00626e-06
7.71726e-06
9.04873e-06
1.11271e-05
1.3588e-05
1.61794e-05
1.61764e-05
1.35899e-05
1.11256e-05
9.04996e-06
7.72347e-06
7.01096e-06
6.68171e-06
6.53604e-06
6.4748e-06
6.44659e-06
6.43176e-06
6.42204e-06
6.41528e-06
6.40995e-06
6.40508e-06
6.51543e-06
6.53414e-06
6.58632e-06
6.68584e-06
6.84033e-06
7.11191e-06
7.63615e-06
8.6131e-06
1.02576e-05
1.27759e-05
1.6419e-05
2.11666e-05
2.66618e-05
3.19263e-05
3.63774e-05
3.63763e-05
3.19258e-05
2.66664e-05
2.11802e-05
1.64494e-05
1.28085e-05
1.02799e-05
8.62408e-06
7.63553e-06
7.0979e-06
6.81924e-06
6.66797e-06
6.57623e-06
6.52518e-06
6.49744e-06
8.37236e-06
8.62154e-06
9.60418e-06
1.08965e-05
1.25438e-05
1.5269e-05
1.94158e-05
2.46488e-05
3.05218e-05
3.67041e-05
4.33469e-05
4.96509e-05
5.54077e-05
5.99322e-05
6.38768e-05
6.38728e-05
5.99181e-05
5.54324e-05
4.96999e-05
4.33936e-05
3.67511e-05
3.05758e-05
2.47186e-05
1.94784e-05
1.53155e-05
1.25807e-05
1.09063e-05
9.59903e-06
8.57277e-06
8.34917e-06
9.50323e-06
9.69219e-06
1.03488e-05
1.15084e-05
1.34446e-05
1.66356e-05
2.1032e-05
2.5748e-05
3.08063e-05
3.72511e-05
4.63701e-05
5.75767e-05
6.69464e-05
7.23877e-05
7.81772e-05
7.81787e-05
7.24137e-05
6.70972e-05
5.78517e-05
4.66165e-05
3.73991e-05
3.08908e-05
2.58214e-05
2.11139e-05
1.67056e-05
1.34842e-05
1.15145e-05
1.03491e-05
9.66357e-06
9.50714e-06
9.88631e-06
1.00558e-05
1.04813e-05
1.11707e-05
1.22995e-05
1.44477e-05
1.84026e-05
2.39307e-05
3.02507e-05
3.706e-05
4.40849e-05
5.11752e-05
5.77629e-05
6.24825e-05
6.69173e-05
6.69257e-05
6.24995e-05
5.78519e-05
5.13164e-05
4.4209e-05
3.71729e-05
3.03536e-05
2.40307e-05
1.84919e-05
1.45055e-05
1.2323e-05
1.11715e-05
1.04824e-05
1.00477e-05
9.89758e-06
9.96996e-06
1.01258e-05
1.03782e-05
1.07697e-05
1.13124e-05
1.2144e-05
1.37107e-05
1.71994e-05
2.31061e-05
3.0876e-05
3.89189e-05
4.62115e-05
5.25116e-05
5.71705e-05
6.05166e-05
6.05219e-05
5.71709e-05
5.2562e-05
4.63048e-05
3.90294e-05
3.1e-05
2.32238e-05
1.72871e-05
1.37618e-05
1.21704e-05
1.13256e-05
1.07749e-05
1.03809e-05
1.01237e-05
9.98258e-06
9.91115e-06
1.00497e-05
1.02048e-05
1.04312e-05
1.07123e-05
1.10575e-05
1.15278e-05
1.23832e-05
1.43795e-05
1.94114e-05
2.71145e-05
3.53822e-05
4.28663e-05
4.90233e-05
5.38356e-05
5.38368e-05
4.9018e-05
4.29007e-05
3.54527e-05
2.72144e-05
1.95132e-05
1.44448e-05
1.24147e-05
1.1546e-05
1.10705e-05
1.07216e-05
1.04367e-05
1.02081e-05
1.00484e-05
9.91265e-06
9.74403e-06
9.87981e-06
1.00055e-05
1.01728e-05
1.03654e-05
1.05755e-05
1.08032e-05
1.10703e-05
1.14372e-05
1.21711e-05
1.45626e-05
1.9487e-05
2.61534e-05
3.38299e-05
4.0831e-05
4.08208e-05
3.38113e-05
2.61685e-05
1.95256e-05
1.46072e-05
1.21962e-05
1.14458e-05
1.10766e-05
1.08101e-05
1.05833e-05
1.03718e-05
1.01765e-05
1.00094e-05
9.88438e-06
9.7473e-06
9.66116e-06
9.73088e-06
9.85141e-06
1.00001e-05
1.01678e-05
1.03509e-05
1.0545e-05
1.0749e-05
1.09649e-05
1.12082e-05
1.15366e-05
1.21187e-05
1.31824e-05
1.56761e-05
2.07481e-05
2.07377e-05
1.56734e-05
1.31879e-05
1.21257e-05
1.1544e-05
1.1215e-05
1.09717e-05
1.07561e-05
1.05516e-05
1.03561e-05
1.01712e-05
1.00009e-05
9.85149e-06
9.73239e-06
9.66298e-06
9.64281e-06
9.65979e-06
9.75346e-06
9.87944e-06
1.0026e-05
1.01869e-05
1.03574e-05
1.05351e-05
1.07158e-05
1.08976e-05
1.10751e-05
1.12506e-05
1.14326e-05
1.1645e-05
1.19799e-05
1.19795e-05
1.16453e-05
1.14329e-05
1.1251e-05
1.10764e-05
1.09001e-05
1.07194e-05
1.05384e-05
1.03595e-05
1.01889e-05
1.00282e-05
9.88124e-06
9.75466e-06
9.65985e-06
9.64482e-06
9.58664e-06
9.58008e-06
9.65021e-06
9.75253e-06
9.87458e-06
1.00113e-05
1.01566e-05
1.03062e-05
1.04565e-05
1.06011e-05
1.07331e-05
1.08471e-05
1.09395e-05
1.10055e-05
1.10481e-05
1.10496e-05
1.10081e-05
1.09423e-05
1.0851e-05
1.07378e-05
1.06057e-05
1.04607e-05
1.03092e-05
1.01582e-05
1.00122e-05
9.87474e-06
9.75272e-06
9.65064e-06
9.58086e-06
9.58364e-06
9.47434e-06
9.46023e-06
9.515e-06
9.597e-06
9.69656e-06
9.80829e-06
9.92849e-06
1.00501e-05
1.01703e-05
1.02768e-05
1.03704e-05
1.04464e-05
1.05044e-05
1.05411e-05
1.05585e-05
1.05598e-05
1.05432e-05
1.05066e-05
1.04487e-05
1.0373e-05
1.02785e-05
1.01712e-05
1.00508e-05
9.92828e-06
9.80778e-06
9.69603e-06
9.59735e-06
9.51675e-06
9.46448e-06
9.47655e-06
9.33257e-06
9.30966e-06
9.35043e-06
9.41416e-06
9.49261e-06
9.58102e-06
9.67161e-06
9.76056e-06
9.84433e-06
9.91739e-06
9.97867e-06
1.00261e-05
1.00581e-05
1.0076e-05
1.00836e-05
1.00837e-05
1.00759e-05
1.0057e-05
1.00248e-05
9.97799e-06
9.91644e-06
9.8429e-06
9.7596e-06
9.67053e-06
9.58068e-06
9.4936e-06
9.41632e-06
9.35309e-06
9.31293e-06
9.33784e-06
9.16011e-06
9.13338e-06
9.16058e-06
9.20716e-06
9.26418e-06
9.32697e-06
9.39073e-06
9.45172e-06
9.50483e-06
9.54887e-06
9.58197e-06
9.60354e-06
9.61315e-06
9.61561e-06
9.61497e-06
9.6148e-06
9.61585e-06
9.61401e-06
9.6052e-06
9.58471e-06
9.5519e-06
9.50707e-06
9.45322e-06
9.39192e-06
9.32838e-06
9.26709e-06
9.21106e-06
9.16446e-06
9.13558e-06
9.16249e-06
8.96074e-06
8.93042e-06
8.94756e-06
8.98076e-06
9.02081e-06
9.0642e-06
9.10495e-06
9.14102e-06
9.16934e-06
9.18822e-06
9.19662e-06
9.19467e-06
9.18551e-06
9.17419e-06
9.16615e-06
9.16656e-06
9.17587e-06
9.18826e-06
9.19752e-06
9.19943e-06
9.19126e-06
9.17209e-06
9.14297e-06
9.1061e-06
9.06497e-06
9.02317e-06
8.98422e-06
8.95151e-06
8.93372e-06
8.96095e-06
8.74176e-06
8.7119e-06
8.72342e-06
8.74602e-06
8.77184e-06
8.79786e-06
8.81971e-06
8.83604e-06
8.84384e-06
8.84184e-06
8.8295e-06
8.80815e-06
8.7828e-06
8.75979e-06
8.74494e-06
8.7451e-06
8.76025e-06
8.78389e-06
8.80947e-06
8.83072e-06
8.84347e-06
8.84564e-06
8.83721e-06
8.8201e-06
8.79776e-06
8.77264e-06
8.74742e-06
8.72603e-06
8.71693e-06
8.74463e-06
8.51806e-06
8.49029e-06
8.49544e-06
8.50841e-06
8.52197e-06
8.53432e-06
8.54072e-06
8.54079e-06
8.53276e-06
8.51381e-06
8.4845e-06
8.44836e-06
8.41054e-06
8.37806e-06
8.35845e-06
8.35893e-06
8.37907e-06
8.41196e-06
8.45016e-06
8.48596e-06
8.51489e-06
8.534e-06
8.54263e-06
8.5423e-06
8.53486e-06
8.52299e-06
8.50964e-06
8.49811e-06
8.49538e-06
8.52269e-06
8.30012e-06
8.27176e-06
8.27201e-06
8.27584e-06
8.28054e-06
8.28068e-06
8.27561e-06
8.26394e-06
8.2424e-06
8.21001e-06
8.16892e-06
8.12233e-06
8.07573e-06
8.03637e-06
8.01362e-06
8.01434e-06
8.03757e-06
8.07641e-06
8.1229e-06
8.1698e-06
8.21117e-06
8.24366e-06
8.26577e-06
8.27794e-06
8.28221e-06
8.28137e-06
8.27742e-06
8.27292e-06
8.2746e-06
8.30354e-06
8.08834e-06
8.05988e-06
8.0546e-06
8.05175e-06
8.04997e-06
8.04174e-06
8.02886e-06
8.00785e-06
7.97616e-06
7.93492e-06
7.88593e-06
7.83217e-06
7.77939e-06
7.7357e-06
7.71054e-06
7.71075e-06
7.73602e-06
7.77948e-06
7.83224e-06
7.88681e-06
7.93651e-06
7.97784e-06
8.00944e-06
8.0315e-06
8.04507e-06
8.05193e-06
8.0544e-06
8.05487e-06
8.05961e-06
8.08926e-06
7.8851e-06
7.85682e-06
7.84825e-06
7.84327e-06
7.83419e-06
7.82107e-06
7.80261e-06
7.77459e-06
7.73667e-06
7.69032e-06
7.63626e-06
7.57801e-06
7.52215e-06
7.47681e-06
7.45086e-06
7.45116e-06
7.47768e-06
7.5233e-06
7.57907e-06
7.63742e-06
7.69205e-06
7.73927e-06
7.77729e-06
7.80569e-06
7.82507e-06
7.83709e-06
7.8441e-06
7.84847e-06
7.8554e-06
7.88446e-06
7.69608e-06
7.66783e-06
7.65762e-06
7.65039e-06
7.63793e-06
7.62289e-06
7.59969e-06
7.56728e-06
7.52665e-06
7.47742e-06
7.42084e-06
7.36118e-06
7.30512e-06
7.25961e-06
7.23301e-06
7.23287e-06
7.25959e-06
7.30578e-06
7.36252e-06
7.42212e-06
7.47851e-06
7.52802e-06
7.56884e-06
7.60054e-06
7.62371e-06
7.63965e-06
7.65013e-06
7.65719e-06
7.6652e-06
7.69286e-06
7.51663e-06
7.49167e-06
7.48228e-06
7.47345e-06
7.46162e-06
7.44388e-06
7.41745e-06
7.38379e-06
7.34213e-06
7.29205e-06
7.23586e-06
7.17764e-06
7.12293e-06
7.07812e-06
7.05178e-06
7.05182e-06
7.07839e-06
7.12386e-06
7.1793e-06
7.23737e-06
7.29273e-06
7.34216e-06
7.38395e-06
7.41747e-06
7.44299e-06
7.4614e-06
7.47396e-06
7.48244e-06
7.49097e-06
7.517e-06
7.35791e-06
7.33206e-06
7.32506e-06
7.31562e-06
7.30302e-06
7.28278e-06
7.25619e-06
7.2231e-06
7.18183e-06
7.1333e-06
7.07983e-06
7.02471e-06
6.97223e-06
6.92888e-06
6.90346e-06
6.90354e-06
6.92896e-06
6.97226e-06
7.0249e-06
7.08022e-06
7.13351e-06
7.18171e-06
7.22296e-06
7.25652e-06
7.28262e-06
7.30205e-06
7.31586e-06
7.32531e-06
7.33406e-06
7.35795e-06
7.21357e-06
7.19166e-06
7.18457e-06
7.17531e-06
7.1612e-06
7.14127e-06
7.11621e-06
7.08388e-06
7.04427e-06
6.99877e-06
6.949e-06
6.89734e-06
6.84772e-06
6.80689e-06
6.78316e-06
6.78341e-06
6.80742e-06
6.84803e-06
6.89729e-06
6.94909e-06
6.99917e-06
7.04456e-06
7.08364e-06
7.11589e-06
7.14159e-06
7.16134e-06
7.17585e-06
7.186e-06
7.19434e-06
7.21539e-06
7.08534e-06
7.0694e-06
7.06096e-06
7.05159e-06
7.03738e-06
7.01873e-06
6.99424e-06
6.96311e-06
6.92647e-06
6.88507e-06
6.83965e-06
6.79221e-06
6.74673e-06
6.70957e-06
6.68789e-06
6.68818e-06
6.71034e-06
6.74757e-06
6.7928e-06
6.84018e-06
6.88602e-06
6.92771e-06
6.96398e-06
6.99442e-06
7.01913e-06
7.03843e-06
7.05279e-06
7.06287e-06
7.07058e-06
7.08853e-06
6.97646e-06
6.96101e-06
6.95381e-06
6.94423e-06
6.93055e-06
6.91264e-06
6.88917e-06
6.86094e-06
6.82837e-06
6.79138e-06
6.75043e-06
6.70761e-06
6.66659e-06
6.6327e-06
6.61252e-06
6.61245e-06
6.6325e-06
6.66634e-06
6.7073e-06
6.75017e-06
6.79156e-06
6.82933e-06
6.86242e-06
6.89043e-06
6.91331e-06
6.93129e-06
6.94479e-06
6.95434e-06
6.96151e-06
6.97677e-06
6.87925e-06
6.8658e-06
6.85982e-06
6.85016e-06
6.83756e-06
6.82098e-06
6.8002e-06
6.77549e-06
6.74654e-06
6.71328e-06
6.67662e-06
6.63851e-06
6.60187e-06
6.57105e-06
6.55237e-06
6.55224e-06
6.5707e-06
6.60155e-06
6.63842e-06
6.67672e-06
6.71348e-06
6.74698e-06
6.77641e-06
6.80142e-06
6.822e-06
6.83837e-06
6.85085e-06
6.85981e-06
6.86648e-06
6.87942e-06
6.79383e-06
6.78491e-06
6.77799e-06
6.76916e-06
6.75813e-06
6.7435e-06
6.72538e-06
6.70336e-06
6.6773e-06
6.64771e-06
6.61562e-06
6.58236e-06
6.55013e-06
6.5227e-06
6.50588e-06
6.50592e-06
6.52283e-06
6.55047e-06
6.583e-06
6.61645e-06
6.64843e-06
6.67766e-06
6.70347e-06
6.72561e-06
6.74403e-06
6.75885e-06
6.77025e-06
6.77851e-06
6.78453e-06
6.79524e-06
6.72296e-06
6.71457e-06
6.7079e-06
6.70084e-06
6.69105e-06
6.67815e-06
6.66197e-06
6.64235e-06
6.6195e-06
6.59398e-06
6.56639e-06
6.53761e-06
6.50944e-06
6.4852e-06
6.47013e-06
6.47014e-06
6.48516e-06
6.50936e-06
6.53753e-06
6.5664e-06
6.59412e-06
6.61962e-06
6.64231e-06
6.66189e-06
6.67824e-06
6.69141e-06
6.70155e-06
6.70891e-06
6.71416e-06
6.72282e-06
6.6612e-06
6.65289e-06
6.64849e-06
6.64257e-06
6.63364e-06
6.62204e-06
6.60783e-06
6.59106e-06
6.57177e-06
6.5501e-06
6.52636e-06
6.50136e-06
6.47672e-06
6.4553e-06
6.44183e-06
6.44185e-06
6.45519e-06
6.4763e-06
6.50067e-06
6.52566e-06
6.54973e-06
6.57192e-06
6.59166e-06
6.60866e-06
6.62283e-06
6.63422e-06
6.64302e-06
6.64946e-06
6.65402e-06
6.661e-06
6.60735e-06
6.60227e-06
6.59906e-06
6.59325e-06
6.58514e-06
6.57495e-06
6.56303e-06
6.54903e-06
6.5327e-06
6.51407e-06
6.49352e-06
6.47189e-06
6.45061e-06
6.43209e-06
6.42032e-06
6.42046e-06
6.43234e-06
6.45076e-06
6.47179e-06
6.49326e-06
6.51385e-06
6.53277e-06
6.54955e-06
6.564e-06
6.57606e-06
6.58583e-06
6.59347e-06
6.59916e-06
6.60321e-06
6.60877e-06
6.5637e-06
6.56099e-06
6.55741e-06
6.55211e-06
6.54508e-06
6.53664e-06
6.52659e-06
6.51452e-06
6.50039e-06
6.48438e-06
6.46686e-06
6.44855e-06
6.43064e-06
6.41492e-06
6.4046e-06
6.40468e-06
6.41516e-06
6.43103e-06
6.44894e-06
6.46702e-06
6.48427e-06
6.50013e-06
6.51426e-06
6.52651e-06
6.53684e-06
6.54532e-06
6.55205e-06
6.55711e-06
6.56064e-06
6.56479e-06
6.52748e-06
6.52474e-06
6.52157e-06
6.5174e-06
6.51173e-06
6.50469e-06
6.49582e-06
6.48525e-06
6.4732e-06
6.45978e-06
6.44522e-06
6.43011e-06
6.41526e-06
6.4019e-06
6.39273e-06
6.39267e-06
6.40173e-06