/*--------------------------------*- C++ -*----------------------------------*\
| =========                 |                                                 |
| \\      /  F ield         | OpenFOAM: The Open Source CFD Toolbox           |
|  \\    /   O peration     | Version:  2312                                  |
|   \\  /    A nd           | Website:  www.openfoam.com                      |
|    \\/     M anipulation  |                                                 |
\*---------------------------------------------------------------------------*/
FoamFile
{
    version     2.0;
    format      ascii;
    arch        "LSB;label=32;scalar=64";
    class       volScalarField;
    location    "0.303149";
    object      p;
}
// * * * * * * * * * * * * * * * * * * * * * * * * * * * * * * * * * * * * * //

dimensions      [1 -1 -2 0 0 0 0];

internalField   nonuniform List<scalar> 
90000
(
4861.75
4861.75
4861.75
4861.75
4861.75
4861.75
4861.75
4861.75
4861.75
4861.75
4861.75
4861.75
4861.75
4861.75
4861.75
4861.74
4861.74
4861.74
4861.74
4861.74
4861.74
4861.74
4861.74
4861.74
4861.74
4861.74
4861.74
4861.74
4861.74
4861.74
4763.65
4763.65
4763.65
4763.65
4763.65
4763.65
4763.65
4763.65
4763.65
4763.65
4763.65
4763.65
4763.65
4763.64
4763.64
4763.64
4763.64
4763.64
4763.64
4763.64
4763.64
4763.64
4763.64
4763.64
4763.64
4763.64
4763.64
4763.64
4763.64
4763.64
4665.55
4665.55
4665.55
4665.55
4665.55
4665.55
4665.55
4665.54
4665.54
4665.54
4665.54
4665.54
4665.54
4665.54
4665.54
4665.54
4665.54
4665.54
4665.54
4665.54
4665.54
4665.54
4665.54
4665.54
4665.54
4665.54
4665.54
4665.54
4665.54
4665.54
4567.44
4567.44
4567.44
4567.44
4567.44
4567.44
4567.44
4567.44
4567.44
4567.44
4567.44
4567.44
4567.44
4567.44
4567.44
4567.44
4567.44
4567.44
4567.44
4567.44
4567.44
4567.44
4567.44
4567.44
4567.44
4567.44
4567.44
4567.44
4567.44
4567.44
4469.34
4469.34
4469.34
4469.34
4469.34
4469.34
4469.34
4469.34
4469.34
4469.34
4469.34
4469.34
4469.34
4469.34
4469.34
4469.34
4469.34
4469.34
4469.34
4469.34
4469.34
4469.34
4469.34
4469.34
4469.34
4469.34
4469.34
4469.33
4469.33
4469.33
4371.24
4371.24
4371.24
4371.24
4371.24
4371.24
4371.24
4371.24
4371.24
4371.24
4371.24
4371.24
4371.24
4371.24
4371.24
4371.24
4371.24
4371.24
4371.24
4371.24
4371.24
4371.24
4371.24
4371.23
4371.23
4371.23
4371.23
4371.23
4371.23
4371.23
4273.14
4273.14
4273.14
4273.14
4273.14
4273.14
4273.14
4273.14
4273.13
4273.13
4273.13
4273.13
4273.13
4273.13
4273.13
4273.13
4273.13
4273.13
4273.13
4273.13
4273.13
4273.13
4273.13
4273.13
4273.13
4273.13
4273.13
4273.13
4273.13
4273.13
4175.03
4175.03
4175.03
4175.03
4175.03
4175.03
4175.03
4175.03
4175.03
4175.03
4175.03
4175.03
4175.03
4175.03
4175.03
4175.03
4175.03
4175.03
4175.03
4175.03
4175.03
4175.03
4175.03
4175.03
4175.03
4175.03
4175.03
4175.03
4175.03
4175.03
4076.93
4076.93
4076.93
4076.93
4076.93
4076.93
4076.93
4076.93
4076.93
4076.93
4076.93
4076.93
4076.93
4076.93
4076.93
4076.93
4076.93
4076.93
4076.93
4076.93
4076.93
4076.93
4076.93
4076.93
4076.93
4076.93
4076.93
4076.93
4076.93
4076.93
3978.83
3978.83
3978.83
3978.83
3978.83
3978.83
3978.83
3978.82
3978.82
3978.82
3978.82
3978.82
3978.82
3978.82
3978.82
3978.82
3978.82
3978.82
3978.82
3978.82
3978.82
3978.82
3978.82
3978.82
3978.82
3978.83
3978.83
3978.83
3978.83
3978.83
3880.72
3880.72
3880.72
3880.72
3880.72
3880.72
3880.72
3880.72
3880.72
3880.72
3880.72
3880.72
3880.72
3880.72
3880.72
3880.72
3880.72
3880.72
3880.72
3880.72
3880.72
3880.72
3880.72
3880.72
3880.72
3880.72
3880.72
3880.72
3880.72
3880.72
3782.61
3782.61
3782.61
3782.61
3782.61
3782.61
3782.61
3782.61
3782.61
3782.61
3782.61
3782.61
3782.61
3782.61
3782.61
3782.61
3782.61
3782.61
3782.61
3782.61
3782.61
3782.62
3782.62
3782.62
3782.62
3782.62
3782.62
3782.62
3782.62
3782.62
3684.51
3684.51
3684.51
3684.51
3684.51
3684.51
3684.51
3684.51
3684.51
3684.51
3684.51
3684.51
3684.51
3684.51
3684.51
3684.51
3684.51
3684.51
3684.51
3684.51
3684.51
3684.51
3684.51
3684.51
3684.51
3684.51
3684.51
3684.51
3684.51
3684.51
3586.4
3586.4
3586.4
3586.4
3586.4
3586.4
3586.4
3586.4
3586.4
3586.4
3586.4
3586.4
3586.4
3586.4
3586.4
3586.4
3586.4
3586.4
3586.4
3586.4
3586.4
3586.4
3586.4
3586.4
3586.4
3586.4
3586.4
3586.4
3586.4
3586.4
3488.29
3488.29
3488.29
3488.29
3488.29
3488.29
3488.3
3488.3
3488.3
3488.3
3488.3
3488.3
3488.3
3488.3
3488.3
3488.3
3488.3
3488.3
3488.3
3488.3
3488.3
3488.3
3488.3
3488.3
3488.3
3488.3
3488.3
3488.3
3488.3
3488.3
3390.19
3390.19
3390.19
3390.19
3390.19
3390.19
3390.19
3390.19
3390.19
3390.19
3390.19
3390.19
3390.19
3390.19
3390.19
3390.19
3390.19
3390.19
3390.19
3390.19
3390.19
3390.19
3390.19
3390.19
3390.19
3390.19
3390.19
3390.19
3390.19
3390.19
3292.08
3292.08
3292.08
3292.08
3292.08
3292.09
3292.08
3292.08
3292.08
3292.08
3292.08
3292.08
3292.08
3292.08
3292.08
3292.08
3292.08
3292.08
3292.08
3292.08
3292.08
3292.08
3292.08
3292.08
3292.08
3292.09
3292.09
3292.09
3292.09
3292.09
3193.98
3193.98
3193.98
3193.98
3193.98
3193.98
3193.98
3193.98
3193.98
3193.98
3193.98
3193.98
3193.98
3193.98
3193.98
3193.98
3193.97
3193.97
3193.97
3193.97
3193.98
3193.98
3193.98
3193.98
3193.98
3193.98
3193.98
3193.98
3193.98
3193.98
3095.88
3095.88
3095.88
3095.88
3095.88
3095.88
3095.87
3095.87
3095.87
3095.87
3095.87
3095.87
3095.87
3095.87
3095.87
3095.87
3095.87
3095.87
3095.87
3095.87
3095.87
3095.87
3095.87
3095.87
3095.87
3095.88
3095.88
3095.88
3095.88
3095.88
2997.77
2997.77
2997.77
2997.77
2997.77
2997.77
2997.77
2997.77
2997.76
2997.76
2997.76
2997.76
2997.76
2997.76
2997.76
2997.76
2997.76
2997.76
2997.76
2997.76
2997.76
2997.76
2997.77
2997.77
2997.77
2997.77
2997.77
2997.77
2997.77
2997.77
2899.67
2899.67
2899.67
2899.67
2899.67
2899.66
2899.66
2899.66
2899.66
2899.65
2899.65
2899.65
2899.65
2899.65
2899.65
2899.65
2899.65
2899.65
2899.65
2899.65
2899.66
2899.66
2899.66
2899.66
2899.67
2899.67
2899.67
2899.67
2899.67
2899.67
2801.57
2801.57
2801.56
2801.56
2801.56
2801.56
2801.55
2801.55
2801.55
2801.55
2801.54
2801.54
2801.54
2801.54
2801.54
2801.54
2801.54
2801.54
2801.55
2801.55
2801.55
2801.55
2801.56
2801.56
2801.56
2801.56
2801.57
2801.57
2801.57
2801.57
2703.46
2703.46
2703.46
2703.46
2703.45
2703.45
2703.45
2703.44
2703.44
2703.44
2703.44
2703.43
2703.43
2703.43
2703.43
2703.43
2703.43
2703.43
2703.44
2703.44
2703.44
2703.45
2703.45
2703.45
2703.46
2703.46
2703.46
2703.46
2703.47
2703.47
2605.36
2605.36
2605.36
2605.35
2605.35
2605.35
2605.34
2605.34
2605.33
2605.33
2605.33
2605.32
2605.32
2605.32
2605.32
2605.32
2605.32
2605.32
2605.33
2605.33
2605.33
2605.34
2605.34
2605.35
2605.35
2605.36
2605.36
2605.36
2605.36
2605.36
2507.26
2507.26
2507.25
2507.25
2507.25
2507.24
2507.24
2507.23
2507.23
2507.22
2507.22
2507.21
2507.21
2507.21
2507.21
2507.21
2507.21
2507.21
2507.22
2507.22
2507.23
2507.23
2507.24
2507.24
2507.25
2507.25
2507.26
2507.26
2507.26
2507.26
2409.16
2409.16
2409.15
2409.15
2409.14
2409.14
2409.13
2409.12
2409.12
2409.11
2409.11
2409.1
2409.1
2409.1
2409.1
2409.1
2409.1
2409.1
2409.11
2409.11
2409.12
2409.12
2409.13
2409.14
2409.14
2409.15
2409.15
2409.16
2409.16
2409.16
2311.06
2311.06
2311.06
2311.05
2311.04
2311.04
2311.03
2311.02
2311.01
2311
2311
2310.99
2310.99
2310.98
2310.98
2310.98
2310.98
2310.99
2310.99
2311
2311.01
2311.01
2311.02
2311.03
2311.04
2311.05
2311.06
2311.06
2311.06
2311.07
2212.97
2212.97
2212.96
2212.95
2212.95
2212.94
2212.93
2212.91
2212.9
2212.89
2212.89
2212.88
2212.87
2212.87
2212.87
2212.87
2212.87
2212.87
2212.88
2212.89
2212.9
2212.91
2212.92
2212.93
2212.94
2212.95
2212.96
2212.97
2212.97
2212.97
2114.88
2114.88
2114.87
2114.86
2114.85
2114.84
2114.83
2114.81
2114.8
2114.78
2114.77
2114.76
2114.76
2114.75
2114.75
2114.75
2114.75
2114.76
2114.77
2114.78
2114.79
2114.8
2114.82
2114.83
2114.84
2114.86
2114.87
2114.88
2114.88
2114.89
2016.8
2016.8
2016.79
2016.78
2016.76
2016.75
2016.73
2016.71
2016.69
2016.68
2016.66
2016.65
2016.64
2016.63
2016.63
2016.63
2016.63
2016.64
2016.65
2016.66
2016.68
2016.7
2016.71
2016.73
2016.75
2016.77
2016.78
2016.79
2016.8
2016.81
1918.73
1918.72
1918.71
1918.7
1918.68
1918.66
1918.63
1918.61
1918.59
1918.57
1918.55
1918.53
1918.52
1918.51
1918.5
1918.51
1918.51
1918.52
1918.53
1918.55
1918.57
1918.59
1918.62
1918.64
1918.66
1918.68
1918.7
1918.72
1918.73
1918.73
1820.66
1820.66
1820.65
1820.63
1820.6
1820.57
1820.55
1820.51
1820.48
1820.46
1820.43
1820.41
1820.39
1820.38
1820.38
1820.38
1820.38
1820.4
1820.41
1820.43
1820.46
1820.49
1820.52
1820.55
1820.58
1820.61
1820.63
1820.65
1820.66
1820.67
1722.62
1722.61
1722.59
1722.57
1722.54
1722.5
1722.46
1722.42
1722.38
1722.35
1722.31
1722.29
1722.26
1722.25
1722.24
1722.24
1722.25
1722.27
1722.29
1722.32
1722.35
1722.39
1722.43
1722.47
1722.5
1722.54
1722.57
1722.6
1722.61
1722.62
1624.58
1624.57
1624.55
1624.52
1624.48
1624.43
1624.39
1624.33
1624.28
1624.24
1624.19
1624.16
1624.13
1624.11
1624.1
1624.1
1624.11
1624.13
1624.16
1624.2
1624.24
1624.29
1624.34
1624.39
1624.44
1624.49
1624.53
1624.56
1624.58
1624.59
1526.57
1526.56
1526.53
1526.49
1526.44
1526.38
1526.32
1526.25
1526.19
1526.13
1526.07
1526.03
1525.99
1525.96
1525.95
1525.95
1525.97
1525.99
1526.03
1526.08
1526.13
1526.19
1526.26
1526.32
1526.39
1526.45
1526.5
1526.54
1526.57
1526.58
1428.59
1428.57
1428.54
1428.49
1428.42
1428.35
1428.27
1428.18
1428.1
1428.02
1427.95
1427.89
1427.84
1427.81
1427.79
1427.79
1427.81
1427.84
1427.89
1427.95
1428.02
1428.1
1428.19
1428.27
1428.35
1428.43
1428.49
1428.55
1428.58
1428.6
1330.65
1330.63
1330.58
1330.51
1330.43
1330.33
1330.23
1330.12
1330.02
1329.91
1329.82
1329.75
1329.68
1329.64
1329.62
1329.62
1329.64
1329.69
1329.75
1329.83
1329.92
1330.02
1330.13
1330.24
1330.34
1330.44
1330.52
1330.59
1330.63
1330.66
1232.75
1232.72
1232.66
1232.58
1232.48
1232.35
1232.22
1232.08
1231.95
1231.82
1231.7
1231.6
1231.52
1231.47
1231.44
1231.44
1231.47
1231.52
1231.6
1231.7
1231.82
1231.95
1232.09
1232.23
1232.36
1232.48
1232.59
1232.67
1232.73
1232.76
1134.91
1134.87
1134.8
1134.7
1134.57
1134.41
1134.25
1134.07
1133.9
1133.73
1133.58
1133.46
1133.36
1133.29
1133.25
1133.25
1133.29
1133.36
1133.46
1133.58
1133.73
1133.9
1134.07
1134.25
1134.42
1134.57
1134.71
1134.81
1134.88
1134.92
1037.14
1037.1
1037.01
1036.88
1036.72
1036.53
1036.32
1036.1
1035.88
1035.67
1035.48
1035.32
1035.19
1035.11
1035.06
1035.06
1035.1
1035.19
1035.32
1035.48
1035.67
1035.88
1036.1
1036.32
1036.53
1036.72
1036.89
1037.02
1037.11
1037.15
939.466
939.412
939.304
939.148
938.949
938.715
938.457
938.186
937.913
937.652
937.413
937.209
937.047
936.935
936.877
936.876
936.933
937.044
937.205
937.409
937.647
937.909
938.183
938.456
938.716
938.952
939.153
939.312
939.421
939.476
841.897
841.832
841.705
841.519
841.281
841
840.687
840.355
840.019
839.695
839.398
839.141
838.937
838.795
838.723
838.722
838.794
838.934
839.137
839.393
839.69
840.014
840.35
840.683
840.997
841.281
841.522
841.711
841.84
841.906
744.456
744.382
744.235
744.02
743.742
743.412
743.04
742.642
742.236
741.84
741.473
741.155
740.9
740.723
740.632
740.632
740.722
740.898
741.151
741.469
741.834
742.23
742.636
743.034
743.407
743.74
744.02
744.238
744.387
744.463
647.162
647.08
646.918
646.678
646.366
645.989
645.56
645.095
644.615
644.14
643.695
643.306
642.993
642.773
642.66
642.66
642.773
642.992
643.304
643.692
644.136
644.61
645.09
645.554
645.984
646.362
646.677
646.919
647.083
647.166
550.03
549.945
549.776
549.522
549.187
548.776
548.301
547.776
547.225
546.674
546.143
545.679
545.301
545.033
544.895
544.894
545.033
545.3
545.678
546.141
546.672
547.222
547.772
548.296
548.772
549.183
549.519
549.775
549.946
550.032
453.07
452.989
452.826
452.579
452.245
451.824
451.327
450.764
450.161
449.542
448.941
448.401
447.955
447.636
447.47
447.47
447.636
447.954
448.4
448.94
449.54
450.158
450.761
451.324
451.82
452.242
452.577
452.824
452.988
453.069
356.266
356.2
356.067
355.861
355.568
355.182
354.704
354.141
353.525
352.873
352.221
351.623
351.12
350.755
350.563
350.563
350.755
351.12
351.622
352.22
352.871
353.523
354.138
354.701
355.178
355.565
355.858
356.065
356.198
356.265
259.565
259.527
259.455
259.347
259.161
258.875
258.494
258.019
257.458
256.831
256.174
255.567
255.046
254.653
254.442
254.442
254.653
255.046
255.567
256.174
256.83
257.456
258.017
258.491
258.872
259.158
259.344
259.453
259.525
259.563
162.98
162.967
162.978
163.038
163.044
162.943
162.771
162.523
162.172
161.748
161.264
160.765
160.307
159.948
159.753
159.753
159.949
160.308
160.765
161.264
161.748
162.171
162.521
162.769
162.941
163.041
163.032
162.975
162.965
162.976
66.8906
66.9635
67.084
67.2106
67.3709
67.5459
67.809
68.1036
68.3423
68.5555
68.7057
68.7892
68.8148
68.8119
68.8125
68.8123
68.8113
68.8153
68.7898
68.7055
68.5548
68.3412
68.1024
67.8076
67.5438
67.3707
67.2126
67.0837
66.9634
66.8913
6.64734
6.69001
6.77487
6.89931
7.06909
7.2799
7.53059
7.82535
8.15031
8.49966
8.84154
9.15518
9.41494
9.60458
9.7146
9.71438
9.60425
9.41468
9.15503
8.84127
8.49935
8.15014
7.82442
7.53032
7.28057
7.06887
6.89967
6.77516
6.69035
6.64769
-5.11626
-5.11719
-5.11836
-5.12016
-5.12207
-5.1245
-5.12788
-5.13146
-5.13466
-5.13723
-5.14042
-5.14093
-5.14072
-5.14063
-5.14003
-5.13997
-5.14047
-5.14046
-5.14056
-5.13996
-5.13672
-5.1341
-5.1309
-5.12733
-5.12402
-5.12171
-5.11986
-5.11809
-5.11693
-5.11597
-5.21771
-5.21864
-5.21993
-5.22191
-5.22426
-5.22692
-5.22997
-5.23347
-5.23603
-5.23756
-5.23702
-5.23584
-5.23479
-5.23433
-5.2333
-5.23325
-5.23417
-5.23451
-5.23543
-5.23653
-5.23704
-5.23547
-5.23291
-5.22942
-5.22645
-5.22387
-5.2216
-5.21967
-5.21838
-5.21747
-5.31353
-5.31414
-5.31514
-5.31652
-5.31811
-5.31993
-5.3222
-5.32505
-5.3281
-5.33118
-5.33405
-5.3357
-5.33571
-5.33514
-5.33344
-5.3334
-5.33501
-5.33548
-5.33541
-5.33369
-5.33073
-5.32759
-5.3245
-5.32167
-5.31948
-5.31774
-5.31621
-5.31486
-5.31389
-5.31327
-5.40801
-5.40836
-5.40901
-5.40989
-5.41089
-5.41195
-5.41309
-5.41437
-5.41579
-5.4177
-5.42069
-5.42416
-5.42662
-5.42861
-5.42976
-5.42972
-5.4285
-5.42645
-5.42393
-5.42037
-5.41727
-5.41528
-5.41384
-5.41259
-5.41151
-5.41053
-5.40958
-5.40874
-5.4081
-5.40774
-5.50195
-5.50215
-5.50256
-5.50312
-5.50378
-5.50447
-5.50515
-5.50579
-5.50623
-5.50656
-5.50734
-5.50854
-5.50983
-5.51161
-5.51319
-5.51316
-5.5115
-5.50965
-5.50828
-5.50698
-5.50611
-5.50573
-5.50529
-5.50469
-5.50408
-5.50344
-5.50282
-5.50229
-5.50188
-5.50166
-5.5956
-5.5957
-5.59596
-5.59631
-5.59673
-5.59722
-5.59762
-5.59805
-5.59852
-5.59889
-5.59891
-5.5986
-5.59797
-5.59796
-5.5981
-5.59806
-5.59783
-5.59775
-5.5983
-5.59853
-5.59845
-5.59805
-5.5976
-5.59721
-5.59685
-5.59641
-5.59601
-5.59567
-5.59542
-5.59532
-5.68913
-5.68914
-5.6893
-5.68944
-5.68961
-5.68976
-5.69001
-5.69023
-5.69043
-5.69057
-5.69057
-5.6905
-5.69049
-5.68987
-5.68933
-5.68929
-5.68975
-5.69029
-5.69022
-5.69023
-5.69019
-5.69004
-5.68985
-5.68966
-5.68943
-5.6893
-5.68915
-5.68901
-5.68888
-5.68887
-5.78248
-5.78253
-5.78253
-5.78258
-5.78262
-5.78263
-5.78263
-5.78262
-5.78256
-5.78247
-5.7823
-5.7821
-5.78187
-5.78151
-5.7812
-5.78117
-5.78141
-5.7817
-5.78187
-5.78203
-5.78216
-5.78224
-5.78229
-5.78231
-5.78231
-5.78232
-5.7823
-5.78227
-5.78229
-5.78225
-5.8761
-5.87606
-5.876
-5.87592
-5.8758
-5.87564
-5.87544
-5.87522
-5.87496
-5.87466
-5.87434
-5.874
-5.87367
-5.87337
-5.87315
-5.87312
-5.87328
-5.87353
-5.8738
-5.8741
-5.87438
-5.87465
-5.87491
-5.87513
-5.87533
-5.87551
-5.87565
-5.87576
-5.87585
-5.87589
-5.96986
-5.96978
-5.96964
-5.96943
-5.96916
-5.96884
-5.96847
-5.96806
-5.96762
-5.96715
-5.96667
-5.96622
-5.96582
-5.96551
-5.96531
-5.96529
-5.96543
-5.96569
-5.96604
-5.96645
-5.9669
-5.96734
-5.96778
-5.96819
-5.96858
-5.96892
-5.96921
-5.96944
-5.9696
-5.96969
-6.06383
-6.06372
-6.0635
-6.06319
-6.0628
-6.06233
-6.0618
-6.06124
-6.06064
-6.06002
-6.05942
-6.05886
-6.05839
-6.05804
-6.05784
-6.05781
-6.05797
-6.05828
-6.05871
-6.05923
-6.05981
-6.06041
-6.06101
-6.06159
-6.06213
-6.06261
-6.06302
-6.06334
-6.06357
-6.06368
-6.15804
-6.15791
-6.15764
-6.15725
-6.15676
-6.15618
-6.15553
-6.15483
-6.1541
-6.15337
-6.15266
-6.15203
-6.1515
-6.15111
-6.1509
-6.15088
-6.15106
-6.15141
-6.15192
-6.15253
-6.15322
-6.15394
-6.15467
-6.15537
-6.15603
-6.15662
-6.15711
-6.1575
-6.15777
-6.1579
-6.25252
-6.25237
-6.25207
-6.25164
-6.25108
-6.25043
-6.24969
-6.2489
-6.24808
-6.24727
-6.2465
-6.24581
-6.24524
-6.24483
-6.24461
-6.2446
-6.2448
-6.24518
-6.24573
-6.24641
-6.24717
-6.24798
-6.24879
-6.24957
-6.25031
-6.25096
-6.25151
-6.25194
-6.25223
-6.25237
-6.34726
-6.34711
-6.3468
-6.34635
-6.34576
-6.34507
-6.34429
-6.34345
-6.34259
-6.34173
-6.34093
-6.34021
-6.33963
-6.33921
-6.339
-6.33899
-6.3392
-6.3396
-6.34017
-6.34087
-6.34167
-6.34251
-6.34337
-6.3442
-6.34496
-6.34565
-6.34622
-6.34667
-6.34697
-6.34712
-6.4423
-6.44214
-6.44183
-6.44138
-6.44079
-6.44009
-6.43931
-6.43846
-6.43759
-6.43673
-6.43593
-6.43522
-6.43464
-6.43423
-6.43402
-6.43401
-6.43422
-6.43462
-6.43519
-6.43589
-6.43668
-6.43753
-6.43839
-6.43922
-6.44
-6.44069
-6.44126
-6.44171
-6.44201
-6.44216
-6.53763
-6.53747
-6.53717
-6.53673
-6.53616
-6.53548
-6.53471
-6.53389
-6.53305
-6.53222
-6.53144
-6.53075
-6.5302
-6.52981
-6.5296
-6.5296
-6.5298
-6.53018
-6.53073
-6.53141
-6.53217
-6.533
-6.53383
-6.53464
-6.53539
-6.53606
-6.53663
-6.53706
-6.53736
-6.53751
-6.63325
-6.6331
-6.63282
-6.63239
-6.63185
-6.63121
-6.63049
-6.62971
-6.62891
-6.62813
-6.6274
-6.62676
-6.62624
-6.62587
-6.62568
-6.62568
-6.62586
-6.62622
-6.62673
-6.62737
-6.62809
-6.62887
-6.62965
-6.63042
-6.63114
-6.63178
-6.63231
-6.63273
-6.63301
-6.63315
-6.72917
-6.72903
-6.72876
-6.72837
-6.72787
-6.72727
-6.7266
-6.72588
-6.72514
-6.72442
-6.72375
-6.72316
-6.72268
-6.72235
-6.72218
-6.72217
-6.72234
-6.72267
-6.72314
-6.72372
-6.72439
-6.7251
-6.72583
-6.72654
-6.72721
-6.7278
-6.72831
-6.72869
-6.72896
-6.7291
-6.82537
-6.82524
-6.825
-6.82464
-6.82418
-6.82363
-6.82301
-6.82236
-6.82169
-6.82103
-6.82043
-6.81989
-6.81947
-6.81917
-6.81901
-6.81901
-6.81916
-6.81945
-6.81988
-6.8204
-6.82101
-6.82166
-6.82232
-6.82297
-6.82358
-6.82413
-6.82459
-6.82495
-6.8252
-6.82532
-6.92184
-6.92172
-6.9215
-6.92117
-6.92075
-6.92026
-6.91971
-6.91912
-6.91852
-6.91793
-6.91739
-6.91692
-6.91654
-6.91627
-6.91613
-6.91613
-6.91626
-6.91653
-6.9169
-6.91737
-6.91791
-6.9185
-6.9191
-6.91968
-6.92023
-6.92073
-6.92115
-6.92147
-6.9217
-6.92181
-7.01855
-7.01844
-7.01824
-7.01795
-7.01758
-7.01713
-7.01664
-7.01612
-7.01559
-7.01507
-7.01459
-7.01417
-7.01384
-7.01361
-7.01349
-7.01349
-7.0136
-7.01384
-7.01417
-7.01459
-7.01506
-7.01558
-7.01611
-7.01664
-7.01713
-7.01757
-7.01795
-7.01824
-7.01844
-7.01855
-7.11548
-7.11539
-7.11521
-7.11495
-7.11462
-7.11423
-7.11379
-7.11333
-7.11286
-7.11241
-7.11199
-7.11163
-7.11134
-7.11114
-7.11103
-7.11103
-7.11114
-7.11134
-7.11163
-7.112
-7.11242
-7.11287
-7.11334
-7.1138
-7.11424
-7.11463
-7.11496
-7.11523
-7.1154
-7.1155
-7.2126
-7.21252
-7.21236
-7.21213
-7.21184
-7.2115
-7.21112
-7.21072
-7.21032
-7.20992
-7.20956
-7.20925
-7.209
-7.20882
-7.20873
-7.20873
-7.20883
-7.209
-7.20926
-7.20958
-7.20994
-7.21034
-7.21075
-7.21115
-7.21154
-7.21188
-7.21217
-7.2124
-7.21256
-7.21264
-7.3099
-7.30982
-7.30969
-7.30949
-7.30924
-7.30894
-7.30861
-7.30827
-7.30792
-7.30758
-7.30726
-7.30699
-7.30678
-7.30663
-7.30656
-7.30656
-7.30664
-7.3068
-7.30702
-7.30729
-7.30761
-7.30795
-7.30831
-7.30866
-7.30899
-7.30929
-7.30955
-7.30975
-7.30989
-7.30996
-7.40734
-7.40728
-7.40716
-7.40699
-7.40677
-7.40652
-7.40623
-7.40594
-7.40564
-7.40535
-7.40508
-7.40485
-7.40467
-7.40454
-7.40448
-7.40449
-7.40456
-7.40469
-7.40488
-7.40512
-7.40539
-7.40569
-7.406
-7.4063
-7.40659
-7.40685
-7.40707
-7.40725
-7.40737
-7.40743
-7.50491
-7.50486
-7.50476
-7.50461
-7.50443
-7.50421
-7.50397
-7.50371
-7.50346
-7.50321
-7.50299
-7.50279
-7.50264
-7.50254
-7.50248
-7.50249
-7.50255
-7.50267
-7.50283
-7.50303
-7.50327
-7.50352
-7.50379
-7.50405
-7.5043
-7.50452
-7.50471
-7.50486
-7.50497
-7.50502
-7.60259
-7.60255
-7.60246
-7.60234
-7.60218
-7.602
-7.60179
-7.60158
-7.60136
-7.60115
-7.60096
-7.6008
-7.60067
-7.60059
-7.60055
-7.60055
-7.60061
-7.60071
-7.60085
-7.60102
-7.60122
-7.60144
-7.60167
-7.60189
-7.6021
-7.6023
-7.60246
-7.60259
-7.60268
-7.60273
-7.70037
-7.70033
-7.70026
-7.70016
-7.70002
-7.69987
-7.69969
-7.69951
-7.69933
-7.69916
-7.699
-7.69886
-7.69876
-7.69869
-7.69866
-7.69866
-7.69871
-7.6988
-7.69892
-7.69907
-7.69924
-7.69942
-7.69962
-7.69981
-7.69999
-7.70016
-7.7003
-7.70041
-7.70048
-7.70052
-7.79823
-7.7982
-7.79814
-7.79805
-7.79793
-7.7978
-7.79766
-7.79751
-7.79736
-7.79721
-7.79708
-7.79697
-7.79688
-7.79683
-7.7968
-7.79681
-7.79685
-7.79693
-7.79703
-7.79716
-7.7973
-7.79746
-7.79763
-7.79779
-7.79794
-7.79809
-7.79821
-7.7983
-7.79836
-7.7984
-7.89615
-7.89613
-7.89607
-7.896
-7.89591
-7.8958
-7.89568
-7.89555
-7.89543
-7.89531
-7.8952
-7.89511
-7.89504
-7.89499
-7.89497
-7.89498
-7.89502
-7.89508
-7.89517
-7.89528
-7.89541
-7.89554
-7.89568
-7.89582
-7.89595
-7.89607
-7.89617
-7.89625
-7.89631
-7.89634
-7.99413
-7.99411
-7.99407
-7.99401
-7.99393
-7.99384
-7.99374
-7.99363
-7.99353
-7.99343
-7.99334
-7.99327
-7.99321
-7.99318
-7.99316
-7.99317
-7.99321
-7.99326
-7.99334
-7.99343
-7.99354
-7.99366
-7.99377
-7.99389
-7.99401
-7.99411
-7.99419
-7.99426
-7.99431
-7.99433
-8.09216
-8.09214
-8.0921
-8.09205
-8.09199
-8.09191
-8.09183
-8.09175
-8.09166
-8.09158
-8.09151
-8.09145
-8.09141
-8.09138
-8.09137
-8.09138
-8.09141
-8.09146
-8.09153
-8.09161
-8.0917
-8.0918
-8.0919
-8.092
-8.09209
-8.09218
-8.09225
-8.09231
-8.09235
-8.09237
-8.19022
-8.1902
-8.19018
-8.19013
-8.19008
-8.19002
-8.18995
-8.18988
-8.18982
-8.18975
-8.18969
-8.18965
-8.18961
-8.18959
-8.18959
-8.1896
-8.18963
-8.18967
-8.18973
-8.1898
-8.18987
-8.18996
-8.19004
-8.19013
-8.19021
-8.19028
-8.19034
-8.19039
-8.19043
-8.19044
-8.28831
-8.2883
-8.28828
-8.28824
-8.2882
-8.28815
-8.2881
-8.28804
-8.28799
-8.28793
-8.28789
-8.28785
-8.28783
-8.28781
-8.28781
-8.28782
-8.28785
-8.28789
-8.28793
-8.28799
-8.28806
-8.28813
-8.28821
-8.28828
-8.28835
-8.28841
-8.28846
-8.2885
-8.28853
-8.28854
-8.38643
-8.38642
-8.3864
-8.38637
-8.38634
-8.3863
-8.38626
-8.38621
-8.38617
-8.38613
-8.38609
-8.38606
-8.38604
-8.38603
-8.38604
-8.38605
-8.38607
-8.38611
-8.38615
-8.3862
-8.38626
-8.38632
-8.38638
-8.38644
-8.3865
-8.38655
-8.3866
-8.38663
-8.38665
-8.38666
-8.48456
-8.48456
-8.48454
-8.48452
-8.48449
-8.48446
-8.48443
-8.48439
-8.48436
-8.48433
-8.4843
-8.48428
-8.48427
-8.48426
-8.48426
-8.48428
-8.4843
-8.48433
-8.48437
-8.48441
-8.48446
-8.48451
-8.48456
-8.48462
-8.48466
-8.48471
-8.48475
-8.48477
-8.48479
-8.4848
-8.58272
-8.58271
-8.5827
-8.58268
-8.58266
-8.58264
-8.58261
-8.58258
-8.58256
-8.58253
-8.58251
-8.5825
-8.58249
-8.58249
-8.58249
-8.5825
-8.58252
-8.58255
-8.58258
-8.58262
-8.58266
-8.58271
-8.58275
-8.5828
-8.58284
-8.58287
-8.5829
-8.58293
-8.58294
-8.58295
-8.68088
-8.68087
-8.68086
-8.68085
-8.68084
-8.68082
-8.6808
-8.68078
-8.68076
-8.68074
-8.68072
-8.68071
-8.68071
-8.68071
-8.68071
-8.68073
-8.68075
-8.68077
-8.6808
-8.68083
-8.68087
-8.6809
-8.68094
-8.68098
-8.68101
-8.68104
-8.68107
-8.68109
-8.6811
-8.68111
-8.77905
-8.77904
-8.77904
-8.77903
-8.77902
-8.779
-8.77899
-8.77897
-8.77896
-8.77895
-8.77894
-8.77893
-8.77893
-8.77893
-8.77894
-8.77895
-8.77896
-8.77899
-8.77901
-8.77904
-8.77907
-8.7791
-8.77913
-8.77917
-8.77919
-8.77922
-8.77924
-8.77926
-8.77927
-8.77927
-8.87722
-8.87722
-8.87722
-8.87721
-8.8772
-8.87719
-8.87718
-8.87717
-8.87716
-8.87715
-8.87715
-8.87714
-8.87714
-8.87715
-8.87715
-8.87716
-8.87718
-8.8772
-8.87722
-8.87724
-8.87727
-8.8773
-8.87732
-8.87735
-8.87737
-8.8774
-8.87741
-8.87743
-8.87744
-8.87744
-8.97541
-8.9754
-8.9754
-8.9754
-8.97539
-8.97538
-8.97537
-8.97537
-8.97536
-8.97536
-8.97535
-8.97535
-8.97535
-8.97536
-8.97537
-8.97538
-8.97539
-8.97541
-8.97543
-8.97545
-8.97547
-8.97549
-8.97551
-8.97553
-8.97555
-8.97557
-8.97559
-8.9756
-8.97561
-8.97561
-9.07359
-9.07359
-9.07359
-9.07358
-9.07358
-9.07357
-9.07357
-9.07356
-9.07356
-9.07356
-9.07356
-9.07356
-9.07356
-9.07357
-9.07357
-9.07358
-9.07359
-9.07361
-9.07363
-9.07364
-9.07366
-9.07368
-9.0737
-9.07372
-9.07373
-9.07375
-9.07376
-9.07377
-9.07377
-9.07378
-9.17178
-9.17177
-9.17177
-9.17177
-9.17177
-9.17177
-9.17176
-9.17176
-9.17176
-9.17176
-9.17176
-9.17176
-9.17176
-9.17177
-9.17177
-9.17178
-9.17179
-9.17181
-9.17182
-9.17183
-9.17185
-9.17187
-9.17188
-9.1719
-9.17191
-9.17192
-9.17193
-9.17194
-9.17194
-9.17194
-9.26996
-9.26996
-9.26996
-9.26996
-9.26996
-9.26996
-9.26996
-9.26995
-9.26995
-9.26995
-9.26996
-9.26996
-9.26996
-9.26997
-9.26997
-9.26998
-9.26999
-9.27
-9.27001
-9.27002
-9.27004
-9.27005
-9.27006
-9.27007
-9.27008
-9.27009
-9.2701
-9.27011
-9.27011
-9.27011
-9.36815
-9.36815
-9.36815
-9.36815
-9.36815
-9.36815
-9.36815
-9.36815
-9.36815
-9.36815
-9.36815
-9.36815
-9.36816
-9.36816
-9.36817
-9.36817
-9.36818
-9.36819
-9.3682
-9.36821
-9.36822
-9.36823
-9.36824
-9.36825
-9.36825
-9.36826
-9.36827
-9.36827
-9.36827
-9.36828
-9.46634
-9.46634
-9.46634
-9.46634
-9.46634
-9.46634
-9.46634
-9.46634
-9.46634
-9.46634
-9.46634
-9.46634
-9.46635
-9.46635
-9.46636
-9.46636
-9.46637
-9.46637
-9.46638
-9.46639
-9.46639
-9.4664
-9.46641
-9.46642
-9.46642
-9.46643
-9.46643
-9.46644
-9.46644
-9.46644
-9.56453
-9.56453
-9.56453
-9.56453
-9.56453
-9.56453
-9.56453
-9.56453
-9.56453
-9.56453
-9.56453
-9.56453
-9.56454
-9.56454
-9.56454
-9.56455
-9.56455
-9.56455
-9.56456
-9.56456
-9.56457
-9.56457
-9.56458
-9.56458
-9.56459
-9.56459
-9.5646
-9.5646
-9.5646
-9.5646
-9.66272
-9.66272
-9.66272
-9.66272
-9.66272
-9.66272
-9.66272
-9.66272
-9.66272
-9.66272
-9.66272
-9.66272
-9.66272
-9.66272
-9.66273
-9.66273
-9.66273
-9.66273
-9.66274
-9.66274
-9.66274
-9.66275
-9.66275
-9.66275
-9.66275
-9.66276
-9.66276
-9.66276
-9.66276
-9.66276
-9.76091
-9.76091
-9.76091
-9.76091
-9.76091
-9.76091
-9.76091
-9.76091
-9.76091
-9.76091
-9.76091
-9.76091
-9.76091
-9.76091
-9.76091
-9.76091
-9.76091
-9.76091
-9.76091
-9.76091
-9.76091
-9.76092
-9.76092
-9.76092
-9.76092
-9.76092
-9.76092
-9.76092
-9.76092
-9.76092
4861.75
4861.75
4861.75
4861.75
4861.75
4861.75
4861.75
4861.75
4861.75
4861.75
4861.75
4861.75
4861.75
4861.75
4861.75
4861.75
4861.74
4861.74
4861.74
4861.74
4861.74
4861.74
4861.74
4861.74
4861.74
4861.74
4861.74
4861.74
4861.74
4861.74
4763.65
4763.65
4763.65
4763.65
4763.65
4763.65
4763.65
4763.65
4763.65
4763.65
4763.65
4763.65
4763.65
4763.64
4763.64
4763.64
4763.64
4763.64
4763.64
4763.64
4763.64
4763.64
4763.64
4763.64
4763.64
4763.64
4763.64
4763.64
4763.64
4763.64
4665.55
4665.55
4665.55
4665.55
4665.55
4665.55
4665.55
4665.55
4665.54
4665.54
4665.54
4665.54
4665.54
4665.54
4665.54
4665.54
4665.54
4665.54
4665.54
4665.54
4665.54
4665.54
4665.54
4665.54
4665.54
4665.54
4665.54
4665.54
4665.54
4665.54
4567.44
4567.44
4567.44
4567.44
4567.44
4567.44
4567.44
4567.44
4567.44
4567.44
4567.44
4567.44
4567.44
4567.44
4567.44
4567.44
4567.44
4567.44
4567.44
4567.44
4567.44
4567.44
4567.44
4567.44
4567.44
4567.44
4567.44
4567.44
4567.44
4567.44
4469.34
4469.34
4469.34
4469.34
4469.34
4469.34
4469.34
4469.34
4469.34
4469.34
4469.34
4469.34
4469.34
4469.34
4469.34
4469.34
4469.34
4469.34
4469.34
4469.34
4469.34
4469.34
4469.34
4469.34
4469.34
4469.34
4469.34
4469.33
4469.33
4469.33
4371.24
4371.24
4371.24
4371.24
4371.24
4371.24
4371.24
4371.24
4371.24
4371.24
4371.24
4371.24
4371.24
4371.24
4371.24
4371.24
4371.24
4371.24
4371.24
4371.24
4371.24
4371.24
4371.24
4371.23
4371.23
4371.23
4371.23
4371.23
4371.23
4371.23
4273.14
4273.14
4273.14
4273.14
4273.14
4273.14
4273.14
4273.14
4273.13
4273.13
4273.13
4273.13
4273.13
4273.13
4273.13
4273.13
4273.13
4273.13
4273.13
4273.13
4273.13
4273.13
4273.13
4273.13
4273.13
4273.13
4273.13
4273.13
4273.13
4273.13
4175.03
4175.03
4175.03
4175.03
4175.03
4175.03
4175.03
4175.03
4175.03
4175.03
4175.03
4175.03
4175.03
4175.03
4175.03
4175.03
4175.03
4175.03
4175.03
4175.03
4175.03
4175.03
4175.03
4175.03
4175.03
4175.03
4175.03
4175.03
4175.03
4175.03
4076.93
4076.93
4076.93
4076.93
4076.93
4076.93
4076.93
4076.93
4076.93
4076.93
4076.93
4076.93
4076.93
4076.93
4076.93
4076.93
4076.93
4076.93
4076.93
4076.93
4076.93
4076.93
4076.93
4076.93
4076.93
4076.93
4076.93
4076.93
4076.93
4076.93
3978.83
3978.83
3978.83
3978.83
3978.83
3978.83
3978.83
3978.82
3978.82
3978.82
3978.82
3978.82
3978.82
3978.82
3978.82
3978.82
3978.82
3978.82
3978.82
3978.82
3978.82
3978.82
3978.82
3978.82
3978.82
3978.82
3978.83
3978.83
3978.83
3978.82
3880.72
3880.72
3880.72
3880.72
3880.72
3880.72
3880.72
3880.72
3880.72
3880.72
3880.72
3880.72
3880.72
3880.72
3880.72
3880.72
3880.72
3880.72
3880.72
3880.72
3880.72
3880.72
3880.72
3880.72
3880.72
3880.72
3880.72
3880.72
3880.72
3880.72
3782.61
3782.61
3782.61
3782.61
3782.61
3782.61
3782.61
3782.61
3782.61
3782.61
3782.61
3782.61
3782.61
3782.61
3782.61
3782.61
3782.61
3782.61
3782.61
3782.61
3782.62
3782.62
3782.62
3782.62
3782.62
3782.62
3782.62
3782.62
3782.62
3782.62
3684.51
3684.51
3684.51
3684.51
3684.51
3684.51
3684.51
3684.51
3684.51
3684.51
3684.51
3684.51
3684.51
3684.51
3684.51
3684.51
3684.51
3684.51
3684.51
3684.51
3684.51
3684.51
3684.51
3684.51
3684.51
3684.51
3684.51
3684.51
3684.51
3684.51
3586.4
3586.4
3586.4
3586.4
3586.4
3586.4
3586.4
3586.4
3586.4
3586.4
3586.4
3586.4
3586.4
3586.4
3586.4
3586.4
3586.4
3586.4
3586.4
3586.4
3586.4
3586.4
3586.4
3586.4
3586.4
3586.4
3586.4
3586.4
3586.4
3586.4
3488.29
3488.29
3488.29
3488.29
3488.29
3488.29
3488.3
3488.3
3488.3
3488.3
3488.3
3488.3
3488.3
3488.3
3488.3
3488.3
3488.3
3488.3
3488.3
3488.3
3488.3
3488.3
3488.3
3488.3
3488.3
3488.3
3488.3
3488.3
3488.3
3488.3
3390.19
3390.19
3390.19
3390.19
3390.19
3390.19
3390.19
3390.19
3390.19
3390.19
3390.19
3390.19
3390.19
3390.19
3390.19
3390.19
3390.19
3390.19
3390.19
3390.19
3390.19
3390.19
3390.19
3390.19
3390.19
3390.19
3390.19
3390.19
3390.19
3390.19
3292.08
3292.08
3292.08
3292.09
3292.09
3292.09
3292.09
3292.08
3292.08
3292.08
3292.08
3292.08
3292.08
3292.08
3292.08
3292.08
3292.08
3292.08
3292.08
3292.08