/*--------------------------------*- C++ -*----------------------------------*\
| =========                 |                                                 |
| \\      /  F ield         | OpenFOAM: The Open Source CFD Toolbox           |
|  \\    /   O peration     | Version:  2312                                  |
|   \\  /    A nd           | Website:  www.openfoam.com                      |
|    \\/     M anipulation  |                                                 |
\*---------------------------------------------------------------------------*/
FoamFile
{
    version     2.0;
    format      ascii;
    arch        "LSB;label=32;scalar=64";
    class       volScalarField;
    location    "0.303149";
    object      p_rgh;
}
// * * * * * * * * * * * * * * * * * * * * * * * * * * * * * * * * * * * * * //

dimensions      [1 -1 -2 0 0 0 0];

internalField   nonuniform List<scalar> 
90000
(
4910.8
4910.79
4910.8
4910.8
4910.8
4910.8
4910.8
4910.8
4910.8
4910.8
4910.8
4910.8
4910.8
4910.8
4910.8
4910.79
4910.79
4910.79
4910.79
4910.79
4910.79
4910.79
4910.79
4910.79
4910.79
4910.79
4910.79
4910.79
4910.8
4910.8
4910.79
4910.79
4910.79
4910.79
4910.8
4910.8
4910.8
4910.8
4910.8
4910.8
4910.8
4910.8
4910.8
4910.8
4910.79
4910.79
4910.79
4910.79
4910.79
4910.79
4910.79
4910.79
4910.79
4910.79
4910.79
4910.79
4910.79
4910.8
4910.8
4910.8
4910.79
4910.79
4910.79
4910.79
4910.79
4910.79
4910.8
4910.8
4910.8
4910.8
4910.8
4910.8
4910.79
4910.79
4910.79
4910.79
4910.79
4910.79
4910.79
4910.79
4910.79
4910.79
4910.79
4910.79
4910.79
4910.79
4910.79
4910.79
4910.79
4910.79
4910.79
4910.79
4910.79
4910.79
4910.79
4910.79
4910.79
4910.79
4910.79
4910.79
4910.79
4910.79
4910.79
4910.79
4910.79
4910.79
4910.79
4910.79
4910.79
4910.79
4910.79
4910.79
4910.79
4910.79
4910.79
4910.79
4910.79
4910.79
4910.79
4910.79
4910.79
4910.79
4910.79
4910.79
4910.79
4910.79
4910.79
4910.79
4910.79
4910.79
4910.79
4910.79
4910.79
4910.79
4910.79
4910.79
4910.79
4910.79
4910.79
4910.79
4910.79
4910.79
4910.79
4910.79
4910.79
4910.79
4910.78
4910.78
4910.78
4910.78
4910.79
4910.79
4910.79
4910.79
4910.79
4910.79
4910.79
4910.79
4910.79
4910.79
4910.79
4910.79
4910.79
4910.79
4910.79
4910.79
4910.78
4910.78
4910.78
4910.79
4910.79
4910.79
4910.79
4910.79
4910.78
4910.78
4910.78
4910.77
4910.77
4910.77
4910.79
4910.79
4910.79
4910.79
4910.79
4910.78
4910.78
4910.78
4910.78
4910.78
4910.78
4910.79
4910.78
4910.78
4910.78
4910.78
4910.78
4910.78
4910.78
4910.78
4910.78
4910.78
4910.78
4910.78
4910.78
4910.77
4910.77
4910.77
4910.76
4910.77
4910.79
4910.79
4910.79
4910.78
4910.78
4910.78
4910.78
4910.78
4910.78
4910.78
4910.78
4910.78
4910.78
4910.78
4910.78
4910.78
4910.78
4910.78
4910.78
4910.78
4910.78
4910.78
4910.78
4910.77
4910.77
4910.77
4910.76
4910.76
4910.76
4910.77
4910.78
4910.79
4910.78
4910.78
4910.78
4910.78
4910.78
4910.78
4910.78
4910.77
4910.77
4910.77
4910.78
4910.78
4910.78
4910.78
4910.78
4910.78
4910.78
4910.78
4910.78
4910.77
4910.77
4910.77
4910.76
4910.76
4910.76
4910.76
4910.76
4910.77
4910.78
4910.79
4910.78
4910.78
4910.78
4910.78
4910.78
4910.78
4910.77
4910.77
4910.77
4910.77
4910.77
4910.77
4910.78
4910.78
4910.78
4910.78
4910.78
4910.78
4910.77
4910.77
4910.76
4910.76
4910.76
4910.76
4910.76
4910.76
4910.76
4910.77
4910.78
4910.79
4910.79
4910.79
4910.78
4910.78
4910.78
4910.77
4910.77
4910.77
4910.76
4910.76
4910.76
4910.77
4910.77
4910.77
4910.77
4910.77
4910.77
4910.77
4910.77
4910.77
4910.76
4910.76
4910.76
4910.76
4910.76
4910.76
4910.76
4910.77
4910.78
4910.79
4910.79
4910.79
4910.79
4910.78
4910.78
4910.77
4910.76
4910.76
4910.76
4910.75
4910.75
4910.76
4910.76
4910.76
4910.76
4910.76
4910.77
4910.77
4910.77
4910.77
4910.77
4910.77
4910.77
4910.77
4910.77
4910.77
4910.77
4910.77
4910.77
4910.79
4910.78
4910.78
4910.78
4910.78
4910.77
4910.76
4910.76
4910.75
4910.75
4910.75
4910.75
4910.75
4910.75
4910.75
4910.75
4910.76
4910.76
4910.77
4910.77
4910.78
4910.78
4910.78
4910.78
4910.78
4910.77
4910.77
4910.77
4910.77
4910.77
4910.77
4910.77
4910.77
4910.77
4910.76
4910.76
4910.75
4910.75
4910.75
4910.75
4910.75
4910.74
4910.74
4910.74
4910.74
4910.74
4910.75
4910.76
4910.77
4910.78
4910.78
4910.78
4910.78
4910.78
4910.78
4910.78
4910.78
4910.77
4910.77
4910.76
4910.75
4910.75
4910.74
4910.74
4910.74
4910.74
4910.74
4910.75
4910.75
4910.75
4910.75
4910.74
4910.74
4910.73
4910.73
4910.74
4910.75
4910.76
4910.77
4910.77
4910.78
4910.78
4910.78
4910.78
4910.77
4910.77
4910.77
4910.76
4910.75
4910.74
4910.71
4910.72
4910.71
4910.72
4910.72
4910.73
4910.73
4910.74
4910.75
4910.75
4910.74
4910.74
4910.73
4910.73
4910.73
4910.73
4910.74
4910.75
4910.75
4910.76
4910.76
4910.76
4910.76
4910.76
4910.76
4910.76
4910.75
4910.74
4910.73
4910.72
4910.68
4910.69
4910.69
4910.7
4910.71
4910.72
4910.73
4910.74
4910.74
4910.74
4910.74
4910.73
4910.73
4910.72
4910.72
4910.72
4910.73
4910.73
4910.73
4910.73
4910.74
4910.74
4910.74
4910.74
4910.74
4910.73
4910.72
4910.72
4910.72
4910.7
4910.66
4910.67
4910.68
4910.69
4910.7
4910.71
4910.72
4910.73
4910.74
4910.73
4910.73
4910.73
4910.72
4910.72
4910.72
4910.72
4910.72
4910.72
4910.71
4910.71
4910.72
4910.72
4910.72
4910.72
4910.72
4910.71
4910.71
4910.71
4910.72
4910.69
4910.66
4910.67
4910.68
4910.69
4910.7
4910.71
4910.72
4910.72
4910.72
4910.72
4910.72
4910.72
4910.72
4910.72
4910.71
4910.71
4910.71
4910.7
4910.7
4910.7
4910.7
4910.7
4910.7
4910.7
4910.7
4910.7
4910.7
4910.7
4910.71
4910.69
4910.67
4910.68
4910.69
4910.69
4910.7
4910.71
4910.71
4910.72
4910.72
4910.72
4910.71
4910.71
4910.71
4910.71
4910.71
4910.7
4910.7
4910.69
4910.69
4910.69
4910.69
4910.69
4910.69
4910.69
4910.69
4910.69
4910.7
4910.7
4910.7
4910.69
4910.68
4910.69
4910.7
4910.7
4910.71
4910.71
4910.71
4910.71
4910.71
4910.71
4910.71
4910.71
4910.71
4910.7
4910.7
4910.69
4910.69
4910.68
4910.68
4910.68
4910.68
4910.68
4910.68
4910.68
4910.68
4910.69
4910.69
4910.69
4910.7
4910.7
4910.69
4910.7
4910.71
4910.71
4910.72
4910.72
4910.71
4910.71
4910.7
4910.7
4910.7
4910.7
4910.7
4910.69
4910.69
4910.69
4910.68
4910.68
4910.67
4910.67
4910.68
4910.68
4910.68
4910.69
4910.69
4910.7
4910.7
4910.69
4910.7
4910.7
4910.71
4910.71
4910.72
4910.72
4910.72
4910.71
4910.71
4910.7
4910.69
4910.69
4910.68
4910.68
4910.68
4910.68
4910.68
4910.68
4910.68
4910.67
4910.67
4910.68
4910.68
4910.69
4910.69
4910.7
4910.7
4910.71
4910.7
4910.7
4910.71
4910.71
4910.72
4910.72
4910.72
4910.72
4910.72
4910.71
4910.7
4910.69
4910.68
4910.67
4910.67
4910.67
4910.67
4910.67
4910.67
4910.67
4910.67
4910.67
4910.67
4910.68
4910.69
4910.69
4910.7
4910.71
4910.71
4910.71
4910.71
4910.72
4910.72
4910.71
4910.73
4910.73
4910.72
4910.72
4910.71
4910.7
4910.69
4910.68
4910.67
4910.66
4910.66
4910.66
4910.66
4910.67
4910.67
4910.66
4910.66
4910.67
4910.67
4910.68
4910.69
4910.7
4910.71
4910.71
4910.72
4910.72
4910.73
4910.73
4910.74
4910.72
4910.73
4910.73
4910.72
4910.71
4910.7
4910.69
4910.68
4910.67
4910.66
4910.65
4910.65
4910.65
4910.65
4910.65
4910.65
4910.65
4910.65
4910.66
4910.67
4910.67
4910.69
4910.7
4910.71
4910.72
4910.73
4910.74
4910.75
4910.75
4910.76
4910.73
4910.73
4910.72
4910.71
4910.7
4910.69
4910.68
4910.67
4910.66
4910.65
4910.64
4910.64
4910.63
4910.63
4910.63
4910.63
4910.64
4910.64
4910.65
4910.65
4910.66
4910.67
4910.69
4910.7
4910.71
4910.72
4910.74
4910.75
4910.77
4910.76
4910.73
4910.73
4910.72
4910.71
4910.69
4910.68
4910.67
4910.66
4910.64
4910.63
4910.62
4910.62
4910.61
4910.61
4910.61
4910.61
4910.61
4910.62
4910.63
4910.63
4910.64
4910.65
4910.66
4910.67
4910.69
4910.71
4910.73
4910.75
4910.76
4910.74
4910.74
4910.73
4910.72
4910.71
4910.69
4910.68
4910.66
4910.64
4910.63
4910.61
4910.61
4910.6
4910.59
4910.59
4910.58
4910.58
4910.59
4910.59
4910.6
4910.6
4910.61
4910.63
4910.64
4910.65
4910.67
4910.7
4910.72
4910.74
4910.74
4910.73
4910.75
4910.74
4910.73
4910.71
4910.69
4910.67
4910.65
4910.63
4910.61
4910.6
4910.59
4910.58
4910.57
4910.56
4910.56
4910.56
4910.56
4910.57
4910.57
4910.58
4910.6
4910.61
4910.63
4910.65
4910.68
4910.71
4910.73
4910.74
4910.74
4910.75
4910.77
4910.76
4910.75
4910.73
4910.7
4910.68
4910.65
4910.62
4910.6
4910.58
4910.57
4910.55
4910.54
4910.54
4910.54
4910.54
4910.54
4910.55
4910.56
4910.58
4910.59
4910.61
4910.63
4910.66
4910.7
4910.72
4910.74
4910.75
4910.77
4910.78
4910.81
4910.8
4910.78
4910.76
4910.73
4910.69
4910.65
4910.62
4910.59
4910.57
4910.55
4910.54
4910.53
4910.52
4910.52
4910.52
4910.53
4910.54
4910.55
4910.57
4910.59
4910.61
4910.64
4910.68
4910.72
4910.74
4910.76
4910.79
4910.81
4910.81
4910.86
4910.85
4910.83
4910.8
4910.76
4910.71
4910.66
4910.62
4910.59
4910.56
4910.54
4910.52
4910.51
4910.5
4910.5
4910.5
4910.5
4910.52
4910.54
4910.56
4910.58
4910.61
4910.66
4910.7
4910.74
4910.76
4910.8
4910.83
4910.85
4910.85
4910.93
4910.92
4910.9
4910.86
4910.8
4910.75
4910.69
4910.64
4910.6
4910.56
4910.53
4910.5
4910.48
4910.46
4910.46
4910.46
4910.47
4910.49
4910.52
4910.54
4910.57
4910.62
4910.67
4910.72
4910.76
4910.8
4910.85
4910.89
4910.91
4910.92
4911.03
4911.02
4910.98
4910.93
4910.87
4910.8
4910.74
4910.68
4910.62
4910.56
4910.51
4910.47
4910.44
4910.42
4910.41
4910.42
4910.44
4910.46
4910.49
4910.52
4910.57
4910.63
4910.69
4910.75
4910.81
4910.88
4910.94
4910.98
4911
4911.02
4911.15
4911.13
4911.09
4911.03
4910.96
4910.88
4910.8
4910.72
4910.63
4910.55
4910.49
4910.44
4910.4
4910.38
4910.37
4910.37
4910.39
4910.41
4910.45
4910.5
4910.57
4910.65
4910.73
4910.82
4910.9
4910.98
4911.05
4911.1
4911.14
4911.17
4911.3
4911.28
4911.23
4911.16
4911.08
4910.99
4910.88
4910.76
4910.65
4910.55
4910.47
4910.41
4910.36
4910.32
4910.3
4910.3
4910.32
4910.35
4910.41
4910.49
4910.58
4910.69
4910.79
4910.9
4911
4911.1
4911.19
4911.25
4911.3
4911.33
4911.5
4911.47
4911.42
4911.34
4911.23
4911.11
4910.97
4910.82
4910.69
4910.57
4910.46
4910.37
4910.3
4910.24
4910.21
4910.21
4910.24
4910.3
4910.38
4910.48
4910.59
4910.72
4910.85
4910.98
4911.11
4911.24
4911.34
4911.43
4911.51
4911.54
4911.76
4911.73
4911.66
4911.56
4911.42
4911.26
4911.09
4910.92
4910.75
4910.6
4910.45
4910.32
4910.22
4910.15
4910.12
4910.13
4910.17
4910.24
4910.33
4910.45
4910.59
4910.76
4910.93
4911.09
4911.27
4911.43
4911.56
4911.68
4911.77
4911.8
4912.1
4912.07
4911.98
4911.85
4911.67
4911.48
4911.27
4911.06
4910.85
4910.64
4910.45
4910.28
4910.15
4910.07
4910.04
4910.04
4910.09
4910.17
4910.29
4910.44
4910.63
4910.84
4911.05
4911.27
4911.5
4911.68
4911.85
4912
4912.1
4912.14
4912.53
4912.5
4912.38
4912.21
4912
4911.77
4911.52
4911.25
4910.98
4910.71
4910.47
4910.26
4910.11
4910.01
4909.95
4909.95
4910.01
4910.11
4910.26
4910.46
4910.71
4910.98
4911.24
4911.52
4911.8
4912.01
4912.23
4912.4
4912.52
4912.55
4913.07
4913.02
4912.88
4912.68
4912.44
4912.16
4911.85
4911.52
4911.18
4910.85
4910.55
4910.3
4910.11
4909.97
4909.89
4909.88
4909.96
4910.09
4910.3
4910.56
4910.87
4911.18
4911.5
4911.85
4912.16
4912.43
4912.7
4912.89
4913.03
4913.06
4913.73
4913.67
4913.5
4913.28
4913.01
4912.68
4912.31
4911.9
4911.49
4911.09
4910.73
4910.42
4910.17
4909.99
4909.89
4909.9
4910
4910.18
4910.43
4910.75
4911.11
4911.48
4911.89
4912.31
4912.65
4912.99
4913.31
4913.52
4913.66
4913.73
4914.53
4914.45
4914.28
4914.05
4913.74
4913.36
4912.92
4912.45
4911.97
4911.5
4911.06
4910.67
4910.35
4910.13
4910.03
4910.05
4910.16
4910.37
4910.68
4911.06
4911.49
4911.95
4912.45
4912.93
4913.32
4913.73
4914.06
4914.31
4914.43
4914.55
4915.49
4915.41
4915.24
4914.99
4914.66
4914.24
4913.76
4913.23
4912.68
4912.14
4911.61
4911.14
4910.76
4910.5
4910.38
4910.38
4910.51
4910.76
4911.14
4911.6
4912.11
4912.67
4913.25
4913.75
4914.21
4914.67
4914.99
4915.26
4915.4
4915.51
4916.63
4916.55
4916.39
4916.15
4915.81
4915.38
4914.88
4914.32
4913.72
4913.09
4912.5
4911.96
4911.52
4911.21
4911.05
4911.04
4911.18
4911.5
4911.96
4912.5
4913.08
4913.72
4914.35
4914.87
4915.38
4915.82
4916.15
4916.37
4916.55
4916.64
4917.92
4917.86
4917.74
4917.52
4917.23
4916.83
4916.36
4915.79
4915.18
4914.52
4913.88
4913.28
4912.78
4912.41
4912.22
4912.21
4912.4
4912.77
4913.29
4913.89
4914.52
4915.2
4915.82
4916.34
4916.83
4917.22
4917.54
4917.7
4917.84
4917.92
4919.32
4919.29
4919.22
4919.1
4918.91
4918.63
4918.25
4917.77
4917.21
4916.58
4915.92
4915.32
4914.8
4914.4
4914.19
4914.19
4914.4
4914.8
4915.32
4915.92
4916.58
4917.21
4917.76
4918.21
4918.63
4918.93
4919.1
4919.21
4919.26
4919.31
4920.83
4920.83
4920.83
4920.9
4920.89
4920.79
4920.62
4920.37
4920.01
4919.58
4919.08
4918.56
4918.08
4917.7
4917.49
4917.49
4917.69
4918.08
4918.56
4919.08
4919.58
4920.02
4920.36
4920.6
4920.79
4920.89
4920.88
4920.85
4920.81
4920.84
4922.85
4922.95
4923.05
4923.28
4921.21
4917.95
4911.02
4902.59
4889.53
4876.47
4861.53
4846.91
4834.44
4825.2
4820.41
4820.42
4825.17
4834.51
4847
4861.53
4876.46
4889.48
4902.59
4911.06
4917.9
4921.13
4923.16
4923.04
4922.91
4922.88
1189.79
1194.22
1202.99
1215.87
1233.36
1255.01
1280.85
1311.09
1344.2
1379.4
1414.12
1444.46
1469.06
1486.67
1496.47
1496.45
1486.62
1469.01
1444.41
1414.04
1379.31
1344.12
1310.95
1280.76
1255.01
1233.32
1215.88
1202.98
1194.24
1189.78
0.274639
0.294007
0.337598
0.396008
0.463932
0.541298
0.632117
0.698143
0.610101
0.551211
-0.0908106
-0.0919278
-0.0918349
-0.0912396
-0.0901657
-0.0900808
-0.0910743
-0.0915428
-0.0915318
-0.0903648
0.551545
0.613114
0.698975
0.634729
0.547652
0.462261
0.393178
0.339382
0.293324
0.280159
-0.0476493
-0.0445863
-0.0383866
-0.0279088
-0.0160633
0.00160641
0.0306758
0.0741195
0.11365
0.119997
0.0471334
0.144931
0.282179
0.337748
0.258616
0.259533
0.340245
0.285248
0.146659
0.0471712
0.120515
0.115933
0.0755994
0.0322435
0.00329269
-0.0159521
-0.0277748
-0.0378726
-0.0444278
-0.0469695
-0.0645194
-0.0649296
-0.0656194
-0.0664556
-0.0671576
-0.0673978
-0.0666672
-0.0637341
-0.0566002
-0.0382879
0.0311354
0.107162
0.104579
0.0984669
0.066956
0.06716
0.0995243
0.105877
0.10865
0.0331333
-0.0369719
-0.0555527
-0.0628951
-0.0660012
-0.0668541
-0.0667728
-0.0661424
-0.065334
-0.0646732
-0.0642456
-0.0615364
-0.0618852
-0.0625268
-0.0633886
-0.0643555
-0.0653715
-0.066446
-0.067584
-0.0687235
-0.069802
-0.0684352
-0.0661898
-0.0649185
-0.0490652
-0.0191558
-0.0192278
-0.0490088
-0.0646756
-0.0657751
-0.0678196
-0.0692738
-0.0681649
-0.0670211
-0.0659259
-0.064933
-0.0639917
-0.063077
-0.0622535
-0.0616255
-0.0612672
-0.0574006
-0.0575957
-0.0580075
-0.0585707
-0.0592244
-0.0599185
-0.0605966
-0.0612306
-0.0616811
-0.0620038
-0.0626818
-0.063732
-0.0649718
-0.065727
-0.0592572
-0.0592693
-0.0656319
-0.0647946
-0.063461
-0.0623131
-0.0615529
-0.0611794
-0.0607253
-0.0601325
-0.0595206
-0.0588843
-0.0582726
-0.0577337
-0.0573249
-0.0571137
-0.052949
-0.0530474
-0.0533076
-0.0536597
-0.0540829
-0.054565
-0.0549664
-0.055402
-0.0558661
-0.0562388
-0.0562591
-0.0559513
-0.0553165
-0.055301
-0.0553567
-0.0553158
-0.0551759
-0.0551015
-0.0556464
-0.0558767
-0.0557958
-0.0554018
-0.0549498
-0.0545546
-0.054203
-0.0537587
-0.0533609
-0.0530247
-0.0527741
-0.0526651
-0.0483753
-0.0483931
-0.0485472
-0.0486919
-0.0488601
-0.0490087
-0.0492592
-0.0494808
-0.0496781
-0.0498151
-0.0498167
-0.0497477
-0.0497411
-0.0491225
-0.0485827
-0.0485424
-0.0490001
-0.04954
-0.0494726
-0.0494772
-0.0494391
-0.0492917
-0.0491043
-0.0489053
-0.048679
-0.04855
-0.048396
-0.0482636
-0.0481323
-0.0481206
-0.0436302
-0.0436793
-0.0436762
-0.0437343
-0.0437694
-0.0437783
-0.0437838
-0.0437655
-0.0437127
-0.0436153
-0.0434547
-0.0432483
-0.0430165
-0.042664
-0.042354
-0.0423191
-0.0425597
-0.0428465
-0.0430185
-0.0431776
-0.043308
-0.0433902
-0.043439
-0.0434607
-0.0434633
-0.0434658
-0.0434475
-0.0434154
-0.0434388
-0.0434004
-0.039147
-0.0391106
-0.0390481
-0.0389655
-0.0388458
-0.0386878
-0.0384945
-0.0382674
-0.038006
-0.0377129
-0.0373917
-0.037052
-0.0367243
-0.0364191
-0.0362023
-0.0361722
-0.0363293
-0.036577
-0.0368507
-0.0371464
-0.0374336
-0.0377044
-0.037955
-0.0381816
-0.0383838
-0.0385594
-0.0387028
-0.0388112
-0.0388958
-0.0389444
-0.0348127
-0.0347332
-0.0345867
-0.0343797
-0.0341124
-0.0337904
-0.0334208
-0.0330117
-0.0325699
-0.0321043
-0.031625
-0.0311696
-0.0307718
-0.0304565
-0.0302635
-0.030236
-0.0303751
-0.0306376
-0.0309858
-0.0313983
-0.0318474
-0.0322937
-0.0327298
-0.0331445
-0.0335286
-0.0338718
-0.0341625
-0.0343905
-0.034553
-0.0346397
-0.030678
-0.0305692
-0.0303525
-0.0300413
-0.0296456
-0.0291782
-0.0286531
-0.0280854
-0.0274851
-0.0268705
-0.0262667
-0.0257124
-0.0252421
-0.0248896
-0.0246883
-0.0246645
-0.0248192
-0.0251274
-0.0255576
-0.0260792
-0.02666
-0.0272631
-0.0278618
-0.0284377
-0.0289763
-0.0294597
-0.02987
-0.0301923
-0.0304162
-0.0305293
-0.0267875
-0.026658
-0.0263913
-0.0260042
-0.0255116
-0.0249304
-0.0242805
-0.0235791
-0.0228497
-0.0221171
-0.0214137
-0.0207784
-0.020249
-0.0198629
-0.0196509
-0.0196328
-0.0198098
-0.020164
-0.0206661
-0.0212799
-0.0219682
-0.022692
-0.0234191
-0.0241226
-0.0247786
-0.0253671
-0.0258619
-0.0262493
-0.0265151
-0.026648
-0.0231654
-0.0230197
-0.0227229
-0.0222881
-0.0217333
-0.0210776
-0.0203422
-0.0195509
-0.0187318
-0.0179179
-0.0171455
-0.0164551
-0.0158876
-0.0154799
-0.0152616
-0.01525
-0.0154461
-0.0158339
-0.0163845
-0.017061
-0.0178219
-0.0186263
-0.019438
-0.0202241
-0.0209562
-0.021609
-0.0221587
-0.0225864
-0.0228771
-0.0230234
-0.0198148
-0.0196606
-0.0193501
-0.0188952
-0.018312
-0.0176197
-0.0168411
-0.0160037
-0.0151391
-0.0142839
-0.013478
-0.0127629
-0.0121796
-0.0117646
-0.0115461
-0.0115395
-0.0117452
-0.0121481
-0.0127203
-0.0134247
-0.0142198
-0.015064
-0.0159177
-0.0167451
-0.0175148
-0.0181986
-0.0187729
-0.0192183
-0.0195204
-0.0196718
-0.0167481
-0.0165918
-0.0162808
-0.015825
-0.0152389
-0.0145414
-0.0137562
-0.0129119
-0.0120418
-0.0111837
-0.0103779
-0.00966616
-0.00908848
-0.00867977
-0.00846635
-0.00846214
-0.00866719
-0.00906749
-0.00963645
-0.0103387
-0.0111342
-0.0119814
-0.0128402
-0.0136735
-0.0144482
-0.0151357
-0.015712
-0.0161584
-0.0164614
-0.0166134
-0.0139752
-0.0138215
-0.0135192
-0.013076
-0.0125058
-0.0118269
-0.0110628
-0.0102419
-0.0093974
-0.00856635
-0.00778822
-0.00710303
-0.00654871
-0.0061578
-0.00595438
-0.00595107
-0.00614784
-0.00653181
-0.00707855
-0.00775536
-0.00852424
-0.00934549
-0.0101798
-0.0109906
-0.011745
-0.0124146
-0.0129763
-0.0134119
-0.0137078
-0.013857
-0.0115002
-0.0113526
-0.0110654
-0.0106449
-0.0101039
-0.00945993
-0.00873584
-0.00795909
-0.00716157
-0.0063786
-0.00564747
-0.0050054
-0.0044872
-0.00412249
-0.00393297
-0.00392999
-0.00411351
-0.00447193
-0.00498335
-0.00561814
-0.00634139
-0.00711596
-0.00790477
-0.00867289
-0.00938893
-0.0100258
-0.010561
-0.0109768
-0.01126
-0.0114036
-0.00931886
-0.00918045
-0.00891297
-0.00852146
-0.00801787
-0.00741914
-0.00674689
-0.00602722
-0.00529005
-0.00456812
-0.0038957
-0.0033066
-0.00283213
-0.00249867
-0.00232546
-0.00232258
-0.00249001
-0.00281759
-0.00328603
-0.00386897
-0.00453501
-0.00525028
-0.0059807
-0.00669383
-0.00736028
-0.00795447
-0.00845503
-0.00884483
-0.00911109
-0.0092466
-0.00742015
-0.00729298
-0.00704737
-0.00668791
-0.00622622
-0.00567829
-0.00506444
-0.00440887
-0.003739
-0.00308457
-0.00247642
-0.00194479
-0.00151743
-0.00121751
-0.00106183
-0.00105924
-0.00120974
-0.00150455
-0.00192696
-0.00245383
-0.00305737
-0.00370729
-0.00437284
-0.00502444
-0.00563496
-0.00618061
-0.00664131
-0.00700089
-0.00724702
-0.00737265
-0.00578727
-0.00567185
-0.00544863
-0.00512241
-0.00470437
-0.00420954
-0.00365663
-0.00306761
-0.00246717
-0.00188194
-0.00133927
-0.000865834
-0.00048602
-0.000219963
-8.21801e-05
-8.03183e-05
-0.00021439
-0.000476893
-0.000853432
-0.00132392
-0.00186405
-0.00244708
-0.00304565
-0.00363315
-0.00418493
-0.00467914
-0.00509722
-0.0054241
-0.0056483
-0.00576308
-0.0043982
-0.00429424
-0.00409339
-0.0038006
-0.00342641
-0.00298471
-0.00249239
-0.00196913
-0.00143697
-0.000919435
-0.000440536
-2.3603e-05
0.00031015
0.000543364
0.000663609
0.000664371
0.000545587
0.000313704
-1.89277e-05
-0.000435038
-0.000913501
-0.00143098
-0.00196337
-0.00248707
-0.00297997
-0.00342228
-0.0037971
-0.00409062
-0.00429226
-0.00439581
-0.00322784
-0.00313508
-0.00295648
-0.00269671
-0.00236548
-0.0019753
-0.00154128
-0.00108099
-0.00061388
-0.000160571
0.000258
0.000621617
0.000911989
0.00111429
0.00121792
0.00121738
0.00111261
0.000909128
0.000617512
0.000252503
-0.000167664
-0.000622782
-0.00109186
-0.00155415
-0.00199009
-0.00238198
-0.00271458
-0.00297542
-0.00315488
-0.00324724
-0.00225131
-0.00216958
-0.00201263
-0.00178472
-0.0014945
-0.00115308
-0.000773942
-0.000372612
3.38714e-05
0.000427523
0.000790195
0.00110451
0.00135487
0.00152867
0.00161695
0.00161507
0.00152301
0.00134549
0.00109149
0.000773574
0.000407341
1.01461e-05
-0.000399858
-0.000804614
-0.00118695
-0.00153122
-0.00182383
-0.0020536
-0.00221189
-0.00229342
-0.00144541
-0.00137432
-0.00123782
-0.00103975
-0.000787714
-0.000491515
-0.000163064
0.000184039
0.000534929
0.000874014
0.0011857
0.00145516
0.00166921
0.00181713
0.00189144
0.00188827
0.00180764
0.00165354
0.00143348
0.00115821
0.000840971
0.000496553
0.00014055
-0.00021142
-0.000544402
-0.000844667
-0.0011002
-0.00130108
-0.00143957
-0.00151091
-0.000788701
-0.000727448
-0.00060969
-0.000438913
-0.000221693
3.33239e-05
0.000315727
0.000613669
0.00091426
0.0012041
0.00146989
0.00169909
0.00188061
0.00200539
0.00206719
0.00206281
0.0019923
0.00185894
0.00166911
0.00143192
0.0011585
0.000861414
0.000553991
0.000249663
-3.86186e-05
-0.000298896
-0.000520636
-0.000695066
-0.000815375
-0.000877323
-0.000261184
-0.000208728
-0.000107827
3.84751e-05
0.000224432
0.000442495
0.000683614
0.00093753
0.00119317
0.00143912
0.00166411
0.00185758
0.00201025
0.0021146
0.00216534
0.00215981
0.00209808
0.00198292
0.00181971
0.00161607
0.00138136
0.0011262
0.000861928
0.000600059
0.000351738
0.000127318
-6.40254e-05
-0.000214615
-0.000318491
-0.000371918
0.00015561
0.000200247
0.000286213
0.000410812
0.000569017
0.000754283
0.000958787
0.00117372
0.00138967
0.00159694
0.00178606
0.00194818
0.00207555
0.00216194
0.00220294
0.00219634
0.00214219
0.00204285
0.00190281
0.00172842
0.00152755
0.00130915
0.00108283
0.000858407
0.000645424
0.000452797
0.000288461
0.000159085
6.98499e-05
2.40273e-05
0.000478253
0.000516006
0.000588849
0.00069433
0.000828095
0.000984504
0.00115685
0.00133764
0.00151888
0.00169243
0.00185033
0.00198519
0.00209058
0.00216132
0.00219379
0.00218618
0.00213854
0.00205281
0.00193275
0.00178364
0.00161209
0.00142563
0.00123239
0.00104068
0.00085865
0.000693927
0.000553339
0.000442637
0.000366297
0.000327176
0.000721401
0.000753175
0.000814511
0.000903239
0.00101563
0.00114685
0.00129119
0.00144233
0.00159351
0.00173789
0.00186884
0.0019802
0.00206664
0.00212388
0.00214897
0.00214041
0.00209826
0.00202414
0.00192116
0.00179374
0.0016474
0.00148849
0.00132383
0.00116046
0.00100531
0.000864866
0.000744978
0.000650573
0.000585495
0.000552234
0.000897906
0.000924452
0.000975741
0.00104989
0.00114371
0.00125311
0.00137327
0.00149884
0.00162417
0.00174352
0.00185137
0.00194261
0.00201283
0.00205853
0.00207727
0.00206781
0.00203024
0.00196592
0.00187745
0.00176851
0.00164373
0.0015084
0.00136827
0.00122929
0.00109731
0.000977848
0.000875875
0.000795598
0.000740303
0.000712142
0.00101886
0.00104083
0.00108342
0.00114496
0.00122277
0.0013134
0.0014128
0.00151647
0.0016197
0.0017177
0.00180588
0.00188
0.00193643
0.00197229
0.00198558
0.00197531
0.00194155
0.00188548
0.00180927
0.001716
0.00160954
0.0014943
0.00137514
0.00125703
0.00114492
0.00104348
0.000956926
0.000888837
0.000842004
0.000818268
0.00109387
0.00111191
0.00114701
0.00119773
0.00126182
0.00133639
0.00141806
0.00150308
0.00158752
0.00166739
0.00173888
0.00179851
0.00184326
0.00187076
0.0018794
0.0018684
0.00183786
0.00178876
0.00172291
0.00164289
0.00155193
0.00145377
0.00135243
0.00125211
0.00115697
0.00107096
0.000997629
0.000940015
0.000900481
0.000880578
0.00113132
0.00114598
0.00117468
0.00121617
0.00126857
0.00132949
0.0013961
0.0014653
0.00153381
0.00159834
0.00165573
0.0017031
0.00173799
0.00175845
0.00176319
0.00175159
0.00172377
0.00168055
0.00162345
0.00155465
0.00147684
0.00139314
0.00130694
0.00122175
0.00114108
0.00106824
0.00100622
0.000957586
0.000924334
0.000907744
0.00113839
0.00115019
0.00117345
0.00120711
0.00124962
0.00129898
0.00135285
0.00140867
0.00146371
0.00151528
0.00156077
0.00159782
0.00162442
0.00163899
0.00164049
0.00162844
0.00160295
0.00156474
0.00151508
0.0014558
0.00138915
0.00131774
0.00124441
0.00117211
0.00110376
0.00104214
0.000989787
0.000948839
0.00092097
0.000907225
0.00112124
0.00113063
0.00114932
0.00117639
0.00121054
0.00125013
0.00129324
0.00133775
0.00138144
0.00142208
0.00145756
0.00148595
0.00150561
0.0015153
0.00151415
0.0015018
0.00147838
0.00144446
0.00140117
0.00135003
0.0012929
0.00123197
0.00116962
0.0011083
0.00105046
0.000998439
0.000954337
0.000919955
0.000896681
0.000885357
0.0010851
0.00109249
0.00110735
0.00112886
0.00115596
0.00118733
0.00122137
0.00125637
0.00129051
0.001322
0.0013491
0.00137027
0.00138418
0.00138983
0.00138655
0.00137406
0.00135247
0.00132234
0.00128456
0.0012404
0.00119144
0.00113948
0.00108651
0.00103458
0.000985725
0.000941892
0.00090484
0.00087606
0.000856692
0.000847417
0.00103429
0.00104003
0.00105168
0.00106853
0.00108973
0.00111419
0.00114064
0.00116767
0.00119384
0.00121769
0.00123786
0.00125307
0.00126227
0.00126466
0.00125973
0.00124726
0.00122737
0.00120054
0.00116753
0.0011294
0.00108745
0.0010432
0.000998274
0.000954381
0.000913212
0.000876382
0.000845343
0.000821326
0.000805268
0.000797717
0.000972307
0.000976681
0.000985674
0.000998647
0.00101493
0.00103364
0.00105377
0.00107419
0.00109377
0.00111132
0.00112577
0.00113611
0.00114149
0.0011413
0.00113515
0.00112287
0.00110456
0.00108068
0.00105187
0.00101898
0.000983093
0.000945468
0.000907453
0.000870455
0.000835865
0.000805015
0.000779098
0.000759129
0.000745869
0.000739757
0.000901956
0.000905227
0.000912022
0.000921793
0.00093401
0.000947976
0.000962895
0.000977903
0.000992081
0.0010045
0.00101431
0.00102072
0.00102309
0.00102092
0.00101393
0.00100202
0.000985244
0.000964045
0.000938926
0.000910621
0.000880004
0.000848102
0.000816032
0.000784946
0.000755995
0.000730255
0.0007087
0.000692163
0.000681264
0.000676358
0.000825491
0.000827875
0.000832875
0.000840026
0.000848919
0.000859026
0.00086972
0.000880327
0.000890143
0.000898453
0.000904569
0.0009079
0.00090796
0.000904374
0.000896917
0.00088553
0.000870297
0.00085155
0.000829728
0.000805435
0.000779412
0.000752477
0.00072554
0.000699541
0.000675409
0.000654022
0.000636181
0.000622552
0.000613641
0.00060974
0.000744655
0.000746341
0.000749902
0.000754961
0.000761204
0.000768227
0.000775561
0.000782688
0.000789052
0.000794134
0.000797398
0.000798413
0.000796797
0.00079227
0.000784672
0.000773973
0.000760264
0.000743794
0.000724947
0.000704217
0.000682203
0.000659588
0.00063709
0.000615464
0.00059546
0.00057779
0.0005631
0.000551931
0.000544689
0.000541617
0.000660793
0.000661937
0.000664374
0.0006678
0.000671982
0.000676618
0.000681355
0.000685798
0.00068954
0.000692178
0.000693329
0.000692666
0.00068992
0.000684882
0.00067744
0.00066758
0.000655389
0.000641059
0.000624926
0.000607389
0.000588922
0.000570071
0.000551414
0.000533554
0.00051709
0.000502596
0.00049059
0.000481509
0.000475681
0.000473297
0.000574894
0.000575637
0.000577215
0.000579405
0.000582036
0.000584879
0.000587671
0.000590125
0.000591944
0.000592844
0.000592554
0.000590816
0.000587429
0.000582253
0.000575215
0.000566321
0.000555656
0.000543352
0.000529728
0.000515072
0.000499762
0.000484222
0.000468915
0.000454316
0.000440906
0.000429139
0.00041943
0.00041213
0.000407498
0.000405684
0.000487691
0.00048815
0.000489097
0.000490388
0.000491896
0.000493448
0.000494856
0.000495916
0.00049642
0.00049616
0.000494951
0.000492618
0.000489017
0.000484046
0.000477667
0.000469893
0.000460798
0.000450458
0.000439178
0.000427155
0.000414679
0.00040208
0.000389723
0.000377979
0.000367227
0.000357824
0.000350098
0.000344326
0.000340708
0.00033936
0.000399697
0.000399953
0.000400467
0.000401141
0.000401883
0.000402567
0.000403062
0.000403228
0.000402922
0.000402005
0.000400352
0.000397847
0.000394394
0.000389914
0.000384392
0.000377855
0.000370371
0.000361962
0.00035291
0.000343321
0.000333424
0.000323476
0.000313751
0.000304543
0.000296134
0.000288804
0.000282807
0.000278355
0.000275603
0.000274636
0.000311246
0.000311366
0.000311607
0.000311895
0.000312162
0.000312325
0.000312296
0.000311981
0.000311289
0.000310132
0.000308424
0.000306093
0.000303076
0.000299337
0.000294861
0.000289674
0.000283816
0.000277343
0.000270392
0.00026308
0.000255569
0.000248048
0.000240721
0.000233797
0.000227491
0.000222008
0.000217538
0.000214241
0.000212234
0.000211577
0.000222585
0.000222629
0.000222708
0.000222775
0.000222792
0.000222705
0.000222455
0.000221987
0.000221242
0.00022017
0.000218716
0.000216834
0.000214494
0.000211689
0.000208406
0.00020465
0.000200451
0.000195856
0.000190941
0.000185798
0.000180534
0.000175278
0.000170167
0.000165349
0.000160968
0.000157166
0.000154076
0.00015181
0.000150451
0.000150046
0.00013385
0.000133857
0.00013386
0.000133837
0.000133767
0.000133621
0.000133368
0.000132977
0.00013242
0.000131667
0.00013069
0.00012947
0.000127995
0.000126258
0.000124256
0.00012199
0.000119474
0.000116733
0.000113806
0.000110757
0.000107644
0.000104541
0.000101525
9.86855e-05
9.61066e-05
9.3872e-05
9.20595e-05
9.07361e-05
8.99544e-05
8.97527e-05
4.49463e-05
4.49357e-05
4.49227e-05
4.48892e-05
4.48352e-05
4.47496e-05
4.46247e-05
4.44542e-05
4.42316e-05
4.3946e-05
4.35897e-05
4.316e-05
4.26546e-05
4.20709e-05
4.14067e-05
4.06608e-05
3.98369e-05
3.89418e-05
3.79874e-05
3.6994e-05
3.59786e-05
3.49642e-05
3.39788e-05
3.30454e-05
3.21983e-05
3.1463e-05
3.0866e-05
3.04312e-05
3.01724e-05
3.01303e-05
4910.79
4910.79
4910.8
4910.8
4910.8
4910.8
4910.8
4910.8
4910.8
4910.8
4910.8
4910.8
4910.8
4910.8
4910.8
4910.8
4910.79
4910.79
4910.79
4910.79
4910.79
4910.79
4910.79
4910.79
4910.79
4910.79
4910.79
4910.8
4910.8
4910.79
4910.79
4910.79
4910.79
4910.79
4910.8
4910.8
4910.8
4910.8
4910.8
4910.8
4910.8
4910.8
4910.8
4910.8
4910.8
4910.8
4910.79
4910.79
4910.79
4910.79
4910.79
4910.79
4910.79
4910.79