/*--------------------------------*- C++ -*----------------------------------*\
| =========                 |                                                 |
| \\      /  F ield         | OpenFOAM: The Open Source CFD Toolbox           |
|  \\    /   O peration     | Version:  2312                                  |
|   \\  /    A nd           | Website:  www.openfoam.com                      |
|    \\/     M anipulation  |                                                 |
\*---------------------------------------------------------------------------*/
FoamFile
{
    version     2.0;
    format      ascii;
    arch        "LSB;label=32;scalar=64";
    class       surfaceScalarField;
    location    "0.303149";
    object      phi;
}
// * * * * * * * * * * * * * * * * * * * * * * * * * * * * * * * * * * * * * //

dimensions      [0 3 -1 0 0 0 0];

oriented        oriented;

internalField   nonuniform List<scalar> 
263100
(
1.16923e-10
-2.33845e-10
1.16923e-10
-3.64014e-11
1.29632e-10
3.6074e-11
-1.04965e-10
4.6605e-11
3.20073e-11
-1.31055e-10
2.1188e-11
1.47605e-11
-1.34469e-10
3.02262e-13
1.2923e-11
-1.10923e-10
-2.65932e-11
1.28459e-11
-6.35212e-11
-5.23345e-11
1.47402e-11
-8.47382e-12
-6.51421e-11
1.9899e-11
3.59541e-11
-5.93811e-11
2.4765e-11
5.83538e-11
-3.45279e-11
2.20038e-11
5.48449e-11
4.10044e-12
9.35663e-12
3.594e-11
3.822e-11
-9.31233e-12
2.05709e-11
6.25624e-11
-3.71495e-11
2.57539e-11
7.01441e-11
-6.52445e-11
6.38193e-11
5.39438e-11
-8.18858e-11
1.26453e-10
2.98538e-11
-8.23223e-11
1.92769e-10
8.04802e-13
-5.69157e-11
2.38856e-10
-2.02902e-11
-1.55593e-11
2.3486e-10
-1.93317e-11
3.35878e-11
1.60283e-10
7.79561e-12
7.70554e-11
1.19824e-11
5.38638e-11
1.04724e-10
-1.91887e-10
9.72291e-11
1.16952e-10
-4.31429e-10
1.41704e-10
1.08198e-10
-6.59331e-10
1.53618e-10
8.47265e-11
-8.03828e-10
1.06849e-10
4.82104e-11
-8.23272e-10
5.35076e-12
2.48056e-11
-6.99864e-10
-1.2653e-10
1.39998e-11
-4.43826e-10
-2.80521e-10
3.55151e-11
-8.52462e-11
-4.27202e-10
7.97795e-11
-4.64951e-10
3.90957e-10
-3.83254e-11
-1.44987e-10
-3.83254e-11
-8.00886e-12
1.34822e-10
-1.5104e-11
2.26184e-11
4.45876e-11
-1.03285e-11
4.42064e-11
1.63855e-11
1.35264e-12
6.65905e-11
-1.77469e-11
1.37809e-11
8.69196e-11
-5.28748e-11
2.40419e-11
1.05639e-10
-8.45674e-11
3.16032e-11
1.22153e-10
-9.71976e-11
3.36968e-11
1.33151e-10
-8.21527e-11
2.99944e-11
1.40863e-10
-4.77835e-11
2.38622e-11
1.49254e-10
-3.89962e-12
1.80254e-11
1.54313e-10
3.76667e-11
1.3994e-11
1.57159e-10
6.16973e-11
1.65942e-11
1.55515e-10
6.40933e-11
2.63446e-11
1.42018e-10
4.73277e-11
3.88353e-11
1.14123e-10
2.33354e-11
5.32012e-11
7.0249e-11
6.77053e-12
5.67419e-11
1.19129e-11
1.27368e-11
4.41695e-11
-6.02026e-11
4.62647e-11
2.53911e-11
-1.39364e-10
1.06202e-10
-3.59481e-13
-2.02641e-10
1.58175e-10
-2.21107e-11
-2.59328e-10
1.99511e-10
-2.65863e-11
-2.84791e-10
2.01571e-10
-1.52473e-11
-2.58938e-10
1.45064e-10
2.07134e-12
-2.11872e-10
3.18262e-11
4.75907e-11
-1.2349e-10
-1.67537e-10
1.04425e-10
9.34284e-12
-3.95829e-10
1.56651e-10
1.08856e-10
-5.40322e-10
1.80685e-10
6.05609e-11
-5.76048e-10
2.17679e-10
-6.09001e-10
2.21619e-10
-3.90796e-12
-1.27001e-10
-3.90796e-12
1.20783e-10
8.18864e-12
2.1184e-11
2.04535e-10
-5.69065e-11
3.49406e-11
2.59818e-10
-6.96775e-11
4.78396e-11
2.84985e-10
-8.41861e-11
5.83145e-11
2.86237e-10
-9.97815e-11
6.26726e-11
2.69779e-10
-1.10125e-10
5.90305e-11
2.48335e-10
-1.08356e-10
4.9654e-11
2.34567e-10
-9.10892e-11
3.9746e-11
2.33663e-10
-6.06329e-11
3.08196e-11
2.47206e-10
-3.04393e-11
3.01197e-11
2.62517e-10
-7.98523e-13
4.03394e-11
2.62599e-10
1.99282e-11
5.89365e-11
2.29225e-10
3.50654e-11
7.9716e-11
1.51665e-10
4.62409e-11
9.60159e-11
3.28886e-11
6.34692e-11
9.60472e-11
-1.09489e-10
8.78424e-11
7.87156e-11
-2.487e-10
1.22151e-10
4.71847e-11
-3.50891e-10
1.63269e-10
2.53921e-12
-3.84738e-10
1.97753e-10
-4.03716e-11
-3.44286e-10
2.06636e-10
-7.1562e-11
-2.29816e-10
1.86978e-10
-8.45114e-11
-6.32018e-11
1.28097e-10
-7.55833e-11
1.23944e-10
1.39419e-11
-3.82851e-11
2.92694e-10
-1.3533e-10
1.63506e-11
3.90236e-10
-3.27355e-10
8.04309e-11
3.86739e-10
-5.03537e-10
1.29548e-10
3.36569e-10
-5.96273e-10
1.24625e-10
1.21484e-10
-4.17669e-10
7.5349e-11
-3.93251e-10
-7.87552e-11
4.6416e-11
-2.09329e-10
4.6416e-11
2.33119e-10
-2.38567e-10
8.03474e-11
3.49076e-10
-2.49771e-10
9.50828e-11
4.23825e-10
-2.34839e-10
1.08434e-10
4.52277e-10
-2.09182e-10
1.14569e-10
4.41916e-10
-1.81435e-10
1.09985e-10
4.06733e-10
-1.54299e-10
9.7276e-11
3.62082e-10
-1.25744e-10
7.99522e-11
3.24942e-10
-9.88271e-11
6.27205e-11
3.05002e-10
-7.49627e-11
5.20868e-11
2.94985e-10
-5.19872e-11
4.94109e-11
2.85996e-10
-3.19313e-11
5.80232e-11
2.53595e-10
-3.42102e-12
7.3714e-11
1.82755e-10
3.73494e-11
8.65723e-11
6.89308e-11
9.16996e-11
8.64066e-11
-8.09506e-11
1.55042e-10
7.63352e-11
-2.41884e-10
2.13407e-10
5.33416e-11
-3.7827e-10
2.54411e-10
2.20215e-11
-4.53735e-10
2.6626e-10
-9.69895e-12
-4.46336e-10
2.40888e-10
-3.27379e-11
-3.50293e-10
1.81526e-10
-5.31099e-11
-1.68945e-10
8.58646e-11
-6.23294e-11
5.90259e-11
-3.27306e-11
-4.91127e-11
2.72555e-10
-1.52836e-10
-2.85783e-11
4.26875e-10
-2.6628e-10
-5.05205e-12
4.57243e-10
-3.50124e-10
1.08462e-11
3.50863e-10
-3.86872e-10
8.27302e-12
1.93382e-10
-4.03603e-10
-1.65277e-11
2.78664e-11
-1.73582e-10
-5.9797e-11
-1.57188e-10
-1.92588e-10
1.13624e-10
-4.25359e-10
1.13624e-10
3.2022e-10
-5.74541e-10
1.51081e-10
4.52203e-10
-5.26899e-10
1.64671e-10
5.36995e-10
-4.67647e-10
1.67335e-10
5.7517e-10
-3.87815e-10
1.59769e-10
5.70878e-10
-3.02114e-10
1.44167e-10
5.32897e-10
-2.21059e-10
1.23824e-10
4.75789e-10
-1.50731e-10
1.01106e-10
4.15437e-10
-1.02036e-10
8.24472e-11
3.57278e-10
-6.91358e-11
7.11473e-11
3.00817e-10
-4.44588e-11
6.77534e-11
2.35943e-10
-1.53398e-11
6.71545e-11
1.57143e-10
2.93173e-11
6.49926e-11
5.56563e-11
9.7574e-11
6.02335e-11
-6.32502e-11
1.79766e-10
4.98126e-11
-1.90851e-10
2.65581e-10
3.59874e-11
-3.0231e-10
3.18824e-10
2.4884e-11
-3.80239e-10
3.32546e-10
1.85461e-11
-4.05902e-10
2.93308e-10
1.73016e-11
-3.67053e-10
2.03932e-10
1.67723e-11
-2.63658e-10
7.71686e-11
1.965e-11
-1.12846e-10
-7.00141e-11
2.38069e-11
4.60996e-11
-2.0575e-10
3.28733e-11
1.70394e-10
-2.95477e-10
3.71983e-11
2.31735e-10
-3.16803e-10
8.0798e-12
2.06326e-10
-2.71045e-10
-3.47199e-11
9.09159e-11
-1.68519e-10
-8.3927e-11
-7.58079e-11
-8.64064e-11
-1.31374e-10
-1.49554e-10
1.02571e-10
-1.83216e-10
-3.75686e-11
-2.5321e-10
1.74697e-10
-7.62668e-10
1.74697e-10
3.6302e-10
-9.36632e-10
1.96982e-10
5.00951e-10
-8.40325e-10
1.96452e-10
6.00659e-10
-7.30212e-10
1.8353e-10
6.59978e-10
-5.90808e-10
1.64293e-10
6.76969e-10
-4.38868e-10
1.40204e-10
6.579e-10
-2.98101e-10
1.16389e-10
6.06688e-10
-1.79107e-10
9.97362e-11
5.27387e-10
-9.1869e-11
8.91459e-11
4.23978e-10
-2.90425e-11
8.32555e-11
3.03158e-10
1.96824e-11
7.66314e-11
1.71819e-10
6.70358e-11
6.89763e-11
3.84044e-11
1.23997e-10
5.88166e-11
-8.23048e-11
1.92303e-10
4.61001e-11
-1.78742e-10
2.59362e-10
3.69558e-11
-2.47428e-10
3.18638e-10
3.56982e-11
-2.89894e-10
3.37451e-10
4.38448e-11
-2.9919e-10
2.98576e-10
6.32092e-11
-2.83309e-10
2.13363e-10
8.39658e-11
-2.41356e-10
7.20043e-11
1.09851e-10
-1.88141e-10
-9.21991e-11
1.36007e-10
-1.42187e-10
-2.52016e-10
1.55862e-10
-1.18709e-10
-3.59062e-10
1.49585e-10
-1.25389e-10
-3.78752e-10
1.09635e-10
-1.64161e-10
-3.12132e-10
5.37247e-11
-2.15211e-10
-1.74719e-10
-2.56709e-11
-2.63907e-10
-2.33461e-12
-9.78511e-11
-3.0204e-10
1.31277e-10
-1.59849e-10
-2.39004e-10
2.39149e-10
-1.79839e-10
-8.48454e-11
-1.75288e-10
1.8467e-10
-1.11899e-09
1.8467e-10
3.569e-10
-1.27097e-09
1.86734e-10
5.06213e-10
-1.13534e-09
1.67977e-10
6.33215e-10
-9.78374e-10
1.43088e-10
7.33126e-10
-7.85302e-10
1.16396e-10
8.00035e-10
-5.80268e-10
9.60877e-11
8.22108e-10
-3.84642e-10
8.58927e-11
7.89437e-10
-2.11503e-10
8.63415e-11
6.96992e-10
-7.2411e-11
9.41805e-11
5.50005e-10
3.71023e-11
1.02024e-10
3.63679e-10
1.24198e-10
1.03055e-10
1.64736e-10
1.92794e-10
9.45313e-11
-1.66366e-11
2.44021e-10
8.27952e-11
-1.54224e-10
2.78077e-10
7.33287e-11
-2.37254e-10
2.89796e-10
7.41429e-11
-2.67591e-10
2.81746e-10
8.87819e-11
-2.61221e-10
2.42205e-10
1.10417e-10
-2.36615e-10
1.53592e-10
1.41897e-10
-2.09852e-10
2.25701e-11
1.85505e-10
-2.05803e-10
-1.3735e-10
2.26696e-10
-2.35951e-10
-3.00623e-10
2.5982e-10
-3.01388e-10
-4.2517e-10
2.59642e-10
-3.95509e-10
-4.7268e-10
2.28568e-10
-4.9646e-10
-4.34912e-10
1.77737e-10
-5.80135e-10
-3.18132e-10
1.10157e-10
-6.1023e-10
-1.58727e-10
3.45131e-11
-5.65095e-10
-1.23611e-11
-1.47098e-11
-4.48702e-10
6.96359e-11
-3.43338e-11
-2.54217e-10
9.49818e-11
-2.98654e-11
-3.1082e-10
-1.12665e-11
1.31521e-10
-1.36816e-09
1.31521e-10
3.25633e-10
-1.55729e-09
1.17996e-10
5.04279e-10
-1.38384e-09
9.31703e-11
6.77536e-10
-1.20019e-09
7.15057e-11
8.3669e-10
-9.79638e-10
5.79615e-11
9.63927e-10
-7.43128e-10
5.82074e-11
1.03426e-09
-5.06821e-10
7.43156e-11
1.02747e-09
-2.80935e-10
9.86116e-11
9.32203e-10
-7.75201e-11
1.22818e-10
7.53683e-10
9.27631e-11
1.45436e-10
5.20564e-10
2.19204e-10
1.60866e-10
2.71273e-10
3.00299e-10
1.64729e-10
4.84251e-11
3.28782e-10
1.61203e-10
-1.21844e-10
3.12112e-10
1.5949e-10
-2.3188e-10
2.57558e-10
1.65631e-10
-2.81087e-10
1.6992e-10
1.84457e-10
-2.91449e-10
5.89732e-11
2.17047e-10
-2.92955e-10
-7.74281e-11
2.55948e-10
-3.15318e-10
-2.25006e-10
2.93244e-10
-3.69725e-10
-3.76899e-10
3.17041e-10
-4.58892e-10
-5.0388e-10
3.1519e-10
-5.81737e-10
-5.76164e-10
2.96229e-10
-7.12643e-10
-5.8304e-10
2.63283e-10
-8.21574e-10
-5.24978e-10
2.20704e-10
-8.73149e-10
-4.19225e-10
1.74153e-10
-8.39161e-10
-3.11353e-10
1.39975e-10
-7.1119e-10
-2.39415e-10
1.20325e-10
-5.01564e-10
-2.32707e-10
1.13895e-10
-2.16832e-10
-2.87449e-10
1.18846e-10
-6.65687e-10
1.55544e-10
6.81468e-11
-1.48998e-09
6.81468e-11
3.12944e-10
-1.83441e-09
5.89356e-11
5.36337e-10
-1.62982e-09
4.65788e-11
7.64982e-10
-1.44708e-09
4.19084e-11
9.82073e-10
-1.2224e-09
4.91747e-11
1.16172e-09
-9.69184e-10
6.98357e-11
1.27088e-09
-6.96107e-10
1.03593e-10
1.28371e-09
-4.16584e-10
1.46368e-10
1.19148e-09
-1.50151e-10
1.88687e-10
1.0076e-09
8.10656e-11
2.19748e-10
7.60593e-10
2.4981e-10
2.40902e-10
4.90705e-10
3.38057e-10
2.56939e-10
2.31392e-10
3.4267e-10
2.70505e-10
6.7016e-12
2.77008e-10
2.85091e-10
-1.76572e-10
1.63811e-10
3.02481e-10
-3.19969e-10
2.19317e-11
3.16945e-10
-4.36402e-10
-1.31079e-10
3.32051e-10
-5.40019e-10
-2.87856e-10
3.39497e-10
-6.38586e-10
-4.36041e-10
3.34796e-10
-7.3905e-10
-5.6568e-10
3.14041e-10
-8.40044e-10
-6.68066e-10
2.89482e-10
-9.33147e-10
-7.23564e-10
2.64281e-10
-1.00309e-09
-7.33893e-10
2.44084e-10
-1.03228e-09
-7.07182e-10
2.34276e-10
-1.00436e-09
-6.63927e-10
2.39332e-10
-9.03014e-10
-6.35119e-10
2.44692e-10
-7.22089e-10
-6.48136e-10
2.49843e-10
-4.71184e-10
-7.22429e-10
2.60691e-10
-1.75307e-10
-8.37845e-10
2.76281e-10
-1.12695e-09
3.03919e-10
5.74135e-11
-1.58997e-09
5.74135e-11
3.58057e-10
-2.17169e-09
6.37592e-11
6.24467e-10
-1.93911e-09
6.72233e-11
8.95874e-10
-1.77549e-09
8.11468e-11
1.14431e-09
-1.55622e-09
1.09454e-10
1.34025e-09
-1.28906e-09
1.48134e-10
1.45472e-09
-9.77132e-10
1.91018e-10
1.47197e-09
-6.40956e-10
2.31916e-10
1.39414e-09
-3.11779e-10
2.64786e-10
1.23623e-09
-2.33444e-11
2.88187e-10
1.01542e-09
1.88717e-10
3.08265e-10
7.56724e-10
2.95039e-10
3.28499e-10
4.74257e-10
3.0006e-10
3.52225e-10
1.8332e-10
2.21442e-10
3.73933e-10
-1.11844e-10
9.95229e-11
3.87075e-10
-4.03328e-10
-4.67023e-11
3.87808e-10
-6.74763e-10
-2.05852e-10
3.73813e-10
-9.06727e-10
-3.64047e-10
3.355e-10
-1.08482e-09
-5.20212e-10
2.89175e-10
-1.20563e-09
-6.63395e-10
2.44893e-10
-1.26436e-09
-7.9792e-10
2.14322e-10
-1.27193e-09
-8.96404e-10
2.05532e-10
-1.23696e-09
-9.59099e-10
2.14782e-10
-1.16397e-09
-9.94911e-10
2.3875e-10
-1.04547e-09
-1.02704e-09
2.6815e-10
-8.76792e-10
-1.07849e-09
2.9778e-10
-6.55305e-10
-1.17332e-09
3.26413e-10
-3.99483e-10
-1.30471e-09
3.48893e-10
-1.38658e-10
-1.43968e-09
3.6326e-10
-1.62224e-09
3.74951e-10
1.3006e-10
-1.83514e-09
1.3006e-10
4.78024e-10
-2.6468e-09
1.54586e-10
7.65417e-10
-2.3789e-09
1.76921e-10
1.03661e-09
-2.22549e-09
2.03348e-10
1.26115e-09
-1.99743e-09
2.41314e-10
1.4196e-09
-1.70217e-09
2.79686e-10
1.50399e-09
-1.34523e-09
3.09237e-10
1.52107e-09
-9.53101e-10
3.21191e-10
1.48091e-09
-5.6575e-10
3.20967e-10
1.3856e-09
-2.24728e-10
3.24232e-10
1.23054e-09
3.46977e-11
3.37214e-10
1.00886e-09
1.89456e-10
3.55911e-10
7.16002e-10
2.42341e-10
3.79643e-10
3.49555e-10
2.20271e-10
3.96995e-10
-6.89237e-11
1.51031e-10
3.96511e-10
-5.05599e-10
4.80062e-11
3.71491e-10
-9.19574e-10
-8.84768e-11
3.25904e-10
-1.26473e-09
-2.61286e-10
2.71289e-10
-1.49886e-09
-4.69767e-10
2.12033e-10
-1.61471e-09
-6.9714e-10
1.77302e-10
-1.63156e-09
-9.20653e-10
1.66619e-10
-1.57296e-09
-1.10981e-09
1.8117e-10
-1.45841e-09
-1.25827e-09
2.10307e-10
-1.29866e-09
-1.37663e-09
2.46985e-10
-1.10127e-09
-1.48474e-09
2.84685e-10
-8.66096e-10
-1.60914e-09
3.19241e-10
-6.06141e-10
-1.75896e-09
3.48954e-10
-3.4571e-10
-1.9155e-09
3.73234e-10
-1.13551e-10
-2.03811e-09
3.88872e-10
-2.11916e-09
4.01956e-10
3.11373e-10
-2.44293e-09
3.11373e-10
6.40107e-10
-3.28732e-09
3.39514e-10
9.03798e-10
-2.99485e-09
3.77056e-10
1.11974e-09
-2.81599e-09
3.99564e-10
1.27285e-09
-2.55423e-09
4.29063e-10
1.36996e-09
-2.20473e-09
4.31439e-10
1.42804e-09
-1.7877e-09
4.11056e-10
1.46296e-09
-1.3386e-09
3.78033e-10
1.47968e-09
-9.03501e-10
3.49292e-10
1.46925e-09
-5.18421e-10
3.33137e-10
1.39607e-09
-2.04575e-10
3.42115e-10
1.21889e-09
3.50564e-11
3.61794e-10
9.15643e-10
2.03039e-10
3.73191e-10
4.87939e-10
3.02662e-10
3.76247e-10
-2.59365e-11
3.34921e-10
3.61017e-10
-5.67736e-10
2.95917e-10
3.24805e-10
-1.07433e-09
1.70433e-10
2.78275e-10
-1.48193e-09
-5.39345e-11
2.30369e-10
-1.75016e-09
-3.65081e-10
1.93086e-10
-1.88847e-09
-7.14701e-10
1.84788e-10
-1.91063e-09
-1.06443e-09
1.94178e-10
-1.83933e-09
-1.37313e-09
2.19538e-10
-1.69754e-09
-1.62585e-09
2.52527e-10
-1.49705e-09
-1.83469e-09
2.83474e-10
-1.24309e-09
-2.02515e-09
3.11541e-10
-9.47939e-10
-2.21829e-09
3.38341e-10
-6.38114e-10
-2.41012e-09
3.65032e-10
-3.52821e-10
-2.5714e-09
3.93783e-10
-1.16474e-10
-2.66758e-09
4.15962e-10
-2.6547e-09
4.37783e-10
5.55977e-10
-3.53989e-09
5.55977e-10
7.77923e-10
-4.04962e-09
5.685e-10
9.9286e-10
-3.7741e-09
5.89604e-10
1.14199e-09
-3.51731e-09
5.77889e-10
1.23401e-09
-3.17733e-09
5.5735e-10
1.29224e-09
-2.75252e-09
5.16597e-10
1.34775e-09
-2.27876e-09
4.6338e-10
1.42257e-09
-1.79524e-09
4.1051e-10
1.51009e-09
-1.33533e-09
3.73794e-10
1.57599e-09
-9.16918e-10
3.62822e-10
1.55574e-09
-5.24142e-10
3.70713e-10
1.39556e-09
-1.60367e-10
3.87043e-10
1.06723e-09
1.62323e-10
4.00919e-10
5.95757e-10
4.20956e-10
3.85303e-10
3.5461e-11
5.73464e-10
3.53906e-10
-5.48598e-10
5.84647e-10
3.27304e-10
-1.08649e-09
4.40709e-10
2.9925e-10
-1.51722e-09
1.2919e-10
2.78791e-10
-1.82683e-09
-3.03242e-10
2.78454e-10
-2.0192e-09
-7.85801e-10
2.93589e-10
-2.10663e-09
-1.26411e-09
3.16536e-10
-2.09836e-09
-1.6895e-09
3.3672e-10
-1.99598e-09
-2.0533e-09
3.52745e-10
-1.79578e-09
-2.37322e-09
3.65022e-10
-1.50484e-09
-2.66913e-09
3.78748e-10
-1.15564e-09
-2.94225e-09
3.99548e-10
-7.9435e-10
-3.17494e-09
4.2751e-10
-4.63064e-10
-3.33449e-09
4.55099e-10
-1.7835e-10
-3.40417e-09
4.74651e-10
-3.31027e-09
4.9571e-10
7.59728e-10
-5.04414e-09
7.59728e-10
8.88811e-10
-4.8505e-09
7.00522e-10
1.0669e-09
-4.601e-09
6.74808e-10
1.19897e-09
-4.26622e-09
6.43321e-10
1.28477e-09
-3.83536e-09
5.99466e-10
1.35809e-09
-3.34469e-09
5.46908e-10
1.45302e-09
-2.83907e-09
4.94269e-10
1.58273e-09
-2.34865e-09
4.5349e-10
1.71844e-09
-1.87985e-09
4.3935e-10
1.8007e-09
-1.41493e-09
4.47019e-10
1.75969e-09
-9.16867e-10
4.65689e-10
1.55449e-09
-4.00341e-10
4.77706e-10
1.18443e-09
9.39978e-11
4.7132e-10
6.86966e-10
4.99512e-10
4.52051e-10
1.18695e-10
7.35778e-10
4.3909e-10
-4.48619e-10
7.65071e-10
4.19845e-10
-9.75397e-10
5.84882e-10
4.15274e-10
-1.43401e-09
1.88335e-10
4.31778e-10
-1.8149e-09
-3.5088e-10
4.60414e-10
-2.11101e-09
-9.4719e-10
4.88817e-10
-2.31662e-09
-1.53493e-09
5.06983e-10
-2.41592e-09
-2.07937e-09
5.1878e-10
-2.38349e-09
-2.57194e-09
5.14709e-10
-2.20144e-09
-3.03008e-09
5.02155e-10
-1.89395e-09
-3.45166e-09
5.01215e-10
-1.51055e-09
-3.81737e-09
5.1678e-10
-1.10613e-09
-4.09373e-09
5.38368e-10
-7.15812e-10
-4.25865e-09
5.56907e-10
-3.42782e-10
-4.31913e-09
5.64214e-10
-4.19e-09
5.5485e-10
8.19517e-10
-6.66756e-09
8.19517e-10
9.5468e-10
-5.67167e-09
7.15304e-10
1.18887e-09
-5.48112e-09
6.72663e-10
1.39692e-09
-5.07889e-09
6.31862e-10
1.57238e-09
-4.57672e-09
5.93996e-10
1.74024e-09
-4.04813e-09
5.64526e-10
1.91272e-09
-3.53425e-09
5.52551e-10
2.08258e-09
-3.04591e-09
5.58193e-10
2.19448e-09
-2.54635e-09
5.86173e-10
2.19756e-09
-1.99419e-09
6.0856e-10
2.04723e-09
-1.36159e-09
6.28166e-10
1.73483e-09
-6.80923e-10
6.26688e-10
1.2927e-09
-3.37135e-11
6.03917e-10
7.73261e-10
4.78884e-10
5.74304e-10
2.17759e-10
7.58818e-10
5.66669e-10
-3.35941e-10
7.79786e-10
5.73047e-10
-8.70694e-10
5.47864e-10
6.05621e-10
-1.38317e-09
8.58508e-11
6.48518e-10
-1.8635e-09
-5.25435e-10
6.87995e-10
-2.29086e-09
-1.19883e-09
7.11458e-10
-2.63232e-09
-1.87494e-09
7.13032e-10
-2.83664e-09
-2.53934e-09
6.9475e-10
-2.86186e-09
-3.18685e-09
6.69342e-10
-2.70546e-09
-3.81039e-09
6.51834e-10
-2.40214e-09
-4.37721e-09
6.48826e-10
-2.00365e-09
-4.84059e-09
6.49977e-10
-1.55802e-09
-5.16515e-09
6.4971e-10
-1.09018e-09
-5.34629e-09
6.42508e-10
-5.93015e-10
-5.41388e-09
6.19336e-10
-5.34431e-09
5.78813e-10
7.75302e-10
-8.20212e-09
7.75302e-10
1.08845e-09
-6.62823e-09
6.7312e-10
1.48263e-09
-6.48812e-09
6.40073e-10
1.86032e-09
-6.04295e-09
6.14122e-10
2.20082e-09
-5.50268e-09
6.14179e-10
2.5058e-09
-4.95996e-09
6.36549e-10
2.75849e-09
-4.43422e-09
6.78033e-10
2.92095e-09
-3.90319e-09
7.26704e-10
2.93576e-09
-3.30399e-09
7.75647e-10
2.771e-09
-2.60245e-09
8.06739e-10
2.43741e-09
-1.80475e-09
8.11282e-10
1.97301e-09
-9.75885e-10
7.94455e-10
1.43634e-09
-2.2644e-10
7.64805e-10
8.73535e-10
3.28886e-10
7.48309e-10
2.95347e-10
6.15697e-10
7.56793e-10
-2.91689e-10
6.12449e-10
7.89762e-10
-8.87931e-10
3.43736e-10
8.35592e-10
-1.49968e-09
-1.48966e-10
8.8148e-10
-2.11165e-09
-7.88363e-10
9.09282e-10
-2.67741e-09
-1.50855e-09
9.09065e-10
-3.12526e-09
-2.27946e-09
8.84948e-10
-3.39395e-09
-3.08924e-09
8.49972e-10
-3.45419e-09
-3.91628e-09
8.19779e-10
-3.31842e-09
-4.71597e-09
7.98545e-10
-3.0276e-09
-5.42381e-09
7.83045e-10
-2.62466e-09
-5.98369e-09
7.65829e-10
-2.13426e-09
-6.37139e-09
7.39953e-10
-1.56022e-09
-6.60167e-09
7.04154e-10
-8.87201e-10
-6.72302e-09
6.58114e-10
-6.82537e-09
6.11969e-10
7.27022e-10
-9.63984e-09
7.27022e-10
1.36498e-09
-7.89921e-09
6.62917e-10
2.00912e-09
-7.77633e-09
6.7162e-10
2.61689e-09
-7.30302e-09
6.80381e-10
3.16425e-09
-6.74975e-09
7.28957e-10
3.61881e-09
-6.17468e-09
7.90609e-10
3.91981e-09
-5.56867e-09
8.65232e-10
4.00676e-09
-4.89417e-09
9.37178e-10
3.86005e-09
-4.10976e-09
9.86767e-10
3.48962e-09
-3.20912e-09
1.0124e-09
2.95177e-09
-2.23884e-09
1.00803e-09
2.32671e-09
-1.29516e-09
9.80945e-10
1.67311e-09
-5.02112e-10
9.66142e-10
1.01378e-09
5.11791e-11
9.73997e-10
3.38467e-10
3.22995e-10
1.00501e-09
-3.65819e-10
3.053e-10
1.04841e-09
-1.10342e-09
2.8458e-11
1.08971e-09
-1.87174e-09
-4.61864e-10
1.11767e-09
-2.62832e-09
-1.11797e-09
1.12199e-09
-3.30159e-09
-1.90242e-09
1.10205e-09
-3.81563e-09
-2.79969e-09
1.06812e-09
-4.12219e-09
-3.78269e-09
1.03269e-09
-4.2089e-09
-4.79956e-09
1.00139e-09
-4.09486e-09
-5.77314e-09
9.73066e-10
-3.80943e-09
-6.62269e-09
9.41745e-10
-3.37126e-09
-7.2975e-09
9.02211e-10
-2.78086e-09
-7.79039e-09
8.53621e-10
-2.03214e-09
-8.12806e-09
8.01597e-10
-1.1319e-09
-8.36413e-09
7.64306e-10
-8.70526e-09
7.67596e-10
8.00781e-10
-1.1225e-08
8.00781e-10
1.80353e-09
-9.69908e-09
8.27188e-10
2.74142e-09
-9.54989e-09
8.63467e-10
3.60611e-09
-9.02372e-09
8.84485e-10
4.35839e-09
-8.41485e-09
9.42654e-10
4.92744e-09
-7.7308e-09
1.01835e-09
5.23546e-09
-6.94796e-09
1.10419e-09
5.23335e-09
-6.03368e-09
1.17609e-09
4.92723e-09
-4.98878e-09
1.22095e-09
4.37062e-09
-3.85512e-09
1.23946e-09
3.65378e-09
-2.72247e-09
1.23807e-09
2.86245e-09
-1.7028e-09
1.23704e-09
2.04484e-09
-8.95248e-10
1.2491e-09
1.20526e-09
-3.51785e-10
1.28112e-09
3.32808e-10
-9.01512e-11
1.32435e-09
-5.84603e-10
-1.02867e-10
1.3644e-09
-1.53718e-09
-3.70366e-10
1.39005e-09
-2.4957e-09
-8.60751e-10
1.39557e-09
-3.39421e-09
-1.55836e-09
1.37632e-09
-4.1584e-09
-2.44619e-09
1.34443e-09
-4.7279e-09
-3.50383e-09
1.30905e-09
-5.0692e-09
-4.68113e-09
1.27398e-09
-5.17772e-09
-5.89609e-09
1.23792e-09
-5.06575e-09
-7.04989e-09
1.19605e-09
-4.74013e-09
-8.0661e-09
1.1473e-09
-4.19707e-09
-8.90556e-09
1.09287e-09
-3.43211e-09
-9.56668e-09
1.03794e-09
-2.45247e-09
-1.00933e-08
1.01147e-09
-1.29871e-09
-1.05142e-08
1.02183e-09
-1.10271e-08
1.04425e-09
1.06366e-09
-1.33358e-08
1.06366e-09
2.41725e-09
-1.21363e-08
1.11414e-09
3.64011e-09
-1.18821e-08
1.13764e-09
4.74651e-09
-1.12763e-08
1.17528e-09
5.67039e-09
-1.05482e-08
1.24002e-09
6.32506e-09
-9.67313e-09
1.31988e-09
6.63483e-09
-8.62519e-09
1.40145e-09
6.56705e-09
-7.40007e-09
1.46976e-09
6.14697e-09
-6.04953e-09
1.51783e-09
5.45143e-09
-4.67041e-09
1.54888e-09
4.57613e-09
-3.38145e-09
1.57308e-09
3.59423e-09
-2.2857e-09
1.60415e-09
2.54018e-09
-1.44685e-09
1.64547e-09
1.42492e-09
-8.83892e-10
1.68762e-09
2.54229e-10
-6.02647e-10
1.72378e-09
-9.57089e-10
-5.96289e-10
1.74543e-09
-2.17153e-09
-8.59651e-10
1.74415e-09
-3.33663e-09
-1.38376e-09
1.72794e-09
-4.38864e-09
-2.16401e-09
1.69664e-09
-5.2583e-09
-3.19522e-09
1.65666e-09
-5.89757e-09
-4.44075e-09
1.61305e-09
-6.28034e-09
-5.82746e-09
1.56462e-09
-6.39762e-09
-7.25646e-09
1.5116e-09
-6.24287e-09
-8.62611e-09
1.45372e-09
-5.80573e-09
-9.86446e-09
1.39183e-09
-5.07746e-09
-1.09416e-08
1.33713e-09
-4.07312e-09
-1.18626e-08
1.31997e-09
-2.82306e-09
-1.26352e-08
1.31957e-09
-1.41437e-09
-1.32338e-08
1.33798e-09
-1.37807e-08
1.3615e-09
1.4266e-09
-1.61722e-08
1.4266e-09
3.11869e-09
-1.52678e-08
1.47077e-09
4.63224e-09
-1.48645e-08
1.49807e-09
5.98407e-09
-1.41444e-08
1.54623e-09
7.08395e-09
-1.32332e-08
1.61656e-09
7.83398e-09
-1.20908e-08
1.70064e-09
8.16282e-09
-1.07042e-08
1.78492e-09
8.05894e-09
-9.11725e-09
1.85733e-09
7.5667e-09
-7.43685e-09
1.9172e-09
6.75979e-09
-5.79757e-09
1.9728e-09
5.71492e-09
-4.32604e-09
2.02905e-09
4.48992e-09
-3.10606e-09
2.08573e-09
3.12425e-09
-2.17485e-09
2.13478e-09
1.65208e-09
-1.53956e-09
2.16961e-09
1.11279e-10
-1.20565e-09
2.18598e-09
-1.44583e-09
-1.17755e-09
2.18055e-09
-2.96293e-09
-1.45801e-09
2.15723e-09
-4.37495e-09
-2.04963e-09
2.11894e-09
-5.61277e-09
-2.95559e-09
2.06952e-09
-6.61917e-09
-4.16244e-09
2.01266e-09
-7.35127e-09
-5.62081e-09
1.94987e-09
-7.77739e-09
-7.24542e-09
1.88024e-09
-7.87387e-09
-8.93499e-09
1.80947e-09
-7.62013e-09
-1.059e-08
1.74305e-09
-7.00975e-09
-1.21382e-08
1.695e-09
-6.04298e-09
-1.35324e-08
1.65482e-09
-4.75292e-09
-1.4758e-08
1.63545e-09
-3.23121e-09
-1.57717e-08
1.64386e-09
-1.59731e-09
-1.64911e-08
1.65151e-09
-1.69982e-08
1.64341e-09
1.84567e-09
-1.98461e-08
1.84567e-09
3.89559e-09
-1.9171e-08
1.88594e-09
5.74488e-09
-1.86079e-08
1.92433e-09
7.36953e-09
-1.77305e-08
1.99242e-09
8.65951e-09
-1.65715e-08
2.08049e-09
9.51662e-09
-1.50909e-08
2.17659e-09
9.88564e-09
-1.33068e-08
2.2687e-09
9.77082e-09
-1.13168e-08
2.35078e-09
9.22123e-09
-9.27424e-09
2.4247e-09
8.29507e-09
-7.33425e-09
2.50173e-09
7.04424e-09
-5.6133e-09
2.57809e-09
5.52128e-09
-4.18455e-09
2.6425e-09
3.78223e-09
-3.08107e-09
2.68732e-09
1.89648e-09
-2.31978e-09
2.70879e-09
-5.63064e-11
-1.91404e-09
2.70432e-09
-2.00221e-09
-1.87054e-09
2.6819e-09
-3.8678e-09
-2.19332e-09
2.64339e-09
-5.57681e-09
-2.88666e-09
2.58774e-09
-7.05578e-09
-3.9537e-09
2.51781e-09
-8.24191e-09
-5.37463e-09
2.4378e-09
-9.08603e-09
-7.09333e-09
2.35461e-09
-9.54855e-09
-9.01984e-09
2.27325e-09
-9.59702e-09
-1.1047e-08
2.19534e-09
-9.21167e-09
-1.30673e-08
2.12561e-09
-8.39152e-09
-1.49954e-08
2.06989e-09
-7.16093e-09
-1.67629e-08
2.03194e-09
-5.59232e-09
-1.83105e-08
2.01486e-09
-3.80358e-09
-1.9532e-08
2.00148e-09
-1.915e-09
-2.03198e-08
1.96949e-09
-2.08237e-08
1.935e-09
2.31245e-09
-2.4453e-08
2.31245e-09
4.8011e-09
-2.39918e-08
2.36604e-09
7.04459e-09
-2.32567e-08
2.43634e-09
8.97213e-09
-2.21619e-08
2.53562e-09
1.04614e-08
-2.06713e-08
2.6431e-09
1.14272e-08
-1.87708e-08
2.7479e-09
1.18427e-08
-1.65316e-08
2.84421e-09
1.17294e-08
-1.40977e-08
2.93023e-09
1.11224e-08
-1.1644e-08
3.0141e-09
1.00522e-08
-9.32669e-09
3.10127e-09
8.55612e-09
-7.26528e-09
3.1881e-09
6.69289e-09
-5.53584e-09
3.25588e-09
4.54508e-09
-4.19041e-09
3.29964e-09
2.2159e-09
-3.26813e-09
3.32072e-09
-1.89348e-10
-2.78488e-09
3.31948e-09
-2.5763e-09
-2.73854e-09
3.29814e-09
-4.854e-09
-3.1278e-09
3.25486e-09
-6.92788e-09
-3.95904e-09
3.18823e-09
-8.70762e-09
-5.23472e-09
3.1017e-09
-1.01158e-08
-6.93348e-09
3.00659e-09
-1.10936e-08
-8.9877e-09
2.91016e-09
-1.15953e-08
-1.1299e-08
2.81749e-09
-1.15927e-08
-1.37469e-08
2.73271e-09
-1.10726e-08
-1.62095e-08
2.6567e-09
-1.00443e-08
-1.85805e-08
2.59077e-09
-8.55441e-09
-2.07578e-08
2.5378e-09
-6.70303e-09
-2.2617e-08
2.48684e-09
-4.60583e-09
-2.40218e-08
2.42367e-09
-2.3407e-09
-2.49051e-08
2.35104e-09
-2.54639e-08
2.32526e-09
2.86817e-09
-3.01706e-08
2.86817e-09
5.88181e-09
-2.99259e-08
2.95523e-09
8.5666e-09
-2.89693e-08
3.05945e-09
1.08196e-08
-2.75598e-08
3.17706e-09
1.2518e-08
-2.56306e-08
3.29357e-09
1.36088e-08
-2.32327e-08
3.40474e-09
1.40979e-08
-2.04776e-08
3.49134e-09
1.40019e-08
-1.75454e-08
3.5792e-09
1.33269e-08
-1.46145e-08
3.68233e-09
1.20848e-08
-1.18393e-08
3.79291e-09
1.03085e-08
-9.34593e-09
3.89672e-09
8.07187e-09
-7.23995e-09
3.9819e-09
5.48434e-09
-5.60671e-09
4.04615e-09
2.67038e-09
-4.49889e-09
4.08766e-09
-2.47522e-10
-3.9286e-09
4.10474e-09
-3.15454e-09
-3.88225e-09
4.09373e-09
-5.92935e-09
-4.35868e-09
4.04832e-09
-8.44575e-09
-5.3709e-09
3.97022e-09
-1.05875e-08
-6.92211e-09
3.87005e-09
-1.22625e-08
-8.98045e-09
3.76147e-09
-1.34045e-08
-1.14596e-08
3.65212e-09
-1.39705e-08
-1.42425e-08
3.54675e-09
-1.39365e-08
-1.7188e-08
3.44344e-09
-1.32927e-08
-2.01592e-08
3.34157e-09
-1.20594e-08
-2.30248e-08
3.24561e-09
-1.03072e-08
-2.5629e-08
3.15231e-09
-8.13901e-09
-2.78014e-08
3.04897e-09
-5.63869e-09
-2.94235e-08
2.934e-09
-2.86222e-09
-3.05002e-08
2.85107e-09
-3.11619e-08
2.86263e-09
3.5487e-09
-3.72489e-08
3.5487e-09
7.13977e-09
-3.71424e-08
3.6608e-09
1.02976e-08
-3.58719e-08
3.77648e-09
1.29048e-08
-3.40388e-08
3.904e-09
1.4862e-08
-3.158e-08
4.0248e-09
1.61512e-08
-2.86028e-08
4.11404e-09
1.67687e-08
-2.52774e-08
4.21612e-09
1.67066e-08
-2.17923e-08
4.34382e-09
1.59514e-08
-1.83142e-08
4.49089e-09
1.45035e-08
-1.49967e-08
4.64278e-09
1.24058e-08
-1.19926e-08
4.78349e-09
9.75212e-09
-9.45128e-09
4.90561e-09
6.66967e-09
-7.4882e-09
5.00556e-09
3.29453e-09
-6.16039e-09
5.07887e-09
-2.34937e-10
-5.47383e-09
5.11724e-09
-3.76445e-09
-5.42107e-09
5.11095e-09
-7.13247e-09
-6.00711e-09
5.05883e-09
-1.01727e-08
-7.25535e-09
4.96639e-09
-1.27445e-08
-9.16034e-09
4.85071e-09
-1.47444e-08
-1.16637e-08
4.72264e-09
-1.61022e-08
-1.4652e-08
4.58884e-09
-1.6774e-08
-1.79812e-08
4.44843e-09
-1.67306e-08
-2.14944e-08
4.30013e-09
-1.59652e-08
-2.50407e-08
4.15187e-09
-1.45155e-08
-2.84466e-08
4.00678e-09
-1.24654e-08
-3.1504e-08
3.85878e-09
-9.89498e-09
-3.40346e-08
3.69659e-09
-6.85822e-09
-3.59805e-08
3.55404e-09
-3.45528e-09
-3.7365e-08
3.49541e-09
-3.81137e-08
3.52438e-09
4.346e-09
-4.59218e-08
4.346e-09
8.53743e-09
-4.57534e-08
4.45473e-09
1.22231e-08
-4.41078e-08
4.5817e-09
1.5273e-08
-4.17413e-08
4.68455e-09
1.76072e-08
-3.86725e-08
4.79053e-09
1.91866e-08
-3.50732e-08
4.92359e-09
1.99882e-08
-3.11386e-08
5.0927e-09
1.99759e-08
-2.70401e-08
5.29397e-09
1.91158e-08
-2.29291e-08
5.51015e-09
1.74153e-08
-1.89799e-08
5.72038e-09
1.49391e-08
-1.53935e-08
5.9152e-09
1.17972e-08
-1.23579e-08
6.088e-09
8.12464e-09
-1.00095e-08
6.2343e-09
4.0715e-09
-8.4065e-09
6.34052e-09
-1.91131e-10
-7.56371e-09
6.39432e-09
-4.46e-09
-7.49596e-09
6.38579e-09
-8.51968e-09
-8.22608e-09
6.32046e-09
-1.21727e-08
-9.77312e-09
6.21191e-09
-1.52573e-08
-1.21097e-08
6.07424e-09
-1.76585e-08
-1.51377e-08
5.91451e-09
-1.92956e-08
-1.87123e-08
5.73625e-09
-2.011e-08
-2.2667e-08
5.53825e-09
-2.00619e-08
-2.68371e-08
5.33143e-09
-1.9162e-08
-3.10286e-08
5.12353e-09
-1.74665e-08
-3.50172e-08
4.90967e-09
-1.50438e-08
-3.85743e-08
4.68202e-09
-1.19393e-08
-4.15735e-08
4.469e-09
-8.24121e-09
-4.39779e-08
4.33363e-09
-4.14047e-09
-4.57149e-08
4.28331e-09
-4.65111e-08
4.28533e-09
5.23157e-09
-5.63661e-08
5.23157e-09
1.00757e-08
-5.58769e-08
5.31435e-09
1.44052e-08
-5.38097e-08
5.40367e-09
1.80556e-08
-5.08832e-08
5.52293e-09
2.09156e-08
-4.71921e-08
5.69127e-09
2.29038e-08
-4.2942e-08
5.9125e-09
2.39441e-08
-3.83293e-08
6.18263e-09
2.39679e-08
-3.35115e-08
6.48068e-09
2.29493e-08
-2.86563e-08
6.78002e-09
2.0925e-08
-2.39834e-08
7.06322e-09
1.79795e-08
-1.9742e-08
7.33093e-09
1.42436e-08
-1.61537e-08
7.56992e-09
9.85437e-09
-1.33513e-08
7.77031e-09
4.98456e-09
-1.14063e-08
7.90982e-09
-1.44594e-10
-1.03692e-08
7.97549e-09
-5.27607e-09
-1.02877e-08
7.96434e-09
-1.01402e-08
-1.12089e-08
7.88765e-09
-1.45083e-08
-1.31227e-08
7.75773e-09
-1.82057e-08
-1.59603e-08
7.58725e-09
-2.10973e-08
-1.95868e-08
7.37951e-09
-2.30782e-08
-2.38277e-08
7.13457e-09
-2.40686e-08
-2.85048e-08
6.86522e-09
-2.40378e-08
-3.34184e-08
6.58604e-09
-2.29955e-08
-3.8327e-08
6.29069e-09
-2.09904e-08
-4.2959e-08
5.97095e-09
-1.80525e-08
-4.71312e-08
5.65348e-09
-1.42701e-08
-5.07443e-08
5.42273e-09
-9.82666e-09
-5.3676e-08
5.28891e-09
-4.97344e-09
-5.57248e-08
5.19111e-09
-5.65864e-08
5.1303e-09
6.17544e-09
-6.86983e-08
6.17544e-09
1.18568e-08
-6.77415e-08
6.21775e-09
1.70211e-08
-6.52691e-08
6.32603e-09
2.14438e-08
-6.17973e-08
6.52246e-09
2.4961e-08
-5.74746e-08
6.79637e-09
2.74305e-08
-5.25184e-08
7.1378e-09
2.87251e-08
-4.71187e-08
7.52626e-09
2.8765e-08
-4.14505e-08
7.93122e-09
2.75484e-08
-3.57339e-08
8.32734e-09
2.51407e-08
-3.02502e-08
8.7089e-09
2.16437e-08
-2.5282e-08
9.07275e-09
1.71793e-08
-2.10529e-08
9.4005e-09
1.19067e-08
-1.7708e-08
9.66749e-09
6.04989e-09
-1.53574e-08
9.84701e-09
-1.07553e-10