/*--------------------------------*- C++ -*----------------------------------*\
| =========                 |                                                 |
| \\      /  F ield         | OpenFOAM: The Open Source CFD Toolbox           |
|  \\    /   O peration     | Version:  2312                                  |
|   \\  /    A nd           | Website:  www.openfoam.com                      |
|    \\/     M anipulation  |                                                 |
\*---------------------------------------------------------------------------*/
FoamFile
{
    version     2.0;
    format      ascii;
    arch        "LSB;label=32;scalar=64";
    class       volVectorField;
    location    "0.303149";
    object      U;
}
// * * * * * * * * * * * * * * * * * * * * * * * * * * * * * * * * * * * * * //

dimensions      [0 1 -1 0 0 0 0];

internalField   nonuniform List<vector> 
90000
(
(1.00856e-06 -1.42442e-06 1.00856e-06)
(5.33032e-07 8.41951e-07 5.26052e-07)
(-9.94378e-07 3.29478e-07 4.35203e-07)
(-1.1859e-06 1.58334e-07 2.33515e-07)
(-1.35479e-06 5.61601e-08 1.36376e-07)
(-1.25449e-06 -7.01327e-08 7.60002e-08)
(-8.81191e-07 -2.0141e-07 4.64489e-08)
(-3.61498e-07 -2.79606e-07 3.27514e-08)
(1.52245e-07 -2.48818e-07 3.75951e-08)
(4.94131e-07 -1.11023e-07 1.4236e-08)
(5.7762e-07 9.42251e-08 -6.65587e-08)
(4.55061e-07 3.24521e-07 -2.07353e-07)
(2.69628e-07 4.84991e-07 -3.77947e-07)
(1.93184e-07 5.25663e-07 -5.3946e-07)
(4.02226e-07 4.50301e-07 -6.25979e-07)
(9.32778e-07 2.55991e-07 -6.15429e-07)
(1.60028e-06 3.64052e-08 -4.45438e-07)
(2.17647e-06 -8.5801e-08 -1.15557e-07)
(2.4127e-06 -1.06647e-07 1.9412e-07)
(2.05502e-06 1.67617e-09 4.71151e-07)
(9.38667e-07 2.00926e-07 6.46381e-07)
(-8.66354e-07 5.26585e-07 6.98691e-07)
(-3.11065e-06 8.12995e-07 5.99779e-07)
(-5.46293e-06 9.66775e-07 4.30472e-07)
(-7.35732e-06 8.63206e-07 1.16416e-07)
(-8.19972e-06 3.67585e-07 -3.12555e-07)
(-7.67946e-06 -4.16677e-07 -6.5397e-07)
(-5.79367e-06 -1.15418e-06 -5.78417e-07)
(-2.33556e-06 -1.89596e-06 -1.07997e-07)
(-5.89717e-08 -2.08032e-06 1.85959e-06)
(-3.06331e-07 -2.10428e-06 -3.06331e-07)
(-3.21506e-07 1.5969e-06 -1.59532e-07)
(9.72492e-08 5.67113e-07 -1.23826e-07)
(3.33844e-07 2.49569e-07 -5.2264e-08)
(5.50177e-07 -3.81647e-08 2.20266e-08)
(7.63791e-07 -3.70149e-07 8.53006e-08)
(9.58442e-07 -6.71339e-07 1.33382e-07)
(1.13534e-06 -8.18477e-07 1.51095e-07)
(1.27376e-06 -7.2314e-07 1.34899e-07)
(1.36639e-06 -4.00934e-07 1.06278e-07)
(1.44708e-06 3.99153e-08 8.49196e-08)
(1.51522e-06 4.81257e-07 7.55739e-08)
(1.55505e-06 7.70555e-07 1.07129e-07)
(1.5621e-06 8.17295e-07 1.77155e-07)
(1.48835e-06 6.35615e-07 2.70822e-07)
(1.2851e-06 3.02116e-07 3.69425e-07)
(9.29643e-07 -4.97539e-09 3.94966e-07)
(4.186e-07 -9.53187e-08 3.14982e-07)
(-2.3614e-07 6.09083e-08 1.91676e-07)
(-9.95463e-07 4.96669e-07 2.45607e-08)
(-1.70994e-06 1.042e-06 -1.37601e-07)
(-2.31172e-06 1.60559e-06 -1.95777e-07)
(-2.72607e-06 1.91981e-06 -1.34314e-07)
(-2.72228e-06 1.82085e-06 1.05652e-08)
(-2.3604e-06 9.81064e-07 2.99052e-07)
(-1.69389e-06 -5.67169e-07 6.43497e-07)
(-5.54534e-07 -2.59416e-06 9.57905e-07)
(7.91495e-07 -4.27056e-06 1.06498e-06)
(9.85689e-07 -5.45106e-06 1.24076e-06)
(2.9131e-07 -5.78249e-06 1.22497e-06)
(-2.31967e-07 -1.26663e-06 -2.31967e-07)
(4.13039e-07 8.72563e-07 -2.80934e-08)
(1.67205e-06 1.45633e-08 8.7803e-08)
(2.32952e-06 -2.19139e-07 1.90397e-07)
(2.73324e-06 -5.0019e-07 2.72534e-07)
(2.8617e-06 -7.97541e-07 3.12387e-07)
(2.77754e-06 -1.02776e-06 3.00667e-07)
(2.5851e-06 -1.09286e-06 2.58895e-07)
(2.40874e-06 -9.45406e-07 2.17128e-07)
(2.33531e-06 -6.23676e-07 1.7675e-07)
(2.39922e-06 -2.13491e-07 1.79012e-07)
(2.54804e-06 1.43977e-07 2.4165e-07)
(2.63109e-06 3.82969e-07 3.56788e-07)
(2.47148e-06 4.59104e-07 4.91708e-07)
(1.9246e-06 4.02137e-07 5.99203e-07)
(9.43846e-07 3.46257e-07 6.08047e-07)
(-3.74115e-07 3.77923e-07 5.06735e-07)
(-1.79645e-06 5.84755e-07 3.1182e-07)
(-3.0164e-06 9.92909e-07 2.9044e-08)
(-3.70928e-06 1.53934e-06 -2.63852e-07)
(-3.67368e-06 1.97003e-06 -4.71725e-07)
(-2.88698e-06 2.1056e-06 -5.50124e-07)
(-1.47139e-06 1.7827e-06 -4.70593e-07)
(3.14832e-07 9.26217e-07 -1.8372e-07)
(2.12485e-06 -5.6957e-07 2.60649e-07)
(3.47786e-06 -2.59621e-06 7.82232e-07)
(3.93372e-06 -4.71618e-06 1.17252e-06)
(3.68567e-06 -6.02023e-06 1.1954e-06)
(2.21436e-06 -5.4174e-06 8.46436e-07)
(4.91381e-07 -5.48543e-06 -3.15e-07)
(1.06049e-07 -1.55135e-06 1.06049e-07)
(1.29665e-06 -1.08666e-06 3.49254e-07)
(2.94089e-06 -1.47756e-06 4.58527e-07)
(3.87248e-06 -1.49354e-06 5.47558e-07)
(4.38647e-06 -1.46144e-06 5.87252e-07)
(4.4728e-06 -1.41704e-06 5.78786e-07)
(4.24126e-06 -1.34279e-06 5.26863e-07)
(3.83871e-06 -1.19567e-06 4.44469e-07)
(3.42687e-06 -9.78537e-07 3.59597e-07)
(3.14306e-06 -7.2385e-07 2.9971e-07)
(2.99514e-06 -4.57415e-07 2.8039e-07)
(2.90355e-06 -1.97092e-07 3.28668e-07)
(2.70676e-06 5.42876e-08 4.12517e-07)
(2.20495e-06 3.38124e-07 4.85742e-07)
(1.29828e-06 6.61065e-07 4.81076e-07)
(-3.47665e-08 1.06025e-06 4.1391e-07)
(-1.61567e-06 1.49959e-06 2.77867e-07)
(-3.11289e-06 1.92045e-06 8.85982e-08)
(-4.18436e-06 2.24338e-06 -1.16647e-07)
(-4.53176e-06 2.31518e-06 -3.00744e-07)
(-4.01293e-06 2.06211e-06 -4.3812e-07)
(-2.61374e-06 1.45179e-06 -4.60104e-07)
(-5.45238e-07 4.94749e-07 -3.31639e-07)
(1.70497e-06 -7.18213e-07 -1.12755e-07)
(3.57753e-06 -2.0678e-06 2.13924e-07)
(4.4974e-06 -3.45139e-06 4.69418e-07)
(4.11335e-06 -4.51818e-06 5.92188e-07)
(2.76387e-06 -4.98215e-06 5.02188e-07)
(8.35113e-07 -2.74924e-06 9.05339e-08)
(-1.38035e-07 -2.57608e-06 -9.78801e-07)
(5.57408e-07 -3.0802e-06 5.57408e-07)
(2.16674e-06 -4.07678e-06 7.63932e-07)
(3.87633e-06 -3.89138e-06 8.4455e-07)
(4.95309e-06 -3.52465e-06 8.762e-07)
(5.56528e-06 -3.00145e-06 8.60747e-07)
(5.73203e-06 -2.43688e-06 7.96467e-07)
(5.51808e-06 -1.89762e-06 7.01364e-07)
(5.03894e-06 -1.41004e-06 5.87214e-07)
(4.4494e-06 -1.02622e-06 4.81145e-07)
(3.85664e-06 -7.44212e-07 4.02602e-07)
(3.28546e-06 -5.28985e-07 3.64644e-07)
(2.68139e-06 -2.78226e-07 3.44579e-07)
(1.96678e-06 9.81657e-08 3.15605e-07)
(1.07137e-06 6.57826e-07 2.5713e-07)
(-3.29619e-08 1.36899e-06 1.83912e-07)
(-1.27232e-06 2.13367e-06 9.29225e-08)
(-2.47132e-06 2.77821e-06 2.14218e-08)
(-3.42466e-06 3.11116e-06 -2.37569e-08)
(-3.94568e-06 2.98942e-06 -3.76058e-08)
(-3.88241e-06 2.34148e-06 -3.1145e-08)
(-3.16715e-06 1.33136e-06 2.04348e-08)
(-1.88195e-06 7.76184e-08 8.29315e-08)
(-3.1689e-07 -1.20905e-06 1.62037e-07)
(1.11838e-06 -2.27519e-06 2.49131e-07)
(2.11203e-06 -2.96557e-06 2.37106e-07)
(2.34227e-06 -3.14463e-06 2.54004e-08)
(1.5894e-06 -2.79835e-06 -3.48176e-07)
(5.57957e-08 -2.42195e-06 -6.36122e-07)
(-1.33957e-06 -2.90731e-07 -9.47764e-07)
(-9.18806e-07 -9.1659e-07 -1.37425e-06)
(8.90815e-07 -5.93929e-06 8.90815e-07)
(2.70452e-06 -7.58658e-06 1.01901e-06)
(4.32197e-06 -6.86321e-06 1.0327e-06)
(5.51105e-06 -6.01623e-06 9.79122e-07)
(6.3054e-06 -4.92215e-06 8.94828e-07)
(6.68588e-06 -3.73427e-06 7.8133e-07)
(6.67417e-06 -2.61987e-06 6.67482e-07)
(6.32167e-06 -1.68351e-06 5.78648e-07)
(5.66772e-06 -9.86578e-07 5.10337e-07)
(4.75277e-06 -5.07374e-07 4.5115e-07)
(3.63047e-06 -1.41565e-07 3.92712e-07)
(2.36924e-06 2.30708e-07 3.20048e-07)
(1.04097e-06 7.5853e-07 2.1553e-07)
(-2.34124e-07 1.45843e-06 1.08526e-07)
(-1.31581e-06 2.27853e-06 1.5149e-08)
(-2.13901e-06 3.04102e-06 -2.3985e-08)
(-2.69202e-06 3.4924e-06 3.27085e-08)
(-2.94564e-06 3.40804e-06 1.85807e-07)
(-2.91144e-06 2.69508e-06 3.43853e-07)
(-2.61916e-06 1.44461e-06 5.32831e-07)
(-2.13917e-06 -6.57177e-08 6.84601e-07)
(-1.64108e-06 -1.62052e-06 8.0627e-07)
(-1.29321e-06 -2.84152e-06 8.10995e-07)
(-1.20914e-06 -3.39797e-06 6.22854e-07)
(-1.43834e-06 -3.15804e-06 3.29084e-07)
(-1.89615e-06 -2.21411e-06 -9.16894e-08)
(-2.39645e-06 -7.34085e-07 -5.86624e-07)
(-2.84664e-06 4.61348e-07 -9.23181e-07)
(-2.79987e-06 1.95379e-06 -1.06168e-06)
(-1.28228e-06 -5.10368e-07 -1.10095e-06)
(9.48083e-07 -9.44538e-06 9.48083e-07)
(2.72998e-06 -1.10754e-05 9.58911e-07)
(4.31234e-06 -9.91263e-06 8.64515e-07)
(5.69513e-06 -8.57518e-06 7.40772e-07)
(6.8297e-06 -6.91008e-06 6.1178e-07)
(7.66562e-06 -5.12383e-06 5.15137e-07)
(8.11314e-06 -3.43536e-06 4.6662e-07)
(8.06328e-06 -1.98291e-06 4.73624e-07)
(7.43763e-06 -8.34389e-07 5.10118e-07)
(6.23558e-06 3.32347e-08 5.34286e-07)
(4.56367e-06 7.13526e-07 5.21322e-07)
(2.63363e-06 1.2975e-06 4.61021e-07)
(7.05422e-07 1.86149e-06 3.61081e-07)
(-9.02127e-07 2.4296e-06 2.5393e-07)
(-1.9825e-06 2.88911e-06 2.17292e-07)
(-2.53646e-06 3.16379e-06 2.95834e-07)
(-2.64624e-06 3.04932e-06 4.3948e-07)
(-2.48258e-06 2.39964e-06 6.61015e-07)
(-2.22254e-06 1.23701e-06 9.27755e-07)
(-2.06563e-06 -3.17153e-07 1.15916e-06)
(-2.19473e-06 -1.9718e-06 1.36823e-06)
(-2.67346e-06 -3.40092e-06 1.39771e-06)
(-3.47414e-06 -4.17559e-06 1.23647e-06)
(-4.4544e-06 -4.07945e-06 9.51582e-07)
(-5.38508e-06 -3.14335e-06 5.67617e-07)
(-5.96394e-06 -1.61145e-06 1.53373e-07)
(-5.89342e-06 8.48558e-08 -2.42674e-07)
(-5.09013e-06 1.24807e-06 -4.04633e-07)
(-3.52917e-06 1.92265e-06 -4.38099e-07)
(-1.28229e-06 -1.92762e-06 -3.44422e-07)
(6.50656e-07 -1.24826e-05 6.50656e-07)
(2.27826e-06 -1.41722e-05 5.73511e-07)
(4.14315e-06 -1.2624e-05 4.35807e-07)
(5.90337e-06 -1.09173e-05 3.15914e-07)
(7.56669e-06 -8.84348e-06 2.48259e-07)
(9.00255e-06 -6.62928e-06 2.64585e-07)
(9.99484e-06 -4.46448e-06 3.65858e-07)
(1.03169e-05 -2.47006e-06 5.03531e-07)
(9.80756e-06 -7.48542e-07 6.4275e-07)
(8.43637e-06 6.53768e-07 7.64176e-07)
(6.36973e-06 1.73451e-06 8.33595e-07)
(3.94841e-06 2.49856e-06 8.38623e-07)
(1.5772e-06 2.91817e-06 8.09685e-07)
(-4.32025e-07 3.03586e-06 7.887e-07)
(-1.82499e-06 2.82532e-06 8.09323e-07)
(-2.57099e-06 2.32913e-06 9.06454e-07)
(-2.85968e-06 1.51331e-06 1.08648e-06)
(-2.91422e-06 3.64962e-07 1.29913e-06)
(-3.0295e-06 -1.0382e-06 1.50766e-06)
(-3.41177e-06 -2.59781e-06 1.65053e-06)
(-4.12914e-06 -4.04108e-06 1.65796e-06)
(-5.19031e-06 -5.02382e-06 1.56193e-06)
(-6.46303e-06 -5.29528e-06 1.37917e-06)
(-7.66891e-06 -4.80134e-06 1.13615e-06)
(-8.48028e-06 -3.6678e-06 8.78507e-07)
(-8.57574e-06 -2.30057e-06 6.88874e-07)
(-7.76851e-06 -1.18159e-06 5.51928e-07)
(-6.08291e-06 -7.03289e-07 4.83996e-07)
(-3.58409e-06 -8.57961e-07 4.98976e-07)
(-1.07148e-06 -4.86928e-06 7.39281e-07)
(1.89066e-07 -1.43264e-05 1.89066e-07)
(1.76131e-06 -1.69773e-05 1.22899e-07)
(4.2432e-06 -1.50848e-05 3.43369e-08)
(6.49929e-06 -1.3248e-05 8.15761e-10)
(8.7299e-06 -1.10161e-05 6.76601e-08)
(1.07184e-05 -8.56221e-06 2.35722e-07)
(1.21678e-05 -6.01103e-06 4.74209e-07)
(1.27805e-05 -3.479e-06 7.34366e-07)
(1.23813e-05 -1.12301e-06 9.62459e-07)
(1.09954e-05 8.88351e-07 1.13685e-06)
(8.83497e-06 2.37946e-06 1.25852e-06)
(6.24184e-06 3.23549e-06 1.34497e-06)
(3.59565e-06 3.38956e-06 1.41455e-06)
(1.15748e-06 2.93188e-06 1.49233e-06)
(-8.80667e-07 2.08048e-06 1.58061e-06)
(-2.48565e-06 9.02273e-07 1.65885e-06)
(-3.78016e-06 -4.56897e-07 1.73496e-06)
(-4.8774e-06 -1.89164e-06 1.76179e-06)
(-5.88487e-06 -3.36133e-06 1.72834e-06)
(-6.87864e-06 -4.77576e-06 1.60787e-06)
(-7.88492e-06 -5.88594e-06 1.46845e-06)
(-8.85464e-06 -6.51751e-06 1.32825e-06)
(-9.67164e-06 -6.59905e-06 1.2206e-06)
(-1.0171e-05 -6.16214e-06 1.1673e-06)
(-1.01833e-05 -5.40873e-06 1.18957e-06)
(-9.54374e-06 -4.72024e-06 1.2075e-06)
(-8.13692e-06 -4.42529e-06 1.22346e-06)
(-5.97771e-06 -4.76849e-06 1.27451e-06)
(-3.19659e-06 -5.6319e-06 1.35683e-06)
(-8.37073e-07 -8.97675e-06 1.5095e-06)
(1.23478e-08 -1.54091e-05 1.23478e-08)
(1.8288e-06 -2.00385e-05 5.93561e-08)
(4.92465e-06 -1.78519e-05 7.53548e-08)
(7.59434e-06 -1.61181e-05 1.74765e-07)
(1.01965e-05 -1.38967e-05 3.82953e-07)
(1.24219e-05 -1.1293e-05 6.47451e-07)
(1.39757e-05 -8.36523e-06 9.24851e-07)
(1.46332e-05 -5.28259e-06 1.15675e-06)
(1.43275e-05 -2.2974e-06 1.33782e-06)
(1.3146e-05 3.11138e-07 1.47459e-06)
(1.12513e-05 2.21999e-06 1.59576e-06)
(8.85533e-06 3.18231e-06 1.72314e-06)
(6.15141e-06 3.18567e-06 1.86785e-06)
(3.28986e-06 2.43066e-06 1.99854e-06)
(3.62042e-07 1.22333e-06 2.0751e-06)
(-2.57621e-06 -2.35928e-07 2.07271e-06)
(-5.39253e-06 -1.79264e-06 1.97656e-06)
(-7.90947e-06 -3.3354e-06 1.74105e-06)
(-9.96144e-06 -4.85407e-06 1.4667e-06)
(-1.14523e-05 -6.20096e-06 1.21431e-06)
(-1.23428e-05 -7.35476e-06 1.03299e-06)
(-1.26704e-05 -8.13246e-06 9.63585e-07)
(-1.25321e-05 -8.47526e-06 1.00775e-06)
(-1.1994e-05 -8.51575e-06 1.13912e-06)
(-1.10408e-05 -8.45138e-06 1.29418e-06)
(-9.61057e-06 -8.57363e-06 1.45226e-06)
(-7.66258e-06 -9.11783e-06 1.6039e-06)
(-5.27345e-06 -1.01539e-05 1.72462e-06)
(-2.6263e-06 -1.14142e-05 1.80522e-06)
(-6.26414e-07 -1.37706e-05 1.88066e-06)
(4.80024e-07 -1.70836e-05 4.80024e-07)
(2.89346e-06 -2.4116e-05 6.40221e-07)
(6.22703e-06 -2.16092e-05 7.76168e-07)
(9.00529e-06 -2.00225e-05 9.35529e-07)
(1.14853e-05 -1.77845e-05 1.17088e-06)
(1.33984e-05 -1.4971e-05 1.38555e-06)
(1.46081e-05 -1.16233e-05 1.54179e-06)
(1.51111e-05 -7.97562e-06 1.60264e-06)
(1.49949e-05 -4.38397e-06 1.60129e-06)
(1.43208e-05 -1.22665e-06 1.62214e-06)
(1.30758e-05 1.13324e-06 1.69916e-06)
(1.12012e-05 2.42195e-06 1.81721e-06)
(8.6375e-06 2.67412e-06 1.97603e-06)
(5.34419e-06 2.16084e-06 2.09716e-06)
(1.41296e-06 1.16551e-06 2.11328e-06)
(-2.87145e-06 -8.52184e-08 1.97869e-06)
(-7.13158e-06 -1.54385e-06 1.69543e-06)
(-1.09365e-05 -3.19563e-06 1.36167e-06)
(-1.38328e-05 -5.00154e-06 1.04201e-06)
(-1.55713e-05 -6.82288e-06 8.20833e-07)
(-1.62252e-05 -8.60846e-06 7.17208e-07)
(-1.60106e-05 -1.00594e-05 7.65843e-07)
(-1.51434e-05 -1.1096e-05 9.04548e-07)
(-1.37727e-05 -1.18571e-05 1.10449e-06)
(-1.19915e-05 -1.25565e-05 1.31911e-06)
(-9.83357e-06 -1.34452e-05 1.53064e-06)
(-7.35411e-06 -1.46754e-05 1.71212e-06)
(-4.74567e-06 -1.61234e-05 1.85911e-06)
(-2.22878e-06 -1.7418e-05 1.94958e-06)
(-4.99163e-07 -1.87365e-05 2.0314e-06)
(1.56212e-06 -2.13016e-05 1.56212e-06)
(4.77271e-06 -2.97199e-05 1.71289e-06)
(7.72132e-06 -2.69093e-05 1.91633e-06)
(1.0121e-05 -2.52487e-05 2.02865e-06)
(1.19601e-05 -2.27987e-05 2.17947e-06)
(1.31984e-05 -1.9574e-05 2.17812e-06)
(1.39658e-05 -1.56898e-05 2.05704e-06)
(1.44239e-05 -1.14723e-05 1.87657e-06)
(1.46847e-05 -7.34659e-06 1.70023e-06)
(1.47295e-05 -3.70509e-06 1.61306e-06)
(1.43276e-05 -8.38728e-07 1.67743e-06)
(1.30926e-05 1.12064e-06 1.80364e-06)
(1.07018e-05 2.21076e-06 1.87736e-06)
(7.04547e-06 2.58055e-06 1.91963e-06)
(2.33182e-06 2.39471e-06 1.85766e-06)
(-2.9615e-06 1.69154e-06 1.65366e-06)
(-8.2244e-06 3.87727e-07 1.39318e-06)
(-1.27996e-05 -1.60302e-06 1.13977e-06)
(-1.61707e-05 -4.1793e-06 9.30792e-07)
(-1.81929e-05 -7.06581e-06 8.56922e-07)
(-1.89879e-05 -9.93843e-06 8.71113e-07)
(-1.87383e-05 -1.24277e-05 9.79603e-07)
(-1.76727e-05 -1.44329e-05 1.1433e-06)
(-1.59652e-05 -1.60598e-05 1.3078e-06)
(-1.36977e-05 -1.75582e-05 1.46661e-06)
(-1.09463e-05 -1.91486e-05 1.6347e-06)
(-7.9109e-06 -2.08641e-05 1.81626e-06)
(-4.92782e-06 -2.24612e-05 1.98462e-06)
(-2.29358e-06 -2.35599e-05 2.11223e-06)
(-5.31887e-07 -2.38964e-05 2.22237e-06)
(2.96605e-06 -2.9856e-05 2.96605e-06)
(6.85187e-06 -3.67477e-05 3.04248e-06)
(8.84362e-06 -3.39029e-05 3.1561e-06)
(1.06691e-05 -3.17248e-05 3.0588e-06)
(1.18614e-05 -2.87141e-05 2.91283e-06)
(1.26021e-05 -2.4838e-05 2.64812e-06)
(1.31636e-05 -2.03646e-05 2.32268e-06)
(1.38141e-05 -1.5686e-05 2.01136e-06)
(1.46406e-05 -1.11984e-05 1.7953e-06)
(1.54252e-05 -7.17372e-06 1.73127e-06)
(1.56685e-05 -3.64448e-06 1.78994e-06)
(1.47848e-05 -6.2988e-07 1.91371e-06)
(1.23465e-05 1.82204e-06 1.99566e-06)
(8.33747e-06 3.61424e-06 1.92505e-06)
(3.1667e-06 4.57011e-06 1.77326e-06)
(-2.56884e-06 4.45664e-06 1.62924e-06)
(-8.18853e-06 3.10357e-06 1.48481e-06)
(-1.30271e-05 4.02016e-07 1.37978e-06)
(-1.67185e-05 -3.33479e-06 1.37604e-06)
(-1.92212e-05 -7.51142e-06 1.45635e-06)
(-2.06179e-05 -1.16606e-05 1.56983e-06)
(-2.10162e-05 -1.5333e-05 1.6567e-06)
(-2.04682e-05 -1.84163e-05 1.73208e-06)
(-1.89587e-05 -2.10609e-05 1.79161e-06)
(-1.6507e-05 -2.34884e-05 1.86414e-06)
(-1.32928e-05 -2.58247e-05 1.99254e-06)
(-9.72178e-06 -2.79556e-05 2.15663e-06)
(-6.25772e-06 -2.95656e-05 2.31723e-06)
(-3.18703e-06 -3.03945e-05 2.41856e-06)
(-8.70729e-07 -2.98477e-05 2.51026e-06)
(4.21205e-06 -4.2952e-05 4.21205e-06)
(8.60978e-06 -4.45793e-05 3.84478e-06)
(9.71978e-06 -4.19499e-05 3.6767e-06)
(1.13114e-05 -3.89842e-05 3.46016e-06)
(1.23899e-05 -3.51204e-05 3.15851e-06)
(1.31751e-05 -3.05299e-05 2.80473e-06)
(1.40113e-05 -2.56188e-05 2.47136e-06)
(1.51374e-05 -2.07374e-05 2.24207e-06)
(1.64968e-05 -1.60887e-05 2.15163e-06)
(1.76104e-05 -1.16735e-05 2.19977e-06)
(1.78184e-05 -7.22408e-06 2.30715e-06)
(1.65939e-05 -2.81442e-06 2.37497e-06)
(1.37115e-05 1.28251e-06 2.34596e-06)
(9.36381e-06 4.64094e-06 2.24864e-06)
(4.02632e-06 6.69061e-06 2.1866e-06)
(-1.65821e-06 6.97074e-06 2.09005e-06)
(-7.12404e-06 5.25273e-06 2.07015e-06)
(-1.20383e-05 1.63232e-06 2.16025e-06)
(-1.62284e-05 -3.26544e-06 2.31153e-06)
(-1.96129e-05 -8.68352e-06 2.45989e-06)
(-2.21262e-05 -1.40217e-05 2.55317e-06)
(-2.3659e-05 -1.88763e-05 2.61636e-06)
(-2.40016e-05 -2.3176e-05 2.59245e-06)
(-2.29253e-05 -2.70529e-05 2.52568e-06)
(-2.04618e-05 -3.06402e-05 2.53772e-06)
(-1.69943e-05 -3.38429e-05 2.64114e-06)
(-1.30521e-05 -3.63954e-05 2.77033e-06)
(-9.08555e-06 -3.80188e-05 2.87079e-06)
(-5.33529e-06 -3.86616e-05 2.88952e-06)
(-1.75213e-06 -3.75249e-05 2.81101e-06)
(4.52512e-06 -5.8654e-05 4.52512e-06)
(9.26415e-06 -5.26923e-05 3.89279e-06)
(1.06628e-05 -5.04854e-05 3.61815e-06)
(1.29002e-05 -4.67895e-05 3.33879e-06)
(1.4809e-05 -4.21099e-05 3.07368e-06)
(1.65183e-05 -3.69993e-05 2.86533e-06)
(1.82192e-05 -3.18936e-05 2.76033e-06)
(1.9944e-05 -2.70011e-05 2.78034e-06)
(2.13772e-05 -2.21781e-05 2.92296e-06)
(2.19676e-05 -1.70844e-05 3.04126e-06)
(2.12328e-05 -1.1433e-05 3.14294e-06)
(1.89126e-05 -5.43879e-06 3.13303e-06)
(1.51303e-05 2.97096e-07 3.01101e-06)
(1.03195e-05 4.95128e-06 2.85444e-06)
(4.95012e-06 7.67617e-06 2.81481e-06)
(-5.86543e-07 7.99284e-06 2.84893e-06)
(-6.01743e-06 5.78518e-06 3.01827e-06)
(-1.12445e-05 1.40267e-06 3.24745e-06)
(-1.62083e-05 -4.38869e-06 3.46326e-06)
(-2.0753e-05 -1.07543e-05 3.59659e-06)
(-2.46068e-05 -1.70814e-05 3.61226e-06)
(-2.73467e-05 -2.31295e-05 3.52412e-06)
(-2.84935e-05 -2.88484e-05 3.40465e-06)
(-2.78245e-05 -3.42499e-05 3.33977e-06)
(-2.55133e-05 -3.92024e-05 3.35139e-06)
(-2.19988e-05 -4.33573e-05 3.37049e-06)
(-1.77827e-05 -4.63638e-05 3.36777e-06)
(-1.32281e-05 -4.80867e-05 3.30461e-06)
(-8.4511e-06 -4.87145e-05 3.15692e-06)
(-2.99356e-06 -4.77026e-05 2.9283e-06)
(4.10334e-06 -7.44611e-05 4.10334e-06)
(9.53143e-06 -6.15637e-05 3.48236e-06)
(1.28127e-05 -5.99067e-05 3.25936e-06)
(1.66784e-05 -5.56589e-05 3.08841e-06)
(2.02631e-05 -5.04328e-05 3.07393e-06)
(2.34905e-05 -4.50705e-05 3.18897e-06)
(2.62985e-05 -3.98783e-05 3.39126e-06)
(2.83913e-05 -3.47956e-05 3.6423e-06)
(2.92845e-05 -2.93291e-05 3.89961e-06)
(2.85334e-05 -2.30693e-05 4.05996e-06)
(2.60283e-05 -1.58912e-05 4.06909e-06)
(2.2028e-05 -8.32905e-06 3.96618e-06)
(1.70192e-05 -1.30877e-06 3.80202e-06)
(1.15303e-05 4.0892e-06 3.71565e-06)
(5.8399e-06 7.0079e-06 3.75928e-06)
(2.90224e-08 7.09807e-06 3.92765e-06)
(-5.87412e-06 4.51035e-06 4.16496e-06)
(-1.19058e-05 -3.10575e-07 4.41085e-06)
(-1.80433e-05 -6.5823e-06 4.56998e-06)
(-2.39453e-05 -1.35565e-05 4.58491e-06)
(-2.9008e-05 -2.07967e-05 4.47507e-06)
(-3.25912e-05 -2.81736e-05 4.31133e-06)
(-3.42272e-05 -3.55564e-05 4.18e-06)
(-3.38378e-05 -4.26887e-05 4.09707e-06)
(-3.16996e-05 -4.90738e-05 4.03508e-06)
(-2.82354e-05 -5.41936e-05 3.94649e-06)
(-2.378e-05 -5.77491e-05 3.79993e-06)
(-1.84699e-05 -5.97958e-05 3.58876e-06)
(-1.2281e-05 -6.07333e-05 3.33707e-06)
(-4.47319e-06 -6.0889e-05 3.08441e-06)
(3.62959e-06 -8.93148e-05 3.62959e-06)
(1.04512e-05 -7.26715e-05 3.28687e-06)
(1.68327e-05 -7.13605e-05 3.32991e-06)
(2.30975e-05 -6.6764e-05 3.36968e-06)
(2.88725e-05 -6.1294e-05 3.61581e-06)
(3.38849e-05 -5.57124e-05 3.93218e-06)
(3.76786e-05 -5.00675e-05 4.31893e-06)
(3.9628e-05 -4.40536e-05 4.69357e-06)
(3.93274e-05 -3.71438e-05 4.94773e-06)
(3.67294e-05 -2.91476e-05 5.0712e-06)
(3.21706e-05 -2.02761e-05 5.02699e-06)
(2.63472e-05 -1.13875e-05 4.87313e-06)
(1.99611e-05 -3.64141e-06 4.79424e-06)
(1.34134e-05 1.93113e-06 4.83338e-06)
(6.76261e-06 4.74281e-06 4.99328e-06)
(-1.18672e-07 4.62047e-06 5.2156e-06)
(-7.31891e-06 1.86566e-06 5.43167e-06)
(-1.48413e-05 -3.0594e-06 5.58416e-06)
(-2.24938e-05 -9.53914e-06 5.62048e-06)
(-2.96566e-05 -1.70653e-05 5.53342e-06)
(-3.5573e-05 -2.54147e-05 5.37669e-06)
(-3.96678e-05 -3.43937e-05 5.21703e-06)
(-4.16257e-05 -4.36304e-05 5.078e-06)
(-4.14855e-05 -5.25091e-05 4.94484e-06)
(-3.94924e-05 -6.02999e-05 4.78202e-06)
(-3.58845e-05 -6.64697e-05 4.56314e-06)
(-3.07526e-05 -7.08665e-05 4.29447e-06)
(-2.40629e-05 -7.37012e-05 4.01988e-06)
(-1.58577e-05 -7.54862e-05 3.83073e-06)
(-5.69251e-06 -7.77049e-05 3.83343e-06)
(3.93983e-06 -0.000104398 3.93983e-06)
(1.29711e-05 -8.80128e-05 4.07851e-06)
(2.27011e-05 -8.66661e-05 4.26131e-06)
(3.16973e-05 -8.16706e-05 4.35318e-06)
(3.97852e-05 -7.58671e-05 4.65402e-06)
(4.64055e-05 -6.95827e-05 5.05768e-06)
(5.08056e-05 -6.2648e-05 5.4932e-06)
(5.23375e-05 -5.47067e-05 5.85932e-06)
(5.07828e-05 -4.55538e-05 6.08207e-06)
(4.64485e-05 -3.53662e-05 6.16568e-06)
(4.00672e-05 -2.48349e-05 6.14965e-06)
(3.25274e-05 -1.49966e-05 6.14065e-06)
(2.44962e-05 -6.97622e-06 6.20171e-06)
(1.62311e-05 -1.4889e-06 6.36595e-06)
(7.6948e-06 1.17092e-06 6.58723e-06)
(-1.24e-06 1.0092e-06 6.79392e-06)
(-1.05819e-05 -1.70883e-06 6.93078e-06)
(-2.0133e-05 -6.61823e-06 6.96788e-06)
(-2.94308e-05 -1.33883e-05 6.87943e-06)
(-3.77451e-05 -2.1758e-05 6.72886e-06)
(-4.43993e-05 -3.15474e-05 6.56361e-06)
(-4.89474e-05 -4.23657e-05 6.39735e-06)
(-5.11947e-05 -5.35373e-05 6.21834e-06)
(-5.1182e-05 -6.41787e-05 5.99848e-06)
(-4.90028e-05 -7.35055e-05 5.73729e-06)
(-4.46676e-05 -8.1073e-05 5.45013e-06)
(-3.81341e-05 -8.68406e-05 5.16704e-06)
(-2.94148e-05 -9.11612e-05 5.03542e-06)
(-1.87759e-05 -9.44458e-05 5.08448e-06)
(-6.50832e-06 -9.87324e-05 5.19197e-06)
(5.2179e-06 -0.000122858 5.2179e-06)
(1.73131e-05 -0.000109219 5.49028e-06)
(3.02558e-05 -0.000107213 5.60909e-06)
(4.18909e-05 -0.000101555 5.80742e-06)
(5.20482e-05 -9.48748e-05 6.14582e-06)
(5.99539e-05 -8.70846e-05 6.55325e-06)
(6.47841e-05 -7.79311e-05 6.96419e-06)
(6.59887e-05 -6.72254e-05 7.30697e-06)
(6.35319e-05 -5.52312e-05 7.54639e-06)
(5.79358e-05 -4.26459e-05 7.69898e-06)
(5.0075e-05 -3.05201e-05 7.81837e-06)
(4.07966e-05 -1.99364e-05 7.97506e-06)
(3.06345e-05 -1.17095e-05 8.18508e-06)
(1.98078e-05 -6.19136e-06 8.40029e-06)
(8.39633e-06 -3.48463e-06 8.58598e-06)
(-3.49969e-06 -3.51768e-06 8.69827e-06)
(-1.56243e-05 -6.16516e-06 8.69447e-06)
(-2.75184e-05 -1.12397e-05 8.61815e-06)
(-3.85935e-05 -1.86341e-05 8.46741e-06)
(-4.81922e-05 -2.82411e-05 8.27352e-06)
(-5.57313e-05 -3.97716e-05 8.0584e-06)
(-6.08404e-05 -5.26028e-05 7.81162e-06)
(-6.33448e-05 -6.58272e-05 7.53723e-06)
(-6.3165e-05 -7.84434e-05 7.23754e-06)
(-6.02121e-05 -8.97149e-05 6.92147e-06)
(-5.43898e-05 -9.9299e-05 6.64694e-06)
(-4.57333e-05 -0.00010721 6.56264e-06)
(-3.44663e-05 -0.000113708 6.55928e-06)
(-2.11827e-05 -0.000118813 6.6468e-06)
(-7.05806e-06 -0.000124142 6.77679e-06)
(7.08166e-06 -0.000147612 7.08166e-06)
(2.26839e-05 -0.000137093 7.29743e-06)
(3.87179e-05 -0.000133804 7.43141e-06)
(5.3036e-05 -0.000127174 7.6698e-06)
(6.53016e-05 -0.000118979 8.02447e-06)
(7.4561e-05 -0.000108891 8.44931e-06)
(7.9956e-05 -9.67116e-05 8.87365e-06)
(8.10686e-05 -8.26356e-05 9.23772e-06)
(7.80717e-05 -6.74604e-05 9.53838e-06)
(7.15666e-05 -5.23513e-05 9.81772e-06)
(6.23103e-05 -3.85436e-05 1.01025e-05)
(5.09733e-05 -2.69732e-05 1.03909e-05)
(3.80352e-05 -1.81381e-05 1.06408e-05)
(2.38605e-05 -1.21618e-05 1.08168e-05)
(8.80477e-06 -9.08406e-06 1.08964e-05)
(-6.67181e-06 -8.90801e-06 1.08663e-05)
(-2.20238e-05 -1.16289e-05 1.07488e-05)
(-3.66547e-05 -1.72043e-05 1.0558e-05)
(-4.98923e-05 -2.56423e-05 1.03127e-05)
(-6.11053e-05 -3.68426e-05 1.00281e-05)
(-6.97943e-05 -5.037e-05 9.71023e-06)
(-7.5587e-05 -6.54299e-05 9.35597e-06)
(-7.82046e-05 -8.10237e-05 8.99694e-06)
(-7.74226e-05 -9.61494e-05 8.66273e-06)
(-7.31072e-05 -0.000110087 8.42342e-06)
(-6.523e-05 -0.000122448 8.22255e-06)
(-5.39535e-05 -0.000133184 8.1236e-06)
(-3.98951e-05 -0.000142126 8.16752e-06)
(-2.41162e-05 -0.000148736 8.2142e-06)
(-7.94864e-06 -0.00015403 8.1946e-06)
(9.1807e-06 -0.000180198 9.1807e-06)
(2.86697e-05 -0.000172285 9.36458e-06)
(4.81604e-05 -0.000167447 9.55423e-06)
(6.55266e-05 -0.000159461 9.89617e-06)
(8.0105e-05 -0.000149114 1.03405e-05)
(9.08423e-05 -0.000135997 1.0826e-05)
(9.69638e-05 -0.000120133 1.12931e-05)
(9.82194e-05 -0.000102231 1.17095e-05)
(9.4887e-05 -8.35989e-05 1.20836e-05)
(8.75096e-05 -6.56947e-05 1.24747e-05)
(7.66352e-05 -4.97364e-05 1.28625e-05)
(6.27789e-05 -3.65037e-05 1.31878e-05)
(4.64791e-05 -2.63395e-05 1.34087e-05)
(2.83646e-05 -1.93582e-05 1.35078e-05)
(9.17983e-06 -1.56541e-05 1.34769e-05)
(-1.02937e-05 -1.52901e-05 1.33595e-05)
(-2.93246e-05 -1.83047e-05 1.31654e-05)
(-4.71815e-05 -2.47327e-05 1.28864e-05)
(-6.311e-05 -3.46029e-05 1.2534e-05)
(-7.64278e-05 -4.77443e-05 1.21292e-05)
(-8.65747e-05 -6.36303e-05 1.17089e-05)
(-9.31064e-05 -8.13874e-05 1.12994e-05)
(-9.56614e-05 -9.9978e-05 1.09101e-05)
(-9.39803e-05 -0.000118364 1.05637e-05)
(-8.79626e-05 -0.000135756 1.0287e-05)
(-7.7722e-05 -0.000151571 1.00979e-05)
(-6.37303e-05 -0.000165449 1.00146e-05)
(-4.6937e-05 -0.000176648 9.95398e-06)
(-2.85293e-05 -0.000184207 9.81054e-06)
(-9.50067e-06 -0.00018926 9.65831e-06)
(1.14942e-05 -0.000221626 1.14942e-05)
(3.55219e-05 -0.000215915 1.17482e-05)
(5.91921e-05 -0.000209427 1.21062e-05)
(8.00447e-05 -0.000199577 1.26088e-05)
(9.71266e-05 -0.000186337 1.31559e-05)
(0.000109389 -0.00016943 1.36927e-05)
(0.000116275 -0.000149301 1.41843e-05)
(0.000117772 -0.000127164 1.46167e-05)
(0.00011417 -0.000104669 1.50366e-05)
(0.000105796 -8.33782e-05 1.5474e-05)
(9.29789e-05 -6.44682e-05 1.59094e-05)
(7.6193e-05 -4.8678e-05 1.6244e-05)
(5.61454e-05 -3.64279e-05 1.64532e-05)
(3.37706e-05 -2.8001e-05 1.65496e-05)
(1.01182e-05 -2.35494e-05 1.65375e-05)
(-1.38183e-05 -2.3098e-05 1.64287e-05)
(-3.71209e-05 -2.66592e-05 1.62114e-05)
(-5.8864e-05 -3.42822e-05 1.58754e-05)
(-7.8122e-05 -4.59935e-05 1.54364e-05)
(-9.40518e-05 -6.15891e-05 1.49554e-05)
(-0.000105972 -8.0455e-05 1.44707e-05)
(-0.000113361 -0.000101654 1.40089e-05)
(-0.000115854 -0.000124046 1.3589e-05)
(-0.000113248 -0.000146476 1.32124e-05)
(-0.000105523 -0.000167982 1.28835e-05)
(-9.29429e-05 -0.000187721 1.26199e-05)
(-7.62319e-05 -0.000204781 1.23716e-05)
(-5.64855e-05 -0.000217939 1.20718e-05)
(-3.47071e-05 -0.000226297 1.17138e-05)
(-1.16639e-05 -0.000231585 1.15827e-05)
(1.42571e-05 -0.000273257 1.42571e-05)
(4.37077e-05 -0.00026972 1.46882e-05)
(7.22216e-05 -0.000261278 1.52203e-05)
(9.69008e-05 -0.000248772 1.58254e-05)
(0.000116639 -0.000231679 1.64279e-05)
(0.000130554 -0.00021018 1.69958e-05)
(0.000138428 -0.00018519 1.74216e-05)
(0.000140387 -0.00015834 1.78507e-05)
(0.000136543 -0.000131402 1.83597e-05)
(0.000126976 -0.000105929 1.89092e-05)
(0.000111899 -8.31459e-05 1.94247e-05)
(9.18435e-05 -6.39556e-05 1.98447e-05)
(6.77334e-05 -4.90465e-05 2.01603e-05)
(4.07585e-05 -3.88864e-05 2.03646e-05)
(1.213e-05 -3.36188e-05 2.04504e-05)
(-1.69869e-05 -3.31584e-05 2.03975e-05)
(-4.53864e-05 -3.7487e-05 2.01681e-05)
(-7.18302e-05 -4.66989e-05 1.97714e-05)
(-9.51093e-05 -6.08265e-05 1.92632e-05)
(-0.000114177 -7.96126e-05 1.87163e-05)
(-0.000128244 -0.000102291 1.81704e-05)
(-0.000136771 -0.000127782 1.76479e-05)
(-0.000139433 -0.00015477 1.71355e-05)
(-0.00013606 -0.000181956 1.66266e-05)
(-0.000126689 -0.000208155 1.61478e-05)
(-0.000111758 -0.000232092 1.5688e-05)
(-9.21523e-05 -0.00025228 1.5185e-05)
(-6.88312e-05 -0.000267421 1.4612e-05)
(-4.25146e-05 -0.000277196 1.41736e-05)
(-1.42907e-05 -0.000283284 1.42334e-05)
(1.76689e-05 -0.00033726 1.76689e-05)
(5.34311e-05 -0.000335543 1.82231e-05)
(8.71825e-05 -0.000324422 1.88293e-05)
(0.000115981 -0.000308218 1.94925e-05)
(0.000138765 -0.000286272 2.01058e-05)
(0.000154959 -0.000259377 2.05342e-05)
(0.000164474 -0.000228947 2.10228e-05)
(0.000167257 -0.000196836 2.16455e-05)
(0.000163193 -0.000164772 2.23727e-05)
(0.000152197 -0.000134291 2.31281e-05)
(0.000134479 -0.000106782 2.38283e-05)
(0.00011073 -8.35233e-05 2.44352e-05)
(8.20671e-05 -6.5526e-05 2.49338e-05)
(4.98157e-05 -5.33461e-05 2.53025e-05)
(1.532e-05 -4.70701e-05 2.54982e-05)
(-1.99709e-05 -4.65799e-05 2.54674e-05)
(-5.44535e-05 -5.18865e-05 2.52024e-05)
(-8.64827e-05 -6.31792e-05 2.47329e-05)
(-0.000114525 -8.04571e-05 2.41499e-05)
(-0.00013736 -0.000103277 2.35093e-05)
(-0.000154126 -0.000130636 2.28437e-05)
(-0.000164268 -0.00016122 2.21456e-05)
(-0.000167422 -0.000193531 2.14047e-05)
(-0.000163393 -0.000226138 2.06652e-05)
(-0.000152313 -0.000257528 1.99491e-05)
(-0.000134802 -0.000285873 1.92263e-05)
(-0.000111724 -0.000309403 1.84189e-05)
(-8.37385e-05 -0.000327223 1.768e-05)
(-5.15818e-05 -0.000339504 1.73727e-05)
(-1.72295e-05 -0.000346581 1.75509e-05)
(2.16791e-05 -0.000416081 2.16791e-05)
(6.44402e-05 -0.000414774 2.22452e-05)
(0.000103795 -0.000400195 2.29094e-05)
(0.000137445 -0.000379186 2.34173e-05)
(0.000164334 -0.000351523 2.3921e-05)
(0.000183902 -0.000318606 2.45547e-05)
(0.000195856 -0.000282276 2.53774e-05)
(0.000199852 -0.000244335 2.63719e-05)
(0.000195499 -0.00020637 2.74468e-05)
(0.000182677 -0.000170011 2.84927e-05)
(0.000161768 -0.00013703 2.94621e-05)
(0.000133665 -0.000109119 3.03228e-05)
(9.96007e-05 -8.75507e-05 3.10554e-05)
(6.09984e-05 -7.29023e-05 3.15896e-05)
(1.94212e-05 -6.52636e-05 3.1861e-05)
(-2.32431e-05 -6.46616e-05 3.18157e-05)
(-6.48738e-05 -7.12306e-05 3.1484e-05)
(-0.000103424 -8.51999e-05 3.09384e-05)
(-0.000137091 -0.000106417 3.02507e-05)
(-0.000164498 -0.000134094 2.94557e-05)
(-0.000184686 -0.000166934 2.85695e-05)
(-0.000196966 -0.000203374 2.75816e-05)
(-0.000200828 -0.00024181 2.65516e-05)
(-0.000196102 -0.000280531 2.55249e-05)
(-0.000183104 -0.000317547 2.44787e-05)
(-0.000162502 -0.000350644 2.33523e-05)