/*--------------------------------*- C++ -*----------------------------------*\
| =========                 |                                                 |
| \\      /  F ield         | OpenFOAM: The Open Source CFD Toolbox           |
|  \\    /   O peration     | Version:  2312                                  |
|   \\  /    A nd           | Website:  www.openfoam.com                      |
|    \\/     M anipulation  |                                                 |
\*---------------------------------------------------------------------------*/
FoamFile
{
    version     2.0;
    format      ascii;
    arch        "LSB;label=32;scalar=64";
    class       volScalarField;
    location    "0.912455";
    object      alpha.water;
}
// * * * * * * * * * * * * * * * * * * * * * * * * * * * * * * * * * * * * * //

dimensions      [0 0 0 0 0 0 0];

internalField   nonuniform List<scalar> 
90000
(
1
1.00004
1.00003
1.00003
1.00003
1.00002
1.00002
1.00001
1.00001
1
0.999998
0.999994
0.999994
0.999996
1
1.00001
1.00002
1.00002
1.00003
1.00003
1.00003
1.00002
1.00001
1.00001
1.00001
1.00001
1.00001
1.00002
1.00003
1.00003
1.00004
1.00006
1.00005
1.00005
1.00004
1.00003
1.00003
1.00002
1.00001
1
0.999996
0.999994
0.999997
1
1.00001
1.00003
1.00003
1.00004
1.00004
1.00004
1.00003
1.00002
1.00002
1.00001
1.00002
1.00002
1.00003
1.00001
0.999914
0.999606
1.00003
1.00004
1.00004
1.00003
1.00003
1.00003
1.00002
1.00002
1.00002
1.00001
1.00001
1
1
1
1.00001
1.00001
1.00001
1.00001
1.00001
1.00001
1.00001
1.00001
1.00001
1.00001
1.00002
1.00003
1.00006
1.00015
1.00029
0.999964
1.00002
1.00003
1.00002
1.00002
1.00002
1.00003
1.00003
1.00003
1.00003
1.00002
1.00002
1.00001
1.00001
1
0.999997
0.999993
0.999989
0.999988
0.999989
0.999992
0.999996
1
1.00001
1.00001
1.00001
1.00001
0.999988
0.999965
1.0001
1
1.00001
1
1.00001
1.00001
1.00001
1.00002
1.00002
1.00003
1.00003
1.00003
1.00003
1.00002
1.00002
1
0.999993
0.999983
0.999977
0.999974
0.999976
0.999983
0.999991
1
1.00001
1.00001
1.00002
1.00003
1.00003
0.999985
1.00002
0.999989
1
0.999985
0.999989
0.999993
1
1.00001
1.00002
1.00002
1.00003
1.00003
1.00003
1.00003
1.00002
1.00001
0.999997
0.999987
0.99998
0.999977
0.99998
0.999987
0.999997
1.00001
1.00001
1.00001
1.00001
1.00001
1.00001
0.999988
0.999987
0.999978
0.999988
0.999969
0.999974
0.99998
0.999987
0.999995
1
1.00001
1.00002
1.00003
1.00003
1.00003
1.00002
1.00002
1.00001
1
0.999996
0.999995
0.999996
1
1.00001
1.00001
1.00002
1.00002
1.00001
1.00001
0.999998
0.999987
0.999984
0.99999
0.999979
0.999965
0.999969
0.999973
0.999978
0.999985
0.999992
0.999999
1.00001
1.00001
1.00002
1.00002
1.00002
1.00002
1.00002
1.00002
1.00002
1.00002
1.00002
1.00001
1.00002
1.00002
1.00002
1.00001
1.00001
1.00001
0.999999
0.999998
1
1.00001
0.999977
0.999977
0.999979
0.999981
0.999983
0.999986
0.999988
0.999991
0.999995
1
1.00001
1.00001
1.00002
1.00003
1.00004
1.00004
1.00004
1.00003
1.00003
1.00002
1.00002
1.00001
1.00001
1
1
1
1
1.00001
1.00002
1.00003
0.999986
1.00001
1.00001
1.00001
1
1
0.999997
0.999994
0.999993
0.999995
1
1.00001
1.00002
1.00003
1.00004
1.00004
1.00004
1.00004
1.00003
1.00002
1.00001
1
0.999994
0.99999
0.999988
0.999991
0.999999
1.00001
1.00002
1.00001
1.00001
1.00004
1.00004
1.00004
1.00003
1.00002
1.00001
1
0.999996
0.999994
0.999996
1
1.00001
1.00002
1.00003
1.00003
1.00003
1.00002
1.00002
1.00001
0.999998
0.999991
0.999986
0.999983
0.999983
0.999988
0.999996
1
0.999998
0.999989
1.00003
1.00008
1.00007
1.00006
1.00005
1.00003
1.00002
1
0.999994
0.999988
0.999987
0.999989
0.999993
0.999998
1
1
1
1
0.999999
0.999996
0.999994
0.999991
0.999989
0.999988
0.999991
0.999995
0.999998
0.999996
0.99999
0.999992
1.00005
1.00008
1.00007
1.00005
1.00004
1.00002
1.00001
0.999994
0.999984
0.999977
0.999974
0.999972
0.999971
0.999971
0.999972
0.999974
0.999978
0.999983
0.999989
0.999994
0.999997
0.999998
0.999999
1
1
1
1
0.999997
0.999997
1.00001
1.00005
1.00005
1.00004
1.00002
1.00001
0.999998
0.999988
0.999982
0.999977
0.999974
0.999971
0.999967
0.999962
0.999959
0.999959
0.999964
0.999972
0.999982
0.999993
1
1.00001
1.00001
1.00001
1.00001
1
1
0.999996
0.999994
0.999999
0.999998
1.00002
0.999998
0.999991
0.999983
0.999979
0.999977
0.999979
0.999983
0.999986
0.999986
0.999983
0.999977
0.999971
0.999966
0.999966
0.999972
0.999981
0.999992
1
1.00001
1.00001
1.00001
1.00001
1.00001
1
0.999995
0.999989
0.999987
0.999985
0.999975
0.999992
0.999955
0.999958
0.99996
0.999966
0.999975
0.999986
0.999996
1
1
0.999997
0.999989
0.999981
0.999976
0.999976
0.99998
0.999987
0.999994
0.999999
1
1
1.00001
1.00001
1.00001
1.00001
1
0.999994
0.999989
0.99998
0.999979
0.999969
0.999938
0.999948
0.999957
0.999969
0.999983
0.999995
1
1.00001
1
0.999995
0.999986
0.99998
0.999977
0.999977
0.999979
0.999981
0.999983
0.999985
0.999987
0.999993
1
1.00001
1.00001
1.00001
1.00001
1.00001
1
0.999997
1.00001
0.999963
0.999942
0.999954
0.999964
0.999975
0.999985
0.999992
0.999995
0.999993
0.999989
0.999985
0.999981
0.99998
0.999981
0.999981
0.999979
0.999976
0.999974
0.999974
0.99998
0.999989
1
1.00001
1.00001
1.00001
1
0.999999
1
1.00001
1.00001
0.999968
0.999955
0.999963
0.999969
0.999976
0.999982
0.999986
0.999987
0.999988
0.999989
0.999992
0.999996
1
1
0.999997
0.999991
0.999984
0.999979
0.99998
0.999987
0.999995
1
0.999999
0.999992
0.999983
0.999979
0.999979
0.999982
0.999986
0.999973
0.999975
0.999967
0.999972
0.999978
0.999984
0.99999
0.999995
0.999999
1
1.00001
1.00002
1.00002
1.00002
1.00002
1.00001
0.999999
0.999991
0.999988
0.999991
0.999996
0.999999
0.999995
0.999985
0.999975
0.999972
0.999974
0.999976
0.999975
0.999965
0.999956
0.999982
0.999983
0.999989
0.999997
1
1.00001
1.00002
1.00002
1.00002
1.00003
1.00003
1.00003
1.00002
1.00001
0.999999
0.999991
0.999989
0.999992
0.999997
0.999998
0.999993
0.999983
0.999976
0.999977
0.999986
0.999994
0.999994
0.999987
0.999976
0.999986
0.999993
1
1.00001
1.00002
1.00002
1.00003
1.00003
1.00002
1.00002
1.00002
1.00001
1.00001
0.999995
0.999987
0.999984
0.999987
0.999994
1
1
0.999996
0.999986
0.999979
0.999982
0.999994
1.00001
1.00001
1
0.999993
0.999991
0.999998
1
1.00001
1.00002
1.00002
1.00002
1.00002
1.00002
1.00001
1.00001
1
0.999995
0.999988
0.999984
0.999985
0.999993
1
1.00001
1.00002
1.00001
0.999999
0.999991
0.999993
1
1.00002
1.00002
1
0.999995
0.99999
0.999986
0.999981
1.00001
1.00001
1.00001
1.00001
1.00001
1.00001
1.00001
1.00001
1.00001
1
0.999996
0.999993
0.999994
1
1.00001
1.00002
1.00002
1.00002
1.00001
1
1
1.00002
1.00003
1.00003
1.00002
1.00001
1
1
0.999992
1
1
1
1
1.00001
1.00001
1.00001
1.00001
1.00001
1.00001
1
0.999998
0.999995
0.999997
1
1.00001
1.00001
1
0.999996
0.999995
1
1.00002
1.00003
1.00004
1.00003
1.00002
1.00002
1.00002
1.00002
1.00003
1.00005
1
0.999999
1
1
1
1.00001
1.00001
1.00001
1
0.999994
0.999988
0.999988
0.999992
0.999996
0.999997
0.999994
0.99999
0.999991
1
1.00001
1.00002
1.00002
1.00001
1.00001
1.00001
1.00002
1.00002
1.00003
1.00005
1.00003
0.999999
0.999995
0.999994
0.999992
0.999991
0.99999
0.99999
0.999989
0.999987
0.999985
0.999987
0.999993
0.999999
1
1
0.999999
1
1.00001
1.00001
1.00002
1.00001
1
0.999993
0.999994
1
1.00001
1.00001
1.00002
1.00002
0.999985
0.999996
0.999984
0.999981
0.999978
0.999978
0.99998
0.999983
0.999985
0.999987
0.999991
0.999997
1
1.00001
1.00001
1
1
1
1
1
0.999992
0.999982
0.999981
0.999989
0.999997
1
1.00001
1.00001
1.00001
0.999988
1
0.999988
0.999977
0.999978
0.99998
0.999982
0.999983
0.999984
0.999985
0.999986
0.99999
0.999995
0.999997
0.999996
0.999993
0.999991
0.999991
0.999991
0.999987
0.999978
0.999969
0.999967
0.999975
0.999991
0.999993
0.99999
0.999999
1
0.999983
0.999995
1.00002
0.999987
0.99999
0.999993
0.999992
0.999988
0.999982
0.999977
0.999975
0.999977
0.999984
0.99999
0.999993
0.999994
0.999993
0.999994
0.999994
0.99999
0.99998
0.999972
0.999974
0.99998
0.999981
0.999984
0.99998
0.999977
0.999989
0.999994
0.999988
1.00002
1
0.999998
1.00001
1
0.999992
0.999982
0.999974
0.999971
0.999975
0.999983
0.999993
1
1
1
1
0.999997
0.999992
0.999985
0.999978
0.999979
0.99999
0.999995
0.999979
0.999973
0.999981
0.999984
0.999988
1
1.00001
1.00001
0.999992
1.00001
1.00001
0.999997
0.999989
0.999984
0.999982
0.999984
0.999989
0.999994
0.999998
0.999997
0.999995
0.999993
0.999991
0.999987
0.999981
0.99998
0.999987
0.999992
0.999995
0.999992
0.999969
0.999972
0.999992
0.999991
0.999982
1
1
0.999976
0.999999
1
1
0.999999
0.999998
0.999997
0.999995
0.999991
0.999987
0.999984
0.999982
0.999982
0.999985
0.99999
0.999994
0.999993
0.999991
0.999993
1
1
0.999981
0.999975
0.999968
0.999981
0.999994
0.999983
0.999976
0.999997
0.999986
0.999991
1
1
1.00001
1.00001
1
0.999999
0.999992
0.999984
0.99998
0.999979
0.999983
0.999991
1
1
1
0.999999
0.999996
0.999991
0.999996
0.999986
0.99996
0.99997
0.999987
0.999992
0.99998
0.99998
0.99999
1
1
1.00001
1
1.00001
1.00001
1
1
0.999997
0.999993
0.99999
0.999989
0.999991
0.999996
1
1
0.999998
0.999988
0.999984
0.999993
0.999987
0.999987
0.999987
0.999978
1
1.00002
0.999997
0.999979
1
1.00001
1.00001
1.00001
0.999994
1
1
1
1
1
1
0.999998
0.999995
0.999993
0.999994
0.999995
0.999995
0.999994
0.999993
0.999991
0.999991
1.00001
1
0.999995
1
1.00001
1.00002
1.00001
0.999991
0.999996
1.00003
1.00001
0.999999
0.999994
1
1.00001
1
1.00001
1.00001
1.00001
0.999999
0.999995
0.999994
0.999996
0.999997
0.999997
0.999994
0.999993
0.999996
1.00001
1
1.00001
0.999995
0.999988
0.999999
1.00001
1.00001
0.999993
0.999995
1.00001
1.00002
0.999992
0.999992
1
1.00002
1.00001
1.00001
1.00001
1.00001
1
0.999999
1
1
1
0.999995
0.999992
0.999993
0.999995
0.999993
1.00001
0.999996
1
0.999994
1.00001
1.00001
1.00001
0.999999
1
1.00002
1.00001
0.999997
0.999987
1
1.00002
1.00001
1.00001
1.00001
1.00001
1
1
1.00001
1.00001
1
0.999996
0.999995
0.999997
1
1.00001
0.99999
1
0.999996
1.00001
0.999997
1.00002
1.00001
1
0.999994
1.00001
1.00002
0.999993
0.999991
1.00001
1.00001
0.999997
1
1.00001
1
1
1
1
1
1
1
1.00001
1.00001
1
0.999991
0.999999
0.999995
1
1
1.00001
0.999988
1
1
0.999997
1
1.00001
1.00001
0.999996
1
1.00001
0.999998
0.999997
1.00003
1.00003
1
0.999998
0.999997
1
1.00001
1.00001
1
0.999994
0.999995
1
0.999998
0.999992
1.00001
1
1
1.00001
1.00001
1.00001
1.00001
1
1.00001
1.00001
0.999997
1.00002
0.999999
1
1.00001
1.00002
1.00002
1.00002
0.999997
1
1.00001
1.00001
1
0.999993
0.999998
1
0.999999
0.999995
1.00002
0.999984
1.00002
1.00001
0.999999
0.999994
1
0.999998
1.00001
0.999994
1.00001
1.00002
1
1.00002
0.999997
0.999991
1.00002
1.00002
0.999986
0.999992
1
1.00002
1.00001
0.999993
0.999995
1.00001
1.00001
1.00001
1.00001
0.999991
1.00002
0.999989
0.999997
0.999989
1
1.00001
1
0.999992
1.00001
1.00001
1.00001
1.00001
1
0.999982
1.00001
1.00001
0.99999
1.00002
1.00002
0.999981
1.00001
0.999992
0.999982
1.00001
1.00003
0.999997
0.999991
1
1.00001
0.999983
0.999987
1
1.00002
1.00001
0.999993
0.999997
1.00001
1
1.00001
1
1
0.999993
1.00001
0.999984
1
1.00002
0.999997
1.00002
1.00001
0.999961
0.999991
0.999989
1.00001
1
0.999987
1.00002
1.00001
0.999983
0.999999
1.00003
0.999992
0.999998
1.00001
0.999988
0.999994
1
1.00001
1.00001
0.999989
0.999989
1.00002
0.999997
0.999989
1.00001
0.999986
0.999993
1.00001
0.999998
0.999973
0.999934
0.99999
1.00001
0.999998
0.999975
0.999997
1.00001
0.999995
1.00002
0.999983
0.999985
1.00002
0.999991
0.999996
1.00001
0.999978
1
1
0.99999
0.999998
1.00001
0.99998
1
0.999993
0.999989
1.00001
0.999989
0.999985
1.00001
0.999996
0.999877
0.999989
0.999977
0.999987
0.999985
0.999973
0.999991
1
1
1
1
0.999981
0.999978
1.00001
0.999989
0.999988
1.00001
0.999991
1.00001
1
0.999996
1.00001
0.999999
0.99999
0.999999
0.999995
0.999976
0.999992
0.999998
0.999998
0.99992
0.999906
0.999556
0.999901
0.999958
0.999781
0.999898
0.999999
1
1
0.999988
1
0.999992
0.999994
1
0.99999
0.999976
1
0.999998
0.999994
1
1
1
0.999998
0.999998
0.999902
0.999768
0.999956
0.999917
0.999629
0.999834
0.997553
0.99763
0.999192
0.998798
0.999801
0.999894
0.999731
0.999981
0.999997
0.99999
1
1
1
1
0.999996
0.999997
1
0.999999
0.999997
1
1
0.999998
0.999975
0.999731
0.999899
0.999797
0.998805
0.999207
0.997449
0.997515
0.573668
0.695865
0.622923
0.615762
0.703836
0.714978
0.708863
0.754372
0.760432
0.739861
0.841199
0.757037
0.760792
0.880022
0.786526
0.793632
0.881061
0.76524
0.753753
0.840059
0.740285
0.759728
0.755016
0.708842
0.713129
0.705614
0.616087
0.622483
0.695061
0.574906
0.0303968
0.121189
0.0377841
0.0421714
0.12111
0.118517
0.0779783
0.140426
0.133236
0.108581
0.203725
0.0735841
0.0715549
0.239013
0.0914973
0.0971181
0.23803
0.0746017
0.0680929
0.200605
0.108981
0.133178
0.140872
0.0782712
0.118183
0.1213
0.0421786
0.0374165
0.121211
0.03086
0.000628974
0.00293318
0.000296415
0.00122164
0.00364484
0.00152535
0.00253621
0.008047
0.00338479
0.00221871
0.00277029
0.000631809
0.00346455
0.00218019
0.00111802
0.000824981
0.00194501
0.00438128
0.000804569
0.00241295
0.00214635
0.00342284
0.00814665
0.00257824
0.0015605
0.00371594
0.00125642
0.000300372
0.00280246
0.000640935
3.69689e-05
0.000146716
6.72115e-05
0.000465372
0.000352436
0.000504607
0.00053137
0.00125321
0.000437354
0.000267615
0.000430518
0.000320401
0.00159752
0.000510132
0.00026093
0.000206626
0.000646187
0.00151856
0.000417413
0.00051619
0.00025256
0.000455932
0.00123043
0.000542997
0.000498149
0.000351873
0.000502185
6.65543e-05
0.000171915
4.24358e-05
1.67198e-05
2.15961e-05
4.9397e-05
1.87505e-05
5.47304e-05
0.000306028
0.000249872
0.000122514
0.000437276
4.91734e-05
7.26357e-05
5.70193e-05
0.000184085
6.26685e-05
6.08328e-05
7.31966e-05
7.08298e-05
0.000220929
6.66481e-05
9.86061e-05
4.69137e-05
0.000450404
0.000122425
0.000263393
0.000308823
5.504e-05
2.02001e-05
4.84881e-05
2.38432e-05
1.93813e-05
1.09256e-06
1.46068e-06
3.55584e-06
3.26772e-06
5.12398e-06
2.01254e-05
3.15284e-05
7.78056e-06
1.51419e-05
3.45324e-05
1.08393e-05
8.81337e-06
2.28347e-05
1.53521e-05
1.6048e-05
1.61e-05
1.62353e-05
2.86239e-05
8.23213e-06
9.70739e-06
3.39774e-05
1.45954e-05
8.01977e-06
3.26175e-05
2.06162e-05
5.16496e-06
3.34037e-06
3.69095e-06
1.52351e-06
1.06708e-06
1.08826e-06
2.1097e-06
1.87185e-06
5.95755e-07
2.36755e-07
2.65259e-07
1.44417e-07
1.85725e-07
9.87067e-07
3.21056e-06
1.03774e-06
3.42869e-06
5.36605e-06
6.21412e-06
1.1452e-05
1.1766e-05
4.78895e-06
5.53405e-06
3.3818e-06
9.57304e-07
3.09219e-06
1.08324e-06
1.90731e-07
1.30773e-07
2.62125e-07
2.41518e-07
6.04923e-07
1.87833e-06
2.00358e-06
1.06107e-06
1.40098e-07
2.28313e-07
1.91776e-07
9.07375e-08
4.03651e-08
6.13923e-09
1.26573e-09
5.11848e-09
4.3187e-08
7.04988e-08
6.65519e-08
1.1621e-07
1.1694e-07
6.89165e-07
2.99483e-06
3.56841e-06
6.70829e-07
1.25256e-07
1.40505e-07
6.70939e-08
7.12425e-08
4.08562e-08
4.99197e-09
1.31779e-09
7.00726e-09
4.08595e-08
9.02793e-08
1.8833e-07
2.32898e-07
1.44654e-07
1.26274e-08
3.92684e-08
2.00709e-08
1.12527e-08
5.39518e-09
1.75937e-09
2.9896e-10
2.74074e-10
1.38068e-09
3.54195e-09
3.29085e-09
4.78129e-09
1.90466e-08
5.8579e-08
5.38474e-08
5.83883e-08
7.65689e-08
2.00334e-08
4.88953e-09
3.4411e-09
3.61736e-09
1.38194e-09
2.88234e-10
2.8039e-10
1.65019e-09
5.44423e-09
1.09814e-08
2.00491e-08
3.92644e-08
1.25004e-08
1.65817e-09
3.72333e-09
2.15139e-09
9.82854e-10
4.77531e-10
2.85849e-10
8.52616e-11
4.55674e-11
7.55853e-11
2.24613e-10
1.78759e-10
3.60483e-10
1.57001e-09
5.20251e-09
7.1014e-09
6.70063e-09
5.72156e-09
1.64762e-09
3.63056e-10
1.86116e-10
2.2188e-10
7.43025e-11
4.4919e-11
7.45369e-11
2.59779e-10
4.75355e-10
9.98179e-10
2.18711e-09
3.7721e-09
1.63013e-09
2.60981e-10
4.75336e-10
2.923e-10
1.50828e-10
7.72397e-11
4.26252e-11
2.50284e-11
1.08995e-11
9.35143e-12
1.47184e-11
1.19318e-11
2.43921e-11
1.02604e-10
3.55807e-10
7.1243e-10
6.81484e-10
3.60632e-10
1.05642e-10
2.48011e-11
1.24267e-11
1.4341e-11
9.14347e-12
1.06961e-11
2.285e-11
3.69215e-11
7.18951e-11
1.51062e-10
2.92876e-10
4.76732e-10
2.63412e-10
3.33128e-11
6.3847e-11
3.64604e-11
1.81968e-11
1.00268e-11
4.24733e-12
2.16327e-12
1.42615e-12
1.18527e-12
1.95678e-12
3.17313e-12
5.65137e-12
1.27014e-11
2.33799e-11
4.60688e-11
4.43842e-11
2.38758e-11
1.2818e-11
5.61926e-12
3.24196e-12
1.92885e-12
1.22722e-12
1.37059e-12
1.89737e-12
3.75302e-12
9.18291e-12
1.73175e-11
3.66413e-11
6.45517e-11
3.35375e-11
3.78993e-12
6.86683e-12
3.98619e-12
1.59156e-12
1.04471e-12
5.29752e-13
2.57462e-13
2.10119e-13
2.86334e-13
6.07082e-13
1.27691e-12
2.67658e-12
5.53872e-12
5.77536e-12
8.47122e-12
8.08307e-12
5.20908e-12
5.61464e-12
2.69921e-12
1.30208e-12
6.16854e-13
2.91859e-13
2.08507e-13
2.41464e-13
4.77539e-13
9.40303e-13
1.55085e-12
4.01939e-12
6.93867e-12
3.79932e-12
2.92796e-13
4.9981e-13
4.25956e-13
1.74149e-13
6.60886e-14
2.53301e-14
1.12728e-14
1.01817e-14
1.83645e-14
4.64949e-14
1.23129e-13
3.31646e-13
7.20094e-13
1.21149e-12
1.75794e-12
1.7531e-12
1.21192e-12
7.2887e-13
3.36135e-13
1.25988e-13
4.78851e-14
1.87795e-14
1.02918e-14
1.07399e-14
2.28924e-14
6.12358e-14
1.72362e-13
4.29436e-13
5.05432e-13
2.9531e-13
1.33247e-14
3.08105e-14
1.8972e-14
6.6686e-15
1.87476e-15
5.70042e-16
2.46003e-16
2.60547e-16
5.17814e-16
1.43206e-15
4.62882e-15
1.53897e-14
3.8892e-14
8.43436e-14
1.31421e-13
1.31015e-13
8.53307e-14
3.93921e-14
1.56766e-14
4.74636e-15
1.47722e-15
5.33728e-16
2.63146e-16
2.31953e-16
5.07053e-16
1.74052e-15
6.55719e-15
1.93314e-14
3.14214e-14
1.34464e-14
3.03971e-16
8.65356e-16
4.24835e-16
1.28792e-16
3.66618e-17
1.06937e-17
5.14311e-18
6.88174e-18
1.47585e-17
4.12033e-17
1.33314e-16
4.46657e-16
1.25007e-15
2.8819e-15
4.70215e-15
4.69307e-15
2.89481e-15
1.26455e-15
4.5735e-16
1.37938e-16
4.27569e-17
1.53179e-17
6.96505e-18
4.87796e-18
9.33932e-18
3.33258e-17
1.27937e-16
4.32905e-16
8.82381e-16
3.07273e-16
5.15873e-18
1.56485e-17
7.6676e-18
2.22695e-18
6.08918e-19
1.7482e-19
1.04264e-19
1.74435e-19
3.94949e-19
1.08594e-18
3.35902e-18
1.08318e-17
2.97453e-17
6.71676e-17
1.09825e-16
1.10439e-16
6.78895e-17
3.00767e-17
1.11e-17
3.49046e-18
1.1247e-18
4.09003e-19
1.78114e-19
1.00257e-19
1.52588e-19
5.4872e-19
2.1944e-18
7.78538e-18
1.60308e-17
5.19621e-18
7.20661e-20
2.439e-19
1.15074e-19
3.24635e-20
8.30409e-21
2.48724e-21
1.99687e-21
3.96002e-21
9.13838e-21
2.43037e-20
7.26274e-20
2.25367e-19
5.9472e-19
1.31125e-18
2.12398e-18
2.12506e-18
1.31927e-18
6.05229e-19
2.31514e-19
7.5269e-20
2.52223e-20
9.49366e-21
4.10231e-21
1.95792e-21
2.16364e-21
7.54254e-21
3.17287e-20
1.18039e-19
2.48834e-19
7.37161e-20
8.21987e-22
3.11764e-21
1.44731e-21
3.81008e-22
9.67193e-23
3.15583e-23
3.57765e-23
7.98221e-23
1.80465e-22
4.56552e-22
1.29686e-21
3.8268e-21
9.81039e-21
2.12242e-20
3.37109e-20
3.36375e-20
2.13002e-20
1.00045e-20
3.93176e-21
1.33707e-21
4.7192e-22
1.86843e-22
8.28571e-23
3.61941e-23
2.75148e-23
8.56508e-23
3.7679e-22
1.47014e-21
3.20301e-21
8.56903e-22
7.91292e-24
3.17949e-23
1.49544e-23
3.78502e-24
9.39696e-25
3.60949e-25
5.95409e-25
1.38743e-24
2.98943e-24
7.081e-24
1.8906e-23
5.30467e-23
1.30186e-22
2.68988e-22
4.17922e-22
4.20567e-22
2.71853e-22
1.31478e-22
5.40691e-23
1.96636e-23
7.40162e-24
3.11555e-24
1.44201e-24
6.19056e-25
3.33158e-25
8.08988e-25
3.67198e-24
1.50398e-23
3.36646e-23
8.11033e-24
5.85829e-26
2.82857e-25
1.22228e-25
3.10231e-26
7.42859e-27
4.10929e-27
8.97611e-27
2.02524e-26
4.07915e-26
9.01982e-26
2.25849e-25
5.91972e-25
1.36065e-24
2.69535e-24
4.17086e-24
4.23176e-24
2.77266e-24
1.38937e-24
6.04576e-25
2.35658e-25
9.50313e-26
4.30542e-26
2.12708e-26
9.34472e-27
3.98971e-27
6.51729e-27
2.94726e-26
1.26078e-25
2.88617e-25
6.24792e-26
3.63951e-28
1.9579e-27
8.45955e-28
2.04902e-28
5.31176e-29
4.6377e-29
1.14184e-28
2.45943e-28
4.66866e-28
9.5551e-28
2.17314e-27
5.11639e-27
1.09471e-26
2.09323e-26
3.17035e-26
3.16644e-26
2.11831e-26
1.13377e-26
5.3689e-27
2.2871e-27
1.00574e-27
4.97404e-28
2.65025e-28
1.2171e-28
4.64091e-29
4.65689e-29
1.95672e-28
8.65199e-28
2.02426e-27
3.93757e-28
2.02316e-30
1.07297e-29
5.05358e-30
1.1592e-30
3.54367e-31
4.68499e-31
1.21803e-30
2.52699e-30
4.44511e-30
8.16758e-30
1.65371e-29
3.52759e-29
7.11895e-29
1.29076e-28
1.86653e-28
1.86896e-28
1.32645e-28
7.66556e-29
3.88424e-29
1.79196e-29
8.69656e-30
4.76992e-30
2.75782e-30
1.33728e-30
4.96109e-31
3.10454e-31
1.07689e-30
4.87405e-30
1.16732e-29
2.04138e-30
7.96419e-33
5.47477e-32
2.34556e-32
5.66848e-33
2.21159e-33
4.38659e-33
1.14718e-32
2.18705e-32
3.4063e-32
5.51076e-32
1.00626e-31
1.97728e-31
3.66097e-31
6.07244e-31
8.40148e-31
8.6192e-31
6.41711e-31
3.89834e-31
2.13518e-31
1.11572e-31
6.18376e-32
3.77159e-32
2.3565e-32
1.21746e-32
4.67753e-33
2.08077e-33
5.07721e-33
2.28736e-32
5.52578e-32
8.6952e-33
2.93042e-35
2.27071e-34
9.11827e-35
2.41362e-35
1.39528e-35
3.60468e-35
8.82595e-35
1.52444e-34
2.14912e-34
3.18122e-34
5.25764e-34
8.94911e-34
1.41414e-33
2.12245e-33
2.89955e-33
3.08217e-33
2.4098e-33
1.58435e-33
9.83828e-34
5.88753e-34
3.63876e-34
2.43026e-34
1.66144e-34
9.41849e-35
3.87452e-35
1.43599e-35
2.14122e-35
8.93208e-35
2.1248e-34
3.08876e-35
1.07697e-37
6.83394e-37
3.34972e-37
9.46339e-38
8.85438e-38
2.40672e-37
5.55686e-37
9.02995e-37
1.19006e-36
1.60122e-36
2.2606e-36
3.21296e-36
4.54711e-36
6.6459e-36
8.91344e-36
9.12118e-36
7.20047e-36
5.21412e-36
3.73235e-36
2.53869e-36
1.75143e-36
1.30995e-36
1.00547e-36
6.30773e-37
2.75565e-37
9.43936e-38
8.31145e-38
2.90059e-37
6.83904e-37
9.66908e-38
2.57187e-40
2.02074e-39
1.05056e-39
3.67718e-40
5.00475e-40
1.42868e-39
3.22316e-39
4.82465e-39
5.63662e-39
6.36097e-39
7.37233e-39
9.29126e-39
1.25926e-38
1.6957e-38
1.96089e-38
1.83571e-38
1.57749e-38
1.38705e-38
1.18144e-38
9.06283e-39
6.99061e-39
5.92706e-39
5.14047e-39
3.54597e-39
1.63679e-39
5.56172e-40
3.27552e-40
8.48155e-40
1.97416e-39
2.77295e-40
6.42784e-43
6.33951e-42
2.84069e-42
1.40757e-42
2.53774e-42
7.48928e-42
1.5334e-41
2.03975e-41
2.073e-41
2.02178e-41
2.13866e-41
2.57887e-41
3.08475e-41
3.33331e-41
3.27895e-41
3.19806e-41
3.27146e-41
3.29633e-41
3.01723e-41
2.52001e-41
2.24847e-41
2.25093e-41
2.25892e-41
1.7143e-41
8.34415e-42
2.91386e-42
1.38114e-42
2.43106e-42
5.20699e-42
7.32974e-43
2.1579e-45
1.42167e-44
7.64724e-45
5.34391e-45
1.19551e-44
3.15324e-44
5.75775e-44
7.07513e-44
6.46896e-44
5.81512e-44
5.7824e-44
6.03124e-44
5.50877e-44
4.77643e-44
4.60186e-44
5.06115e-44
5.50538e-44
5.57771e-44
5.49373e-44
5.5756e-44
6.29867e-44
7.52087e-44
8.54858e-44
6.89291e-44
3.51784e-44
1.29803e-44
5.75076e-45
7.07543e-45
1.27122e-44
1.86043e-45
4.41723e-48
2.86245e-47
2.04243e-47
1.96777e-47
4.40135e-47
1.06051e-46
1.92371e-46
2.18627e-46
1.83594e-46
1.44895e-46
1.21548e-46
9.79552e-47
7.18858e-47
5.75396e-47
5.83742e-47
6.39236e-47
6.50431e-47
6.75394e-47
8.14696e-47
1.07728e-46
1.48354e-46
2.01199e-46
2.39556e-46
2.136e-46
1.20889e-46
4.96098e-47
2.22745e-47
2.14733e-47
3.04299e-47
4.75266e-48
1.05187e-50
6.90986e-50
5.51064e-50
5.88749e-50
1.19671e-49
2.94076e-49
5.15023e-49
4.99313e-49
3.83641e-49
2.54836e-49
1.817e-49
1.29978e-49
9.23348e-50
7.33579e-50
6.63893e-50
5.91754e-50
5.5562e-50
6.77996e-50
1.06215e-49
1.72558e-49
2.6869e-49
4.09847e-49
5.25148e-49
5.64477e-49
3.70262e-49
1.66655e-49
7.53947e-50
6.29891e-50
7.17683e-50
1.191e-50
2.65277e-53
1.45906e-52
1.33341e-52
1.37566e-52
2.90796e-52
6.817e-52
1.02332e-51
9.03691e-52
6.02527e-52
3.59494e-52
2.427e-52
1.73235e-52
1.18596e-52
7.85649e-53
5.38644e-53
4.16636e-53
4.55021e-53
7.43959e-53
1.41969e-52
2.54763e-52
4.23e-52
7.06018e-52
1.07178e-51
1.27783e-51
9.46273e-52
4.39551e-52
1.98463e-52
1.56722e-52
1.58779e-52
2.8008e-53
4.18082e-56
2.8338e-55
2.37303e-55
2.73012e-55
5.85458e-55
1.22745e-54
1.74318e-54
1.52064e-54
9.39277e-55
5.36095e-55
3.55499e-55
2.36802e-55
1.35039e-55
7.14535e-56
4.41681e-56
3.89328e-56
5.27793e-56
9.52767e-56
1.81521e-55
3.21333e-55
5.53671e-55
1.02187e-54
1.79838e-54
2.28709e-54
1.81572e-54
8.57546e-55
4.03406e-55
3.27601e-55
3.28346e-55
6.03029e-56
8.23639e-59
5.09437e-58
3.91439e-58
5.0198e-58
9.15856e-58
1.89693e-57
2.67384e-57
2.24265e-57
1.26997e-57
7.04902e-58
4.41994e-58
2.55404e-58
1.24718e-58
6.43232e-59
4.54163e-59
4.59729e-59
6.12893e-59
9.91212e-59
1.79562e-58
3.33665e-58
6.52416e-58
1.39059e-57
2.75143e-57
3.57665e-57
2.89406e-57
1.38428e-57
6.99998e-58
6.04233e-58
6.22193e-58
1.14575e-58
2.20563e-61
6.13653e-61
7.89255e-61
9.36858e-61
1.60991e-60
3.47959e-60
4.1506e-60
3.15501e-60
1.62637e-60
8.58555e-61
4.80207e-61
2.45336e-61
1.17403e-61
6.85333e-62
5.41977e-62
5.34627e-62
6.43782e-62
9.83928e-62
1.94657e-61
4.25091e-61
9.52246e-61
2.16179e-60
4.25909e-60
5.24848e-60
4.0829e-60
1.97878e-60
1.08775e-60
9.92007e-61
1.05168e-60
1.91815e-61
1.78958e-64
1.14396e-63
1.65958e-63
1.72008e-63
3.10799e-63
6.12126e-63
6.09704e-63
4.57739e-63
2.30188e-63
1.14802e-63
5.7538e-64
2.73513e-64
1.33699e-64
8.12375e-65
6.11741e-65
5.50748e-65
6.54811e-65
1.10615e-64
2.53348e-64
6.09022e-64
1.37022e-63
2.92072e-63
5.45521e-63
6.37908e-63
5.12776e-63
2.70258e-63
1.6278e-63
1.54972e-63
1.66283e-63
2.96558e-64
2.95964e-67
3.36401e-66
2.79963e-66
2.75762e-66
4.56004e-66
7.5474e-66
7.18955e-66
5.70436e-66
2.87437e-66
1.32691e-66
6.02723e-67
2.68328e-67
1.24411e-67
6.84803e-68
4.5848e-68
4.03686e-68
5.41102e-68
1.08824e-67
2.76786e-67
6.6629e-67
1.41793e-66
2.93062e-66
5.84649e-66
7.3298e-66
6.98862e-66
4.10242e-66
2.55304e-66
2.41914e-66
2.52382e-66
4.32418e-67
9.58341e-70
4.71166e-69
3.5725e-69
3.61673e-69
5.45498e-69
8.45698e-69
8.23448e-69
6.42034e-69
2.98016e-69
1.20633e-69
4.90004e-70
2.02379e-70
8.6365e-71
4.2793e-71
2.76711e-71
2.7486e-71
4.46918e-71
1.02429e-70
2.64155e-70
6.09233e-70
1.28443e-69
2.86574e-69
6.64119e-69
9.69295e-69
1.02247e-68
6.13295e-69
3.69205e-69
3.40737e-69
3.52656e-69
5.9606e-70
1.00974e-72
3.42201e-72
3.97513e-72
4.25706e-72
6.60477e-72
1.00334e-71
9.59583e-72
6.69888e-72
2.74096e-72
9.71684e-73
3.71414e-73
1.54606e-73
6.69057e-74
3.42156e-74
2.42872e-74
2.72677e-74
4.68626e-74
1.02941e-73
2.42779e-73
5.30838e-73
1.16565e-72
2.88826e-72
7.37529e-72
1.14071e-71
1.17605e-71
6.79694e-72
4.17804e-72
4.03288e-72
4.58958e-72
8.06348e-73
5.765e-76
5.82773e-75
5.78904e-75
5.66941e-75
7.67874e-75
1.0013e-74
9.33574e-75
6.07028e-75
2.3023e-75
7.87587e-76
3.1988e-76
1.46126e-76
6.78115e-77
3.65785e-77
2.68518e-77
2.90346e-77
4.44023e-77
8.35592e-77
1.7804e-76
3.92889e-76
9.40513e-76
2.53689e-75
6.61593e-75
9.7277e-75
9.48596e-75
5.57875e-75
3.98479e-75
4.4011e-75
5.86912e-75
1.06673e-75
1.48753e-78
1.37877e-77
8.75319e-78
7.28074e-78
7.7247e-78
9.27944e-78
9.31358e-78
6.14211e-78
2.30069e-78
8.31769e-79
3.70203e-79
1.75824e-79
8.00284e-80
4.12134e-80
2.79461e-80
2.64902e-80
3.47159e-80
5.87414e-80
1.25452e-79
3.05386e-79
8.06606e-79
2.24455e-78
5.58244e-78
7.53359e-78
7.11174e-78
4.62918e-78
3.72665e-78
4.77655e-78
6.96861e-78
1.23784e-78
4.41246e-81
1.36227e-80
9.22048e-81
6.3268e-81
6.88711e-81
1.01834e-80
1.09007e-80
7.11027e-81
2.67645e-81
1.03135e-81
4.65115e-82
2.07112e-82
8.6115e-83
4.12081e-83
2.63643e-83
2.34941e-83
2.97309e-83
5.14633e-83
1.18904e-82
3.14613e-82
8.48768e-82
2.24479e-81
5.11104e-81
6.57199e-81
6.13186e-81
4.29423e-81
3.56034e-81
4.67334e-81
6.6526e-81
1.11158e-81
1.88749e-84
6.44797e-84
7.07147e-84
5.68825e-84
7.67128e-84
1.23977e-83
1.16027e-83
6.43899e-84
2.38395e-84
9.0638e-85
3.72275e-85
1.45691e-85
5.67275e-86
2.79639e-86
1.93577e-86
1.87576e-86
2.55793e-86
4.7315e-86
1.13745e-85
3.01555e-85
7.8322e-85
1.9689e-84
4.38256e-84
5.85292e-84
5.66399e-84
4.08913e-84
3.23623e-84
3.91779e-84
4.9176e-84
7.76924e-85
1.00558e-87
1.11104e-86
9.99489e-87
8.35581e-87
1.22493e-86
1.46616e-86
9.86864e-87
4.314e-87
1.46558e-87
4.72062e-88
1.53354e-88
5.10511e-89
2.0265e-89
1.18244e-89
9.78739e-90
1.07442e-89
1.56679e-89
2.9631e-89
7.07077e-89
1.8472e-88
4.86872e-88
1.31399e-87
3.31666e-87
5.29526e-87
5.70726e-87
4.16302e-87
3.04636e-87
3.15692e-87
3.28874e-87
4.98368e-88
2.38277e-90
2.28023e-89
1.57651e-89
1.35234e-89
1.63406e-89
1.34776e-89
7.90014e-90
3.24904e-90
9.85216e-91
2.51392e-91
6.5541e-92
2.05607e-92
8.58196e-93
5.34347e-93
4.5494e-93
4.92462e-93
6.95507e-93
1.28292e-92
3.05075e-92
8.35225e-92
2.53465e-91
8.48544e-91
2.71402e-90
5.43994e-90
6.50895e-90
4.68427e-90
3.06437e-90
2.7258e-90
2.40545e-90
3.58486e-91
4.91736e-93
1.81792e-92
1.36166e-92
1.07925e-92
1.22241e-92
1.08078e-92
7.57709e-93
3.19453e-93
8.54167e-94
1.88253e-94
4.61123e-95
1.4385e-95
5.94718e-96
3.33963e-96
2.38793e-96
2.28344e-96
3.09771e-96
5.8661e-96
1.47868e-95
4.43594e-95
1.53518e-94
6.09447e-94
2.32462e-93
5.43547e-93
6.88027e-93
4.85486e-93
2.94809e-93
2.49796e-93
2.13543e-93
3.31457e-94
1.84663e-96
8.45062e-96
9.95445e-96
8.71015e-96
1.02777e-95
1.11608e-95
8.09891e-96
2.88422e-96
6.37239e-97
1.31118e-97
3.34239e-98
1.04822e-98
3.85434e-99
1.76288e-99
1.06663e-99
9.99837e-100
1.49129e-99
3.18539e-99
8.75525e-99
2.72393e-98
9.57517e-98
3.86337e-97
1.5498e-96
3.94396e-96
5.2687e-96
4.01825e-96
2.65944e-96
2.4705e-96
2.42381e-96
4.05392e-97
1.27357e-99
1.46139e-98
1.40608e-98
1.14136e-98
1.43932e-98
1.45319e-98
7.33422e-99
1.75692e-99
3.15176e-100
6.45404e-101
1.71703e-101
5.19064e-102
1.70957e-102
7.17183e-103
4.54996e-103
4.62042e-103
7.42727e-103
1.72178e-102
4.81544e-102
1.41428e-101
4.52168e-101
1.70065e-100
6.80465e-100
1.95742e-99
3.04149e-99
3.03779e-99
2.48799e-99
2.83616e-99
3.36754e-99
5.89894e-100
2.89802e-102
2.58992e-101
1.84344e-101
1.49644e-101
1.82198e-101
1.50199e-101
4.68255e-102
7.93937e-103
1.41775e-103
3.22381e-104
9.23143e-105
3.04434e-105
1.16672e-105
5.68235e-106
3.67704e-106
3.31586e-106
4.45583e-106
8.71996e-106
2.17304e-105
5.75746e-105
1.70886e-104
6.33388e-104
2.69778e-103
9.26678e-103
1.97201e-102
2.60889e-102
2.61382e-102
3.55631e-102
4.79682e-102
8.30237e-103
4.82751e-105
2.02697e-104
1.40942e-104
1.24789e-104
1.38695e-104
8.76305e-105
2.39986e-105
4.70077e-106
1.00971e-106
2.36131e-107
6.90589e-108
2.67669e-108
1.21107e-108
6.18939e-109
3.84094e-109
2.99903e-109
3.01368e-109
3.93857e-109
8.19145e-109
2.22794e-108
7.63798e-108
3.20874e-107
1.53463e-106
6.33733e-106
1.66313e-105
2.5454e-105
2.77213e-105
3.99498e-105
5.5748e-105
9.26935e-106
1.71411e-105
1.71411e-105
4.60828e-105
6.80605e-105
4.24917e-105
1.49391e-105
3.22214e-106
5.36549e-107
9.00075e-108
2.70803e-108
1.075e-108
4.98646e-109
2.50982e-109
1.51297e-109
1.03393e-109
7.84115e-110
7.41914e-110