/*--------------------------------*- C++ -*----------------------------------*\
| =========                 |                                                 |
| \\      /  F ield         | OpenFOAM: The Open Source CFD Toolbox           |
|  \\    /   O peration     | Version:  2312                                  |
|   \\  /    A nd           | Website:  www.openfoam.com                      |
|    \\/     M anipulation  |                                                 |
\*---------------------------------------------------------------------------*/
FoamFile
{
    version     2.0;
    format      ascii;
    arch        "LSB;label=32;scalar=64";
    class       surfaceScalarField;
    location    "0.912455";
    object      alphaPhi0.water;
}
// * * * * * * * * * * * * * * * * * * * * * * * * * * * * * * * * * * * * * //

dimensions      [0 3 -1 0 0 0 0];

oriented        oriented;

internalField   nonuniform List<scalar> 
263100
(
-9.94075e-10
1.98807e-09
-9.94075e-10
-8.75694e-10
1.18971e-09
-1.07151e-09
-1.41554e-09
1.68346e-09
-9.44356e-10
-1.63968e-09
1.35301e-09
-9.47843e-10
-1.60206e-09
9.48235e-10
-8.29016e-10
-1.25284e-09
4.29004e-10
-6.53098e-10
-6.95079e-10
-6.32092e-11
-4.09784e-10
-9.06762e-11
-4.02215e-10
-1.67482e-10
3.49536e-10
-4.86454e-10
2.15598e-11
4.94241e-10
-3.11265e-10
7.58799e-11
4.06774e-10
-3.51338e-11
-3.56025e-11
1.42679e-10
3.22022e-10
-2.78634e-10
-1.08276e-10
5.71307e-10
-5.91995e-10
-1.42453e-10
6.31913e-10
-9.03694e-10
1.57109e-10
5.15845e-10
-1.13669e-09
8.32085e-10
2.31503e-10
-1.22494e-09
1.75475e-09
-1.13048e-10
-1.11087e-09
2.61714e-09
-3.1706e-10
-8.20747e-10
3.07528e-09
-3.18239e-10
-3.87297e-10
2.85149e-09
-6.79384e-11
6.88116e-11
1.89708e-09
4.42793e-10
3.05696e-10
1.80993e-10
1.07358e-09
4.44742e-10
-2.02071e-09
1.56592e-09
4.38774e-10
-4.25633e-09
1.75122e-09
2.84803e-10
-5.84049e-09
1.35537e-09
2.93642e-11
-6.11259e-09
3.76328e-10
-2.93651e-10
-4.80917e-09
-8.81351e-10
-5.85259e-10
-1.77781e-09
-2.2768e-09
-8.72063e-10
3.14643e-09
-2.68925e-09
-2.29033e-09
9.72775e-09
-6.57203e-09
-2.00244e-10
2.66251e-09
-2.00244e-10
-7.2632e-10
2.20703e-09
-1.72074e-10
-9.37438e-10
2.32931e-09
-1.64748e-10
-1.12121e-09
1.91638e-09
-1.53503e-10
-1.1573e-09
1.2548e-09
-9.85086e-11
-1.07709e-09
5.16873e-10
-6.24915e-11
-8.99365e-10
-1.56756e-10
-5.86042e-11
-6.32637e-10
-6.45145e-10
-9.11833e-11
-3.15922e-10
-8.10919e-10
-1.61334e-10
3.0144e-11
-6.87277e-10
-2.41775e-10
3.62844e-10
-4.14844e-10
-3.18237e-10
7.3615e-10
-1.63576e-10
-3.27394e-10
1.11442e-09
-6.87377e-12
-2.87674e-10
1.46893e-09
-6.27873e-11
-1.65668e-10
1.75361e-09
-2.65617e-10
1.88033e-13
1.88562e-09
-5.27891e-10
1.6093e-10
1.80762e-09
-7.13456e-10
2.53414e-10
1.55463e-09
-6.93316e-10
2.46773e-10
1.18831e-09
-4.27118e-10
1.27746e-10
7.12391e-10
1.39854e-10
-5.69128e-11
1.46916e-10
8.64818e-10
-1.72434e-10
-4.31346e-10
1.58258e-09
-2.4677e-10
-9.09436e-10
1.99771e-09
-2.71358e-10
-1.1481e-09
1.83937e-09
-1.59881e-10
-1.12215e-09
9.40909e-10
1.0498e-10
-1.00389e-09
-5.37158e-10
5.66605e-10
-8.72352e-10
-2.51611e-09
1.36008e-09
2.434e-10
-5.74497e-09
2.31741e-09
4.23181e-09
-9.94871e-09
3.34391e-09
1.10233e-08
3.08413e-09
1.44461e-10
2.53612e-09
1.44461e-10
-1.45343e-10
2.48371e-09
8.09783e-11
-2.5962e-10
2.39835e-09
8.80248e-11
-4.31634e-10
1.98291e-09
1.19027e-10
-6.77424e-10
1.36986e-09
1.13842e-10
-9.44201e-10
6.68607e-10
6.53517e-11
-1.14183e-09
2.54703e-11
-7.05128e-11
-1.17817e-09
-4.69318e-10
-2.64321e-10
-9.46416e-10
-7.72862e-10
-4.33273e-10
-4.12059e-10
-8.80386e-10
-5.38266e-10
3.7427e-10
-8.84239e-10
-5.37351e-10
1.26339e-09
-8.7372e-10
-4.08903e-10
2.05645e-09
-8.62771e-10
-1.61776e-10
2.541e-09
-8.38906e-10
8.47369e-11
2.55465e-09
-7.76275e-10
3.15209e-10
2.06723e-09
-6.21009e-10
4.24356e-10
1.21986e-09
-3.63546e-10
3.61199e-10
2.67384e-10
2.5449e-11
1.07628e-10
-5.28457e-10
4.69673e-10
-2.27219e-10
-9.23226e-10
9.30541e-10
-5.2963e-10
-7.3877e-10
1.3741e-09
-8.3598e-10
3.51133e-11
1.64364e-09
-9.7891e-10
1.17809e-09
1.645e-09
-9.21335e-10
2.48786e-09
1.13403e-09
-7.01954e-10
3.64952e-09
1.9759e-10
-4.58661e-10
4.42965e-09
-1.00265e-09
-2.75293e-10
3.70385e-09
-1.85872e-09
2.03528e-10
1.19413e-09
-3.88135e-09
8.80242e-10
3.74327e-10
-1.19821e-08
3.17115e-09
7.4875e-09
4.23475e-09
3.68229e-10
1.80942e-09
3.68229e-10
3.3218e-10
1.89871e-09
4.2818e-10
3.82373e-10
1.73763e-09
4.22889e-10
2.59755e-10
1.48383e-09
4.24295e-10
-7.19829e-11
1.14835e-09
3.52474e-10
-5.44177e-10
7.3714e-10
2.06325e-10
-9.88991e-10
2.81941e-10
1.23815e-12
-1.26183e-09
-1.58032e-10
-2.07625e-10
-1.21052e-09
-5.53377e-10
-4.12983e-10
-7.71468e-10
-9.1055e-10
-5.14227e-10
-6.16612e-12
-1.21315e-09
-4.96063e-10
8.81111e-10
-1.39996e-09
-3.69831e-10
1.62876e-09
-1.40607e-09
-1.63201e-10
2.03178e-09
-1.16523e-09
5.88676e-12
1.92774e-09
-6.76489e-10
1.12633e-10
1.36046e-09
-2.80001e-11
8.81573e-11
4.93406e-10
6.92446e-10
-9.02929e-11
-4.04948e-10
1.31115e-09
-3.20123e-10
-9.7199e-10
1.69829e-09
-6.32755e-10
-9.33047e-10
1.77661e-09
-8.8964e-10
-1.19553e-10
1.59005e-09
-1.05052e-09
1.32079e-09
1.28149e-09
-1.08962e-09
3.11591e-09
8.34867e-10
-9.56819e-10
4.77858e-09
3.25456e-10
-7.58962e-10
5.84562e-09
-1.54952e-10
-5.33562e-10
6.27038e-09
-7.20816e-10
-4.34086e-10
6.70967e-09
-7.37416e-10
-1.20651e-09
4.2075e-09
7.3667e-10
-1.70565e-09
-2.23647e-09
-4.08779e-09
-1.02199e-09
5.46983e-09
1.06958e-10
5.40433e-10
5.79511e-10
5.40433e-10
8.24006e-10
6.07846e-10
6.28748e-10
1.06008e-09
5.36325e-10
6.20809e-10
1.05828e-09
5.34817e-10
6.16813e-10
7.75128e-10
5.74546e-10
5.42902e-10
2.89996e-10
5.44637e-10
3.9559e-10
-2.62539e-10
3.96485e-10
2.01526e-10
-7.24808e-10
1.12268e-10
1.57778e-11
-9.84604e-10
-2.78853e-10
-1.16534e-10
-9.72122e-10
-7.30358e-10
-2.09455e-10
-7.23999e-10
-1.13621e-09
-2.53192e-10
-3.47304e-10
-1.39933e-09
-2.23113e-10
3.00318e-12
-1.35157e-09
-1.85717e-10
2.39305e-10
-9.42664e-10
-2.02184e-10
2.77778e-10
-1.74976e-10
-2.78817e-10
1.36244e-10
7.56327e-10
-4.09964e-10
-1.22489e-10
1.68988e-09
-5.59872e-10
-3.27471e-10
2.28701e-09
-6.58493e-10
-2.42939e-10
2.38737e-09
-7.23534e-10
3.20997e-10
1.99124e-09
-7.70204e-10
1.34317e-09
1.32699e-09
-7.59884e-10
2.77574e-09
5.98142e-10
-7.22406e-10
4.22659e-09
1.45863e-10
-6.75719e-10
5.3352e-09
5.86015e-12
-6.2552e-10
5.69485e-09
3.15208e-10
-5.89929e-10
5.09093e-09
6.96214e-10
-5.17859e-10
4.13534e-09
1.29035e-09
-7.58909e-10
2.6832e-09
3.9278e-09
-1.45338e-09
-1.84454e-09
2.7739e-09
-2.11853e-09
5.73138e-09
-2.05312e-09
4.43184e-10
-5.51881e-10
4.43184e-10
1.12476e-09
-1.10516e-09
6.10085e-10
1.57876e-09
-9.15914e-10
6.25812e-10
1.80103e-09
-6.29973e-10
5.91133e-10
1.75362e-09
-2.23497e-10
5.22238e-10
1.456e-09
1.41263e-10
4.17612e-10
9.70743e-10
3.48577e-10
3.04385e-10
3.7046e-10
3.38175e-10
2.16118e-10
-2.76878e-10
1.30075e-10
1.64272e-10
-9.07964e-10
-2.23874e-10
1.415e-10
-1.45375e-09
-5.78279e-10
9.20773e-11
-1.84789e-09
-7.79505e-10
-5.04565e-11
-2.02419e-09
-7.4638e-10
-2.10688e-10
-1.92288e-09
-4.19857e-10
-3.98514e-10
-1.57795e-09
2.31416e-10
-5.54825e-10
-1.06323e-09
1.03045e-09
-6.51226e-10
-4.0013e-10
1.73079e-09
-6.41592e-10
3.14551e-10
2.09509e-09
-5.34487e-10
1.10899e-09
1.91306e-09
-3.87663e-10
1.94137e-09
1.29081e-09
-2.24565e-10
2.78647e-09
5.06234e-10
-1.07313e-10
3.50834e-09
-9.08232e-11
-7.75916e-11
4.03933e-09
-2.45112e-10
-1.33177e-10
4.17602e-09
2.17154e-10
-2.97305e-10
3.85174e-09
1.31282e-09
-6.07617e-10
2.63323e-09
2.94572e-09
-9.94174e-10
8.10346e-10
4.44227e-09
-1.36903e-09
-5.11174e-11
6.98749e-09
-2.35274e-09
-2.10992e-09
7.62991e-09
-3.08015e-09
6.13294e-09
-2.90209e-09
1.4522e-10
-1.0879e-09
1.4522e-10
1.09754e-09
-2.69689e-09
3.05587e-10
1.77162e-09
-2.1588e-09
2.7876e-10
2.30942e-09
-1.61866e-09
1.78023e-10
2.65053e-09
-9.25315e-10
1.06963e-10
2.71852e-09
-2.51955e-10
9.83087e-11
2.4581e-09
3.12221e-10
1.08128e-10
1.81857e-09
6.78549e-10
1.6082e-10
8.33814e-10
8.11059e-10
2.2411e-10
-4.02271e-10
7.70709e-10
2.20881e-10
-1.71558e-09
6.09707e-10
1.53488e-10
-2.8221e-09
3.95813e-10
-1.2598e-11
-3.4839e-09
1.75973e-10
-2.04277e-10
-3.52825e-09
9.62047e-11
-4.44571e-10
-2.95823e-09
2.01279e-10
-5.65436e-10
-1.89261e-09
4.05938e-10
-5.3122e-10
-5.40586e-10
5.83592e-10
-3.56523e-10
8.47903e-10
5.64674e-10
-5.43564e-11
2.06783e-09
2.98165e-10
1.79931e-10
2.91734e-09
-1.69122e-10
4.03034e-10
3.31151e-09
-6.73095e-10
6.03063e-10
3.22994e-09
-7.99623e-10
6.34905e-10
2.76549e-09
-4.07129e-10
4.7901e-10
1.93211e-09
6.98662e-10
1.75707e-10
8.76691e-10
2.3825e-09
-2.6619e-10
-2.66448e-10
4.60594e-09
-8.89837e-10
-1.61561e-09
6.7597e-09
-1.49059e-09
-1.74968e-09
8.46862e-09
-2.01839e-09
-1.68491e-09
8.89961e-09
-2.11921e-09
5.36014e-09
-1.64831e-09
-3.89901e-10
-4.80095e-10
-3.89901e-10
7.36642e-10
-3.75819e-09
-2.5913e-10
1.60483e-09
-2.8254e-09
-3.71049e-10
2.46814e-09
-2.17428e-09
-4.7275e-10
3.2229e-09
-1.35265e-09
-4.89097e-10
3.73697e-09
-4.8047e-10
-4.39638e-10
3.78872e-09
4.0927e-10
-2.88674e-10
3.24766e-09
1.22427e-09
-1.24907e-10
2.14178e-09
1.82562e-09
-8.68237e-12
5.82988e-10
2.16846e-09
7.45868e-11
-1.1502e-09
2.19289e-09
6.33225e-11
-2.67147e-09
1.8511e-09
-3.90144e-11
-3.65779e-09
1.17212e-09
-1.50391e-10
-3.92534e-09
3.74537e-10
-1.97802e-10
-3.41741e-09
-3.74125e-10
-1.66161e-10
-2.27916e-09
-9.90302e-10
-1.04038e-11
-7.90461e-10
-1.36378e-09
1.76601e-10
6.92555e-10
-1.6265e-09
4.36399e-10
1.84297e-09
-1.85098e-09
7.55701e-10
2.44486e-09
-1.99874e-09
1.01823e-09
2.42503e-09
-1.95807e-09
1.11507e-09
1.91486e-09
-1.54293e-09
1.05106e-09
1.02352e-09
-6.44017e-10
8.6741e-10
-1.18116e-10
8.63028e-10
6.09132e-10
-1.28746e-09
2.78367e-09
2.53305e-10
-2.10905e-09
4.84483e-09
-9.63724e-11
-2.41979e-09
6.60973e-09
-3.69182e-10
-1.82454e-09
7.33287e-09
-3.93714e-10
-5.71306e-10
6.80828e-09
-1.28995e-10
3.56421e-09
4.61764e-10
-1.06314e-09
1.56488e-09
-1.06314e-09
2.37309e-10
-4.14168e-09
-1.00839e-09
1.23608e-09
-2.84245e-09
-1.06744e-09
2.33893e-09
-2.30169e-09
-1.06455e-09
3.3758e-09
-1.5165e-09
-9.63554e-10
4.12699e-09
-5.40524e-10
-7.79176e-10
4.42879e-09
5.687e-10
-5.44465e-10
4.11542e-09
1.77489e-09
-3.1791e-10
3.19777e-09
2.82029e-09
-1.63175e-10
1.78649e-09
3.4937e-09
-1.85313e-11
1.65088e-10
3.58699e-09
9.02979e-11
-1.31503e-09
2.98509e-09
1.66626e-10
-2.3992e-09
1.78716e-09
2.46218e-10
-2.93847e-09
2.83122e-10
3.75522e-10
-2.89728e-09
-1.18386e-09
5.03502e-10
-2.3807e-09
-2.40434e-09
6.51047e-10
-1.56066e-09
-3.24406e-09
8.58673e-10
-6.97983e-10
-3.68089e-09
1.04952e-09
-2.17351e-11
-3.77073e-09
1.15622e-09
3.52614e-10
-3.56463e-09
1.13316e-09
3.80983e-10
-3.07307e-09
1.0133e-09
3.89606e-11
-2.21326e-09
8.71602e-10
-5.61773e-10
-1.02988e-09
7.30016e-10
-1.25503e-09
5.45194e-10
6.07001e-10
-1.844e-09
2.31097e-09
5.04519e-10
-2.00237e-09
3.80344e-09
5.13691e-10
-1.50132e-09
4.69073e-09
6.53215e-10
-4.16819e-10
4.502e-09
9.67662e-10
6.03237e-10
3.60725e-09
1.44943e-09
1.92711e-09
1.75122e-09
-1.2635e-09
4.06364e-09
-1.2635e-09
-1.24882e-10
-4.22289e-09
-1.12846e-09
8.14349e-10
-2.77536e-09
-1.07553e-09
1.82974e-09
-2.42472e-09
-9.55537e-10
2.78064e-09
-1.77092e-09
-7.43498e-10
3.49835e-09
-7.71036e-10
-5.12141e-10
3.83533e-09
5.13458e-10
-2.86626e-10
3.81134e-09
1.92119e-09
-1.17896e-10
3.37434e-09
3.23525e-09
1.86269e-11
2.6328e-09
4.0514e-09
1.54294e-10
1.69677e-09
4.12004e-09
3.34956e-10
6.94141e-10
3.31366e-09
5.66949e-10
-2.8657e-10
1.81646e-09
8.19497e-10
-1.17648e-09
-1.15778e-11
1.05517e-09
-1.98392e-09
-1.72069e-09
1.25069e-09
-2.60399e-09
-3.16186e-09
1.34885e-09
-2.99145e-09
-4.10693e-09
1.30019e-09
-3.06402e-09
-4.56392e-09
1.07521e-09
-2.86608e-09
-4.57505e-09
7.63395e-10
-2.51307e-09
-4.24635e-09
4.73987e-10
-2.11755e-09
-3.63911e-09
2.50519e-10
-1.76176e-09
-2.72517e-09
1.27697e-10
-1.53707e-09
-1.5143e-09
1.02274e-10
-1.34782e-09
-8.23777e-11
1.59458e-10
-1.03569e-09
1.31385e-09
3.18034e-10
-4.16636e-10
2.23885e-09
5.3965e-10
4.80061e-10
2.46261e-09
9.36295e-10
1.19851e-09
2.07948e-09
1.35431e-09
1.13523e-09
1.85087e-09
1.52346e-09
1.8605e-09
1.03985e-09
-5.60472e-10
5.15188e-09
-5.60472e-10
-2.69031e-11
-4.50754e-09
-3.63372e-10
3.18096e-10
-3.03531e-09
-1.81769e-10
6.82804e-10
-2.81123e-09
-4.08066e-11
1.0069e-09
-2.25027e-09
1.44669e-10
1.2632e-09
-1.27032e-09
2.90149e-10
1.48824e-09
6.52539e-11
3.19159e-10
1.73528e-09
1.53324e-09
2.64793e-10
2.08083e-09
2.80521e-09
2.10157e-10
2.3865e-09
3.59756e-09
2.53432e-10
2.51392e-09
3.64843e-09
4.1916e-10
2.27191e-09
2.9289e-09
6.788e-10
1.51832e-09
1.66994e-09
9.52383e-10
2.5254e-10
2.2843e-10
1.1101e-09
-1.36539e-09
-1.04919e-09
1.09156e-09
-3.04389e-09
-2.15948e-09
8.95565e-10
-4.43534e-09
-2.93582e-09
5.04441e-10
-5.24389e-09
-3.42608e-09
-1.36103e-11
-5.40129e-09
-3.75915e-09
-3.59248e-10
-4.89749e-09
-3.83243e-09
-6.83328e-10
-3.94648e-09
-3.60083e-09
-8.52686e-10
-2.80634e-09
-3.02683e-09
-8.06029e-10
-1.71685e-09
-2.04572e-09
-6.07892e-10
-6.94857e-10
-8.5846e-10
-3.36166e-10
3.07797e-10
2.61832e-10
-3.53419e-11
1.27112e-09
9.73884e-10
2.54818e-10
1.86011e-09
1.34308e-09
5.26922e-10
1.68624e-09
1.65878e-09
6.09836e-10
8.26811e-10
2.46598e-09
2.36393e-10
2.66044e-09
-2.42402e-12
8.92057e-10
3.29406e-09
8.92057e-10
2.21233e-11
-4.80003e-09
1.00331e-09
-7.40917e-10
-3.64889e-09
1.26241e-09
-1.52382e-09
-3.31434e-09
1.23975e-09
-2.19702e-09
-2.7159e-09
1.17883e-09
-2.60929e-09
-1.65675e-09
9.23987e-10
-2.50836e-09
-4.09115e-10
5.64453e-10
-1.83033e-09
9.03735e-10
1.76881e-10
-6.01201e-10
1.94478e-09
-1.41372e-10
8.44383e-10
2.57188e-09
-2.13186e-10
2.08738e-09
2.73962e-09
-1.53414e-10
2.6499e-09
2.57736e-09
-4.32196e-11
2.26274e-09
2.20229e-09
3.45568e-11
9.56061e-10
1.76435e-09
-1.21859e-11
-9.54814e-10
1.2884e-09
-1.59476e-10
-3.11172e-09
7.97641e-10
-4.90986e-10
-4.9796e-09
1.57976e-10
-9.04174e-10
-6.04677e-09
-7.31275e-10
-1.33509e-09
-6.17264e-09
-1.73127e-09
-1.67729e-09
-5.43294e-09
-2.67864e-09
-1.75621e-09
-4.14414e-09
-3.23787e-09
-1.59321e-09
-2.64222e-09
-3.22342e-09
-1.29056e-09
-1.14176e-09
-2.61382e-09
-9.13459e-10
2.45549e-10
-1.66013e-09
-5.21668e-10
1.43882e-09
-6.65492e-10
-1.41797e-10
2.22753e-09
2.50683e-10
9.86096e-11
2.30153e-09
1.15922e-09
2.63943e-10
1.65056e-09
2.27665e-09
1.18332e-10
8.28116e-10
3.30444e-09
-3.60914e-11
3.14189e-09
2.46848e-10
2.38532e-09
-1.58337e-09
2.38532e-09
-2.98546e-10
-4.30733e-09
2.04714e-09
-2.51685e-09
-3.4427e-09
1.93505e-09
-4.48946e-09
-2.89731e-09
1.56607e-09
-6.08952e-09
-2.06519e-09
1.05524e-09
-7.04784e-09
-9.12247e-10
4.0101e-10
-6.92244e-09
-7.88456e-11
-2.18045e-10
-5.76345e-09
6.56789e-10
-6.61193e-10
-3.72765e-09
1.18356e-09
-1.04159e-09
-1.27722e-09
1.49434e-09
-1.17354e-09
8.60068e-10
1.90768e-09
-1.1367e-09
2.10627e-09
2.5672e-09
-1.08066e-09
2.18784e-09
3.38992e-09
-1.10586e-09
1.20488e-09
4.21851e-09
-1.28733e-09
-4.7804e-10
4.7583e-09
-1.58752e-09
-2.32883e-09
4.73866e-09
-1.89808e-09
-3.83347e-09
3.9468e-09
-2.13135e-09
-4.60514e-09
2.36042e-09
-2.23238e-09
-4.52768e-09
3.58561e-10
-2.14975e-09
-3.79807e-09
-1.55409e-09
-1.8837e-09
-2.75192e-09
-2.83415e-09
-1.48132e-09
-1.52034e-09
-3.37658e-09
-1.06198e-09
-2.60161e-10
-3.10879e-09
-6.6906e-10
9.22907e-10
-2.34556e-09
-3.25521e-10
1.87419e-09
-1.34671e-09
-6.48959e-11
2.3745e-09
-2.4943e-10
1.70288e-10
2.27318e-09
1.08266e-09
2.50112e-10
1.78183e-09
2.39003e-09
3.25169e-10
1.31406e-09
2.99246e-09
6.31524e-10
3.16261e-09
1.14896e-09
2.68751e-09
-7.05168e-09
2.6875e-09
-1.67413e-09
-1.42072e-09
1.42427e-09
-4.92842e-09
-1.13639e-09
9.66233e-10
-7.52568e-09
-4.97288e-10
2.93326e-10
-9.42746e-09
3.13098e-10
-3.12722e-10
-1.02624e-08
9.34854e-10
-8.08073e-10
-9.90549e-09
1.10276e-09
-1.32943e-09
-8.22593e-09
8.22403e-10
-1.66284e-09
-5.62127e-09
4.40088e-10
-1.72381e-09
-2.76488e-09
3.90768e-10
-1.66084e-09
-3.61402e-10
1.10603e-09
-1.54096e-09
1.24592e-09
2.51125e-09
-1.502e-09
1.78292e-09
4.51069e-09
-1.60672e-09
1.46442e-09
6.3781e-09
-1.79001e-09
6.33422e-10
7.56052e-09
-1.93708e-09
-2.92214e-10
7.68615e-09
-2.02729e-09
-9.94631e-10
6.57442e-09
-1.98355e-09
-1.33208e-09
4.3409e-09
-1.7447e-09
-1.36508e-09
1.65436e-09
-1.37089e-09
-1.21853e-09
-7.55431e-10
-1.00547e-09
-9.13088e-10
-2.41442e-09
-6.87848e-10
-5.28452e-10
-3.15111e-09
-4.54586e-10
4.1834e-11
-3.09995e-09
-3.29548e-10
7.5895e-10
-2.47756e-09
-3.06972e-10
1.39072e-09
-1.4759e-09
-2.78644e-10
1.77959e-09
-3.30533e-10
-2.01283e-10
1.88256e-09
1.03672e-09
-7.82372e-11
1.81909e-09
2.00519e-09
3.53312e-10
1.32872e-09
2.57081e-09
8.35521e-10
3.96908e-09
5.59281e-10
1.04472e-09
-9.16724e-09
1.04472e-09
-3.45765e-09
3.4529e-09
-2.91739e-10
-6.64812e-09
2.86766e-09
-6.88571e-10
-9.03004e-09
3.24959e-09
-1.20226e-09
-1.05349e-08
3.58791e-09
-1.59529e-09
-1.08783e-08
3.21048e-09
-1.77621e-09
-9.90802e-09
1.99506e-09
-1.75083e-09
-7.92553e-09
5.06862e-10
-1.61152e-09
-5.46939e-09
-7.00267e-10
-1.311e-09
-3.03217e-09
-1.00423e-09
-1.06951e-09
-1.04906e-09
1.25426e-11
-9.26719e-10
3.51262e-10
2.03783e-09
-9.59524e-10
1.25138e-09
4.68951e-09
-1.10844e-09
1.77632e-09
7.07412e-09
-1.26339e-09
2.06323e-09
8.46584e-09
-1.26774e-09
2.23635e-09
8.50222e-09
-1.10545e-09
2.29556e-09
7.14873e-09
-7.71668e-10
2.10802e-09
4.75357e-09
-3.37207e-10
1.67166e-09
2.09467e-09
-2.61749e-11
9.56659e-10
-1.40507e-10
2.20796e-10
1.85657e-10
-1.56426e-09
1.9915e-10
-3.2016e-10
-2.18972e-09
-5.8571e-11
-4.34083e-10
-2.22629e-09
-3.27727e-10
-1.85954e-10
-1.79945e-09
-5.54896e-10
2.64635e-10
-9.83729e-10
-6.95552e-10
5.89596e-10
1.91738e-10
-7.21042e-10
8.15718e-10
1.49798e-09
-6.08792e-10
7.06031e-10
2.66877e-09
-4.16315e-10
1.13935e-11
4.11747e-09
-5.83831e-10
5.6016e-09
-1.26351e-09
-9.96739e-10
-7.11253e-09
-9.9674e-10
-4.52487e-09
9.15977e-09
-2.01648e-09
-6.76881e-09
7.38596e-09
-2.10777e-09
-8.16731e-09
7.03575e-09
-2.23844e-09
-8.63848e-09
6.21121e-09
-2.04783e-09
-8.12608e-09
4.44116e-09
-1.70124e-09
-6.88773e-09
1.94978e-09
-1.21321e-09
-5.34696e-09
-4.08155e-10
-6.89269e-10
-3.82969e-09
-2.04507e-09
-2.48964e-10
-2.54856e-09
-2.28446e-09
-6.04365e-11
-1.56752e-09
-9.15483e-10
-7.8966e-11
-6.1057e-10
1.39983e-09
-3.16133e-10
5.12414e-10
4.13604e-09
-5.62158e-10
1.81809e-09
6.4323e-09
-6.82104e-10
3.08974e-09
7.68629e-09
-5.5211e-10
4.09706e-09
7.64429e-09
-2.36435e-10
4.59917e-09
6.40383e-09
1.78376e-10
4.31418e-09
4.51175e-09
5.54941e-10
3.2837e-09
2.59351e-09
7.12519e-10
1.84527e-09
1.05995e-09
5.90069e-10
4.93254e-10
3.957e-11
2.31146e-10
-4.51866e-10
-6.06221e-10
-1.13133e-10
-8.88248e-10
-9.81177e-10
-3.4032e-10
-9.5924e-10
-9.51464e-10
-4.25946e-10
-9.14286e-10
-3.06218e-10
-4.75906e-10
-9.03536e-10
9.2579e-10
-5.18578e-10
-9.41702e-10
2.38686e-09
-5.35075e-10
-1.31278e-09
4.31329e-09
-8.04748e-10
-1.58634e-09
6.33063e-09
-1.35471e-09
5.70844e-09
-1.19334e-09
-2.55767e-09
-1.88723e-09
-2.55767e-09
-4.13116e-09
1.36557e-08
-2.80039e-09
-4.98229e-09
1.08037e-08
-2.48015e-09
-5.08809e-09
9.38854e-09
-2.22201e-09
-4.51895e-09
7.27558e-09
-1.68057e-09
-3.58183e-09
4.42436e-09
-1.02713e-09
-2.65558e-09
1.30142e-09
-4.10644e-10
-2.12987e-09
-1.06798e-09
2.13667e-11
-1.97032e-09
-2.52674e-09
2.716e-10
-2.08489e-09
-2.30645e-09
1.70194e-10
-2.02148e-09
-7.15902e-10
-1.54033e-10
-1.37726e-09
1.48958e-09
-5.87306e-10
-7.8858e-11
3.75641e-09
-7.85342e-10
1.64955e-09
5.52936e-09
-7.45183e-10
3.41826e-09
6.43459e-09
-4.95944e-10
4.71447e-09
6.45741e-09
-1.11373e-10
5.19553e-09
5.78309e-09
1.80001e-10
4.70177e-09
4.79137e-09
3.6105e-10
3.52244e-09
3.72942e-09
3.24361e-10
2.1134e-09
2.72786e-09
1.25999e-10
8.73787e-10
1.69658e-09
-7.23943e-12
-2.28344e-11
6.74099e-10
-3.69634e-11
-6.19155e-10
-1.9526e-10
4.52132e-11
-1.13699e-09
-4.78639e-10
1.93161e-10
-1.70187e-09
1.01446e-10
3.10396e-10
-2.20887e-09
1.38814e-09
3.09502e-10
-2.59099e-09
3.05769e-09
1.37166e-10
-2.67875e-09
5.0347e-09
-1.023e-10
-1.74315e-09
5.92818e-09
-3.04939e-11
3.5023e-09
7.3175e-10
-2.72737e-09
3.63913e-09
-2.72737e-09
-2.54294e-09
1.57075e-08
-2.28527e-09
-2.10936e-09
1.22582e-08
-1.98783e-09
-1.36039e-09
1.01379e-08
-1.66629e-09
-4.21169e-10
7.30218e-09
-1.18358e-09
4.04169e-10
4.06597e-09
-6.90635e-10
6.86182e-10
1.19345e-09
-3.45302e-10
3.42046e-10
-6.30125e-10
-1.57969e-10
-5.99353e-10
-1.24994e-09
-2.62207e-10
-1.55585e-09
-6.40216e-10
-5.07197e-10
-1.86787e-09
6.2795e-10
-7.47463e-10
-1.39476e-09
2.1611e-09
-8.49796e-10
-1.76187e-10
3.54963e-09
-7.74389e-10
1.49701e-09
4.50037e-09
-5.00004e-10
3.07481e-09
5.07558e-09
-1.56517e-10
4.11203e-09
5.33825e-09
1.12439e-10
4.42112e-09
5.32247e-09
2.10422e-10
4.04158e-09
5.10815e-09
1.82768e-10
3.24721e-09
4.59508e-09
9.12926e-11
2.34675e-09
3.68384e-09
8.60592e-11
1.46689e-09
2.4749e-09
1.50647e-10
6.6748e-10
1.03191e-09
3.6802e-10
-2.72681e-10
3.07816e-11
5.59671e-10
-1.38143e-09
-8.45374e-11
5.8077e-10
-2.3821e-09
6.45355e-10
4.47799e-10
-2.93982e-09
1.83778e-09
2.59856e-10
-3.00073e-09
3.14262e-09
2.17051e-10
-2.28545e-09
4.05307e-09
4.53024e-10
-7.22582e-10
3.36834e-09
1.02233e-09
1.56795e-09
1.05842e-09
-2.15282e-09
7.89739e-09
-2.15282e-09
-8.12284e-10
1.56924e-08
-1.58438e-09
2.58558e-10
1.24308e-08
-1.53042e-09
1.34828e-09
9.99213e-09
-1.26344e-09
2.39059e-09
6.89552e-09
-9.45862e-10
2.93164e-09
3.93199e-09
-6.48727e-10
2.7411e-09
1.71278e-09
-4.43047e-10
1.90255e-09
5.83776e-10
-3.25143e-10
6.98957e-10
4.59433e-10
-2.93238e-10
-3.63092e-10
9.76867e-10
-2.26694e-10
-8.76085e-10
1.62214e-09
-1.15757e-10
-6.88922e-10
2.1786e-09
1.14189e-10
4.63605e-11
2.65588e-09
3.73326e-10
1.02676e-09
3.02318e-09
5.96985e-10
1.88087e-09
3.47272e-09
7.6777e-10
2.45332e-09
3.99315e-09
7.62393e-10
2.71488e-09
4.45528e-09
5.99016e-10
2.74428e-09
4.63137e-09
4.32026e-10
2.55596e-09
4.31672e-09
3.87981e-10
2.12782e-09
3.47731e-09
4.31717e-10
1.34874e-09
2.38782e-09
5.20999e-10
1.98316e-10
1.25123e-09
4.98884e-10
-1.24701e-09
8.55802e-10
2.13064e-10
-2.56948e-09
1.28153e-09
-3.18556e-10
-3.26259e-09
1.98121e-09
-7.56055e-10
-3.16325e-09
2.54242e-09
-8.37056e-10
-2.38348e-09
2.94955e-09
-6.87826e-10
-1.06764e-09
2.87419e-09
-4.12063e-10
-3.14987e-10
2.50893e-09
-3.0591e-10
1.95465e-09
-1.06948e-09
-1.40362e-09
1.05284e-08
-1.40362e-09
4.53335e-10
1.44823e-08
-1.01402e-09
1.83915e-09
1.16357e-08
-9.41029e-10
3.18087e-09
8.99059e-09
-6.70267e-10
4.27016e-09
5.89287e-09
-3.5332e-10
4.70117e-09
3.35323e-09
-7.81474e-12
4.41666e-09
1.72591e-09
2.60454e-10
3.53349e-09
1.12926e-09
4.74091e-10
2.3849e-09
1.20396e-09
6.51329e-10
1.32402e-09
1.40744e-09
9.19894e-10
5.75417e-10
1.39359e-09
1.2311e-09
1.09776e-10
1.22835e-09
1.57657e-09
-2.39526e-10
1.30649e-09
1.75114e-09
-3.61104e-10
1.45975e-09
1.65817e-09
-2.86934e-10
2.02964e-09
1.31251e-09
2.9427e-11
2.73545e-09
8.88847e-10
5.46065e-10
3.36699e-09
5.12006e-10
1.05189e-09
3.67729e-09
3.26243e-10
1.26929e-09
3.56022e-09
2.90294e-10
9.17086e-10
3.12148e-09
3.10417e-10
-1.36234e-10
2.77134e-09
1.77074e-10
-1.62395e-09
2.52673e-09
-2.6107e-10
-3.06602e-09
2.79442e-09
-8.38306e-10
-3.78693e-09
3.05109e-09
-1.22515e-09
-3.51004e-09
2.84214e-09
-1.22729e-09
-2.5685e-09
2.52426e-09
-1.07039e-09
-1.42815e-09
2.37526e-09
-8.72377e-10
-6.09928e-10
2.51174e-09
-8.86084e-10
-7.15131e-10
3.54033e-09
-1.32948e-09
2.50387e-09
-1.46495e-09
-6.45061e-10
1.15946e-08
-6.45061e-10
1.55793e-09
1.21608e-08
-1.79412e-10
3.18207e-09
9.73186e-09
3.13056e-11
4.6292e-09
6.95159e-09
3.91816e-10
5.60791e-09
4.10932e-09
6.74614e-10
5.94368e-09
1.98009e-09
9.93418e-10
5.57778e-09
8.73763e-10
1.25961e-09
4.68348e-09
5.4713e-10
1.57734e-09
3.53953e-09
6.65277e-10
1.79409e-09
2.31689e-09
7.26464e-10
1.97055e-09
1.03108e-09
6.1699e-10
2.04777e-09
-3.34962e-10
6.08208e-10
1.89104e-09
-1.56103e-09
8.94375e-10
1.50365e-09
-2.37062e-09
1.29794e-09
8.566e-10
-2.52252e-09
1.92267e-09
2.04099e-10
-1.97745e-09
2.39344e-09
-2.07134e-10
-1.0922e-09
2.79803e-09
-3.31249e-10
-3.93929e-10
3.20318e-09
-3.29656e-10
-3.00301e-10
3.51711e-09
-2.89404e-10
-9.66686e-10
3.8888e-09
-4.39677e-10
-2.12019e-09
4.34142e-09
-7.53872e-10
-3.3355e-09
4.70863e-09
-1.19398e-09
-3.83576e-09
4.53016e-09
-1.31394e-09
-3.41904e-09
3.72462e-09
-1.08547e-09
-2.47085e-09
2.37905e-09
-5.23268e-10
-1.58804e-09
1.54137e-09
-6.70845e-11
-1.02285e-09
1.53217e-09
2.17061e-11
-8.1994e-10
2.31427e-09
-2.03698e-10
-5.42731e-10
3.76732e-09
-5.39619e-10
2.23473e-09
-1.75208e-10
2.58867e-10
1.0922e-08
2.58867e-10
2.67311e-09
8.89821e-09
7.38779e-10
4.41014e-09
6.87375e-09
1.05328e-09
5.69459e-09
4.2039e-09
1.42543e-09
6.28296e-09
1.74539e-09
1.76222e-09
6.11294e-09
1.91415e-10
1.95878e-09
5.39558e-09
-3.83845e-10
1.96662e-09
4.3517e-09
-2.4076e-10
1.78331e-09
3.12016e-09
1.89744e-10
1.58788e-09
1.66438e-09
6.32102e-10
1.3492e-09
-3.82412e-11
1.07282e-09
9.88859e-10
-1.81485e-09
1.63571e-09
4.95465e-10
-3.17914e-09
2.18629e-09
-1.00852e-10
-3.77602e-09
2.41184e-09
-5.56814e-10
-3.45539e-09
2.36354e-09
-6.71673e-10
-2.57629e-09
2.27841e-09
-6.12236e-10
-1.68533e-09
2.44248e-09
-4.1975e-10
-1.37436e-09
3.19111e-09
-2.90811e-10
-1.82025e-09
4.29654e-09
-4.30286e-10
-2.71618e-09
5.43607e-09
-7.75886e-10
-3.51929e-09
6.22162e-09
-1.1338e-09
-3.63812e-09
6.11445e-09
-1.23876e-09
-3.02049e-09
4.85847e-09
-8.5226e-10
-1.96094e-09
2.78497e-09
-9.30481e-11
-1.30292e-09
1.16389e-09
4.51252e-10
-1.24313e-09
7.38749e-10
5.59578e-10
-1.2609e-09
1.06386e-09
3.79078e-10
-1.05525e-09
1.88658e-09
3.09164e-10
-2.49188e-10
2.81804e-09
3.63415e-10
1.88174e-09
2.70831e-10
1.11143e-09
8.67336e-09
1.11143e-09
3.52448e-09
4.82702e-09
1.70211e-09
5.07535e-09
3.33634e-09
2.03437e-09
5.82072e-09
1.24281e-09
2.25274e-09
5.70006e-09
-3.47384e-10
2.22401e-09
4.91426e-09
-9.81215e-10
1.92387e-09
3.84436e-09
-8.60637e-10
1.44477e-09
2.75216e-09
-3.37172e-10
1.00116e-09
1.57739e-09
4.15822e-10
6.76647e-10
1.88035e-10
1.30209e-09
3.98005e-10
-1.39501e-09
2.25481e-09
1.0214e-10
-2.78918e-09
3.00926e-09
-1.67405e-10
-3.5437e-09
3.28731e-09
-3.56843e-10
-3.40784e-09
2.77854e-09
-3.28237e-10
-2.75277e-09
2.03881e-09
-3.73827e-11
-2.0664e-09
1.57497e-09
3.18177e-10
-1.86096e-09
1.89178e-09
5.58191e-10
-2.34784e-09
3.26468e-09
5.11704e-10
-3.2014e-09
5.1025e-09
8.55578e-11
-3.75446e-09
6.48487e-09
-4.33376e-10
-3.64743e-09
6.75032e-09
-5.11862e-10
-2.76422e-09
5.40873e-09
-4.7426e-11
-1.72873e-09
3.24887e-09
5.98317e-10
-1.29847e-09
1.25229e-09
9.52267e-10
-1.71679e-09
3.88245e-10
9.29191e-10
-2.17749e-09
4.86241e-10
4.94555e-10
-2.19194e-09
7.78401e-10
2.58783e-10
-1.53577e-09
1.10406e-09
2.38302e-10
-5.29908e-10
1.64793e-09
2.64038e-10
8.12507e-10
5.27583e-10
1.92513e-09
4.88198e-09
1.92513e-09
3.8291e-09
6.33512e-10
2.33522e-09
4.88548e-09
-1.97247e-10
2.49988e-09
4.94439e-09
-1.19657e-09
2.37741e-09
4.23317e-09
-1.68404e-09
2.01447e-09
3.17141e-09
-1.49782e-09
1.50229e-09
2.15202e-09
-1.03979e-09
1.06239e-09
1.21202e-09
-3.85488e-10
7.8345e-10
2.38659e-10
5.00984e-10
6.33509e-10
-8.8782e-10
1.68034e-09
5.00164e-10
-1.98046e-09
2.866e-09
3.22562e-10
-2.67639e-09
3.50389e-09
2.05672e-10
-2.64214e-09
3.16489e-09
2.79208e-10
-2.04289e-09
1.95807e-09
5.48975e-10
-1.46104e-09
8.6312e-10
9.52334e-10
-1.52977e-09
6.64875e-10
1.26143e-09
-2.25885e-09
1.68498e-09
1.09671e-09
-3.15293e-09
3.67818e-09
5.57481e-10
-3.60674e-09
5.48499e-09
1.46182e-10
-3.33355e-09
6.09694e-09
2.34636e-10
-2.25689e-09
5.14124e-09
6.54452e-10
-1.33761e-09
3.16996e-09
1.33641e-09
-1.24409e-09
1.06623e-09
1.924e-09
-2.20339e-09
3.21067e-11
1.87053e-09
-3.20933e-09
-1.53722e-10
1.24353e-09
-3.508e-09
-2.3857e-10
8.58532e-10
-3.18446e-09
-2.87423e-10
7.06609e-10
-2.26198e-09
-6.17692e-10
7.53148e-10
-2.89647e-10
-1.5588e-09
1.0889e-09
-2.03897e-09
2.43827e-09
2.38474e-09
1.47916e-10
2.38474e-09
3.56397e-09
-3.30157e-09
2.66232e-09
4.05273e-09
-3.3833e-09
2.5981e-09
3.69772e-09
-3.20241e-09
2.27171e-09
2.76414e-09
-2.65157e-09
1.83121e-09
1.76031e-09
-1.98333e-09
1.4249e-09
8.55449e-10
-1.35955e-09
1.13793e-09
4.87563e-11
-6.89215e-10
9.83426e-10
-8.12272e-10
3.82955e-10
8.26693e-10
-1.65951e-09
1.81892e-09
5.83529e-10
-2.15867e-09
3.04499e-09
2.89715e-10
-2.07326e-09
3.30994e-09
2.13744e-10
-1.433e-09
2.38014e-09
3.66143e-10
-8.6646e-10
1.02647e-09
6.24686e-10
-9.13434e-10
2.90769e-10
8.22048e-10
-1.63309e-09
8.85973e-10
5.93984e-10
-2.51645e-09
2.50201e-09
8.19654e-11
-2.80246e-09
4.13583e-09
-1.56368e-10
-2.2582e-09
4.84945e-09
1.64431e-10
-9.91962e-10
4.19058e-09
7.45161e-10
-6.5028e-11
2.57897e-09
1.67173e-09
-2.64065e-10
8.61621e-10
2.39227e-09
-1.57978e-09
-2.21285e-10
2.36547e-09
-3.26451e-09
-3.52009e-10
1.83606e-09
-4.01737e-09
-1.06632e-09
1.5613e-09
-3.86892e-09
-2.17368e-09
1.81267e-09
-3.42721e-09
-2.48087e-09
1.7694e-09
-1.98501e-09
-3.76094e-09
1.59325e-09
6.24602e-10
-6.9001e-09
2.58456e-09
-5.35755e-09
3.93085e-09
2.6192e-09
-5.16288e-09
2.6192e-09
2.9657e-09
-6.50525e-09
2.60313e-09
2.93937e-09
-5.82395e-09
2.26338e-09
2.4271e-09
-4.64831e-09
1.82812e-09
1.68418e-09
-3.33501e-09
1.37342e-09
9.52463e-10
-2.29281e-09
1.03005e-09
1.89744e-10
-1.40798e-09
7.89833e-10
-6.41118e-10
-5.0192e-10
5.78196e-10
-1.48938e-09
9.31739e-10
1.98517e-10
-2.09464e-09
2.4879e-09
-1.54157e-10
-2.07166e-09
3.28301e-09
-2.90032e-10
-1.38855e-09
2.82992e-09
-1.55719e-10
-6.14613e-10
1.55222e-09
1.40127e-10
-3.80474e-10
4.35993e-10
4.1592e-10
-8.76739e-10
3.8576e-10
3.93724e-10
-1.56223e-09
1.40419e-09
1.16358e-10
-1.71619e-09
2.63412e-09
2.59754e-12
-9.91169e-10
3.16349e-09
3.21057e-10
2.86828e-10
2.835e-09
8.84253e-10
1.19355e-09
1.61863e-09
1.788e-09
8.92331e-10
6.65003e-10
2.21232e-09
-4.66046e-10
8.70642e-11
2.00612e-09
-2.28513e-09
-6.80369e-11
1.5456e-09
-3.49419e-09
-3.51131e-10
1.22396e-09
-3.63446e-09
-2.07933e-09
1.30788e-09
-3.23227e-09
-4.21066e-09
1.81304e-09
-2.65407e-09
-5.11717e-09
2.13037e-09
-1.07547e-09
-7.78082e-09
2.42242e-09
4.96914e-10
-1.12979e-08
2.88245e-09
-5.70215e-09
9.36557e-10
2.17223e-09
-9.68562e-09
2.17223e-09
2.01267e-09
-8.43946e-09
1.79048e-09
1.86649e-09
-7.14741e-09
1.27331e-09
1.61551e-09
-5.25621e-09
7.77625e-10
1.33028e-09
-3.47565e-09
4.34485e-10
9.34396e-10
-2.14058e-09
2.78557e-10
3.22059e-10
-9.75565e-10
1.75975e-10
-6.17807e-10
3.69774e-10
-3.46865e-12
-1.42109e-09
1.87789e-09
-2.61299e-10
-1.61604e-09
2.91019e-09
-3.42524e-10
-1.01195e-09
2.83785e-09
-2.32535e-10
-8.51774e-11
1.70327e-09
1.64919e-10