/*--------------------------------*- C++ -*----------------------------------*\
| =========                 |                                                 |
| \\      /  F ield         | OpenFOAM: The Open Source CFD Toolbox           |
|  \\    /   O peration     | Version:  2312                                  |
|   \\  /    A nd           | Website:  www.openfoam.com                      |
|    \\/     M anipulation  |                                                 |
\*---------------------------------------------------------------------------*/
FoamFile
{
    version     2.0;
    format      ascii;
    arch        "LSB;label=32;scalar=64";
    class       volScalarField;
    location    "0.912455";
    object      epsilon;
}
// * * * * * * * * * * * * * * * * * * * * * * * * * * * * * * * * * * * * * //

dimensions      [0 2 -3 0 0 0 0];

internalField   nonuniform List<scalar> 
90000
(
1.02132e-05
1.02149e-05
1.02155e-05
1.02157e-05
1.02159e-05
1.02159e-05
1.02157e-05
1.02154e-05
1.02151e-05
1.02149e-05
1.02148e-05
1.02147e-05
1.02147e-05
1.02148e-05
1.02148e-05
1.02151e-05
1.02155e-05
1.02159e-05
1.02162e-05
1.02162e-05
1.02159e-05
1.02152e-05
1.02152e-05
1.0216e-05
1.02169e-05
1.02173e-05
1.02171e-05
1.02166e-05
1.02161e-05
1.02165e-05
1.02147e-05
1.0253e-05
1.02554e-05
1.02553e-05
1.02552e-05
1.02551e-05
1.0255e-05
1.0255e-05
1.02549e-05
1.02548e-05
1.02546e-05
1.02547e-05
1.02548e-05
1.02549e-05
1.0255e-05
1.02552e-05
1.02554e-05
1.02555e-05
1.02554e-05
1.02554e-05
1.02554e-05
1.02555e-05
1.02556e-05
1.02554e-05
1.0255e-05
1.02543e-05
1.02544e-05
1.02552e-05
1.0253e-05
1.0221e-05
1.02155e-05
1.02558e-05
1.02583e-05
1.02582e-05
1.0258e-05
1.02579e-05
1.02578e-05
1.02578e-05
1.02579e-05
1.02579e-05
1.02578e-05
1.02578e-05
1.02579e-05
1.02581e-05
1.02583e-05
1.02582e-05
1.02581e-05
1.02579e-05
1.02582e-05
1.02586e-05
1.02589e-05
1.02591e-05
1.02591e-05
1.02592e-05
1.02593e-05
1.02596e-05
1.02598e-05
1.02601e-05
1.02578e-05
1.02197e-05
1.02158e-05
1.02558e-05
1.02586e-05
1.02588e-05
1.02587e-05
1.02586e-05
1.02584e-05
1.02583e-05
1.02583e-05
1.02583e-05
1.02582e-05
1.02582e-05
1.02583e-05
1.02584e-05
1.02584e-05
1.02582e-05
1.02582e-05
1.02586e-05
1.0259e-05
1.02592e-05
1.02592e-05
1.02593e-05
1.02596e-05
1.02603e-05
1.02609e-05
1.02612e-05
1.02611e-05
1.02607e-05
1.0258e-05
1.02172e-05
1.02158e-05
1.02557e-05
1.02588e-05
1.02591e-05
1.02592e-05
1.02591e-05
1.02589e-05
1.02587e-05
1.02585e-05
1.02584e-05
1.02583e-05
1.02583e-05
1.02583e-05
1.02581e-05
1.02581e-05
1.02583e-05
1.02586e-05
1.02589e-05
1.02589e-05
1.02589e-05
1.02588e-05
1.0259e-05
1.02597e-05
1.02604e-05
1.02609e-05
1.0261e-05
1.02606e-05
1.02594e-05
1.02577e-05
1.02169e-05
1.02157e-05
1.0256e-05
1.0259e-05
1.02593e-05
1.02594e-05
1.02594e-05
1.02593e-05
1.02591e-05
1.02589e-05
1.02586e-05
1.02583e-05
1.02584e-05
1.02585e-05
1.02586e-05
1.02586e-05
1.02586e-05
1.02586e-05
1.02585e-05
1.02583e-05
1.02582e-05
1.02584e-05
1.02588e-05
1.02593e-05
1.02595e-05
1.02596e-05
1.02597e-05
1.02603e-05
1.02607e-05
1.02594e-05
1.02178e-05
1.02157e-05
1.02568e-05
1.02594e-05
1.02595e-05
1.02596e-05
1.02597e-05
1.02597e-05
1.02596e-05
1.02594e-05
1.02589e-05
1.02585e-05
1.02585e-05
1.02588e-05
1.0259e-05
1.02589e-05
1.02586e-05
1.02582e-05
1.02578e-05
1.02578e-05
1.02581e-05
1.02585e-05
1.02587e-05
1.02587e-05
1.02585e-05
1.02589e-05
1.02599e-05
1.02613e-05
1.02622e-05
1.02602e-05
1.02181e-05
1.02161e-05
1.02578e-05
1.026e-05
1.026e-05
1.026e-05
1.02601e-05
1.02603e-05
1.02603e-05
1.02601e-05
1.02597e-05
1.02592e-05
1.02589e-05
1.02589e-05
1.0259e-05
1.02589e-05
1.02586e-05
1.02581e-05
1.02577e-05
1.02579e-05
1.02583e-05
1.02586e-05
1.02587e-05
1.02585e-05
1.02587e-05
1.02596e-05
1.02608e-05
1.02619e-05
1.02624e-05
1.02598e-05
1.02179e-05
1.02167e-05
1.02587e-05
1.02608e-05
1.02606e-05
1.02605e-05
1.02605e-05
1.02607e-05
1.02607e-05
1.02607e-05
1.02604e-05
1.026e-05
1.02595e-05
1.0259e-05
1.02588e-05
1.02587e-05
1.02587e-05
1.02588e-05
1.02589e-05
1.02591e-05
1.02592e-05
1.02593e-05
1.02592e-05
1.02592e-05
1.02596e-05
1.02604e-05
1.02613e-05
1.0262e-05
1.0262e-05
1.0259e-05
1.02177e-05
1.02175e-05
1.02593e-05
1.02612e-05
1.0261e-05
1.02606e-05
1.02604e-05
1.02605e-05
1.02606e-05
1.02608e-05
1.02608e-05
1.02605e-05
1.026e-05
1.02592e-05
1.02585e-05
1.02584e-05
1.0259e-05
1.02597e-05
1.02603e-05
1.02607e-05
1.02608e-05
1.02607e-05
1.02603e-05
1.02601e-05
1.02602e-05
1.02606e-05
1.02612e-05
1.02615e-05
1.02613e-05
1.02583e-05
1.02177e-05
1.02184e-05
1.02592e-05
1.02612e-05
1.02609e-05
1.02604e-05
1.026e-05
1.02598e-05
1.02599e-05
1.02602e-05
1.02605e-05
1.02606e-05
1.02602e-05
1.02595e-05
1.02587e-05
1.02583e-05
1.02591e-05
1.02603e-05
1.02613e-05
1.0262e-05
1.02622e-05
1.02619e-05
1.02613e-05
1.02607e-05
1.02604e-05
1.02605e-05
1.02608e-05
1.0261e-05
1.0261e-05
1.02583e-05
1.02181e-05
1.02187e-05
1.02591e-05
1.02612e-05
1.02611e-05
1.02609e-05
1.02606e-05
1.02603e-05
1.026e-05
1.02599e-05
1.026e-05
1.02602e-05
1.02601e-05
1.02598e-05
1.02591e-05
1.02585e-05
1.0259e-05
1.02603e-05
1.02615e-05
1.02622e-05
1.02623e-05
1.0262e-05
1.02614e-05
1.02609e-05
1.02606e-05
1.02605e-05
1.02607e-05
1.0261e-05
1.02611e-05
1.02587e-05
1.02185e-05
1.02189e-05
1.02591e-05
1.02616e-05
1.02617e-05
1.0262e-05
1.02622e-05
1.02623e-05
1.0262e-05
1.02614e-05
1.02605e-05
1.02599e-05
1.026e-05
1.02601e-05
1.026e-05
1.02598e-05
1.02599e-05
1.02604e-05
1.02609e-05
1.0261e-05
1.0261e-05
1.0261e-05
1.02608e-05
1.02608e-05
1.02607e-05
1.02607e-05
1.02608e-05
1.0261e-05
1.02613e-05
1.02588e-05
1.02187e-05
1.02204e-05
1.02592e-05
1.02621e-05
1.02627e-05
1.02634e-05
1.0264e-05
1.02641e-05
1.02637e-05
1.02626e-05
1.02612e-05
1.02599e-05
1.02598e-05
1.02603e-05
1.02608e-05
1.0261e-05
1.02611e-05
1.02608e-05
1.02601e-05
1.02594e-05
1.02594e-05
1.02599e-05
1.02605e-05
1.02609e-05
1.02611e-05
1.02611e-05
1.02611e-05
1.02613e-05
1.02615e-05
1.02588e-05
1.0219e-05
1.02222e-05
1.02592e-05
1.02629e-05
1.02638e-05
1.02646e-05
1.0265e-05
1.02648e-05
1.0264e-05
1.02627e-05
1.02612e-05
1.02599e-05
1.02596e-05
1.02603e-05
1.02612e-05
1.02617e-05
1.02617e-05
1.02611e-05
1.02601e-05
1.02593e-05
1.02593e-05
1.02601e-05
1.0261e-05
1.02616e-05
1.02619e-05
1.02619e-05
1.0262e-05
1.02621e-05
1.02621e-05
1.02594e-05
1.022e-05
1.02235e-05
1.02609e-05
1.02644e-05
1.02649e-05
1.02651e-05
1.02648e-05
1.0264e-05
1.02632e-05
1.02624e-05
1.02615e-05
1.02605e-05
1.02598e-05
1.02604e-05
1.02613e-05
1.02618e-05
1.02618e-05
1.02614e-05
1.02608e-05
1.02602e-05
1.02602e-05
1.02609e-05
1.02618e-05
1.02625e-05
1.02629e-05
1.02631e-05
1.02634e-05
1.02636e-05
1.02638e-05
1.02616e-05
1.02218e-05
1.0224e-05
1.0264e-05
1.02661e-05
1.02658e-05
1.02651e-05
1.02642e-05
1.02635e-05
1.02633e-05
1.0263e-05
1.02625e-05
1.02615e-05
1.02606e-05
1.02608e-05
1.02613e-05
1.02616e-05
1.02616e-05
1.02615e-05
1.02612e-05
1.0261e-05
1.02612e-05
1.02619e-05
1.02628e-05
1.02635e-05
1.0264e-05
1.02645e-05
1.0265e-05
1.02655e-05
1.02659e-05
1.02635e-05
1.02231e-05
1.02246e-05
1.02665e-05
1.02678e-05
1.02672e-05
1.02665e-05
1.02658e-05
1.02653e-05
1.02649e-05
1.02643e-05
1.02634e-05
1.02623e-05
1.02614e-05
1.02611e-05
1.0261e-05
1.02609e-05
1.0261e-05
1.02612e-05
1.02615e-05
1.02618e-05
1.02623e-05
1.0263e-05
1.02638e-05
1.02646e-05
1.02653e-05
1.02662e-05
1.02669e-05
1.02673e-05
1.02675e-05
1.02645e-05
1.02244e-05
1.02263e-05
1.0268e-05
1.02697e-05
1.02694e-05
1.02688e-05
1.02683e-05
1.02677e-05
1.02669e-05
1.02658e-05
1.02644e-05
1.02632e-05
1.02621e-05
1.02612e-05
1.02605e-05
1.02601e-05
1.02602e-05
1.02609e-05
1.02617e-05
1.02626e-05
1.02634e-05
1.02642e-05
1.02651e-05
1.02661e-05
1.02672e-05
1.02683e-05
1.0269e-05
1.02692e-05
1.0269e-05
1.02661e-05
1.02263e-05
1.02287e-05
1.02693e-05
1.02718e-05
1.02715e-05
1.02712e-05
1.02708e-05
1.02701e-05
1.0269e-05
1.02676e-05
1.02661e-05
1.02646e-05
1.02631e-05
1.02616e-05
1.02603e-05
1.02595e-05
1.02598e-05
1.02609e-05
1.02623e-05
1.02636e-05
1.02647e-05
1.02657e-05
1.0267e-05
1.02685e-05
1.02699e-05
1.02708e-05
1.02713e-05
1.02714e-05
1.02714e-05
1.02686e-05
1.02291e-05
1.02316e-05
1.02713e-05
1.0274e-05
1.0274e-05
1.02738e-05
1.02734e-05
1.02726e-05
1.02714e-05
1.02699e-05
1.02682e-05
1.02664e-05
1.02644e-05
1.02625e-05
1.02608e-05
1.02599e-05
1.02604e-05
1.02618e-05
1.02634e-05
1.0265e-05
1.02664e-05
1.02679e-05
1.02696e-05
1.02713e-05
1.02725e-05
1.02732e-05
1.02737e-05
1.02742e-05
1.02743e-05
1.02716e-05
1.02324e-05
1.02348e-05
1.02741e-05
1.02771e-05
1.02773e-05
1.02772e-05
1.02767e-05
1.02757e-05
1.02743e-05
1.02725e-05
1.02705e-05
1.02683e-05
1.0266e-05
1.02637e-05
1.02618e-05
1.0261e-05
1.02614e-05
1.02629e-05
1.02647e-05
1.02666e-05
1.02686e-05
1.02705e-05
1.02724e-05
1.02739e-05
1.02749e-05
1.02758e-05
1.02768e-05
1.02775e-05
1.02776e-05
1.0275e-05
1.02359e-05
1.02391e-05
1.02786e-05
1.02816e-05
1.02818e-05
1.02815e-05
1.02806e-05
1.02792e-05
1.02774e-05
1.02753e-05
1.0273e-05
1.02704e-05
1.02677e-05
1.02651e-05
1.02629e-05
1.02617e-05
1.02621e-05
1.02639e-05
1.02662e-05
1.02687e-05
1.02712e-05
1.02734e-05
1.02753e-05
1.02767e-05
1.02781e-05
1.02796e-05
1.02809e-05
1.02816e-05
1.02818e-05
1.02794e-05
1.02405e-05
1.02451e-05
1.02849e-05
1.02878e-05
1.02876e-05
1.02867e-05
1.02852e-05
1.02833e-05
1.02811e-05
1.02787e-05
1.02759e-05
1.02729e-05
1.02698e-05
1.02668e-05
1.02642e-05
1.02625e-05
1.02629e-05
1.02652e-05
1.02682e-05
1.02713e-05
1.02741e-05
1.02765e-05
1.02786e-05
1.02807e-05
1.02829e-05
1.02849e-05
1.02863e-05
1.02872e-05
1.02877e-05
1.02857e-05
1.02471e-05
1.0253e-05
1.02929e-05
1.02953e-05
1.02945e-05
1.0293e-05
1.02909e-05
1.02886e-05
1.0286e-05
1.0283e-05
1.02797e-05
1.02761e-05
1.02725e-05
1.02691e-05
1.02661e-05
1.0264e-05
1.02644e-05
1.02671e-05
1.02706e-05
1.02739e-05
1.0277e-05
1.028e-05
1.0283e-05
1.0286e-05
1.02889e-05
1.02912e-05
1.02929e-05
1.02942e-05
1.02955e-05
1.02942e-05
1.02553e-05
1.0263e-05
1.03025e-05
1.03043e-05
1.03028e-05
1.03007e-05
1.02983e-05
1.02955e-05
1.02923e-05
1.02886e-05
1.02846e-05
1.02804e-05
1.02762e-05
1.02724e-05
1.02689e-05
1.02664e-05
1.02665e-05
1.02694e-05
1.02731e-05
1.02769e-05
1.02808e-05
1.02848e-05
1.02887e-05
1.02924e-05
1.02956e-05
1.02982e-05
1.03004e-05
1.03026e-05
1.03047e-05
1.03035e-05
1.02638e-05
1.0275e-05
1.03135e-05
1.03148e-05
1.03129e-05
1.03104e-05
1.03075e-05
1.03041e-05
1.03002e-05
1.02957e-05
1.02909e-05
1.02861e-05
1.02815e-05
1.0277e-05
1.02728e-05
1.02694e-05
1.02692e-05
1.02722e-05
1.02764e-05
1.02812e-05
1.02862e-05
1.02913e-05
1.02959e-05
1.03001e-05
1.03036e-05
1.03067e-05
1.03098e-05
1.03129e-05
1.0315e-05
1.03131e-05
1.02737e-05
1.02888e-05
1.03262e-05
1.03273e-05
1.03251e-05
1.03221e-05
1.03187e-05
1.03146e-05
1.03098e-05
1.03045e-05
1.02991e-05
1.02936e-05
1.02883e-05
1.02828e-05
1.02774e-05
1.0273e-05
1.02724e-05
1.02759e-05
1.02813e-05
1.02874e-05
1.02937e-05
1.02997e-05
1.03051e-05
1.03098e-05
1.03141e-05
1.03181e-05
1.03222e-05
1.03256e-05
1.03269e-05
1.03248e-05
1.02869e-05
1.03047e-05
1.03412e-05
1.03421e-05
1.03395e-05
1.03362e-05
1.03321e-05
1.03271e-05
1.03215e-05
1.03155e-05
1.03093e-05
1.0303e-05
1.02964e-05
1.02894e-05
1.02826e-05
1.02773e-05
1.02769e-05
1.02814e-05
1.02882e-05
1.02958e-05
1.03032e-05
1.03101e-05
1.03163e-05
1.0322e-05
1.03275e-05
1.03326e-05
1.03374e-05
1.03406e-05
1.03416e-05
1.03406e-05
1.03036e-05
1.03232e-05
1.03592e-05
1.03599e-05
1.0357e-05
1.03531e-05
1.03482e-05
1.03425e-05
1.0336e-05
1.03291e-05
1.03218e-05
1.03141e-05
1.03059e-05
1.02973e-05
1.02891e-05
1.02832e-05
1.02832e-05
1.02888e-05
1.0297e-05
1.03059e-05
1.03144e-05
1.03223e-05
1.03299e-05
1.03369e-05
1.03437e-05
1.03497e-05
1.03547e-05
1.03581e-05
1.03603e-05
1.03603e-05
1.03234e-05
1.03456e-05
1.03812e-05
1.03816e-05
1.03783e-05
1.03737e-05
1.0368e-05
1.03613e-05
1.03539e-05
1.03458e-05
1.03371e-05
1.03277e-05
1.03175e-05
1.03072e-05
1.02978e-05
1.02913e-05
1.02914e-05
1.02982e-05
1.03077e-05
1.03179e-05
1.0328e-05
1.03374e-05
1.03466e-05
1.0355e-05
1.0363e-05
1.03696e-05
1.03748e-05
1.03794e-05
1.03834e-05
1.03834e-05
1.03469e-05
1.03729e-05
1.04083e-05
1.04084e-05
1.04045e-05
1.03991e-05
1.03924e-05
1.03846e-05
1.03758e-05
1.03663e-05
1.03558e-05
1.03444e-05
1.03321e-05
1.03199e-05
1.0309e-05
1.03015e-05
1.03018e-05
1.03096e-05
1.03205e-05
1.03325e-05
1.03446e-05
1.03561e-05
1.03669e-05
1.03767e-05
1.03859e-05
1.03932e-05
1.03992e-05
1.04055e-05
1.04108e-05
1.04107e-05
1.03751e-05
1.04062e-05
1.04415e-05
1.04411e-05
1.04366e-05
1.04302e-05
1.04222e-05
1.04129e-05
1.04026e-05
1.03913e-05
1.03788e-05
1.0365e-05
1.03505e-05
1.03362e-05
1.03236e-05
1.03149e-05
1.0315e-05
1.0324e-05
1.03366e-05
1.03504e-05
1.03647e-05
1.03782e-05
1.0391e-05
1.04023e-05
1.04129e-05
1.04217e-05
1.04293e-05
1.04372e-05
1.0443e-05
1.04435e-05
1.04088e-05
1.04467e-05
1.04819e-05
1.04809e-05
1.04754e-05
1.04676e-05
1.04581e-05
1.04472e-05
1.0435e-05
1.04215e-05
1.04066e-05
1.03904e-05
1.03735e-05
1.0357e-05
1.03425e-05
1.03325e-05
1.03325e-05
1.03425e-05
1.0357e-05
1.03729e-05
1.03894e-05
1.04051e-05
1.04203e-05
1.04335e-05
1.04459e-05
1.04568e-05
1.04665e-05
1.04753e-05
1.04816e-05
1.04826e-05
1.04485e-05
1.04956e-05
1.05302e-05
1.05282e-05
1.05214e-05
1.05121e-05
1.0501e-05
1.04882e-05
1.04739e-05
1.04579e-05
1.04404e-05
1.04217e-05
1.04024e-05
1.03834e-05
1.03667e-05
1.03553e-05
1.03553e-05
1.03668e-05
1.03836e-05
1.0402e-05
1.0421e-05
1.04392e-05
1.04572e-05
1.04726e-05
1.0487e-05
1.05004e-05
1.05119e-05
1.05211e-05
1.05276e-05
1.05292e-05
1.04961e-05
1.05542e-05
1.05872e-05
1.0584e-05
1.0576e-05
1.05655e-05
1.05529e-05
1.05382e-05
1.05216e-05
1.0503e-05
1.04828e-05
1.04612e-05
1.04389e-05
1.04171e-05
1.03979e-05
1.03851e-05
1.03853e-05
1.03987e-05
1.04179e-05
1.04391e-05
1.04613e-05
1.04824e-05
1.05033e-05
1.05212e-05
1.05381e-05
1.05538e-05
1.05663e-05
1.05758e-05
1.05828e-05
1.05854e-05
1.0554e-05
1.06239e-05
1.06551e-05
1.0651e-05
1.06423e-05
1.06309e-05
1.06169e-05
1.06002e-05
1.05809e-05
1.05595e-05
1.05362e-05
1.05113e-05
1.04859e-05
1.04611e-05
1.04395e-05
1.0425e-05
1.04251e-05
1.04402e-05
1.04619e-05
1.04862e-05
1.05122e-05
1.05366e-05
1.05602e-05
1.05809e-05
1.06003e-05
1.06177e-05
1.06312e-05
1.06419e-05
1.06505e-05
1.06546e-05
1.06245e-05
1.07074e-05
1.07375e-05
1.07331e-05
1.07237e-05
1.07108e-05
1.06946e-05
1.06753e-05
1.06533e-05
1.06291e-05
1.06029e-05
1.05748e-05
1.05462e-05
1.05184e-05
1.0494e-05
1.04774e-05
1.04769e-05
1.04935e-05
1.05184e-05
1.05461e-05
1.05758e-05
1.06034e-05
1.06296e-05
1.06535e-05
1.06755e-05
1.06945e-05
1.07097e-05
1.07228e-05
1.07331e-05
1.07386e-05
1.07094e-05
1.0808e-05
1.08376e-05
1.0832e-05
1.08209e-05
1.08056e-05
1.0787e-05
1.07656e-05
1.07413e-05
1.07143e-05
1.06849e-05
1.06535e-05
1.06214e-05
1.05902e-05
1.05627e-05
1.05441e-05
1.05436e-05
1.0562e-05
1.05901e-05
1.06215e-05
1.06541e-05
1.06847e-05
1.07143e-05
1.07416e-05
1.07658e-05
1.07872e-05
1.08046e-05
1.08199e-05
1.08317e-05
1.08378e-05
1.08094e-05
1.09286e-05
1.09567e-05
1.09488e-05
1.09358e-05
1.09193e-05
1.08992e-05
1.08758e-05
1.08488e-05
1.08187e-05
1.0786e-05
1.07512e-05
1.07157e-05
1.06811e-05
1.06507e-05
1.063e-05
1.06299e-05
1.06506e-05
1.06812e-05
1.0716e-05
1.07517e-05
1.07857e-05
1.08187e-05
1.08491e-05
1.08754e-05
1.08996e-05
1.09194e-05
1.0936e-05
1.09492e-05
1.09561e-05
1.09279e-05
1.10715e-05
1.10979e-05
1.10889e-05
1.10756e-05
1.10582e-05
1.10363e-05
1.10103e-05
1.09812e-05
1.09486e-05
1.0913e-05
1.08751e-05
1.08366e-05
1.0799e-05
1.07655e-05
1.07425e-05
1.07418e-05
1.07649e-05
1.07987e-05
1.08363e-05
1.08749e-05
1.09126e-05
1.09482e-05
1.09811e-05
1.10102e-05
1.10364e-05
1.10585e-05
1.1076e-05
1.10894e-05
1.10983e-05
1.10701e-05
1.12424e-05
1.12698e-05
1.12597e-05
1.12451e-05
1.12258e-05
1.12022e-05
1.11745e-05
1.11434e-05
1.11087e-05
1.10708e-05
1.10304e-05
1.09896e-05
1.09501e-05
1.09127e-05
1.08875e-05
1.08882e-05
1.09132e-05
1.09491e-05
1.09895e-05
1.10307e-05
1.1071e-05
1.11083e-05
1.11426e-05
1.11751e-05
1.1202e-05
1.12255e-05
1.12447e-05
1.12588e-05
1.12701e-05
1.12425e-05
1.14503e-05
1.14788e-05
1.14652e-05
1.14487e-05
1.14283e-05
1.14033e-05
1.13737e-05
1.13411e-05
1.13051e-05
1.12665e-05
1.12264e-05
1.11831e-05
1.11423e-05
1.11042e-05
1.10769e-05
1.10776e-05
1.11047e-05
1.11421e-05
1.11839e-05
1.12263e-05
1.12669e-05
1.13058e-05
1.13413e-05
1.13752e-05
1.14031e-05
1.14275e-05
1.14487e-05
1.14667e-05
1.14789e-05
1.14479e-05
1.17044e-05
1.1734e-05
1.17178e-05
1.16993e-05
1.16759e-05
1.16499e-05
1.16206e-05
1.15875e-05
1.15518e-05
1.15141e-05
1.14765e-05
1.14344e-05
1.1394e-05
1.13588e-05
1.13319e-05
1.13317e-05
1.13581e-05
1.13951e-05
1.14348e-05
1.14755e-05
1.15148e-05
1.15521e-05
1.15879e-05
1.16201e-05
1.16492e-05
1.16768e-05
1.16999e-05
1.17194e-05
1.17338e-05
1.16989e-05
1.20206e-05
1.20607e-05
1.20394e-05
1.20161e-05
1.19909e-05
1.19644e-05
1.19334e-05
1.19008e-05
1.18731e-05
1.18438e-05
1.182e-05
1.18044e-05
1.17915e-05
1.1785e-05
1.17867e-05
1.17884e-05
1.17865e-05
1.17909e-05
1.18026e-05
1.18224e-05
1.18455e-05
1.18718e-05
1.1903e-05
1.19325e-05
1.19613e-05
1.19927e-05
1.20181e-05
1.20377e-05
1.20593e-05
1.2017e-05
1.2453e-05
1.25338e-05
1.25048e-05
1.24911e-05
1.24709e-05
1.24283e-05
1.24068e-05
1.24001e-05
1.24133e-05
1.24623e-05
1.26027e-05
1.28202e-05
1.31224e-05
1.34857e-05
1.38288e-05
1.38319e-05
1.34866e-05
1.31228e-05
1.28232e-05
1.26043e-05
1.24627e-05
1.24156e-05
1.24e-05
1.2407e-05
1.24293e-05
1.24687e-05
1.2491e-05
1.25078e-05
1.25342e-05
1.24472e-05
1.33154e-05
1.35692e-05
1.36107e-05
1.3754e-05
1.3789e-05
1.36749e-05
1.37886e-05
1.40038e-05
1.43818e-05
1.51087e-05
1.68096e-05
1.93172e-05
2.2596e-05
2.64746e-05
3.00644e-05
3.00811e-05
2.64788e-05
2.26039e-05
1.93405e-05
1.68285e-05
1.51182e-05
1.43913e-05
1.40079e-05
1.37908e-05
1.36795e-05
1.3784e-05
1.37537e-05
1.36148e-05
1.35714e-05
1.33112e-05
1.62447e-05
1.68184e-05
1.79479e-05
2.03257e-05
2.00487e-05
1.95371e-05
2.25952e-05
2.41131e-05
2.70117e-05
3.37228e-05
4.91246e-05
6.95995e-05
9.7126e-05
0.00012837
0.000155432
0.000155487
0.000128402
9.7183e-05
6.98163e-05
4.92591e-05
3.38533e-05
2.70884e-05
2.41402e-05
2.2644e-05
1.95726e-05
1.99991e-05
2.03268e-05
1.79707e-05
1.68171e-05
1.62286e-05
2.88528e-05
2.67373e-05
3.76206e-05
6.38135e-05
5.3133e-05
5.15958e-05
0.000114751
0.000112575
0.000135749
0.00025584
0.000317011
0.000402898
0.000605689
0.000740905
0.000819692
0.000816389
0.000740052
0.000599228
0.000411466
0.000317976
0.000257258
0.000136458
0.000112872
0.000115463
5.19556e-05
5.28046e-05
6.3891e-05
3.77853e-05
2.67348e-05
2.87215e-05
7.34834e-05
6.09207e-05
0.000111635
0.000240586
0.000218821
0.000276892
0.000704507
0.000678292
0.000809597
0.00166681
0.00164875
0.00196245
0.00287524
0.00283318
0.00312365
0.00308882
0.00283269
0.00282127
0.00202703
0.00165641
0.00167244
0.000812583
0.000680067
0.00070771
0.000278275
0.000216937
0.00024166
0.000112356
6.07831e-05
7.27657e-05
0.000187652
0.000162445
0.000296577
0.000586352
0.000691833
0.00135663
0.002088
0.00233524
0.00304711
0.00436799
0.00399507
0.004812
0.00645793
0.00603677
0.00680946
0.00671848
0.00611005
0.0065062
0.00490282
0.00401464
0.00438531
0.00305456
0.00234777
0.00209693
0.00137157
0.000691055
0.00059217
0.000299156
0.000162584
0.000185286
0.000336946
0.000369079
0.000409528
0.000833629
0.00103808
0.00177258
0.0032548
0.00362168
0.00507291
0.00694908
0.00644324
0.00862125
0.00873279
0.00757411
0.00897568
0.0088195
0.00767398
0.00887531
0.00838038
0.0064289
0.00698269
0.00509921
0.00363648
0.00326964
0.00179317
0.00103458
0.000846833
0.000417561
0.000369844
0.00033305
0.000446311
0.000430689
0.00067735
0.00107949
0.00157768
0.00177234
0.0029397
0.00450005
0.00434436
0.00535601
0.0070367
0.00793946
0.00783748
0.00746468
0.00893106
0.00961641
0.00775351
0.00798567
0.00816415
0.00714404
0.00542493
0.00437088
0.00452067
0.00295474
0.00177957
0.0015857
0.00110389
0.000681943
0.000429281
0.000442713
0.000315981
0.000335179
0.000562306
0.00103102
0.0015051
0.00185975
0.00242403
0.00301455
0.00305383
0.00452497
0.00599759
0.00517766
0.00587722
0.00603731
0.0063751
0.00636963
0.00608728
0.00584217
0.0052114
0.00609346
0.00455417
0.00306325
0.00302471
0.00243354
0.00186732
0.00151493
0.00103453
0.000560811
0.000335071
0.000312401
0.00028741
0.000308034
0.000449137
0.000729947
0.0010951
0.00145299
0.00186714
0.00217534
0.00224795
0.00280148
0.00331209
0.00329182
0.00371472
0.00409428
0.00428552
0.00427077
0.00411863
0.0037327
0.0033015
0.00334626
0.00282357
0.00224944
0.00218407
0.00187587
0.00146214
0.00110817
0.00073706
0.000452676
0.000311583
0.000286442
0.0002239
0.000223893
0.000267857
0.000363832
0.000527466
0.000755134
0.00109612
0.00143684
0.00173283
0.00213681
0.00249045
0.00269204
0.00294281
0.00312369
0.00319734
0.00319819
0.00312996
0.00295228
0.00270222
0.00249632
0.00214545
0.00173948
0.00144305
0.00110034
0.00076082
0.00053224
0.000367064
0.000267299
0.000225179
0.000224662
0.000177408
0.000171605
0.000179114
0.000200698
0.000241929
0.000312634
0.000444722
0.000648532
0.000945184
0.00138975
0.00189772
0.0023772
0.00272498
0.00289014
0.00296194
0.00296619
0.00290514
0.00272353
0.00238446
0.00190994
0.00139501
0.000949772
0.000655558
0.000449577
0.000315519
0.000244657
0.000203257
0.000179785
0.000171741
0.000177287
0.000140455
0.000133314
0.000132893
0.000139473
0.000149706
0.000166973
0.000199255
0.000261117
0.000373787
0.000604319
0.00102787
0.00161609
0.00219455
0.00258897
0.00279934
0.00280071
0.00259571
0.00219915
0.00161993
0.00103157
0.00061078
0.000375109
0.000262352
0.000201101
0.000168219
0.000150511
0.000140214
0.000134701
0.00013425
0.000140594
0.000115068
0.000107484
0.000108136
0.00010916
0.000111724
0.000116478
0.000126031
0.000140658
0.000167895
0.000231404
0.000383007
0.00070583
0.00120575
0.00173633
0.00211694
0.00211811
0.00173921
0.00120828
0.000706823
0.000384025
0.000232051
0.000168603
0.000140854
0.000126261
0.000117277
0.000111977
0.000109333
0.000107567
0.000108065
0.000114923
9.59738e-05
9.14686e-05
9.09296e-05
9.14173e-05
9.30786e-05
9.50396e-05
9.76671e-05
0.000102435
0.000109505
0.000123187
0.000155286
0.000237869
0.000412481
0.000693115
0.000987359
0.000985531
0.000693026
0.000413879
0.000237495
0.000156095
0.000123681
0.000109779
0.000102432
9.77573e-05
9.47602e-05
9.31174e-05
9.1567e-05
9.11163e-05
9.16305e-05
9.62392e-05
8.29184e-05
7.89276e-05
7.80606e-05
7.90278e-05
7.94687e-05
8.05579e-05
8.24292e-05
8.41722e-05
8.66688e-05
9.02708e-05
9.6423e-05
0.000110691
0.000142829
0.000203392
0.000282195
0.000281684
0.00020335
0.00014369
0.000110753
9.69688e-05
9.04991e-05
8.68129e-05
8.44146e-05
8.26025e-05
8.08412e-05
7.99811e-05
7.89766e-05
7.83341e-05
7.91041e-05
8.26393e-05
7.16615e-05
6.82887e-05
6.79561e-05
6.81985e-05
6.92066e-05
6.98884e-05
7.10699e-05
7.19972e-05
7.31895e-05
7.41981e-05
7.54669e-05
7.78047e-05
8.23388e-05
9.03778e-05
0.000101659
0.000101942
9.08671e-05
8.24798e-05
7.76822e-05
7.56457e-05
7.42919e-05
7.30572e-05
7.20057e-05
7.09509e-05
7.00116e-05
6.90943e-05
6.84982e-05
6.80066e-05
6.881e-05
7.22963e-05
6.28804e-05
5.9464e-05
5.92925e-05
5.96004e-05
6.00383e-05
6.05462e-05
6.1183e-05
6.13809e-05
6.18093e-05
6.21045e-05
6.22958e-05
6.23835e-05
6.25151e-05
6.3162e-05
6.43118e-05
6.42343e-05
6.33489e-05
6.2553e-05
6.25195e-05
6.24704e-05
6.22236e-05
6.20209e-05
6.17686e-05
6.10458e-05
6.03391e-05
5.97213e-05
5.95451e-05
5.93808e-05
6.00793e-05
6.33454e-05
5.51221e-05
5.20537e-05
5.17556e-05
5.19148e-05
5.21495e-05
5.23814e-05
5.24031e-05
5.24362e-05
5.2536e-05
5.23273e-05
5.18595e-05
5.13931e-05
5.09439e-05
5.05479e-05
5.0297e-05
5.01932e-05
5.06216e-05
5.1011e-05
5.16251e-05
5.21231e-05
5.24815e-05
5.27943e-05
5.27776e-05
5.25023e-05
5.22226e-05
5.20736e-05
5.20392e-05
5.19053e-05
5.24892e-05
5.55235e-05
4.82174e-05
4.56559e-05
4.52908e-05
4.53247e-05
4.54231e-05
4.54651e-05
4.53343e-05
4.52533e-05
4.48902e-05
4.42414e-05
4.35599e-05
4.293e-05
4.22466e-05
4.15791e-05
4.10822e-05
4.1098e-05
4.16586e-05
4.22858e-05
4.29828e-05
4.36677e-05
4.43454e-05
4.50191e-05
4.53235e-05
4.54357e-05
4.54985e-05
4.55366e-05
4.55282e-05
4.54276e-05
4.58957e-05
4.85603e-05
4.24208e-05
4.00416e-05
3.96635e-05
3.96273e-05
3.96551e-05
3.95671e-05
3.9386e-05
3.90172e-05
3.83959e-05
3.76679e-05
3.6903e-05
3.61119e-05
3.52606e-05
3.45392e-05
3.40646e-05
3.41281e-05
3.46113e-05
3.52779e-05
3.61268e-05
3.70208e-05
3.78721e-05
3.86049e-05
3.90823e-05
3.94054e-05
3.96515e-05
3.97804e-05
3.9753e-05
3.97237e-05
4.01411e-05
4.24668e-05
3.7219e-05
3.51912e-05
3.48138e-05
3.47747e-05
3.46587e-05
3.45126e-05
3.42197e-05
3.36657e-05
3.29796e-05
3.22116e-05
3.14134e-05
3.05917e-05
2.97611e-05
2.90833e-05
2.86558e-05
2.86998e-05
2.91281e-05
2.97757e-05
3.06218e-05
3.15405e-05
3.24447e-05
3.32435e-05
3.38467e-05
3.42748e-05
3.45509e-05
3.47038e-05
3.47554e-05
3.48348e-05
3.52447e-05
3.73038e-05
3.293e-05
3.10362e-05
3.07581e-05
3.07026e-05
3.05637e-05
3.03631e-05
2.9885e-05
2.92753e-05
2.86348e-05
2.79051e-05
2.71061e-05
2.62716e-05
2.54618e-05
2.48113e-05
2.44097e-05
2.44235e-05
2.48093e-05
2.54432e-05
2.62765e-05
2.71866e-05
2.80897e-05
2.88818e-05
2.9482e-05
2.99148e-05
3.02414e-05
3.04744e-05
3.06291e-05
3.0778e-05
3.11586e-05
3.29729e-05
2.9048e-05
2.75484e-05
2.74007e-05
2.72673e-05
2.70831e-05
2.67501e-05
2.62645e-05
2.57865e-05
2.52355e-05
2.4536e-05
2.37387e-05
2.29093e-05
2.21455e-05
2.15525e-05
2.11924e-05
2.11901e-05
2.15348e-05
2.21263e-05
2.28984e-05
2.37285e-05
2.45413e-05
2.52744e-05
2.58737e-05
2.634e-05
2.67106e-05
2.70018e-05
2.722e-05
2.7394e-05
2.77232e-05
2.92692e-05
2.59036e-05
2.47855e-05
2.45442e-05
2.43212e-05
2.40553e-05
2.37019e-05
2.33322e-05
2.2919e-05
2.23717e-05
2.16891e-05
2.09403e-05
2.0184e-05
1.94998e-05
1.89531e-05
1.86038e-05
1.85726e-05
1.88828e-05
1.94451e-05
2.01717e-05
2.0947e-05
2.16968e-05
2.23748e-05
2.29487e-05
2.34174e-05
2.38088e-05
2.41263e-05
2.43646e-05
2.45373e-05
2.48224e-05
2.6105e-05
2.33844e-05
2.24113e-05
2.2075e-05
2.18371e-05
2.1578e-05
2.13066e-05
2.09767e-05
2.05375e-05
2.00039e-05
1.93919e-05
1.87419e-05
1.80779e-05
1.74538e-05
1.69345e-05
1.6599e-05
1.65729e-05
1.68784e-05
1.74169e-05
1.80847e-05
1.87759e-05
1.94356e-05
2.00462e-05
2.05912e-05
2.10548e-05
2.14319e-05
2.1724e-05
2.19428e-05
2.21103e-05
2.23626e-05
2.34156e-05
2.1136e-05
2.02791e-05
2.00015e-05
1.98157e-05
1.96368e-05
1.93976e-05
1.90343e-05
1.86086e-05
1.81463e-05
1.762e-05
1.70463e-05
1.64457e-05
1.58741e-05
1.54019e-05
1.51089e-05
1.51027e-05
1.53891e-05
1.58697e-05
1.64499e-05
1.70503e-05
1.76337e-05
1.81874e-05
1.86896e-05
1.91155e-05
1.94519e-05
1.97107e-05
1.99109e-05
2.00684e-05
2.02866e-05
2.11483e-05
1.92754e-05
1.85054e-05
1.83233e-05
1.81987e-05
1.80352e-05
1.77739e-05
1.74447e-05
1.71054e-05
1.67105e-05
1.62329e-05
1.56989e-05
1.51469e-05
1.46357e-05
1.42263e-05
1.39833e-05
1.39949e-05
1.42553e-05
1.4671e-05
1.51639e-05
1.568e-05
1.61958e-05
1.66945e-05
1.71477e-05
1.75286e-05
1.78272e-05
1.8056e-05
1.82331e-05
1.83728e-05
1.85553e-05
1.92552e-05
1.76381e-05
1.70215e-05
1.69e-05
1.67975e-05
1.66347e-05
1.64185e-05
1.61854e-05
1.59052e-05
1.55356e-05
1.50955e-05
1.46186e-05
1.41444e-05
1.37144e-05
1.33668e-05
1.31539e-05
1.31589e-05
1.3378e-05
1.37309e-05
1.41549e-05
1.46078e-05
1.50676e-05
1.55099e-05
1.59059e-05
1.62337e-05
1.64915e-05
1.66916e-05
1.68476e-05
1.69694e-05
1.71177e-05
1.7675e-05
1.62429e-05
1.58225e-05
1.57149e-05
1.5615e-05
1.54947e-05
1.53498e-05
1.51601e-05
1.48813e-05
1.45354e-05
1.41558e-05
1.37623e-05
1.33782e-05
1.30177e-05
1.27051e-05
1.25012e-05
1.24936e-05
1.26834e-05
1.29966e-05
1.33721e-05
1.37691e-05
1.41652e-05
1.45384e-05
1.48696e-05
1.51484e-05
1.53756e-05
1.55565e-05
1.56957e-05
1.57993e-05
1.59174e-05
1.63574e-05
1.52151e-05
1.48739e-05
1.47626e-05
1.46894e-05
1.45994e-05
1.44695e-05
1.42719e-05
1.40083e-05
1.37197e-05
1.34152e-05
1.31011e-05
1.27834e-05
1.2464e-05
1.21735e-05
1.19854e-05
1.19799e-05
1.21511e-05
1.24286e-05
1.2754e-05
1.30921e-05
1.3423e-05
1.37332e-05
1.40111e-05
1.42525e-05
1.44561e-05
1.46196e-05
1.47416e-05
1.48284e-05
1.49238e-05
1.52706e-05
1.43556e-05
1.40471e-05
1.39817e-05
1.39299e-05
1.38314e-05
1.36963e-05
1.35148e-05
1.33074e-05
1.30861e-05
1.28433e-05
1.25822e-05
1.23017e-05
1.20111e-05
1.1753e-05
1.1595e-05
1.15959e-05
1.1745e-05
1.19813e-05
1.22581e-05
1.25472e-05
1.28296e-05
1.3094e-05
1.33333e-05
1.35436e-05
1.37214e-05
1.38616e-05
1.39626e-05
1.40325e-05
1.41079e-05
1.43769e-05
1.35698e-05
1.33811e-05
1.33574e-05
1.3287e-05
1.31879e-05
1.30734e-05
1.29328e-05
1.27739e-05
1.25883e-05
1.23767e-05
1.21451e-05
1.18943e-05
1.16437e-05
1.14358e-05
1.13123e-05
1.1311e-05
1.14294e-05
1.16264e-05
1.18651e-05
1.21201e-05
1.23713e-05
1.26042e-05
1.28112e-05
1.29876e-05
1.31306e-05
1.32393e-05
1.33167e-05
1.33716e-05
1.34322e-05
1.36399e-05
1.29959e-05
1.29235e-05
1.28585e-05
1.27722e-05
1.26964e-05
1.26065e-05
1.24922e-05
1.2351e-05
1.21809e-05
1.19942e-05
1.17945e-05
1.15847e-05
1.13868e-05
1.12255e-05
1.11228e-05
1.11112e-05
1.12001e-05
1.13636e-05
1.15713e-05
1.17954e-05
1.20139e-05
1.2212e-05
1.23815e-05
1.25195e-05
1.26277e-05
1.27111e-05
1.27749e-05
1.28254e-05
1.28803e-05
1.30418e-05
1.2605e-05
1.25099e-05
1.24075e-05
1.23499e-05
1.22986e-05
1.22215e-05
1.21203e-05
1.19943e-05
1.18527e-05
1.17032e-05
1.15421e-05
1.1375e-05
1.12179e-05
1.10819e-05
1.09855e-05
1.0966e-05
1.10371e-05
1.1174e-05
1.13475e-05
1.15315e-05
1.17077e-05
1.1866e-05
1.20023e-05
1.21159e-05
1.2209e-05
1.22845e-05
1.23461e-05
1.23964e-05
1.24444e-05
1.2563e-05
1.22137e-05
1.20625e-05
1.20188e-05
1.20036e-05
1.1963e-05
1.1893e-05
1.18037e-05
1.17021e-05
1.15962e-05
1.14795e-05
1.13455e-05
1.1204e-05
1.10679e-05
1.09456e-05
1.08577e-05
1.08428e-05
1.09077e-05
1.10234e-05
1.11632e-05
1.13075e-05
1.14464e-05
1.15775e-05
1.16986e-05
1.18055e-05
1.18947e-05
1.19659e-05
1.20218e-05
1.20629e-05
1.20934e-05
1.21676e-05
1.18159e-05
1.17319e-05
1.17561e-05
1.17479e-05
1.17029e-05
1.16352e-05
1.15574e-05
1.14791e-05
1.13964e-05
1.12948e-05
1.11742e-05
1.10483e-05
1.09281e-05
1.08225e-05
1.0751e-05
1.07474e-05
1.08119e-05
1.09113e-05
1.10242e-05
1.11399e-05
1.1256e-05
1.13718e-05
1.14816e-05
1.15776e-05
1.16551e-05
1.17138e-05
1.17542e-05
1.17774e-05
1.17883e-05
1.18274e-05
1.15381e-05