/*--------------------------------*- C++ -*----------------------------------*\
| =========                 |                                                 |
| \\      /  F ield         | OpenFOAM: The Open Source CFD Toolbox           |
|  \\    /   O peration     | Version:  2312                                  |
|   \\  /    A nd           | Website:  www.openfoam.com                      |
|    \\/     M anipulation  |                                                 |
\*---------------------------------------------------------------------------*/
FoamFile
{
    version     2.0;
    format      ascii;
    arch        "LSB;label=32;scalar=64";
    class       volScalarField;
    location    "0.912455";
    object      k;
}
// * * * * * * * * * * * * * * * * * * * * * * * * * * * * * * * * * * * * * //

dimensions      [0 2 -2 0 0 0 0];

internalField   nonuniform List<scalar> 
90000
(
2.50532e-05
2.50567e-05
2.50576e-05
2.5058e-05
2.50582e-05
2.50581e-05
2.50577e-05
2.50572e-05
2.50566e-05
2.50561e-05
2.50559e-05
2.50558e-05
2.50558e-05
2.50559e-05
2.5056e-05
2.50564e-05
2.50571e-05
2.50579e-05
2.50585e-05
2.50585e-05
2.50578e-05
2.50567e-05
2.50566e-05
2.50581e-05
2.50596e-05
2.50603e-05
2.506e-05
2.50589e-05
2.50582e-05
2.50589e-05
2.50566e-05
2.51225e-05
2.51267e-05
2.51265e-05
2.51262e-05
2.51258e-05
2.51256e-05
2.51254e-05
2.51252e-05
2.51248e-05
2.51246e-05
2.51246e-05
2.51248e-05
2.5125e-05
2.51253e-05
2.51257e-05
2.5126e-05
2.51261e-05
2.5126e-05
2.51258e-05
2.51259e-05
2.51262e-05
2.51263e-05
2.5126e-05
2.51251e-05
2.5124e-05
2.51242e-05
2.51257e-05
2.51221e-05
2.50668e-05
2.50576e-05
2.51271e-05
2.51315e-05
2.51313e-05
2.51309e-05
2.51306e-05
2.51304e-05
2.51304e-05
2.51305e-05
2.51304e-05
2.51301e-05
2.51302e-05
2.51305e-05
2.51309e-05
2.51311e-05
2.51311e-05
2.51308e-05
2.51305e-05
2.5131e-05
2.51317e-05
2.51322e-05
2.51325e-05
2.51325e-05
2.51326e-05
2.51328e-05
2.51333e-05
2.51338e-05
2.51343e-05
2.51309e-05
2.50649e-05
2.50578e-05
2.51268e-05
2.51317e-05
2.51319e-05
2.51318e-05
2.51315e-05
2.51313e-05
2.51311e-05
2.51311e-05
2.51311e-05
2.5131e-05
2.5131e-05
2.51312e-05
2.51314e-05
2.51314e-05
2.51312e-05
2.51311e-05
2.51317e-05
2.51324e-05
2.51328e-05
2.51328e-05
2.51328e-05
2.51335e-05
2.51346e-05
2.51358e-05
2.51364e-05
2.51364e-05
2.51357e-05
2.51312e-05
2.50607e-05
2.50576e-05
2.51262e-05
2.51317e-05
2.51322e-05
2.51324e-05
2.51323e-05
2.5132e-05
2.51317e-05
2.51315e-05
2.51314e-05
2.51313e-05
2.51313e-05
2.51312e-05
2.5131e-05
2.51309e-05
2.51312e-05
2.51318e-05
2.51322e-05
2.51323e-05
2.51322e-05
2.5132e-05
2.51324e-05
2.51337e-05
2.5135e-05
2.51359e-05
2.51361e-05
2.51354e-05
2.51335e-05
2.51301e-05
2.50599e-05
2.50573e-05
2.51267e-05
2.5132e-05
2.51325e-05
2.51328e-05
2.51328e-05
2.51327e-05
2.51325e-05
2.51321e-05
2.51316e-05
2.51314e-05
2.51315e-05
2.51318e-05
2.51319e-05
2.51319e-05
2.51318e-05
2.51317e-05
2.51315e-05
2.51313e-05
2.51311e-05
2.51314e-05
2.51322e-05
2.5133e-05
2.51336e-05
2.51337e-05
2.51338e-05
2.51346e-05
2.51355e-05
2.51329e-05
2.50611e-05
2.50573e-05
2.51279e-05
2.51326e-05
2.51329e-05
2.51331e-05
2.51333e-05
2.51335e-05
2.51334e-05
2.5133e-05
2.51322e-05
2.51316e-05
2.51317e-05
2.51322e-05
2.51325e-05
2.51324e-05
2.51318e-05
2.5131e-05
2.51303e-05
2.51302e-05
2.51308e-05
2.51315e-05
2.5132e-05
2.5132e-05
2.51316e-05
2.51321e-05
2.51339e-05
2.51363e-05
2.51377e-05
2.51341e-05
2.50613e-05
2.50579e-05
2.51295e-05
2.51336e-05
2.51337e-05
2.51338e-05
2.51341e-05
2.51344e-05
2.51345e-05
2.51341e-05
2.51334e-05
2.51325e-05
2.51321e-05
2.51323e-05
2.51324e-05
2.51322e-05
2.51315e-05
2.51306e-05
2.51299e-05
2.51303e-05
2.51311e-05
2.51317e-05
2.51318e-05
2.51314e-05
2.51318e-05
2.51333e-05
2.51352e-05
2.51371e-05
2.51378e-05
2.5133e-05
2.50609e-05
2.50588e-05
2.51311e-05
2.51349e-05
2.51347e-05
2.51345e-05
2.51347e-05
2.5135e-05
2.51352e-05
2.51351e-05
2.51347e-05
2.51339e-05
2.5133e-05
2.51322e-05
2.51318e-05
2.51317e-05
2.51317e-05
2.51318e-05
2.5132e-05
2.51324e-05
2.51327e-05
2.51328e-05
2.51326e-05
2.51324e-05
2.51331e-05
2.51344e-05
2.51358e-05
2.51369e-05
2.5137e-05
2.51316e-05
2.50606e-05
2.50603e-05
2.51319e-05
2.51355e-05
2.51351e-05
2.51347e-05
2.51345e-05
2.51346e-05
2.5135e-05
2.51353e-05
2.51353e-05
2.51349e-05
2.51339e-05
2.51326e-05
2.51313e-05
2.51313e-05
2.51324e-05
2.51337e-05
2.51347e-05
2.51354e-05
2.51355e-05
2.51352e-05
2.51345e-05
2.51339e-05
2.51339e-05
2.51346e-05
2.51356e-05
2.51361e-05
2.51359e-05
2.51307e-05
2.50609e-05
2.50618e-05
2.51318e-05
2.51353e-05
2.51349e-05
2.51343e-05
2.51336e-05
2.51334e-05
2.51337e-05
2.51344e-05
2.5135e-05
2.5135e-05
2.51344e-05
2.51333e-05
2.51318e-05
2.51312e-05
2.51327e-05
2.51348e-05
2.51365e-05
2.51377e-05
2.51379e-05
2.51373e-05
2.51362e-05
2.5135e-05
2.51343e-05
2.51344e-05
2.5135e-05
2.51355e-05
2.51356e-05
2.51309e-05
2.50618e-05
2.50623e-05
2.51317e-05
2.51355e-05
2.51354e-05
2.51351e-05
2.51347e-05
2.51343e-05
2.5134e-05
2.51339e-05
2.51342e-05
2.51344e-05
2.51343e-05
2.51338e-05
2.51327e-05
2.51316e-05
2.51327e-05
2.5135e-05
2.5137e-05
2.51382e-05
2.51383e-05
2.51375e-05
2.51363e-05
2.51353e-05
2.51345e-05
2.51345e-05
2.5135e-05
2.51356e-05
2.51359e-05
2.51317e-05
2.50625e-05
2.50627e-05
2.51321e-05
2.51364e-05
2.51369e-05
2.51375e-05
2.5138e-05
2.51381e-05
2.51377e-05
2.51366e-05
2.5135e-05
2.5134e-05
2.51342e-05
2.51344e-05
2.51343e-05
2.5134e-05
2.51342e-05
2.51351e-05
2.51357e-05
2.5136e-05
2.51358e-05
2.51355e-05
2.51352e-05
2.5135e-05
2.51349e-05
2.5135e-05
2.51353e-05
2.51358e-05
2.51362e-05
2.51319e-05
2.50627e-05
2.50653e-05
2.51325e-05
2.51376e-05
2.51388e-05
2.51401e-05
2.51412e-05
2.51415e-05
2.51407e-05
2.51387e-05
2.51361e-05
2.51339e-05
2.51338e-05
2.51347e-05
2.51356e-05
2.51361e-05
2.51361e-05
2.51355e-05
2.51341e-05
2.51328e-05
2.51327e-05
2.51336e-05
2.51346e-05
2.51354e-05
2.51357e-05
2.51357e-05
2.51358e-05
2.51362e-05
2.51365e-05
2.51318e-05
2.5063e-05
2.50688e-05
2.51326e-05
2.51393e-05
2.5141e-05
2.51424e-05
2.5143e-05
2.51426e-05
2.5141e-05
2.51387e-05
2.51361e-05
2.51337e-05
2.51332e-05
2.51345e-05
2.51361e-05
2.51371e-05
2.5137e-05
2.51359e-05
2.51341e-05
2.51325e-05
2.51325e-05
2.51339e-05
2.51355e-05
2.51366e-05
2.51371e-05
2.51371e-05
2.51372e-05
2.51374e-05
2.51375e-05
2.51328e-05
2.50649e-05
2.50711e-05
2.5136e-05
2.5142e-05
2.5143e-05
2.51432e-05
2.51425e-05
2.5141e-05
2.51393e-05
2.51379e-05
2.51364e-05
2.51346e-05
2.51334e-05
2.51346e-05
2.51362e-05
2.51372e-05
2.51372e-05
2.51364e-05
2.51352e-05
2.51343e-05
2.51342e-05
2.51354e-05
2.51369e-05
2.51381e-05
2.51388e-05
2.51391e-05
2.51395e-05
2.51399e-05
2.51404e-05
2.51368e-05
2.50682e-05
2.50718e-05
2.51416e-05
2.5145e-05
2.51445e-05
2.5143e-05
2.51412e-05
2.51398e-05
2.51392e-05
2.51388e-05
2.51379e-05
2.51362e-05
2.51348e-05
2.51352e-05
2.51363e-05
2.51367e-05
2.51368e-05
2.51366e-05
2.51362e-05
2.51358e-05
2.5136e-05
2.51371e-05
2.51385e-05
2.51397e-05
2.51406e-05
2.51414e-05
2.51423e-05
2.51432e-05
2.51441e-05
2.514e-05
2.50704e-05
2.50725e-05
2.51456e-05
2.51478e-05
2.51466e-05
2.5145e-05
2.51436e-05
2.51425e-05
2.51418e-05
2.51409e-05
2.51394e-05
2.51377e-05
2.51362e-05
2.51358e-05
2.51358e-05
2.51357e-05
2.51358e-05
2.51363e-05
2.51368e-05
2.51372e-05
2.51378e-05
2.51389e-05
2.51401e-05
2.51413e-05
2.51426e-05
2.5144e-05
2.51453e-05
2.51463e-05
2.51467e-05
2.51416e-05
2.50722e-05
2.50754e-05
2.5148e-05
2.51508e-05
2.51499e-05
2.51487e-05
2.51476e-05
2.51465e-05
2.51451e-05
2.51432e-05
2.5141e-05
2.5139e-05
2.51372e-05
2.51359e-05
2.51348e-05
2.51341e-05
2.51344e-05
2.51355e-05
2.5137e-05
2.51383e-05
2.51395e-05
2.51407e-05
2.5142e-05
2.51436e-05
2.51456e-05
2.51475e-05
2.51487e-05
2.51492e-05
2.51489e-05
2.51437e-05
2.50749e-05
2.50795e-05
2.51498e-05
2.51538e-05
2.51533e-05
2.51525e-05
2.51516e-05
2.51504e-05
2.51486e-05
2.51463e-05
2.51438e-05
2.51412e-05
2.51387e-05
2.51363e-05
2.51342e-05
2.51329e-05
2.51334e-05
2.51354e-05
2.51377e-05
2.51396e-05
2.51413e-05
2.51429e-05
2.51449e-05
2.51474e-05
2.51499e-05
2.51516e-05
2.51524e-05
2.51526e-05
2.51525e-05
2.51475e-05
2.50792e-05
2.50841e-05
2.51526e-05
2.51572e-05
2.5157e-05
2.51566e-05
2.51559e-05
2.51547e-05
2.51527e-05
2.51501e-05
2.51472e-05
2.51441e-05
2.51408e-05
2.51376e-05
2.51349e-05
2.51336e-05
2.51345e-05
2.51368e-05
2.51394e-05
2.51418e-05
2.51441e-05
2.51465e-05
2.51494e-05
2.51522e-05
2.51543e-05
2.51554e-05
2.51561e-05
2.51568e-05
2.5157e-05
2.51523e-05
2.50846e-05
2.50894e-05
2.5157e-05
2.51621e-05
2.51623e-05
2.51621e-05
2.51613e-05
2.51596e-05
2.51572e-05
2.51542e-05
2.51509e-05
2.51471e-05
2.51432e-05
2.51395e-05
2.51368e-05
2.51355e-05
2.51362e-05
2.51386e-05
2.51415e-05
2.51446e-05
2.51479e-05
2.51512e-05
2.51543e-05
2.51567e-05
2.51582e-05
2.51595e-05
2.51609e-05
2.51621e-05
2.51624e-05
2.51578e-05
2.50905e-05
2.50963e-05
2.5164e-05
2.51694e-05
2.51697e-05
2.51691e-05
2.51676e-05
2.51651e-05
2.5162e-05
2.51585e-05
2.51546e-05
2.51504e-05
2.51461e-05
2.51421e-05
2.51387e-05
2.51367e-05
2.51373e-05
2.51402e-05
2.51441e-05
2.51483e-05
2.51524e-05
2.51562e-05
2.51591e-05
2.51613e-05
2.51633e-05
2.51656e-05
2.51676e-05
2.51688e-05
2.51691e-05
2.51649e-05
2.50979e-05
2.51058e-05
2.51739e-05
2.51791e-05
2.51788e-05
2.51774e-05
2.51748e-05
2.51715e-05
2.51678e-05
2.51637e-05
2.51593e-05
2.51545e-05
2.51496e-05
2.51449e-05
2.51407e-05
2.5138e-05
2.51387e-05
2.51424e-05
2.51474e-05
2.51525e-05
2.51571e-05
2.5161e-05
2.51643e-05
2.51675e-05
2.51709e-05
2.51742e-05
2.51766e-05
2.51779e-05
2.51788e-05
2.51751e-05
2.51086e-05
2.51183e-05
2.51867e-05
2.51911e-05
2.51899e-05
2.51873e-05
2.51839e-05
2.51799e-05
2.51756e-05
2.51707e-05
2.51655e-05
2.51598e-05
2.51541e-05
2.51486e-05
2.51436e-05
2.51403e-05
2.51409e-05
2.51454e-05
2.51511e-05
2.51567e-05
2.51617e-05
2.51664e-05
2.51711e-05
2.51759e-05
2.51806e-05
2.51845e-05
2.51873e-05
2.51894e-05
2.51915e-05
2.51889e-05
2.5122e-05
2.51345e-05
2.52023e-05
2.52056e-05
2.52033e-05
2.51999e-05
2.51958e-05
2.51912e-05
2.5186e-05
2.51801e-05
2.51737e-05
2.51669e-05
2.51603e-05
2.51539e-05
2.51482e-05
2.5144e-05
2.51443e-05
2.51491e-05
2.51552e-05
2.51614e-05
2.51676e-05
2.5174e-05
2.51802e-05
2.51862e-05
2.51915e-05
2.51958e-05
2.51995e-05
2.52031e-05
2.52067e-05
2.52045e-05
2.5136e-05
2.51543e-05
2.52203e-05
2.52229e-05
2.52198e-05
2.52157e-05
2.52109e-05
2.52053e-05
2.51988e-05
2.51917e-05
2.5184e-05
2.51763e-05
2.51687e-05
2.51614e-05
2.51545e-05
2.5149e-05
2.51486e-05
2.51536e-05
2.51605e-05
2.51683e-05
2.51765e-05
2.51845e-05
2.5192e-05
2.51987e-05
2.52045e-05
2.52097e-05
2.52148e-05
2.52199e-05
2.52236e-05
2.52202e-05
2.51522e-05
2.51769e-05
2.52411e-05
2.52433e-05
2.52396e-05
2.52348e-05
2.5229e-05
2.52222e-05
2.52143e-05
2.52059e-05
2.51971e-05
2.51883e-05
2.51796e-05
2.51708e-05
2.5162e-05
2.51548e-05
2.51541e-05
2.51598e-05
2.51685e-05
2.51784e-05
2.51885e-05
2.51983e-05
2.5207e-05
2.52145e-05
2.52215e-05
2.52282e-05
2.52349e-05
2.52406e-05
2.52428e-05
2.52391e-05
2.51738e-05
2.52029e-05
2.52656e-05
2.52674e-05
2.52631e-05
2.52575e-05
2.52506e-05
2.52425e-05
2.52334e-05
2.52237e-05
2.52137e-05
2.52035e-05
2.51928e-05
2.51816e-05
2.51705e-05
2.51621e-05
2.51614e-05
2.51687e-05
2.51796e-05
2.5192e-05
2.5204e-05
2.52151e-05
2.52252e-05
2.52343e-05
2.52433e-05
2.52517e-05
2.52596e-05
2.52651e-05
2.52665e-05
2.52645e-05
2.52011e-05
2.52331e-05
2.52947e-05
2.52962e-05
2.52913e-05
2.52848e-05
2.52768e-05
2.52675e-05
2.52571e-05
2.5246e-05
2.52343e-05
2.52218e-05
2.52084e-05
2.51944e-05
2.51813e-05
2.51718e-05
2.51716e-05
2.51807e-05
2.51939e-05
2.52084e-05
2.52222e-05
2.52349e-05
2.52473e-05
2.52588e-05
2.52697e-05
2.52793e-05
2.52877e-05
2.52935e-05
2.52968e-05
2.52966e-05
2.52334e-05
2.52694e-05
2.53304e-05
2.53314e-05
2.5326e-05
2.53185e-05
2.53092e-05
2.52983e-05
2.52864e-05
2.52734e-05
2.52593e-05
2.5244e-05
2.52275e-05
2.52108e-05
2.51955e-05
2.51849e-05
2.51851e-05
2.51961e-05
2.52114e-05
2.52281e-05
2.52444e-05
2.52596e-05
2.52747e-05
2.52883e-05
2.5301e-05
2.53115e-05
2.53202e-05
2.53279e-05
2.53346e-05
2.53344e-05
2.52717e-05
2.53137e-05
2.53745e-05
2.5375e-05
2.53686e-05
2.53598e-05
2.53488e-05
2.53361e-05
2.53222e-05
2.53069e-05
2.529e-05
2.52714e-05
2.52516e-05
2.52318e-05
2.5214e-05
2.52019e-05
2.52023e-05
2.52151e-05
2.52328e-05
2.5252e-05
2.52718e-05
2.52902e-05
2.53078e-05
2.53233e-05
2.53379e-05
2.53498e-05
2.53596e-05
2.53703e-05
2.53791e-05
2.53787e-05
2.53176e-05
2.53679e-05
2.54286e-05
2.54282e-05
2.54207e-05
2.54101e-05
2.5397e-05
2.5382e-05
2.53657e-05
2.53476e-05
2.53274e-05
2.53051e-05
2.52817e-05
2.52585e-05
2.5238e-05
2.5224e-05
2.52243e-05
2.52389e-05
2.52592e-05
2.52814e-05
2.53047e-05
2.53264e-05
2.53468e-05
2.53647e-05
2.5382e-05
2.53963e-05
2.54086e-05
2.54218e-05
2.54314e-05
2.54317e-05
2.53721e-05
2.54337e-05
2.54942e-05
2.54926e-05
2.54834e-05
2.54706e-05
2.54551e-05
2.54375e-05
2.54182e-05
2.53967e-05
2.53726e-05
2.53465e-05
2.53193e-05
2.52926e-05
2.52692e-05
2.52531e-05
2.5253e-05
2.52693e-05
2.52927e-05
2.53183e-05
2.53451e-05
2.53702e-05
2.53945e-05
2.54157e-05
2.54357e-05
2.54533e-05
2.54688e-05
2.54835e-05
2.54937e-05
2.54949e-05
2.54368e-05
2.55133e-05
2.55726e-05
2.55694e-05
2.55581e-05
2.55429e-05
2.55247e-05
2.55041e-05
2.54812e-05
2.54557e-05
2.54277e-05
2.53976e-05
2.53666e-05
2.53361e-05
2.53092e-05
2.52908e-05
2.52905e-05
2.5309e-05
2.53361e-05
2.53657e-05
2.53966e-05
2.54256e-05
2.54545e-05
2.54791e-05
2.55022e-05
2.55237e-05
2.55424e-05
2.55576e-05
2.55682e-05
2.55706e-05
2.55143e-05
2.56085e-05
2.56653e-05
2.56601e-05
2.56467e-05
2.56293e-05
2.56087e-05
2.55851e-05
2.55584e-05
2.55289e-05
2.54967e-05
2.54622e-05
2.54266e-05
2.53915e-05
2.53606e-05
2.53399e-05
2.534e-05
2.53615e-05
2.53926e-05
2.54264e-05
2.54621e-05
2.54957e-05
2.55293e-05
2.55578e-05
2.55847e-05
2.56102e-05
2.56307e-05
2.56464e-05
2.56579e-05
2.5662e-05
2.56082e-05
2.57218e-05
2.57754e-05
2.57684e-05
2.57537e-05
2.5735e-05
2.57122e-05
2.56853e-05
2.56546e-05
2.56207e-05
2.55838e-05
2.55442e-05
2.55035e-05
2.54637e-05
2.54287e-05
2.54056e-05
2.54057e-05
2.54301e-05
2.5465e-05
2.55034e-05
2.55451e-05
2.55839e-05
2.56217e-05
2.56544e-05
2.56857e-05
2.5714e-05
2.57359e-05
2.57534e-05
2.57674e-05
2.57743e-05
2.57226e-05
2.58573e-05
2.59084e-05
2.59009e-05
2.58854e-05
2.58643e-05
2.58381e-05
2.58071e-05
2.5772e-05
2.57337e-05
2.56921e-05
2.56474e-05
2.56018e-05
2.55575e-05
2.55184e-05
2.54922e-05
2.54911e-05
2.55178e-05
2.55575e-05
2.56012e-05
2.56489e-05
2.56927e-05
2.57343e-05
2.5772e-05
2.58074e-05
2.58382e-05
2.58628e-05
2.58842e-05
2.59012e-05
2.59103e-05
2.58606e-05
2.60197e-05
2.60702e-05
2.60612e-05
2.60429e-05
2.60179e-05
2.59876e-05
2.5953e-05
2.59142e-05
2.58715e-05
2.58251e-05
2.57753e-05
2.57246e-05
2.56754e-05
2.56313e-05
2.5602e-05
2.56007e-05
2.56301e-05
2.5675e-05
2.57245e-05
2.57767e-05
2.58248e-05
2.58711e-05
2.59142e-05
2.59535e-05
2.59878e-05
2.6016e-05
2.60412e-05
2.60606e-05
2.60708e-05
2.60226e-05
2.62148e-05
2.62634e-05
2.62501e-05
2.62282e-05
2.6201e-05
2.61683e-05
2.61306e-05
2.60878e-05
2.60403e-05
2.5989e-05
2.59344e-05
2.58785e-05
2.58246e-05
2.57757e-05
2.57433e-05
2.57428e-05
2.57757e-05
2.58244e-05
2.58789e-05
2.5935e-05
2.5988e-05
2.60398e-05
2.60878e-05
2.61305e-05
2.61691e-05
2.62011e-05
2.62284e-05
2.62503e-05
2.62623e-05
2.6214e-05
2.64458e-05
2.64912e-05
2.64754e-05
2.6453e-05
2.64246e-05
2.63891e-05
2.63472e-05
2.63009e-05
2.62497e-05
2.61944e-05
2.61357e-05
2.60753e-05
2.6017e-05
2.59638e-05
2.59277e-05
2.59268e-05
2.59629e-05
2.6016e-05
2.60747e-05
2.61348e-05
2.61933e-05
2.62491e-05
2.63006e-05
2.63467e-05
2.63889e-05
2.64248e-05
2.6454e-05
2.64769e-05
2.6492e-05
2.64434e-05
2.67208e-05
2.67676e-05
2.67501e-05
2.67261e-05
2.66942e-05
2.66552e-05
2.66103e-05
2.65613e-05
2.65075e-05
2.64488e-05
2.63869e-05
2.63236e-05
2.62627e-05
2.62047e-05
2.61649e-05
2.6166e-05
2.62048e-05
2.62609e-05
2.63235e-05
2.63869e-05
2.64489e-05
2.65065e-05
2.656e-05
2.66108e-05
2.66545e-05
2.66934e-05
2.67253e-05
2.67494e-05
2.6769e-05
2.67206e-05
2.70546e-05
2.71047e-05
2.70812e-05
2.70528e-05
2.70178e-05
2.69765e-05
2.69289e-05
2.68777e-05
2.68224e-05
2.67633e-05
2.67028e-05
2.66373e-05
2.65743e-05
2.6516e-05
2.64737e-05
2.64749e-05
2.65164e-05
2.65741e-05
2.66378e-05
2.67024e-05
2.67642e-05
2.68229e-05
2.6878e-05
2.69313e-05
2.6976e-05
2.70171e-05
2.70526e-05
2.70826e-05
2.71052e-05
2.70516e-05
2.74626e-05
2.75161e-05
2.74857e-05
2.74527e-05
2.74132e-05
2.73701e-05
2.7322e-05
2.727e-05
2.72158e-05
2.71598e-05
2.71038e-05
2.70413e-05
2.69808e-05
2.69279e-05
2.68871e-05
2.68867e-05
2.69265e-05
2.69829e-05
2.70419e-05
2.71022e-05
2.71607e-05
2.72161e-05
2.72703e-05
2.73215e-05
2.73686e-05
2.74141e-05
2.74543e-05
2.74883e-05
2.75148e-05
2.74548e-05
2.79682e-05
2.80399e-05
2.80006e-05
2.79605e-05
2.79148e-05
2.78679e-05
2.78174e-05
2.77668e-05
2.77252e-05
2.76831e-05
2.76511e-05
2.76306e-05
2.7615e-05
2.76081e-05
2.76119e-05
2.76153e-05
2.76102e-05
2.76141e-05
2.76284e-05
2.76547e-05
2.7685e-05
2.77237e-05
2.77702e-05
2.78155e-05
2.78633e-05
2.79172e-05
2.79632e-05
2.79992e-05
2.80378e-05
2.79635e-05
2.86616e-05
2.88073e-05
2.87566e-05
2.87307e-05
2.86804e-05
2.86018e-05
2.85626e-05
2.8551e-05
2.8573e-05
2.8648e-05
2.88687e-05
2.92014e-05
2.96575e-05
3.02022e-05
3.07092e-05
3.07137e-05
3.02036e-05
2.96587e-05
2.92047e-05
2.88712e-05
2.865e-05
2.85757e-05
2.85507e-05
2.85626e-05
2.86029e-05
2.86778e-05
2.87307e-05
2.87602e-05
2.88082e-05
2.86562e-05
3.00998e-05
3.05023e-05
3.06006e-05
3.08992e-05
3.0764e-05
3.05317e-05
3.07228e-05
3.09897e-05
3.15248e-05
3.25587e-05
3.49242e-05
3.82614e-05
4.24271e-05
4.71144e-05
5.12386e-05
5.12597e-05
4.71199e-05
4.24356e-05
3.82919e-05
3.4949e-05
3.25722e-05
3.15391e-05
3.09953e-05
3.07265e-05
3.05381e-05
3.07543e-05
3.08974e-05
3.06085e-05
3.05036e-05
3.00965e-05
3.50299e-05
3.5478e-05
3.75538e-05
4.21957e-05
3.9593e-05
3.87726e-05
4.46912e-05
4.47539e-05
4.78851e-05
5.57187e-05
7.0856e-05
8.90377e-05
0.000111108
0.000133644
0.000151766
0.000151792
0.00013365
0.000111134
8.92364e-05
7.09863e-05
5.58621e-05
4.79746e-05
4.47913e-05
4.47937e-05
3.88175e-05
3.95316e-05
4.2187e-05
3.75888e-05
3.54768e-05
3.50071e-05
5.28287e-05
4.89392e-05
6.2609e-05
9.66805e-05
7.763e-05
7.46895e-05
0.000147851
0.000129296
0.000140215
0.000234544
0.000250022
0.000288889
0.000378657
0.000431394
0.000466095
0.000464741
0.000430714
0.000376176
0.000292799
0.000250689
0.000235579
0.000140697
0.000129542
0.000148717
7.50305e-05
7.74037e-05
9.67361e-05
6.27746e-05
4.89515e-05
5.26835e-05
9.52369e-05
8.885e-05
0.000128492
0.000221388
0.000191447
0.000250323
0.000463626
0.00040298
0.000448816
0.000791995
0.000736192
0.000826467
0.00106037
0.00105053
0.00113451
0.00112727
0.00104755
0.00104967
0.000844066
0.000740425
0.000795017
0.000449844
0.000403427
0.000465791
0.000250422
0.000190597
0.00022186
0.000128833
8.90255e-05
9.4676e-05
0.00017573
0.000186743
0.000260179
0.00039432
0.000447525
0.000698612
0.000907607
0.000899092
0.00110441
0.00148401
0.00134308
0.00166811
0.00221101
0.00209065
0.00221436
0.00218368
0.00209518
0.00221835
0.00173247
0.00135601
0.00149311
0.0011061
0.000901488
0.00091127
0.000702986
0.00044744
0.000395788
0.00026069
0.000187525
0.000174719
0.000275349
0.000283734
0.000342431
0.000512275
0.000629089
0.000916082
0.00124332
0.00136292
0.00170182
0.00200878
0.00216636
0.00218739
0.00230736
0.00268222
0.00239037
0.00236913
0.00268317
0.00232057
0.0021592
0.00213099
0.00200579
0.00170785
0.00137367
0.00125352
0.000926158
0.000632065
0.00051692
0.000344806
0.000284341
0.000272573
0.000331009
0.000334311
0.000433739
0.000600599
0.000775152
0.000879772
0.00119557
0.00149019
0.00144458
0.00174269
0.00203103
0.00210666
0.00205534
0.00212137
0.00226345
0.00233066
0.00219879
0.00206938
0.0021209
0.00203461
0.00175626
0.00145219
0.00149607
0.00120214
0.000882079
0.000775699
0.000608622
0.000437347
0.000330337
0.000327902
0.00024521
0.000261551
0.000382594
0.000566939
0.000719885
0.00082833
0.00100217
0.00115905
0.00116812
0.00154071
0.00174771
0.00161852
0.00176634
0.00177072
0.00182441
0.00184238
0.00178278
0.00176034
0.00162046
0.00175985
0.00154211
0.00116644
0.00116339
0.00100617
0.000831435
0.00072277
0.000569952
0.000382352
0.000261391
0.000244726
0.000227994
0.000245695
0.000323784
0.000453632
0.000579233
0.000692005
0.000828164
0.000916153
0.000929758
0.00110002
0.0012474
0.00120623
0.00128084
0.00137858
0.00141833
0.00142012
0.00138984
0.00128438
0.0012112
0.00125359
0.00110483
0.000931792
0.000918972
0.000831874
0.00069542
0.000584228
0.000456621
0.000325558
0.000246773
0.000227762
0.000195286
0.000199113
0.000229423
0.000286325
0.000355965
0.000447514
0.000580423
0.000684873
0.000768792
0.00089347
0.000991858
0.00102913
0.00108443
0.00113162
0.00115154
0.0011525
0.00113597
0.00108663
0.00103245
0.000994624
0.000894628
0.000770985
0.000687466
0.000582202
0.000449737
0.00035806
0.000288422
0.000230105
0.000200165
0.000195744
0.000166846
0.000165447
0.000172565
0.000188205
0.000210569
0.000246693
0.0003165
0.000407083
0.000520369
0.000673859
0.00082386
0.000942755
0.00102322
0.00106276
0.00107679
0.00107805
0.00106689
0.0010242
0.000944189
0.000827156
0.000676577
0.000521798
0.000409733
0.000319549
0.000248442
0.000212546
0.000189656
0.000173204
0.000165814
0.000167028
0.000142868
0.000139371
0.000140007
0.000144672
0.000151254
0.000161932
0.000182505
0.000218735
0.000280304
0.000393164
0.000558077
0.000742977
0.00089783
0.00099207
0.00103926
0.00104042
0.000994814
0.000898641
0.000744341
0.000560267
0.000395274
0.000281419
0.000219404
0.000183511
0.000162729
0.000152059
0.00014538
0.000141078
0.000140134
0.000143231
0.000125038
0.000120838
0.000121186
0.00012195
0.000123883
0.000127229
0.000133615
0.00014359
0.000162115
0.000204266
0.000292192
0.000440026
0.000619646
0.000777719
0.000878115
0.000878122
0.0007792
0.000621129
0.000440447
0.000292681
0.000204913
0.000162607
0.000143766
0.000133752
0.000127628
0.000124116
0.000122213
0.000120859
0.000121339
0.000125232
0.000111077
0.000108206
0.00010784
0.000108293
0.000109258
0.000110693
0.000112579
0.000115848
0.000121132
0.000131788
0.000156167
0.000212219
0.000310628
0.000437982
0.000548375
0.000547669
0.000438115
0.000311495
0.000212272
0.000156559
0.000132198
0.000121319
0.000115975
0.000112605
0.000110435
0.000109294
0.000108307
0.000108062
0.000108437
0.000111313
0.000100755
9.81103e-05
9.73041e-05
9.80013e-05
9.82764e-05
9.89658e-05
0.000100395
0.000101714
0.000103531
0.000106338
0.000111517
0.000123729
0.000149517
0.000193089
0.000242322
0.0002421
0.000193056
0.00015002
0.000123873
0.000111964
0.000106583
0.000103629
0.000101834
0.000100536
9.93137e-05
9.86929e-05
9.79064e-05
9.75848e-05
9.81338e-05
0.000100619
9.14778e-05
8.89707e-05
8.85773e-05
8.87176e-05
8.94872e-05
9.001e-05
9.10075e-05
9.1602e-05
9.24009e-05
9.31867e-05
9.42968e-05
9.64938e-05
0.000100742
0.000108252
0.000118269
0.000118489
0.000108629
0.000100853
9.63361e-05
9.4448e-05
9.33051e-05
9.23574e-05
9.15891e-05
9.08396e-05
9.016e-05
8.94406e-05
8.89353e-05
8.87088e-05
8.9384e-05
9.20131e-05
8.38914e-05
8.09766e-05
8.08007e-05
8.11059e-05
8.13872e-05
8.17689e-05
8.22918e-05
8.23558e-05
8.26476e-05
8.28365e-05
8.29365e-05
8.3002e-05
8.32185e-05
8.39693e-05
8.51657e-05
8.51069e-05
8.4105e-05
8.32712e-05
8.30731e-05
8.30677e-05
8.29292e-05
8.2847e-05
8.27222e-05
8.21753e-05
8.15858e-05
8.10992e-05
8.10181e-05
8.0951e-05
8.15892e-05
8.42256e-05
7.67651e-05
7.40866e-05
7.38119e-05
7.38927e-05
7.40209e-05
7.42146e-05
7.42134e-05
7.41746e-05
7.41788e-05
7.39137e-05
7.34481e-05
7.29744e-05
7.25202e-05
7.21315e-05
7.19102e-05
7.18352e-05
7.21837e-05
7.25568e-05
7.31236e-05
7.36669e-05
7.41001e-05
7.44453e-05
7.4471e-05
7.42874e-05
7.40815e-05
7.3974e-05
7.40043e-05
7.39187e-05
7.4513e-05
7.71335e-05
7.02474e-05
6.7885e-05
6.74565e-05
6.74188e-05
6.74949e-05
6.75429e-05
6.73812e-05
6.72241e-05
6.68021e-05
6.61499e-05
6.54696e-05
6.47937e-05
6.40591e-05
6.33544e-05
6.28607e-05
6.28984e-05
6.34467e-05
6.40886e-05
6.47994e-05
6.5529e-05
6.62646e-05
6.69614e-05
6.72958e-05
6.74499e-05
6.75457e-05
6.76131e-05
6.76517e-05
6.75852e-05
6.80952e-05
7.05471e-05
6.44991e-05
6.21195e-05
6.16882e-05
6.16613e-05
6.16742e-05
6.15496e-05
6.13239e-05
6.08996e-05
6.02348e-05
5.94821e-05
5.86671e-05
5.77977e-05
5.68802e-05
5.6114e-05
5.56266e-05
5.56988e-05
5.61908e-05
5.68958e-05
5.78054e-05
5.87699e-05
5.96849e-05
6.04549e-05
6.0975e-05
6.13544e-05
6.16369e-05
6.17874e-05
6.17817e-05
6.17774e-05
6.22518e-05
6.45249e-05
5.90861e-05
5.70069e-05
5.65991e-05
5.65339e-05
5.63658e-05
5.61707e-05
5.58515e-05
5.5233e-05
5.44749e-05
5.36342e-05
5.2739e-05
5.18086e-05
5.08859e-05
5.01279e-05
4.9644e-05
4.96792e-05
5.01461e-05
5.08851e-05
5.1849e-05
5.28789e-05
5.38784e-05
5.47477e-05
5.54119e-05
5.59001e-05
5.62222e-05
5.64081e-05
5.64824e-05
5.65936e-05
5.70712e-05
5.91878e-05
5.44647e-05
5.2438e-05
5.21098e-05
5.20014e-05
5.18068e-05
5.1591e-05
5.1064e-05
5.03518e-05
4.96062e-05
4.87623e-05
4.78256e-05
4.68489e-05
4.59098e-05
4.51422e-05
4.4658e-05
4.4666e-05
4.51231e-05
4.58877e-05
4.68759e-05
4.79282e-05
4.89555e-05
4.98521e-05
5.05459e-05
5.1061e-05
5.14534e-05
5.17355e-05
5.19236e-05
5.21085e-05
5.25591e-05
5.45108e-05
5.01424e-05
4.84248e-05
4.82161e-05
4.80396e-05
4.78232e-05
4.74544e-05
4.68657e-05
4.62743e-05
4.56074e-05
4.47659e-05
4.38024e-05
4.28011e-05
4.18731e-05
4.11325e-05
4.06739e-05
4.06666e-05
4.10975e-05
4.18377e-05
4.27879e-05
4.37931e-05
4.47697e-05
4.56487e-05
4.63712e-05
4.69335e-05
4.73798e-05
4.77321e-05
4.79961e-05
4.821e-05
4.86114e-05
5.03541e-05
4.64308e-05
4.51247e-05
4.48121e-05
4.45389e-05
4.42309e-05
4.37814e-05
4.32987e-05
4.27825e-05
4.2105e-05
4.12577e-05
4.03246e-05
3.9372e-05
3.84914e-05
3.77674e-05
3.73005e-05
3.726e-05
3.76712e-05
3.84083e-05
3.93451e-05
4.03305e-05
4.12738e-05
4.21184e-05
4.28269e-05
4.34012e-05
4.38839e-05
4.42822e-05
4.45835e-05
4.48025e-05
4.51599e-05
4.66688e-05
4.33995e-05
4.22033e-05
4.17792e-05
4.14752e-05
4.11377e-05
4.07632e-05
4.03425e-05
3.97921e-05
3.91075e-05
3.83181e-05
3.74728e-05
3.65936e-05
3.57531e-05
3.50452e-05
3.45906e-05
3.45624e-05
3.49824e-05
3.57104e-05
3.66009e-05
3.75118e-05
3.83694e-05
3.91522e-05
3.98439e-05
4.04331e-05
4.09212e-05
4.13076e-05
4.15962e-05
4.18107e-05
4.21302e-05
4.34152e-05
4.05943e-05
3.94949e-05
3.91238e-05
3.88791e-05
3.86267e-05
3.83119e-05
3.78496e-05
3.72889e-05
3.66679e-05
3.59609e-05
3.51814e-05
3.43549e-05
3.35651e-05
3.29125e-05
3.25092e-05
3.25045e-05
3.29033e-05
3.35693e-05
3.43691e-05
3.51896e-05
3.59741e-05
3.67062e-05
3.73642e-05
3.79258e-05
3.83791e-05
3.8733e-05
3.90022e-05
3.92048e-05
3.94844e-05
4.05734e-05
3.81728e-05
3.71654e-05
3.69116e-05
3.67431e-05
3.6522e-05
3.61785e-05
3.57285e-05
3.52553e-05
3.47101e-05
3.40509e-05
3.33054e-05
3.253e-05
3.18118e-05
3.12337e-05
3.08858e-05
3.08973e-05
3.12644e-05
3.18577e-05
3.25621e-05
3.3292e-05
3.40069e-05
3.46843e-05
3.52951e-05
3.58131e-05
3.62258e-05
3.6544e-05
3.67855e-05
3.6969e-05
3.72104e-05
3.81285e-05
3.60031e-05
3.51595e-05
3.49956e-05
3.48507e-05
3.46311e-05
3.43227e-05
3.39813e-05
3.35865e-05
3.30719e-05
3.24501e-05
3.17696e-05
3.10912e-05
3.0474e-05
2.99683e-05
2.96508e-05
2.96501e-05
2.99679e-05
3.0487e-05
3.11093e-05
3.17645e-05
3.24162e-05
3.30335e-05
3.35845e-05
3.4043e-05
3.44047e-05
3.46841e-05
3.48998e-05
3.50675e-05
3.52753e-05
3.6034e-05
3.4089e-05
3.35077e-05
3.33512e-05
3.32075e-05
3.30351e-05
3.28136e-05
3.25385e-05
3.21504e-05
3.16578e-05
3.11033e-05
3.0526e-05
2.99626e-05
2.94301e-05
2.89623e-05
2.86536e-05
2.86412e-05
2.89293e-05
2.94021e-05
2.99612e-05
3.05427e-05
3.11141e-05
3.16493e-05
3.21249e-05
3.25238e-05
3.28451e-05
3.30992e-05
3.32964e-05
3.34474e-05
3.36225e-05
3.42386e-05
3.26464e-05
3.21744e-05
3.19964e-05
3.18907e-05
3.17537e-05
3.15586e-05
3.12785e-05
3.09015e-05
3.04732e-05
3.0014e-05
2.95432e-05
2.90683e-05
2.85878e-05
2.81476e-05
2.78635e-05
2.78607e-05
2.81277e-05
2.85506e-05
2.90368e-05
2.95352e-05
3.00214e-05
3.04795e-05
3.08903e-05
3.1243e-05
3.15355e-05
3.17684e-05
3.19448e-05
3.20747e-05
3.22188e-05
3.27136e-05
3.14281e-05
3.09731e-05
3.08694e-05
3.0792e-05
3.06412e-05
3.04436e-05
3.01808e-05
2.98705e-05
2.9531e-05
2.91602e-05
2.87659e-05
2.83428e-05
2.79009e-05
2.75065e-05
2.72657e-05
2.72706e-05
2.75025e-05
2.78626e-05
2.82786e-05
2.87121e-05
2.91387e-05
2.95397e-05
2.99001e-05
3.02124e-05
3.04718e-05
3.06739e-05
3.08205e-05
3.09244e-05
3.10382e-05
3.1429e-05
3.02732e-05
2.99883e-05
2.99552e-05
2.98442e-05
2.96934e-05
2.95261e-05
2.93162e-05
2.90716e-05
2.87855e-05
2.84633e-05
2.81114e-05
2.77263e-05
2.73381e-05
2.70148e-05
2.68228e-05
2.68215e-05
2.7006e-05
2.73103e-05
2.7677e-05
2.80683e-05
2.84533e-05
2.88089e-05
2.91225e-05
2.9387e-05
2.95992e-05
2.97595e-05
2.98736e-05
2.99553e-05
3.00465e-05
3.03533e-05
2.94109e-05
2.93158e-05
2.92119e-05
2.90751e-05
2.89617e-05
2.88295e-05
2.86546e-05
2.84346e-05
2.81724e-05
2.78872e-05
2.75791e-05
2.72505e-05
2.69382e-05
2.66837e-05
2.65225e-05
2.65059e-05
2.66472e-05
2.69043e-05
2.7228e-05
2.75741e-05
2.79088e-05
2.82105e-05
2.84685e-05
2.86797e-05
2.88465e-05
2.89752e-05
2.90728e-05
2.91483e-05
2.9229e-05
2.94677e-05
2.88306e-05
2.86915e-05
2.8527e-05
2.84396e-05
2.83656e-05
2.82496e-05
2.80907e-05
2.78913e-05
2.76704e-05
2.74391e-05
2.71874e-05
2.69235e-05
2.66743e-05
2.64598e-05
2.63098e-05
2.62819e-05
2.63965e-05
2.66123e-05
2.68824e-05
2.71653e-05
2.74344e-05
2.76768e-05
2.78884e-05
2.80678e-05
2.82163e-05
2.83359e-05
2.84305e-05
2.85043e-05
2.85723e-05
2.87452e-05
2.82333e-05
2.7993e-05
2.79302e-05
2.79125e-05
2.7853e-05
2.77433e-05
2.75999e-05
2.74378e-05
2.72713e-05
2.7089e-05
2.68789e-05
2.66564e-05
2.64423e-05
2.62512e-05
2.61144e-05
2.60924e-05
2.61954e-05
2.63764e-05
2.65927e-05
2.68143e-05
2.70282e-05
2.72325e-05
2.7424e-05
2.75937e-05
2.7735e-05
2.78459e-05
2.79302e-05
2.79893e-05
2.80307e-05
2.81386e-05
2.76047e-05
2.74816e-05
2.75291e-05
2.75184e-05
2.7447e-05
2.73377e-05
2.7213e-05
2.709e-05
2.69612e-05
2.68021e-05
2.66122e-05
2.64142e-05
2.62259e-05
2.60604e-05
2.59477e-05
2.59412e-05
2.60415e-05
2.61958e-05
2.63706e-05
2.65503e-05
2.6732e-05
2.69146e-05
2.70876e-05
2.72374e-05