/*--------------------------------*- C++ -*----------------------------------*\
| =========                 |                                                 |
| \\      /  F ield         | OpenFOAM: The Open Source CFD Toolbox           |
|  \\    /   O peration     | Version:  2312                                  |
|   \\  /    A nd           | Website:  www.openfoam.com                      |
|    \\/     M anipulation  |                                                 |
\*---------------------------------------------------------------------------*/
FoamFile
{
    version     2.0;
    format      ascii;
    arch        "LSB;label=32;scalar=64";
    class       volScalarField;
    location    "0.912455";
    object      nut;
}
// * * * * * * * * * * * * * * * * * * * * * * * * * * * * * * * * * * * * * //

dimensions      [0 2 -1 0 0 0 0];

internalField   nonuniform List<scalar> 
90000
(
5.53103e-06
5.53168e-06
5.53177e-06
5.53181e-06
5.53182e-06
5.53178e-06
5.5317e-06
5.5316e-06
5.5315e-06
5.53142e-06
5.53138e-06
5.53137e-06
5.53137e-06
5.53137e-06
5.53139e-06
5.53144e-06
5.53154e-06
5.53165e-06
5.53173e-06
5.53173e-06
5.53164e-06
5.53149e-06
5.53148e-06
5.53169e-06
5.53188e-06
5.53197e-06
5.53192e-06
5.53176e-06
5.53167e-06
5.5318e-06
5.53169e-06
5.5401e-06
5.54065e-06
5.54061e-06
5.54053e-06
5.54045e-06
5.54038e-06
5.54032e-06
5.54026e-06
5.54018e-06
5.54013e-06
5.54014e-06
5.54016e-06
5.5402e-06
5.54025e-06
5.5403e-06
5.54034e-06
5.54035e-06
5.54033e-06
5.5403e-06
5.54031e-06
5.54034e-06
5.54035e-06
5.54031e-06
5.54019e-06
5.54003e-06
5.54008e-06
5.5403e-06
5.5399e-06
5.53283e-06
5.53174e-06
5.54061e-06
5.54118e-06
5.54114e-06
5.54107e-06
5.54102e-06
5.54099e-06
5.54098e-06
5.54096e-06
5.54093e-06
5.54088e-06
5.5409e-06
5.54095e-06
5.54102e-06
5.54106e-06
5.54106e-06
5.54101e-06
5.54096e-06
5.54101e-06
5.54111e-06
5.54118e-06
5.5412e-06
5.5412e-06
5.54121e-06
5.54124e-06
5.54132e-06
5.54139e-06
5.54149e-06
5.54117e-06
5.53266e-06
5.5317e-06
5.54047e-06
5.54111e-06
5.54112e-06
5.54109e-06
5.54105e-06
5.54103e-06
5.54103e-06
5.54103e-06
5.54103e-06
5.54102e-06
5.54103e-06
5.54107e-06
5.54111e-06
5.54112e-06
5.54108e-06
5.54106e-06
5.54113e-06
5.54122e-06
5.54127e-06
5.54127e-06
5.54126e-06
5.54135e-06
5.54152e-06
5.54169e-06
5.54179e-06
5.54183e-06
5.54176e-06
5.54121e-06
5.53217e-06
5.53159e-06
5.5403e-06
5.54104e-06
5.54111e-06
5.54113e-06
5.54112e-06
5.54109e-06
5.54106e-06
5.54106e-06
5.54108e-06
5.5411e-06
5.54111e-06
5.54111e-06
5.54109e-06
5.54106e-06
5.54109e-06
5.54116e-06
5.54121e-06
5.54122e-06
5.5412e-06
5.54117e-06
5.54124e-06
5.54141e-06
5.54161e-06
5.54174e-06
5.54177e-06
5.5417e-06
5.54147e-06
5.54092e-06
5.532e-06
5.53152e-06
5.5403e-06
5.54104e-06
5.54112e-06
5.54117e-06
5.54119e-06
5.5412e-06
5.54118e-06
5.54114e-06
5.54111e-06
5.54112e-06
5.54116e-06
5.54121e-06
5.54122e-06
5.5412e-06
5.54117e-06
5.54115e-06
5.54112e-06
5.54108e-06
5.54105e-06
5.5411e-06
5.54122e-06
5.54134e-06
5.54143e-06
5.54146e-06
5.54146e-06
5.54152e-06
5.54165e-06
5.54121e-06
5.53204e-06
5.53151e-06
5.54043e-06
5.5411e-06
5.54116e-06
5.54121e-06
5.54127e-06
5.54131e-06
5.54131e-06
5.54127e-06
5.54117e-06
5.54112e-06
5.54116e-06
5.54124e-06
5.54128e-06
5.54125e-06
5.54114e-06
5.54101e-06
5.54091e-06
5.54092e-06
5.54101e-06
5.54112e-06
5.54119e-06
5.5412e-06
5.54114e-06
5.54118e-06
5.5414e-06
5.54167e-06
5.54184e-06
5.54128e-06
5.53197e-06
5.53155e-06
5.5406e-06
5.5412e-06
5.54124e-06
5.54129e-06
5.54136e-06
5.54142e-06
5.54144e-06
5.5414e-06
5.5413e-06
5.54119e-06
5.54116e-06
5.5412e-06
5.54121e-06
5.54117e-06
5.54106e-06
5.54093e-06
5.54083e-06
5.54091e-06
5.54104e-06
5.54113e-06
5.54114e-06
5.54107e-06
5.54108e-06
5.54126e-06
5.54149e-06
5.54169e-06
5.54175e-06
5.54105e-06
5.53187e-06
5.53164e-06
5.54078e-06
5.54133e-06
5.54134e-06
5.54136e-06
5.54142e-06
5.54148e-06
5.54153e-06
5.54152e-06
5.54146e-06
5.54135e-06
5.54123e-06
5.54113e-06
5.54108e-06
5.54107e-06
5.54107e-06
5.54109e-06
5.54113e-06
5.54118e-06
5.54123e-06
5.54124e-06
5.5412e-06
5.54115e-06
5.5412e-06
5.54135e-06
5.54151e-06
5.54162e-06
5.5416e-06
5.54088e-06
5.53187e-06
5.53184e-06
5.54086e-06
5.54137e-06
5.54135e-06
5.54134e-06
5.54136e-06
5.54141e-06
5.54148e-06
5.54154e-06
5.54155e-06
5.54149e-06
5.54136e-06
5.54116e-06
5.541e-06
5.54103e-06
5.5412e-06
5.54138e-06
5.54152e-06
5.54161e-06
5.54162e-06
5.54155e-06
5.54143e-06
5.54131e-06
5.54127e-06
5.54134e-06
5.54145e-06
5.54152e-06
5.5415e-06
5.54083e-06
5.53199e-06
5.53205e-06
5.54084e-06
5.54133e-06
5.54132e-06
5.54127e-06
5.54123e-06
5.54123e-06
5.54131e-06
5.54143e-06
5.54152e-06
5.54154e-06
5.54146e-06
5.5413e-06
5.54112e-06
5.54108e-06
5.54131e-06
5.54158e-06
5.54181e-06
5.54195e-06
5.54196e-06
5.54184e-06
5.54164e-06
5.54143e-06
5.54129e-06
5.5413e-06
5.5414e-06
5.5415e-06
5.54154e-06
5.54094e-06
5.53216e-06
5.53211e-06
5.54087e-06
5.54141e-06
5.54143e-06
5.54143e-06
5.54141e-06
5.54138e-06
5.54137e-06
5.54139e-06
5.54144e-06
5.54148e-06
5.54148e-06
5.54142e-06
5.54129e-06
5.54114e-06
5.54133e-06
5.54164e-06
5.5419e-06
5.54203e-06
5.542e-06
5.54185e-06
5.54164e-06
5.54145e-06
5.54131e-06
5.54133e-06
5.54145e-06
5.54157e-06
5.54165e-06
5.54109e-06
5.53225e-06
5.53213e-06
5.54102e-06
5.54162e-06
5.54171e-06
5.54182e-06
5.54192e-06
5.54196e-06
5.54192e-06
5.54178e-06
5.54156e-06
5.54143e-06
5.54148e-06
5.54153e-06
5.54152e-06
5.54149e-06
5.54152e-06
5.54162e-06
5.54169e-06
5.54169e-06
5.54163e-06
5.54155e-06
5.54148e-06
5.54142e-06
5.54138e-06
5.54143e-06
5.54152e-06
5.54162e-06
5.54168e-06
5.54108e-06
5.53224e-06
5.53252e-06
5.54113e-06
5.54186e-06
5.54205e-06
5.54226e-06
5.54241e-06
5.54246e-06
5.54234e-06
5.54206e-06
5.5417e-06
5.54139e-06
5.54139e-06
5.54154e-06
5.54168e-06
5.54175e-06
5.54174e-06
5.54162e-06
5.5414e-06
5.54118e-06
5.54114e-06
5.54126e-06
5.54139e-06
5.54148e-06
5.54153e-06
5.54154e-06
5.54158e-06
5.54164e-06
5.54167e-06
5.54102e-06
5.53226e-06
5.53305e-06
5.54119e-06
5.54215e-06
5.5424e-06
5.5426e-06
5.54267e-06
5.54258e-06
5.54234e-06
5.542e-06
5.54164e-06
5.54131e-06
5.54125e-06
5.54146e-06
5.54169e-06
5.54182e-06
5.5418e-06
5.54163e-06
5.54135e-06
5.54112e-06
5.5411e-06
5.54129e-06
5.5415e-06
5.54165e-06
5.54172e-06
5.54171e-06
5.54172e-06
5.54176e-06
5.54178e-06
5.54117e-06
5.53255e-06
5.53335e-06
5.54178e-06
5.54257e-06
5.5427e-06
5.5427e-06
5.54256e-06
5.54231e-06
5.54204e-06
5.54182e-06
5.54161e-06
5.54137e-06
5.54124e-06
5.54143e-06
5.54166e-06
5.54179e-06
5.54178e-06
5.54167e-06
5.54152e-06
5.54139e-06
5.54136e-06
5.54149e-06
5.54168e-06
5.54185e-06
5.54193e-06
5.54195e-06
5.54198e-06
5.54207e-06
5.54218e-06
5.54175e-06
5.53302e-06
5.53338e-06
5.54254e-06
5.54297e-06
5.54286e-06
5.5426e-06
5.54229e-06
5.54203e-06
5.54191e-06
5.54188e-06
5.54177e-06
5.54157e-06
5.54142e-06
5.54151e-06
5.54166e-06
5.54174e-06
5.54175e-06
5.54173e-06
5.54169e-06
5.54163e-06
5.54163e-06
5.54172e-06
5.54186e-06
5.54201e-06
5.54211e-06
5.5422e-06
5.54232e-06
5.54249e-06
5.54267e-06
5.54218e-06
5.53327e-06
5.53338e-06
5.54302e-06
5.54326e-06
5.54304e-06
5.54276e-06
5.54247e-06
5.54225e-06
5.54218e-06
5.5421e-06
5.54194e-06
5.54175e-06
5.54161e-06
5.54159e-06
5.5416e-06
5.54161e-06
5.54165e-06
5.54172e-06
5.54178e-06
5.54182e-06
5.54186e-06
5.54194e-06
5.54203e-06
5.54215e-06
5.5423e-06
5.54247e-06
5.54267e-06
5.54285e-06
5.54295e-06
5.54228e-06
5.53333e-06
5.53376e-06
5.54322e-06
5.54353e-06
5.54335e-06
5.54311e-06
5.54291e-06
5.54274e-06
5.54257e-06
5.54235e-06
5.54208e-06
5.54187e-06
5.54169e-06
5.54155e-06
5.54145e-06
5.5414e-06
5.54145e-06
5.5416e-06
5.54176e-06
5.54189e-06
5.54199e-06
5.54206e-06
5.54216e-06
5.54231e-06
5.54258e-06
5.54286e-06
5.54305e-06
5.54313e-06
5.5431e-06
5.54236e-06
5.53349e-06
5.53425e-06
5.54333e-06
5.54378e-06
5.54364e-06
5.54348e-06
5.54333e-06
5.54318e-06
5.54298e-06
5.54271e-06
5.5424e-06
5.54209e-06
5.5418e-06
5.54154e-06
5.54132e-06
5.54119e-06
5.54127e-06
5.54151e-06
5.54175e-06
5.54194e-06
5.54208e-06
5.54221e-06
5.54242e-06
5.54274e-06
5.54308e-06
5.54331e-06
5.5434e-06
5.54342e-06
5.54338e-06
5.54269e-06
5.53392e-06
5.53475e-06
5.54351e-06
5.54407e-06
5.544e-06
5.54391e-06
5.54382e-06
5.54368e-06
5.54344e-06
5.54313e-06
5.54278e-06
5.54239e-06
5.54199e-06
5.54163e-06
5.54136e-06
5.54125e-06
5.54137e-06
5.54163e-06
5.5419e-06
5.54213e-06
5.54237e-06
5.54265e-06
5.543e-06
5.54335e-06
5.54359e-06
5.54368e-06
5.54373e-06
5.54379e-06
5.54381e-06
5.54318e-06
5.53454e-06
5.53531e-06
5.5439e-06
5.54455e-06
5.54455e-06
5.54451e-06
5.54441e-06
5.54422e-06
5.54392e-06
5.54355e-06
5.54312e-06
5.54265e-06
5.5422e-06
5.54185e-06
5.54161e-06
5.54151e-06
5.5416e-06
5.54184e-06
5.54215e-06
5.5425e-06
5.54288e-06
5.54329e-06
5.54366e-06
5.5439e-06
5.54401e-06
5.54409e-06
5.54421e-06
5.54433e-06
5.54437e-06
5.54379e-06
5.53522e-06
5.53602e-06
5.54459e-06
5.54529e-06
5.54532e-06
5.54526e-06
5.54507e-06
5.54476e-06
5.54437e-06
5.54393e-06
5.54345e-06
5.54297e-06
5.54255e-06
5.54217e-06
5.54185e-06
5.54166e-06
5.54173e-06
5.54204e-06
5.54247e-06
5.54296e-06
5.54347e-06
5.54391e-06
5.54421e-06
5.54439e-06
5.54454e-06
5.54473e-06
5.54495e-06
5.54508e-06
5.5451e-06
5.54455e-06
5.53601e-06
5.53698e-06
5.54556e-06
5.54627e-06
5.54626e-06
5.54609e-06
5.54578e-06
5.54537e-06
5.54491e-06
5.54441e-06
5.54392e-06
5.54345e-06
5.54297e-06
5.54251e-06
5.54207e-06
5.54178e-06
5.54185e-06
5.54227e-06
5.54284e-06
5.54344e-06
5.54398e-06
5.5444e-06
5.5447e-06
5.54498e-06
5.54532e-06
5.54568e-06
5.54596e-06
5.54609e-06
5.54615e-06
5.54559e-06
5.53711e-06
5.53823e-06
5.54688e-06
5.54751e-06
5.54739e-06
5.54709e-06
5.54669e-06
5.54622e-06
5.54571e-06
5.54516e-06
5.54463e-06
5.54407e-06
5.5435e-06
5.54291e-06
5.54236e-06
5.54199e-06
5.54205e-06
5.54256e-06
5.54322e-06
5.54385e-06
5.5444e-06
5.54486e-06
5.54532e-06
5.54581e-06
5.54634e-06
5.54681e-06
5.54714e-06
5.54736e-06
5.54756e-06
5.54716e-06
5.53862e-06
5.53997e-06
5.54857e-06
5.54907e-06
5.54882e-06
5.54844e-06
5.54798e-06
5.54746e-06
5.54686e-06
5.54623e-06
5.54559e-06
5.54491e-06
5.5442e-06
5.54348e-06
5.54283e-06
5.54235e-06
5.5424e-06
5.54295e-06
5.54364e-06
5.54432e-06
5.54497e-06
5.54563e-06
5.54626e-06
5.54691e-06
5.54753e-06
5.54804e-06
5.54847e-06
5.54887e-06
5.54929e-06
5.549e-06
5.54021e-06
5.54219e-06
5.55058e-06
5.551e-06
5.55065e-06
5.55019e-06
5.54965e-06
5.54902e-06
5.54826e-06
5.54753e-06
5.54675e-06
5.54592e-06
5.54508e-06
5.54426e-06
5.54351e-06
5.5429e-06
5.54288e-06
5.54346e-06
5.54423e-06
5.54507e-06
5.54595e-06
5.54677e-06
5.54755e-06
5.54829e-06
5.54895e-06
5.54954e-06
5.55014e-06
5.55072e-06
5.55119e-06
5.55075e-06
5.54201e-06
5.54476e-06
5.55291e-06
5.55327e-06
5.55284e-06
5.55228e-06
5.55162e-06
5.55083e-06
5.54994e-06
5.54905e-06
5.54813e-06
5.54718e-06
5.54623e-06
5.54529e-06
5.54434e-06
5.54357e-06
5.54352e-06
5.54416e-06
5.5451e-06
5.54617e-06
5.54722e-06
5.54827e-06
5.54921e-06
5.55e-06
5.55078e-06
5.55153e-06
5.55231e-06
5.55299e-06
5.55326e-06
5.55273e-06
5.54438e-06
5.54765e-06
5.5556e-06
5.55589e-06
5.55537e-06
5.55471e-06
5.55392e-06
5.553e-06
5.552e-06
5.55098e-06
5.54993e-06
5.54883e-06
5.54769e-06
5.54648e-06
5.54531e-06
5.54442e-06
5.54436e-06
5.54513e-06
5.5463e-06
5.54763e-06
5.54892e-06
5.5501e-06
5.5512e-06
5.55217e-06
5.55316e-06
5.55408e-06
5.555e-06
5.55567e-06
5.55578e-06
5.55544e-06
5.54741e-06
5.55096e-06
5.55876e-06
5.559e-06
5.55842e-06
5.55767e-06
5.55676e-06
5.55574e-06
5.55465e-06
5.55349e-06
5.55223e-06
5.55088e-06
5.54943e-06
5.54792e-06
5.54652e-06
5.54549e-06
5.54545e-06
5.5464e-06
5.54783e-06
5.54941e-06
5.5509e-06
5.55224e-06
5.55363e-06
5.55489e-06
5.55606e-06
5.55709e-06
5.55807e-06
5.55877e-06
5.55908e-06
5.559e-06
5.55099e-06
5.5549e-06
5.56265e-06
5.56284e-06
5.56222e-06
5.56137e-06
5.56035e-06
5.55919e-06
5.55794e-06
5.55657e-06
5.55504e-06
5.55337e-06
5.55157e-06
5.54976e-06
5.5481e-06
5.54694e-06
5.54694e-06
5.54813e-06
5.54979e-06
5.55161e-06
5.55339e-06
5.555e-06
5.55668e-06
5.55814e-06
5.55944e-06
5.56056e-06
5.56155e-06
5.5625e-06
5.56324e-06
5.56318e-06
5.55521e-06
5.55974e-06
5.56749e-06
5.56763e-06
5.56692e-06
5.56592e-06
5.56471e-06
5.56335e-06
5.56188e-06
5.56027e-06
5.55845e-06
5.55644e-06
5.55429e-06
5.55215e-06
5.55021e-06
5.54889e-06
5.54895e-06
5.55037e-06
5.55226e-06
5.55432e-06
5.55648e-06
5.55843e-06
5.56032e-06
5.5619e-06
5.56341e-06
5.56471e-06
5.56581e-06
5.56713e-06
5.56817e-06
5.56802e-06
5.56024e-06
5.5657e-06
5.57344e-06
5.57346e-06
5.5726e-06
5.57137e-06
5.5699e-06
5.5683e-06
5.56661e-06
5.56474e-06
5.5626e-06
5.56021e-06
5.55767e-06
5.55515e-06
5.55294e-06
5.55144e-06
5.5515e-06
5.55313e-06
5.55527e-06
5.5576e-06
5.56018e-06
5.56246e-06
5.56459e-06
5.5664e-06
5.56827e-06
5.56985e-06
5.57118e-06
5.57277e-06
5.57385e-06
5.57374e-06
5.56618e-06
5.57294e-06
5.58063e-06
5.58049e-06
5.57943e-06
5.57795e-06
5.57621e-06
5.57435e-06
5.57235e-06
5.57012e-06
5.56758e-06
5.56477e-06
5.56183e-06
5.55897e-06
5.55648e-06
5.55479e-06
5.55477e-06
5.55653e-06
5.55902e-06
5.56171e-06
5.56468e-06
5.5673e-06
5.56984e-06
5.57205e-06
5.57423e-06
5.57609e-06
5.57776e-06
5.57948e-06
5.58059e-06
5.5806e-06
5.57329e-06
5.5817e-06
5.58927e-06
5.58895e-06
5.58765e-06
5.58589e-06
5.58385e-06
5.58165e-06
5.57924e-06
5.57658e-06
5.57363e-06
5.57045e-06
5.56716e-06
5.56392e-06
5.56107e-06
5.55913e-06
5.559e-06
5.56094e-06
5.56387e-06
5.56699e-06
5.57037e-06
5.57337e-06
5.57645e-06
5.57903e-06
5.58145e-06
5.58372e-06
5.58577e-06
5.58756e-06
5.58875e-06
5.58895e-06
5.58191e-06
5.59225e-06
5.59956e-06
5.59898e-06
5.59739e-06
5.59536e-06
5.59304e-06
5.59048e-06
5.58766e-06
5.5846e-06
5.58128e-06
5.57771e-06
5.57398e-06
5.57025e-06
5.5669e-06
5.56471e-06
5.56461e-06
5.56689e-06
5.57027e-06
5.57378e-06
5.57759e-06
5.58103e-06
5.58465e-06
5.58757e-06
5.5904e-06
5.59322e-06
5.59551e-06
5.59734e-06
5.59864e-06
5.59908e-06
5.59225e-06
5.60486e-06
5.6117e-06
5.61083e-06
5.60905e-06
5.60687e-06
5.60434e-06
5.60145e-06
5.59823e-06
5.59475e-06
5.59099e-06
5.58688e-06
5.58261e-06
5.57837e-06
5.57458e-06
5.57219e-06
5.57216e-06
5.57479e-06
5.57851e-06
5.58239e-06
5.58679e-06
5.59081e-06
5.59483e-06
5.59814e-06
5.60153e-06
5.60471e-06
5.60713e-06
5.60909e-06
5.6107e-06
5.61147e-06
5.60486e-06
5.61982e-06
5.62625e-06
5.62532e-06
5.62351e-06
5.62113e-06
5.61823e-06
5.61488e-06
5.61118e-06
5.60724e-06
5.60299e-06
5.59833e-06
5.59354e-06
5.58896e-06
5.58479e-06
5.58216e-06
5.58198e-06
5.5848e-06
5.58894e-06
5.59333e-06
5.59843e-06
5.60296e-06
5.60725e-06
5.61105e-06
5.61494e-06
5.61833e-06
5.62101e-06
5.62345e-06
5.62545e-06
5.62652e-06
5.62023e-06
5.63772e-06
5.64415e-06
5.64312e-06
5.64104e-06
5.63817e-06
5.63472e-06
5.6309e-06
5.62681e-06
5.6224e-06
5.61767e-06
5.61256e-06
5.60733e-06
5.6024e-06
5.59771e-06
5.59477e-06
5.59449e-06
5.59756e-06
5.60226e-06
5.60729e-06
5.6128e-06
5.61764e-06
5.62223e-06
5.62664e-06
5.63101e-06
5.63473e-06
5.63787e-06
5.64078e-06
5.64304e-06
5.64433e-06
5.63819e-06
5.65943e-06
5.66582e-06
5.66417e-06
5.66151e-06
5.65826e-06
5.65454e-06
5.65042e-06
5.64593e-06
5.64102e-06
5.63585e-06
5.6304e-06
5.62471e-06
5.61941e-06
5.61416e-06
5.61095e-06
5.61082e-06
5.61422e-06
5.6193e-06
5.62473e-06
5.63039e-06
5.63562e-06
5.64081e-06
5.64582e-06
5.65055e-06
5.65469e-06
5.65823e-06
5.66144e-06
5.66408e-06
5.66564e-06
5.65944e-06
5.68526e-06
5.6912e-06
5.689e-06
5.68624e-06
5.68294e-06
5.67893e-06
5.67429e-06
5.66938e-06
5.66416e-06
5.65868e-06
5.653e-06
5.64684e-06
5.64121e-06
5.63567e-06
5.63205e-06
5.632e-06
5.63558e-06
5.64096e-06
5.64675e-06
5.65267e-06
5.65846e-06
5.66408e-06
5.6693e-06
5.67415e-06
5.67879e-06
5.68289e-06
5.68645e-06
5.68942e-06
5.69131e-06
5.68493e-06
5.71589e-06
5.72193e-06
5.71961e-06
5.71675e-06
5.71291e-06
5.70824e-06
5.70311e-06
5.69801e-06
5.69267e-06
5.68687e-06
5.68104e-06
5.67482e-06
5.66895e-06
5.66329e-06
5.65918e-06
5.6593e-06
5.6631e-06
5.6687e-06
5.6748e-06
5.6809e-06
5.68686e-06
5.69247e-06
5.69787e-06
5.70308e-06
5.70808e-06
5.71277e-06
5.71662e-06
5.71976e-06
5.72242e-06
5.71577e-06
5.75318e-06
5.76019e-06
5.75701e-06
5.75319e-06
5.74858e-06
5.74358e-06
5.73824e-06
5.73285e-06
5.72746e-06
5.72181e-06
5.71633e-06
5.71031e-06
5.70414e-06
5.69863e-06
5.69448e-06
5.69461e-06
5.69857e-06
5.70421e-06
5.71015e-06
5.71619e-06
5.72198e-06
5.72733e-06
5.73289e-06
5.73848e-06
5.74351e-06
5.74866e-06
5.75313e-06
5.75687e-06
5.76032e-06
5.75312e-06
5.79933e-06
5.80726e-06
5.80242e-06
5.79767e-06
5.79255e-06
5.78723e-06
5.78149e-06
5.77592e-06
5.77082e-06
5.76587e-06
5.76097e-06
5.75552e-06
5.75008e-06
5.74534e-06
5.74152e-06
5.74149e-06
5.74509e-06
5.75044e-06
5.75558e-06
5.76076e-06
5.7659e-06
5.77076e-06
5.77587e-06
5.7815e-06
5.78696e-06
5.79251e-06
5.79804e-06
5.80277e-06
5.80679e-06
5.79872e-06
5.85662e-06
5.8671e-06
5.86103e-06
5.85553e-06
5.84869e-06
5.84198e-06
5.83594e-06
5.83063e-06
5.82678e-06
5.82344e-06
5.8217e-06
5.82074e-06
5.82053e-06
5.82087e-06
5.82164e-06
5.82216e-06
5.821e-06
5.82046e-06
5.82072e-06
5.82203e-06
5.82344e-06
5.82678e-06
5.83102e-06
5.83558e-06
5.84155e-06
5.84884e-06
5.85571e-06
5.86123e-06
5.86687e-06
5.85636e-06
5.93703e-06
5.95891e-06
5.95169e-06
5.94753e-06
5.93629e-06
5.92405e-06
5.91806e-06
5.91641e-06
5.91926e-06
5.92699e-06
5.9516e-06
5.98623e-06
6.03252e-06
6.08757e-06
6.13756e-06
6.13797e-06
6.08777e-06
6.03283e-06
5.98621e-06
5.95187e-06
5.92759e-06
5.91927e-06
5.91634e-06
5.91794e-06
5.924e-06
5.93624e-06
5.94756e-06
5.95178e-06
5.9591e-06
5.93758e-06
6.12371e-06
6.17096e-06
6.19187e-06
6.24755e-06
6.17722e-06
6.13507e-06
6.16088e-06
6.17207e-06
6.21919e-06
6.31465e-06
6.53037e-06
6.82058e-06
7.16967e-06
7.54608e-06
7.8593e-06
7.86142e-06
7.54664e-06
7.17003e-06
6.82323e-06
6.53231e-06
6.31592e-06
6.22074e-06
6.17247e-06
6.16143e-06
6.13556e-06
6.17562e-06
6.2469e-06
6.19321e-06
6.1705e-06
6.12428e-06
6.79842e-06
6.73562e-06
7.07192e-06
7.88376e-06
7.03707e-06
6.9252e-06
7.95555e-06
7.4757e-06
7.63996e-06
8.28554e-06
9.19808e-06
1.02514e-05
1.14392e-05
1.25221e-05
1.33368e-05
1.33365e-05
1.25202e-05
1.14379e-05
1.02653e-05
9.20673e-06
8.29615e-06
7.64684e-06
7.47976e-06
7.97486e-06
6.92867e-06
7.03271e-06
7.88011e-06
7.07612e-06
6.73566e-06
6.79632e-06
8.70551e-06
8.06193e-06
9.37757e-06
1.31828e-05
1.02079e-05
9.73078e-06
1.71448e-05
1.33649e-05
1.30344e-05
1.93519e-05
1.77469e-05
1.86427e-05
2.13052e-05
2.26062e-05
2.38528e-05
2.38104e-05
2.2561e-05
2.12536e-05
1.8752e-05
1.77877e-05
1.94155e-05
1.30561e-05
1.33806e-05
1.72393e-05
9.75184e-06
1.02116e-05
1.3182e-05
9.38617e-06
8.06672e-06
8.69728e-06
1.11087e-05
1.16625e-05
1.33104e-05
1.83351e-05
1.50748e-05
2.03674e-05
2.74596e-05
2.15473e-05
2.23929e-05
3.38689e-05
2.95848e-05
3.13253e-05
3.51953e-05
3.50577e-05
3.7085e-05
3.70258e-05
3.48651e-05
3.51479e-05
3.16326e-05
2.97876e-05
3.40129e-05
2.24129e-05
2.15387e-05
2.75911e-05
2.02821e-05
1.5071e-05
1.83314e-05
1.32954e-05
1.17351e-05
1.10865e-05
1.4811e-05
1.93208e-05
2.05423e-05
2.38661e-05
2.60541e-05
3.23781e-05
3.55065e-05
3.11545e-05
3.60262e-05
4.53768e-05
4.06371e-05
5.20435e-05
6.8129e-05
6.51629e-05
6.48079e-05
6.38779e-05
6.46608e-05
6.80731e-05
5.50971e-05
4.12215e-05
4.57537e-05
3.6048e-05
3.11535e-05
3.56413e-05
3.24279e-05
2.60735e-05
2.38079e-05
2.04454e-05
1.94663e-05
1.48278e-05
2.02511e-05
1.96312e-05
2.57694e-05
2.83319e-05
3.43113e-05
4.26095e-05
4.27449e-05
4.61611e-05
5.13821e-05
5.22614e-05
6.55542e-05
4.99488e-05
5.4868e-05
8.54871e-05
5.72936e-05
5.72764e-05
8.44342e-05
5.46072e-05
5.00686e-05
6.35726e-05
5.18549e-05
5.14803e-05
4.67012e-05
4.3252e-05
4.30519e-05
3.47536e-05
2.83982e-05
2.56255e-05
1.96744e-05
2.0077e-05
2.20945e-05
2.33549e-05
2.49969e-05
3.00741e-05
3.42767e-05
3.93039e-05
4.37612e-05
4.44128e-05
4.32315e-05
5.10319e-05
5.27599e-05
5.03085e-05
4.85102e-05
5.42582e-05
5.16274e-05
5.08378e-05
5.61195e-05
4.82628e-05
4.95875e-05
5.21507e-05
5.11715e-05
4.34229e-05
4.45599e-05
4.40181e-05
3.93497e-05
3.41514e-05
3.02004e-05
2.52434e-05
2.28778e-05
2.18579e-05
1.71261e-05
1.83687e-05
2.34286e-05
2.80574e-05
3.09888e-05
3.32044e-05
3.72897e-05
4.01076e-05
4.02139e-05
4.7214e-05
4.58358e-05
4.5535e-05
4.7777e-05
4.67409e-05
4.69893e-05
4.79611e-05
4.69909e-05
4.77377e-05
4.53486e-05
4.57436e-05
4.69961e-05
3.99744e-05
4.02728e-05
3.74407e-05
3.33181e-05
3.10348e-05
2.82601e-05
2.34614e-05
1.83521e-05
1.7254e-05
1.62775e-05
1.76374e-05
2.10074e-05
2.53722e-05
2.75737e-05
2.96619e-05
3.30597e-05
3.47258e-05
3.46094e-05
3.88737e-05
4.22818e-05
3.978e-05
3.97473e-05
4.17763e-05
4.22466e-05
4.24999e-05
4.22105e-05
3.97746e-05
3.99912e-05
4.22659e-05
3.89075e-05
3.47381e-05
3.48002e-05
3.32012e-05
2.9768e-05
2.77204e-05
2.54596e-05
2.10723e-05
1.75899e-05
1.62993e-05
1.53296e-05
1.59367e-05
1.76853e-05
2.02796e-05
2.16204e-05
2.38689e-05
2.76615e-05
2.93801e-05
3.06976e-05
3.36231e-05
3.5552e-05
3.54083e-05
3.59654e-05
3.68957e-05
3.7326e-05
3.73783e-05
3.71055e-05
3.59957e-05
3.55023e-05
3.56665e-05
3.35744e-05
3.0755e-05
2.94757e-05
2.77243e-05
2.39264e-05
2.16794e-05
2.03966e-05
1.78277e-05
1.60137e-05
1.53493e-05
1.41221e-05
1.4356e-05
1.49629e-05
1.5884e-05
1.64947e-05
1.75195e-05
2.02722e-05
2.29973e-05
2.57839e-05
2.94066e-05
3.21897e-05
3.36492e-05
3.45794e-05
3.51719e-05
3.52312e-05
3.5263e-05
3.52624e-05
3.46639e-05
3.36489e-05
3.22401e-05
2.95325e-05
2.58005e-05
2.3048e-05
2.04414e-05
1.76063e-05
1.66184e-05
1.59268e-05
1.50178e-05
1.44083e-05
1.41627e-05
1.3079e-05
1.31132e-05
1.32752e-05
1.35059e-05
1.37537e-05
1.41339e-05
1.50446e-05
1.64908e-05
1.8918e-05
2.3021e-05
2.72704e-05
3.07418e-05
3.30586e-05
3.42136e-05
3.47247e-05
3.47849e-05
3.43139e-05
3.30492e-05
3.07816e-05
2.73864e-05
2.30226e-05
1.90017e-05
1.65137e-05
1.50713e-05
1.41676e-05
1.38261e-05
1.35662e-05
1.32981e-05
1.31649e-05
1.31325e-05
1.22285e-05
1.22266e-05
1.2223e-05
1.22615e-05
1.23628e-05
1.25075e-05
1.2749e-05
1.31925e-05
1.4088e-05
1.6228e-05
2.00619e-05
2.46887e-05
2.86598e-05
3.13514e-05
3.27821e-05
3.27645e-05
3.14187e-05
2.87368e-05
2.47012e-05
2.00758e-05
1.62855e-05
1.41142e-05
1.32064e-05
1.27518e-05
1.25003e-05
1.23814e-05
1.2295e-05
1.22215e-05
1.22619e-05
1.22819e-05
1.15702e-05
1.15206e-05
1.15106e-05
1.15456e-05
1.15424e-05
1.16031e-05
1.16792e-05
1.17915e-05
1.20595e-05
1.2689e-05
1.41348e-05
1.70402e-05
2.10533e-05
2.49087e-05
2.74109e-05
2.73911e-05
2.49269e-05
2.10994e-05
1.70755e-05
1.41322e-05
1.27172e-05
1.20665e-05
1.18178e-05
1.16737e-05
1.15833e-05
1.15454e-05
1.15297e-05
1.15344e-05
1.15494e-05
1.15872e-05
1.10186e-05
1.0976e-05
1.09162e-05
1.09377e-05
1.09382e-05
1.09422e-05
1.10049e-05
1.10621e-05
1.11306e-05
1.12739e-05
1.16076e-05
1.24473e-05
1.40867e-05
1.64977e-05
1.87275e-05
1.87271e-05
1.64956e-05
1.40966e-05
1.24694e-05
1.16351e-05
1.12972e-05
1.11331e-05
1.10564e-05
1.10126e-05
1.09806e-05
1.09604e-05
1.09236e-05
1.0941e-05
1.09567e-05
1.10259e-05
1.05096e-05
1.04325e-05
1.0391e-05
1.03869e-05
1.0414e-05
1.04332e-05
1.04884e-05
1.04891e-05
1.0499e-05
1.05331e-05
1.06042e-05
1.07705e-05
1.10933e-05
1.16695e-05
1.23834e-05
1.2395e-05
1.16877e-05
1.10986e-05
1.07522e-05
1.06131e-05
1.05466e-05
1.05081e-05
1.04849e-05
1.04673e-05
1.04496e-05
1.042e-05
1.03923e-05
1.04142e-05
1.04499e-05
1.05396e-05
1.00731e-05
9.92449e-06
9.90999e-06
9.9334e-06
9.92949e-06
9.93876e-06
9.96151e-06
9.94483e-06
9.94602e-06
9.94405e-06
9.93744e-06
9.93915e-06
9.97006e-06
1.00468e-05
1.01504e-05
1.01486e-05
1.00496e-05
9.97663e-06
9.93455e-06
9.94106e-06
9.94723e-06
9.95997e-06
9.97055e-06
9.95565e-06
9.92825e-06
9.91164e-06
9.92113e-06
9.93211e-06
9.97203e-06
1.00789e-05
9.62153e-06
9.49008e-06
9.47411e-06
9.46574e-06
9.45585e-06
9.46335e-06
9.45911e-06
9.44325e-06
9.42638e-06
9.39645e-06
9.36215e-06
9.32564e-06
9.29112e-06
9.26379e-06
9.25298e-06
9.25276e-06
9.26371e-06
9.28828e-06
9.32172e-06
9.37037e-06
9.41615e-06
9.4478e-06
9.45732e-06
9.46008e-06
9.45809e-06
9.45765e-06
9.47164e-06
9.47412e-06
9.51999e-06
9.64387e-06
9.21084e-06
9.08434e-06
9.04233e-06
9.02547e-06
9.02626e-06
9.03075e-06
9.0135e-06
8.98758e-06
8.94688e-06
8.90167e-06
8.85596e-06
8.80131e-06
8.74203e-06
8.68803e-06
8.65661e-06
8.66366e-06
8.69672e-06
8.74198e-06
8.79203e-06
8.85012e-06
8.91163e-06
8.96385e-06
8.9928e-06
9.01174e-06
9.02486e-06
9.03532e-06
9.04731e-06
9.04954e-06
9.09292e-06
9.22402e-06
8.82615e-06
8.67335e-06
8.63486e-06
8.63522e-06
8.63279e-06
8.61705e-06
8.59332e-06
8.55491e-06
8.50456e-06
8.45365e-06
8.39401e-06
8.32556e-06
8.258e-06
8.20488e-06
8.1753e-06
8.18128e-06
8.21022e-06
8.25848e-06
8.32434e-06
8.39667e-06
8.46547e-06
8.52045e-06
8.56183e-06
8.5976e-06
8.6231e-06
8.63719e-06
8.64157e-06
8.64674e-06
8.68875e-06
8.82365e-06
8.44207e-06
8.3112e-06
8.28151e-06
8.27175e-06
8.25014e-06
8.22781e-06
8.2042e-06
8.15555e-06
8.09822e-06
8.03736e-06
7.96877e-06
7.89664e-06
7.83048e-06
7.77605e-06
7.74041e-06
7.73951e-06
7.76971e-06
7.8264e-06
7.90121e-06
7.97884e-06
8.05245e-06
8.1146e-06
8.16453e-06
8.20529e-06
8.23377e-06
8.2518e-06
8.26125e-06
8.27492e-06
8.31732e-06
8.4519e-06
8.10739e-06
7.97382e-06
7.94549e-06
7.92679e-06
7.90331e-06
7.88942e-06
7.8527e-06
7.7942e-06
7.73429e-06
7.6688e-06
7.59446e-06
7.51892e-06
7.45015e-06
7.39191e-06
7.35322e-06
7.35173e-06
7.38627e-06
7.44839e-06
7.52616e-06
7.60449e-06
7.67888e-06
7.74437e-06
7.79933e-06
7.84395e-06
7.87894e-06
7.90469e-06
7.92205e-06
7.93999e-06
7.97923e-06
8.11057e-06
7.78998e-06
7.66095e-06
7.63599e-06
7.61725e-06
7.60015e-06
7.57652e-06
7.52634e-06
7.47359e-06
7.41828e-06
7.3508e-06
7.27414e-06
7.19683e-06
7.12568e-06
7.06504e-06
7.02576e-06
7.024e-06
7.05883e-06
7.11981e-06
7.1958e-06
7.27415e-06
7.35043e-06
7.42025e-06
7.47964e-06
7.5265e-06
7.56389e-06
7.59402e-06
7.61669e-06
7.63594e-06
7.67142e-06
7.79655e-06
7.49024e-06
7.39391e-06
7.3635e-06
7.34066e-06
7.31954e-06
7.27844e-06
7.23166e-06
7.18754e-06
7.13198e-06
7.06334e-06
6.98874e-06
6.91208e-06
6.83817e-06
6.77323e-06
6.73086e-06
6.72752e-06
6.76386e-06
6.82782e-06
6.90684e-06
6.98857e-06
7.06635e-06
7.13554e-06
7.19312e-06
7.2395e-06
7.27974e-06
7.31495e-06
7.34229e-06
7.3624e-06
7.39443e-06
7.50883e-06
7.24912e-06
7.15267e-06
7.11642e-06
7.08963e-06
7.05848e-06
7.01881e-06
6.98282e-06
6.93888e-06
6.88094e-06
6.81443e-06
6.74311e-06
6.66661e-06
6.59144e-06
6.52722e-06
6.48752e-06
6.48711e-06
6.52543e-06
6.58964e-06
6.66677e-06
6.74491e-06
6.81732e-06
6.88214e-06
6.93882e-06
6.9882e-06
7.03202e-06
7.0691e-06
7.09671e-06
7.11579e-06
7.14347e-06
7.2447e-06
7.01696e-06
6.9227e-06
6.88749e-06
6.86541e-06
6.83828e-06
6.81024e-06
6.77374e-06
6.72494e-06
6.66848e-06
6.60535e-06
6.53491e-06
6.45904e-06
6.38749e-06
6.32978e-06
6.29539e-06
6.29613e-06
6.33154e-06
6.39083e-06
6.46273e-06
6.53638e-06
6.6051e-06
6.66734e-06
6.72284e-06
6.77216e-06
6.81506e-06
6.85021e-06
6.87589e-06
6.89299e-06
6.91645e-06
7.00565e-06
6.80376e-06
6.71773e-06
6.69215e-06
6.6766e-06
6.65625e-06
6.62767e-06
6.58582e-06
6.5397e-06
6.4888e-06
6.4284e-06
6.35921e-06
6.28765e-06
6.22308e-06
6.1716e-06
6.13975e-06
6.13921e-06
6.17118e-06
6.22604e-06
6.29297e-06
6.36177e-06
6.42647e-06
6.48537e-06
6.53833e-06
6.58536e-06
6.62513e-06
6.65662e-06
6.67938e-06
6.69487e-06
6.71589e-06
6.79507e-06
6.61409e-06
6.53627e-06
6.52204e-06
6.50763e-06
6.48875e-06
6.45764e-06
6.42097e-06
6.38314e-06
6.33626e-06
6.27806e-06
6.21382e-06
6.15085e-06
6.09432e-06
6.04699e-06
6.01533e-06
6.01278e-06
6.04179e-06
6.09219e-06
6.15342e-06
6.21646e-06
6.27657e-06
6.33201e-06
6.38205e-06
6.4251e-06
6.45975e-06
6.48644e-06
6.50656e-06
6.52204e-06
6.54241e-06
6.6116e-06
6.43883e-06
6.38642e-06
6.37023e-06
6.35585e-06
6.33885e-06
6.31316e-06
6.28543e-06
6.25135e-06
6.20551e-06
6.15062e-06
6.09382e-06
6.03954e-06
5.98814e-06
5.94201e-06
5.91082e-06
5.90931e-06
5.93858e-06
5.98642e-06
6.04176e-06
6.09748e-06
6.15087e-06
6.2009e-06
6.24637e-06
6.28458e-06
6.3147e-06
6.33819e-06
6.35704e-06
6.37279e-06
6.3919e-06
6.45001e-06
6.30432e-06
6.26381e-06
6.2414e-06
6.23112e-06
6.21577e-06
6.19477e-06
6.16953e-06
6.13504e-06
6.09164e-06
6.04356e-06
5.99581e-06
5.94889e-06
5.90127e-06
5.85749e-06
5.82993e-06
5.83137e-06
5.85993e-06
5.9027e-06
5.94966e-06
5.99669e-06
6.04299e-06
6.08817e-06
6.12938e-06
6.16393e-06
6.19142e-06
6.21296e-06
6.23013e-06
6.24415e-06
6.26014e-06
6.3073e-06
6.19239e-06
6.14645e-06
6.13396e-06
6.12593e-06
6.10927e-06
6.09017e-06
6.06587e-06
6.03437e-06
5.99776e-06
5.95862e-06
5.91891e-06
5.87707e-06
5.83305e-06
5.7938e-06
5.77041e-06
5.77202e-06
5.79609e-06
5.83152e-06
5.87132e-06
5.91322e-06
5.9562e-06
5.99765e-06
6.03465e-06
6.06568e-06
6.0903e-06
6.10897e-06
6.12289e-06
6.13354e-06
6.14572e-06
6.18357e-06
6.07831e-06
6.0486e-06
6.04598e-06
6.03304e-06
6.01713e-06
6.00158e-06
5.9809e-06
5.95464e-06
5.9241e-06
5.89126e-06
5.85605e-06
5.81685e-06
5.77682e-06
5.74355e-06
5.72398e-06
5.7241e-06
5.74301e-06
5.77364e-06
5.81044e-06
5.85014e-06
5.88968e-06
5.92628e-06
5.95812e-06
5.98442e-06
6.00504e-06
6.02043e-06
6.03145e-06
6.03959e-06
6.04899e-06
6.07915e-06
5.99036e-06
5.98502e-06
5.97272e-06
5.95688e-06
5.9458e-06
5.93363e-06
5.91549e-06
5.89159e-06
5.86423e-06
5.83551e-06
5.80394e-06
5.76907e-06
5.73557e-06
5.70859e-06
5.69194e-06
5.69073e-06
5.70589e-06
5.73283e-06
5.76623e-06
5.8014e-06
5.835e-06
5.86514e-06
5.89114e-06
5.91295e-06
5.93065e-06
5.94448e-06
5.95468e-06
5.96206e-06
5.96962e-06
5.99236e-06
5.93482e-06
5.92238e-06
5.90298e-06
5.89423e-06
5.88806e-06
5.87685e-06
5.85941e-06
5.83722e-06
5.81378e-06
5.78997e-06
5.76362e-06
5.73528e-06
5.70843e-06
5.68593e-06
5.67097e-06
5.66902e-06
5.68172e-06
5.70425e-06
5.73162e-06
5.75953e-06
5.78578e-06
5.80992e-06
5.83213e-06
5.852e-06
5.869e-06
5.88247e-06
5.89227e-06
5.89884e-06
5.90415e-06
5.91944e-06
5.87379e-06
5.84661e-06
5.84157e-06
5.84158e-06
5.8364e-06
5.82462e-06
5.80816e-06
5.78996e-06
5.77218e-06
5.75313e-06
5.73114e-06
5.70785e-06
5.68562e-06
5.66629e-06
5.65285e-06
5.65106e-06
5.66185e-06
5.68013e-06
5.70134e-06
5.72278e-06
5.74387e-06
5.76506e-06
5.78586e-06
5.80472e-06
5.82031e-06
5.83202e-06
5.84013e-06
5.84487e-06
5.84739e-06
5.85654e-06
5.80418e-06
5.79371e-06
5.80182e-06
5.80135e-06
5.79349e-06
5.78089e-06
5.76679e-06
5.75376e-06
5.74057e-06
5.72402e-06
5.7041e-06
5.68358e-06
5.66447e-06
5.64778e-06
5.63625e-06
5.63532e-06
5.6451e-06