/*--------------------------------*- C++ -*----------------------------------*\
| =========                 |                                                 |
| \\      /  F ield         | OpenFOAM: The Open Source CFD Toolbox           |
|  \\    /   O peration     | Version:  2312                                  |
|   \\  /    A nd           | Website:  www.openfoam.com                      |
|    \\/     M anipulation  |                                                 |
\*---------------------------------------------------------------------------*/
FoamFile
{
    version     2.0;
    format      ascii;
    arch        "LSB;label=32;scalar=64";
    class       volScalarField;
    location    "0.912455";
    object      p;
}
// * * * * * * * * * * * * * * * * * * * * * * * * * * * * * * * * * * * * * //

dimensions      [1 -1 -2 0 0 0 0];

internalField   nonuniform List<scalar> 
90000
(
4844.8
4844.8
4844.8
4844.8
4844.8
4844.8
4844.8
4844.8
4844.8
4844.8
4844.8
4844.8
4844.8
4844.8
4844.8
4844.8
4844.8
4844.8
4844.8
4844.81
4844.81
4844.81
4844.81
4844.81
4844.82
4844.82
4844.82
4844.82
4844.82
4844.81
4746.7
4746.7
4746.7
4746.7
4746.7
4746.7
4746.7
4746.7
4746.7
4746.7
4746.7
4746.7
4746.7
4746.7
4746.7
4746.7
4746.7
4746.7
4746.7
4746.7
4746.71
4746.71
4746.71
4746.71
4746.71
4746.72
4746.72
4746.72
4746.72
4746.72
4648.59
4648.59
4648.59
4648.59
4648.6
4648.6
4648.6
4648.6
4648.6
4648.6
4648.6
4648.6
4648.6
4648.6
4648.6
4648.6
4648.6
4648.6
4648.6
4648.6
4648.6
4648.61
4648.61
4648.61
4648.61
4648.61
4648.61
4648.62
4648.62
4648.62
4550.49
4550.49
4550.49
4550.49
4550.5
4550.5
4550.5
4550.5
4550.5
4550.5
4550.5
4550.5
4550.5
4550.5
4550.5
4550.5
4550.5
4550.5
4550.5
4550.5
4550.5
4550.51
4550.51
4550.51
4550.51
4550.51
4550.51
4550.51
4550.51
4550.52
4452.4
4452.4
4452.4
4452.4
4452.4
4452.4
4452.4
4452.4
4452.4
4452.4
4452.4
4452.4
4452.4
4452.4
4452.4
4452.4
4452.4
4452.4
4452.41
4452.41
4452.41
4452.41
4452.41
4452.41
4452.41
4452.41
4452.41
4452.41
4452.41
4452.41
4354.3
4354.3
4354.3
4354.3
4354.3
4354.3
4354.3
4354.3
4354.3
4354.3
4354.3
4354.3
4354.3
4354.31
4354.31
4354.31
4354.31
4354.31
4354.31
4354.31
4354.31
4354.31
4354.31
4354.31
4354.31
4354.31
4354.31
4354.31
4354.31
4354.32
4256.21
4256.21
4256.21
4256.21
4256.21
4256.2
4256.2
4256.2
4256.2
4256.2
4256.2
4256.2
4256.21
4256.21
4256.21
4256.21
4256.21
4256.21
4256.21
4256.21
4256.21
4256.21
4256.21
4256.21
4256.21
4256.21
4256.22
4256.22
4256.22
4256.22
4158.11
4158.12
4158.11
4158.11
4158.11
4158.11
4158.11
4158.11
4158.11
4158.11
4158.11
4158.11
4158.11
4158.11
4158.11
4158.11
4158.12
4158.12
4158.12
4158.12
4158.11
4158.11
4158.11
4158.11
4158.12
4158.12
4158.12
4158.12
4158.12
4158.12
4060.02
4060.02
4060.02
4060.02
4060.02
4060.02
4060.01
4060.01
4060.01
4060.01
4060.01
4060.01
4060.01
4060.01
4060.01
4060.02
4060.02
4060.02
4060.02
4060.02
4060.02
4060.02
4060.02
4060.02
4060.02
4060.02
4060.02
4060.02
4060.02
4060.02
3961.93
3961.93
3961.93
3961.93
3961.92
3961.92
3961.92
3961.92
3961.91
3961.91
3961.91
3961.91
3961.91
3961.91
3961.91
3961.92
3961.92
3961.92
3961.92
3961.92
3961.92
3961.92
3961.92
3961.92
3961.92
3961.92
3961.92
3961.92
3961.92
3961.92
3863.83
3863.83
3863.83
3863.83
3863.83
3863.82
3863.82
3863.82
3863.82
3863.82
3863.82
3863.82
3863.82
3863.82
3863.82
3863.82
3863.82
3863.82
3863.82
3863.82
3863.82
3863.83
3863.83
3863.83
3863.83
3863.83
3863.83
3863.83
3863.82
3863.82
3765.73
3765.73
3765.73
3765.73
3765.73
3765.72
3765.72
3765.72
3765.72
3765.72
3765.72
3765.72
3765.72
3765.72
3765.72
3765.72
3765.72
3765.72
3765.73
3765.73
3765.73
3765.73
3765.73
3765.73
3765.73
3765.73
3765.73
3765.73
3765.73
3765.73
3667.63
3667.62
3667.62
3667.62
3667.62
3667.63
3667.63
3667.63
3667.63
3667.63
3667.63
3667.63
3667.63
3667.63
3667.63
3667.63
3667.63
3667.63
3667.63
3667.63
3667.63
3667.64
3667.64
3667.64
3667.63
3667.63
3667.63
3667.63
3667.63
3667.63
3569.52
3569.52
3569.52
3569.52
3569.53
3569.53
3569.53
3569.53
3569.53
3569.54
3569.54
3569.54
3569.53
3569.53
3569.54
3569.54
3569.54
3569.54
3569.54
3569.54
3569.54
3569.54
3569.54
3569.54
3569.54
3569.54
3569.53
3569.53
3569.53
3569.53
3471.42
3471.42
3471.43
3471.43
3471.43
3471.43
3471.44
3471.44
3471.44
3471.44
3471.44
3471.44
3471.44
3471.44
3471.44
3471.44
3471.44
3471.44
3471.44
3471.44
3471.44
3471.44
3471.44
3471.44
3471.44
3471.44
3471.44
3471.44
3471.44
3471.44
3373.33
3373.33
3373.33
3373.33
3373.34
3373.34
3373.34
3373.35
3373.35
3373.35
3373.35
3373.35
3373.35
3373.35
3373.35
3373.35
3373.35
3373.35
3373.35
3373.35
3373.35
3373.34
3373.34
3373.34
3373.34
3373.34
3373.34
3373.34
3373.34
3373.34
3275.24
3275.24
3275.24
3275.24
3275.25
3275.25
3275.25
3275.25
3275.25
3275.25
3275.25
3275.26
3275.26
3275.26
3275.26
3275.26
3275.25
3275.25
3275.25
3275.25
3275.25
3275.25
3275.25
3275.25
3275.25
3275.24
3275.24
3275.24
3275.24
3275.24
3177.15
3177.15
3177.15
3177.15
3177.15
3177.16
3177.16
3177.16
3177.16
3177.16
3177.16
3177.16
3177.16
3177.16
3177.16
3177.16
3177.16
3177.16
3177.16
3177.16
3177.15
3177.15
3177.15
3177.15
3177.15
3177.15
3177.15
3177.15
3177.15
3177.15
3079.06
3079.06
3079.06
3079.06
3079.06
3079.06
3079.06
3079.06
3079.07
3079.07
3079.07
3079.07
3079.07
3079.07
3079.07
3079.07
3079.07
3079.06
3079.06
3079.06
3079.06
3079.06
3079.06
3079.06
3079.05
3079.05
3079.05
3079.05
3079.05
3079.05
2980.97
2980.97
2980.97
2980.97
2980.97
2980.97
2980.97
2980.97
2980.97
2980.97
2980.97
2980.97
2980.97
2980.97
2980.97
2980.97
2980.97
2980.97
2980.97
2980.97
2980.97
2980.97
2980.96
2980.96
2980.96
2980.96
2980.96
2980.96
2980.96
2980.96
2882.88
2882.88
2882.88
2882.88
2882.88
2882.88
2882.88
2882.88
2882.88
2882.88
2882.88
2882.88
2882.88
2882.88
2882.88
2882.88
2882.88
2882.88
2882.88
2882.88
2882.87
2882.87
2882.87
2882.87
2882.87
2882.87
2882.87
2882.87
2882.87
2882.87
2784.78
2784.78
2784.78
2784.78
2784.78
2784.78
2784.78
2784.78
2784.78
2784.78
2784.78
2784.78
2784.78
2784.78
2784.78
2784.78
2784.78
2784.78
2784.78
2784.78
2784.78
2784.78
2784.78
2784.78
2784.78
2784.77
2784.77
2784.77
2784.77
2784.77
2686.69
2686.69
2686.68
2686.68
2686.68
2686.69
2686.69
2686.69
2686.69
2686.69
2686.69
2686.69
2686.69
2686.69
2686.69
2686.69
2686.69
2686.69
2686.69
2686.69
2686.69
2686.69
2686.68
2686.68
2686.68
2686.68
2686.68
2686.68
2686.68
2686.68
2588.59
2588.59
2588.59
2588.59
2588.59
2588.59
2588.59
2588.59
2588.6
2588.6
2588.6
2588.6
2588.6
2588.6
2588.6
2588.6
2588.6
2588.6
2588.59
2588.59
2588.59
2588.59
2588.59
2588.59
2588.59
2588.58
2588.58
2588.58
2588.58
2588.58
2490.49
2490.49
2490.49
2490.49
2490.49
2490.5
2490.5
2490.5
2490.5
2490.5
2490.5
2490.51
2490.51
2490.51
2490.5
2490.5
2490.5
2490.5
2490.5
2490.5
2490.5
2490.5
2490.49
2490.49
2490.49
2490.49
2490.49
2490.49
2490.49
2490.49
2392.4
2392.4
2392.4
2392.4
2392.4
2392.4
2392.4
2392.41
2392.41
2392.41
2392.41
2392.41
2392.41
2392.41
2392.41
2392.41
2392.41
2392.41
2392.41
2392.41
2392.4
2392.4
2392.4
2392.4
2392.39
2392.39
2392.39
2392.39
2392.39
2392.39
2294.3
2294.3
2294.3
2294.3
2294.3
2294.31
2294.31
2294.31
2294.32
2294.32
2294.32
2294.32
2294.32
2294.33
2294.33
2294.32
2294.32
2294.32
2294.32
2294.31
2294.31
2294.31
2294.3
2294.3
2294.3
2294.3
2294.29
2294.29
2294.29
2294.29
2196.2
2196.2
2196.2
2196.21
2196.21
2196.21
2196.22
2196.22
2196.23
2196.23
2196.23
2196.23
2196.24
2196.24
2196.24
2196.24
2196.23
2196.23
2196.23
2196.22
2196.22
2196.22
2196.21
2196.21
2196.2
2196.2
2196.2
2196.19
2196.19
2196.19
2098.1
2098.1
2098.11
2098.11
2098.11
2098.12
2098.12
2098.13
2098.13
2098.14
2098.14
2098.15
2098.15
2098.15
2098.15
2098.15
2098.15
2098.15
2098.14
2098.14
2098.13
2098.13
2098.12
2098.11
2098.11
2098.1
2098.1
2098.1
2098.09
2098.09
2000
2000
2000
2000.01
2000.02
2000.02
2000.03
2000.04
2000.05
2000.05
2000.06
2000.07
2000.07
2000.07
2000.07
2000.07
2000.07
2000.07
2000.06
2000.06
2000.05
2000.04
2000.03
2000.02
2000.01
2000.01
2000
1999.99
1999.99
1999.99
1901.89
1901.89
1901.9
1901.91
1901.92
1901.93
1901.94
1901.95
1901.96
1901.97
1901.98
1901.99
1901.99
1902
1902
1902
1901.99
1901.99
1901.98
1901.97
1901.96
1901.95
1901.94
1901.93
1901.92
1901.91
1901.9
1901.89
1901.88
1901.88
1803.78
1803.78
1803.79
1803.8
1803.81
1803.83
1803.84
1803.86
1803.87
1803.89
1803.9
1803.91
1803.92
1803.93
1803.93
1803.93
1803.93
1803.92
1803.91
1803.9
1803.88
1803.87
1803.85
1803.84
1803.82
1803.8
1803.79
1803.78
1803.77
1803.77
1705.65
1705.66
1705.67
1705.69
1705.7
1705.73
1705.75
1705.77
1705.79
1705.81
1705.83
1705.85
1705.86
1705.87
1705.87
1705.87
1705.86
1705.86
1705.84
1705.83
1705.81
1705.79
1705.76
1705.74
1705.72
1705.7
1705.68
1705.66
1705.65
1705.65
1607.52
1607.53
1607.54
1607.56
1607.59
1607.62
1607.65
1607.68
1607.71
1607.74
1607.77
1607.79
1607.8
1607.82
1607.82
1607.82
1607.81
1607.8
1607.79
1607.77
1607.74
1607.71
1607.68
1607.64
1607.61
1607.58
1607.56
1607.54
1607.52
1607.51
1509.37
1509.38
1509.4
1509.43
1509.47
1509.51
1509.55
1509.6
1509.64
1509.68
1509.71
1509.74
1509.77
1509.78
1509.79
1509.79
1509.78
1509.76
1509.74
1509.71
1509.68
1509.64
1509.59
1509.55
1509.5
1509.46
1509.42
1509.39
1509.37
1509.36
1411.2
1411.21
1411.24
1411.28
1411.33
1411.39
1411.45
1411.51
1411.57
1411.62
1411.67
1411.71
1411.74
1411.76
1411.77
1411.77
1411.76
1411.74
1411.71
1411.67
1411.62
1411.57
1411.51
1411.45
1411.38
1411.33
1411.28
1411.24
1411.21
1411.19
1313
1313.02
1313.06
1313.11
1313.18
1313.26
1313.34
1313.43
1313.51
1313.58
1313.65
1313.7
1313.74
1313.77
1313.79
1313.79
1313.77
1313.74
1313.7
1313.64
1313.58
1313.5
1313.42
1313.34
1313.25
1313.17
1313.11
1313.05
1313.01
1312.99
1214.76
1214.78
1214.84
1214.91
1215.01
1215.11
1215.22
1215.34
1215.45
1215.55
1215.64
1215.71
1215.77
1215.81
1215.83
1215.83
1215.81
1215.77
1215.71
1215.64
1215.55
1215.45
1215.34
1215.22
1215.11
1215
1214.91
1214.83
1214.78
1214.75
1116.46
1116.5
1116.57
1116.67
1116.8
1116.94
1117.09
1117.25
1117.4
1117.53
1117.65
1117.75
1117.83
1117.88
1117.9
1117.9
1117.88
1117.83
1117.75
1117.65
1117.53
1117.4
1117.25
1117.09
1116.94
1116.79
1116.67
1116.56
1116.49
1116.45
1018.09
1018.14
1018.23
1018.37
1018.54
1018.74
1018.94
1019.15
1019.35
1019.53
1019.69
1019.83
1019.93
1019.99
1020.03
1020.03
1019.99
1019.93
1019.83
1019.69
1019.53
1019.35
1019.15
1018.94
1018.73
1018.54
1018.37
1018.23
1018.13
1018.08
919.615
919.683
919.813
919.997
920.225
920.484
920.76
921.037
921.304
921.55
921.762
921.936
922.068
922.156
922.2
922.2
922.156
922.068
921.936
921.762
921.549
921.304
921.036
920.758
920.481
920.222
919.992
919.807
919.676
919.608
821.009
821.099
821.272
821.517
821.821
822.166
822.532
822.9
823.255
823.58
823.86
824.088
824.259
824.372
824.43
824.43
824.373
824.259
824.088
823.861
823.58
823.254
822.899
822.53
822.163
821.818
821.512
821.265
821.091
821
722.221
722.341
722.57
722.896
723.299
723.754
724.237
724.723
725.191
725.62
725.986
726.281
726.501
726.645
726.717
726.718
726.646
726.501
726.282
725.988
725.621
725.192
724.724
724.237
723.752
723.295
722.892
722.565
722.333
722.211
623.192
623.353
623.659
624.088
624.615
625.212
625.848
626.485
627.102
627.665
628.138
628.512
628.788
628.969
629.058
629.058
628.97
628.789
628.513
628.139
627.666
627.105
626.488
625.849
625.211
624.613
624.082
623.65
623.343
623.179
523.844
524.062
524.465
525.026
525.713
526.492
527.324
528.148
528.968
529.703
530.305
530.768
531.105
531.325
531.432
531.433
531.327
531.107
530.769
530.306
529.704
528.971
528.151
527.327
526.493
525.712
525.021
524.454
524.047
523.825
424.069
424.363
424.898
425.636
426.517
427.52
428.615
429.698
430.77
431.731
432.477
433.022
433.418
433.679
433.801
433.802
433.683
433.421
433.023
432.477
431.731
430.773
429.704
428.622
427.524
426.516
425.63
424.886
424.344
424.042
323.704
324.126
324.831
325.812
326.908
328.183
329.68
331.1
332.476
333.779
334.646
335.207
335.649
335.974
336.085
336.091
335.987
335.657
335.206
334.638
333.774
332.478
331.109
329.691
328.189
326.911
325.804
324.813
324.101
323.67
222.389
223.178
223.984
225.32
226.711
228.355
230.468
232.179
233.933
235.984
236.768
237.106
237.586
238.152
238.102
238.126
238.191
237.609
237.102
236.734
235.967
233.929
232.194
230.487
228.356
226.72
225.31
223.956
223.139
222.348
119.071
121.469
121.641
123.11
125.716
127.858
130.515
132.355
134.612
137.973
138.899
137.737
138.148
140.663
139.08
139.222
140.768
138.235
137.684
138.788
137.931
134.591
132.381
130.551
127.817
125.752
123.102
121.599
121.413
119.048
31.862
37.1011
33.8576
35.4935
39.681
42.4799
42.2646
44.0842
46.8485
49.04
50.5326
44.6321
44.7375
52.9065
46.9093
47.2534
53.0189
44.9863
44.1342
50.2571
48.9779
46.8154
44.1256
42.3139
42.4651
39.7338
35.4953
33.814
37.1142
31.8911
-3.11336
-1.08213
-2.6046
-2.43142
-0.172051
0.890885
-0.380979
0.790947
1.75358
-0.281216
1.65887
-0.548265
-0.0622141
4.89901
0.212701
0.346585
4.92974
0.033013
-0.775514
1.49792
-0.309293
1.74452
0.813515
-0.355639
0.895581
-0.186364
-2.43835
-2.58773
-1.0243
-3.07462
-5.02158
-5.11728
-4.96324
-5.00025
-5.08453
-4.97553
-4.98357
-5.05603
-4.98089
-5.25964
-5.24425
-4.89166
-4.81738
-5.12612
-4.93978
-4.95493
-5.11952
-4.81555
-4.88493
-5.23001
-5.25797
-4.98207
-5.05491
-4.98094
-4.971
-5.08314
-4.99893
-4.95771
-5.12103
-5.01966
-5.11524
-5.13249
-5.10646
-5.11549
-5.15455
-5.15563
-5.14086
-5.16401
-5.17846
-5.16024
-5.17434
-5.13595
-5.13857
-5.18057
-5.15902
-5.15935
-5.17926
-5.14474
-5.13578
-5.17022
-5.15734
-5.17628
-5.16359
-5.1398
-5.15475
-5.15394
-5.11448
-5.10611
-5.13136
-5.11483
-5.23379
-5.23693
-5.24512
-5.25807
-5.27127
-5.28392
-5.28571
-5.2891
-5.28868
-5.2849
-5.28319
-5.28961
-5.3021
-5.29854
-5.29841
-5.29762
-5.29931
-5.30184
-5.28932
-5.28319
-5.28497
-5.2883
-5.28848
-5.28573
-5.28394
-5.27109
-5.25832
-5.2449
-5.23674
-5.23391
-5.34698
-5.35007
-5.35648
-5.36401
-5.374
-5.38368
-5.38674
-5.39044
-5.39486
-5.39271
-5.39228
-5.39564
-5.40197
-5.40247
-5.40039
-5.40014
-5.40201
-5.40217
-5.39594
-5.39299
-5.39317
-5.39524
-5.39062
-5.38725
-5.38406
-5.37431
-5.36437
-5.35671
-5.35027
-5.34734
-5.45459
-5.45639
-5.45992
-5.46464
-5.4705
-5.47611
-5.47928
-5.48272
-5.48595
-5.48696
-5.4883
-5.49078
-5.49367
-5.49464
-5.49437
-5.49431
-5.49464
-5.49384
-5.49107
-5.48871
-5.48732
-5.48636
-5.48314
-5.47978
-5.47657
-5.47098
-5.46514
-5.46042
-5.4568
-5.45504
-5.55794
-5.55914
-5.56141
-5.56449
-5.56823
-5.57188
-5.57471
-5.57746
-5.57968
-5.581
-5.58248
-5.58428
-5.58593
-5.58686
-5.58718
-5.5872
-5.58688
-5.58609
-5.58448
-5.5828
-5.5814
-5.58011
-5.57792
-5.57525
-5.57243
-5.5688
-5.565
-5.56194
-5.55964
-5.55846
-5.65867
-5.65948
-5.66102
-5.66307
-5.66551
-5.66799
-5.67019
-5.67215
-5.67376
-5.67499
-5.67609
-5.67729
-5.67838
-5.6791
-5.67951
-5.67956
-5.67919
-5.67851
-5.67752
-5.67642
-5.67535
-5.67422
-5.67263
-5.67071
-5.66851
-5.66606
-5.66361
-5.66154
-5.66001
-5.65926
-5.75779
-5.75833
-5.75933
-5.76067
-5.76229
-5.76395
-5.76548
-5.76686
-5.76799
-5.76889
-5.7697
-5.77038
-5.77092
-5.77135
-5.77167
-5.77168
-5.77146
-5.77109
-5.7706
-5.76999
-5.76928
-5.76846
-5.76733
-5.76597
-5.76444
-5.76282
-5.76122
-5.75989
-5.75889
-5.75841
-5.85588
-5.85623
-5.85688
-5.85774
-5.85874
-5.85979
-5.86081
-5.86166
-5.86241
-5.86303
-5.86349
-5.86382
-5.86407
-5.86427
-5.86439
-5.8644
-5.86435
-5.86424
-5.86407
-5.86377
-5.86339
-5.86286
-5.86214
-5.86126
-5.86026
-5.85924
-5.85826
-5.8574
-5.85677
-5.85646
-5.95334
-5.95354
-5.95391
-5.95442
-5.95501
-5.95561
-5.9562
-5.95671
-5.9571
-5.9574
-5.9576
-5.95776
-5.95784
-5.95787
-5.95786
-5.95788
-5.95794
-5.95797
-5.95799
-5.9579
-5.95776
-5.9575
-5.95712
-5.95664
-5.95608
-5.95547
-5.9549
-5.95441
-5.95402
-5.95384
-6.05036
-6.05045
-6.05063
-6.0509
-6.05118
-6.0515
-6.05177
-6.05195
-6.05207
-6.05215
-6.05218
-6.05217
-6.05211
-6.05205
-6.05201
-6.05203
-6.05212
-6.05223
-6.05234
-6.05243
-6.05249
-6.05246
-6.05234
-6.05215
-6.05191
-6.05161
-6.05132
-6.05111
-6.05089
-6.0508
-6.14714
-6.14714
-6.14722
-6.14732
-6.1474
-6.14746
-6.14749
-6.14748
-6.14742
-6.14732
-6.1472
-6.14706
-6.14692
-6.14679
-6.14673
-6.14676
-6.14687
-6.14702
-6.1472
-6.14742
-6.14762
-6.14776
-6.14783
-6.14785
-6.14783
-6.14779
-6.1477
-6.14765
-6.14756
-6.14753
-6.2438
-6.24379
-6.24378
-6.24373
-6.24366
-6.24357
-6.24346
-6.2433
-6.24309
-6.24287
-6.24267
-6.24246
-6.24225
-6.24208
-6.242
-6.24203
-6.24214
-6.24234
-6.24257
-6.24286
-6.24314
-6.24338
-6.24359
-6.24377
-6.24391
-6.24402
-6.24408
-6.24412
-6.24414
-6.24415
-6.34047
-6.34043
-6.34034
-6.34022
-6.34006
-6.33989
-6.33967
-6.33939
-6.33909
-6.33883
-6.33857
-6.33829
-6.33804
-6.33786
-6.33779
-6.33782
-6.33792
-6.33811
-6.33838
-6.3387
-6.33903
-6.33934
-6.33964
-6.33992
-6.34016
-6.34035
-6.34051
-6.34063
-6.34071
-6.34075
-6.43717
-6.43709
-6.43698
-6.43683
-6.43663
-6.43638
-6.43608
-6.43576
-6.43544
-6.43514
-6.43483
-6.43453
-6.43427
-6.4341
-6.43403
-6.43404
-6.43413
-6.43433
-6.4346
-6.43493
-6.43528
-6.43562
-6.43597
-6.43631
-6.4366
-6.43685
-6.43706
-6.43723
-6.43734
-6.43739
-6.53394
-6.53389
-6.53377
-6.53358
-6.53334
-6.53305
-6.53274
-6.53241
-6.53207
-6.53174
-6.53141
-6.53112
-6.53088
-6.53072
-6.53062
-6.53061
-6.5307
-6.5309
-6.53118
-6.53149
-6.53182
-6.53217
-6.53254
-6.53291
-6.53323
-6.53351
-6.53375
-6.53393
-6.53406
-6.53412
-6.63086
-6.6308
-6.63066
-6.63046
-6.6302
-6.62992
-6.62962
-6.62928
-6.62893
-6.62859
-6.62829
-6.62802
-6.6278
-6.62763
-6.62753
-6.62752
-6.62761
-6.6278
-6.62804
-6.62832
-6.62863
-6.62898
-6.62935
-6.62971
-6.63004
-6.63033
-6.63057
-6.63076
-6.63089
-6.63094
-6.7279
-6.7278
-6.72767
-6.72748
-6.72724
-6.72698
-6.72667
-6.72634
-6.726
-6.7257
-6.72542
-6.72517
-6.72496
-6.72479
-6.72469
-6.72469
-6.72477
-6.72492
-6.72513
-6.72539
-6.72569
-6.72602
-6.72637
-6.72671
-6.72702
-6.72731
-6.72755
-6.72772
-6.72784
-6.7279
-6.82502
-6.82496
-6.82485
-6.82467
-6.82445
-6.82417
-6.82387
-6.82357
-6.82328
-6.823
-6.82275
-6.82251
-6.82231
-6.82216
-6.82208
-6.82207
-6.82213
-6.82226
-6.82245
-6.82268
-6.82295
-6.82325
-6.82356
-6.82387
-6.82417
-6.82443
-6.82465
-6.82481
-6.82492
-6.82498
-6.92231
-6.92227
-6.92215
-6.92198
-6.92176
-6.92151
-6.92125
-6.92099
-6.92073
-6.92047
-6.92023
-6.92001
-6.91984
-6.91971
-6.91964
-6.91963
-6.91967
-6.91977
-6.91993
-6.92013
-6.92037
-6.92062
-6.9209
-6.92118
-6.92145
-6.9217
-6.92189
-6.92204
-6.92214
-6.92219
-7.01973
-7.01967
-7.01956
-7.01942
-7.01922
-7.019
-7.01878
-7.01854
-7.0183
-7.01807
-7.01785
-7.01765
-7.01751
-7.01741
-7.01734
-7.01731
-7.01734
-7.01742
-7.01755
-7.01772
-7.01792
-7.01814
-7.01838
-7.01864
-7.01888
-7.01909
-7.01926
-7.01939
-7.01947
-7.01951
-7.11723
-7.11718
-7.1171
-7.11699
-7.11682
-7.11662
-7.11642
-7.1162
-7.11599
-7.11578
-7.11558
-7.11541
-7.11529
-7.11521
-7.11515
-7.11511
-7.11511
-7.11517
-7.11528
-7.11543
-7.1156
-7.11579
-7.116
-7.11621
-7.11642
-7.1166
-7.11674
-7.11684
-7.11691
-7.11695
-7.21486
-7.21483
-7.21477
-7.21466
-7.21451
-7.21433
-7.21415
-7.21396
-7.21378
-7.2136
-7.21342
-7.21327
-7.21317
-7.21309
-7.21303
-7.21299
-7.21298
-7.21303
-7.21311
-7.21322
-7.21336
-7.21353
-7.2137
-7.21388
-7.21405
-7.2142
-7.21432
-7.21442
-7.21448
-7.21452
-7.31261
-7.31258
-7.31251
-7.31242
-7.31229
-7.31213
-7.31198
-7.31183
-7.31167
-7.3115
-7.31134
-7.31121
-7.31111
-7.31104
-7.31098
-7.31095
-7.31094
-7.31096
-7.31102
-7.3111
-7.31122
-7.31135
-7.3115
-7.31165
-7.31179
-7.31191
-7.31202
-7.3121
-7.31217
-7.3122
-7.41045
-7.41041
-7.41035
-7.41027
-7.41016
-7.41003
-7.40991
-7.40978
-7.40963
-7.40947
-7.40933
-7.40921
-7.40911
-7.40904
-7.409
-7.40897
-7.40897
-7.40898
-7.409
-7.40906
-7.40915
-7.40926
-7.40938
-7.40951
-7.40962
-7.40972
-7.40981
-7.40988
-7.40993
-7.40996
-7.50836
-7.50834
-7.50829
-7.50822
-7.50812
-7.50801
-7.5079
-7.50778
-7.50764
-7.5075
-7.50737
-7.50726
-7.50717
-7.50711
-7.50707
-7.50705
-7.50704
-7.50703
-7.50704
-7.50708
-7.50714
-7.50723
-7.50733
-7.50743
-7.50752
-7.50761
-7.50768
-7.50773
-7.50777
-7.50779
-7.60636
-7.60634
-7.60629
-7.60621
-7.60613
-7.60605
-7.60596
-7.60584
-7.60571
-7.60558
-7.60546
-7.60536
-7.60528
-7.60522
-7.60518
-7.60515
-7.60513
-7.60512
-7.60512
-7.60514
-7.60519
-7.60525
-7.60533
-7.60541
-7.60548
-7.60555
-7.6056
-7.60564
-7.60567
-7.60569
-7.7044
-7.70437
-7.70432
-7.70426
-7.70421
-7.70415
-7.70406
-7.70395
-7.70382
-7.7037
-7.70359
-7.70349
-7.70342
-7.70336
-7.70331
-7.70328
-7.70325
-7.70324
-7.70323
-7.70324
-7.70326
-7.70331
-7.70336
-7.70343
-7.70349
-7.70355
-7.70359
-7.70362
-7.70364
-7.70365
-7.80245
-7.80243
-7.8024
-7.80236
-7.80233
-7.80228
-7.80218
-7.80206
-7.80194
-7.80183
-7.80173
-7.80164
-7.80157
-7.80151
-7.80146
-7.80143
-7.8014
-7.80137
-7.80136
-7.80135
-7.80136
-7.80138
-7.80142
-7.80148
-7.80153
-7.80158
-7.80162
-7.80164
-7.80165
-7.80165
-7.90053
-7.90052
-7.90051
-7.90049
-7.90045
-7.90038
-7.90028
-7.90017
-7.90006
-7.89996
-7.89987
-7.89979
-7.89972
-7.89966
-7.89962
-7.89958
-7.89954
-7.89951
-7.89948
-7.89946
-7.89946
-7.89948
-7.89951
-7.89955
-7.8996
-7.89963
-7.89965
-7.89966
-7.89967
-7.89966
-7.99862
-7.99863
-7.99861
-7.99858
-7.99854
-7.99847
-7.99839
-7.9983
-7.9982
-7.99811
-7.99802
-7.99794
-7.99787
-7.99781
-7.99776
-7.99771
-7.99767
-7.99763
-7.9976
-7.99758
-7.99757
-7.99758
-7.9976
-7.99763
-7.99766
-7.99767
-7.99768
-7.99769
-7.99769
-7.9977
-8.0967
-8.0967
-8.09668
-8.09665
-8.09661
-8.09656
-8.0965
-8.09642
-8.09634
-8.09625
-8.09615
-8.09607
-8.096
-8.09593
-8.09588
-8.09582
-8.09577
-8.09573
-8.0957
-8.09568
-8.09568
-8.09568
-8.09569
-8.0957
-8.0957
-8.09571
-8.09571
-8.09572
-8.09573
-8.09574
-8.19472
-8.19472
-8.19471
-8.19469
-8.19467
-8.19463
-8.19458
-8.19451
-8.19443
-8.19434
-8.19424
-8.19416
-8.19409
-8.19402
-8.19395
-8.19389
-8.19384
-8.1938
-8.19378
-8.19377
-8.19377
-8.19377
-8.19376
-8.19376
-8.19375
-8.19375
-8.19376
-8.19377
-8.19378
-8.19379
-8.29269
-8.2927
-8.29271
-8.29272
-8.2927
-8.29266
-8.2926
-8.29253
-8.29245
-8.29237
-8.2923
-8.29222
-8.29215
-8.29208
-8.292
-8.29194
-8.29189
-8.29185
-8.29184
-8.29184
-8.29184
-8.29183
-8.29182
-8.29181
-8.29179
-8.29179
-8.29179
-8.2918
-8.29181
-8.2918
-8.39064
-8.39066
-8.39069
-8.39069
-8.39066
-8.39062
-8.39057
-8.39051
-8.39046
-8.3904
-8.39035
-8.39028
-8.39021
-8.39013
-8.39005
-8.38998
-8.38993
-8.38991
-8.3899
-8.3899
-8.38989
-8.38988
-8.38986
-8.38984
-8.38982
-8.3898
-8.38979
-8.38978
-8.38978
-8.38977
-8.48858
-8.4886
-8.48861
-8.4886
-8.48857
-8.48854
-8.48852
-8.4885
-8.48848
-8.48845
-8.48841
-8.48834
-8.48826
-8.48817
-8.48809
-8.48802
-8.48798
-8.48795
-8.48795
-8.48794
-8.48793
-8.48791
-8.48788
-8.48784
-8.48781
-8.48778
-8.48775
-8.48772
-8.4877
-8.48768
-8.58649
-8.5865
-8.58649
-8.58647
-8.58646
-8.58646
-8.58647
-8.58648
-8.58648
-8.58646
-8.58642
-8.58636
-8.58627
-8.58618
-8.58611
-8.58605
-8.58601
-8.58599
-8.58598
-8.58597
-8.58595
-8.58592
-8.58588
-8.58583
-8.58578
-8.58572
-8.58568
-8.58563
-8.5856
-8.58558
-8.68436
-8.68435
-8.68434
-8.68433
-8.68435
-8.68437
-8.6844
-8.68442
-8.68442
-8.68441
-8.68437
-8.68431
-8.68424
-8.68417
-8.68411
-8.68407
-8.68404
-8.68403
-8.68401
-8.68398
-8.68395
-8.68391
-8.68386
-8.6838
-8.68373
-8.68366
-8.6836
-8.68355
-8.68351
-8.68349
-8.7822
-8.78218
-8.78218
-8.7822
-8.78223
-8.78226
-8.78229
-8.78231
-8.78232
-8.7823
-8.78228
-8.78223
-8.78219
-8.78215
-8.78212
-8.78209
-8.78207
-8.78205
-8.78202
-8.78199
-8.78195
-8.78189
-8.78183
-8.78176
-8.78168
-8.7816
-8.78153
-8.78146
-8.78142
-8.7814
-8.88003
-8.88002
-8.88004
-8.88006
-8.88009
-8.88012
-8.88015
-8.88018
-8.88019
-8.8802
-8.88019
-8.88018
-8.88016
-8.88015
-8.88013
-8.88012
-8.88009
-8.88006
-8.88002
-8.87998
-8.87992
-8.87985
-8.87978
-8.8797
-8.87961
-8.87953
-8.87945
-8.87939
-8.87935
-8.87933
-8.97788
-8.97789
-8.97791
-8.97793
-8.97796
-8.97799
-8.97802
-8.97806
-8.97809
-8.97811
-8.97812
-8.97813
-8.97814
-8.97814
-8.97814
-8.97812
-8.97809
-8.97805
-8.978
-8.97793
-8.97786
-8.97779
-8.97771
-8.97762
-8.97753
-8.97745
-8.97738
-8.97732
-8.97729
-8.97727
-9.07575
-9.07576
-9.07578
-9.07579
-9.07582
-9.07586
-9.0759
-9.07594
-9.07598
-9.07601
-9.07604
-9.07607
-9.07609
-9.0761
-9.0761
-9.07608
-9.07605
-9.076
-9.07594
-9.07587
-9.07579
-9.0757
-9.07562
-9.07553
-9.07545
-9.07538
-9.07532
-9.07528
-9.07525
-9.07524
-9.17363
-9.17363
-9.17364
-9.17366
-9.1737
-9.17374
-9.17378
-9.17382
-9.17385
-9.17389
-9.17392
-9.17395
-9.17398
-9.174
-9.17401
-9.174
-9.17397
-9.17392
-9.17386
-9.17378
-9.1737
-9.17361
-9.17353
-9.17345
-9.17338
-9.17332
-9.17328
-9.17325
-9.17324
-9.17324
-9.2715
-9.27149
-9.2715
-9.27153
-9.27157
-9.2716
-9.27163
-9.27166
-9.27169
-9.27173
-9.27176
-9.27181
-9.27185
-9.27188
-9.2719
-9.27189
-9.27187
-9.27182
-9.27176
-9.27169
-9.27161
-9.27152
-9.27145
-9.27138
-9.27133
-9.27129
-9.27126
-9.27125
-9.27124
-9.27124
-9.36938
-9.36938
-9.3694
-9.36942
-9.36944
-9.36946
-9.36948
-9.3695
-9.36953
-9.36957
-9.36962
-9.36967
-9.36972
-9.36976
-9.36978
-9.36978
-9.36976
-9.36972
-9.36966
-9.36959
-9.36951
-9.36944
-9.36937
-9.36932
-9.36928
-9.36926
-9.36924
-9.36924
-9.36924
-9.36924
-9.46729
-9.46731
-9.46732
-9.46733
-9.46734
-9.46734
-9.46734
-9.46736
-9.46739
-9.46744
-9.4675
-9.46756
-9.46761
-9.46765
-9.46767
-9.46767
-9.46765
-9.4676
-9.46754
-9.46748
-9.46741
-9.46734
-9.46729
-9.46725
-9.46723
-9.46722
-9.46721
-9.46722
-9.46722
-9.46722
-9.56524
-9.56526
-9.56526
-9.56525
-9.56524
-9.56523
-9.56523
-9.56525
-9.56528
-9.56533
-9.56539
-9.56544
-9.56549
-9.56552
-9.56554
-9.56553
-9.5655
-9.56546
-9.56541
-9.56535
-9.56529
-9.56525
-9.56521
-9.56518
-9.56517
-9.56516
-9.56517
-9.56517
-9.56517
-9.56517
-9.66318
-9.66319
-9.66318
-9.66317
-9.66315
-9.66314
-9.66314
-9.66315
-9.66318
-9.66322
-9.66326
-9.6633
-9.66333
-9.66335
-9.66336
-9.66335
-9.66332
-9.66329
-9.66325
-9.66321
-9.66318
-9.66314
-9.66312
-9.66311
-9.6631
-9.6631
-9.6631
-9.66311
-9.66311
-9.66311
-9.76108
-9.76108
-9.76107
-9.76106
-9.76105
-9.76105
-9.76105
-9.76105
-9.76106
-9.76108
-9.7611
-9.76111
-9.76112
-9.76113
-9.76113
-9.76112
-9.76111
-9.7611
-9.76109
-9.76107
-9.76106
-9.76105
-9.76104
-9.76104
-9.76104
-9.76103
-9.76104
-9.76104
-9.76104
-9.76104
4844.8
4844.8
4844.8
4844.8
4844.8
4844.8
4844.8
4844.8
4844.8
4844.8
4844.8
4844.8
4844.8
4844.8
4844.8
4844.8
4844.8
4844.8
4844.81
4844.81
4844.81
4844.81
4844.81
4844.81
4844.82
4844.82
4844.82
4844.82
4844.83
4844.83
4746.7
4746.7
4746.7
4746.7
4746.7
4746.7
4746.7
4746.7
4746.7
4746.7
4746.7
4746.7
4746.7
4746.7
4746.7
4746.7
4746.7
4746.7
4746.7
4746.7
4746.71
4746.71
4746.71
4746.71
4746.71
4746.72
4746.72
4746.72
4746.72
4746.71
4648.59
4648.59
4648.59
4648.59
4648.6
4648.6
4648.6
4648.6
4648.6
4648.6
4648.6
4648.6
4648.6
4648.6
4648.6
4648.6
4648.6
4648.6
4648.6
4648.6
4648.6
4648.61
4648.61
4648.61
4648.61
4648.61
4648.61
4648.61
4648.61
4648.61
4550.49
4550.49
4550.49
4550.49
4550.5
4550.5
4550.5
4550.5
4550.5
4550.5
4550.5
4550.5
4550.5
4550.5
4550.5
4550.5
4550.5
4550.5
4550.5
4550.5
4550.5
4550.51
4550.51
4550.51
4550.51
4550.51
4550.51
4550.51
4550.51
4550.51
4452.4
4452.4
4452.4
4452.4
4452.4
4452.4
4452.4
4452.4
4452.4
4452.4
4452.4
4452.4
4452.4
4452.4
4452.4
4452.4
4452.4
4452.4
4452.41
4452.41
4452.41
4452.41
4452.41
4452.41
4452.41
4452.41
4452.41
4452.41
4452.41
4452.41
4354.3
4354.3
4354.3
4354.3
4354.3
4354.3
4354.3
4354.3
4354.3
4354.3
4354.3
4354.3
4354.3
4354.31
4354.31
4354.31
4354.31
4354.31
4354.31
4354.31
4354.31
4354.31
4354.31
4354.31
4354.31
4354.31
4354.31
4354.31
4354.31
4354.32
4256.21
4256.21
4256.21
4256.21
4256.2
4256.2
4256.2
4256.2
4256.2
4256.2
4256.2
4256.2
4256.21
4256.21
4256.21
4256.21
4256.21
4256.21
4256.21
4256.21
4256.21
4256.21
4256.21
4256.21
4256.21
4256.21
4256.22
4256.22
4256.22
4256.22
4158.12
4158.12
4158.11
4158.11
4158.11
4158.11
4158.11
4158.11
4158.11
4158.1
4158.11
4158.11
4158.11
4158.11
4158.11
4158.11
4158.12
4158.12
4158.12
4158.11
4158.11
4158.11
4158.11
4158.11
4158.11
4158.12
4158.12
4158.12
4158.12
4158.12
4060.02
4060.02
4060.02
4060.02
4060.02
4060.02
4060.01
4060.01
4060.01
4060.01
4060.01
4060.01
4060.01
4060.01
4060.01
4060.02
4060.02
4060.02
4060.02
4060.02
4060.02
4060.02
4060.02
4060.02
4060.02
4060.02
4060.02
4060.02
4060.02
4060.02
3961.93
3961.93
3961.93
3961.93
3961.92
3961.92
3961.92
3961.92
3961.91
3961.91
3961.91
3961.91
3961.91
3961.91
3961.91
3961.92
3961.92
3961.92
3961.92
3961.92
3961.92
3961.92
3961.92
3961.92
3961.92
3961.92
3961.92
3961.92
3961.92
3961.92
3863.83
3863.83
3863.83
3863.83
3863.83
3863.82
3863.82
3863.82
3863.82
3863.82
3863.82
3863.82
3863.81
3863.81
3863.81
3863.82
3863.82
3863.82
3863.82
3863.82
3863.82
3863.83
3863.83
3863.83
3863.83
3863.83
3863.83
3863.83
3863.82
3863.83
3765.73
3765.73
3765.73
3765.73
3765.72
3765.72
3765.72
3765.72
3765.72
3765.72
3765.72
3765.72
3765.72
3765.72
3765.72
3765.72
3765.72
3765.72
3765.73
3765.73
3765.73
3765.73
3765.73
3765.73
3765.73
3765.73
3765.73
3765.73
3765.73
3765.73
3667.62
3667.62
3667.62
3667.62
3667.62
3667.62
3667.63
3667.63
3667.63
3667.63
3667.63
3667.63
3667.63
3667.63
3667.63
3667.63
3667.63
3667.63
3667.63
3667.63
3667.64
3667.64
3667.64
3667.64
3667.63
3667.63
3667.63
3667.63
3667.63
3667.63
3569.52
3569.52
3569.52
3569.52
3569.53
3569.53
3569.53
3569.53
3569.54
3569.54
3569.54
3569.54
3569.54
3569.54
3569.54
3569.54
3569.54
3569.54
3569.54
3569.54
3569.54
3569.54
3569.54
3569.54
3569.54
3569.54
3569.53
3569.53
3569.53
3569.53
3471.42
3471.42
3471.43
3471.43
3471.43
3471.43
3471.44
3471.44
3471.44
3471.44
3471.44
3471.44
3471.44
3471.44
3471.44
3471.44
3471.44
3471.44
3471.44
3471.44
3471.44
3471.44
3471.44
3471.44
3471.44
3471.44
3471.44
3471.44
3471.44
3471.44
3373.33
3373.33
3373.33
3373.33
3373.34
3373.34
3373.34
3373.35
3373.35
3373.35
3373.35
3373.35
3373.35
3373.35
3373.35
3373.35
3373.35
3373.35
3373.35
3373.34
3373.34
3373.34
3373.34
3373.34
3373.34
3373.34
3373.34
3373.34
3373.34
3373.34
3275.24
3275.24
3275.24
3275.24
3275.25
3275.25
3275.25
3275.25
3275.25
3275.25
3275.25
3275.26
3275.26
3275.26
3275.26
3275.25
3275.25
3275.25
3275.25
3275.25
3275.25
3275.25
3275.25
3275.25
3275.24
3275.24
3275.24
3275.24
3275.24
3275.24
3177.15
3177.15
3177.15
3177.15
3177.15