/*--------------------------------*- C++ -*----------------------------------*\
| =========                 |                                                 |
| \\      /  F ield         | OpenFOAM: The Open Source CFD Toolbox           |
|  \\    /   O peration     | Version:  2312                                  |
|   \\  /    A nd           | Website:  www.openfoam.com                      |
|    \\/     M anipulation  |                                                 |
\*---------------------------------------------------------------------------*/
FoamFile
{
    version     2.0;
    format      ascii;
    arch        "LSB;label=32;scalar=64";
    class       volScalarField;
    location    "0.912455";
    object      p_rgh;
}
// * * * * * * * * * * * * * * * * * * * * * * * * * * * * * * * * * * * * * //

dimensions      [1 -1 -2 0 0 0 0];

internalField   nonuniform List<scalar> 
90000
(
4893.85
4893.85
4893.85
4893.85
4893.85
4893.85
4893.85
4893.85
4893.85
4893.85
4893.85
4893.85
4893.85
4893.85
4893.85
4893.85
4893.85
4893.85
4893.86
4893.86
4893.86
4893.86
4893.86
4893.86
4893.87
4893.87
4893.87
4893.87
4893.87
4893.87
4893.85
4893.85
4893.85
4893.85
4893.85
4893.85
4893.85
4893.85
4893.85
4893.85
4893.85
4893.85
4893.85
4893.85
4893.85
4893.85
4893.85
4893.86
4893.86
4893.86
4893.86
4893.86
4893.86
4893.86
4893.87
4893.87
4893.87
4893.87
4893.86
4893.81
4893.85
4893.85
4893.85
4893.85
4893.85
4893.85
4893.85
4893.85
4893.85
4893.85
4893.85
4893.85
4893.85
4893.85
4893.85
4893.85
4893.85
4893.85
4893.85
4893.86
4893.86
4893.86
4893.86
4893.86
4893.87
4893.87
4893.88
4893.9
4893.94
4893.86
4893.85
4893.85
4893.85
4893.85
4893.85
4893.86
4893.86
4893.86
4893.86
4893.86
4893.86
4893.86
4893.85
4893.85
4893.85
4893.85
4893.85
4893.85
4893.85
4893.85
4893.85
4893.86
4893.86
4893.86
4893.87
4893.86
4893.86
4893.85
4893.9
4893.87
4893.85
4893.85
4893.85
4893.85
4893.85
4893.86
4893.86
4893.86
4893.86
4893.86
4893.86
4893.86
4893.86
4893.85
4893.85
4893.85
4893.84
4893.84
4893.84
4893.85
4893.85
4893.86
4893.86
4893.86
4893.87
4893.87
4893.87
4893.86
4893.87
4893.86
4893.85
4893.84
4893.84
4893.85
4893.85
4893.85
4893.86
4893.86
4893.87
4893.87
4893.87
4893.87
4893.87
4893.86
4893.86
4893.85
4893.85
4893.85
4893.85
4893.85
4893.86
4893.86
4893.87
4893.87
4893.87
4893.86
4893.87
4893.86
4893.86
4893.85
4893.85
4893.84
4893.84
4893.84
4893.85
4893.85
4893.86
4893.86
4893.87
4893.87
4893.87
4893.87
4893.87
4893.87
4893.87
4893.86
4893.86
4893.86
4893.86
4893.86
4893.87
4893.87
4893.87
4893.87
4893.87
4893.87
4893.86
4893.86
4893.86
4893.86
4893.85
4893.84
4893.84
4893.84
4893.85
4893.85
4893.85
4893.86
4893.86
4893.86
4893.87
4893.87
4893.88
4893.88
4893.88
4893.88
4893.88
4893.88
4893.88
4893.88
4893.88
4893.88
4893.87
4893.87
4893.87
4893.87
4893.87
4893.87
4893.87
4893.88
4893.85
4893.85
4893.85
4893.85
4893.85
4893.85
4893.85
4893.85
4893.86
4893.86
4893.86
4893.87
4893.88
4893.89
4893.89
4893.9
4893.9
4893.89
4893.89
4893.88
4893.88
4893.88
4893.87
4893.87
4893.87
4893.87
4893.87
4893.88
4893.89
4893.89
4893.86
4893.88
4893.88
4893.88
4893.88
4893.87
4893.87
4893.86
4893.86
4893.86
4893.86
4893.87
4893.88
4893.89
4893.9
4893.91
4893.91
4893.9
4893.89
4893.89
4893.88
4893.87
4893.87
4893.86
4893.86
4893.86
4893.87
4893.88
4893.89
4893.88
4893.89
4893.93
4893.92
4893.92
4893.91
4893.9
4893.88
4893.87
4893.86
4893.86
4893.86
4893.87
4893.88
4893.89
4893.9
4893.9
4893.9
4893.89
4893.89
4893.88
4893.87
4893.87
4893.86
4893.86
4893.86
4893.86
4893.87
4893.88
4893.87
4893.86
4893.91
4893.96
4893.95
4893.94
4893.93
4893.91
4893.89
4893.88
4893.87
4893.86
4893.86
4893.86
4893.86
4893.87
4893.87
4893.87
4893.87
4893.87
4893.87
4893.87
4893.87
4893.87
4893.87
4893.87
4893.87
4893.87
4893.88
4893.87
4893.87
4893.87
4893.94
4893.97
4893.96
4893.94
4893.92
4893.9
4893.89
4893.87
4893.86
4893.85
4893.85
4893.84
4893.84
4893.84
4893.84
4893.85
4893.85
4893.86
4893.87
4893.88
4893.88
4893.88
4893.88
4893.88
4893.89
4893.89
4893.88
4893.88
4893.88
4893.89
4893.94
4893.93
4893.92
4893.9
4893.89
4893.88
4893.87
4893.86
4893.85
4893.85
4893.85
4893.84
4893.84
4893.83
4893.83
4893.84
4893.85
4893.86
4893.88
4893.89
4893.9
4893.9
4893.9
4893.9
4893.89
4893.89
4893.88
4893.88
4893.88
4893.88
4893.91
4893.87
4893.86
4893.85
4893.85
4893.85
4893.86
4893.86
4893.87
4893.87
4893.87
4893.86
4893.85
4893.85
4893.85
4893.85
4893.87
4893.88
4893.89
4893.9
4893.91
4893.91
4893.9
4893.9
4893.89
4893.88
4893.87
4893.87
4893.86
4893.85
4893.87
4893.81
4893.82
4893.82
4893.83
4893.85
4893.87
4893.89
4893.9
4893.9
4893.89
4893.88
4893.87
4893.86
4893.86
4893.87
4893.88
4893.89
4893.9
4893.9
4893.9
4893.9
4893.9
4893.91
4893.9
4893.89
4893.88
4893.87
4893.86
4893.86
4893.84
4893.79
4893.81
4893.82
4893.85
4893.87
4893.89
4893.91
4893.91
4893.91
4893.9
4893.88
4893.87
4893.87
4893.87
4893.87
4893.87
4893.87
4893.88
4893.88
4893.89
4893.9
4893.91
4893.92
4893.92
4893.91
4893.9
4893.89
4893.89
4893.91
4893.83
4893.8
4893.82
4893.84
4893.86
4893.88
4893.89
4893.9
4893.9
4893.89
4893.88
4893.88
4893.88
4893.88
4893.88
4893.87
4893.87
4893.86
4893.86
4893.87
4893.89
4893.9
4893.91
4893.92
4893.91
4893.9
4893.9
4893.9
4893.91
4893.92
4893.85
4893.83
4893.84
4893.86
4893.87
4893.88
4893.89
4893.89
4893.89
4893.9
4893.9
4893.91
4893.92
4893.92
4893.91
4893.9
4893.89
4893.88
4893.88
4893.89
4893.9
4893.91
4893.91
4893.89
4893.87
4893.87
4893.87
4893.87
4893.88
4893.85
4893.87
4893.86
4893.87
4893.88
4893.89
4893.9
4893.91
4893.92
4893.93
4893.94
4893.96
4893.97
4893.97
4893.96
4893.94
4893.92
4893.9
4893.9
4893.9
4893.91
4893.92
4893.91
4893.89
4893.87
4893.86
4893.86
4893.87
4893.86
4893.84
4893.83
4893.89
4893.89
4893.9
4893.92
4893.94
4893.95
4893.96
4893.97
4893.98
4893.98
4893.99
4893.98
4893.97
4893.95
4893.93
4893.91
4893.91
4893.91
4893.92
4893.92
4893.91
4893.89
4893.87
4893.87
4893.89
4893.91
4893.91
4893.89
4893.87
4893.89
4893.92
4893.94
4893.95
4893.97
4893.98
4893.98
4893.99
4893.98
4893.98
4893.97
4893.96
4893.94
4893.92
4893.91
4893.9
4893.91
4893.92
4893.93
4893.94
4893.92
4893.9
4893.89
4893.89
4893.91
4893.94
4893.94
4893.93
4893.91
4893.9
4893.92
4893.95
4893.97
4893.97
4893.98
4893.98
4893.98
4893.97
4893.96
4893.96
4893.94
4893.93
4893.91
4893.91
4893.91
4893.93
4893.95
4893.97
4893.97
4893.96
4893.93
4893.92
4893.92
4893.94
4893.97
4893.97
4893.94
4893.92
4893.91
4893.9
4893.89
4893.96
4893.96
4893.96
4893.96
4893.96
4893.96
4893.96
4893.96
4893.96
4893.95
4893.94
4893.93
4893.93
4893.95
4893.97
4893.99
4894
4893.98
4893.96
4893.94
4893.95
4893.98
4894.01
4894.01
4893.98
4893.95
4893.95
4893.94
4893.92
4893.94
4893.95
4893.95
4893.95
4893.96
4893.96
4893.97
4893.98
4893.98
4893.98
4893.96
4893.95
4893.94
4893.95
4893.96
4893.98
4893.97
4893.96
4893.94
4893.94
4893.96
4893.99
4894.02
4894.03
4894.01
4893.99
4893.99
4893.99
4893.99
4894.01
4894.05
4893.95
4893.94
4893.95
4893.96
4893.96
4893.97
4893.97
4893.97
4893.96
4893.94
4893.93
4893.93
4893.94
4893.96
4893.96
4893.95
4893.94
4893.94
4893.96
4893.99
4894.01
4894.01
4893.98
4893.96
4893.97
4893.99
4893.99
4894.01
4894.07
4894
4893.95
4893.94
4893.94
4893.93
4893.93
4893.93
4893.93
4893.93
4893.93
4893.93
4893.94
4893.95
4893.97
4893.98
4893.98
4893.97
4893.97
4893.98
4894
4894.01
4893.99
4893.96
4893.94
4893.94
4893.96
4893.97
4893.97
4894
4894
4893.9
4893.94
4893.91
4893.9
4893.9
4893.9
4893.91
4893.92
4893.93
4893.94
4893.95
4893.97
4893.99
4894
4894
4893.99
4893.99
4893.99
4893.99
4893.98
4893.95
4893.92
4893.91
4893.93
4893.95
4893.97
4893.97
4893.97
4893.96
4893.91
4893.95
4893.92
4893.89
4893.9
4893.9
4893.91
4893.92
4893.93
4893.94
4893.95
4893.96
4893.98
4893.99
4893.99
4893.98
4893.98
4893.98
4893.98
4893.96
4893.93
4893.9
4893.89
4893.91
4893.94
4893.94
4893.93
4893.95
4893.95
4893.9
4893.93
4894.01
4893.91
4893.92
4893.93
4893.94
4893.93
4893.92
4893.91
4893.91
4893.93
4893.96
4893.98
4894
4894
4894
4894.01
4894.01
4893.99
4893.96
4893.93
4893.93
4893.94
4893.93
4893.93
4893.91
4893.9
4893.92
4893.93
4893.91
4894
4893.95
4893.93
4893.96
4893.95
4893.93
4893.91
4893.9
4893.9
4893.92
4893.96
4894
4894.03
4894.04
4894.05
4894.05
4894.04
4894.02
4894
4893.98
4893.97
4893.99
4894
4893.94
4893.91
4893.92
4893.92
4893.92
4893.95
4893.97
4893.95
4893.91
4893.95
4893.95
4893.93
4893.92
4893.91
4893.92
4893.94
4893.97
4894.01
4894.03
4894.04
4894.05
4894.05
4894.05
4894.04
4894.02
4894.01
4894.03
4894.04
4894.03
4894.01
4893.92
4893.92
4893.96
4893.94
4893.9
4893.95
4893.94
4893.85
4893.91
4893.92
4893.92
4893.92
4893.93
4893.95
4893.96
4893.97
4893.98
4893.99
4894
4894.02
4894.05
4894.07
4894.1
4894.1
4894.09
4894.09
4894.12
4894.1
4894.02
4893.98
4893.94
4893.95
4893.97
4893.91
4893.87
4893.92
4893.87
4893.87
4893.9
4893.88
4893.9
4893.91
4893.93
4893.94
4893.94
4893.95
4893.97
4894
4894.04
4894.09
4894.14
4894.17
4894.17
4894.17
4894.16
4894.14
4894.14
4894.09
4893.98
4893.99
4894.02
4894
4893.93
4893.9
4893.9
4893.91
4893.89
4893.89
4893.87
4893.84
4893.86
4893.86
4893.88
4893.91
4893.94
4893.97
4894.01
4894.06
4894.11
4894.17
4894.2
4894.21
4894.19
4894.19
4894.21
4894.19
4894.17
4894.15
4894.09
4894.13
4894.14
4894.03
4893.93
4893.96
4893.95
4893.89
4893.87
4893.8
4893.82
4893.76
4893.77
4893.8
4893.85
4893.89
4893.93
4893.98
4894.04
4894.1
4894.16
4894.21
4894.24
4894.27
4894.28
4894.29
4894.36
4894.32
4894.27
4894.27
4894.25
4894.25
4894.16
4894.02
4893.98
4894.03
4893.92
4893.82
4893.76
4893.77
4893.77
4893.65
4893.7
4893.74
4893.78
4893.83
4893.89
4893.97
4894.06
4894.15
4894.22
4894.28
4894.32
4894.38
4894.45
4894.44
4894.47
4894.4
4894.35
4894.35
4894.33
4894.25
4894.13
4894.05
4894.04
4893.98
4893.8
4893.73
4893.71
4893.73
4893.69
4893.53
4893.58
4893.61
4893.66
4893.75
4893.87
4893.99
4894.09
4894.18
4894.27
4894.37
4894.45
4894.49
4894.59
4894.56
4894.59
4894.54
4894.54
4894.51
4894.44
4894.29
4894.2
4894.14
4894.01
4893.85
4893.7
4893.67
4893.65
4893.55
4893.53
4893.34
4893.37
4893.43
4893.54
4893.67
4893.81
4893.95
4894.08
4894.23
4894.37
4894.51
4894.63
4894.64
4894.75
4894.74
4894.78
4894.72
4894.75
4894.65
4894.51
4894.36
4894.28
4894.17
4893.92
4893.75
4893.67
4893.55
4893.4
4893.36
4893.36
4893.05
4893.1
4893.19
4893.33
4893.5
4893.69
4893.9
4894.12
4894.33
4894.49
4894.61
4894.77
4894.86
4894.96
4894.98
4895.01
4894.9
4894.89
4894.79
4894.63
4894.5
4894.35
4894.12
4893.87
4893.68
4893.53
4893.31
4893.17
4893.2
4893.14
4892.67
4892.72
4892.85
4893.06
4893.31
4893.57
4893.81
4894.06
4894.33
4894.6
4894.8
4894.95
4895.16
4895.22
4895.26
4895.3
4895.24
4895.14
4895.03
4894.82
4894.65
4894.38
4894.07
4893.87
4893.53
4893.27
4893.09
4892.94
4892.8
4892.72
4892.15
4892.25
4892.47
4892.72
4892.97
4893.29
4893.67
4894.06
4894.4
4894.71
4895.08
4895.17
4895.48
4895.55
4895.58
4895.55
4895.54
4895.4
4895.26
4894.99
4894.76
4894.47
4894.06
4893.74
4893.3
4892.93
4892.74
4892.48
4892.18
4892.12
4891.48
4891.66
4891.85
4892.12
4892.53
4893.03
4893.54
4894.01
4894.5
4894.83
4895.32
4895.48
4895.74
4895.85
4895.97
4896.01
4895.91
4895.72
4895.59
4895.29
4894.9
4894.48
4893.99
4893.41
4893.02
4892.58
4892.1
4891.89
4891.67
4891.38
4890.59
4890.67
4890.93
4891.49
4892.08
4892.55
4893.16
4893.85
4894.5
4894.94
4895.43
4895.88
4896.2
4896.36
4896.38
4896.39
4896.37
4896.15
4895.9
4895.5
4895.02
4894.43
4893.9
4893.13
4892.57
4892.06
4891.42
4891.08
4890.74
4890.36
4889.26
4889.46
4889.97
4890.48
4891.11
4892.01
4892.84
4893.52
4894.41
4895.3
4895.72
4896.21
4896.6
4896.72
4896.86
4896.89
4896.81
4896.59
4896.17
4895.71
4895.25
4894.41
4893.56
4892.83
4891.88
4891.13
4890.52
4889.9
4889.38
4888.99
4887.57
4887.95
4888.44
4889.08
4890.05
4891.12
4892.14
4893.34
4894.24
4895.21
4896.11
4896.53
4896.95
4897.26
4897.25
4897.37
4897.25
4896.93
4896.57
4896.08
4895.19
4894.33
4893.22
4892.12
4891.1
4890.02
4889.11
4888.5
4887.88
4887.05
4885.3
4885.67
4886.42
4887.39
4888.43
4889.79
4891.33
4892.75
4894.13
4895.43
4896.21
4896.76
4897.35
4897.57
4897.68
4897.79
4897.59
4897.36
4896.86
4896.27
4895.47
4894.12
4892.71
4891.33
4889.81
4888.45
4887.42
4886.45
4885.74
4884.95
4881.7
4880.86
4883.27
4884.87
4885.44
4887.63
4890.21
4891.93
4893.68
4895.68
4896.54
4896.82
4897.31
4897.92
4897.81
4897.77
4897.95
4897.35
4896.82
4896.49
4895.72
4893.68
4891.93
4890.23
4887.65
4885.39
4884.85
4883.32
4881.16
4881.33
4865.29
4868.06
4875.65
4875.25
4882.62
4885.2
4887.08
4890.11
4892.45
4895.78
4896.75
4895.59
4896.02
4898.51
4896.91
4897.06
4898.62
4896.08
4895.52
4896.64
4895.78
4892.43
4890.11
4887.12
4885.18
4882.64
4875.27
4875.68
4867.14
4865.09
2819.64
3417.66
3060.57
3027.47
3458.91
3515.76
3485.88
3708.47
3740.63
3643.03
4136.12
3721.95
3740.27
4326.83
3867.28
3902.09
4331.99
3762.09
3705.52
4130.32
3645.03
3737.18
3711.64
3485.83
3506.78
3467.59
3029.05
3058.4
3413.78
2825.67
152.277
603.648
189.347
211.233
604.169
592.395
390.495
700.726
666.106
542.048
1014.87
368.581
359.024
1192.75
457.996
485.947
1187.92
374.198
341.177
999.266
544.002
665.808
702.958
391.97
590.747
605.091
211.262
187.544
603.814
154.609
3.20506
14.7389
1.58495
6.21762
18.3635
7.7752
12.8691
40.6101
17.1546
10.9905
13.7898
3.34929
17.7207
10.9296
5.75514
4.26098
9.74928
22.3493
4.22796
12.0005
10.627
17.3455
41.1142
13.0839
7.95714
18.7237
6.39451
1.61045
14.0754
3.26735
0.225217
0.772629
0.389597
2.42915
1.80902
2.59087
2.74334
6.43415
2.22202
1.36691
2.19096
1.6628
8.23111
2.59436
1.33374
1.05401
3.29569
7.81866
2.1621
2.63587
1.29235
2.31978
6.31736
2.80422
2.55853
1.80673
2.61956
0.386565
0.903411
0.253758
0.102222
0.124648
0.262223
0.0885911
0.264036
1.56896
1.27274
0.601605
2.25235
0.221267
0.346
0.257697
0.91143
0.278386
0.268889
0.334503
0.320408
1.10487
0.308472
0.482165
0.209348
2.32157
0.601754
1.34361
1.58361
0.265839
0.0959389
0.257682
0.136619
0.116058
0.00530962
0.00418324
0.00896598
-0.000103035
-0.000179065
0.0702659
0.128104
-0.00243714
0.0324659
0.138184
0.0120615
-0.00211197
0.066443
0.0259795
0.0317752
0.0323014
0.0311584
0.097164
-0.00552393
0.00530698
0.13476
0.02917
-0.00133082
0.133412
0.0725012
-0.000273331
-7.97262e-05
0.00945751
0.00431687
0.00480714
-0.00412564
-0.000368969
-0.0051927
-0.016849
-0.0246604
-0.0301221
-0.033944
-0.0371628
-0.0360349
-0.0249451
-0.0381019
-0.0275813
-0.019938
-0.0162922
0.0124639
0.0142365
-0.0240425
-0.0191886
-0.0281244
-0.0389532
-0.0259506
-0.0359228
-0.0375538
-0.0345214
-0.0305976
-0.0251203
-0.0172995
-0.00564918
-0.00135661
-0.00471733
-0.0145126
-0.0152258
-0.0176976
-0.0213351
-0.0253565
-0.0292007
-0.0320484
-0.0347789
-0.0367895
-0.0379608
-0.0394571
-0.0409849
-0.0426341
-0.0403907
-0.0279446
-0.0247919
-0.0405156
-0.042751
-0.0410511
-0.0397772
-0.0383597
-0.0372379
-0.0352413
-0.0325877
-0.0297388
-0.0259267
-0.021855
-0.0182518
-0.0156977
-0.0150112
-0.0178516
-0.0185045
-0.0201539
-0.0222543
-0.0247282
-0.027229
-0.0294416
-0.0314013
-0.0330007
-0.0342157
-0.0353206
-0.0365159
-0.0375209
-0.0380188
-0.0384569
-0.0384835
-0.0380078
-0.0376448
-0.0367381
-0.0356477
-0.0345846
-0.0334655
-0.031876
-0.0299548
-0.0277508
-0.0252792
-0.0228017
-0.0206766
-0.019035
-0.0184404
-0.0189273
-0.0194617
-0.0204652
-0.0218117
-0.023437
-0.0251004
-0.0266294
-0.0280093
-0.0291435
-0.0300357
-0.0308482
-0.0315286
-0.0320583
-0.0324751
-0.0327745
-0.0327907
-0.0325754
-0.032234
-0.0317463
-0.0311431
-0.0304282
-0.0296047
-0.028483
-0.0271206
-0.0255872
-0.0239636
-0.022368
-0.0210296
-0.0200203
-0.0195478
-0.0189246
-0.0192801
-0.0199244
-0.0207878
-0.0217943
-0.0228439
-0.0238585
-0.0247139
-0.0254587
-0.0260806
-0.0265379
-0.0268688
-0.0271203
-0.0273183
-0.0274316
-0.0274416
-0.0273944
-0.0272869
-0.0271245
-0.0268178
-0.0264385
-0.0259057
-0.0251856
-0.024305
-0.0233118
-0.0222945
-0.0213055
-0.0204526
-0.0198217
-0.0195103
-0.0182856
-0.018493
-0.0188645
-0.0193736
-0.0199613
-0.0205574
-0.0211544
-0.0216609
-0.0220487
-0.0223526
-0.022555
-0.0227075
-0.0227894
-0.0228178
-0.0228057
-0.0228281
-0.0228858
-0.0229167
-0.0229442
-0.0228477
-0.0227121
-0.0224506
-0.0220723
-0.0215895
-0.0210279
-0.020415
-0.019845
-0.0193618
-0.01897
-0.0187938
-0.0172091
-0.0173002
-0.0174842
-0.0177496
-0.0180307
-0.0183474
-0.0186236
-0.0188034
-0.0189171
-0.0189996
-0.0190275
-0.0190188
-0.0189559
-0.0188967
-0.0188579
-0.0188838
-0.0189745
-0.0190767
-0.0191924
-0.0192823
-0.0193448
-0.0193054
-0.0191879
-0.0190007
-0.0187576
-0.0184636
-0.0181745
-0.0179627
-0.0177435
-0.0176534
-0.0158947
-0.0158905
-0.0159731
-0.0160667
-0.0161495
-0.0162146
-0.0162434
-0.016226
-0.0161666
-0.0160719
-0.0159479
-0.0158128
-0.0156659
-0.0155426
-0.0154808
-0.0155123
-0.015615
-0.0157716
-0.0159475
-0.0161666
-0.0163708
-0.0165063
-0.0165806
-0.0166012
-0.0165798
-0.0165373
-0.016454
-0.0163966
-0.0163094
-0.016276
-0.0144501
-0.0144377
-0.0144267
-0.0143838
-0.0143136
-0.0142208
-0.014112
-0.013951
-0.0137385
-0.0135187
-0.0133158
-0.0131068
-0.0128967
-0.012728
-0.0126505
-0.0126835
-0.0127932
-0.0129858
-0.0132194
-0.0135108
-0.0137901
-0.014026
-0.0142367
-0.0144208
-0.0145598
-0.014665
-0.0147304
-0.0147738
-0.0147879
-0.0147972
-0.013019
-0.0129808
-0.0128857
-0.0127675
-0.0126113
-0.0124368
-0.0122173
-0.0119367
-0.0116428
-0.0113758
-0.0111206
-0.0108447
-0.010589
-0.0104116
-0.0103436
-0.0103699
-0.0104712
-0.0106639
-0.0109259
-0.0112507
-0.0115821
-0.0118938
-0.0121944
-0.0124729
-0.0127113
-0.0129027
-0.0130614
-0.013182
-0.0132637
-0.0133003
-0.0116246
-0.01154
-0.0114339
-0.0112812
-0.0110756
-0.0108292
-0.0105341
-0.0102078
-0.00988911
-0.00958671
-0.0092819
-0.00897531
-0.00872121
-0.00855461
-0.00848148
-0.00848584
-0.00857811
-0.00877533
-0.009055
-0.00938411
-0.00972511
-0.0100699
-0.0104219
-0.0107567
-0.0110531
-0.0113015
-0.0115124
-0.0116769
-0.0117901
-0.011842
-0.010291
-0.010238
-0.0101195
-0.00993084
-0.00968739
-0.00939977
-0.00908787
-0.00875517
-0.00841731
-0.0080851
-0.00776231
-0.00746649
-0.00723272
-0.007067
-0.00697256
-0.0069593
-0.00705127
-0.0072532
-0.00752793
-0.00783826
-0.00816833
-0.00852156
-0.00889418
-0.00925711
-0.00958292
-0.00986144
-0.010096
-0.0102817
-0.0104082
-0.0104657
-0.00911172
-0.00905122
-0.00890682
-0.00870691
-0.00844988
-0.00817073
-0.00786628
-0.00752801
-0.00717814
-0.0068437
-0.00653621
-0.00626607
-0.00604693
-0.00587887
-0.00577983
-0.0057704
-0.00586463
-0.00604884
-0.00628958
-0.0065671
-0.00688058
-0.00723006
-0.00759906
-0.0079593
-0.00828909
-0.00857951
-0.00882449
-0.00901482
-0.00913929
-0.00919462
-0.0080469
-0.00795429
-0.00782202
-0.00763348
-0.00739372
-0.00712823
-0.00682041
-0.00648578
-0.00615312
-0.00584616
-0.00556806
-0.00531922
-0.00510624
-0.00493768
-0.004842
-0.00483649
-0.00492
-0.00507497
-0.00528459
-0.00554239
-0.00584315
-0.00617475
-0.00651837
-0.0068563
-0.00717467
-0.00745933
-0.0076955
-0.00787397
-0.0079906
-0.00804667
-0.00706642
-0.00700922
-0.00689881
-0.00671846
-0.00649575
-0.00622452
-0.00592422
-0.0056217
-0.00532715
-0.0050524
-0.00479727
-0.00456368
-0.00436311
-0.00420934
-0.00412504
-0.00411862
-0.00418461
-0.00431312
-0.00449757
-0.00473192
-0.0050044
-0.00530108
-0.00560964
-0.00591923
-0.00621644
-0.00648219
-0.00669993
-0.00686395
-0.00697445
-0.00703133
-0.00626407
-0.00621595
-0.00610142
-0.0059308
-0.00571452
-0.00545531
-0.00519566
-0.00493728
-0.00467508
-0.00442073
-0.00417911
-0.0039611
-0.00378527
-0.00366054
-0.00359185
-0.00357892
-0.00362225
-0.00372368
-0.00388036
-0.00408232
-0.00431609
-0.00457291
-0.00484711
-0.00512925
-0.00540279
-0.00564604
-0.00584293
-0.0059896
-0.00608807
-0.00613841
-0.00558056
-0.00551575
-0.00540933
-0.00526648
-0.00506985
-0.00484868
-0.0046273
-0.00439443
-0.00415395
-0.00391913
-0.00369615
-0.00350182
-0.00335558
-0.00325564
-0.00319203
-0.00316449
-0.00318531
-0.00326522
-0.00339966
-0.00357334
-0.00377275
-0.00399383
-0.00423458
-0.00448537
-0.00472818
-0.00494188
-0.005112
-0.00523589
-0.00531757
-0.00535961
-0.00498157
-0.00493039
-0.00485464
-0.00473629
-0.00456605
-0.00437285
-0.00416631
-0.00395193
-0.00373876
-0.00352924
-0.00333026
-0.00316361
-0.003044
-0.00295979
-0.00289568
-0.00285643
-0.00286134
-0.00292305
-0.00303475
-0.00318043
-0.00334903
-0.00353839
-0.00374588
-0.0039608
-0.00416639
-0.00434591
-0.0044887
-0.0045933
-0.00466395
-0.00470343
-0.00451468
-0.00448106
-0.00441862
-0.00430974
-0.00416082
-0.00398381
-0.00379582
-0.00361434
-0.00343391
-0.00324672
-0.00306791
-0.00292294
-0.0028196
-0.0027429
-0.00268043
-0.00263897
-0.00263472
-0.00267582
-0.00275798
-0.00287231
-0.00301295
-0.00317618
-0.00335435
-0.00353449
-0.00370336
-0.00385139
-0.00397323
-0.00406741
-0.00413459
-0.00417402
-0.00416388
-0.00412995
-0.00406462
-0.00396828
-0.00384018
-0.00368498
-0.00352915
-0.00338194
-0.00322411
-0.00305218
-0.00288983
-0.00275848
-0.00266008
-0.00258526
-0.00252931
-0.00249587
-0.00249093
-0.00251479
-0.00256825
-0.00265214
-0.00276605
-0.00290416
-0.00305428
-0.00320253
-0.00333975
-0.00346238
-0.00356846
-0.00365473
-0.00371712
-0.00375188
-0.00389726
-0.0038611
-0.00380343
-0.00372447
-0.00361392
-0.00348375
-0.0033566
-0.00322739
-0.00307924
-0.00292071
-0.00277555
-0.0026559
-0.00256161
-0.00249178
-0.00244692
-0.00242435
-0.00241844
-0.00242685
-0.00245491
-0.002511
-0.00259841
-0.00271068
-0.00283437
-0.00295627
-0.00306912
-0.00317093
-0.00326011
-0.00333254
-0.00338329
-0.00340956
-0.00371334
-0.0036886
-0.00364093
-0.00356689
-0.00346716
-0.00336025
-0.003253
-0.00313176
-0.00299127
-0.00284768
-0.00271856
-0.00260948
-0.00252182
-0.00245959
-0.0024221
-0.00240101
-0.0023872
-0.00238083
-0.00239019
-0.00242575
-0.00249105
-0.00257989
-0.00268026
-0.00278064
-0.00287372
-0.00295611
-0.00302563
-0.00307978
-0.00311689
-0.00313713
-0.00360857
-0.00358896
-0.00353972
-0.0034643
-0.00338145
-0.00330033
-0.00320846
-0.00309269
-0.00296065
-0.00283038
-0.00271288
-0.00261198
-0.00252945
-0.00246916
-0.00242963
-0.00240278
-0.00238217
-0.00236757
-0.00236735
-0.00238951
-0.00243554
-0.00250095
-0.00257794
-0.00265817
-0.00273426
-0.00280059
-0.00285381
-0.00289319
-0.00292027
-0.00293729
-0.00354714
-0.00352464
-0.00347239
-0.00341258
-0.00335935
-0.00330049
-0.00321361
-0.00309704
-0.00296957
-0.00284853
-0.00273975
-0.00264456
-0.00256644
-0.00250747
-0.00246413
-0.00243115
-0.00240494
-0.00238743
-0.00238087
-0.00238951
-0.00241479
-0.00245627
-0.00251161
-0.00257562
-0.00264029
-0.00269724
-0.00274082
-0.00277024
-0.00278875
-0.00280011
-0.00350342
-0.00348008
-0.00344566
-0.00341388
-0.00338095
-0.00332581
-0.00323241
-0.00311171
-0.00298826
-0.00287625
-0.00277724
-0.00269019
-0.00261767
-0.00255949
-0.00251402
-0.00247797
-0.00244861
-0.00242484
-0.0024084
-0.00240162
-0.00240829
-0.00243203
-0.00247337
-0.00252743
-0.00258448
-0.0026338
-0.00266834
-0.00268746
-0.002696
-0.00269929
-0.00347703
-0.00347165
-0.00345676
-0.00343505
-0.00339822
-0.00333256
-0.00323475
-0.00312145
-0.00301086
-0.00291054
-0.00281966
-0.00273857
-0.00266949
-0.00261284
-0.00256672
-0.0025277
-0.00249258
-0.00245976
-0.00243188
-0.00241363
-0.00241029
-0.00242581
-0.00245904
-0.00250337
-0.00254799
-0.0025831
-0.00260419
-0.00261338
-0.00261519
-0.00261481
-0.00347016
-0.00347913
-0.00346405
-0.00343321
-0.00338638
-0.00331904
-0.00323544
-0.0031451
-0.00305234
-0.00295812
-0.00286705
-0.00278535
-0.00271595
-0.00265819
-0.00260858
-0.00256313
-0.00251959
-0.00247936
-0.00244592
-0.00242506
-0.00241993
-0.00243119
-0.0024542
-0.00248155
-0.0025059
-0.00252312
-0.00253302
-0.00253836
-0.00254226
-0.00254581
-0.00344803
-0.00345239
-0.00343019
-0.00339923
-0.00335891
-0.00330717
-0.00324561
-0.00317378
-0.00309037
-0.00299713
-0.0029033
-0.0028179
-0.00274505
-0.00268263
-0.00262616
-0.00257246
-0.00252185
-0.00247819
-0.00244655
-0.00242963
-0.00242637
-0.00243239
-0.00244157
-0.00244924
-0.00245407
-0.00245794
-0.0024639
-0.0024734
-0.00248488
-0.0024943
-0.00336981
-0.00336658
-0.00335655
-0.00334468
-0.00332197
-0.00328283
-0.00322867
-0.00316017
-0.00307743
-0.0029854
-0.00289392
-0.00281043
-0.00273635
-0.0026685
-0.00260367
-0.00254248
-0.00248946
-0.00245007
-0.00242692
-0.00241795
-0.00241719
-0.00241743
-0.00241397
-0.00240682
-0.00240004
-0.00239872
-0.00240569
-0.00241926
-0.00243354
-0.0024416
-0.00324022
-0.00324681
-0.00326019
-0.00326579
-0.00324847
-0.00320654
-0.00314819
-0.00307807
-0.00300076
-0.00292161
-0.00284511
-0.00277202
-0.00269938
-0.00262548
-0.00255233
-0.00248643
-0.00243565
-0.00240452
-0.00239144
-0.00238968
-0.0023898
-0.00238472
-0.00237236
-0.00235647
-0.00234326
-0.00233784
-0.00234123
-0.00234945
-0.00235566
-0.00235483
-0.00309254
-0.00311185
-0.00313565
-0.00313678
-0.00311148
-0.00306801
-0.00301547
-0.00296042
-0.00290688
-0.00285371
-0.00279792
-0.00273414
-0.00265935
-0.00257673
-0.00249535
-0.00242667
-0.00237954
-0.00235547
-0.00234769
-0.00234769
-0.00234446
-0.00233262
-0.00231243
-0.00228867
-0.00226705
-0.00225136
-0.00224164
-0.00223457
-0.0022262
-0.00221582
-0.00293136
-0.00295447
-0.00296159
-0.0029475
-0.0029216
-0.00289385
-0.0028692
-0.00284771
-0.00282622
-0.00279813
-0.00275506
-0.00269215
-0.00261072
-0.0025204
-0.00243525
-0.00236802
-0.00232514
-0.00230438
-0.00229625
-0.00229138
-0.00228008
-0.00225854
-0.00222875
-0.00219426
-0.0021592
-0.00212654
-0.00209755
-0.00207213
-0.00205022
-0.00203374
-0.00274144
-0.00275222
-0.00273865
-0.00272
-0.00271063
-0.00271252
-0.00272085
-0.00272931
-0.00272962
-0.00271271
-0.00267121
-0.00260535
-0.00252187
-0.00243429
-0.00235693
-0.00229941
-0.00226378
-0.00224465
-0.00223235
-0.00221901
-0.00219768
-0.0021661
-0.00212507
-0.00207723
-0.00202589
-0.00197454
-0.00192625
-0.00188459
-0.00185279
-0.00183438
-0.00250977
-0.00250399
-0.00248736
-0.00248399
-0.00249734
-0.00252142
-0.00254801
-0.00256854
-0.00257427
-0.00255852
-0.00251829
-0.00245776
-0.00238683
-0.00231809
-0.00226154
-0.00222102
-0.00219448
-0.00217579
-0.00215774
-0.00213461
-0.00210259
-0.00206036
-0.00200791
-0.0019473
-0.00188132
-0.00181383
-0.00175013
-0.00169584
-0.00165708
-0.00163807
-0.00224629
-0.00223384
-0.00223358
-0.00224889
-0.00227579
-0.00230696
-0.00233622
-0.00235786
-0.00236524
-0.00235417
-0.00232536
-0.00228484
-0.00224052
-0.00220027
-0.00216795
-0.002143
-0.00212199
-0.00210033
-0.00207364
-0.00203912
-0.00199547
-0.00194222
-0.00187897
-0.00180718
-0.0017295
-0.00165044
-0.00157608
-0.00151391
-0.00147102
-0.00145169
-0.00197613
-0.00197473
-0.00199031
-0.00201471
-0.00204269
-0.00207251
-0.00210222
-0.00212754
-0.00214342
-0.00214754
-0.00214085
-0.00212773
-0.00211254
-0.00209772
-0.00208304
-0.00206617
-0.00204397
-0.00201367
-0.00197421
-0.00192571
-0.00186872
-0.00180336
-0.00172964
-0.00164879
-0.00156358
-0.00147893
-0.00140128
-0.00133799
-0.00129548
-0.00127725
-0.00172751
-0.00173869
-0.00175794
-0.00177977
-0.00180561
-0.00183723
-0.00187271
-0.00190725
-0.00193651
-0.00195847
-0.00197394
-0.00198469
-0.00199146
-0.00199298
-0.00198691
-0.00197042
-0.00194161
-0.0019001
-0.00184709
-0.00178451
-0.00171416
-0.00163732
-0.00155503
-0.00146911
-0.00138275
-0.00130065
-0.00122848
-0.0011719
-0.00113575
-0.00112121
-0.00150176
-0.00151221
-0.00152582
-0.00154492
-0.00157379
-0.00161164
-0.00165361
-0.00169484
-0.001732
-0.00176442
-0.00179266
-0.00181719
-0.00183633
-0.0018476
-0.00184685
-0.00183084
-0.00179831
-0.00174991
-0.00168783
-0.00161532
-0.00153558
-0.00145148
-0.00136547
-0.00128042
-0.00120006
-0.00112846
-0.00106943
-0.00102589
-0.00100071
-0.000991113
-0.00127914
-0.00127648
-0.00128755
-0.00131072
-0.00134583
-0.00138705
-0.00142855
-0.00146703
-0.00150227
-0.00153565
-0.00156914
-0.00160203
-0.00163121
-0.00165176
-0.00165851
-0.00164766
-0.00161778
-0.0015696
-0.00150541
-0.00142944
-0.00134633
-0.00126084
-0.00117698
-0.00109902
-0.00103069
-0.000974949
-0.000931908
-0.000903679
-0.000889102
-0.000885845
-0.00104726
-0.00103868
-0.00105469
-0.00108287
-0.00111776
-0.00115278
-0.00118432
-0.00121281
-0.00124206
-0.00127575
-0.00131499
-0.00135727
-0.0013976
-0.00142919
-0.0014459
-0.00144296
-0.00141866
-0.00137379
-0.00131143
-0.00123654
-0.00115517
-0.00107353
-0.000997245
-0.000930794
-0.000877028
-0.000836951
-0.000811775
-0.000797825
-0.000791786
-0.000791924
-0.000826777
-0.000826438
-0.000846212
-0.000870703
-0.00089408
-0.000913516
-0.00093074
-0.00095066
-0.000978705
-0.00101774
-0.00106674
-0.00112087
-0.00117202
-0.00121199
-0.00123394
-0.00123454
-0.00121267
-0.00116955
-0.00110912
-0.00103724
-0.000960976
-0.000887362
-0.000822344
-0.000769873
-0.00073171
-0.000707218
-0.000693946
-0.000689094
-0.000688455
-0.000689252
-0.000641679
-0.000656338
-0.000671113
-0.000681093
-0.000685074
-0.000686718
-0.000692751
-0.000709933
-0.000742296
-0.000789735
-0.000847379
-0.000906485
-0.000959436
-0.000999305
-0.00102013
-0.0010192
-0.0009955
-0.0009516
-0.00089271
-0.000825599
-0.000757451
-0.00069488
-0.000643037
-0.00060468
-0.000580341
-0.000568345
-0.000564864
-0.000565756
-0.000566814
-0.000567217
-0.000488742
-0.000507795
-0.000511502
-0.000504687
-0.00049209
-0.000481836
-0.000482536
-0.000499913
-0.000534512
-0.000582635
-0.000637604
-0.000692559
-0.00073945
-0.000771977
-0.000786168
-0.00077921
-0.00075228
-0.000709494
-0.000656326
-0.000598985
-0.000543571
-0.000495284
-0.000457734
-0.000432441
-0.000418866
-0.000414654
-0.000416277
-0.00041974
-0.000421347
-0.000421293
-0.000329293
-0.000340139
-0.000334402
-0.000319533
-0.000302037
-0.000289684
-0.000289304
-0.00030406
-0.000332673
-0.000371038
-0.000412804
-0.000452111
-0.000483315
-0.000502239
-0.000506683
-0.000496159
-0.000472735
-0.000439726
-0.000401241
-0.000361742
-0.000325107
-0.000294477
-0.000271853
-0.00025777
-0.000251464
-0.000250998
-0.000253775
-0.000256929
-0.000258162
-0.000257803
-0.000127475
-0.000127085
-0.000121346
-0.000112466
-0.00010294
-9.60943e-05
-9.50244e-05
-0.000101014
-0.000113098
-0.000129
-0.00014561
-0.000160373
-0.000171246
-0.000177085
-0.000177437
-0.000172602
-0.000163407
-0.000151121
-0.000137222
-0.000123246
-0.000110383
-9.968e-05
-9.19622e-05
-8.72554e-05
-8.51249e-05
-8.4865e-05
-8.56706e-05
-8.64416e-05
-8.65345e-05
-8.60426e-05
4893.85
4893.85
4893.85
4893.85
4893.85
4893.85
4893.85
4893.85
4893.85