/*--------------------------------*- C++ -*----------------------------------*\
| =========                 |                                                 |
| \\      /  F ield         | OpenFOAM: The Open Source CFD Toolbox           |
|  \\    /   O peration     | Version:  2312                                  |
|   \\  /    A nd           | Website:  www.openfoam.com                      |
|    \\/     M anipulation  |                                                 |
\*---------------------------------------------------------------------------*/
FoamFile
{
    version     2.0;
    format      ascii;
    arch        "LSB;label=32;scalar=64";
    class       surfaceScalarField;
    location    "0.912455";
    object      phi;
}
// * * * * * * * * * * * * * * * * * * * * * * * * * * * * * * * * * * * * * //

dimensions      [0 3 -1 0 0 0 0];

oriented        oriented;

internalField   nonuniform List<scalar> 
263100
(
-8.45227e-10
1.69045e-09
-8.45227e-10
-1.08319e-09
7.189e-10
-1.01478e-09
-1.77872e-09
1.18291e-09
-9.25611e-10
-2.09296e-09
8.68569e-10
-9.52311e-10
-2.11177e-09
5.26593e-10
-8.55169e-10
-1.79899e-09
1.06152e-10
-7.06096e-10
-1.25376e-09
-2.71955e-10
-4.95408e-10
-6.25717e-10
-5.00728e-10
-2.83812e-10
-1.11957e-10
-4.93622e-10
-1.14197e-10
1.4975e-10
-2.44399e-10
-5.57671e-11
1.97355e-10
9.76756e-11
-1.38344e-10
5.48883e-11
5.24245e-10
-3.4227e-10
-1.23709e-10
8.41777e-10
-6.0527e-10
-1.62158e-10
9.70759e-10
-8.69878e-10
6.77467e-11
8.98232e-10
-1.0731e-09
6.30814e-10
6.22461e-10
-1.1464e-09
1.43288e-09
2.50761e-10
-1.03371e-09
2.19432e-09
-1.9683e-12
-7.59636e-10
2.59313e-09
-5.42869e-11
-3.58481e-10
2.34987e-09
1.58305e-10
6.6486e-11
1.41949e-09
6.59668e-10
2.59291e-10
-2.26135e-10
1.30143e-09
3.5155e-10
-2.32629e-09
1.82811e-09
3.07797e-10
-4.43556e-09
2.05658e-09
1.22293e-10
-5.90218e-09
1.72055e-09
-1.50796e-10
-6.06753e-09
7.7252e-10
-4.77522e-10
-4.67045e-09
-5.0076e-10
-7.53592e-10
-1.58507e-09
-1.94565e-09
-1.0017e-09
3.30933e-09
-2.40341e-09
-2.37525e-09
1.00076e-08
-6.61623e-09
-2.07974e-10
1.53955e-09
-2.07974e-10
-9.64916e-10
9.26473e-10
-2.40717e-10
-1.28448e-09
1.08217e-09
-2.4969e-10
-1.52682e-09
7.80663e-10
-2.52607e-10
-1.58603e-09
3.1122e-10
-2.07693e-10
-1.50482e-09
-1.74891e-10
-1.74223e-10
-1.30035e-09
-5.79074e-10
-1.62767e-10
-9.82763e-10
-8.04744e-10
-1.76405e-10
-5.95674e-10
-7.36469e-10
-2.16605e-10
-1.65952e-10
-4.15128e-10
-2.58392e-10
2.48438e-10
3.1059e-11
-2.95819e-10
6.79505e-10
4.3726e-10
-2.6432e-10
1.07508e-09
7.14287e-10
-1.83283e-10
1.40592e-09
7.39435e-10
-2.88879e-11
1.63216e-09
5.52697e-10
1.62494e-10
1.67503e-09
2.5019e-10
3.39452e-10
1.49666e-09
-2.416e-11
4.32623e-10
1.14729e-09
-1.05867e-10
4.11907e-10
7.11112e-10
7.09737e-11
2.64762e-10
2.01629e-10
6.02254e-10
3.3533e-11
-3.47061e-10
1.33704e-09
-1.28127e-10
-8.61847e-10
2.10397e-09
-2.40466e-10
-1.23102e-09
2.59556e-09
-2.97492e-10
-1.34776e-09
2.53281e-09
-2.08032e-10
-1.18453e-09
1.69088e-09
5.52913e-11
-9.42133e-10
2.00165e-10
5.33496e-10
-7.27801e-10
-1.87828e-09
1.35321e-09
4.14222e-10
-5.26101e-09
2.32347e-09
4.34537e-09
-9.59578e-09
3.35715e-09
1.12985e-08
3.07648e-09
2.99578e-11
1.07267e-09
2.99577e-11
-3.49944e-10
8.73097e-10
-5.45266e-11
-4.98673e-10
8.83803e-10
-5.65041e-11
-6.68106e-10
6.3793e-10
-2.85057e-11
-8.79089e-10
2.72513e-10
-2.40374e-11
-1.08843e-09
-1.22508e-10
-4.96195e-11
-1.21475e-09
-4.36085e-10
-1.6027e-10
-1.19096e-09
-6.16683e-10
-3.0057e-10
-9.16314e-10
-6.37713e-10
-4.18774e-10
-3.65804e-10
-5.07292e-10
-4.74576e-10
4.09264e-10
-3.17942e-10
-4.28635e-10
1.2656e-09
-1.60776e-10
-2.62121e-10
2.00603e-09
-5.88277e-11
1.52634e-11
2.42626e-09
-6.28133e-12
2.86429e-10
2.36124e-09
2.21615e-11
5.32218e-10
1.7908e-09
9.39575e-11
6.42048e-10
8.57939e-10
2.45354e-10
5.65415e-10
-1.68272e-10
5.36265e-10
2.84145e-10
-1.01425e-09
9.13554e-10
-8.61951e-11
-1.41825e-09
1.35637e-09
-4.18605e-10
-1.20243e-09
1.82649e-09
-7.45869e-10
-3.63923e-10
2.15988e-09
-9.05908e-10
8.65867e-10
2.23667e-09
-8.58261e-10
2.28451e-09
1.77491e-09
-6.34885e-10
3.55864e-09
8.26955e-10
-3.86809e-10
4.42608e-09
-4.68213e-10
-1.96314e-10
3.71714e-09
-1.49833e-09
2.94064e-10
1.19606e-09
-3.75461e-09
9.31326e-10
3.11222e-10
-1.2052e-08
3.20977e-09
7.25839e-09
4.19268e-09
2.04392e-10
4.1446e-10
2.04392e-10
2.18883e-10
3.9135e-10
2.7529e-10
3.11261e-10
3.65102e-10
2.76828e-10
2.5246e-10
2.91202e-10
2.89715e-10
6.1332e-12
1.91718e-10
2.40325e-10
-3.68984e-10
5.86393e-11
1.29496e-10
-7.32914e-10
-1.04475e-10
-1.81933e-11
-9.52066e-10
-2.60286e-10
-1.83326e-10
-8.98378e-10
-4.13317e-10
-3.29704e-10
-5.10225e-10
-5.77031e-10
-3.84943e-10
1.60712e-10
-7.46641e-10
-3.31088e-10
9.29554e-10
-8.64493e-10
-1.80424e-10
1.55582e-09
-8.64685e-10
3.80204e-11
1.84549e-09
-6.70817e-10
2.11827e-10
1.63663e-09
-2.52767e-10
3.08219e-10
9.85902e-10
3.03993e-10
2.64158e-10
6.00103e-11
9.46714e-10
5.8985e-11
-8.69607e-10
1.51818e-09
-1.97228e-10
-1.43745e-09
1.88697e-09
-5.25047e-10
-1.37634e-09
1.98782e-09
-7.88101e-10
-5.32314e-10
1.85012e-09
-9.47304e-10
9.40435e-10
1.5906e-09
-9.80444e-10
2.77871e-09
1.15017e-09
-8.42011e-10
4.49167e-09
5.83308e-10
-6.40392e-10
5.60498e-09
-2.62576e-11
-4.19971e-10
6.0594e-09
-7.89392e-10
-3.39763e-10
6.49665e-09
-1.05642e-09
-1.12963e-09
4.00442e-09
1.59554e-10
-1.70424e-09
-2.43856e-09
-4.84686e-09
-1.05644e-09
4.57094e-09
6.88804e-12
4.04482e-10
-4.66209e-10
4.04482e-10
8.41931e-10
-5.02121e-10
5.30294e-10
1.17835e-09
-4.43568e-10
5.42083e-10
1.28052e-09
-3.03598e-10
5.60935e-10
1.10541e-09
-9.24311e-11
5.15427e-10
7.18965e-10
7.45319e-11
4.03789e-10
2.32051e-10
1.31323e-10
2.51719e-10
-2.13702e-10
3.87525e-11
1.06735e-10
-5.14169e-10
-2.03743e-10
5.1159e-12
-6.04244e-10
-5.62867e-10
-5.71114e-11
-5.0543e-10
-9.37271e-10
-8.52666e-11
-3.01132e-10
-1.22564e-09
-5.61073e-11
-1.21654e-10
-1.24825e-09
-3.19258e-11
-3.60593e-11
-9.28605e-10
-7.07959e-11
-1.06968e-10
-2.405e-10
-1.74219e-10
-3.11042e-10
6.34304e-10
-3.3389e-10
-5.84614e-10
1.55032e-09
-5.02645e-10
-7.71311e-10
2.17265e-09
-6.03426e-10
-6.52129e-10
2.32545e-09
-6.63564e-10
-6.41736e-11
2.00174e-09
-6.93541e-10
9.57453e-10
1.39438e-09
-6.64259e-10
2.37043e-09
6.62188e-10
-6.11569e-10
3.78936e-09
1.16307e-10
-5.58465e-10
4.86868e-09
-2.04922e-10
-5.19807e-10
5.20767e-09
-1.39579e-10
-5.06664e-10
4.59177e-09
-1.3603e-11
-4.77328e-10
3.66741e-09
3.20306e-10
-7.79825e-10
2.25016e-09
2.77413e-09
-1.50272e-09
-2.15088e-09
1.52213e-09
-2.22216e-09
4.46632e-09
-2.18218e-09
3.93888e-10
-1.17881e-09
3.93888e-10
1.27934e-09
-1.74117e-09
6.10436e-10
1.86569e-09
-1.46775e-09
6.5025e-10
2.20292e-09
-1.10097e-09
6.40538e-10
2.25019e-09
-5.97192e-10
5.9314e-10
2.01719e-09
-1.21269e-10
5.08453e-10
1.55494e-09
1.98011e-10
4.11506e-10
9.28012e-10
2.7945e-10
3.3521e-10
1.99766e-10
1.20074e-10
2.88552e-10
-5.61126e-10
-2.37313e-10
2.62607e-10
-1.27241e-09
-6.41241e-10
1.9948e-10
-1.85512e-09
-9.22542e-10
3.93678e-11
-2.2121e-09
-9.87242e-10
-1.47366e-10
-2.25387e-09
-7.43109e-10
-3.68973e-10
-1.99391e-09
-1.35532e-10
-5.54631e-10
-1.50224e-09
6.65044e-10
-6.66417e-10
-8.11616e-10
1.41565e-09
-6.54033e-10
-4.79499e-11
1.87774e-09
-5.31491e-10
7.76546e-10
1.80604e-09
-3.52291e-10
1.5983e-09
1.28246e-09
-1.5929e-10
2.38792e-09
5.32543e-10
-1.8965e-11
3.01885e-09
-1.36157e-10
2.37826e-11
3.44863e-09
-4.73241e-10
-4.19899e-11
3.48256e-09
-2.71957e-10
-2.16451e-10
3.09262e-09
5.48551e-10
-5.68991e-10
1.86195e-09
1.96221e-09
-9.98542e-10
9.892e-11
3.31219e-09
-1.42252e-09
-5.93728e-10
5.81046e-09
-2.44265e-09
-2.39435e-09
6.50926e-09
-3.17516e-09
5.15499e-09
-2.95425e-09
1.80476e-10
-1.37489e-09
1.80476e-10
1.35864e-09
-2.94126e-09
3.80262e-10
2.17989e-09
-2.36866e-09
3.69653e-10
2.82424e-09
-1.79887e-09
2.94397e-10
3.22477e-09
-1.05849e-09
2.39976e-10
3.3069e-09
-3.327e-10
2.37311e-10
3.01765e-09
2.78245e-10
2.42001e-10
2.30835e-09
6.6661e-10
2.82935e-10
1.21881e-09
7.79155e-10
3.29012e-10
-1.52401e-10
6.81955e-10
3.04839e-10
-1.62187e-09
4.44426e-10
2.12728e-10
-2.89317e-09
1.56616e-10
2.12474e-11
-3.69679e-09
-1.20516e-10
-2.10777e-10
-3.84338e-09
-2.28259e-10
-4.74787e-10
-3.31286e-09
-1.13466e-10
-6.0885e-10
-2.23127e-09
1.44401e-10
-5.69074e-10
-8.38087e-10
4.19462e-10
-3.70551e-10
5.80701e-10
5.30295e-10
-3.29399e-11
1.78426e-09
3.92852e-10
2.3315e-10
2.56478e-09
5.43339e-12
4.80528e-10
2.8463e-09
-5.15589e-10
6.95352e-10
2.62658e-09
-7.69733e-10
7.25686e-10
2.01456e-09
-5.9342e-10
5.65083e-10
1.05153e-09
2.78464e-10
2.40287e-10
-6.78562e-11
1.78053e-09
-2.43528e-10
-1.17789e-09
3.92735e-09
-8.95613e-10
-2.38061e-09
6.12306e-09
-1.51979e-09
-2.25356e-09
7.96596e-09
-2.05044e-09
-1.83793e-09
8.5663e-09
-2.11459e-09
5.24024e-09
-1.52924e-09
-3.28053e-10
-5.08583e-10
-3.28053e-10
1.04691e-09
-3.73775e-09
-1.56324e-10
2.07741e-09
-2.81036e-09
-2.42153e-10
3.04131e-09
-2.14013e-09
-3.28615e-10
3.83227e-09
-1.28616e-09
-3.3452e-10
4.32246e-09
-3.83313e-10
-2.84232e-10
4.29975e-09
5.2064e-10
-1.38086e-10
3.65148e-09
1.3191e-09
1.18327e-11
2.41971e-09
1.87257e-09
1.05115e-10
7.2629e-10
2.15367e-09
1.61505e-10
-1.13923e-09
2.12828e-09
1.197e-10
-2.77357e-09
1.76594e-09
-1.48443e-11
-3.84401e-09
1.09585e-09
-1.45732e-10
-4.14774e-09
3.34355e-10
-2.10588e-10
-3.63362e-09
-3.58319e-10
-1.76945e-10
-2.47116e-09
-8.97223e-10
-3.72324e-13
-9.72882e-10
-1.16994e-09
2.15417e-10
4.78745e-10
-1.32093e-09
5.00606e-10
1.54974e-09
-1.46076e-09
8.37374e-10
2.03533e-09
-1.59443e-09
1.11059e-09
1.87702e-09
-1.61932e-09
1.20361e-09
1.21586e-09
-1.33664e-09
1.13661e-09
1.8031e-10
-5.83522e-10
9.39199e-10
-1.06106e-09
8.25813e-10
6.60965e-10
-2.24873e-09
2.74292e-09
2.94281e-10
-2.98343e-09
4.922e-09
-5.24319e-11
-3.08777e-09
6.89738e-09
-3.11891e-10
-2.17741e-09
7.83377e-09
-2.89602e-10
-5.62304e-10
7.46737e-09
5.09617e-11
4.39017e-09
7.70862e-10
-1.00722e-09
1.74981e-09
-1.00722e-09
5.80248e-10
-3.92855e-09
-9.12743e-10
1.75999e-09
-2.63452e-09
-9.45166e-10
2.9671e-09
-2.07051e-09
-9.1726e-10
4.0284e-09
-1.25751e-09
-7.96221e-10
4.73119e-09
-2.68779e-10
-5.9768e-10
4.92874e-09
8.29405e-10
-3.59079e-10
4.4769e-09
1.99612e-09
-1.3851e-10
3.40686e-09
2.98839e-09
3.24021e-13
1.85866e-09
3.61995e-09
1.12053e-10
1.32969e-10
3.70778e-09
1.84765e-10
-1.41053e-09
3.14379e-09
2.31597e-10
-2.51471e-09
2.00948e-09
2.92911e-10
-3.03655e-09
5.72804e-10
4.18796e-10
-2.9742e-09
-8.322e-10
5.64823e-10
-2.46294e-09
-1.99319e-09
7.32746e-10
-1.69387e-09
-2.77708e-09
9.5606e-10
-9.28038e-10
-3.16899e-09
1.15089e-09
-3.73198e-10
-3.24973e-09
1.24602e-09
-1.25632e-10
-3.08522e-09
1.2067e-09
-2.26967e-10
-2.6568e-09
1.07862e-09
-6.88415e-10
-1.84956e-09
9.28283e-10
-1.37392e-09
-6.66151e-10
7.79962e-10
-2.09318e-09
9.91753e-10
6.63249e-10
-2.63449e-09
2.93279e-09
5.85433e-10
-2.66017e-09
4.67444e-09
6.33926e-10
-1.93056e-09
5.79615e-09
8.33949e-10
-5.66783e-10
5.75765e-09
1.22662e-09
7.03601e-10
4.92117e-09
1.77937e-09
3.3078e-09
2.12258e-09
-1.2234e-09
4.48152e-09
-1.2234e-09
2.42985e-10
-3.82574e-09
-1.03657e-09
1.38442e-09
-2.36793e-09
-9.47293e-10
2.51635e-09
-2.00398e-09
-7.92085e-10
3.49209e-09
-1.3499e-09
-5.4907e-10
4.14665e-09
-3.75709e-10
-2.94378e-10
4.35152e-09
8.56528e-10
-5.66507e-11
4.15565e-09
2.1972e-09
1.06311e-10
3.54495e-09
3.45298e-09
2.15313e-10
2.65938e-09
4.23785e-09
3.18373e-10
1.63787e-09
4.32005e-09
4.61811e-10
6.13155e-10
3.56935e-09
6.65406e-10
-3.40673e-10
2.1381e-09
9.05503e-10
-1.19162e-09
3.65106e-10
1.14226e-09
-1.98937e-09
-1.30889e-09
1.34343e-09
-2.65378e-09
-2.73659e-09
1.44342e-09
-3.13718e-09
-3.68584e-09
1.38194e-09
-3.33369e-09
-4.16343e-09
1.13441e-09
-3.26458e-09
-4.21275e-09
8.05236e-10
-3.02721e-09
-3.91567e-09
4.99957e-10
-2.71921e-09
-3.29287e-09
2.66423e-10
-2.41513e-09
-2.29047e-09
1.42792e-10
-2.19831e-09
-9.12903e-10
1.30579e-10
-1.9677e-09
7.48724e-10
2.17402e-10
-1.56154e-09
2.39892e-09
4.24114e-10
-8.02879e-10
3.55171e-09
7.16498e-10
2.72891e-10
3.90709e-09
1.17067e-09
1.15149e-09
3.54898e-09
1.63879e-09
1.18755e-09
3.30586e-09
1.80086e-09
3.29236e-09
1.26842e-09
-4.9276e-10
5.78436e-09
-4.9276e-10
3.67113e-10
-3.93485e-09
-2.35699e-10
9.0645e-10
-2.4487e-09
-1.69911e-11
1.37884e-09
-2.25674e-09
1.57209e-10
1.71632e-09
-1.76305e-09
3.6981e-10
1.8943e-09
-8.81781e-10
5.32563e-10
1.96881e-09
3.3923e-10
5.63404e-10
2.03048e-09
1.69688e-09
4.91242e-10
2.20071e-09
2.8852e-09
4.03193e-10
2.36741e-09
3.64358e-09
4.06512e-10
2.42871e-09
3.69296e-09
5.32095e-10
2.19455e-09
2.99597e-09
7.65585e-10
1.4864e-09
1.7627e-09
1.02815e-09
2.54222e-10
3.3549e-10
1.18182e-09
-1.37902e-09
-9.44453e-10
1.15337e-09
-3.12963e-09
-2.07555e-09
9.34771e-10
-4.62962e-09
-2.88732e-09
5.1522e-10
-5.55004e-09
-3.41085e-09
-2.87823e-11
-5.79993e-09
-3.74535e-09
-3.93134e-10
-5.35923e-09
-3.74991e-09
-7.26226e-10
-4.43661e-09
-3.35764e-09
-8.92443e-10
-3.28463e-09
-2.54899e-09
-8.27972e-10
-2.14533e-09
-1.30012e-09
-5.92118e-10
-1.05515e-09
1.50244e-10
-2.65063e-10
3.20402e-11
1.47438e-09
8.4782e-11
1.08924e-09
2.29896e-09
4.09702e-10
1.74825e-09
2.68365e-09
6.97331e-10
1.59904e-09
2.97239e-09
7.5116e-10
7.60976e-10
3.74797e-09
3.22448e-10
3.87382e-09
4.72714e-11
1.02981e-09
4.02689e-09
1.02981e-09
4.05941e-10
-4.11757e-09
1.18904e-09
-2.14378e-10
-2.98756e-09
1.471e-09
-9.28878e-10
-2.76329e-09
1.46113e-09
-1.60982e-09
-2.32761e-09
1.40187e-09
-2.10272e-09
-1.45342e-09
1.1367e-09
-2.1393e-09
-3.79734e-10
7.53749e-10
-1.62598e-09
7.94824e-10
3.29777e-10
-5.50298e-10
1.74152e-09
-3.02398e-11
7.94859e-10
2.31687e-09
-1.42556e-10
2.00416e-09
2.45148e-09
-1.12332e-10
2.58219e-09
2.26804e-09
-1.76206e-11
2.22383e-09
1.87419e-09
4.91871e-11
9.21336e-10
1.41684e-09
-1.23402e-11
-1.02595e-09
9.2008e-10
-1.84356e-10
-3.24821e-09
4.07892e-10
-5.47773e-10
-5.18681e-09
-2.38118e-10
-9.90508e-10
-6.30851e-09
-1.09066e-09
-1.43786e-09
-6.46462e-09
-1.97306e-09
-1.78143e-09
-5.73025e-09
-2.70248e-09
-1.84905e-09
-4.41932e-09
-2.97525e-09
-1.65651e-09
-2.87467e-09
-2.65978e-09
-1.30874e-09
-1.32748e-09
-1.7854e-09
-8.84585e-10
9.89767e-11
-6.38942e-10
-4.57237e-10
1.32093e-09
4.45298e-10
-6.15481e-11
2.12057e-09
1.37191e-09
1.70109e-10
2.17841e-09
2.26726e-09
2.96715e-10
1.51836e-09
3.38523e-09
9.72361e-11
7.33194e-10
4.41523e-09
-7.16984e-11
4.25257e-09
2.19072e-10
2.59992e-09
-9.61315e-10
2.59992e-09
9.5606e-12
-3.66094e-09
2.27324e-09
-2.15254e-09
-2.88541e-09
2.14811e-09
-4.11488e-09
-2.52994e-09
1.75724e-09
-5.75014e-09
-1.93647e-09
1.21274e-09
-6.78303e-09
-1.01805e-09
5.15646e-10
-6.75728e-09
-3.72811e-10
-1.50608e-10
-5.70558e-09
2.46936e-10
-6.43087e-10
-3.74528e-09
6.90888e-10
-1.06007e-09
-1.33368e-09
9.58782e-10
-1.21252e-09
7.96247e-10
1.33654e-09
-1.18766e-09
2.0478e-09
1.95992e-09
-1.13859e-09
2.12468e-09
2.74815e-09
-1.17492e-09
1.11888e-09
3.55118e-09
-1.37922e-09
-5.97345e-10
4.08154e-09
-1.70783e-09
-2.46893e-09
4.06875e-09
-2.03752e-09
-3.97172e-09
3.3402e-09
-2.27711e-09
-4.72004e-09
1.90251e-09
-2.37016e-09
-4.61071e-09
1.46791e-10
-2.2608e-09
-3.84709e-09
-1.45401e-09
-1.95169e-09
-2.76876e-09
-2.425e-09
-1.49844e-09
-1.52043e-09
-2.71553e-09
-1.03129e-09
-2.67119e-10
-2.2811e-09
-6.10863e-10
8.94547e-10
-1.4423e-09
-2.67299e-10
1.81926e-09
-4.37528e-10
-3.23022e-11
2.28757e-09
6.66457e-10
1.629e-10
2.1706e-09
2.04958e-09
2.00418e-10
1.70316e-09
3.431e-09
2.73487e-10
1.29953e-09
4.09919e-09
6.11671e-10
4.35958e-09
1.18338e-09
2.92302e-09
-6.75005e-09
2.92302e-09
-1.5078e-09
-9.9687e-10
1.61845e-09
-4.80124e-09
-8.72476e-10
1.12099e-09
-7.44587e-09
-4.66077e-10
3.98397e-10
-9.40087e-09
9.35243e-11
-2.65579e-10
-1.02836e-08
5.06975e-10
-8.23685e-10
-9.95502e-09
5.405e-10
-1.39978e-09
-8.28027e-09
2.05552e-10
-1.76057e-09
-5.6619e-09
-1.8508e-10
-1.84146e-09
-2.78661e-09
-2.22403e-10
-1.77627e-09
-3.78265e-10
4.9478e-10
-1.64733e-09
1.20943e-09
1.88394e-09
-1.60384e-09
1.70939e-09
3.85718e-09
-1.716e-09
1.35886e-09
5.70338e-09
-1.91398e-09
5.25175e-10
6.88829e-09
-2.06942e-09
-3.56171e-10
7.06161e-09
-2.16522e-09
-9.82715e-10
6.08115e-09
-2.10285e-09
-1.2414e-09
4.07175e-09
-1.82462e-09
-1.20979e-09
1.66647e-09
-1.40093e-09
-1.02482e-09
-4.72129e-10
-9.8049e-10
-7.20226e-10
-1.92942e-09
-6.17339e-10
-3.76709e-10
-2.55393e-09
-3.6531e-10
1.31391e-10
-2.46623e-09
-2.54434e-10
7.93891e-10
-1.84847e-09
-2.68354e-10
1.39005e-09
-8.32868e-10
-2.8138e-10
1.77328e-09
3.97634e-10
-2.32773e-10
1.90804e-09
1.89635e-09
-9.521e-11
1.88891e-09
2.9986e-09
3.84574e-10
1.39476e-09
3.68024e-09
9.15232e-10
5.15735e-09
6.45937e-10
1.21498e-09
-9.29432e-09
1.21498e-09
-3.4609e-09
3.47322e-09
-1.89475e-10
-6.74957e-09
2.69846e-09
-6.37507e-10
-9.20609e-09
2.87308e-09
-1.2091e-09
-1.07536e-08
3.02604e-09
-1.65784e-09
-1.10938e-08
2.53667e-09
-1.8895e-09
-1.00679e-08
1.29493e-09
-1.89998e-09
-8.00795e-09
-1.31987e-10
-1.76784e-09
-5.46347e-09
-1.2648e-09
-1.45383e-09
-2.97617e-09
-1.47984e-09
-1.18626e-09
-9.96805e-10
-4.10245e-10
-1.0198e-09
3.55677e-10
1.62526e-09
-1.04032e-09
1.19847e-09
4.25819e-09
-1.18957e-09
1.70192e-09
6.61844e-09
-1.34912e-09
2.02705e-09
8.01901e-09
-1.35124e-09
2.2865e-09
8.12005e-09
-1.16239e-09
2.45417e-09
6.91239e-09
-7.90921e-10
2.36502e-09
4.71328e-09
-3.09163e-10
1.98672e-09
2.24145e-09
4.80537e-11
1.27539e-09
1.19206e-10
3.25723e-10
4.56785e-10
-1.28602e-09
3.07531e-10
-1.24189e-10
-1.94778e-09
1.63088e-11
-3.01166e-10
-2.03203e-09
-3.02603e-10
-7.68853e-11
-1.60966e-09
-5.72875e-10
3.92396e-10
-7.10441e-10
-7.32946e-10
7.65951e-10
6.20018e-10
-7.34263e-10
1.03029e-09
2.08675e-09
-5.63468e-10
8.79741e-10
3.40259e-09
-3.24257e-10
7.05208e-11
4.93664e-09
-5.02573e-10
6.35992e-09
-1.23331e-09
-9.5127e-10
-7.64464e-09
-9.5127e-10
-4.66524e-09
8.68333e-09
-2.04004e-09
-7.01238e-09
6.74226e-09
-2.15646e-09
-8.47225e-09
6.27153e-09
-2.32419e-09
-8.94575e-09
5.38739e-09
-2.17278e-09
-8.37041e-09
3.64131e-09
-1.85149e-09
-7.0227e-09
1.25077e-09
-1.367e-09
-5.34872e-09
-9.62212e-10
-8.20293e-10
-3.72336e-09
-2.46047e-09
-3.4949e-10
-2.4024e-09
-2.57693e-09
-1.16534e-10
-1.4531e-09
-1.13947e-09
-1.05646e-10
-5.66707e-10
1.18793e-09
-3.32698e-10
4.95459e-10
3.89859e-09
-5.75345e-10
1.7912e-09
6.16521e-09
-6.88515e-10
3.1172e-09
7.42676e-09
-5.40827e-10
4.21838e-09
7.44755e-09
-1.98539e-10
4.81873e-09
6.31238e-09
2.46633e-10
4.59773e-09
4.51258e-09
6.49845e-10
3.58621e-09
2.60379e-09
8.18697e-10
2.12058e-09
9.83542e-10
6.8235e-10
7.10804e-10
-1.71864e-10
2.78981e-10
-2.75747e-10
-9.34379e-10
-1.28118e-10
-7.03747e-10
-1.35871e-09
-4.03307e-10
-7.19657e-10
-1.26759e-09
-5.10511e-10
-6.00907e-10
-4.81356e-10
-5.36534e-10
-5.43555e-10
8.96678e-10
-5.19168e-10
-6.27806e-10
2.47199e-09
-4.91362e-10
-1.13997e-09
4.46092e-09
-7.69697e-10
-1.58782e-09
6.42715e-09
-1.34504e-09
5.64033e-09
-1.25048e-09
-2.63384e-09
-2.7076e-09
-2.63384e-09
-4.34053e-09
1.27064e-08
-2.89516e-09
-5.24321e-09
9.77097e-09
-2.59687e-09
-5.35369e-09
8.36482e-09
-2.35532e-09
-4.7374e-09
6.33439e-09
-1.81824e-09
-3.69893e-09
3.62183e-09
-1.15608e-09
-2.63713e-09
6.61596e-10
-5.11358e-10
-1.98642e-09
-1.55078e-09
-3.46349e-11
-1.75301e-09
-2.89211e-09
2.57536e-10
-1.88032e-09
-2.5636e-09
1.79328e-10
-1.8836e-09
-9.40988e-10
-1.34017e-10
-1.32213e-09
1.25522e-09
-5.65954e-10
-7.47861e-11
3.49067e-09
-7.59893e-10
1.65698e-09
5.25123e-09
-7.08351e-10
3.47208e-09
6.18799e-09
-4.36789e-10
4.82694e-09
6.27354e-09
-2.93587e-11
5.35011e-09
5.63892e-09
2.80546e-10
4.87406e-09
4.60296e-09
4.58331e-10
3.67876e-09
3.39297e-09
3.96553e-10
2.2396e-09
2.17547e-09
1.53049e-10
9.95051e-10
9.59091e-10
-4.56332e-11
1.54496e-10
-1.56377e-10
-1.31278e-10
-3.34506e-10
-1.0078e-09
-6.48701e-11
-7.45704e-10
-1.17158e-09
1.12001e-10
-1.25073e-09
-4.59176e-10
2.6968e-10
-1.79685e-09
9.06548e-10
2.89737e-10
-2.32386e-09
2.60032e-09
8.69784e-11
-2.58453e-09
4.50111e-09
-1.93048e-10
-1.81671e-09
5.28054e-09
-1.63101e-10
2.73242e-09
5.49102e-10
-2.86799e-09
2.68641e-09
-2.86799e-09
-2.72019e-09
1.44751e-08
-2.42387e-09
-2.28168e-09
1.10726e-08
-2.13681e-09
-1.49108e-09
9.08178e-09
-1.80421e-09
-4.60546e-10
6.41851e-09
-1.305e-09
4.8983e-10
3.35771e-09
-7.83491e-10
8.90019e-10
6.26279e-10
-3.98176e-10
6.1463e-10
-1.10612e-09
-1.73361e-10
-3.31214e-10
-1.68591e-09
-2.63799e-10
-1.34516e-09
-1.06971e-09
-4.96261e-10
-1.74542e-09
1.81892e-10
-7.47852e-10
-1.33571e-09
1.67676e-09
-8.49507e-10
-1.4438e-10
3.07072e-09
-7.6581e-10
1.53571e-09
4.07351e-09
-4.67209e-10
3.12974e-09
4.73987e-09
-9.32657e-11
4.17347e-09
5.07227e-09
2.00092e-10
4.46715e-09
5.03492e-09
3.1131e-10
4.04947e-09
4.68472e-09
2.7553e-10
3.21837e-09
3.95815e-09
1.46856e-10
2.32929e-09
2.83712e-09
7.39122e-11
1.54641e-09
1.50263e-09
8.33836e-11
9.05192e-10
6.16978e-11
2.85514e-10
1.23253e-10
-8.49925e-10
5.01766e-10
-8.98116e-10
-8.41735e-10
5.59069e-10
-1.92322e-09
-4.91701e-11
4.37426e-10
-2.6156e-09
1.13589e-09
2.08912e-10
-2.84192e-09
2.37209e-09
1.01545e-10
-2.2532e-09
3.15321e-09
2.97817e-10
-7.80789e-10
2.41308e-09
8.52536e-10
6.66044e-10
8.83188e-10
-2.30169e-09
7.00114e-09
-2.30169e-09
-9.21462e-10
1.44716e-08
-1.72708e-09
1.88364e-10
1.13747e-08
-1.66509e-09
1.35132e-09
9.13078e-09
-1.38076e-09
2.49711e-09
6.22114e-09
-1.03995e-09
3.14268e-09
3.38708e-09
-7.11409e-10
3.01962e-09
1.21481e-09
-4.77216e-10
2.18829e-09
5.59572e-11
-3.44939e-10
9.42498e-10
-1.47854e-10
-3.23282e-10
-1.94089e-10
3.01224e-10
-2.79459e-10
-7.66227e-10
8.86546e-10
-1.75277e-10
-5.93638e-10
1.42357e-09
6.03185e-11
1.47642e-10
1.99679e-09
3.46451e-10
1.1316e-09
2.51754e-09
6.14693e-10
1.96422e-09
3.12829e-09
8.29098e-10
2.4825e-09
3.73284e-09
8.51582e-10
2.66425e-09
4.15015e-09
6.96445e-10
2.62147e-09
4.17933e-09
5.09056e-10
2.42147e-09
3.70065e-09
4.11897e-10
2.07627e-09
2.74785e-09
4.15461e-10
1.47314e-09
1.6357e-09
4.96376e-10
5.21147e-10
5.6316e-10
5.11696e-10
-7.97552e-10
2.64004e-10
2.6323e-10
-2.11076e-09
7.37046e-10
-2.56338e-10
-2.90567e-09
1.40389e-09
-7.32117e-10
-2.94367e-09
1.8742e-09
-8.69151e-10
-2.267e-09
2.18641e-09
-7.46799e-10
-1.02652e-09
2.09361e-09
-4.91366e-10
-3.11198e-10
1.79635e-09
-3.83857e-10
1.38529e-09
-1.10603e-09
-1.50234e-09
9.82343e-09
-1.50234e-09
4.084e-10
1.35048e-08
-1.10452e-09
1.8221e-09
1.08855e-08
-1.01713e-09
3.22914e-09
8.42397e-09
-7.39031e-10
4.40132e-09
5.4574e-09
-4.08382e-10
4.8985e-09
2.95717e-09
-5.01544e-11
4.63158e-09
1.2768e-09
2.18631e-10
3.7295e-09
5.38905e-10
4.18847e-10
2.54014e-09
4.60789e-10
5.70603e-10
1.46548e-09
5.66892e-10
8.06015e-10
7.31442e-10
5.17262e-10
1.12897e-09
3.12302e-10
4.18243e-10
1.49315e-09
-7.93184e-12
6.95624e-10
1.73163e-09
-1.45759e-10
1.09523e-09
1.69369e-09
-1.47458e-10
1.87013e-09
1.39076e-09
5.03132e-11
2.65727e-09
9.87628e-10
4.46132e-10
3.23768e-09
6.07601e-10
8.80238e-10
3.44698e-09
3.94674e-10
1.13352e-09
3.24979e-09
3.32678e-10
9.3263e-10
2.79361e-09
3.48587e-10
7.28175e-11
2.48243e-09
2.54089e-10
-1.26916e-09
2.29923e-09
-1.46147e-10
-2.6663e-09
2.58784e-09
-7.22871e-10
-3.43772e-09
2.7584e-09
-1.12686e-09
-3.25252e-09
2.42417e-09
-1.17248e-09
-2.36842e-09
1.98343e-09
-1.03754e-09
-1.27001e-09
1.82036e-09
-8.26255e-10
-5.04833e-10
2.06684e-09
-8.28109e-10
-6.23948e-10
3.17766e-09
-1.2604e-09
2.2497e-09
-1.36482e-09
-6.50543e-10
1.10602e-08
-6.50543e-10
1.53264e-09
1.14764e-08
-1.81618e-10
3.14081e-09
9.25344e-09
2.26753e-11
4.60542e-09
6.59848e-09
3.7323e-10
5.61746e-09
3.81182e-09
6.47805e-10
5.98062e-09
1.64793e-09
9.53026e-10
5.61844e-09
4.45087e-10
1.19268e-09
4.74137e-09
-5.16632e-11
1.46879e-09
3.64063e-09
-8.40888e-11
1.66933e-09
2.50399e-09
-8.89192e-11
1.86088e-09
1.32571e-09
-1.67337e-10
1.98962e-09
4.68568e-11
-5.43156e-12
1.88402e-09
-1.1579e-09
5.63846e-10
1.55097e-09
-2.02884e-09
1.22841e-09
9.53796e-10
-2.31865e-09
2.02965e-09
3.22775e-10
-1.94524e-09
2.53179e-09
-8.33517e-11
-1.19104e-09
2.87639e-09
-2.35864e-10
-5.23977e-10
3.22633e-09
-2.63627e-10
-3.43516e-10
3.52426e-09
-2.22786e-10
-8.54956e-10
3.91823e-09
-3.37028e-10
-1.88229e-09
4.40454e-09
-6.10284e-10
-3.04861e-09
4.76127e-09
-1.04941e-09
-3.57413e-09
4.48318e-09
-1.19184e-09
-3.19473e-09
3.49839e-09
-1.01009e-09
-2.24275e-09
2.00573e-09
-4.7464e-10
-1.33358e-09
1.10076e-09
3.32657e-13
-7.72482e-10
1.14213e-09
1.30751e-10
-6.20996e-10
2.02481e-09
-7.17706e-11
-4.25642e-10
3.49677e-09
-4.20756e-10
1.94915e-09
-8.83276e-11
3.34139e-10
1.03939e-08
3.34139e-10
2.623e-09
8.39398e-09
7.84566e-10
4.28421e-09
6.49894e-09
1.07142e-09
5.52914e-09
3.89609e-09
1.41937e-09
6.10893e-09
1.44427e-09
1.73591e-09
5.94933e-09
-1.52333e-10
1.90493e-09
5.27491e-09
-8.15224e-10
1.89692e-09
4.33175e-09
-8.12457e-10
1.70965e-09
3.25782e-09
-4.68771e-10
1.53246e-09
1.98153e-09
-5.07319e-12
1.34662e-09
4.42311e-10
5.52878e-10
1.04453e-09
-1.2459e-09
1.34414e-09
6.04382e-10
-2.64323e-09
2.18621e-09
3.69142e-11
-3.36841e-09
2.57744e-09
-4.04826e-10
-3.24109e-09
2.58651e-09
-5.24418e-10
-2.55143e-09
2.45991e-09
-5.02986e-10
-1.7573e-09
2.5334e-09
-3.45968e-10
-1.42999e-09
3.26651e-09
-2.39059e-10
-1.77627e-09
4.38955e-09
-3.60618e-10
-2.57417e-09
5.54552e-09
-6.67018e-10
-3.34839e-09
6.32052e-09
-1.01635e-09
-3.50103e-09
6.12184e-09
-1.14457e-09
-2.90984e-09
4.71029e-09
-8.06453e-10
-1.81674e-09
2.47811e-09
-7.65309e-11
-1.08111e-09
7.97399e-10
4.81794e-10
-9.7506e-10
4.04428e-10
6.15941e-10
-1.00256e-09
7.65859e-10
4.43177e-10
-8.57925e-10
1.56927e-09
3.64568e-10
-1.60176e-10
2.43605e-09
3.82399e-10
1.41397e-09
2.38113e-10
1.18162e-09
8.01802e-09
1.18162e-09
3.41808e-09
4.37428e-09
1.72562e-09
4.88205e-09
2.9193e-09
2.0377e-09
5.57638e-09
8.73459e-10
2.23724e-09
5.43555e-09
-6.96557e-10
2.19327e-09
4.67769e-09
-1.35137e-09
1.89532e-09
3.70482e-09
-1.2795e-09
1.43211e-09
2.77349e-09
-8.13701e-10
1.01136e-09
1.81357e-09
-5.47438e-11
7.21888e-10
6.45997e-10
9.35619e-10
4.89552e-10
-7.76873e-10
2.06447e-09
2.23248e-10
-2.12328e-09
3.02142e-09
-2.52375e-11
-2.94862e-09
3.44267e-09
-1.86749e-10
-3.00546e-09
2.96233e-09
-1.77038e-10
-2.56932e-09
2.14541e-09
6.70167e-11
-2.04733e-09
1.58907e-09
3.58458e-10
-1.89111e-09
1.8298e-09
5.50399e-10
-2.33999e-09
3.22157e-09
5.1656e-10
-3.12998e-09
5.09934e-09
1.13589e-10
-3.67263e-09
6.49431e-09
-3.96323e-10
-3.61303e-09
6.71251e-09
-4.93969e-10
-2.76838e-09
5.24994e-09
-6.3079e-11
-1.69285e-09
2.96294e-09
5.71094e-10
-1.16723e-09
9.36456e-10
9.48085e-10
-1.50946e-09
1.41224e-10
9.78202e-10
-1.96461e-09
3.32015e-10
5.42995e-10
-2.01862e-09
5.95649e-10
2.67763e-10
-1.41914e-09
8.3323e-10
1.90482e-10
-4.70893e-10
1.26615e-09
1.99238e-10
3.53875e-10
4.73309e-10
1.91549e-09
4.13525e-09
1.91549e-09
3.70669e-09
2.59139e-10
2.28616e-09
4.73349e-09
-5.83562e-10
2.44073e-09
4.77442e-09
-1.53804e-09
2.34683e-09
4.05659e-09
-1.99782e-09
2.02048e-09
3.02475e-09
-1.81007e-09
1.5378e-09
2.09549e-09
-1.35756e-09
1.12407e-09
1.3099e-09
-6.83458e-10
8.57546e-10
5.42907e-10
2.75552e-10
7.207e-10
-3.72449e-10
1.58065e-09
6.0602e-10
-1.32681e-09
2.90947e-09
4.44199e-10
-2.01024e-09
3.64604e-09
3.3403e-10
-2.09256e-09
3.30721e-09
3.915e-10
-1.68951e-09
2.00944e-09
6.1561e-10
-1.28696e-09
7.74368e-10
9.5813e-10
-1.47322e-09
5.19593e-10
1.22152e-09
-2.22548e-09
1.51661e-09
1.0504e-09
-3.10217e-09
3.57698e-09
5.35711e-10
-3.57586e-09
5.47443e-09
1.19488e-10
-3.37189e-09
6.09547e-09
1.90281e-10
-2.34263e-09
5.06122e-09
5.82107e-10
-1.3856e-09
2.97439e-09
1.26487e-09
-1.19378e-09
8.33628e-10
1.90071e-09
-2.05491e-09
-1.19232e-10
1.91125e-09
-3.04429e-09
-1.94769e-10
1.34168e-09
-3.40861e-09
-2.00881e-10
9.232e-10
-3.1522e-09
-3.18404e-10
7.06598e-10
-2.21834e-09
-7.42314e-10
7.1012e-10
-2.16623e-10
-1.78183e-09
1.07731e-09
-2.2512e-09
2.44989e-09
2.27222e-09
-4.29047e-10
2.27222e-09
3.54166e-09
-3.47013e-09
2.56828e-09
4.09795e-09
-3.58452e-09
2.56437e-09
3.7634e-09
-3.3848e-09
2.31099e-09
2.81261e-09
-2.83072e-09
1.922e-09
1.78944e-09
-2.17121e-09
1.54153e-09
9.11687e-10
-1.54414e-09
1.2564e-09
2.06962e-10
-8.31971e-10
1.08939e-09
-4.93496e-10
3.34939e-10
9.12281e-10
-1.17833e-09
1.8839e-09
6.57458e-10
-1.57421e-09
3.18308e-09
3.60143e-10
-1.48946e-09
3.45363e-09
2.71249e-10
-9.43375e-10
2.44706e-09
3.92858e-10
-5.06147e-10
9.80577e-10
6.08815e-10
-6.576e-10
1.54222e-10
7.73372e-10
-1.43078e-09
7.69238e-10
5.53707e-10
-2.37944e-09
2.49694e-09
4.36844e-11
-2.737e-09
4.22804e-09
-1.90066e-10
-2.30728e-09
5.01642e-09
1.26757e-10
-1.13602e-09
4.32303e-09
6.75255e-10
-1.96747e-10
2.59083e-09
1.59228e-09
-2.90519e-10
7.89261e-10
2.35465e-09
-1.49384e-09
-2.66374e-10
2.39621e-09
-3.13825e-09
-3.02769e-10
1.91009e-09
-3.93766e-09
-9.9466e-10
1.64777e-09
-3.87777e-09
-2.11006e-09
1.86925e-09
-3.46015e-09
-2.50163e-09
1.79092e-09
-1.95005e-09
-3.84968e-09
1.63655e-09
6.54503e-10
-6.98645e-09
2.64859e-09
-5.40954e-09
3.93966e-09
2.5069e-09
-5.34895e-09
2.5069e-09
3.13253e-09
-6.43121e-09
2.58885e-09
3.24092e-09
-5.81244e-09
2.34255e-09
2.7522e-09
-4.68368e-09
1.97233e-09
1.94686e-09
-3.42906e-09
1.54594e-09
1.13292e-09
-2.43428e-09
1.19141e-09
3.35423e-10
-1.55135e-09
9.13753e-10
-4.48784e-10
-5.87883e-10
6.59327e-10
-1.18122e-09
9.41076e-10
2.54011e-10
-1.66163e-09
2.597e-09
-1.14359e-10
-1.55939e-09
3.43255e-09
-2.64765e-10
-8.73971e-10
2.9625e-09
-1.4809e-10
-1.43787e-10
1.62358e-09
1.12684e-10
4.70535e-11
4.51456e-10
3.63429e-10
-4.95491e-10
4.19225e-10
3.40621e-10
-1.23723e-09
1.5349e-09
8.64281e-11
-1.50629e-09
2.90959e-09
-7.93801e-12
-9.68603e-10
3.51194e-09
3.00882e-10
1.54623e-10
3.12728e-09
8.50988e-10
9.89373e-10
1.82142e-09
1.72454e-09
7.44753e-10
7.51102e-10
2.14989e-09
-4.94152e-10
1.38157e-10
1.99408e-09
-2.23423e-09
1.15659e-11
1.58471e-09
-3.47088e-09
-2.46045e-10
1.26492e-09
-3.68264e-09
-2.06463e-09
1.31429e-09
-3.28512e-09
-4.30451e-09
1.80414e-09
-2.64782e-09
-5.29876e-09
2.16384e-09
-1.05551e-09
-7.96426e-09
2.50265e-09
4.37949e-10
-1.14204e-08
2.91992e-09
-5.86478e-09
9.27913e-10
2.17906e-09
-9.53255e-09
2.17906e-09
2.3558e-09
-8.30923e-09
1.92372e-09
2.33045e-09
-7.11072e-09
1.46273e-09
2.06041e-09
-5.32973e-09
9.79748e-10
1.67606e-09
-3.65274e-09
6.14779e-10
1.17893e-09
-2.36474e-09
4.10988e-10
5.25894e-10
-1.16516e-09
2.58916e-10
-3.73782e-10
2.85156e-10
4.35438e-11
-1.08839e-09
1.92332e-09
-2.30001e-10
-1.19771e-09
3.06408e-09
-3.16518e-10
-5.47982e-10
3.03762e-09
-2.25325e-10
3.97079e-10
1.89501e-09
1.3924e-10
9.80945e-10
5.4404e-10