/*--------------------------------*- C++ -*----------------------------------*\
| =========                 |                                                 |
| \\      /  F ield         | OpenFOAM: The Open Source CFD Toolbox           |
|  \\    /   O peration     | Version:  2312                                  |
|   \\  /    A nd           | Website:  www.openfoam.com                      |
|    \\/     M anipulation  |                                                 |
\*---------------------------------------------------------------------------*/
FoamFile
{
    version     2.0;
    format      ascii;
    arch        "LSB;label=32;scalar=64";
    class       volVectorField;
    location    "0.912455";
    object      U;
}
// * * * * * * * * * * * * * * * * * * * * * * * * * * * * * * * * * * * * * //

dimensions      [0 1 -1 0 0 0 0];

internalField   nonuniform List<vector> 
90000
(
(-2.7157e-06 7.54688e-06 -2.7157e-06)
(-9.31371e-06 4.53858e-06 -4.13578e-06)
(-1.54747e-05 6.88795e-06 -4.21205e-06)
(-1.95336e-05 5.16308e-06 -5.28663e-06)
(-2.1271e-05 3.42165e-06 -5.56663e-06)
(-1.97676e-05 1.2049e-06 -5.71352e-06)
(-1.53846e-05 -9.85491e-07 -5.37495e-06)
(-9.41422e-06 -2.39862e-06 -4.74713e-06)
(-3.53862e-06 -2.4766e-06 -4.00698e-06)
(5.61812e-07 -1.21784e-06 -3.51294e-06)
(2.07033e-06 1.01193e-06 -3.6519e-06)
(1.36141e-06 3.44988e-06 -4.41541e-06)
(-5.22763e-07 5.39031e-06 -5.62342e-06)
(-1.98916e-06 6.2842e-06 -6.8681e-06)
(-1.01498e-06 5.98621e-06 -7.84014e-06)
(3.30657e-06 4.49353e-06 -8.10417e-06)
(1.03514e-05 2.3453e-06 -7.25074e-06)
(1.83533e-05 4.59089e-07 -5.34192e-06)
(2.43836e-05 -4.82062e-07 -2.74402e-06)
(2.53336e-05 4.5173e-07 -6.4179e-08)
(1.95505e-05 3.25113e-06 1.73547e-06)
(6.85374e-06 6.92672e-06 2.07432e-06)
(-1.22556e-05 1.01818e-05 8.65804e-07)
(-3.4053e-05 1.21163e-05 -2.10306e-06)
(-5.24466e-05 1.10152e-05 -6.21756e-06)
(-6.08746e-05 6.61136e-06 -1.0421e-05)
(-5.46827e-05 -2.0876e-07 -1.39811e-05)
(-3.26654e-05 -1.11296e-05 -1.79059e-05)
(1.59732e-05 -9.05132e-06 -2.65125e-05)
(2.4456e-05 5.43589e-05 -4.38607e-05)
(-9.77111e-07 1.62847e-05 -9.77112e-07)
(-5.82954e-06 9.59801e-06 -1.2596e-06)
(-1.13741e-05 1.26607e-05 -1.51385e-06)
(-1.41028e-05 9.30682e-06 -1.61827e-06)
(-1.56195e-05 4.99173e-06 -1.39374e-06)
(-1.55024e-05 -6.16634e-08 -1.41345e-06)
(-1.40678e-05 -4.47959e-06 -1.58951e-06)
(-1.14524e-05 -6.91297e-06 -1.91851e-06)
(-7.93124e-06 -6.55068e-06 -2.34012e-06)
(-3.86121e-06 -3.44364e-06 -2.67955e-06)
(3.39609e-07 1.1587e-06 -2.77552e-06)
(4.57604e-06 5.80476e-06 -2.33828e-06)
(8.74352e-06 9.05115e-06 -1.52329e-06)
(1.24164e-05 9.90524e-06 -1.6573e-07)
(1.52657e-05 8.42687e-06 1.40647e-06)
(1.66662e-05 4.93528e-06 2.8059e-06)
(1.59867e-05 1.13153e-06 3.59868e-06)
(1.33297e-05 -1.31167e-06 3.53542e-06)
(9.4098e-06 -8.23715e-07 2.5724e-06)
(4.64013e-06 3.39603e-06 1.03586e-06)
(-7.09078e-07 1.01404e-05 -5.17189e-07)
(-6.10031e-06 1.78713e-05 -1.63927e-06)
(-1.06944e-05 2.36965e-05 -2.04705e-06)
(-1.32708e-05 2.51659e-05 -1.50195e-06)
(-1.32466e-05 1.94057e-05 2.3744e-07)
(-1.0355e-05 6.57816e-06 3.305e-06)
(-1.10447e-05 -1.10871e-05 8.81876e-06)
(-5.56031e-06 -3.71714e-05 1.58676e-05)
(2.66239e-05 -5.86364e-05 2.35373e-05)
(2.50517e-05 0.000105788 2.28656e-05)
(-2.86811e-07 1.43489e-05 -2.86812e-07)
(-1.41335e-06 1.01907e-05 -9.33267e-07)
(-3.70936e-06 1.07752e-05 -7.01378e-07)
(-5.7007e-06 7.77798e-06 -3.07915e-07)
(-7.49149e-06 3.2266e-06 -8.02086e-08)
(-9.70473e-06 -1.74105e-06 -1.11782e-07)
(-1.15217e-05 -5.69738e-06 -6.58411e-07)
(-1.22217e-05 -7.71658e-06 -1.55658e-06)
(-1.08808e-05 -7.25781e-06 -2.3172e-06)
(-6.86867e-06 -4.74906e-06 -2.77244e-06)
(-2.04446e-07 -1.41589e-06 -2.63118e-06)
(8.21361e-06 1.5554e-06 -1.64382e-06)
(1.6459e-05 3.35208e-06 1.08848e-07)
(2.24427e-05 3.53923e-06 2.17667e-06)
(2.43053e-05 2.44547e-06 3.98755e-06)
(2.11021e-05 7.29073e-07 5.01971e-06)
(1.34272e-05 -6.6449e-08 4.79342e-06)
(3.27795e-06 8.65729e-07 3.21143e-06)
(-6.43599e-06 4.27226e-06 7.42225e-07)
(-1.28764e-05 9.93803e-06 -2.1406e-06)
(-1.39422e-05 1.64449e-05 -4.33584e-06)
(-8.67929e-06 2.23373e-05 -5.22586e-06)
(2.05652e-06 2.5356e-05 -4.71114e-06)
(1.57877e-05 2.24488e-05 -2.59844e-06)
(2.95158e-05 1.26393e-05 5.63641e-07)
(4.07148e-05 -2.75626e-06 3.55738e-06)
(3.98461e-05 -1.95509e-05 7.87422e-06)
(2.62535e-05 -4.688e-05 1.16102e-05)
(9.68633e-06 -0.000113121 2.75213e-05)
(1.09668e-06 8.94603e-05 2.98817e-05)
(-2.75082e-07 8.06548e-06 -2.75083e-07)
(1.81808e-06 7.25169e-06 3.68913e-07)
(3.63361e-06 6.93136e-06 7.9657e-07)
(3.10447e-06 5.14417e-06 1.36149e-06)
(1.62536e-06 2.61143e-06 1.48144e-06)
(-1.62474e-06 -1.5614e-07 1.19196e-06)
(-5.45998e-06 -2.71494e-06 6.53382e-07)
(-8.6377e-06 -4.54105e-06 -2.20687e-07)
(-9.68442e-06 -5.37925e-06 -1.12217e-06)
(-7.51984e-06 -5.68046e-06 -1.6853e-06)
(-2.14704e-06 -5.65345e-06 -1.58361e-06)
(5.28502e-06 -5.60231e-06 -7.7101e-07)
(1.25916e-05 -5.21713e-06 4.63916e-07)
(1.73581e-05 -4.10336e-06 1.66427e-06)
(1.78107e-05 -1.97081e-06 2.3443e-06)
(1.34507e-05 1.51942e-06 2.25682e-06)
(5.34983e-06 5.83501e-06 1.18339e-06)
(-4.29134e-06 1.03934e-05 -7.35898e-07)
(-1.21796e-05 1.43664e-05 -2.83273e-06)
(-1.49784e-05 1.72465e-05 -4.40707e-06)
(-1.08827e-05 1.89733e-05 -5.31331e-06)
(1.09344e-06 1.93379e-05 -5.29583e-06)
(1.85394e-05 1.73051e-05 -4.13871e-06)
(3.66361e-05 1.16911e-05 -1.77708e-06)
(5.11907e-05 2.88592e-06 1.54675e-06)
(5.94438e-05 -7.92617e-06 3.88467e-06)
(6.36118e-05 -1.60013e-05 9.7061e-07)
(5.52612e-05 -1.90164e-05 -1.77516e-06)
(-1.32905e-06 -8.78644e-05 4.64399e-07)
(-2.37351e-05 6.14817e-05 6.02975e-06)
(4.04689e-07 2.67958e-07 4.04688e-07)
(5.43652e-06 -4.03058e-08 1.99828e-06)
(1.10015e-05 -4.03838e-08 2.50026e-06)
(1.25573e-05 2.04871e-07 3.01703e-06)
(1.22281e-05 6.9506e-07 3.16726e-06)
(9.31708e-06 8.27223e-07 2.95795e-06)
(4.81116e-06 2.22155e-07 2.49575e-06)
(-6.04984e-08 -1.13043e-06 1.98364e-06)
(-3.96931e-06 -3.25913e-06 1.44263e-06)
(-5.89728e-06 -6.1903e-06 8.70274e-07)
(-5.78102e-06 -9.24576e-06 4.41783e-07)
(-4.16646e-06 -1.13584e-05 2.86979e-07)
(-2.00044e-06 -1.14986e-05 5.66081e-08)
(-5.21147e-07 -8.83701e-06 -4.92207e-07)
(-4.23551e-07 -3.04749e-06 -1.36042e-06)
(-1.91027e-06 4.98631e-06 -2.46527e-06)
(-4.52093e-06 1.29816e-05 -3.48147e-06)
(-7.05019e-06 1.9208e-05 -3.99914e-06)
(-7.66184e-06 2.19058e-05 -4.27265e-06)
(-4.50813e-06 2.06701e-05 -4.20294e-06)
(3.72296e-06 1.66781e-05 -3.63749e-06)
(1.64903e-05 1.13219e-05 -2.87397e-06)
(3.09308e-05 5.21706e-06 -1.98707e-06)
(4.367e-05 7.13306e-08 -8.51264e-07)
(5.0981e-05 -3.29908e-06 4.09218e-07)
(4.99492e-05 -6.13303e-06 1.83384e-06)
(4.40827e-05 -6.11423e-06 -1.38467e-07)
(3.07456e-05 1.59437e-05 -4.19148e-06)
(-6.19698e-06 -1.70335e-05 -9.1401e-06)
(-1.63911e-05 4.54035e-05 -1.24091e-05)
(8.3534e-07 -8.27047e-06 8.3534e-07)
(7.78838e-06 -1.13429e-05 2.82343e-06)
(1.63943e-05 -9.71766e-06 3.34074e-06)
(2.05273e-05 -7.10625e-06 3.51663e-06)
(2.24647e-05 -3.45145e-06 3.60559e-06)
(2.14973e-05 -2.10025e-07 3.56416e-06)
(1.79697e-05 1.66219e-06 3.51925e-06)
(1.24806e-05 1.56257e-06 3.50429e-06)
(5.67045e-06 -6.25942e-07 3.43874e-06)
(-1.80915e-06 -4.53531e-06 3.21753e-06)
(-9.23129e-06 -8.92694e-06 2.59465e-06)
(-1.57563e-05 -1.21246e-05 1.14036e-06)
(-2.05055e-05 -1.23327e-05 -7.56695e-07)
(-2.2539e-05 -8.8985e-06 -2.70297e-06)
(-2.14412e-05 -1.81356e-06 -4.42353e-06)
(-1.76618e-05 7.37481e-06 -5.56846e-06)
(-1.17321e-05 1.60681e-05 -5.77367e-06)
(-4.45858e-06 2.14855e-05 -4.99891e-06)
(3.48618e-06 2.17358e-05 -3.5854e-06)
(1.18032e-05 1.71037e-05 -1.79301e-06)
(1.99782e-05 9.88379e-06 -1.93271e-07)
(2.71675e-05 2.21875e-06 1.01489e-06)
(3.25962e-05 -3.36107e-06 1.43937e-06)
(3.50465e-05 -4.39073e-06 6.05306e-07)
(3.33272e-05 2.53754e-07 -1.47264e-06)
(2.49747e-05 8.63864e-06 -4.34195e-06)
(9.98745e-06 1.81301e-05 -7.34438e-06)
(-2.68763e-06 4.43479e-05 -1.28693e-05)
(-1.76146e-05 4.15724e-05 -1.72652e-05)
(-1.44619e-05 4.97477e-05 -1.76663e-05)
(-7.1746e-07 -1.38796e-05 -7.1746e-07)
(6.43469e-06 -2.41113e-05 1.39754e-06)
(1.81161e-05 -1.98209e-05 1.58561e-06)
(2.50554e-05 -1.48975e-05 1.33292e-06)
(3.03082e-05 -8.49182e-06 1.22159e-06)
(3.27899e-05 -2.28381e-06 1.62669e-06)
(3.18235e-05 2.41743e-06 2.31998e-06)
(2.69096e-05 4.72863e-06 3.10955e-06)
(1.79402e-05 4.32394e-06 3.72489e-06)
(5.57241e-06 1.85903e-06 3.65931e-06)
(-8.80655e-06 -1.58893e-06 2.88341e-06)
(-2.27368e-05 -4.84856e-06 1.31472e-06)
(-3.33333e-05 -6.18999e-06 -9.73763e-07)
(-3.8216e-05 -4.94237e-06 -3.43897e-06)
(-3.62667e-05 -9.03767e-07 -5.12936e-06)
(-2.80824e-05 4.84797e-06 -5.62166e-06)
(-1.55716e-05 1.03528e-05 -4.87742e-06)
(-1.29115e-06 1.31256e-05 -2.91058e-06)
(1.20811e-05 1.18805e-05 -9.29628e-08)
(2.21125e-05 6.9606e-06 2.41322e-06)
(2.74599e-05 4.20205e-07 4.18264e-06)
(2.77343e-05 -4.89789e-06 4.80879e-06)
(2.34929e-05 -5.76003e-06 4.17903e-06)
(1.55869e-05 -3.41139e-07 2.27308e-06)
(5.20472e-06 1.17832e-05 -1.05087e-06)
(-6.77022e-06 3.01573e-05 -5.36554e-06)
(-1.80013e-05 4.87683e-05 -9.74538e-06)
(-2.4258e-05 7.13864e-05 -1.2983e-05)
(-2.20925e-05 7.79968e-05 -1.42614e-05)
(-9.4972e-06 5.32285e-05 -1.14032e-05)
(-4.25473e-06 -1.15551e-05 -4.25473e-06)
(1.46474e-06 -3.43747e-05 -3.12914e-06)
(1.6004e-05 -2.67477e-05 -3.2911e-06)
(2.54541e-05 -2.02759e-05 -3.42475e-06)
(3.43416e-05 -1.20871e-05 -2.97511e-06)
(4.08963e-05 -3.55701e-06 -2.20369e-06)
(4.33979e-05 4.11827e-06 -9.11819e-07)
(4.01775e-05 1.00483e-05 7.6084e-07)
(3.08198e-05 1.33384e-05 2.15357e-06)
(1.61163e-05 1.42042e-05 2.7413e-06)
(-1.95919e-06 1.28554e-05 2.51576e-06)
(-1.98107e-05 9.56633e-06 1.36776e-06)
(-3.35873e-05 5.07034e-06 -1.29551e-07)
(-4.05948e-05 8.52144e-07 -1.36419e-06)
(-3.94986e-05 -1.88118e-06 -2.12567e-06)
(-3.09422e-05 -3.09523e-06 -1.80776e-06)
(-1.74341e-05 -3.35543e-06 -2.92783e-07)
(-2.27962e-06 -3.64558e-06 1.97926e-06)
(1.07655e-05 -5.13713e-06 4.31996e-06)
(1.85813e-05 -7.85322e-06 6.08281e-06)
(2.01943e-05 -1.04733e-05 6.88709e-06)
(1.60902e-05 -1.05695e-05 6.65838e-06)
(7.3458e-06 -5.43789e-06 5.44223e-06)
(-4.35218e-06 6.11443e-06 3.56628e-06)
(-1.672e-05 2.36097e-05 7.64238e-07)
(-2.67459e-05 4.56788e-05 -2.64254e-06)
(-3.09621e-05 6.70068e-05 -4.93149e-06)
(-2.76202e-05 8.1319e-05 -5.66804e-06)
(-1.28362e-05 8.19406e-05 -4.33885e-06)
(-8.71748e-07 4.88238e-05 2.29636e-06)
(-8.11827e-06 4.34175e-06 -8.11827e-06)
(-4.20757e-06 -3.91519e-05 -7.59432e-06)
(1.23455e-05 -2.78642e-05 -7.84837e-06)
(2.3277e-05 -2.13714e-05 -7.59937e-06)
(3.4893e-05 -1.27858e-05 -6.5733e-06)
(4.39212e-05 -3.07845e-06 -4.92294e-06)
(4.86154e-05 7.08874e-06 -2.88525e-06)
(4.74876e-05 1.6907e-05 -8.99368e-07)
(3.98967e-05 2.46719e-05 7.51507e-07)
(2.66972e-05 2.93142e-05 2.03953e-06)
(1.00999e-05 2.96477e-05 2.71633e-06)
(-6.57689e-06 2.50515e-05 2.99836e-06)
(-2.00664e-05 1.6033e-05 3.12999e-06)
(-2.82354e-05 4.89169e-06 3.47379e-06)
(-3.04617e-05 -5.839e-06 3.96264e-06)
(-2.7482e-05 -1.46101e-05 4.63765e-06)
(-2.09362e-05 -2.03036e-05 5.70696e-06)
(-1.31031e-05 -2.31403e-05 6.63739e-06)
(-6.27744e-06 -2.41795e-05 7.05918e-06)
(-2.08151e-06 -2.38858e-05 6.69607e-06)
(-1.32624e-06 -2.16026e-05 5.79188e-06)
(-4.17743e-06 -1.58351e-05 4.73502e-06)
(-1.0088e-05 -5.46339e-06 3.5667e-06)
(-1.735e-05 1.00477e-05 2.56641e-06)
(-2.38391e-05 2.943e-05 1.75544e-06)
(-2.69654e-05 4.9152e-05 1.62e-06)
(-2.34297e-05 6.44746e-05 2.33344e-06)
(-1.32882e-05 6.88137e-05 4.74832e-06)
(3.14427e-06 6.21282e-05 8.14187e-06)
(6.75961e-06 3.81565e-05 1.06383e-05)
(-9.29125e-06 3.13772e-05 -9.29125e-06)
(-6.40831e-06 -3.90246e-05 -8.34892e-06)
(9.28508e-06 -2.50932e-05 -8.0254e-06)
(1.90815e-05 -2.02841e-05 -7.17151e-06)
(2.99876e-05 -1.26973e-05 -5.48132e-06)
(3.83198e-05 -2.94301e-06 -3.57782e-06)
(4.27418e-05 8.9279e-06 -1.64911e-06)
(4.28472e-05 2.18212e-05 7.14784e-08)
(3.88054e-05 3.2819e-05 1.38478e-06)
(3.1266e-05 4.00936e-05 2.67231e-06)
(2.16402e-05 4.09341e-05 3.99287e-06)
(1.13057e-05 3.4208e-05 5.57661e-06)
(1.28497e-06 2.1104e-05 7.27665e-06)
(-7.76297e-06 4.62409e-06 8.79775e-06)
(-1.5969e-05 -1.17298e-05 9.97471e-06)
(-2.33296e-05 -2.52916e-05 1.03978e-05)
(-2.91258e-05 -3.41698e-05 9.67075e-06)
(-3.25619e-05 -3.83686e-05 7.67642e-06)
(-3.3158e-05 -3.86699e-05 5.05382e-06)
(-3.15585e-05 -3.58501e-05 2.46688e-06)
(-2.87454e-05 -3.01299e-05 3.24606e-07)
(-2.56035e-05 -2.07076e-05 -1.00697e-06)
(-2.29713e-05 -7.43978e-06 -1.71366e-06)
(-2.07839e-05 9.38791e-06 -1.42922e-06)
(-1.77296e-05 2.73904e-05 -1.3583e-07)
(-1.20528e-05 4.15541e-05 1.73621e-06)
(-2.62477e-06 4.84962e-05 4.61563e-06)
(7.43747e-06 4.56859e-05 7.56431e-06)
(1.32733e-05 3.9589e-05 8.84533e-06)
(7.55786e-06 3.22068e-05 6.23427e-06)
(-3.98809e-06 5.40456e-05 -3.98809e-06)
(-1.35061e-06 -3.87041e-05 -2.49829e-06)
(6.79286e-06 -2.38269e-05 -1.39828e-06)
(1.11732e-05 -2.11796e-05 -2.93145e-07)
(1.54593e-05 -1.53927e-05 1.34211e-06)
(1.80564e-05 -6.1562e-06 2.40981e-06)
(1.93526e-05 6.21346e-06 2.7475e-06)
(2.00059e-05 2.01584e-05 2.50463e-06)
(2.11536e-05 3.22295e-05 2.23253e-06)
(2.29205e-05 4.0143e-05 2.66427e-06)
(2.41838e-05 4.07906e-05 3.95539e-06)
(2.34645e-05 3.32593e-05 5.91105e-06)
(1.89336e-05 1.93379e-05 8.19339e-06)
(9.38624e-06 2.36209e-06 9.77017e-06)
(-5.21822e-06 -1.4188e-05 1.001e-05)
(-2.25661e-05 -2.70649e-05 8.78998e-06)
(-3.904e-05 -3.55899e-05 6.04904e-06)
(-5.13501e-05 -4.01906e-05 2.1863e-06)
(-5.72617e-05 -4.13448e-05 -1.95684e-06)
(-5.61936e-05 -3.92204e-05 -5.12684e-06)
(-4.91845e-05 -3.37163e-05 -7.05712e-06)
(-3.86486e-05 -2.44305e-05 -7.55313e-06)
(-2.70452e-05 -1.09805e-05 -6.91599e-06)
(-1.58561e-05 4.7067e-06 -5.53571e-06)
(-5.0377e-06 1.96457e-05 -3.42682e-06)
(5.92249e-06 2.90476e-05 -3.89653e-07)
(1.48677e-05 3.20653e-05 1.84054e-06)
(1.73068e-05 3.1268e-05 2.62713e-06)
(1.25039e-05 3.38712e-05 6.0543e-07)
(4.48917e-06 3.54146e-05 -1.01109e-06)
(8.05942e-06 5.44367e-05 8.05942e-06)
(8.84822e-06 -4.03136e-05 9.18148e-06)
(-5.64859e-08 -2.72145e-05 1.09022e-05)
(-5.55911e-06 -2.53556e-05 1.04902e-05)
(-1.27693e-05 -2.09411e-05 9.94823e-06)
(-1.87883e-05 -1.23886e-05 8.01511e-06)
(-2.16286e-05 -7.24407e-07 5.29023e-06)
(-1.93634e-05 1.2333e-05 2.33674e-06)
(-1.1427e-05 2.33647e-05 -8.44383e-08)
(1.00464e-06 3.01786e-05 -1.19129e-06)
(1.43763e-05 3.10978e-05 -5.2259e-07)
(2.37963e-05 2.64293e-05 1.24945e-06)
(2.51756e-05 1.76795e-05 2.64529e-06)
(1.67801e-05 7.32863e-06 3.16099e-06)
(1.16858e-07 -2.75463e-06 2.28984e-06)
(-2.12425e-05 -1.09512e-05 -5.23497e-07)
(-4.25414e-05 -1.77921e-05 -4.26421e-06)
(-5.81341e-05 -2.3977e-05 -7.589e-06)
(-6.45361e-05 -2.93948e-05 -1.01735e-05)
(-6.14689e-05 -3.27086e-05 -1.14282e-05)
(-5.10057e-05 -3.18546e-05 -1.13113e-05)
(-3.65145e-05 -2.62431e-05 -1.01208e-05)
(-2.09326e-05 -1.54802e-05 -8.18672e-06)
(-5.93779e-06 -2.5103e-06 -5.93024e-06)
(7.52826e-06 9.49561e-06 -3.53494e-06)
(1.77648e-05 1.792e-05 -1.40385e-06)
(2.21336e-05 2.41389e-05 -1.50273e-07)
(1.8901e-05 3.17656e-05 -8.05639e-07)
(1.19866e-05 4.14641e-05 -1.81126e-06)
(4.52216e-06 4.07275e-05 7.26568e-07)
(2.1572e-05 1.95903e-05 2.1572e-05)
(1.69063e-05 -4.00444e-05 1.94802e-05)
(-1.48146e-05 -3.05613e-05 1.86646e-05)
(-3.11077e-05 -2.77788e-05 1.58684e-05)
(-4.95768e-05 -2.30078e-05 1.19664e-05)
(-6.31859e-05 -1.48866e-05 6.90313e-06)
(-6.84471e-05 -4.84928e-06 1.64727e-06)
(-6.31717e-05 4.78568e-06 -3.36603e-06)
(-4.78584e-05 1.22825e-05 -6.67957e-06)
(-2.54723e-05 1.66336e-05 -8.13469e-06)
(-1.96656e-06 1.90894e-05 -8.05615e-06)
(1.56016e-05 2.11496e-05 -7.33929e-06)
(2.23828e-05 2.29073e-05 -6.81296e-06)
(1.74134e-05 2.44961e-05 -7.33403e-06)
(3.33e-06 2.47083e-05 -8.82447e-06)
(-1.51486e-05 2.20562e-05 -1.05378e-05)
(-3.26264e-05 1.53961e-05 -1.19367e-05)
(-4.40781e-05 4.56468e-06 -1.27943e-05)
(-4.72186e-05 -8.5205e-06 -1.26075e-05)
(-4.26709e-05 -2.02983e-05 -1.13624e-05)
(-3.32584e-05 -2.68674e-05 -9.28945e-06)
(-2.15044e-05 -2.68182e-05 -6.97258e-06)
(-8.9561e-06 -2.04878e-05 -4.672e-06)
(3.17479e-06 -1.0585e-05 -2.60643e-06)
(1.37638e-05 -2.05267e-07 -8.50378e-07)
(2.0895e-05 9.95518e-06 4.79572e-07)
(2.27292e-05 2.18794e-05 9.53202e-07)
(1.96719e-05 3.49771e-05 1.6584e-06)
(1.61813e-05 4.34967e-05 3.78565e-06)
(7.86112e-06 4.31272e-05 7.69827e-06)
(2.71893e-05 -3.8907e-05 2.71893e-05)
(1.39273e-05 -2.73224e-05 1.87107e-05)
(-3.66258e-05 -2.23884e-05 1.54909e-05)
(-6.12698e-05 -1.75996e-05 1.06789e-05)
(-8.46649e-05 -1.10755e-05 5.11232e-06)
(-9.91746e-05 -4.58094e-06 -9.89407e-07)
(-0.00010225 2.9691e-07 -6.33806e-06)
(-9.2122e-05 2.20205e-06 -9.58615e-06)
(-7.01624e-05 2.75029e-06 -1.12681e-05)
(-4.22267e-05 3.89154e-06 -1.16234e-05)
(-1.46555e-05 9.31585e-06 -1.09815e-05)
(5.9284e-06 1.97891e-05 -1.03808e-05)
(1.59405e-05 3.34088e-05 -1.04382e-05)
(1.6256e-05 4.69278e-05 -1.09702e-05)
(9.76332e-06 5.58794e-05 -1.1375e-05)
(6.66043e-07 5.70355e-05 -1.16472e-05)
(-7.08638e-06 4.86745e-05 -1.11301e-05)
(-1.1389e-05 3.14928e-05 -9.47983e-06)
(-1.24188e-05 1.03881e-05 -6.89774e-06)
(-1.12508e-05 -8.88023e-06 -4.21764e-06)
(-8.78275e-06 -2.1779e-05 -1.79262e-06)
(-5.61365e-06 -2.65688e-05 -9.79784e-08)
(-1.49675e-06 -2.41597e-05 6.34435e-07)
(4.33945e-06 -1.68551e-05 6.09894e-07)
(1.08221e-05 -7.26679e-06 6.08492e-07)
(1.61044e-05 5.18899e-06 1.07519e-06)
(1.88679e-05 1.97742e-05 2.10334e-06)
(1.95065e-05 3.20633e-05 4.67508e-06)
(1.73278e-05 3.77598e-05 7.95902e-06)
(7.78973e-06 4.70761e-05 6.2353e-06)
(1.79374e-05 -8.4264e-05 1.79374e-05)
(-4.09039e-06 8.98974e-06 8.87637e-06)
(-5.54378e-05 6.21467e-06 4.38087e-06)
(-8.00747e-05 1.03603e-05 -1.13096e-06)
(-0.000100357 1.52437e-05 -5.57711e-06)
(-0.000110025 1.55532e-05 -8.38704e-06)
(-0.000106668 1.02789e-05 -9.56347e-06)
(-9.09801e-05 9.26912e-07 -9.73616e-06)
(-6.75395e-05 -7.07291e-06 -8.67558e-06)
(-4.1971e-05 -8.54206e-06 -7.61553e-06)
(-1.88927e-05 2.99205e-07 -6.65365e-06)
(-2.11869e-06 1.79799e-05 -6.58298e-06)
(8.35409e-06 4.10639e-05 -7.13024e-06)
(1.48262e-05 6.25531e-05 -7.75439e-06)
(1.87637e-05 7.58899e-05 -7.42752e-06)
(2.16185e-05 7.74644e-05 -5.97914e-06)
(2.38078e-05 6.64003e-05 -3.28195e-06)
(2.43117e-05 4.50381e-05 3.31651e-08)
(2.20734e-05 2.00996e-05 3.36198e-06)
(1.65673e-05 -1.91734e-06 5.43534e-06)
(8.63366e-06 -1.67604e-05 5.91095e-06)
(1.19423e-06 -2.32535e-05 4.81858e-06)
(-2.79967e-06 -2.30924e-05 2.4974e-06)
(-2.38106e-06 -1.7875e-05 6.07081e-07)
(1.3924e-06 -8.64365e-06 -2.73859e-07)
(6.08011e-06 4.63795e-06 -3.70618e-07)
(9.54794e-06 1.90297e-05 5.90363e-07)
(1.09073e-05 3.07721e-05 1.72707e-06)
(3.84696e-06 4.14926e-05 6.34258e-07)
(-1.66312e-06 5.89133e-05 -5.26221e-06)
(9.91562e-07 -9.01487e-05 9.91562e-07)
(-2.49202e-05 6.09947e-05 -7.62757e-06)
(-6.10266e-05 4.86537e-05 -9.03871e-06)
(-7.78773e-05 4.73143e-05 -1.09323e-05)
(-8.77584e-05 4.38506e-05 -1.07241e-05)
(-8.72458e-05 3.24918e-05 -9.4015e-06)
(-7.7346e-05 1.45499e-05 -7.05774e-06)
(-6.19681e-05 -5.18149e-06 -4.15486e-06)
(-4.48937e-05 -1.90596e-05 -1.6265e-06)
(-2.99552e-05 -2.12995e-05 3.51313e-08)
(-1.89862e-05 -9.38334e-06 8.87606e-08)
(-1.00685e-05 1.3327e-05 -1.2685e-06)
(-4.99004e-07 4.08641e-05 -2.91189e-06)
(1.12895e-05 6.4462e-05 -3.65673e-06)
(2.45453e-05 7.80234e-05 -2.78238e-06)
(3.68906e-05 7.86202e-05 -3.34113e-07)
(4.56478e-05 6.66585e-05 2.9199e-06)
(4.7792e-05 4.62477e-05 5.98472e-06)
(4.14962e-05 2.38462e-05 7.83903e-06)
(2.87247e-05 4.87297e-06 7.84215e-06)
(1.3878e-05 -8.01209e-06 6.18923e-06)
(1.42851e-06 -1.48482e-05 3.93591e-06)
(-5.60863e-06 -1.71753e-05 1.99798e-06)
(-7.43987e-06 -1.47175e-05 1.03783e-06)
(-6.61444e-06 -6.35862e-06 7.7764e-07)
(-5.52479e-06 6.97968e-06 7.758e-07)
(-5.59009e-06 2.24096e-05 3.74396e-07)
(-8.62114e-06 3.89051e-05 -1.95079e-06)
(-1.61021e-05 5.83574e-05 -6.50149e-06)
(-1.08747e-05 6.30994e-05 -7.21984e-06)
(-1.36623e-05 -5.47192e-05 -1.36623e-05)
(-3.56469e-05 0.00010898 -1.55615e-05)
(-4.86307e-05 8.56968e-05 -1.41456e-05)
(-5.34798e-05 7.64087e-05 -1.34149e-05)
(-5.09085e-05 6.12571e-05 -1.05164e-05)
(-4.22879e-05 3.77004e-05 -6.65227e-06)
(-3.13732e-05 1.02204e-05 -2.5538e-06)
(-2.23718e-05 -1.42279e-05 9.19635e-07)
(-1.77138e-05 -2.83507e-05 2.79486e-06)
(-1.76887e-05 -2.79473e-05 2.52193e-06)
(-1.91158e-05 -1.2864e-05 3.86675e-07)
(-1.68825e-05 1.10778e-05 -2.62586e-06)
(-8.1506e-06 3.68446e-05 -4.44718e-06)
(7.20557e-06 5.73492e-05 -4.65662e-06)
(2.56649e-05 6.83547e-05 -3.01011e-06)
(4.19055e-05 6.88214e-05 -1.59744e-07)
(5.16242e-05 5.98808e-05 2.09682e-06)
(5.19167e-05 4.54802e-05 3.72156e-06)
(4.32303e-05 2.98221e-05 4.18652e-06)
(2.96442e-05 1.60873e-05 3.7436e-06)
(1.57661e-05 4.60346e-06 2.82037e-06)
(5.03165e-06 -4.98206e-06 2.51633e-06)
(-1.33843e-06 -1.16156e-05 3.34927e-06)
(-5.44183e-06 -1.23044e-05 4.58126e-06)
(-9.89281e-06 -5.04338e-06 5.22751e-06)
(-1.51559e-05 8.68883e-06 4.77185e-06)
(-2.07757e-05 2.61913e-05 2.90789e-06)
(-2.52745e-05 4.66058e-05 -1.61124e-07)
(-2.38031e-05 6.24431e-05 -1.13738e-06)
(-1.07895e-05 4.31736e-05 2.71764e-06)
(-1.88198e-05 1.00978e-06 -1.88198e-05)
(-3.12674e-05 0.000138661 -1.59802e-05)
(-2.45148e-05 0.000107574 -1.44585e-05)
(-1.93305e-05 9.01831e-05 -1.26523e-05)
(-9.84057e-06 6.53061e-05 -9.48705e-06)
(4.85599e-07 3.52956e-05 -5.71441e-06)
(7.619e-06 6.18498e-06 -2.48597e-06)
(8.32155e-06 -1.53086e-05 -5.71895e-07)
(1.87711e-06 -2.43645e-05 -8.39547e-07)
(-8.42325e-06 -1.95787e-05 -2.50079e-06)
(-1.66559e-05 -4.72165e-06 -4.60488e-06)
(-1.73043e-05 1.47461e-05 -5.93089e-06)
(-8.62556e-06 3.31684e-05 -6.13493e-06)
(6.50744e-06 4.69237e-05 -4.72278e-06)
(2.34254e-05 5.48365e-05 -2.45583e-06)
(3.69874e-05 5.68671e-05 -3.57674e-07)
(4.3951e-05 5.35451e-05 1.21815e-06)
(4.32377e-05 4.67775e-05 1.62014e-06)
(3.65963e-05 3.76082e-05 1.1275e-06)
(2.77107e-05 2.65958e-05 1.17181e-06)
(1.91943e-05 1.36235e-05 1.92825e-06)
(1.21093e-05 1.07473e-07 3.35567e-06)
(5.22936e-06 -9.34501e-06 4.95991e-06)
(-3.72522e-06 -1.07711e-05 5.60737e-06)
(-1.41733e-05 -2.99863e-06 4.85894e-06)
(-2.30514e-05 1.02731e-05 3.25144e-06)
(-2.81868e-05 2.60578e-05 1.78595e-06)
(-2.67049e-05 4.03134e-05 2.26681e-06)
(-1.52252e-05 3.97049e-05 4.88722e-06)
(-3.61628e-06 1.55813e-05 5.98406e-06)
(-1.83326e-05 5.12557e-05 -1.83326e-05)
(-1.97304e-05 0.000147957 -1.42986e-05)
(-1.11031e-06 0.000115225 -1.3793e-05)
(7.35423e-06 9.29974e-05 -1.19927e-05)
(1.9417e-05 6.39881e-05 -9.25103e-06)
(2.87234e-05 3.40201e-05 -6.84935e-06)
(3.15426e-05 9.19279e-06 -4.75495e-06)
(2.66402e-05 -5.49401e-06 -3.49475e-06)
(1.59019e-05 -9.06105e-06 -3.31907e-06)
(3.04413e-06 -3.18838e-06 -3.27711e-06)
(-6.03566e-06 6.51694e-06 -3.00134e-06)
(-7.67295e-06 1.68561e-05 -2.03949e-06)
(-2.81691e-06 2.61384e-05 -1.95033e-07)
(6.17e-06 3.31355e-05 2.09959e-06)
(1.55851e-05 3.9359e-05 3.61082e-06)
(2.25634e-05 4.40174e-05 3.97775e-06)
(2.61308e-05 4.60038e-05 3.38126e-06)
(2.67067e-05 4.46908e-05 2.65416e-06)
(2.53684e-05 3.91895e-05 2.35482e-06)
(2.25586e-05 2.89085e-05 2.558e-06)
(1.78182e-05 1.53572e-05 3.34477e-06)
(1.03639e-05 2.70728e-06 3.80055e-06)
(-1.01233e-06 -3.75333e-06 2.63418e-06)
(-1.46685e-05 -1.374e-06 -6.8501e-07)
(-2.57105e-05 6.77904e-06 -3.94466e-06)
(-3.01442e-05 1.58545e-05 -5.2299e-06)
(-2.70056e-05 2.40522e-05 -4.77802e-06)
(-1.69136e-05 2.66931e-05 -3.06143e-06)
(-5.70063e-06 1.93737e-05 -1.71269e-06)
(-7.28099e-07 8.52248e-06 -5.8145e-06)
(-1.42537e-05 8.65641e-05 -1.42537e-05)
(-9.64791e-06 0.000142743 -1.13083e-05)
(1.34491e-05 0.000112903 -1.05636e-05)
(2.52623e-05 8.88811e-05 -8.92841e-06)
(3.8524e-05 5.96572e-05 -6.65987e-06)
(4.73254e-05 3.2344e-05 -4.2553e-06)
(4.84995e-05 1.30119e-05 -1.97217e-06)
(4.2261e-05 3.76834e-06 2.29841e-07)
(3.14799e-05 2.74929e-06 1.81761e-06)
(1.9887e-05 5.75674e-06 3.47844e-06)
(1.05328e-05 8.47206e-06 5.3463e-06)
(4.63248e-06 1.00199e-05 7.35839e-06)
(1.06019e-06 1.26963e-05 8.89877e-06)
(-9.9402e-07 1.70152e-05 9.02832e-06)
(-1.74803e-06 2.36309e-05 7.4892e-06)
(-8.08929e-07 3.11718e-05 5.32494e-06)
(2.44992e-06 3.66236e-05 3.24411e-06)
(6.73823e-06 3.79067e-05 2.07766e-06)
(1.02545e-05 3.44965e-05 1.74918e-06)
(1.07419e-05 2.70575e-05 1.93411e-06)
(5.5819e-06 1.82337e-05 1.59663e-06)
(-5.69708e-06 1.34443e-05 -6.657e-07)
(-1.98276e-05 1.38168e-05 -4.58566e-06)
(-3.10202e-05 1.795e-05 -7.86057e-06)
(-3.43276e-05 2.02356e-05 -8.99301e-06)
(-2.89752e-05 2.04329e-05 -8.57896e-06)
(-1.84885e-05 2.06572e-05 -7.19961e-06)
(-7.98507e-06 2.01642e-05 -6.18064e-06)
(-5.02998e-06 2.37465e-05 -8.15083e-06)
(-3.47627e-06 1.79048e-05 -9.31382e-06)
(-9.1102e-06 0.000106524 -9.1102e-06)
(-2.56323e-08 0.000126514 -6.27193e-06)
(2.47323e-05 0.000102028 -4.81714e-06)
(3.89106e-05 7.62295e-05 -2.35158e-06)
(5.16546e-05 4.75341e-05 6.52198e-07)
(5.88272e-05 2.36079e-05 3.37968e-06)
(5.86649e-05 9.19406e-06 5.32283e-06)
(5.21011e-05 3.22723e-06 7.13219e-06)
(4.20049e-05 2.8207e-06 8.46114e-06)
(3.07006e-05 3.10199e-06 9.95236e-06)
(1.90935e-05 1.71024e-06 1.11711e-05)
(6.76483e-06 1.05524e-06 1.09474e-05)
(-5.7462e-06 3.47597e-06 9.25747e-06)
(-1.64003e-05 9.35775e-06 5.79247e-06)
(-2.23207e-05 1.77912e-05 1.97898e-06)
(-2.16212e-05 2.51762e-05 -5.65997e-07)
(-1.57254e-05 3.02493e-05 -1.6188e-06)
(-8.40577e-06 3.25758e-05 -1.92267e-06)
(-3.89566e-06 3.31358e-05 -1.76044e-06)
(-5.55696e-06 3.27866e-05 -2.4905e-06)
(-1.35165e-05 3.32234e-05 -4.6305e-06)
(-2.47876e-05 3.5684e-05 -7.69527e-06)
(-3.35873e-05 3.71482e-05 -9.73772e-06)
(-3.4435e-05 3.29958e-05 -9.5109e-06)
(-2.75936e-05 2.34289e-05 -6.83216e-06)
(-1.79828e-05 1.59932e-05 -3.59774e-06)
(-1.0128e-05 1.47209e-05 -1.82575e-06)
(-6.33768e-06 1.99087e-05 -2.42409e-06)
(-5.19904e-06 3.35731e-05 -4.44373e-06)
(-2.50573e-06 2.13954e-05 -2.64712e-06)
(-2.13022e-06 0.000110485 -2.13022e-06)
(1.17387e-05 0.000100576 1.39038e-06)
(3.54726e-05 7.99761e-05 3.53813e-06)
(4.94909e-05 5.32316e-05 6.05739e-06)
(5.88123e-05 2.6641e-05 8.2027e-06)
(6.08449e-05 7.62278e-06 9.52703e-06)
(5.64633e-05 -1.76991e-06 1.00544e-05)
(4.81942e-05 -4.19714e-06 9.4476e-06)
(3.80373e-05 -2.67547e-06 8.86077e-06)
(2.631e-05 -5.91845e-07 8.18852e-06)
(1.22491e-05 1.27784e-06 6.71837e-06)
(-4.00537e-06 5.49979e-06 4.25859e-06)
(-1.97875e-05 1.20802e-05 8.64009e-07)
(-3.10425e-05 1.84288e-05 -2.1089e-06)
(-3.38968e-05 2.38363e-05 -3.29033e-06)
(-2.91374e-05 2.56416e-05 -3.67668e-06)
(-2.14734e-05 2.7467e-05 -2.77864e-06)
(-1.57057e-05 3.21228e-05 -2.19738e-06)
(-1.58059e-05 3.94697e-05 -3.03031e-06)
(-2.16736e-05 4.75621e-05 -5.51427e-06)
(-2.9764e-05 5.51168e-05 -8.60857e-06)
(-3.46447e-05 5.68137e-05 -1.04707e-05)
(-3.25142e-05 4.88179e-05 -9.31523e-06)
(-2.38854e-05 3.12753e-05 -5.1175e-06)
(-1.44108e-05 1.45556e-05 -4.1116e-07)
(-9.8762e-06 7.52605e-06 1.55082e-06)
(-9.50448e-06 9.43017e-06 7.46039e-07)
(-9.51118e-06 1.81995e-05 -2.25786e-07)
(-5.03806e-06 3.06799e-05 -4.0457e-07)
(-6.06131e-07 1.74263e-05 -1.34822e-06)
(4.31662e-06 9.52961e-05 4.31662e-06)
(2.18934e-05 6.479e-05 7.76444e-06)
(4.24809e-05 4.78246e-05 9.8974e-06)
(5.29764e-05 2.40839e-05 1.14144e-05)
(5.57173e-05 3.60304e-06 1.18522e-05)
(5.09624e-05 -7.87967e-06 1.07506e-05)
(4.20451e-05 -1.08337e-05 8.51761e-06)
(3.24287e-05 -8.20461e-06 6.30439e-06)
(2.30354e-05 -2.69365e-06 4.77588e-06)
(1.25034e-05 4.55674e-06 3.53453e-06)
(-4.90533e-07 1.30521e-05 1.99884e-06)
(-1.45985e-05 2.22456e-05 2.44684e-07)
(-2.58039e-05 2.88711e-05 -1.03777e-06)
(-3.05558e-05 2.92298e-05 -1.43645e-06)
(-2.83775e-05 2.53541e-05 -5.76719e-07)
(-2.30327e-05 2.1146e-05 9.95466e-07)
(-1.94986e-05 2.22557e-05 2.75485e-06)
(-2.10123e-05 3.27849e-05 2.59959e-06)
(-2.73772e-05 4.82951e-05 -4.36511e-07)
(-3.42173e-05 6.20248e-05 -3.92836e-06)
(-3.68073e-05 6.78753e-05 -5.66982e-06)
(-3.22708e-05 6.01858e-05 -4.72715e-06)
(-2.24001e-05 3.99213e-05 -1.04552e-06)
(-1.40021e-05 1.74967e-05 2.87087e-06)
(-1.2892e-05 4.61233e-06 3.75555e-06)
(-1.72201e-05 3.68899e-06 9.50396e-07)
(-2.02357e-05 7.13664e-06 -2.19398e-06)
(-1.7801e-05 1.27587e-05 -3.34413e-06)
(-9.09294e-06 1.99927e-05 -3.66039e-06)
(-1.83912e-06 1.00741e-05 -1.80857e-06)
(9.23557e-06 6.2352e-05 9.23557e-06)
(2.80821e-05 2.36168e-05 1.17518e-05)
(4.3277e-05 1.183e-05 1.32457e-05)
(4.83546e-05 -3.87564e-06 1.33879e-05)
(4.47018e-05 -1.396e-05 1.2147e-05)
(3.56012e-05 -1.64212e-05 9.57177e-06)
(2.55081e-05 -1.34068e-05 7.11193e-06)
(1.69393e-05 -7.39377e-06 5.41979e-06)
(9.38933e-06 1.21326e-06 4.55367e-06)
(1.03298e-06 1.27127e-05 3.82885e-06)
(-8.43065e-06 2.52242e-05 2.7857e-06)
(-1.68645e-05 3.42893e-05 1.88323e-06)
(-2.09265e-05 3.4933e-05 2.07042e-06)
(-1.91741e-05 2.61079e-05 3.34225e-06)
(-1.47e-05 1.44225e-05 5.16788e-06)
(-1.33143e-05 9.27316e-06 6.77901e-06)
(-1.82095e-05 1.58191e-05 5.9041e-06)
(-2.67729e-05 3.44149e-05 2.90474e-06)
(-3.37123e-05 5.47682e-05 -2.92551e-07)
(-3.51448e-05 6.55676e-05 -7.58458e-07)
(-2.88566e-05 6.15322e-05 1.39884e-06)
(-1.85606e-05 4.30119e-05 5.56995e-06)
(-1.24216e-05 1.92462e-05 9.36056e-06)
(-1.58687e-05 3.93079e-06 9.66153e-06)
(-2.5579e-05 -2.95037e-07 6.67792e-06)
(-3.26192e-05 1.37664e-06 3.71005e-06)
(-3.33952e-05 2.40066e-06 1.35951e-06)
(-2.79437e-05 2.29981e-06 1.24465e-07)
(-9.59089e-06 1.73075e-06 2.18123e-06)
(2.0408e-06 -8.33785e-06 1.19891e-05)
(1.21251e-05 1.94941e-05 1.21251e-05)
(2.98233e-05 -1.63213e-05 1.4489e-05)
(3.90752e-05 -2.13643e-05 1.53129e-05)
(4.00484e-05 -2.55919e-05 1.42031e-05)
(3.32556e-05 -2.4729e-05 1.19542e-05)
(2.30925e-05 -2.02465e-05 9.64116e-06)
(1.35332e-05 -1.45426e-05 7.83064e-06)
(5.72794e-06 -7.52781e-06 6.75918e-06)
(-1.23526e-06 3.07279e-06 5.69445e-06)
(-8.2504e-06 1.74212e-05 4.15191e-06)
(-1.38286e-05 3.08285e-05 2.3695e-06)
(-1.55102e-05 3.63053e-05 1.66549e-06)
(-1.2259e-05 2.95093e-05 2.25995e-06)
(-6.84065e-06 1.51548e-05 3.44188e-06)
(-5.02409e-06 3.63957e-06 4.51833e-06)
(-1.00229e-05 4.73282e-06 3.42433e-06)
(-1.92217e-05 1.96418e-05 4.44275e-07)
(-2.60436e-05 4.01446e-05 -1.24234e-06)
(-2.58409e-05 5.46138e-05 -3.61954e-07)
(-1.75889e-05 5.40236e-05 3.22628e-06)
(-6.31407e-06 3.95148e-05 8.20755e-06)
(-1.51448e-06 1.8712e-05 1.28807e-05)
(-8.29925e-06 2.34042e-06 1.36844e-05)
(-2.32864e-05 -2.40218e-06 1.0975e-05)
(-3.60557e-05 -5.78396e-06 9.11286e-06)