/*--------------------------------*- C++ -*----------------------------------*\
| =========                 |                                                 |
| \\      /  F ield         | OpenFOAM: The Open Source CFD Toolbox           |
|  \\    /   O peration     | Version:  2312                                  |
|   \\  /    A nd           | Website:  www.openfoam.com                      |
|    \\/     M anipulation  |                                                 |
\*---------------------------------------------------------------------------*/
FoamFile
{
    version     2.0;
    format      ascii;
    arch        "LSB;label=32;scalar=64";
    class       volScalarField;
    location    "1.553784609827";
    object      alpha.water;
}
// * * * * * * * * * * * * * * * * * * * * * * * * * * * * * * * * * * * * * //

dimensions      [0 0 0 0 0 0 0];

internalField   nonuniform List<scalar> 
90000
(
1
1.00004
1.00003
1.00003
1.00003
1.00002
1.00002
1.00001
1
0.999993
0.999986
0.999981
0.999979
0.999981
0.999986
0.999993
1
1.00001
1.00001
1.00002
1.00001
1.00001
1.00001
1
1
1.00001
1.00002
1.00002
1.00002
1.00003
1.00004
1.00006
1.00005
1.00005
1.00004
1.00003
1.00002
1
0.99999
0.999979
0.99997
0.999965
0.999966
0.999972
0.999982
0.999994
1
1.00001
1.00002
1.00001
1.00001
1.00001
1
1.00001
1.00001
1.00002
1.00003
1.00002
0.999983
0.999845
1.00003
1.00004
1.00004
1.00003
1.00003
1.00002
1.00001
1
0.999993
0.999983
0.999975
0.999969
0.999966
0.999966
0.999968
0.999972
0.999977
0.999982
0.999986
0.999989
0.999991
0.999992
0.999995
0.999999
1.00001
1.00002
1.00003
1.00007
1.00014
0.999991
1.00002
1.00002
1.00002
1.00001
1.00001
1.00001
1.00001
1
0.999996
0.99999
0.999983
0.999975
0.999968
0.999961
0.999956
0.999953
0.999954
0.999958
0.999964
0.999972
0.999979
0.999985
0.99999
0.999994
0.999998
0.999999
0.999994
0.999989
1.00005
1.00001
1.00001
0.999994
0.999994
0.999994
0.999995
0.999997
1
1
1
1
0.999998
0.999991
0.999981
0.999971
0.999962
0.999955
0.999952
0.999955
0.999962
0.999971
0.99998
0.999987
0.999992
0.999994
0.999997
1
1.00001
0.999996
1.00002
1
0.999993
0.999967
0.999971
0.999974
0.999979
0.999986
0.999994
1
1.00001
1.00001
1.00001
1.00001
1
0.999995
0.999985
0.999977
0.999972
0.999972
0.999977
0.999983
0.99999
0.999996
1
1
1
1
1.00001
0.999998
0.999996
0.999988
0.999977
0.999947
0.999953
0.999958
0.999966
0.999976
0.999988
1
1.00001
1.00002
1.00002
1.00002
1.00002
1.00002
1.00001
1
0.999997
0.999994
0.999992
0.999994
0.999997
1
1.00001
1.00001
1.00001
1.00001
1.00001
0.999996
0.999987
0.999986
0.999966
0.999942
0.999949
0.999954
0.999962
0.999971
0.999981
0.999992
1
1.00001
1.00002
1.00002
1.00003
1.00003
1.00002
1.00002
1.00001
1
0.999995
0.999992
0.999994
0.999998
1
1.00001
1.00001
1.00001
1
0.999992
0.999988
0.999995
0.999964
0.999959
0.999963
0.999968
0.999972
0.999977
0.999981
0.999985
0.999989
0.999994
1
1.00001
1.00001
1.00002
1.00002
1.00001
1.00001
0.999997
0.999988
0.999983
0.999983
0.999986
0.999991
0.999994
0.999993
0.999988
0.999984
0.999984
0.999991
0.999999
0.999977
0.999997
0.999998
1
0.999999
0.999996
0.999992
0.999987
0.999983
0.999983
0.999986
0.999992
1
1.00001
1.00001
1.00001
1
0.999994
0.999986
0.999981
0.999979
0.999978
0.999976
0.999972
0.999968
0.999965
0.999968
0.999978
0.99999
0.999995
1
1.00004
1.00004
1.00004
1.00003
1.00002
1.00001
0.999997
0.999987
0.999982
0.999982
0.999987
0.999994
1
1
1.00001
1
1
0.999999
0.999995
0.999991
0.999984
0.999975
0.999966
0.999962
0.999964
0.999974
0.999987
0.999994
0.999994
1.00003
1.00008
1.00007
1.00007
1.00005
1.00004
1.00002
1
0.999993
0.999986
0.999985
0.999987
0.999991
0.999996
1
1.00001
1.00001
1.00002
1.00002
1.00002
1.00001
1
0.999989
0.999982
0.999982
0.99999
1
1.00001
1
1
1.00005
1.00008
1.00007
1.00006
1.00004
1.00003
1.00001
0.999999
0.999991
0.999987
0.999985
0.999985
0.999985
0.999988
0.999993
1
1.00001
1.00002
1.00003
1.00003
1.00002
1.00001
1
1
1.00001
1.00001
1.00002
1.00001
1
0.999999
1.00005
1.00004
1.00003
1.00002
1
0.999994
0.999989
0.999987
0.999987
0.999988
0.999986
0.999984
0.999981
0.999981
0.999985
0.999995
1.00001
1.00002
1.00002
1.00002
1.00002
1.00001
1.00001
1.00001
1.00001
1.00001
1
0.999988
0.999979
0.999975
1.00002
0.999976
0.99997
0.999965
0.999963
0.999967
0.999975
0.999985
0.999993
0.999997
0.999995
0.99999
0.999984
0.999983
0.999987
0.999994
1
1.00001
1.00001
1.00001
1.00001
1.00001
1.00001
1.00001
1
0.999991
0.999975
0.999963
0.999958
0.999963
0.999976
0.999927
0.999933
0.999939
0.99995
0.999967
0.999984
0.999999
1.00001
1.00001
1
0.999998
0.999993
0.999991
0.999994
0.999997
0.999999
0.999999
0.999998
1
1.00001
1.00001
1.00002
1.00001
1
0.999989
0.999979
0.999978
0.999982
1
0.999951
0.999916
0.999932
0.999947
0.999964
0.999983
0.999998
1.00001
1.00001
1.00001
1
0.999997
0.999995
0.999996
0.999997
0.999996
0.999992
0.999988
0.999989
0.999995
1.00001
1.00002
1.00002
1.00002
1.00001
1
1.00001
1.00002
1.00003
1.00004
0.999952
0.999938
0.999954
0.999966
0.999979
0.999989
0.999995
0.999996
0.999994
0.99999
0.999989
0.999993
0.999998
1
1
0.999993
0.999984
0.999978
0.99998
0.999988
0.999998
1
1
0.999998
0.999995
1
1.00001
1.00002
1.00003
1.00001
0.999968
0.999961
0.999969
0.999974
0.999979
0.999982
0.999982
0.99998
0.999981
0.999985
0.999995
1.00001
1.00002
1.00002
1.00001
0.999995
0.999983
0.999978
0.99998
0.999984
0.999985
0.999981
0.999972
0.999966
0.999966
0.999972
0.999977
0.999975
0.999962
0.999933
0.99998
0.999973
0.999975
0.999978
0.999981
0.999983
0.999986
0.999989
0.999997
1.00001
1.00002
1.00004
1.00004
1.00003
1.00002
1
0.999991
0.99999
0.999993
0.999992
0.999984
0.999972
0.999962
0.999958
0.99996
0.999963
0.999958
0.999943
0.99992
0.999925
0.999984
0.999985
0.999989
0.999995
1
1.00001
1.00001
1.00002
1.00003
1.00004
1.00005
1.00005
1.00004
1.00002
1.00001
1
1
1.00001
1.00001
1.00001
0.999997
0.999986
0.999982
0.999986
0.999992
0.999992
0.999983
0.999971
0.999967
1
0.999993
1.00001
1.00002
1.00002
1.00003
1.00003
1.00003
1.00003
1.00004
1.00004
1.00003
1.00002
1.00001
0.999998
0.999997
1.00001
1.00002
1.00004
1.00003
1.00002
1.00001
1.00001
1.00001
1.00002
1.00002
1.00002
1.00001
1.00001
1.00003
1.00004
1.00001
1.00003
1.00004
1.00004
1.00004
1.00003
1.00003
1.00003
1.00003
1.00002
1.00001
1
0.999992
0.999995
1.00001
1.00003
1.00004
1.00005
1.00003
1.00002
1.00001
1.00002
1.00003
1.00003
1.00002
1.00002
1.00001
1.00002
1.00002
0.999994
1.00002
1.00003
1.00003
1.00003
1.00002
1.00002
1.00002
1.00002
1.00002
1.00002
1.00001
0.999999
0.999998
1.00001
1.00002
1.00003
1.00003
1.00002
1
1
1.00001
1.00002
1.00003
1.00003
1.00002
1.00002
1.00001
1.00001
0.999986
0.999986
1.00002
1.00002
1.00001
1.00001
1.00001
1.00002
1.00002
1.00003
1.00003
1.00002
1
0.999994
0.999994
1
1.00001
1
0.999987
0.999973
0.999973
0.999989
1.00001
1.00003
1.00004
1.00003
1.00003
1.00003
1.00002
1
1
1.00002
1.00001
0.999996
0.999998
0.999999
1
1.00001
1.00001
1.00001
1.00001
0.999995
0.999983
0.999979
0.999984
0.99999
0.999989
0.999979
0.999969
0.99997
0.999986
1.00001
1.00003
1.00003
1.00002
1.00002
1.00001
1.00001
0.999996
0.999997
1.00002
1
0.999996
0.999977
0.999978
0.999978
0.999981
0.999986
0.99999
0.999989
0.999984
0.999979
0.999981
0.999991
1
1.00001
1.00001
1
1
1.00001
1.00003
1.00004
1.00003
1.00002
1
1
0.999995
0.999989
0.999984
0.999996
0.999992
0.999952
0.999984
0.999955
0.999957
0.999959
0.999965
0.999973
0.99998
0.999983
0.999985
0.999991
1
1.00002
1.00003
1.00003
1.00002
1.00002
1.00002
1.00003
1.00003
1.00002
1.00001
0.999995
0.999996
0.999999
0.999992
0.999994
0.999997
0.999987
0.999955
0.999978
0.99997
0.999947
0.999957
0.999965
0.999974
0.99998
0.999984
0.999986
0.99999
0.999999
1.00001
1.00002
1.00002
1.00001
1
1.00001
1.00001
1.00001
0.999999
0.999981
0.999974
0.999981
0.999992
0.999996
0.999989
0.999999
0.999997
0.999964
0.999972
1.00001
0.999971
0.999966
0.999976
0.999979
0.999978
0.999975
0.999973
0.999975
0.999984
0.999995
1
1
0.999999
0.999994
0.999995
1
0.999999
0.999989
0.999976
0.999968
0.999973
0.999978
0.999978
0.99998
0.999972
0.99998
0.999977
0.999967
1.00001
0.999988
0.999986
0.999978
0.999974
0.999966
0.99996
0.999961
0.999968
0.999981
0.999996
1.00001
1.00001
1.00001
1
1
1
1.00001
1
0.999992
0.999991
0.999994
0.999998
0.999983
0.999964
0.999975
0.999967
0.999963
0.999978
0.999998
0.999995
0.99997
0.999989
0.99996
0.999954
0.999956
0.999967
0.999981
0.999994
1
1
1
0.999996
0.999991
0.999993
1
1.00001
1.00001
1.00001
1.00001
1.00002
1.00002
1.00001
0.999982
0.999962
0.999986
0.999976
0.999963
0.999994
0.999997
0.999964
0.999989
0.999973
0.999954
0.999968
0.999986
0.999999
1
0.999993
0.999978
0.999966
0.999961
0.999964
0.999976
0.999994
1.00001
1.00001
1.00001
1
1.00001
1.00001
0.999986
0.999972
0.99997
0.999961
0.999986
0.999977
0.999972
0.999995
0.999973
0.999979
0.999995
0.999974
0.999989
1
1.00001
0.999998
0.999977
0.999956
0.999943
0.999945
0.999959
0.999981
1
1.00001
1.00001
1
0.99999
0.999978
0.999974
0.999964
0.999938
0.999944
0.999982
0.999967
0.999971
0.999979
0.999988
0.999987
0.99998
0.999995
0.99999
0.999999
1.00001
1.00001
0.999991
0.999976
0.999964
0.99996
0.999965
0.999976
0.999992
1.00001
1.00001
1.00001
0.999993
0.999976
0.999979
0.999973
0.999969
0.999969
0.999964
0.999982
1.00002
0.999982
0.999972
0.999999
1
0.999992
0.999996
0.999989
0.999999
1.00001
1
0.999993
0.99999
0.99999
0.999987
0.999983
0.999982
0.999985
0.99999
0.999994
0.999993
0.999982
0.99998
0.999974
0.999999
1
0.999994
1
1.00001
1.00001
1.00003
0.999989
0.999993
1.00002
1.00001
1
0.999995
1.00001
1.00002
0.999998
0.999999
1.00001
1
0.999991
0.999976
0.999971
0.999975
0.999984
0.999986
0.999981
0.999977
0.999969
0.999995
0.999992
1.00001
1.00001
0.999988
1
1.00002
0.999992
1
0.999998
1.00001
1.00002
0.999991
1
1.00001
1.00003
1.00001
1
1.00001
0.999999
0.999981
0.999972
0.999979
0.999991
0.999997
0.999994
0.999979
0.99997
0.999983
0.999977
1.00002
1.00001
0.999995
0.999994
0.999984
1.00001
1.00002
0.999978
0.999985
1.00001
0.999999
0.999987
0.999982
1
1
0.999995
0.999995
1.00001
0.99999
0.999978
0.999984
1
1.00002
1.00001
0.999996
0.99998
0.999979
0.999981
1.00001
0.999987
0.999998
1
0.999976
0.999996
1
1.00001
0.999998
0.99997
0.99998
1.00001
0.999981
0.999973
0.999992
0.999993
0.999984
1
1.00004
0.999992
0.999982
0.999998
1.00002
1.00002
1.00001
0.99999
0.999977
0.999984
1
0.999986
0.999998
0.999985
0.999964
1.00002
0.999989
0.999992
0.999987
0.999981
0.999972
0.999993
0.999998
1.00001
0.999983
0.999974
1
0.999992
1.00001
1.00005
1.00006
0.999991
1
1.00001
1.00001
0.999996
0.999979
0.999975
0.999987
0.999994
1.00001
0.999986
0.99997
1.00002
0.999964
1
0.999996
0.999984
0.99999
1.00001
0.999995
1.00001
0.999999
0.999976
1
0.999982
1.00001
1
1.00003
1.00002
1
1
1
1
0.999994
0.999979
0.999976
0.999995
1.00001
0.999992
0.999982
1.00001
0.999992
1.00003
0.999993
0.999967
1.00001
1.00001
0.999993
1
0.999994
0.999996
1.00002
0.999996
1.00001
0.999986
0.999997
1.00003
1.00003
0.999983
0.999933
1
1
1
0.999994
1
1
0.999993
0.999989
1.00001
1.00001
0.99999
0.999999
0.999989
1.00003
0.999971
0.999994
1
0.999983
0.999996
1.00003
1.00001
0.999993
0.999977
0.999966
1.00002
1.00001
0.999979
0.999973
1.00004
0.999949
1.00001
1.00002
0.999997
1
1.00001
0.999992
0.999984
0.999994
0.999989
1.00001
0.999958
1.00002
0.999991
1
0.999988
0.999976
0.999996
1.00002
0.999982
0.999977
0.999989
0.999993
1
0.999965
0.999999
1.00002
0.999991
0.999989
1.00002
0.999949
1.00001
1.00001
1.00001
0.999985
0.999962
1.00001
1.00001
1
1
1.00005
0.999996
0.99997
1.00003
0.999974
0.999986
1.00001
0.999987
1.00001
1.00001
0.999989
0.999994
0.999993
0.999996
1.00004
0.999964
0.999966
1.00001
1.00005
0.99998
0.999854
0.999989
0.999999
1
0.999994
0.999963
1.00002
1.00001
1.00002
0.999961
0.999969
1.00005
0.999973
0.999975
1.00001
0.999972
0.999981
1.00004
0.999967
0.999984
1
0.999987
0.99998
0.999978
1.00001
0.999977
1.00001
1.00001
0.999977
1.00007
0.999915
0.999981
0.999999
0.999964
1.00002
0.999974
0.999995
0.999967
1.00001
0.999989
1.00001
0.999943
1.00003
0.999994
0.999943
1.00001
0.999988
0.999972
0.999997
1.00003
0.99998
0.999992
1.00002
1
0.999999
0.999992
0.999951
1
0.999987
1.00003
1.00006
0.999996
0.999997
0.999956
1.00001
0.999992
1
1
1.00002
0.99998
1.00001
0.999978
1
1.00001
0.999998
1.00001
1
0.999996
1.00001
1.00001
1
1
0.999991
0.999989
0.999997
1.00002
1.00002
0.999993
0.999968
0.999988
1
1
1
1
1.00001
1
1.00001
1
1
1
1
1
1
1
1
1.00001
1
1
1
1
1
1
1
1
1
1
1
1.00001
1.00001
1.00001
1
0.793312
0.859924
0.833693
0.860267
0.867479
0.85923
0.8679
0.862936
0.858743
0.83948
0.862933
0.829782
0.855935
0.826122
0.873646
0.831891
0.869269
0.835321
0.876121
0.853469
0.839032
0.858051
0.857555
0.867659
0.869085
0.85604
0.854268
0.832426
0.860278
0.791922
0.203871
0.172708
0.185763
0.183555
0.175362
0.172508
0.175869
0.180924
0.184673
0.185217
0.170217
0.180832
0.174864
0.178806
0.170995
0.178352
0.174966
0.179085
0.164383
0.176992
0.193354
0.184017
0.176093
0.171852
0.168716
0.181048
0.185623
0.185701
0.173358
0.202635
0.000885281
0.000103689
0.000155207
0.000189391
0.000374108
0.000243363
0.00013683
0.000640517
0.000288501
0.000459295
0.000318169
0.000337352
0.000121951
0.000246066
0.000167021
0.000161434
0.000103778
5.35965e-05
0.000131154
0.000227187
0.000437778
0.000178591
0.000311118
0.000419865
0.00035527
0.000163803
0.000159978
0.000198064
0.000113622
0.000730476
5.57251e-05
0.000184826
5.63748e-05
4.82219e-05
0.000422524
0.000167452
8.17096e-05
8.07547e-05
0.000351075
0.00042234
0.000540655
0.000454025
0.000176361
0.000429756
0.000164682
0.000154076
9.83074e-05
8.28309e-06
0.000144032
0.000174733
0.000343328
6.94784e-05
8.75889e-05
0.000411892
0.000158224
0.000151775
4.08912e-05
5.00651e-05
0.000162546
3.2074e-05
2.01554e-06
2.57091e-05
6.73851e-06
1.5002e-06
1.43621e-07
5.93036e-06
2.44453e-06
1.48668e-06
6.48719e-07
2.96737e-07
9.89908e-07
5.68941e-07
6.20017e-06
2.8425e-06
3.8263e-06
8.29382e-07
5.32756e-06
4.50742e-06
1.58362e-05
1.14796e-06
3.38452e-07
5.47149e-05
3.02953e-05
1.00165e-06
1.5804e-06
3.78733e-06
9.8369e-07
6.07027e-06
2.77508e-05
9.5291e-07
1.29874e-07
1.22666e-07
3.70819e-07
1.63124e-07
1.29649e-07
2.80185e-09
4.58482e-08
2.541e-06
7.31088e-06
2.41183e-07
2.63895e-06
3.04166e-06
4.73379e-06
2.7748e-06
1.24537e-06
7.43801e-07
4.01196e-06
4.10352e-06
4.11621e-06
3.90163e-06
2.05448e-07
3.18575e-06
1.25458e-05
2.99562e-06
2.71337e-09
4.48012e-09
7.46325e-09
2.47983e-07
3.2896e-08
1.20871e-07
1.35091e-08
8.52149e-08
2.0813e-08
6.7312e-09
5.76497e-09
1.10086e-09
1.05141e-07
9.62891e-07
1.28127e-06
5.41151e-08
7.30958e-08
2.35088e-06
4.76581e-06
4.04938e-06
2.04223e-06
1.72978e-06
4.11319e-06
4.0205e-06
3.76775e-06
1.54374e-06
1.94183e-07
1.11936e-06
6.15489e-07
7.36433e-08
1.39109e-09
1.29069e-08
2.36524e-08
2.45599e-08
2.74611e-09
6.41958e-08
8.2161e-10
8.81252e-10
2.23084e-10
1.01765e-07
8.91498e-08
9.05067e-10
1.94324e-11
1.82542e-11
1.94335e-11
1.93017e-09
1.13061e-07
4.70273e-07
1.11291e-06
1.83022e-06
3.20324e-06
3.20324e-06
2.19034e-06
6.01468e-07
3.31655e-07
1.03306e-07
2.51374e-08
2.36501e-11
1.48341e-11
2.26119e-11
1.19958e-09
1.45094e-07
1.56288e-07
2.16195e-09
1.00344e-09
2.37191e-09
4.44143e-10
1.08427e-09
1.41688e-10
2.43247e-08
2.28253e-08
2.87891e-09
1.08965e-10
1.80395e-11
3.67131e-11
1.64491e-09
3.29766e-09
7.59588e-11
7.08922e-11
2.51126e-07
3.19313e-06
3.20324e-06
3.18732e-07
3.38395e-11
1.21714e-11
1.16828e-11
1.25632e-09
1.32135e-10
1.41856e-11
7.06446e-11
2.90751e-09
2.66332e-08
3.56319e-08
1.37584e-10
9.48908e-10
4.13158e-10
3.26397e-10
6.68948e-10
1.41487e-10
3.59875e-11
3.5452e-11
2.75132e-10
8.84607e-11
1.80068e-11
2.02707e-11
1.08253e-10
2.07049e-11
7.46512e-11
6.63977e-11
3.70808e-10
3.09921e-07
5.13573e-07
6.23476e-09
2.8581e-11
2.80284e-11
1.15405e-11
1.04618e-10
2.68083e-11
1.41596e-11
7.66178e-11
2.40493e-10
2.11679e-11
2.14513e-11
1.37517e-10
5.75516e-10
3.20236e-10
1.69249e-10
2.43632e-10
1.04812e-10
4.23511e-11
3.53154e-11
3.31966e-11
2.06637e-11
7.91967e-12
3.96054e-12
1.04268e-11
2.07023e-11
6.49995e-11
6.63998e-11
3.03505e-11
8.73408e-12
8.59566e-12
2.2488e-11
4.84849e-11
2.78426e-11
1.14086e-11
1.26421e-11
2.90222e-12
7.37232e-12
1.80565e-11
2.75093e-11
2.10399e-11
4.08602e-11
1.04087e-10
2.38087e-10
1.69415e-10
3.45132e-11
6.04993e-11
3.25412e-11
1.47989e-11
1.12419e-11
4.59422e-12
2.2677e-12
1.27141e-12
9.45684e-13
1.37739e-12
3.15455e-12
8.35741e-12
1.37572e-11
2.78128e-11
9.23505e-12
8.49345e-12
3.03823e-11
1.44753e-11
5.71748e-12
3.0067e-12
1.37657e-12
9.68484e-13
1.21321e-12
1.94607e-12
3.94531e-12
1.02213e-11
1.48148e-11
3.16999e-11
6.04007e-11
3.4078e-11
3.43683e-12
7.94661e-12
4.95405e-12
1.9734e-12
1.26764e-12
5.04542e-13
2.19749e-13
1.53254e-13
1.86963e-13
3.80943e-13
8.888e-13
2.1596e-12
4.43084e-12
6.13453e-12
9.1728e-12
8.4582e-12
6.65207e-12
4.34245e-12
2.07225e-12
8.78263e-13
3.87896e-13
1.94997e-13
1.47524e-13
1.9607e-13
4.43015e-13
1.26344e-12
1.84043e-12
4.85167e-12
7.94791e-12
3.38983e-12
2.52428e-13
5.80182e-13
4.58799e-13
1.93249e-13
7.88494e-14
2.99865e-14
1.24623e-14
9.84303e-15
1.53976e-14
3.85816e-14
1.00954e-13
2.69499e-13
6.1078e-13
9.98736e-13
1.73422e-12
1.66214e-12
1.02439e-12
5.98707e-13
2.78495e-13
1.01573e-13
3.94071e-14
1.54349e-14
9.58929e-15
1.13449e-14
2.62728e-14
7.3687e-14
1.8673e-13
4.55803e-13
5.77874e-13
2.50661e-13
1.22582e-14
3.1826e-14
2.32051e-14
9.35992e-15
2.72856e-15
8.40729e-16
3.34131e-16
2.84585e-16
4.89779e-16
1.29752e-15
4.03997e-15
1.29336e-14
3.25171e-14
7.12076e-14
1.29524e-13
1.32455e-13
7.23452e-14
3.28355e-14
1.31191e-14
4.12622e-15
1.32313e-15
4.92064e-16
2.78118e-16
3.02729e-16
7.32451e-16
2.50122e-15
9.30661e-15
2.32852e-14
3.20561e-14
1.21861e-14
3.20156e-16
1.03773e-15
6.01391e-16
2.10743e-16
5.87221e-17
1.68409e-17
6.98302e-18
6.92305e-18
1.25305e-17
3.32939e-17
1.071e-16
3.61622e-16
1.00445e-15
2.37597e-15
4.29882e-15
4.4654e-15
2.4122e-15
1.01805e-15
3.66141e-16
1.09588e-16
3.40858e-17
1.27442e-17
6.75312e-18
6.24933e-18
1.44988e-17
5.38396e-17
2.08789e-16
6.02348e-16
1.04801e-15
3.19744e-16
5.74423e-18
2.05236e-17
1.11625e-17
3.75283e-18
1.07666e-18
3.15197e-19
1.44602e-19
1.72642e-19
3.34893e-19
8.78838e-19
2.69484e-18
8.68654e-18
2.38554e-17
5.44851e-17
9.57593e-17
9.82956e-17
5.52131e-17
2.40638e-17
8.80655e-18
2.76974e-18
9.02506e-19
3.41362e-19
1.69619e-19
1.29954e-19
2.68815e-19
9.936e-19
3.72238e-18
1.11803e-17
2.07096e-17
5.73285e-18
8.81662e-20
3.35169e-19
1.84503e-19
6.23936e-20
1.7826e-20
5.26317e-21
2.74016e-21
3.88099e-21
7.909e-21
2.02554e-20
5.97297e-20
1.83634e-19
4.82797e-19
1.06443e-18
1.80874e-18
1.83935e-18
1.07715e-18
4.89671e-19
1.87272e-19
6.14396e-20
2.08703e-20
8.11199e-21
3.88421e-21
2.50916e-21
4.46188e-21
1.6404e-20
6.21963e-20
1.86324e-19
3.3949e-19
8.85578e-20
1.15768e-21
4.80037e-21
2.69082e-21
9.021e-22
2.5406e-22
7.5248e-23
4.66067e-23
7.67504e-23
1.58334e-22
3.89586e-22
1.09402e-21
3.19916e-21
8.14707e-21
1.74965e-20
2.85859e-20
2.88271e-20
1.76507e-20
8.28879e-21
3.27758e-21
1.12423e-21
4.00582e-22
1.62387e-22
7.74138e-23
4.39429e-23
6.42318e-23
2.31883e-22
8.97546e-22
2.69421e-21
4.89281e-21
1.17663e-21
1.30744e-23
5.8096e-23
3.31613e-23
1.11646e-23
3.04902e-24
9.32139e-25
7.23649e-25
1.31687e-24
2.66072e-24
6.18149e-24
1.6349e-23
4.54755e-23
1.10869e-22
2.27607e-22
3.59637e-22
3.63335e-22
2.30501e-22
1.11878e-22
4.6287e-23
1.69094e-23
6.40785e-24
2.74547e-24
1.33732e-24
7.01431e-25
8.01069e-25
2.77469e-24
1.09788e-23
3.31043e-23
5.97327e-23
1.31792e-23
1.25737e-25
6.10514e-25
3.47582e-25
1.17152e-25
3.14133e-26
1.02687e-26
1.01344e-26
1.91349e-26
3.69572e-26
8.04971e-26
1.99774e-25
5.20197e-25
1.1892e-24
2.33676e-24
3.63726e-24
3.69331e-24
2.4037e-24
1.21244e-24
5.30691e-25
2.0759e-25
8.41452e-26
3.85998e-26
1.97261e-26
1.00013e-26
8.83768e-27
2.84336e-26
1.14627e-25
3.45224e-25
6.12652e-25
1.25114e-25
1.0643e-27
5.35897e-27
3.1157e-27
1.03465e-27
2.78957e-28
1.00118e-28
1.22691e-28
2.3345e-28
4.29729e-28
8.68137e-28
1.96493e-27
4.62094e-27
9.83828e-27
1.86295e-26
2.82504e-26
2.82749e-26
1.89073e-26
1.01689e-26
4.82942e-27
2.06008e-27
9.08664e-28
4.53142e-28
2.46936e-28
1.25264e-28
8.79515e-29
2.49186e-28
1.01185e-27
3.04116e-27
5.30979e-27
1.02407e-27
7.91868e-30
4.00106e-29
2.4055e-29
8.0677e-30
2.12996e-30
8.70419e-31
1.27384e-30
2.41164e-30
4.14036e-30
7.5415e-30
1.52633e-29
3.25568e-29
6.52717e-29
1.1733e-28
1.69837e-28
1.70237e-28
1.20672e-28
7.00129e-29
3.56389e-29
1.64753e-29
8.00615e-30
4.41083e-30
2.58745e-30
1.34415e-30
7.87629e-31
1.84423e-30
7.50444e-30
2.27712e-29
3.95083e-29
7.38233e-30
5.34182e-32
2.73849e-31
1.66428e-31
5.57021e-32
1.45193e-32
7.03003e-33
1.17478e-32
2.09767e-32
3.21373e-32
5.18251e-32
9.46753e-32
1.85565e-31
3.41534e-31
5.63408e-31
7.80223e-31
8.00046e-31
5.9516e-31
3.63575e-31
2.0003e-31
1.04429e-31
5.77968e-32
3.53417e-32
2.23194e-32
1.20947e-32
6.38001e-33
1.17711e-32
4.77678e-32
1.48361e-31
2.56167e-31
4.73496e-32
3.2608e-34
1.64642e-33
1.01551e-33
3.27045e-34
8.72775e-35
5.06984e-35
8.96041e-35
1.47485e-34
2.05548e-34
3.03474e-34
5.01016e-34
8.52357e-34
1.3462e-33
2.0128e-33
2.74419e-33
2.90844e-33
2.27186e-33
1.5016e-33
9.35028e-34
5.58712e-34
3.45002e-34
2.30917e-34
1.59092e-34
9.32161e-35
4.73418e-35
6.67717e-35
2.66184e-34
8.44211e-34
1.43578e-33
2.67586e-34
1.77199e-36
8.54874e-36
5.27789e-36
1.68551e-36
4.4555e-37
3.0953e-37
5.61706e-37
8.79744e-37
1.15057e-36
1.54386e-36
2.17969e-36
3.10668e-36
4.39618e-36
6.38063e-36
8.51904e-36
8.71291e-36
6.89905e-36
5.02165e-36
3.59974e-36
2.44248e-36
1.68184e-36
1.2589e-36
9.71549e-37
6.24214e-37
3.13736e-37
3.3886e-37
1.27799e-36
4.09871e-36
6.85389e-36
1.32441e-36
8.69068e-39
4.04132e-38
2.42978e-38
7.57683e-39
1.98708e-39
1.71729e-39
3.23163e-39
4.7287e-39
5.50723e-39
6.2059e-39
7.20562e-39
9.10277e-39
1.22983e-38
1.64402e-38
1.90037e-38
1.78467e-38
1.53721e-38
1.35301e-38
1.1502e-38
8.80023e-39
6.7774e-39
5.75303e-39
5.01142e-39
3.5207e-39
1.78721e-39
1.51739e-39
5.21513e-39
1.70164e-38
2.85339e-38
5.82156e-39
3.7558e-41
1.68253e-40
1.01068e-40
2.90263e-41
8.24735e-42
8.5481e-42
1.54534e-41
2.02303e-41
2.04683e-41
1.9899e-41
2.10341e-41
2.53535e-41
3.02532e-41
3.26494e-41
3.22189e-41
3.14944e-41
3.21519e-41
3.23518e-41
2.96089e-41
2.47014e-41
2.20015e-41
2.20336e-41
2.21304e-41
1.70446e-41
8.83869e-42
6.12284e-42
1.87088e-41
6.29351e-41
1.07344e-40
2.2814e-41
1.4419e-43
6.21568e-43
3.59605e-43
1.00932e-43
3.12904e-44
3.49557e-44
5.84458e-44
7.06048e-44
6.40812e-44
5.74819e-44
5.71141e-44
5.96097e-44
5.45875e-44
4.74572e-44
4.57895e-44
5.03134e-44
5.45407e-44
5.52339e-44
5.44158e-44
5.51111e-44
6.20118e-44
7.39505e-44
8.40747e-44
6.85739e-44
3.66501e-44
2.2462e-44
6.059e-44
2.09765e-43
3.59014e-43
7.75919e-44
4.64895e-46
2.03032e-45
1.08449e-45
3.23237e-46
9.91221e-47
1.16432e-46
1.94894e-46
2.18183e-46
1.82264e-46
1.44102e-46
1.21233e-46
9.80639e-47
7.22443e-47
5.78841e-47
5.86277e-47
6.39682e-47
6.4899e-47
6.7444e-47
8.11832e-47
1.07049e-46
1.46996e-46
1.99153e-46
2.37774e-46
2.13568e-46
1.25304e-46
7.45086e-47
1.73781e-46
6.03206e-46
1.031e-45
2.29088e-46
1.39331e-48
5.56143e-48
3.2011e-48
9.19383e-49
2.61596e-49
3.23637e-49
5.2311e-49
5.03719e-49
3.86185e-49
2.57817e-49
1.84079e-49
1.31599e-49
9.33748e-50
7.39794e-50
6.6902e-50
5.96445e-50
5.60028e-50
6.83031e-50
1.06699e-49
1.72822e-49
2.68491e-49
4.08787e-49
5.25867e-49
5.66544e-49
3.8215e-49
2.24624e-49
4.35368e-49
1.49591e-48
2.62477e-48
6.14816e-49
3.82207e-51
1.41526e-50
9.0662e-51
2.19682e-51
6.2368e-52
7.49758e-52
1.05378e-51
9.26923e-52
6.19969e-52
3.70098e-52
2.4803e-52
1.75822e-52
1.20007e-52
7.9619e-53
5.4917e-53
4.26353e-53
4.64173e-53
7.54061e-53
1.43218e-52
2.56067e-52
4.24342e-52
7.07648e-52
1.07657e-51
1.28971e-51
9.74885e-52
5.62555e-52
9.69744e-52
3.3961e-51
6.33372e-51
1.5562e-51
8.5581e-54
3.89729e-53
2.08527e-53
4.65884e-54
1.29436e-54
1.36723e-54
1.82188e-54
1.58333e-54
9.76641e-55
5.52429e-55
3.62089e-55
2.40092e-55
1.37268e-55
7.31879e-56
4.55621e-56
4.00333e-56
5.37041e-56
9.62636e-56
1.82776e-55
3.22972e-55
5.56451e-55
1.02787e-54
1.81511e-54
2.32223e-54
1.87605e-54
1.09267e-54
1.93232e-54
7.23721e-54
1.4516e-53
3.63905e-54
2.0299e-56
9.00319e-56
4.15945e-56
1.00265e-56
2.31995e-57
2.16847e-57
2.8466e-57
2.36665e-57
1.32932e-57
7.27006e-58
4.51715e-58
2.61325e-58
1.28534e-58
6.65496e-59
4.67396e-59
4.68182e-59
6.19434e-59
9.99033e-59
1.80746e-58
3.35489e-58
6.5602e-58
1.40004e-57
2.78019e-57
3.63854e-57
2.99251e-57
1.77368e-57
3.41297e-57
1.39546e-56
3.00324e-56
7.54161e-57
4.34325e-59
1.54564e-58
8.29275e-59
1.89494e-59
3.86232e-60
3.94064e-60
4.46419e-60
3.34874e-60
1.70825e-60
8.90652e-61
4.96249e-61
2.54418e-61
1.21795e-61
7.02863e-62
5.49988e-62
5.40198e-62
6.49135e-62
9.91138e-62
1.95711e-61
4.26617e-61
9.55492e-61
2.17315e-60
4.30168e-60
5.34144e-60
4.22977e-60
2.53546e-60
5.26359e-60
2.34843e-59
5.34415e-59
1.33634e-59
6.30431e-62
2.47399e-61
1.40832e-61
2.54381e-62
5.96826e-63
6.81883e-63
6.58007e-63
4.84586e-63
2.41687e-63
1.19583e-63
5.98194e-64
2.83816e-64
1.37218e-64
8.23966e-65
6.18534e-65
5.57002e-65
6.61391e-65
1.1148e-64
2.54799e-64
6.1214e-64
1.37892e-63
2.94771e-63
5.53162e-63
6.52179e-63
5.32575e-63
3.38317e-63
7.06894e-63
3.32664e-62
7.89943e-62
1.95795e-62
8.56212e-65
4.439e-64
1.92977e-64
2.94843e-65
8.38226e-66
8.53358e-66
7.87248e-66
6.10882e-66
3.05533e-66
1.40222e-66
6.34812e-67
2.79876e-67
1.278e-67
6.9903e-68
4.68373e-68
4.12569e-68
5.50743e-68
1.10275e-67
2.79843e-67
6.73833e-67
1.43673e-66
2.97622e-66
5.95012e-66
7.51108e-66
7.21305e-66
4.82837e-66
8.64638e-66
3.95046e-65
9.47067e-65
2.36684e-65
1.49133e-67
8.3624e-67
1.84906e-67
3.55213e-68
1.00406e-68
9.7339e-69
9.19385e-69
7.01527e-69
3.25038e-69
1.31367e-69
5.30046e-70
2.15258e-70
9.02981e-71
4.45399e-71
2.88208e-71
2.84835e-71
4.57906e-71
1.04159e-70
2.6782e-70
6.17785e-70
1.30432e-69
2.91352e-69
6.75785e-69
9.9077e-69
1.04835e-68
6.84703e-69
9.78094e-69
4.31606e-68
1.05143e-67
2.49897e-68
2.19583e-70
6.46797e-70
1.89646e-70
4.22225e-71
1.25004e-71
1.17257e-71
1.09235e-71
7.49232e-72
3.08126e-72
1.09342e-72
4.12677e-73
1.68002e-73
7.12699e-74
3.61408e-74
2.5507e-74
2.83099e-74
4.80157e-74
1.04745e-73
2.46509e-73
5.39356e-73
1.18624e-72
2.94641e-72
7.54542e-72
1.17366e-71
1.21306e-71
7.5855e-72
1.06368e-71
4.44844e-71
1.06371e-70
2.52087e-71
1.67734e-73
6.11465e-73
2.83822e-73
6.53196e-74
1.4411e-74
1.22545e-74
1.11252e-74
7.10171e-75
2.73312e-75
9.32585e-76
3.67911e-76
1.624e-76
7.32891e-77
3.89204e-77
2.82826e-77
3.02594e-77
4.58296e-77
8.58925e-77
1.82917e-76
4.0407e-76
9.69993e-76
2.63263e-75
6.91437e-75
1.0275e-74
1.00475e-74
6.42286e-75
9.82036e-75
3.95295e-74
9.57806e-74
2.58929e-74
2.12429e-76
1.04519e-75
5.04547e-76
7.89884e-77
1.52482e-77
1.23287e-77
1.18058e-77
7.74145e-78
3.00857e-78
1.06804e-78
4.46586e-79
2.00757e-79
8.78664e-80
4.42933e-80
2.97354e-80
2.80137e-80
3.65305e-80
6.17402e-80
1.31869e-79
3.21128e-79
8.51597e-79
2.39419e-78
6.02355e-78
8.2852e-78
7.86984e-78
5.49167e-78
8.55208e-78
3.54945e-77
9.26604e-77
2.63284e-77
3.19992e-79
1.30936e-78
5.26914e-79
8.25941e-80
1.67268e-80
1.48125e-80
1.52609e-80
1.02123e-80
4.00826e-81
1.4359e-81
5.82168e-82
2.41267e-82
9.59145e-83
4.48576e-83
2.84525e-83
2.52795e-83
3.1907e-83
5.52039e-83
1.27452e-82
3.36945e-82
9.12873e-82
2.44285e-81
5.64807e-81
7.46593e-81
7.10868e-81
5.29696e-81
8.2024e-81
3.39979e-80
8.62146e-80
2.33084e-80
3.1492e-82
1.25742e-81
6.06632e-82
1.04099e-82
2.35397e-83
2.24186e-83
2.16386e-83
1.24447e-83
4.39071e-84
1.38642e-84
4.87904e-85
1.76537e-85
6.57346e-86
3.15986e-86
2.15921e-86
2.07737e-86
2.81708e-86
5.20897e-86
1.25477e-85
3.33417e-85
8.72175e-85
2.22482e-84
5.04845e-84
7.00757e-84
7.04787e-84
5.44043e-84
7.85245e-84
3.17273e-83
7.84867e-83
1.82965e-83
4.87474e-85
2.76106e-84
1.29221e-84
2.17e-85
4.99434e-86
4.13628e-86
3.17222e-86
1.31022e-86
3.42024e-87
8.22152e-88
2.31566e-88
7.40265e-89
2.82396e-89
1.55394e-89
1.22647e-89
1.31508e-89
1.89539e-89
3.61598e-89
8.77594e-89
2.32574e-88
6.21338e-88
1.70143e-87
4.35368e-87
7.20604e-87
8.13929e-87
6.39397e-87
8.43431e-87
3.08518e-86
6.89913e-86
1.62874e-86
1.1776e-87
5.94055e-87
2.29607e-87
4.27429e-88
9.4168e-89
6.35923e-89
3.8577e-89
1.17904e-89
2.4888e-90
5.31066e-91
1.41716e-91
4.69822e-92
1.8482e-92
1.00603e-92
7.72753e-93
8.13892e-93
1.15016e-92
2.22941e-92
5.60823e-92
1.5748e-91
4.69824e-91
1.50382e-90
4.56199e-90
8.98151e-90
1.10745e-89
8.66003e-90
1.05462e-89
3.52824e-89
7.49851e-89
1.86039e-89
1.81483e-90
5.87879e-90
2.47604e-90
5.57964e-91
1.20374e-91
6.11577e-92
3.34854e-92
1.09116e-92
2.74771e-93
6.76733e-94
1.9563e-94
6.47157e-95
2.30469e-95
1.07149e-95
7.04923e-96
6.89291e-96
9.56604e-96
1.92285e-95
5.07091e-95
1.49284e-94
4.71407e-94
1.61721e-93
5.27177e-93
1.1139e-92
1.40687e-92
1.07936e-92
1.28108e-92
4.16467e-92
9.04893e-92
2.25496e-92
9.06907e-94
1.79271e-93
1.44338e-93
4.49134e-94
8.42551e-95
4.18162e-95
2.98591e-95
1.42143e-95
4.82966e-96
1.35817e-96
3.88493e-97
1.15015e-97
3.41496e-98
1.31759e-98
7.6546e-99
7.11453e-99
9.73522e-99
1.95218e-98
5.16166e-98
1.52225e-97
4.80663e-97
1.6305e-96
5.22654e-96
1.09956e-95
1.38571e-95
1.08282e-95
1.38785e-95
4.83182e-95
1.00334e-94
2.43838e-95
4.19028e-97
1.45245e-96
1.27833e-96
3.36805e-97
5.91719e-98
4.17881e-98
3.99569e-98
2.54549e-98
1.01042e-98
2.79415e-99
7.14455e-100
1.82304e-100
4.66934e-101
1.61731e-101
8.89791e-102
7.99668e-102
1.06831e-101
2.1016e-101
5.48262e-101
1.58615e-100
4.83852e-100
1.55754e-99
4.65528e-99
9.26949e-99
1.15218e-98
9.49833e-99
1.22178e-98
4.14482e-98
9.13519e-98
2.34043e-98
8.05689e-100
3.87353e-99
2.17254e-99
3.45591e-100
7.5649e-101
6.43118e-101
6.82228e-101
4.68497e-101
1.76914e-101
4.45877e-102
1.04123e-102
2.50333e-103
6.28134e-104
2.17928e-104
1.20161e-104
1.07916e-104
1.43852e-104
2.81862e-104
7.27297e-104
2.04433e-103
5.89299e-103
1.74197e-102
4.6825e-102
8.37932e-102
9.9812e-102
8.40893e-102
1.1023e-101
3.36561e-101
6.78904e-101
1.99158e-101
1.97495e-102
7.69266e-102
3.69272e-102
5.45147e-103
1.0839e-103
8.86254e-104
9.84994e-104
6.18323e-104
2.15041e-104
5.3686e-105
1.34057e-105
3.60041e-106
9.86918e-107
3.58516e-107
2.01641e-107
1.82366e-107
2.39249e-107
4.52946e-107
1.13741e-106