/*--------------------------------*- C++ -*----------------------------------*\
| =========                 |                                                 |
| \\      /  F ield         | OpenFOAM: The Open Source CFD Toolbox           |
|  \\    /   O peration     | Version:  2312                                  |
|   \\  /    A nd           | Website:  www.openfoam.com                      |
|    \\/     M anipulation  |                                                 |
\*---------------------------------------------------------------------------*/
FoamFile
{
    version     2.0;
    format      ascii;
    arch        "LSB;label=32;scalar=64";
    class       surfaceScalarField;
    location    "1.553784609827";
    object      alphaPhi0.water;
}
// * * * * * * * * * * * * * * * * * * * * * * * * * * * * * * * * * * * * * //

dimensions      [0 3 -1 0 0 0 0];

oriented        oriented;

internalField   nonuniform List<scalar> 
263100
(
-3.34889e-09
6.69751e-09
-3.34889e-09
1.78798e-09
-3.4716e-09
-1.76702e-09
4.28085e-09
-1.26002e-09
-1.32149e-09
5.93997e-09
-9.9369e-10
-7.53842e-10
7.13965e-09
-1.29803e-09
1.02769e-11
8.16834e-09
-1.70709e-09
5.92334e-10
8.99216e-09
-2.11134e-09
1.20587e-09
9.36638e-09
-2.27027e-09
1.82162e-09
9.06583e-09
-2.02723e-09
2.26337e-09
7.99599e-09
-1.33636e-09
2.35408e-09
6.1637e-09
-3.85813e-10
2.18003e-09
3.73554e-09
6.39517e-10
1.76517e-09
1.07926e-09
1.4322e-09
1.21467e-09
-1.27382e-09
1.75102e-09
6.05229e-10
-2.77498e-09
1.45374e-09
6.06277e-11
-3.25471e-09
6.3352e-10
-1.33897e-10
-2.74416e-09
-3.89271e-10
-9.8626e-11
-1.64555e-09
-1.28171e-09
2.04062e-10
-6.77152e-10
-1.76065e-09
8.06847e-10
-5.61082e-10
-1.53283e-09
1.42041e-09
-1.76824e-09
-6.60779e-10
1.85648e-09
-4.37904e-09
6.42436e-10
1.93832e-09
-7.9659e-09
1.84591e-09
1.68995e-09
-1.13412e-08
2.18207e-09
1.12033e-09
-1.30616e-08
1.21059e-09
4.15859e-10
-1.18059e-08
-1.02433e-09
-3.43415e-10
-6.45685e-09
-4.50389e-09
-9.70786e-10
4.4083e-09
-7.55164e-09
-3.44648e-09
1.81751e-08
-9.67182e-09
-4.22849e-09
4.8444e-08
-3.04031e-08
9.2828e-10
4.72261e-09
9.28279e-10
1.03091e-09
-4.6781e-09
9.57573e-10
1.12322e-09
-2.39786e-09
9.07949e-10
1.25531e-09
-2.07321e-09
8.12118e-10
1.57267e-09
-2.52592e-09
7.79662e-10
2.11916e-09
-3.12084e-09
7.44489e-10
2.84376e-09
-3.62592e-09
6.79643e-10
3.658e-09
-3.77606e-09
5.98023e-10
4.46382e-09
-3.45151e-09
5.4534e-10
5.09332e-09
-2.57757e-09
5.61526e-10
5.43915e-09
-1.38555e-09
6.2736e-10
5.43015e-09
-2.42819e-10
8.87412e-10
5.00814e-09
6.73247e-10
1.1967e-09
4.24358e-09
9.49052e-10
1.59762e-09
3.13139e-09
6.11697e-10
1.99517e-09
1.66811e-09
-1.50131e-10
2.29124e-09
8.79496e-11
-1.2075e-09
2.43905e-09
-1.43602e-09
-2.07651e-09
2.34849e-09
-2.80304e-09
-2.40865e-09
2.02682e-09
-3.94187e-09
-1.99915e-09
1.5927e-09
-4.91544e-09
-9.27067e-10
1.19804e-09
-5.7343e-09
4.18639e-10
9.67999e-10
-6.43551e-09
1.54454e-09
8.93796e-10
-6.66785e-09
1.31901e-09
9.53813e-10
-6.58287e-09
-2.83932e-10
1.23944e-09
-6.60236e-09
-3.16727e-09
1.97095e-09
-6.84633e-09
-7.31877e-09
2.85574e-09
-2.28269e-09
-1.74209e-08
5.10271e-09
1.27392e-08
-3.34972e-08
8.6131e-09
5.81275e-08
2.95239e-09
2.06662e-09
5.16975e-10
2.06662e-09
-3.07494e-10
-3.38092e-09
1.03297e-09
-1.93465e-09
-1.66289e-09
8.51202e-10
-2.99327e-09
-1.53009e-09
4.78695e-10
-3.67337e-09
-2.01032e-09
1.33117e-10
-3.85522e-09
-2.78461e-09
-1.78404e-10
-3.38355e-09
-3.59798e-09
-5.14083e-10
-2.21189e-09
-4.14194e-09
-8.08761e-10
-3.83203e-10
-4.34175e-09
-9.28748e-10
1.88464e-09
-3.99558e-09
-8.27303e-10
4.29274e-09
-3.2533e-09
-5.06007e-10
6.37721e-09
-2.32068e-09
3.76406e-11
7.81653e-09
-1.3422e-09
6.27589e-10
8.06337e-09
-5.47103e-10
1.30475e-09
6.96554e-09
-5.69518e-12
1.77129e-09
4.63594e-09
2.30212e-10
2.00271e-09
1.44849e-09
1.99785e-10
1.82798e-09
-1.88332e-09
5.81265e-12
1.28901e-09
-4.55308e-09
-2.75524e-10
5.65524e-10
-5.97065e-09
-4.03262e-10
-1.61988e-10
-5.94531e-09
-3.07408e-10
-6.42854e-10
-4.6324e-09
-7.10479e-11
-8.36452e-10
-2.42134e-09
4.33927e-12
-7.0004e-10
-7.05423e-11
-6.89125e-10
-3.87365e-10
1.96083e-09
-2.29925e-09
-7.46803e-11
2.76469e-09
-4.1261e-09
8.50611e-11
-1.44781e-10
-4.88957e-09
4.01208e-10
-7.66979e-09
-1.35108e-08
3.52563e-09
-4.93515e-09
-4.49409e-08
8.61082e-09
3.51064e-08
1.80637e-08
2.00443e-09
-3.50462e-09
2.00443e-09
-1.37852e-09
-7.61416e-10
8.29533e-10
-3.62843e-09
7.98018e-11
5.70034e-10
-5.24586e-09
4.75947e-11
1.08005e-10
-6.46908e-09
-4.38595e-10
-2.74524e-10
-7.14188e-09
-1.36968e-09
-6.62402e-10
-7.04875e-09
-2.4968e-09
-1.10895e-09
-6.03695e-09
-3.57866e-09
-1.48483e-09
-4.18251e-09
-4.43286e-09
-1.66971e-09
-1.61917e-09
-4.83538e-09
-1.6287e-09
1.34692e-09
-4.74051e-09
-1.3854e-09
4.19674e-09
-4.12758e-09
-9.53564e-10
6.3491e-09
-2.99953e-09
-4.12044e-10
7.26589e-09
-1.44518e-09
5.63681e-11
6.72978e-09
3.51494e-10
2.4552e-10
4.79562e-09
2.10024e-09
1.22725e-10
1.92541e-09
3.31129e-09
-1.89387e-10
-1.08199e-09
3.74911e-09
-6.88445e-10
-3.41577e-09
3.29298e-09
-1.18918e-09
-4.35296e-09
2.16861e-09
-1.58892e-09
-3.53867e-09
7.69668e-10
-1.84392e-09
-1.21054e-09
-4.32503e-10
-1.91696e-09
1.99044e-09
-1.39754e-09
-1.74745e-09
5.07247e-09
-2.35827e-09
-1.36034e-09
7.22631e-09
-3.52384e-09
-8.76936e-10
9.07186e-09
-5.08245e-09
-8.37285e-10
1.1841e-08
-4.59137e-09
-3.01417e-09
3.14088e-09
-1.42227e-09
-3.33378e-09
-1.12059e-08
-2.76191e-08
-2.93605e-09
1.59744e-08
7.98224e-09
1.60705e-09
-6.66449e-09
1.60705e-09
-1.56352e-09
1.94474e-09
6.21775e-10
-3.63442e-09
1.86706e-09
4.31505e-10
-5.15197e-09
1.64766e-09
6.95254e-11
-6.38467e-09
1.14985e-09
-2.00167e-10
-7.24193e-09
1.05124e-10
-4.60084e-10
-7.57962e-09
-1.25089e-09
-7.51084e-10
-7.30504e-09
-2.76356e-09
-9.35743e-10
-6.35936e-09
-4.08805e-09
-1.14328e-09
-4.74606e-09
-5.12493e-09
-1.187e-09
-2.66869e-09
-5.55833e-09
-1.13672e-09
-4.58446e-10
-5.21706e-09
-1.01424e-09
1.54021e-09
-3.99271e-09
-9.16391e-10
2.95215e-09
-1.91983e-09
-8.64991e-10
3.60023e-09
6.79743e-10
-9.18501e-10
3.29949e-09
3.49426e-09
-1.0459e-09
2.22817e-09
5.60218e-09
-1.17736e-09
8.76545e-10
6.45855e-09
-1.31507e-09
-1.08398e-10
5.81359e-09
-1.48679e-09
-2.2876e-10
3.99834e-09
-1.64951e-09
7.17088e-10
1.69065e-09
-1.79264e-09
2.6945e-09
-4.20036e-10
-1.89988e-09
5.24309e-09
-1.90329e-09
-1.93755e-09
7.60532e-09
-2.75769e-09
-1.84447e-09
8.83571e-09
-3.13803e-09
-1.48845e-09
8.56959e-09
-3.98419e-09
-6.99517e-10
9.29099e-09
-4.49146e-09
-6.87146e-10
6.11804e-09
3.57888e-09
-1.69051e-09
-6.6673e-09
-1.0339e-08
-4.36495e-09
9.34134e-09
8.05687e-11
7.21968e-10
-8.00468e-09
7.21967e-10
-9.68553e-10
3.62582e-09
2.06182e-10
-1.95772e-09
2.82168e-09
2.16835e-10
-2.65133e-09
2.36423e-09
1.59395e-10
-3.32785e-09
1.83612e-09
1.71478e-10
-4.02603e-09
7.99443e-10
1.81462e-10
-4.70422e-09
-6.01384e-10
1.99459e-10
-5.38669e-09
-2.17689e-09
2.56124e-10
-5.9845e-09
-3.64723e-09
3.02974e-10
-6.28564e-09
-4.8825e-09
1.86766e-10
-6.1593e-09
-5.61201e-09
3.49063e-11
-5.49232e-09
-5.6221e-09
-1.76026e-10
-4.24171e-09
-4.75065e-09
-4.27736e-10
-2.53272e-09
-2.88528e-09
-6.97112e-10
-6.21109e-10
-3.3003e-10
-8.69408e-10
1.17053e-09
2.65047e-09
-9.23962e-10
2.56092e-09
5.05056e-09
-8.1683e-10
3.44179e-09
6.22974e-09
-6.25609e-10
3.93374e-09
5.82397e-09
-4.65383e-10
4.25072e-09
4.1444e-09
-4.10839e-10
4.72597e-09
1.80191e-09
-5.15781e-10
5.54982e-09
-4.20493e-10
-7.32605e-10
6.5839e-09
-1.85447e-09
-9.72307e-10
7.55316e-09
-2.4246e-09
-1.17361e-09
7.92407e-09
-1.98944e-09
-1.37541e-09
6.174e-09
-7.48038e-10
-1.3304e-09
3.29089e-09
-3.50913e-10
-1.09536e-09
2.38932e-09
6.88888e-09
-2.24116e-09
-4.21992e-09
1.58481e-09
-5.14776e-09
8.24009e-09
-2.97901e-09
-7.17227e-10
-6.45251e-09
-7.17228e-10
-5.66207e-11
3.69842e-09
-5.59138e-10
7.67204e-10
2.44566e-09
-2.90685e-10
1.5209e-09
1.84496e-09
-8.28039e-11
1.93126e-09
1.30985e-09
2.60775e-10
1.73174e-09
4.99226e-10
6.35621e-10
7.69278e-10
-5.08866e-10
9.94251e-10
-8.94643e-10
-1.68554e-09
1.28263e-09
-3.07992e-09
-2.82436e-09
1.45589e-09
-5.47378e-09
-3.85189e-09
1.43864e-09
-7.58466e-09
-4.66637e-09
1.22228e-09
-8.77867e-09
-5.16499e-09
7.76674e-10
-8.59401e-09
-5.13269e-09
2.22426e-10
-7.02303e-09
-4.29258e-09
-1.4974e-10
-4.38869e-09
-2.67166e-09
-2.85524e-10
-1.09736e-09
-5.10134e-10
-1.25658e-10
2.1378e-09
1.63522e-09
1.87204e-10
4.79959e-09
3.01303e-09
5.67683e-10
6.49904e-09
3.19004e-09
9.5611e-10
7.26102e-09
2.22148e-09
1.1939e-09
7.33847e-09
5.11505e-10
1.25919e-09
6.96413e-09
-1.11534e-09
1.13041e-09
6.36163e-09
-2.1186e-09
9.44024e-10
5.36527e-09
-2.11999e-09
7.86105e-10
3.95167e-09
-9.03741e-10
4.39624e-10
1.79979e-09
1.94163e-09
-4.08525e-10
-1.59201e-09
4.29378e-09
-1.10771e-09
-2.19325e-09
9.93252e-09
-2.28337e-09
-4.05077e-09
7.65688e-09
-4.04578e-09
6.57906e-09
-2.24706e-09
-2.43403e-09
-1.4908e-09
-2.43403e-09
6.90873e-10
2.28001e-09
-1.59841e-09
3.47658e-09
1.04144e-09
-1.28954e-09
5.79828e-09
4.90843e-10
-8.85594e-10
7.37688e-09
1.19e-10
-3.16688e-10
7.84956e-09
-1.51389e-10
2.36809e-10
6.91595e-09
-3.13039e-10
7.83494e-10
4.60383e-09
-5.09038e-10
1.16786e-09
1.22984e-09
-8.07717e-10
1.3768e-09
-2.65042e-09
-1.3135e-09
1.35008e-09
-6.30627e-09
-2.13126e-09
1.12048e-09
-8.94016e-09
-3.29436e-09
7.58061e-10
-9.99657e-09
-4.50968e-09
4.26996e-10
-9.23852e-09
-5.24584e-09
1.90863e-10
-6.82607e-09
-5.22455e-09
1.40421e-10
-3.34693e-09
-4.34713e-09
3.63067e-10
4.97236e-10
-2.93282e-09
7.33977e-10
4.0238e-09
-1.64978e-09
1.15005e-09
6.60205e-09
-9.68715e-10
1.59664e-09
7.9235e-09
-1.06615e-09
1.98436e-09
8.04376e-09
-1.86612e-09
2.27835e-09
7.24004e-09
-2.78672e-09
2.50142e-09
5.64313e-09
-3.09053e-09
2.60455e-09
3.23411e-09
-2.17532e-09
2.51423e-09
1.6542e-10
1.12264e-10
2.12145e-09
-2.43038e-09
3.49359e-09
1.13548e-09
-4.98278e-09
6.85304e-09
1.09373e-10
-3.84677e-09
9.46454e-09
-5.29095e-10
-2.60088e-09
7.18605e-09
-6.18421e-10
3.11864e-09
9.93052e-10
-3.4523e-09
5.46199e-09
-3.4523e-09
1.62882e-09
-4.77293e-10
-2.28575e-09
5.67819e-09
-9.79282e-10
-2.00283e-09
8.93534e-09
-1.29873e-09
-1.45291e-09
1.11251e-08
-1.17336e-09
-8.9498e-10
1.19139e-08
-6.01953e-10
-3.48405e-10
1.10806e-08
4.00368e-10
9.7691e-11
8.73762e-09
1.491e-09
3.10845e-10
5.21391e-09
2.2957e-09
3.81833e-10
1.10313e-09
2.39647e-09
3.608e-10
-2.86815e-09
1.54277e-09
2.61001e-10
-6.05497e-09
-2.67766e-10
1.32633e-10
-7.98241e-09
-2.68377e-09
8.62872e-11
-8.42961e-09
-4.94549e-09
1.45499e-10
-7.41318e-09
-6.50279e-09
2.73336e-10
-5.18453e-09
-6.99051e-09
4.35702e-10
-2.20487e-09
-6.52767e-09
6.40676e-10
9.78074e-10
-5.66294e-09
8.54995e-10
3.81716e-09
-4.93337e-09
1.14559e-09
5.82733e-09
-4.61753e-09
1.55485e-09
6.6744e-09
-4.60304e-09
1.8982e-09
6.16616e-09
-4.49746e-09
2.22617e-09
4.35859e-09
-3.69927e-09
2.42864e-09
1.5638e-09
-1.64966e-09
2.29398e-09
-1.54472e-09
1.389e-09
1.87585e-09
-3.6578e-09
4.54645e-09
1.12793e-09
-4.25046e-09
6.63594e-09
9.02399e-10
-1.98322e-09
5.9866e-09
1.3252e-09
-3.712e-11
2.97921e-09
2.38867e-09
5.50784e-10
2.63175e-09
-3.15939e-09
1.17885e-08
-3.15939e-09
2.46076e-09
-4.30991e-09
-1.7847e-09
6.61113e-09
-3.7393e-09
-1.39493e-09
9.77164e-09
-3.65333e-09
-8.19927e-10
1.1693e-08
-2.77529e-09
-3.45047e-10
1.21835e-08
-1.11989e-09
-1.03011e-11
1.14078e-08
1.05747e-09
7.00345e-11
9.54226e-09
3.26942e-09
3.11909e-11
6.94666e-09
4.9373e-09
-1.03707e-10
3.99665e-09
5.50907e-09
-2.15995e-10
1.01197e-09
4.62656e-09
-1.42023e-10
-1.73156e-09
2.39177e-09
5.64545e-11
-4.10208e-09
-6.60172e-10
3.36985e-10
-5.90352e-09
-3.70431e-09
5.67133e-10
-6.92171e-09
-6.13155e-09
6.66905e-10
-6.93513e-09
-7.57024e-09
6.20448e-10
-5.74836e-09
-8.09418e-09
4.0802e-10
-3.56111e-09
-8.0632e-09
2.36915e-10
-8.86936e-10
-7.7772e-09
1.86464e-10
1.55124e-09
-7.31501e-09
2.68905e-10
3.14077e-09
-6.62665e-09
4.39417e-10
3.32673e-09
-5.28738e-09
6.09954e-10
2.20023e-09
-3.02873e-09
4.6814e-10
4.22984e-10
1.02581e-10
4.8316e-11
-1.12595e-09
3.3981e-09
-4.22969e-10
-1.3993e-09
5.3848e-09
-5.13926e-10
-8.5645e-11
5.19289e-09
1.90934e-10
1.63935e-09
3.19185e-09
1.13494e-09
1.41414e-09
1.56624e-09
1.69821e-09
1.31078e-09
6.80574e-10
-6.30612e-10
1.30454e-08
-6.30614e-10
3.40608e-09
-9.01359e-09
6.82182e-10
5.81707e-09
-7.04975e-09
9.1064e-10
7.21575e-09
-6.20275e-09
1.15453e-09
7.66358e-09
-4.54599e-09
1.31531e-09
7.34038e-09
-2.06258e-09
1.24517e-09
6.63533e-09
7.89715e-10
9.39902e-10
5.86078e-09
3.54153e-09
4.60761e-10
5.18431e-09
5.48591e-09
8.29098e-11
4.47617e-09
6.20604e-09
-3.10962e-11
3.49506e-09
5.47166e-09
1.01197e-10
1.9038e-09
3.51448e-09
4.43954e-10
-4.36692e-10
8.86135e-10
7.80121e-10
-3.31134e-09
-1.72056e-09
8.84946e-10
-6.13797e-09
-4.02518e-09
7.18483e-10
-8.16756e-09
-5.82438e-09
2.82038e-10
-8.79773e-09
-7.16739e-09
-3.0094e-10
-7.8796e-09
-8.1677e-09
-8.2093e-10
-5.79035e-09
-8.75038e-09
-1.12438e-09
-3.33948e-09
-8.57329e-09
-1.19794e-09
-1.39511e-09
-7.38025e-09
-1.18913e-09
-3.83948e-10
-5.04081e-09
-1.24651e-09
-1.2093e-10
-1.7677e-09
-1.50347e-09
1.04912e-10
1.60901e-09
-1.70614e-09
8.43193e-10
4.26551e-09
-1.58035e-09
2.3651e-09
4.95945e-09
-1.0805e-09
3.89395e-09
3.92309e-09
-2.60726e-10
3.78073e-09
3.11397e-09
1.65048e-10
1.61256e-09
4.05685e-09
-3.76096e-10
3.88638e-09
-1.04366e-09
3.25015e-09
6.55917e-09
3.25015e-09
3.17585e-09
-1.27477e-08
3.86012e-09
2.26879e-09
-1.03348e-08
4.23964e-09
6.43939e-10
-8.45644e-09
3.91835e-09
-1.0293e-09
-6.14255e-09
3.29675e-09
-2.22539e-09
-3.18343e-09
2.32842e-09
-2.53992e-09
-9.3676e-11
1.19424e-09
-1.65468e-09
2.39721e-09
2.42931e-10
1.01586e-10
4.05794e-09
-3.5318e-10
2.10787e-09
4.68989e-09
-5.20175e-10
3.46796e-09
4.41935e-09
-3.40833e-10
3.41661e-09
3.67835e-09
-1.48765e-10
1.71119e-09
2.63376e-09
-8.33538e-11
-1.30697e-09
1.49032e-09
-2.40865e-10
-4.83561e-09
1.39426e-10
-6.92078e-10
-7.81089e-09
-1.60453e-09
-1.30692e-09
-9.47916e-09
-3.68823e-09
-1.87449e-09
-9.56072e-09
-5.83193e-09
-2.31158e-09
-8.31235e-09
-7.48995e-09
-2.55182e-09
-6.43422e-09
-7.96762e-09
-2.50637e-09
-4.5417e-09
-6.91683e-09
-2.35651e-09
-2.85513e-09
-4.47601e-09
-2.23446e-09
-1.13392e-09
-1.44444e-09
-2.02065e-09
1.01107e-09
1.1375e-09
-1.65729e-09
3.54184e-09
2.62387e-09
-8.96308e-10
5.62842e-09
2.8254e-09
3.85861e-12
6.03778e-09
2.83954e-09
5.86617e-10
4.21879e-09
4.32732e-09
4.74071e-10
1.67837e-09
6.5748e-09
-1.44172e-10
5.06479e-09
3.36929e-10
6.72278e-09
-6.84486e-09
6.72278e-09
1.25186e-09
-1.30984e-08
5.8866e-09
-3.70962e-09
-1.03412e-08
5.02641e-09
-8.00853e-09
-7.79668e-09
3.6878e-09
-1.13743e-08
-4.90249e-09
2.1606e-09
-1.30009e-08
-2.00952e-09
4.72648e-10
-1.25318e-08
2.62595e-10
-8.19584e-10
-9.9686e-09
1.64586e-09
-1.81837e-09
-5.96081e-09
2.44372e-09
-2.41068e-09
-1.66454e-09
2.85785e-09
-2.49196e-09
1.59255e-09
3.45759e-09
-2.33562e-09
2.9858e-09
4.44964e-09
-2.22042e-09
2.36396e-09
5.55728e-09
-2.37583e-09
2.27983e-10
6.28453e-09
-2.75065e-09
-2.52876e-09
5.99106e-09
-3.20119e-09
-5.03861e-09
4.35682e-09
-3.56252e-09
-6.6916e-09
1.59688e-09
-3.73531e-09
-7.33218e-09
-1.56957e-09
-3.70384e-09
-7.16887e-09
-4.24531e-09
-3.45885e-09
-6.43467e-09
-5.54632e-09
-3.17205e-09
-5.1962e-09
-5.26542e-09
-2.87773e-09
-3.3107e-09
-3.84376e-09
-2.49103e-09
-6.70103e-10
-2.14572e-09
-1.91763e-09
2.41539e-09
-8.78024e-10
-1.07378e-09
5.27126e-09
-2.40334e-10
-3.73243e-11
6.64116e-09
5.00602e-10
8.59025e-10
5.84315e-09
2.27381e-09
1.21939e-09
3.80529e-09
5.10875e-09
1.07548e-09
1.98188e-09
6.91433e-09
1.2866e-09
5.26549e-09
1.62805e-09
6.2151e-09
-1.92281e-08
6.2151e-09
-3.30796e-09
-6.399e-09
2.83994e-09
-1.08724e-08
-4.1903e-09
1.42396e-09
-1.63977e-08
-1.82683e-09
-4.43534e-10
-1.99258e-08
5.13035e-10
-1.8943e-09
-2.08327e-08
2.12532e-09
-3.2402e-09
-1.88937e-08
2.51098e-09
-4.20196e-09
-1.47163e-08
1.94114e-09
-4.48816e-09
-9.37852e-09
1.40073e-09
-4.31264e-09
-4.19986e-09
1.68706e-09
-4.03232e-09
-3.21528e-10
3.33922e-09
-3.79688e-09
1.89302e-09
5.99712e-09
-3.81697e-09
2.45048e-09
8.97292e-09
-4.04833e-09
1.92461e-09
1.10813e-08
-4.3634e-09
9.24394e-10
1.14263e-08
-4.53572e-09
-2.23318e-10
9.8338e-09
-4.42431e-09
-1.3741e-09
6.7425e-09
-4.0691e-09
-2.52382e-09
3.08553e-09
-3.54718e-09
-3.69108e-09
1.64007e-11
-3.09958e-09
-4.50495e-09
-1.87342e-09
-2.83309e-09
-4.44539e-09
-2.59114e-09
-2.69155e-09
-3.16018e-09
-2.60035e-09
-2.48997e-09
-7.69648e-10
-2.38859e-09
-2.13229e-09
2.02024e-09
-2.03811e-09
-1.65148e-09
4.03468e-09
-1.08424e-09
-1.23352e-09
4.40336e-09
1.10764e-09
-1.07413e-09
3.44796e-09
4.54581e-09
-1.43653e-09
2.39078e-09
7.55413e-09
-1.51148e-09
1.08544e-09
9.01198e-09
-8.99945e-10
8.21199e-09
-1.90954e-09
1.10817e-09
-2.1436e-08
1.10816e-09
-8.90137e-09
5.93235e-09
-2.4127e-09
-1.60131e-08
6.46182e-09
-3.62884e-09
-2.04732e-08
7.59838e-09
-5.05389e-09
-2.23498e-08
8.05091e-09
-5.74154e-09
-2.15279e-08
6.96902e-09
-5.7291e-09
-1.82692e-08
4.47527e-09
-5.26614e-09
-1.3575e-08
1.73525e-09
-4.51142e-09
-8.75988e-09
2.13474e-10
-3.63591e-09
-4.63838e-09
6.17139e-10
-3.0532e-09
-1.54749e-09
3.14656e-09
-2.90288e-09
6.90372e-10
6.88445e-09
-3.13937e-09
2.4218e-09
1.06875e-08
-3.47069e-09
3.82271e-09
1.32249e-08
-3.57418e-09
4.82516e-09
1.37149e-08
-3.31495e-09
5.09344e-09
1.22851e-08
-2.72574e-09
4.22829e-09
9.59589e-09
-1.96772e-09
2.25693e-09
6.44168e-09
-1.33636e-09
-3.46683e-10
3.74536e-09
-1.05727e-09
-2.73862e-09
1.76407e-09
-1.17381e-09
-3.97548e-09
1.2519e-10
-1.42287e-09
-3.8301e-09
-9.145e-10
-1.80474e-09
-2.57869e-09
-1.50273e-09
-2.14642e-09
-1.10822e-09
-1.02392e-09
-2.52343e-09
-2.26145e-10
1.09939e-09
-3.11876e-09
-1.5648e-10
4.92629e-09
-3.93667e-09
-2.70133e-10
9.1632e-09
-4.5311e-09
-4.8051e-10
1.21289e-08
-4.36142e-09
-8.35485e-10
1.39238e-08
-4.52452e-09
1.21145e-08
-4.682e-09
-4.44876e-09
-1.26045e-08
-4.44877e-09
-1.16246e-08
1.9804e-08
-6.9011e-09
-1.57392e-08
1.70904e-08
-6.69919e-09
-1.74668e-08
1.56908e-08
-6.5314e-09
-1.68647e-08
1.30582e-08
-5.74444e-09
-1.44029e-08
8.92453e-09
-4.51103e-09
-1.11404e-08
4.20759e-09
-3.04414e-09
-8.1285e-09
4.56261e-10
-1.7426e-09
-5.76577e-09
-1.29688e-09
-8.3256e-10
-4.16797e-09
-3.7482e-10
-5.69056e-10
-2.71982e-09
2.66903e-09
-9.27245e-10
-7.56583e-10
6.51093e-09
-1.54485e-09
1.9139e-09
1.00262e-08
-1.96124e-09
4.95595e-09
1.20775e-08
-1.83685e-09
7.44421e-09
1.25129e-08
-1.21101e-09
8.46137e-09
1.16507e-08
-2.86764e-10
7.58848e-09
1.0058e-08
5.22767e-10
4.98998e-09
8.23173e-09
9.22036e-10
1.52297e-09
6.40495e-09
9.02114e-10
-1.56029e-09
4.33946e-09
5.63777e-10
-3.52208e-09
1.97602e-09
1.1677e-10
-4.11009e-09
-1.3599e-10
-2.3134e-10
-4.04975e-09
-1.05333e-09
-5.78507e-10
-4.05173e-09
1.60297e-11
-1.10649e-09
-4.42735e-09
3.33945e-09
-1.90522e-09
-4.61558e-09
7.66717e-09
-2.54908e-09
-4.04735e-09
1.13031e-08
-2.65996e-09
-3.07464e-09
1.37059e-08
-2.47282e-09
-1.26405e-09
1.48986e-08
-2.70517e-09
1.08035e-08
9.11416e-11
-6.90858e-09
1.07554e-09
-6.90859e-09
-9.22462e-09
2.83403e-08
-6.47368e-09
-9.62525e-09
2.28581e-08
-5.58499e-09
-8.58352e-09
1.88978e-08
-4.42985e-09
-6.56173e-09
1.37853e-08
-2.8799e-09
-4.34433e-09
7.91102e-09
-1.27952e-09
-2.83332e-09
2.67488e-09
-2.75748e-12
-2.70758e-09
-3.56026e-10
7.02156e-10
-3.46278e-09
-1.23708e-09
7.36747e-10
-4.25221e-09
4.70423e-10
-1.27789e-12
-3.93434e-09
3.3483e-09
-9.36298e-10
-1.95096e-09
6.17048e-09
-1.57537e-09
1.4934e-09
8.22292e-09
-1.56105e-09
5.29973e-09
9.33753e-09
-9.67528e-10
8.12512e-09
9.81413e-09
-8.11162e-12
9.06583e-09
1.00198e-08
8.19187e-10
7.92698e-09
1.00194e-08
1.29661e-09
5.3801e-09
9.50079e-09
1.36084e-09
2.53055e-09
8.02517e-09
1.25229e-09
3.52982e-10
5.34548e-09
1.12328e-09
-9.4336e-10
2.01823e-09
1.14319e-09
-1.85912e-09
-7.65742e-10
1.39983e-09
-2.90173e-09
-1.86865e-09
1.7163e-09
-4.33563e-09
-4.34239e-10
1.78177e-09
-5.51701e-09
2.7409e-09
1.73474e-09
-5.52559e-09
5.70464e-09
1.97709e-09
-4.2428e-09
7.42776e-09
2.62313e-09
-2.15546e-09
8.06974e-09
3.56861e-09
5.52604e-10
7.27108e-09
4.89819e-09
3.87084e-09
7.40647e-09
-5.46245e-09
1.18401e-08
-5.46246e-09
-3.69147e-09
3.02225e-08
-3.85892e-09
-2.03935e-09
2.38918e-08
-2.84552e-09
-4.77995e-11
1.85376e-08
-1.74623e-09
1.77413e-09
1.26107e-08
-7.14106e-10
2.61286e-09
7.04505e-09
2.68016e-12
1.99373e-09
3.07474e-09
2.2406e-10
2.93669e-11
1.64996e-09
-2.32814e-11
-2.33405e-09
1.9178e-09
-7.72824e-10
-3.76176e-09
3.34898e-09
-1.438e-09
-3.40009e-09
4.78437e-09
-1.7878e-09
-1.06111e-09
5.38279e-09
-1.53463e-09
2.25158e-09
5.66793e-09
-7.23292e-10
5.21252e-09
6.07504e-09
3.58473e-10
6.82036e-09
7.16452e-09
1.11359e-09
6.83996e-09
8.67315e-09
1.39299e-09
5.71323e-09
9.98811e-09
1.18892e-09
4.34447e-09
9.9822e-09
8.56092e-10
3.40566e-09
8.20084e-09
6.56237e-10
2.99138e-09
4.8526e-09
7.33765e-10
2.53188e-09
1.1916e-09
1.07763e-09
1.28821e-09
-1.21042e-09
1.48774e-09
-7.72166e-10
-1.65054e-09
1.68692e-09
-2.88447e-09
-8.87821e-11
1.67254e-09
-3.78512e-09
1.70499e-09
1.89063e-09
-2.90277e-09
2.17654e-09
2.6138e-09
-9.01228e-10
1.58578e-09
3.78317e-09
1.36847e-09
8.00276e-10
4.89141e-09
2.12112e-09
1.94665e-10
6.16428e-09
2.25417e-09
3.57927e-09
-3.21444e-09
1.81527e-08
-3.21445e-09
-3.61447e-11
2.88154e-08
-1.84243e-09
2.49368e-09
2.30281e-08
-1.70166e-09
4.33531e-09
1.80076e-08
-1.3168e-09
5.47634e-09
1.25582e-08
-1.07438e-09
5.3431e-09
8.10741e-09
-9.12148e-10
3.93885e-09
5.37988e-09
-8.98841e-10
1.97405e-09
4.54068e-09
-9.52041e-10
2.42351e-10
4.55672e-09
-9.65492e-10
-4.43656e-10
4.5882e-09
-6.36072e-10
2.65315e-10
3.78922e-09
1.95514e-10
1.93976e-09
2.4067e-09
1.22286e-09
3.3392e-09
1.90526e-09
2.30997e-09
3.60245e-09
2.52524e-09
3.25914e-09
2.90852e-09
4.73467e-09
3.10677e-09
1.95267e-09
7.39697e-09
2.19871e-09
1.61031e-09
9.15555e-09
1.09844e-09
2.14614e-09
8.84289e-09
4.6977e-10
3.21706e-09
6.71429e-09
2.32901e-10
3.83434e-09
3.82098e-09
2.13284e-10
3.03293e-09
1.60539e-09
2.09799e-10
8.61772e-10
1.04228e-09
-2.02426e-10
-1.83204e-09
1.9976e-09
-1.00977e-09
-3.42611e-09
3.47215e-09
-1.97913e-09
-3.10526e-09
3.45251e-09
-2.08012e-09
-1.47707e-09
2.07904e-09
-1.58257e-09
2.83227e-11
1.27192e-09
-1.29997e-09
2.72557e-10
2.1133e-09
-1.70476e-09
-1.0318e-09
4.89868e-09
-3.54191e-09
8.62806e-09
-7.45853e-09
-2.23502e-09
2.25986e-08
-2.23503e-09
1.3652e-09
2.70046e-08
-1.71043e-09
3.95118e-09
2.23054e-08
-1.77744e-09
5.96605e-09
1.74544e-08
-1.3792e-09
7.20099e-09
1.22117e-08
-8.30168e-10
7.37051e-09
8.05997e-09
-1.07758e-10
6.58115e-09
5.70114e-09
4.25597e-10
5.5751e-09
4.46579e-09
9.80251e-10
4.91323e-09
3.39941e-09
1.67245e-09
4.94914e-09
1.7117e-09
2.67129e-09
4.95765e-09
-2.71979e-10
3.88843e-09
4.083e-09
-2.02428e-09
5.16892e-09
1.80389e-09
-1.52449e-09
5.60866e-09
-1.12733e-09
8.06502e-10
4.57792e-09
-3.59475e-09
4.21347e-09
2.92294e-09
-4.29547e-09
6.92904e-09
1.08484e-09
-3.06806e-09
7.7729e-09
4.02366e-11
-6.11365e-10
6.71868e-09
-4.70251e-10
1.40404e-09
5.0095e-09
-4.41227e-10
1.60606e-09
3.99606e-09
-4.61549e-10
-1.79281e-10
4.30513e-09
-9.2458e-10
-2.974e-09
6.0125e-09
-2.11225e-09
-5.08117e-09
7.54941e-09
-3.34157e-09
-5.02408e-09
7.25202e-09
-3.74636e-09
-3.13303e-09
5.05691e-09
-3.46037e-09
-1.55793e-09
3.73266e-09
-3.25649e-09
-1.24627e-09
4.97241e-09
-4.06776e-09
-2.50129e-09
9.15912e-09
-5.81366e-09
-3.96726e-09
1.48009e-08
-8.37134e-09
1.22825e-08
-7.45585e-09
-1.74156e-09
2.61491e-08
-1.74157e-09
2.31622e-09
2.40307e-08
-9.17446e-10
5.35397e-09
1.97004e-08
-2.92596e-10
7.72764e-09
1.44838e-08
6.98511e-10
9.18516e-09
9.14788e-09
1.64955e-09
9.5293e-09
5.28021e-09
2.40856e-09
9.32777e-09
2.80681e-09
2.99977e-09
9.05809e-09
1.0456e-09
3.54034e-09
8.75548e-09
-8.74186e-10
4.40036e-09
7.95343e-09
-2.83219e-09
5.17537e-09
5.71589e-09
-3.91504e-09
5.74171e-09
1.71091e-09
-3.29014e-09
5.17579e-09
-3.24743e-09
-1.21813e-10
3.49832e-09
-7.29644e-09
3.51132e-09
1.30391e-09
-9.28727e-09
6.97699e-09
-8.20158e-10
-8.29269e-09
7.67838e-09
-1.81165e-09
-5.19417e-09
6.46242e-09
-1.86692e-09
-2.14023e-09
4.97229e-09
-1.36685e-09
-1.05186e-09
4.74126e-09
-8.2069e-10
-2.17485e-09
6.23008e-09
-1.02708e-09
-4.49235e-09
8.75779e-09
-1.97344e-09
-6.15211e-09
1.0741e-08
-2.87201e-09
-5.67617e-09
1.00694e-08
-2.82498e-09
-3.39946e-09
6.8339e-09
-1.75944e-09
-1.4807e-09
3.61049e-09
-4.46873e-10
-1.37901e-09
3.77962e-09
-1.48812e-10
-2.52312e-09
7.32836e-09
-1.16462e-09
-3.33258e-09
1.23163e-08
-2.19769e-09
-1.68322e-09
1.58771e-08
-2.4697e-09
1.0187e-08
6.67081e-10
3.35651e-10
2.55891e-08
3.35646e-10
4.59497e-09
1.82029e-08
1.72484e-09
7.53827e-09
1.43458e-08
2.52042e-09
9.36909e-09
9.27305e-09
3.43361e-09
9.84896e-09
4.55246e-09
4.10526e-09
9.39848e-09
1.22011e-09
4.44066e-09
8.73242e-09
-9.39391e-10
4.30055e-09
8.29659e-09
-2.7326e-09
4.0886e-09
7.48893e-09
-4.05812e-09
3.88343e-09
5.48316e-09
-4.38296e-09
3.48975e-09
1.59781e-09
-2.66945e-09
2.62274e-09
-3.52312e-09
8.68367e-10
9.83939e-10
-8.24713e-09
5.53106e-09
-8.95471e-10
-1.0743e-08
8.31973e-09
-2.29764e-09
-9.9798e-09
8.59218e-09
-2.39928e-09
-6.87223e-09
6.28324e-09
-1.76152e-09
-3.7016e-09
3.73993e-09
-4.92763e-10
-2.57142e-09
3.3315e-09
5.14115e-10
-3.8172e-09
5.559e-09
5.10086e-10
-6.18917e-09
9.42101e-09
-6.62941e-10
-7.4631e-09
1.20527e-08
-1.83567e-09
-6.18687e-09
1.14957e-08
-1.88145e-09
-2.82327e-09
7.33915e-09
-5.69079e-10
1.14937e-10
2.61127e-09
1.26266e-09
6.45011e-10
8.71321e-10
2.15523e-09
-7.62485e-10
3.38166e-09
1.79931e-09
-2.01839e-09
7.3939e-09
1.28728e-09
-1.41028e-09
9.83925e-09
2.06167e-09
7.63156e-10
1.03762e-08
3.54644e-09
7.63588e-09
3.41006e-09
3.05877e-09
1.9564e-08
3.05876e-09
6.52316e-09
1.0393e-08
4.41494e-09
8.18958e-09
7.65955e-09
5.04484e-09
8.23654e-09
4.09562e-09
5.11042e-09
7.00011e-09
1.12743e-09
4.60356e-09
5.5051e-09
-1.00132e-09
3.63957e-09
4.54826e-09
-2.75817e-09
2.7068e-09
3.94322e-09
-4.16065e-09
2.00021e-09
2.93212e-09
-4.61023e-09
1.58557e-09
6.29752e-10
-3.18836e-09
1.18701e-09
-2.9054e-09
5.80695e-10
4.01401e-10
-6.6161e-09
5.31008e-09
-6.14422e-10
-8.55997e-09
8.48561e-09
-9.34903e-10
-7.90001e-09
8.19665e-09
-5.28581e-10
-5.07613e-09
4.91209e-09
7.98871e-10
-2.37631e-09
1.03528e-09
2.45801e-09
-2.09052e-09
-4.40223e-10
3.82155e-09
-4.29851e-09
1.92233e-09
3.60312e-09
-7.47333e-09
6.84246e-09
1.94303e-09
-9.21617e-09
1.10723e-08
1.72702e-10
-7.85819e-09
1.10548e-08
-3.11814e-10
-3.80648e-09
6.75703e-09
6.51975e-10
6.77358e-11
1.15838e-09
2.18552e-09
1.05234e-09
-1.51917e-09
2.99175e-09
-4.74377e-10
1.13074e-11
2.2771e-09
-2.00547e-09
4.02321e-09
8.739e-10
-1.97547e-09
6.49146e-09
9.35195e-10
-7.50451e-10
6.78342e-09
1.89796e-09
3.09761e-10
7.66936e-09
1.63389e-09
7.01363e-09
7.99222e-10
5.00463e-09
9.58566e-09
5.00462e-09
6.05514e-09
4.07977e-09
5.23275e-09
6.14685e-09
2.66497e-09
4.8506e-09
4.74101e-09
1.32538e-09
4.10756e-09
2.73999e-09
-5.13783e-11
3.11239e-09
1.13099e-09
-1.56035e-09
2.12548e-09
3.22035e-10
-3.48788e-09
1.54504e-09
-5.00348e-11
-5.20358e-09
1.48571e-09
-9.55517e-10
-5.23458e-09
1.66288e-09
-2.98193e-09
-2.56589e-09
1.575e-09
-5.28721e-09
1.84464e-09
1.2071e-09
-6.41112e-09
5.60693e-09
9.37837e-10
-5.28206e-09
6.02679e-09
1.34883e-09
-2.29314e-09
2.58621e-09
2.54175e-09
7.15511e-11
-1.63282e-09
4.03036e-09
-1.58513e-11
-3.9423e-09
4.8984e-09
-2.95399e-09
-1.79647e-09
4.16298e-09
-6.8361e-09
3.51237e-09
2.21796e-09
-9.15643e-09
8.70917e-09
4.15566e-10
-7.99292e-09
9.4739e-09
3.81347e-10
-4.01752e-09
5.14459e-09
1.82029e-09
-1.75427e-10
-7.00507e-10
3.43507e-09
5.8151e-10
-4.5778e-09
4.78115e-09
-1.66926e-09
-3.33803e-09
3.92582e-09
-3.99195e-09
3.30372e-11
2.25106e-09
-4.56438e-09
2.81686e-09
1.79343e-09
-4.11491e-09
4.30539e-09
1.73539e-09
-3.07706e-09
4.67163e-09
9.84674e-10
-9.35648e-10
4.05166e-09
1.28972e-09
2.00636e-09
3.8938e-09
4.75106e-09
5.35661e-11
4.75105e-09
4.21146e-09
2.34546e-10
4.30317e-09
3.33899e-09
-3.64458e-10
3.82397e-09
1.69862e-09
-2.38003e-10
3.13668e-09
-1.32678e-10
-6.52349e-10
2.39285e-09
-1.41324e-09
-2.28669e-09
2.01322e-09
-2.06221e-09
-4.77905e-09
2.00493e-09
-2.96659e-09
-6.42209e-09
2.24534e-09
-4.61358e-09
-5.53063e-09
2.10274e-09
-6.5767e-09
-2.00819e-09
1.56293e-09
-7.27933e-09
1.84665e-09
8.07321e-10
-5.86797e-09
3.58759e-09
6.23345e-10
-2.64535e-09
1.48327e-09
1.23099e-09
1.82745e-10
-2.54423e-09
2.12851e-09
7.45975e-10
-5.10114e-09
2.69719e-09
-1.52719e-09
-3.49992e-09
1.64363e-09
-4.74743e-09
1.41575e-09
-1.27239e-10
-6.41153e-09
6.44332e-09
-1.35967e-09
-4.78706e-09
7.67839e-09
-6.84959e-10
-5.39156e-10
3.82101e-09
1.27434e-09
3.00184e-09
-2.21063e-09
3.641e-09
2.94505e-09
-6.24311e-09
5.42909e-09
-5.40679e-10
-6.16963e-09
4.97684e-09
-4.5695e-09
-2.36241e-09
3.05815e-09
-6.27076e-09
-6.82973e-10
2.4921e-09
-6.00631e-09
-7.59569e-10
3.3641e-09
-5.69935e-09
8.55061e-10
3.09677e-09
-3.11263e-09
-9.48658e-11
2.03996e-09
1.5377e-09
-5.61602e-09
4.86611e-09
-2.51684e-09
6.01846e-09
3.78559e-09
-7.57205e-09
3.78558e-09
2.78565e-09
-2.17457e-09
3.34526e-09
1.68079e-09
-2.12887e-09
2.82259e-09
3.7272e-10
-1.15636e-09
2.19948e-09
-8.97207e-10
-1.08976e-09
1.70826e-09
-1.98825e-09
-2.57211e-09
1.41309e-09
-3.38838e-09
-4.6119e-09
1.30706e-09
-5.5561e-09
-5.16651e-09
1.01292e-09
-8.03732e-09
-3.1918e-09
2.43861e-10
-9.53309e-09
2.05183e-10
-6.51934e-10
-8.69908e-09
1.91663e-09
-9.07606e-10
-5.48455e-09
3.82924e-10
-9.71074e-11
-1.72222e-09
-3.40092e-09
9.66153e-10
1.80569e-10
-6.48541e-09
1.85709e-09
-4.69966e-10
-6.19047e-09
1.58327e-09
-2.20043e-09
-2.52544e-09
6.55044e-10
-2.73581e-09
1.92304e-09
-2.43375e-11
-3.41746e-10
3.53161e-09
4.74076e-10
4.22765e-09
8.55751e-10
2.17521e-09
7.43399e-09
-3.64319e-09
4.13702e-09
6.75801e-09
-7.01977e-09
5.36476e-09
2.50065e-09
-6.4992e-09
4.46281e-09
-2.6226e-09
-3.5098e-09
2.52001e-09
-5.6918e-09
-3.98109e-10
1.23788e-09
-6.13292e-09
-1.457e-09
1.33759e-09
-5.25598e-09
-3.80417e-09
2.1988e-09
-4.28208e-09
-2.81422e-09
2.63231e-09
-1.3126e-09
-6.17604e-09
3.03372e-09
1.08251e-09
-1.17727e-08
3.75301e-09
-5.24879e-10
-8.471e-10
2.41327e-09
-1.24331e-08
2.41326e-09
1.53315e-09
-3.0332e-09
1.73693e-09
7.6595e-10
-2.3501e-09
9.9813e-10
1.94989e-10
-8.27019e-10
2.58997e-10
-4.06619e-10
-4.8988e-10
2.59775e-11
-1.50865e-09
-1.42904e-09
-8.95754e-12
-3.6911e-09
-2.34401e-09
-4.78162e-11
-6.68279e-09
-1.90219e-09
-2.40135e-10
-9.12859e-09
-6.84571e-11
-6.69255e-10
-9.39229e-09
8.48134e-10
-4.1588e-10
-6.99442e-09
-1.21492e-09
6.43459e-10
-3.17855e-09
-5.4968e-09