/*--------------------------------*- C++ -*----------------------------------*\
| =========                 |                                                 |
| \\      /  F ield         | OpenFOAM: The Open Source CFD Toolbox           |
|  \\    /   O peration     | Version:  2312                                  |
|   \\  /    A nd           | Website:  www.openfoam.com                      |
|    \\/     M anipulation  |                                                 |
\*---------------------------------------------------------------------------*/
FoamFile
{
    version     2.0;
    format      ascii;
    arch        "LSB;label=32;scalar=64";
    class       volScalarField;
    location    "1.553784609827";
    object      epsilon;
}
// * * * * * * * * * * * * * * * * * * * * * * * * * * * * * * * * * * * * * //

dimensions      [0 2 -3 0 0 0 0];

internalField   nonuniform List<scalar> 
90000
(
7.06345e-06
7.06636e-06
7.06714e-06
7.06737e-06
7.06784e-06
7.06807e-06
7.06824e-06
7.06833e-06
7.06823e-06
7.06783e-06
7.06716e-06
7.06632e-06
7.06552e-06
7.06528e-06
7.06571e-06
7.06601e-06
7.06608e-06
7.0662e-06
7.06651e-06
7.06659e-06
7.06606e-06
7.06584e-06
7.06748e-06
7.07021e-06
7.07247e-06
7.07329e-06
7.07203e-06
7.07094e-06
7.07692e-06
7.08753e-06
7.06842e-06
7.13214e-06
7.1384e-06
7.13856e-06
7.13844e-06
7.13847e-06
7.13866e-06
7.13885e-06
7.13893e-06
7.13893e-06
7.13902e-06
7.13927e-06
7.13951e-06
7.13959e-06
7.13946e-06
7.13913e-06
7.13881e-06
7.13874e-06
7.13874e-06
7.1387e-06
7.13906e-06
7.13976e-06
7.14051e-06
7.14078e-06
7.14036e-06
7.14001e-06
7.14157e-06
7.14647e-06
7.14375e-06
7.10197e-06
7.068e-06
7.13922e-06
7.14676e-06
7.14722e-06
7.14735e-06
7.14756e-06
7.14781e-06
7.14788e-06
7.14762e-06
7.14719e-06
7.14725e-06
7.14792e-06
7.1489e-06
7.14955e-06
7.1495e-06
7.14869e-06
7.14733e-06
7.14629e-06
7.14724e-06
7.14858e-06
7.14942e-06
7.14941e-06
7.14874e-06
7.14786e-06
7.14827e-06
7.1498e-06
7.15126e-06
7.15663e-06
7.1636e-06
7.09632e-06
7.06718e-06
7.13898e-06
7.14752e-06
7.14834e-06
7.14881e-06
7.14925e-06
7.14964e-06
7.14981e-06
7.14961e-06
7.14902e-06
7.14846e-06
7.14859e-06
7.1491e-06
7.14957e-06
7.1495e-06
7.14874e-06
7.14767e-06
7.1476e-06
7.14896e-06
7.15002e-06
7.15011e-06
7.14936e-06
7.1492e-06
7.15111e-06
7.1529e-06
7.15442e-06
7.15689e-06
7.15733e-06
7.16134e-06
7.08252e-06
7.06717e-06
7.13866e-06
7.14746e-06
7.14834e-06
7.14879e-06
7.14913e-06
7.14944e-06
7.14968e-06
7.14983e-06
7.1497e-06
7.14935e-06
7.14882e-06
7.14824e-06
7.14768e-06
7.14764e-06
7.14838e-06
7.14926e-06
7.14987e-06
7.14995e-06
7.14943e-06
7.14863e-06
7.14899e-06
7.15085e-06
7.15281e-06
7.15402e-06
7.15399e-06
7.15343e-06
7.15441e-06
7.14952e-06
7.07476e-06
7.06755e-06
7.13893e-06
7.14715e-06
7.14778e-06
7.14795e-06
7.14799e-06
7.14811e-06
7.14845e-06
7.14891e-06
7.14939e-06
7.14972e-06
7.14987e-06
7.14967e-06
7.14897e-06
7.1482e-06
7.14866e-06
7.14962e-06
7.15009e-06
7.14982e-06
7.14919e-06
7.149e-06
7.14972e-06
7.15086e-06
7.15175e-06
7.15216e-06
7.15188e-06
7.1501e-06
7.15364e-06
7.14557e-06
7.07345e-06
7.06792e-06
7.13931e-06
7.1472e-06
7.1479e-06
7.14826e-06
7.14841e-06
7.14832e-06
7.14816e-06
7.14822e-06
7.14879e-06
7.14976e-06
7.15077e-06
7.15138e-06
7.15127e-06
7.15025e-06
7.14873e-06
7.14802e-06
7.14844e-06
7.14912e-06
7.14967e-06
7.15003e-06
7.15017e-06
7.14992e-06
7.14919e-06
7.14859e-06
7.1498e-06
7.15183e-06
7.15631e-06
7.14818e-06
7.07243e-06
7.0677e-06
7.14043e-06
7.14854e-06
7.14975e-06
7.15057e-06
7.15114e-06
7.15122e-06
7.15054e-06
7.1492e-06
7.1481e-06
7.14897e-06
7.15048e-06
7.15168e-06
7.15201e-06
7.15117e-06
7.14926e-06
7.14692e-06
7.14668e-06
7.14844e-06
7.14974e-06
7.15029e-06
7.15009e-06
7.14917e-06
7.14811e-06
7.14818e-06
7.15077e-06
7.15384e-06
7.15594e-06
7.14658e-06
7.0703e-06
7.06813e-06
7.14208e-06
7.15042e-06
7.1517e-06
7.15271e-06
7.1533e-06
7.15332e-06
7.15272e-06
7.15139e-06
7.14957e-06
7.14835e-06
7.14922e-06
7.15021e-06
7.15087e-06
7.151e-06
7.15049e-06
7.14954e-06
7.14878e-06
7.14895e-06
7.14963e-06
7.14999e-06
7.14967e-06
7.14873e-06
7.14801e-06
7.14891e-06
7.15164e-06
7.15364e-06
7.15329e-06
7.14336e-06
7.06836e-06
7.0712e-06
7.14305e-06
7.15107e-06
7.15209e-06
7.15277e-06
7.15309e-06
7.15315e-06
7.15296e-06
7.15252e-06
7.15175e-06
7.15047e-06
7.14882e-06
7.14823e-06
7.14892e-06
7.15034e-06
7.1517e-06
7.15244e-06
7.1525e-06
7.15212e-06
7.15159e-06
7.15096e-06
7.15004e-06
7.14878e-06
7.14782e-06
7.14927e-06
7.15098e-06
7.15134e-06
7.14992e-06
7.1409e-06
7.06746e-06
7.0735e-06
7.14347e-06
7.15075e-06
7.15127e-06
7.15107e-06
7.15054e-06
7.15024e-06
7.15063e-06
7.15141e-06
7.15191e-06
7.15156e-06
7.15025e-06
7.14845e-06
7.14813e-06
7.14962e-06
7.15191e-06
7.15391e-06
7.15524e-06
7.15568e-06
7.15513e-06
7.15383e-06
7.15201e-06
7.15004e-06
7.14891e-06
7.14964e-06
7.15022e-06
7.15022e-06
7.14944e-06
7.14102e-06
7.06846e-06
7.07307e-06
7.14557e-06
7.15206e-06
7.15175e-06
7.15074e-06
7.14953e-06
7.14878e-06
7.14908e-06
7.14989e-06
7.15062e-06
7.15091e-06
7.15064e-06
7.1496e-06
7.14811e-06
7.14839e-06
7.1512e-06
7.15429e-06
7.15653e-06
7.15748e-06
7.15705e-06
7.1555e-06
7.15326e-06
7.15072e-06
7.14897e-06
7.1492e-06
7.15003e-06
7.15067e-06
7.15028e-06
7.14293e-06
7.06982e-06
7.07175e-06
7.14747e-06
7.15398e-06
7.1542e-06
7.1549e-06
7.15562e-06
7.15608e-06
7.15575e-06
7.15423e-06
7.15202e-06
7.15097e-06
7.1516e-06
7.15198e-06
7.1517e-06
7.15136e-06
7.15218e-06
7.15371e-06
7.15492e-06
7.15542e-06
7.15515e-06
7.15416e-06
7.15256e-06
7.1505e-06
7.14888e-06
7.14934e-06
7.15039e-06
7.15095e-06
7.15108e-06
7.1439e-06
7.07055e-06
7.07682e-06
7.14659e-06
7.15505e-06
7.15733e-06
7.16039e-06
7.16263e-06
7.16317e-06
7.16154e-06
7.1582e-06
7.15431e-06
7.15167e-06
7.15243e-06
7.15429e-06
7.15578e-06
7.15633e-06
7.15581e-06
7.15418e-06
7.15192e-06
7.1506e-06
7.15071e-06
7.15131e-06
7.15141e-06
7.15083e-06
7.15013e-06
7.15024e-06
7.1506e-06
7.15136e-06
7.15201e-06
7.14428e-06
7.07154e-06
7.08156e-06
7.14352e-06
7.15784e-06
7.16215e-06
7.16505e-06
7.16584e-06
7.16441e-06
7.16119e-06
7.15712e-06
7.15324e-06
7.15072e-06
7.15181e-06
7.15474e-06
7.15727e-06
7.15832e-06
7.15762e-06
7.15532e-06
7.15201e-06
7.14888e-06
7.14767e-06
7.1493e-06
7.15086e-06
7.15154e-06
7.15139e-06
7.15101e-06
7.1518e-06
7.15384e-06
7.15484e-06
7.14789e-06
7.07479e-06
7.0815e-06
7.1525e-06
7.163e-06
7.16494e-06
7.16481e-06
7.16263e-06
7.15911e-06
7.15562e-06
7.15292e-06
7.15089e-06
7.14961e-06
7.15094e-06
7.15401e-06
7.15659e-06
7.15775e-06
7.15732e-06
7.15589e-06
7.15367e-06
7.15115e-06
7.14916e-06
7.14918e-06
7.15052e-06
7.15153e-06
7.1518e-06
7.15229e-06
7.15393e-06
7.15597e-06
7.15743e-06
7.15156e-06
7.07692e-06
7.07719e-06
7.16049e-06
7.16611e-06
7.16454e-06
7.16103e-06
7.15648e-06
7.15231e-06
7.1511e-06
7.15143e-06
7.15106e-06
7.15076e-06
7.1519e-06
7.1538e-06
7.15544e-06
7.15629e-06
7.15658e-06
7.15607e-06
7.15469e-06
7.15282e-06
7.15106e-06
7.15006e-06
7.15014e-06
7.15084e-06
7.15152e-06
7.15274e-06
7.15461e-06
7.15638e-06
7.15752e-06
7.15029e-06
7.07544e-06
7.07629e-06
7.16356e-06
7.16702e-06
7.16381e-06
7.1595e-06
7.15532e-06
7.15269e-06
7.1517e-06
7.15182e-06
7.15191e-06
7.1524e-06
7.15267e-06
7.15288e-06
7.15332e-06
7.15412e-06
7.1548e-06
7.15502e-06
7.15464e-06
7.15367e-06
7.15233e-06
7.15103e-06
7.15087e-06
7.15138e-06
7.15192e-06
7.15338e-06
7.15487e-06
7.15563e-06
7.1554e-06
7.14693e-06
7.0735e-06
7.08091e-06
7.16388e-06
7.16777e-06
7.16474e-06
7.16119e-06
7.15828e-06
7.15627e-06
7.15469e-06
7.15324e-06
7.15231e-06
7.15164e-06
7.15093e-06
7.15066e-06
7.15074e-06
7.15119e-06
7.15207e-06
7.15306e-06
7.15356e-06
7.15328e-06
7.15238e-06
7.15149e-06
7.15142e-06
7.15185e-06
7.15407e-06
7.15619e-06
7.15657e-06
7.15597e-06
7.15495e-06
7.14686e-06
7.07456e-06
7.08531e-06
7.16345e-06
7.16822e-06
7.16557e-06
7.16257e-06
7.16032e-06
7.1587e-06
7.15711e-06
7.1554e-06
7.15376e-06
7.15228e-06
7.15091e-06
7.14964e-06
7.14855e-06
7.14892e-06
7.15051e-06
7.152e-06
7.15262e-06
7.15248e-06
7.15208e-06
7.15199e-06
7.15348e-06
7.1568e-06
7.15946e-06
7.15983e-06
7.15888e-06
7.1585e-06
7.15883e-06
7.1532e-06
7.07888e-06
7.08885e-06
7.16216e-06
7.16748e-06
7.16535e-06
7.16341e-06
7.16211e-06
7.16096e-06
7.15954e-06
7.15783e-06
7.15598e-06
7.15402e-06
7.15178e-06
7.14971e-06
7.14972e-06
7.15151e-06
7.15304e-06
7.15345e-06
7.15311e-06
7.15309e-06
7.15402e-06
7.15636e-06
7.15971e-06
7.16187e-06
7.16146e-06
7.15937e-06
7.15838e-06
7.15908e-06
7.16071e-06
7.15512e-06
7.08049e-06
7.09104e-06
7.16053e-06
7.16716e-06
7.16607e-06
7.16491e-06
7.16383e-06
7.1625e-06
7.16087e-06
7.15904e-06
7.15691e-06
7.1543e-06
7.15199e-06
7.15258e-06
7.15466e-06
7.15532e-06
7.15449e-06
7.15321e-06
7.15313e-06
7.15484e-06
7.15814e-06
7.16198e-06
7.16412e-06
7.16307e-06
7.16045e-06
7.15949e-06
7.16e-06
7.16138e-06
7.16249e-06
7.15539e-06
7.08254e-06
7.09179e-06
7.16e-06
7.16797e-06
7.1677e-06
7.16661e-06
7.16507e-06
7.16322e-06
7.16133e-06
7.15944e-06
7.15731e-06
7.15534e-06
7.15523e-06
7.15625e-06
7.15571e-06
7.15367e-06
7.15179e-06
7.15169e-06
7.15382e-06
7.15771e-06
7.16221e-06
7.16493e-06
7.16437e-06
7.16208e-06
7.1614e-06
7.16209e-06
7.16373e-06
7.16535e-06
7.16548e-06
7.15781e-06
7.08605e-06
7.09234e-06
7.16208e-06
7.17031e-06
7.1701e-06
7.16865e-06
7.16675e-06
7.16498e-06
7.16342e-06
7.16169e-06
7.15968e-06
7.15806e-06
7.15767e-06
7.15659e-06
7.15374e-06
7.1508e-06
7.15101e-06
7.15253e-06
7.15589e-06
7.16107e-06
7.16445e-06
7.16466e-06
7.16326e-06
7.16361e-06
7.16484e-06
7.1666e-06
7.16894e-06
7.17002e-06
7.17004e-06
7.16198e-06
7.09079e-06
7.09579e-06
7.16658e-06
7.17432e-06
7.17381e-06
7.1722e-06
7.17049e-06
7.16905e-06
7.16763e-06
7.16577e-06
7.1635e-06
7.16136e-06
7.15942e-06
7.15628e-06
7.15279e-06
7.15222e-06
7.15261e-06
7.15419e-06
7.15909e-06
7.16275e-06
7.16357e-06
7.16366e-06
7.16597e-06
7.16795e-06
7.16935e-06
7.17207e-06
7.17387e-06
7.17492e-06
7.17521e-06
7.16742e-06
7.09726e-06
7.10251e-06
7.17316e-06
7.18037e-06
7.17953e-06
7.17793e-06
7.17634e-06
7.17486e-06
7.17318e-06
7.17098e-06
7.16848e-06
7.16555e-06
7.16181e-06
7.15781e-06
7.15564e-06
7.15438e-06
7.15346e-06
7.15599e-06
7.15958e-06
7.16185e-06
7.16448e-06
7.1682e-06
7.17071e-06
7.17212e-06
7.17474e-06
7.17716e-06
7.17872e-06
7.1803e-06
7.18155e-06
7.17648e-06
7.10317e-06
7.11226e-06
7.18165e-06
7.18856e-06
7.18759e-06
7.18589e-06
7.18391e-06
7.18176e-06
7.17934e-06
7.17658e-06
7.17317e-06
7.169e-06
7.16473e-06
7.16173e-06
7.15969e-06
7.15681e-06
7.15506e-06
7.15678e-06
7.1605e-06
7.16547e-06
7.17022e-06
7.17309e-06
7.175e-06
7.1778e-06
7.18094e-06
7.18328e-06
7.18589e-06
7.18807e-06
7.19016e-06
7.18454e-06
7.11137e-06
7.12359e-06
7.19215e-06
7.19894e-06
7.19758e-06
7.19519e-06
7.19229e-06
7.18911e-06
7.1858e-06
7.18221e-06
7.17806e-06
7.17367e-06
7.17042e-06
7.16795e-06
7.16451e-06
7.16031e-06
7.15865e-06
7.16138e-06
7.1666e-06
7.17187e-06
7.1756e-06
7.17836e-06
7.1819e-06
7.18526e-06
7.18847e-06
7.19178e-06
7.19563e-06
7.19853e-06
7.19916e-06
7.19284e-06
7.12212e-06
7.13604e-06
7.20416e-06
7.21026e-06
7.20839e-06
7.20561e-06
7.20222e-06
7.19843e-06
7.19451e-06
7.19012e-06
7.18529e-06
7.18113e-06
7.17794e-06
7.174e-06
7.16899e-06
7.16443e-06
7.1636e-06
7.16743e-06
7.17282e-06
7.17788e-06
7.18208e-06
7.18594e-06
7.19056e-06
7.19458e-06
7.19891e-06
7.20293e-06
7.20751e-06
7.21068e-06
7.21042e-06
7.20369e-06
7.1364e-06
7.15028e-06
7.21767e-06
7.22375e-06
7.22174e-06
7.21871e-06
7.21514e-06
7.2111e-06
7.20637e-06
7.20077e-06
7.19486e-06
7.19002e-06
7.18519e-06
7.17929e-06
7.17294e-06
7.16826e-06
7.16832e-06
7.17272e-06
7.17816e-06
7.18383e-06
7.18961e-06
7.19503e-06
7.201e-06
7.20685e-06
7.2122e-06
7.21628e-06
7.22098e-06
7.22471e-06
7.22452e-06
7.22021e-06
7.15197e-06
7.16761e-06
7.23488e-06
7.24105e-06
7.23883e-06
7.23528e-06
7.23103e-06
7.22608e-06
7.22026e-06
7.21329e-06
7.20616e-06
7.19976e-06
7.19288e-06
7.18534e-06
7.17813e-06
7.1733e-06
7.17364e-06
7.17842e-06
7.18447e-06
7.19122e-06
7.19891e-06
7.20651e-06
7.21435e-06
7.22207e-06
7.22745e-06
7.2318e-06
7.23638e-06
7.24088e-06
7.24348e-06
7.23865e-06
7.1696e-06
7.18939e-06
7.25668e-06
7.2623e-06
7.25917e-06
7.25464e-06
7.2495e-06
7.24367e-06
7.23687e-06
7.22885e-06
7.22043e-06
7.21213e-06
7.20343e-06
7.19435e-06
7.18614e-06
7.1806e-06
7.18064e-06
7.18605e-06
7.19382e-06
7.20228e-06
7.21114e-06
7.22078e-06
7.23031e-06
7.23813e-06
7.24424e-06
7.24979e-06
7.25527e-06
7.2607e-06
7.26523e-06
7.25897e-06
7.19128e-06
7.21627e-06
7.28227e-06
7.287e-06
7.28326e-06
7.278e-06
7.27204e-06
7.26547e-06
7.25787e-06
7.2488e-06
7.23859e-06
7.22767e-06
7.21659e-06
7.206e-06
7.19684e-06
7.19043e-06
7.19019e-06
7.19642e-06
7.20651e-06
7.21664e-06
7.22694e-06
7.23862e-06
7.24771e-06
7.2563e-06
7.26485e-06
7.27239e-06
7.27821e-06
7.28482e-06
7.28931e-06
7.2832e-06
7.21763e-06
7.24866e-06
7.31275e-06
7.31723e-06
7.31319e-06
7.30733e-06
7.30046e-06
7.29256e-06
7.28309e-06
7.27195e-06
7.25942e-06
7.24624e-06
7.23343e-06
7.22134e-06
7.21067e-06
7.20338e-06
7.20326e-06
7.20998e-06
7.22182e-06
7.23418e-06
7.24647e-06
7.25866e-06
7.26941e-06
7.28025e-06
7.29139e-06
7.29956e-06
7.30681e-06
7.31391e-06
7.3181e-06
7.31311e-06
7.24926e-06
7.28773e-06
7.35055e-06
7.35487e-06
7.35003e-06
7.34279e-06
7.33409e-06
7.32407e-06
7.31241e-06
7.29923e-06
7.28481e-06
7.27002e-06
7.2554e-06
7.24112e-06
7.22827e-06
7.21983e-06
7.22046e-06
7.22789e-06
7.24063e-06
7.25536e-06
7.26945e-06
7.28378e-06
7.29839e-06
7.31086e-06
7.3231e-06
7.3329e-06
7.34227e-06
7.34939e-06
7.35418e-06
7.34979e-06
7.28761e-06
7.33543e-06
7.39658e-06
7.39981e-06
7.39356e-06
7.38487e-06
7.37455e-06
7.36269e-06
7.34904e-06
7.33384e-06
7.31757e-06
7.30077e-06
7.28376e-06
7.26688e-06
7.25162e-06
7.24158e-06
7.24317e-06
7.25245e-06
7.26643e-06
7.2836e-06
7.30048e-06
7.31753e-06
7.33469e-06
7.3489e-06
7.36203e-06
7.3749e-06
7.38513e-06
7.3927e-06
7.39804e-06
7.39427e-06
7.33459e-06
7.39311e-06
7.45113e-06
7.45333e-06
7.4464e-06
7.43685e-06
7.42497e-06
7.41109e-06
7.39536e-06
7.37811e-06
7.35965e-06
7.3401e-06
7.31995e-06
7.30048e-06
7.28366e-06
7.27208e-06
7.27349e-06
7.28467e-06
7.30046e-06
7.3206e-06
7.34134e-06
7.36006e-06
7.3796e-06
7.39557e-06
7.41109e-06
7.42593e-06
7.43748e-06
7.44556e-06
7.45205e-06
7.44975e-06
7.39237e-06
7.46212e-06
7.51726e-06
7.51938e-06
7.51176e-06
7.50057e-06
7.4866e-06
7.47052e-06
7.45267e-06
7.43316e-06
7.41181e-06
7.38898e-06
7.36572e-06
7.3437e-06
7.32578e-06
7.31279e-06
7.31258e-06
7.32532e-06
7.34402e-06
7.36755e-06
7.39151e-06
7.41267e-06
7.43397e-06
7.45309e-06
7.47128e-06
7.48796e-06
7.50066e-06
7.5107e-06
7.51923e-06
7.51777e-06
7.4626e-06
7.54545e-06
7.59892e-06
7.60007e-06
7.59052e-06
7.57712e-06
7.56104e-06
7.54287e-06
7.52263e-06
7.50008e-06
7.47545e-06
7.4498e-06
7.42407e-06
7.39895e-06
7.37838e-06
7.36408e-06
7.36238e-06
7.37749e-06
7.40012e-06
7.42636e-06
7.45252e-06
7.4762e-06
7.5e-06
7.52303e-06
7.54395e-06
7.56223e-06
7.57666e-06
7.58945e-06
7.59953e-06
7.5988e-06
7.54688e-06
7.64742e-06
7.69758e-06
7.69642e-06
7.68488e-06
7.66996e-06
7.65251e-06
7.63207e-06
7.6086e-06
7.5827e-06
7.55497e-06
7.52682e-06
7.49829e-06
7.46931e-06
7.4443e-06
7.42923e-06
7.42782e-06
7.44452e-06
7.47039e-06
7.49885e-06
7.52738e-06
7.55497e-06
7.58273e-06
7.60893e-06
7.63184e-06
7.65249e-06
7.66985e-06
7.68468e-06
7.69564e-06
7.69713e-06
7.64724e-06
7.77037e-06
7.81563e-06
7.81296e-06
7.80102e-06
7.78513e-06
7.76535e-06
7.74134e-06
7.71477e-06
7.68654e-06
7.6559e-06
7.62389e-06
7.59178e-06
7.56091e-06
7.53118e-06
7.51411e-06
7.51357e-06
7.5311e-06
7.55957e-06
7.59167e-06
7.62369e-06
7.65559e-06
7.68648e-06
7.71511e-06
7.74028e-06
7.76465e-06
7.78509e-06
7.80115e-06
7.81299e-06
7.81708e-06
7.76943e-06
7.91831e-06
7.96092e-06
7.95782e-06
7.94439e-06
7.92516e-06
7.90191e-06
7.87553e-06
7.84692e-06
7.81555e-06
7.78132e-06
7.74612e-06
7.71052e-06
7.67808e-06
7.64504e-06
7.62298e-06
7.62492e-06
7.64583e-06
7.67612e-06
7.71137e-06
7.74649e-06
7.78173e-06
7.81514e-06
7.84704e-06
7.87615e-06
7.9021e-06
7.92445e-06
7.94331e-06
7.958e-06
7.96349e-06
7.91932e-06
8.10015e-06
8.14264e-06
8.1357e-06
8.1183e-06
8.0961e-06
8.07114e-06
8.04274e-06
8.01059e-06
7.97596e-06
7.93925e-06
7.90278e-06
7.86319e-06
7.82665e-06
7.79244e-06
7.76793e-06
7.77033e-06
7.79417e-06
7.82621e-06
7.86356e-06
7.90232e-06
7.94055e-06
7.97615e-06
8.01034e-06
8.04388e-06
8.07174e-06
8.09596e-06
8.1186e-06
8.1366e-06
8.14308e-06
8.10052e-06
8.32628e-06
8.37064e-06
8.35706e-06
8.33816e-06
8.31388e-06
8.28455e-06
8.25257e-06
8.21734e-06
8.18115e-06
8.14232e-06
8.10527e-06
8.06655e-06
8.03052e-06
7.99738e-06
7.97567e-06
7.97738e-06
7.99887e-06
8.03072e-06
8.06709e-06
8.10415e-06
8.14223e-06
8.18147e-06
8.21775e-06
8.25212e-06
8.28382e-06
8.31406e-06
8.33889e-06
8.35873e-06
8.37064e-06
8.32509e-06
8.61558e-06
8.68167e-06
8.65847e-06
8.63883e-06
8.60636e-06
8.56923e-06
8.53527e-06
8.49621e-06
8.46187e-06
8.43214e-06
8.41129e-06
8.40632e-06
8.42143e-06
8.43763e-06
8.45746e-06
8.47423e-06
8.4439e-06
8.42033e-06
8.41103e-06
8.41283e-06
8.43159e-06
8.46175e-06
8.49809e-06
8.53434e-06
8.56782e-06
8.60582e-06
8.63795e-06
8.65704e-06
8.68287e-06
8.61415e-06
9.07152e-06
9.25942e-06
9.19283e-06
9.21588e-06
9.13158e-06
9.06645e-06
9.0601e-06
9.02239e-06
9.01343e-06
9.09388e-06
9.28878e-06
9.65662e-06
1.02558e-05
1.09227e-05
1.14129e-05
1.15571e-05
1.09544e-05
1.02777e-05
9.71909e-06
9.29263e-06
9.10404e-06
9.0172e-06
9.01872e-06
9.06048e-06
9.06391e-06
9.1256e-06
9.22041e-06
9.19268e-06
9.26455e-06
9.06333e-06
1.03348e-05
1.11166e-05
1.08582e-05
1.14223e-05
1.08647e-05
1.07119e-05
1.11292e-05
1.10946e-05
1.1397e-05
1.26063e-05
1.49312e-05
1.91061e-05
2.64829e-05
3.46547e-05
4.06015e-05
4.10618e-05
3.53156e-05
2.65276e-05
1.99968e-05
1.49748e-05
1.27375e-05
1.14419e-05
1.10751e-05
1.11229e-05
1.07097e-05
1.08446e-05
1.14493e-05
1.08619e-05
1.11594e-05
1.02828e-05
1.74337e-05
1.93198e-05
1.86043e-05
2.34176e-05
2.03081e-05
2.13191e-05
2.61893e-05
2.66744e-05
3.19564e-05
4.49227e-05
7.27559e-05
0.000122188
0.00019182
0.00025623
0.000310311
0.000296739
0.000268329
0.000186676
0.000129004
7.18584e-05
4.6739e-05
3.24359e-05
2.65578e-05
2.59773e-05
2.14479e-05
2.01687e-05
2.37891e-05
1.86583e-05
1.9492e-05
1.71789e-05
6.69751e-05
5.44569e-05
6.37416e-05
8.64905e-05
8.65616e-05
0.000120775
0.000155743
0.000169444
0.000248993
0.000419078
0.000515016
0.000821922
0.000998472
0.00118391
0.00128631
0.00124754
0.00119644
0.00100166
0.000776558
0.000521361
0.000439536
0.000253958
0.000169309
0.000152086
0.000121279
8.71364e-05
9.05612e-05
6.72004e-05
5.50192e-05
6.67925e-05
0.000225302
0.000186243
0.000287897
0.000343087
0.000410243
0.00069619
0.000724254
0.000858352
0.00116963
0.00166818
0.0015173
0.00227807
0.00210391
0.00267023
0.00235654
0.00265867
0.00228668
0.00235479
0.00182712
0.00164564
0.00177058
0.00115982
0.000871127
0.000725756
0.000688774
0.000487715
0.000371665
0.000313875
0.000188622
0.000225922
0.000641649
0.000882837
0.000776548
0.00100703
0.0013017
0.00232821
0.00244413
0.00239063
0.00307833
0.00426847
0.00370515
0.00553838
0.00471024
0.00561988
0.00405129
0.00558515
0.00432613
0.00459979
0.00380279
0.00374396
0.00436915
0.00299617
0.0023548
0.00209222
0.00234787
0.00154258
0.00111724
0.000847334
0.000928215
0.000648122
0.000920208
0.00112924
0.00146287
0.00204323
0.0027808
0.00494051
0.00571464
0.00401211
0.00372341
0.00494819
0.00516505
0.00652494
0.00662691
0.00589314
0.00545189
0.00579151
0.0059329
0.00648277
0.00617421
0.0044528
0.00473959
0.00381066
0.00351016
0.00477743
0.00517214
0.00321654
0.00228646
0.00157444
0.00118682
0.000936953
0.00109947
0.00137636
0.00203083
0.00297112
0.00315166
0.00489645
0.00525315
0.00468877
0.003743
0.00446777
0.00426706
0.00486312
0.00516477
0.00478328
0.00486438
0.00541891
0.00529328
0.00494215
0.00559774
0.00475653
0.00471524
0.00400115
0.00407459
0.00407088
0.00485578
0.0035147
0.00317208
0.00217245
0.00125066
0.00114226
0.000982511
0.00128285
0.00173206
0.00216061
0.00207878
0.00313265
0.00329037
0.00345652
0.00355502
0.00444477
0.00388197
0.005166
0.00422631
0.00506447
0.00425662
0.00580498
0.0043946
0.00445208
0.00435234
0.0046631
0.00488926
0.00322918
0.00329681
0.00289304
0.00285411
0.00209606
0.00220839
0.00176397
0.0012415
0.00105143
0.000546844
0.000818523
0.00127145
0.00143165
0.00128597
0.00166474
0.00170508
0.00177776
0.001986
0.00265902
0.00284655
0.00338263
0.00323248
0.00386341
0.00376791
0.00433311
0.00329931
0.0033015
0.00301023
0.00291005
0.00270349
0.00198866
0.00169197
0.00153813
0.00137931
0.00127193
0.00138745
0.00122879
0.000832195
0.000563848
0.000280925
0.000438662
0.000680841
0.000752447
0.000571903
0.000650033
0.000796462
0.000901358
0.00101214
0.00122479
0.00138875
0.00160645
0.00178225
0.00204273
0.00230023
0.00230913
0.00197152
0.00174226
0.00161143
0.00137545
0.00122293
0.00104102
0.000917193
0.000791933
0.000627321
0.000564737
0.000710314
0.000634409
0.000437228
0.000275216
0.000188851
0.000255302
0.000332577
0.00037891
0.000268534
0.000260918
0.000356359
0.000481332
0.00064356
0.000821509
0.000922715
0.000997725
0.00107431
0.00118341
0.00130883
0.0012813
0.00117964
0.0010651
0.00101392
0.000920304
0.000822135
0.000651589
0.000490555
0.000360011
0.000261349
0.000264682
0.000362696
0.000315648
0.00025307
0.000185746
0.000134461
0.000157495
0.000171776
0.000185546
0.000159281
0.000146173
0.000167377
0.000222358
0.000329591
0.000490968
0.000647917
0.000781936
0.000866739
0.000922748
0.000942341
0.000931
0.000926245
0.000872439
0.000784277
0.000640255
0.000487686
0.000328672
0.000224576
0.000169407
0.000147688
0.000159479
0.00018293
0.000166417
0.000155421
0.000134287
0.000106754
0.000107687
0.000109046
0.000112893
0.000108629
0.000105268
0.000109744
0.000124104
0.000160879
0.000239233
0.000363607
0.000518881
0.000671801
0.000782435
0.000810723
0.000804313
0.000784589
0.000676834
0.000519453
0.0003598
0.00023751
0.000160603
0.000124516
0.000110278
0.00010598
0.000109263
0.000112785
0.000108825
0.000107769
0.00010639
8.72458e-05
8.44108e-05
8.32615e-05
8.41306e-05
8.37881e-05
8.40758e-05
8.62512e-05
9.10694e-05
0.000101501
0.000125733
0.000177203
0.000270148
0.000398829
0.000530259
0.00060127
0.000595992
0.000531285
0.000402319
0.000270594
0.00017656
0.000125431
0.000101536
9.09959e-05
8.6353e-05
8.421e-05
8.39078e-05
8.42378e-05
8.35369e-05
8.46891e-05
8.81179e-05
7.42219e-05
7.02378e-05
6.91637e-05
6.95041e-05
6.9975e-05
7.10763e-05
7.2619e-05
7.49838e-05
7.86042e-05
8.52631e-05
9.94897e-05
0.000129742
0.000184491
0.000258437
0.000318753
0.000316736
0.000258606
0.000185655
0.000130089
9.94738e-05
8.51304e-05
7.83341e-05
7.49728e-05
7.26122e-05
7.11396e-05
7.00218e-05
6.96542e-05
6.95546e-05
7.07465e-05
7.48239e-05
6.44051e-05
5.99102e-05
5.91429e-05
5.93981e-05
6.00683e-05
6.11422e-05
6.23845e-05
6.38447e-05
6.54022e-05
6.74118e-05
7.06584e-05
7.74435e-05
9.08288e-05
0.000111491
0.000132437
0.000132216
0.000111641
9.10336e-05
7.77086e-05
7.07163e-05
6.75215e-05
6.52575e-05
6.3877e-05
6.24061e-05
6.11994e-05
6.03024e-05
5.94681e-05
5.95364e-05
6.0513e-05
6.47896e-05
5.62127e-05
5.18515e-05
5.10301e-05
5.1194e-05
5.19597e-05
5.2854e-05
5.37068e-05
5.45551e-05
5.52659e-05
5.58575e-05
5.64244e-05
5.75052e-05
5.95609e-05
6.31204e-05
6.69392e-05
6.68734e-05
6.31999e-05
5.96117e-05
5.76412e-05
5.63923e-05
5.58251e-05
5.51526e-05
5.45419e-05
5.37296e-05
5.27915e-05
5.21231e-05
5.14188e-05
5.13708e-05
5.23331e-05
5.66122e-05
4.92347e-05
4.50891e-05
4.42709e-05
4.4436e-05
4.50517e-05
4.5685e-05
4.61556e-05
4.65204e-05
4.67112e-05
4.6685e-05
4.6478e-05
4.62958e-05
4.60802e-05
4.61042e-05
4.63129e-05
4.62884e-05
4.61647e-05
4.61078e-05
4.63201e-05
4.65145e-05
4.66871e-05
4.67411e-05
4.65529e-05
4.61643e-05
4.56343e-05
4.50716e-05
4.47586e-05
4.46023e-05
4.54301e-05
4.94737e-05
4.31002e-05
3.93229e-05
3.85202e-05
3.86723e-05
3.91709e-05
3.95124e-05
3.96329e-05
3.96082e-05
3.94284e-05
3.90832e-05
3.85905e-05
3.80239e-05
3.73575e-05
3.6792e-05
3.64554e-05
3.64825e-05
3.68743e-05
3.7434e-05
3.79985e-05
3.86165e-05
3.91482e-05
3.95765e-05
3.97095e-05
3.96127e-05
3.94859e-05
3.91669e-05
3.8946e-05
3.87902e-05
3.95231e-05
4.32049e-05
3.76387e-05
3.4277e-05
3.36753e-05
3.3815e-05
3.40649e-05
3.40972e-05
3.40176e-05
3.38119e-05
3.34486e-05
3.29143e-05
3.22497e-05
3.15091e-05
3.07239e-05
3.0088e-05
2.97191e-05
2.97745e-05
3.01828e-05
3.08345e-05
3.15371e-05
3.23147e-05
3.30057e-05
3.3558e-05
3.38986e-05
3.40607e-05
3.40953e-05
3.39669e-05
3.38098e-05
3.37553e-05
3.44736e-05
3.77249e-05
3.2748e-05
3.00161e-05
2.94955e-05
2.94903e-05
2.94964e-05
2.94412e-05
2.92876e-05
2.89688e-05
2.84915e-05
2.78477e-05
2.7111e-05
2.63393e-05
2.55717e-05
2.49595e-05
2.45906e-05
2.46105e-05
2.4977e-05
2.56078e-05
2.63484e-05
2.71551e-05
2.79144e-05
2.85494e-05
2.89847e-05
2.92815e-05
2.94146e-05
2.94251e-05
2.94021e-05
2.9476e-05
3.01615e-05
3.29547e-05
2.86794e-05
2.63526e-05
2.57968e-05
2.57046e-05
2.56717e-05
2.5587e-05
2.53287e-05
2.49177e-05
2.43894e-05
2.37306e-05
2.30053e-05
2.22701e-05
2.15546e-05
2.0968e-05
2.05998e-05
2.05881e-05
2.09289e-05
2.15114e-05
2.22269e-05
2.29933e-05
2.37374e-05
2.43992e-05
2.48945e-05
2.52522e-05
2.54817e-05
2.56119e-05
2.57002e-05
2.5839e-05
2.64386e-05
2.879e-05
2.50828e-05
2.31084e-05
2.26593e-05
2.25632e-05
2.24719e-05
2.226e-05
2.19417e-05
2.15291e-05
2.10117e-05
2.03869e-05
1.97106e-05
1.90226e-05
1.8355e-05
1.78028e-05
1.74579e-05
1.74337e-05
1.77387e-05
1.82693e-05
1.89358e-05
1.96536e-05
2.03609e-05
2.1001e-05
2.15152e-05
2.19077e-05
2.22005e-05
2.2412e-05
2.25655e-05
2.27202e-05
2.32262e-05
2.51878e-05
2.20295e-05
2.04958e-05
2.01158e-05
1.99482e-05
1.9738e-05
1.94643e-05
1.91611e-05
1.87643e-05
1.82737e-05
1.77057e-05
1.70907e-05
1.64478e-05
1.58226e-05
1.53097e-05
1.49981e-05
1.49742e-05
1.52436e-05
1.57242e-05
1.63402e-05
1.70122e-05
1.76766e-05
1.82753e-05
1.87696e-05
1.91664e-05
1.94851e-05
1.97327e-05
1.99149e-05
2.00793e-05
2.05183e-05
2.21379e-05
1.95685e-05
1.83707e-05
1.7952e-05
1.77218e-05
1.7481e-05
1.72548e-05
1.69663e-05
1.65775e-05
1.61246e-05
1.56108e-05
1.50433e-05
1.44414e-05
1.38717e-05
1.34184e-05
1.31472e-05
1.31277e-05
1.337e-05
1.38124e-05
1.43808e-05
1.49907e-05
1.55808e-05
1.61127e-05
1.65667e-05
1.69484e-05
1.72649e-05
1.75179e-05
1.77115e-05
1.78816e-05
1.82562e-05
1.9561e-05
1.7487e-05
1.64384e-05
1.60582e-05
1.58638e-05
1.56901e-05
1.54968e-05
1.52023e-05
1.48426e-05
1.44342e-05
1.39576e-05
1.34271e-05
1.28826e-05
1.23885e-05
1.19975e-05
1.1755e-05
1.17355e-05
1.19581e-05
1.23653e-05
1.28744e-05
1.34019e-05
1.39049e-05
1.43718e-05
1.47921e-05
1.51593e-05
1.54637e-05
1.57044e-05
1.58881e-05
1.60424e-05
1.63446e-05
1.73779e-05
1.56597e-05
1.47626e-05
1.45108e-05
1.43783e-05
1.42391e-05
1.40289e-05
1.37523e-05
1.34406e-05
1.30721e-05
1.26361e-05
1.21587e-05
1.16821e-05
1.12498e-05
1.08957e-05
1.06711e-05
1.0659e-05
1.08725e-05
1.12426e-05
1.16851e-05
1.21347e-05
1.25718e-05
1.29935e-05
1.33835e-05
1.37214e-05
1.39935e-05
1.4203e-05
1.43614e-05
1.44925e-05
1.47348e-05
1.55538e-05
1.40796e-05
1.34337e-05
1.32616e-05
1.31466e-05
1.29993e-05
1.27973e-05
1.25703e-05
1.2303e-05
1.19717e-05
1.15852e-05
1.11696e-05
1.07564e-05
1.03718e-05
1.00484e-05
9.84858e-06
9.85108e-06
1.00525e-05
1.03787e-05
1.07584e-05
1.11481e-05
1.15356e-05
1.19113e-05
1.22547e-05
1.25447e-05
1.27755e-05
1.29546e-05
1.30931e-05
1.32087e-05
1.34055e-05
1.40512e-05
1.28404e-05
1.23862e-05
1.22149e-05
1.21003e-05
1.19673e-05
1.18085e-05
1.16236e-05
1.13834e-05
1.10852e-05
1.07451e-05
1.03881e-05
1.00341e-05
9.69719e-06
9.4119e-06
9.24273e-06
9.25398e-06
9.43385e-06
9.71459e-06
1.00398e-05
1.03787e-05
1.07177e-05
1.10416e-05
1.1332e-05
1.15761e-05
1.17734e-05
1.19304e-05
1.20539e-05
1.2155e-05
1.23124e-05
1.28118e-05
1.18605e-05
1.14686e-05
1.1312e-05
1.12321e-05
1.11326e-05
1.10041e-05
1.08345e-05
1.06133e-05
1.0351e-05
1.00643e-05
9.77351e-06
9.48235e-06
9.19563e-06
8.94976e-06
8.80668e-06
8.81727e-06
8.96927e-06
9.2041e-06
9.4781e-06
9.76851e-06
1.00592e-05
1.03335e-05
1.05771e-05
1.07839e-05
1.09551e-05
1.10935e-05
1.12017e-05
1.12868e-05
1.14088e-05
1.17855e-05
1.09825e-05
1.06528e-05
1.05709e-05
1.05215e-05
1.04333e-05
1.03124e-05
1.01525e-05
9.95901e-06
9.74235e-06
9.51755e-06
9.29091e-06
9.05224e-06
8.80834e-06
8.59832e-06
8.4743e-06
8.47624e-06
8.59716e-06
8.78981e-06
9.02141e-06
9.27214e-06
9.52239e-06
9.75576e-06
9.96288e-06
1.01415e-05
1.02912e-05
1.0411e-05
1.05009e-05
1.05689e-05
1.06611e-05
1.09389e-05
1.02288e-05
1.0032e-05
9.99791e-06
9.93832e-06
9.85142e-06
9.7406e-06
9.60316e-06
9.44587e-06
9.27503e-06
9.09859e-06
8.90971e-06
8.7011e-06
8.4906e-06
8.31433e-06
8.20866e-06
8.20321e-06
8.29682e-06
8.45848e-06
8.66105e-06
8.88093e-06
9.09779e-06
9.29773e-06
9.4751e-06
9.62836e-06
9.75508e-06
9.85278e-06
9.92254e-06
9.97415e-06
1.00433e-05
1.02478e-05
9.68506e-06
9.59247e-06
9.53326e-06
9.46355e-06
9.39136e-06
9.29935e-06
9.18886e-06
9.06424e-06
8.93086e-06
8.78557e-06
8.61787e-06
8.43389e-06
8.25884e-06
8.11754e-06
8.02874e-06
8.01755e-06
8.09098e-06
8.22808e-06
8.40246e-06
8.58983e-06
8.77118e-06
8.93624e-06
9.08257e-06
9.209e-06
9.31189e-06
9.38952e-06
9.4452e-06
9.48753e-06
9.5407e-06
9.68679e-06
9.27865e-06
9.19193e-06
9.11982e-06
9.0763e-06
9.02667e-06
8.95527e-06
8.86695e-06
8.76795e-06
8.66179e-06
8.53834e-06
8.39262e-06
8.24128e-06
8.10608e-06
7.9965e-06
7.9215e-06
7.90729e-06
7.96382e-06
8.0742e-06
8.21487e-06
8.364e-06
8.50729e-06
8.63934e-06
8.75798e-06
8.86102e-06
8.94578e-06
9.01147e-06
9.06037e-06
9.09745e-06
9.13649e-06
9.23249e-06
8.8996e-06
8.81392e-06
8.78512e-06
8.77421e-06
8.74219e-06
8.68551e-06
8.6096e-06
8.52619e-06
8.43598e-06
8.32875e-06
8.20838e-06
8.09249e-06
7.99093e-06
7.90333e-06
7.83937e-06
7.82537e-06
7.87022e-06
7.95772e-06
8.06739e-06
8.18292e-06
8.29595e-06
8.40366e-06
8.50287e-06
8.58935e-06
8.66073e-06
8.71666e-06
8.7583e-06
8.78764e-06
8.81068e-06
8.86401e-06
8.56289e-06
8.52962e-06
8.54778e-06
8.5464e-06
8.51626e-06
8.46184e-06
8.39377e-06
8.32445e-06
8.24828e-06
8.15824e-06
8.06394e-06
7.97696e-06
7.89625e-06
7.82073e-06
7.76476e-06
7.7551e-06
7.79712e-06
7.87111e-06
7.9592e-06
8.05127e-06
8.14296e-06
8.23208e-06
8.31452e-06
8.38573e-06
8.44338e-06
8.48672e-06
8.5162e-06
8.53251e-06
8.53732e-06
8.55536e-06
8.31776e-06