/*--------------------------------*- C++ -*----------------------------------*\
| =========                 |                                                 |
| \\      /  F ield         | OpenFOAM: The Open Source CFD Toolbox           |
|  \\    /   O peration     | Version:  2312                                  |
|   \\  /    A nd           | Website:  www.openfoam.com                      |
|    \\/     M anipulation  |                                                 |
\*---------------------------------------------------------------------------*/
FoamFile
{
    version     2.0;
    format      ascii;
    arch        "LSB;label=32;scalar=64";
    class       volScalarField;
    location    "1.553784609827";
    object      k;
}
// * * * * * * * * * * * * * * * * * * * * * * * * * * * * * * * * * * * * * //

dimensions      [0 2 -2 0 0 0 0];

internalField   nonuniform List<scalar> 
90000
(
1.96848e-05
1.96902e-05
1.96917e-05
1.96922e-05
1.96931e-05
1.96936e-05
1.96939e-05
1.96941e-05
1.96939e-05
1.96932e-05
1.96919e-05
1.96902e-05
1.96886e-05
1.96881e-05
1.9689e-05
1.96896e-05
1.96897e-05
1.96899e-05
1.96904e-05
1.96906e-05
1.96896e-05
1.96893e-05
1.96924e-05
1.96976e-05
1.97019e-05
1.97035e-05
1.9701e-05
1.9699e-05
1.97106e-05
1.9731e-05
1.96942e-05
1.98144e-05
1.98262e-05
1.98265e-05
1.98264e-05
1.98264e-05
1.98268e-05
1.98272e-05
1.98274e-05
1.98274e-05
1.98275e-05
1.9828e-05
1.98284e-05
1.98286e-05
1.98283e-05
1.98276e-05
1.9827e-05
1.98269e-05
1.9827e-05
1.98269e-05
1.98276e-05
1.98289e-05
1.98303e-05
1.98308e-05
1.98301e-05
1.98295e-05
1.98324e-05
1.98418e-05
1.98366e-05
1.97585e-05
1.96933e-05
1.98278e-05
1.98421e-05
1.9843e-05
1.98433e-05
1.98437e-05
1.98442e-05
1.98444e-05
1.98439e-05
1.9843e-05
1.98432e-05
1.98444e-05
1.98463e-05
1.98475e-05
1.98474e-05
1.98459e-05
1.98433e-05
1.98413e-05
1.98431e-05
1.98457e-05
1.98472e-05
1.98472e-05
1.98459e-05
1.98442e-05
1.98449e-05
1.98479e-05
1.98507e-05
1.9861e-05
1.98744e-05
1.97477e-05
1.96917e-05
1.98273e-05
1.98436e-05
1.98452e-05
1.98461e-05
1.9847e-05
1.98478e-05
1.98481e-05
1.98477e-05
1.98466e-05
1.98455e-05
1.98457e-05
1.98467e-05
1.98476e-05
1.98474e-05
1.9846e-05
1.9844e-05
1.98438e-05
1.98463e-05
1.98484e-05
1.98485e-05
1.98471e-05
1.98467e-05
1.98503e-05
1.98537e-05
1.98566e-05
1.98614e-05
1.98623e-05
1.98702e-05
1.97212e-05
1.96918e-05
1.98267e-05
1.98435e-05
1.98452e-05
1.98461e-05
1.98468e-05
1.98474e-05
1.98479e-05
1.98482e-05
1.98479e-05
1.98472e-05
1.98462e-05
1.9845e-05
1.9844e-05
1.98439e-05
1.98453e-05
1.9847e-05
1.98481e-05
1.98483e-05
1.98473e-05
1.98457e-05
1.98464e-05
1.98499e-05
1.98536e-05
1.98559e-05
1.98559e-05
1.98548e-05
1.98567e-05
1.98476e-05
1.97063e-05
1.96926e-05
1.98273e-05
1.98429e-05
1.98441e-05
1.98444e-05
1.98445e-05
1.98448e-05
1.98454e-05
1.98464e-05
1.98473e-05
1.98479e-05
1.98482e-05
1.98478e-05
1.98464e-05
1.98449e-05
1.98458e-05
1.98477e-05
1.98486e-05
1.98481e-05
1.98468e-05
1.98465e-05
1.98478e-05
1.985e-05
1.98517e-05
1.98525e-05
1.98519e-05
1.98485e-05
1.98551e-05
1.98398e-05
1.97037e-05
1.96933e-05
1.9828e-05
1.9843e-05
1.98443e-05
1.9845e-05
1.98452e-05
1.9845e-05
1.98448e-05
1.9845e-05
1.98461e-05
1.9848e-05
1.98499e-05
1.9851e-05
1.98508e-05
1.98488e-05
1.98459e-05
1.98446e-05
1.98455e-05
1.98468e-05
1.98478e-05
1.98484e-05
1.98487e-05
1.98482e-05
1.98469e-05
1.98457e-05
1.98479e-05
1.98516e-05
1.98601e-05
1.98447e-05
1.97017e-05
1.96928e-05
1.98302e-05
1.98455e-05
1.98478e-05
1.98494e-05
1.98505e-05
1.98506e-05
1.98493e-05
1.98468e-05
1.98447e-05
1.98464e-05
1.98493e-05
1.98516e-05
1.98522e-05
1.98506e-05
1.9847e-05
1.98425e-05
1.98421e-05
1.98454e-05
1.98479e-05
1.9849e-05
1.98486e-05
1.98469e-05
1.98448e-05
1.98448e-05
1.98496e-05
1.98555e-05
1.98595e-05
1.98416e-05
1.96976e-05
1.96936e-05
1.98332e-05
1.98491e-05
1.98516e-05
1.98535e-05
1.98547e-05
1.98547e-05
1.98535e-05
1.98509e-05
1.98474e-05
1.98451e-05
1.98469e-05
1.98488e-05
1.98501e-05
1.98503e-05
1.98493e-05
1.98475e-05
1.9846e-05
1.98463e-05
1.98476e-05
1.98484e-05
1.98478e-05
1.9846e-05
1.98446e-05
1.98461e-05
1.98513e-05
1.98551e-05
1.98545e-05
1.98355e-05
1.96939e-05
1.96995e-05
1.9835e-05
1.98503e-05
1.98523e-05
1.98537e-05
1.98543e-05
1.98544e-05
1.9854e-05
1.98531e-05
1.98516e-05
1.98491e-05
1.9846e-05
1.9845e-05
1.98464e-05
1.98491e-05
1.98516e-05
1.9853e-05
1.9853e-05
1.98523e-05
1.98513e-05
1.98501e-05
1.98484e-05
1.9846e-05
1.98441e-05
1.98468e-05
1.98501e-05
1.98508e-05
1.9848e-05
1.98309e-05
1.96922e-05
1.97039e-05
1.98358e-05
1.98498e-05
1.98508e-05
1.98504e-05
1.98494e-05
1.98488e-05
1.98495e-05
1.9851e-05
1.98519e-05
1.98512e-05
1.98487e-05
1.98453e-05
1.98448e-05
1.98477e-05
1.9852e-05
1.98558e-05
1.98583e-05
1.98591e-05
1.9858e-05
1.98555e-05
1.98521e-05
1.98483e-05
1.98462e-05
1.98477e-05
1.98488e-05
1.98487e-05
1.98472e-05
1.98312e-05
1.96941e-05
1.9703e-05
1.98399e-05
1.98522e-05
1.98516e-05
1.98497e-05
1.98474e-05
1.9846e-05
1.98466e-05
1.98481e-05
1.98495e-05
1.985e-05
1.98495e-05
1.98475e-05
1.98447e-05
1.98453e-05
1.98507e-05
1.98565e-05
1.98607e-05
1.98625e-05
1.98617e-05
1.98587e-05
1.98545e-05
1.98496e-05
1.98464e-05
1.98468e-05
1.98484e-05
1.98496e-05
1.98488e-05
1.98348e-05
1.96967e-05
1.97005e-05
1.98435e-05
1.98559e-05
1.98563e-05
1.98576e-05
1.9859e-05
1.98599e-05
1.98593e-05
1.98564e-05
1.98522e-05
1.98502e-05
1.98513e-05
1.98521e-05
1.98515e-05
1.98509e-05
1.98525e-05
1.98554e-05
1.98577e-05
1.98586e-05
1.98581e-05
1.98563e-05
1.98532e-05
1.98492e-05
1.98461e-05
1.9847e-05
1.98491e-05
1.98501e-05
1.98503e-05
1.98366e-05
1.96981e-05
1.97102e-05
1.98418e-05
1.98579e-05
1.98622e-05
1.98681e-05
1.98724e-05
1.98734e-05
1.98703e-05
1.98639e-05
1.98565e-05
1.98515e-05
1.9853e-05
1.98565e-05
1.98593e-05
1.98604e-05
1.98593e-05
1.98562e-05
1.98519e-05
1.98495e-05
1.98498e-05
1.98509e-05
1.9851e-05
1.98499e-05
1.98485e-05
1.98487e-05
1.98494e-05
1.98509e-05
1.98521e-05
1.98374e-05
1.97e-05
1.97191e-05
1.98359e-05
1.98633e-05
1.98715e-05
1.9877e-05
1.98785e-05
1.98757e-05
1.98696e-05
1.98618e-05
1.98545e-05
1.98498e-05
1.98519e-05
1.98574e-05
1.98622e-05
1.98642e-05
1.98628e-05
1.98584e-05
1.98521e-05
1.98462e-05
1.98439e-05
1.9847e-05
1.985e-05
1.98512e-05
1.98509e-05
1.98502e-05
1.98517e-05
1.98557e-05
1.98576e-05
1.98444e-05
1.97062e-05
1.97189e-05
1.98532e-05
1.98731e-05
1.98768e-05
1.98765e-05
1.98723e-05
1.98656e-05
1.98589e-05
1.98538e-05
1.985e-05
1.98476e-05
1.98502e-05
1.9856e-05
1.98609e-05
1.9863e-05
1.98622e-05
1.98595e-05
1.98552e-05
1.98504e-05
1.98467e-05
1.98467e-05
1.98492e-05
1.98511e-05
1.98516e-05
1.98526e-05
1.98558e-05
1.98597e-05
1.98624e-05
1.98512e-05
1.97102e-05
1.97106e-05
1.98683e-05
1.9879e-05
1.98759e-05
1.98692e-05
1.98605e-05
1.98526e-05
1.98502e-05
1.98509e-05
1.98502e-05
1.98497e-05
1.9852e-05
1.98555e-05
1.98586e-05
1.98602e-05
1.98608e-05
1.98598e-05
1.98572e-05
1.98536e-05
1.98502e-05
1.98483e-05
1.98484e-05
1.98498e-05
1.98511e-05
1.98534e-05
1.9857e-05
1.98603e-05
1.98624e-05
1.98486e-05
1.97073e-05
1.9709e-05
1.9874e-05
1.98806e-05
1.98744e-05
1.98662e-05
1.98582e-05
1.98532e-05
1.98513e-05
1.98515e-05
1.98518e-05
1.98528e-05
1.98533e-05
1.98537e-05
1.98546e-05
1.98561e-05
1.98574e-05
1.98578e-05
1.98571e-05
1.98552e-05
1.98526e-05
1.98501e-05
1.98498e-05
1.98508e-05
1.98517e-05
1.98545e-05
1.98573e-05
1.98587e-05
1.98582e-05
1.98421e-05
1.97035e-05
1.97178e-05
1.98745e-05
1.98819e-05
1.98761e-05
1.98693e-05
1.98638e-05
1.986e-05
1.9857e-05
1.98543e-05
1.98526e-05
1.98513e-05
1.985e-05
1.98495e-05
1.98497e-05
1.98506e-05
1.98522e-05
1.98541e-05
1.9855e-05
1.98545e-05
1.98527e-05
1.9851e-05
1.98508e-05
1.98516e-05
1.98558e-05
1.98598e-05
1.98604e-05
1.98592e-05
1.98573e-05
1.9842e-05
1.97056e-05
1.97261e-05
1.98736e-05
1.98827e-05
1.98776e-05
1.98719e-05
1.98676e-05
1.98645e-05
1.98615e-05
1.98583e-05
1.98553e-05
1.98525e-05
1.985e-05
1.98476e-05
1.98455e-05
1.98463e-05
1.98494e-05
1.98522e-05
1.98533e-05
1.98529e-05
1.98521e-05
1.98519e-05
1.98548e-05
1.98611e-05
1.9866e-05
1.98667e-05
1.98648e-05
1.98641e-05
1.98649e-05
1.98543e-05
1.97138e-05
1.97328e-05
1.98711e-05
1.98812e-05
1.98771e-05
1.98734e-05
1.98709e-05
1.98687e-05
1.98661e-05
1.98629e-05
1.98595e-05
1.98558e-05
1.98516e-05
1.98477e-05
1.98478e-05
1.98513e-05
1.98543e-05
1.9855e-05
1.98542e-05
1.9854e-05
1.98558e-05
1.98602e-05
1.98665e-05
1.98706e-05
1.98697e-05
1.98656e-05
1.98637e-05
1.98652e-05
1.98684e-05
1.98578e-05
1.97168e-05
1.97369e-05
1.98679e-05
1.98804e-05
1.98783e-05
1.98761e-05
1.9874e-05
1.98715e-05
1.98685e-05
1.98651e-05
1.98612e-05
1.98563e-05
1.98519e-05
1.98532e-05
1.98573e-05
1.98586e-05
1.98569e-05
1.98543e-05
1.98541e-05
1.98573e-05
1.98635e-05
1.98708e-05
1.98748e-05
1.98726e-05
1.98676e-05
1.98657e-05
1.98667e-05
1.98694e-05
1.98715e-05
1.98581e-05
1.97204e-05
1.97381e-05
1.98666e-05
1.98817e-05
1.98811e-05
1.9879e-05
1.98761e-05
1.98727e-05
1.98692e-05
1.98657e-05
1.98617e-05
1.9858e-05
1.9858e-05
1.98601e-05
1.98592e-05
1.98553e-05
1.98516e-05
1.98513e-05
1.98553e-05
1.98626e-05
1.98711e-05
1.98762e-05
1.9875e-05
1.98706e-05
1.98692e-05
1.98704e-05
1.98735e-05
1.98767e-05
1.98769e-05
1.98623e-05
1.97269e-05
1.97388e-05
1.98702e-05
1.98858e-05
1.98854e-05
1.98826e-05
1.9879e-05
1.98758e-05
1.9873e-05
1.98698e-05
1.9866e-05
1.98631e-05
1.98626e-05
1.98606e-05
1.98553e-05
1.98497e-05
1.98501e-05
1.98529e-05
1.98592e-05
1.9869e-05
1.98753e-05
1.98755e-05
1.98727e-05
1.98733e-05
1.98756e-05
1.98788e-05
1.98832e-05
1.98853e-05
1.98852e-05
1.98699e-05
1.97355e-05
1.97448e-05
1.98783e-05
1.9893e-05
1.98921e-05
1.9889e-05
1.98859e-05
1.98834e-05
1.98808e-05
1.98774e-05
1.98732e-05
1.98693e-05
1.98658e-05
1.98599e-05
1.98533e-05
1.98524e-05
1.98531e-05
1.98559e-05
1.98652e-05
1.9872e-05
1.98734e-05
1.98734e-05
1.98778e-05
1.98814e-05
1.98839e-05
1.9889e-05
1.98923e-05
1.98942e-05
1.98947e-05
1.98798e-05
1.97475e-05
1.97572e-05
1.98904e-05
1.99041e-05
1.99026e-05
1.98996e-05
1.98967e-05
1.98941e-05
1.98911e-05
1.98871e-05
1.98825e-05
1.98772e-05
1.98702e-05
1.98626e-05
1.98587e-05
1.98564e-05
1.98546e-05
1.98593e-05
1.9866e-05
1.98702e-05
1.9875e-05
1.9882e-05
1.98866e-05
1.9889e-05
1.98938e-05
1.98984e-05
1.99012e-05
1.99041e-05
1.99064e-05
1.98968e-05
1.97583e-05
1.97755e-05
1.9906e-05
1.99191e-05
1.99173e-05
1.99142e-05
1.99106e-05
1.99068e-05
1.99024e-05
1.98974e-05
1.98912e-05
1.98834e-05
1.98754e-05
1.987e-05
1.98663e-05
1.98609e-05
1.98575e-05
1.98606e-05
1.98676e-05
1.9877e-05
1.98859e-05
1.98911e-05
1.98943e-05
1.98995e-05
1.99053e-05
1.99096e-05
1.99145e-05
1.99184e-05
1.99224e-05
1.99117e-05
1.97735e-05
1.97965e-05
1.99253e-05
1.99382e-05
1.99357e-05
1.99313e-05
1.9926e-05
1.99201e-05
1.99141e-05
1.99077e-05
1.99e-05
1.98919e-05
1.98861e-05
1.98817e-05
1.98754e-05
1.98675e-05
1.98643e-05
1.98694e-05
1.98792e-05
1.9889e-05
1.98957e-05
1.99005e-05
1.99069e-05
1.99132e-05
1.99191e-05
1.99253e-05
1.99325e-05
1.99379e-05
1.99389e-05
1.99269e-05
1.97935e-05
1.98194e-05
1.99474e-05
1.99591e-05
1.99557e-05
1.99506e-05
1.99443e-05
1.99373e-05
1.99301e-05
1.99221e-05
1.99132e-05
1.99058e-05
1.99001e-05
1.9893e-05
1.98837e-05
1.98752e-05
1.98736e-05
1.98808e-05
1.98907e-05
1.99e-05
1.99075e-05
1.99143e-05
1.99228e-05
1.99303e-05
1.99384e-05
1.99458e-05
1.99545e-05
1.99604e-05
1.99596e-05
1.99469e-05
1.98203e-05
1.98457e-05
1.99723e-05
1.9984e-05
1.99803e-05
1.99747e-05
1.99681e-05
1.99606e-05
1.99519e-05
1.99415e-05
1.99309e-05
1.99222e-05
1.99135e-05
1.99026e-05
1.98909e-05
1.98823e-05
1.98824e-05
1.98905e-05
1.99005e-05
1.99108e-05
1.99213e-05
1.99312e-05
1.99421e-05
1.99528e-05
1.99628e-05
1.99703e-05
1.99792e-05
1.99862e-05
1.99856e-05
1.99776e-05
1.98491e-05
1.98776e-05
2.0004e-05
2.00158e-05
2.00117e-05
2.00051e-05
1.99973e-05
1.99882e-05
1.99775e-05
1.99647e-05
1.99518e-05
1.99402e-05
1.99276e-05
1.99137e-05
1.99004e-05
1.98916e-05
1.98923e-05
1.9901e-05
1.99121e-05
1.99243e-05
1.99384e-05
1.99524e-05
1.99665e-05
1.99809e-05
1.99909e-05
1.99988e-05
2.00073e-05
2.00159e-05
2.00207e-05
2.00115e-05
1.98815e-05
1.99177e-05
2.00441e-05
2.00548e-05
2.0049e-05
2.00407e-05
2.00313e-05
2.00206e-05
2.00081e-05
1.99934e-05
1.9978e-05
1.99629e-05
1.99469e-05
1.99303e-05
1.99153e-05
1.99051e-05
1.99052e-05
1.99151e-05
1.99294e-05
1.99449e-05
1.99609e-05
1.99787e-05
1.99959e-05
2.00103e-05
2.00217e-05
2.00318e-05
2.00418e-05
2.00522e-05
2.00607e-05
2.00486e-05
1.99214e-05
1.99671e-05
2.0091e-05
2.01001e-05
2.00933e-05
2.00836e-05
2.00726e-05
2.00605e-05
2.00465e-05
2.00298e-05
2.00112e-05
1.99913e-05
1.99711e-05
1.99518e-05
1.99351e-05
1.99234e-05
1.99229e-05
1.99342e-05
1.99529e-05
1.99714e-05
1.99899e-05
2.00115e-05
2.00279e-05
2.00435e-05
2.00594e-05
2.00732e-05
2.00837e-05
2.00964e-05
2.01046e-05
2.00928e-05
1.99698e-05
2.00265e-05
2.01468e-05
2.01555e-05
2.01481e-05
2.01373e-05
2.01246e-05
2.011e-05
2.00927e-05
2.00721e-05
2.00493e-05
2.00254e-05
2.00022e-05
1.99802e-05
1.99607e-05
1.99472e-05
1.99471e-05
1.99592e-05
1.9981e-05
2.00036e-05
2.00257e-05
2.00481e-05
2.0068e-05
2.00875e-05
2.01078e-05
2.01229e-05
2.01363e-05
2.01495e-05
2.01571e-05
2.01475e-05
2.00278e-05
2.00981e-05
2.0216e-05
2.02243e-05
2.02154e-05
2.02021e-05
2.0186e-05
2.01676e-05
2.01462e-05
2.01222e-05
2.00961e-05
2.00693e-05
2.00427e-05
2.00166e-05
1.99931e-05
1.99775e-05
1.99789e-05
1.99923e-05
2.00155e-05
2.00425e-05
2.0068e-05
2.00943e-05
2.01214e-05
2.01435e-05
2.01658e-05
2.01842e-05
2.02014e-05
2.02142e-05
2.02229e-05
2.02145e-05
2.00981e-05
2.01853e-05
2.02999e-05
2.03061e-05
2.02948e-05
2.02789e-05
2.026e-05
2.02383e-05
2.02133e-05
2.01857e-05
2.01562e-05
2.01257e-05
2.00948e-05
2.00639e-05
2.00361e-05
2.00176e-05
2.00208e-05
2.00377e-05
2.0063e-05
2.00945e-05
2.01254e-05
2.01564e-05
2.01879e-05
2.02132e-05
2.02372e-05
2.02612e-05
2.02795e-05
2.0293e-05
2.03026e-05
2.02956e-05
2.0184e-05
2.02908e-05
2.03991e-05
2.04035e-05
2.0391e-05
2.03737e-05
2.03521e-05
2.03267e-05
2.02981e-05
2.02668e-05
2.02333e-05
2.01977e-05
2.01611e-05
2.01256e-05
2.00952e-05
2.0074e-05
2.00768e-05
2.00971e-05
2.01256e-05
2.01627e-05
2.02007e-05
2.02343e-05
2.02699e-05
2.02987e-05
2.03271e-05
2.03541e-05
2.03746e-05
2.03892e-05
2.04009e-05
2.03966e-05
2.02893e-05
2.04167e-05
2.05191e-05
2.05236e-05
2.051e-05
2.04897e-05
2.04642e-05
2.0435e-05
2.04026e-05
2.03673e-05
2.03286e-05
2.02872e-05
2.02452e-05
2.02049e-05
2.01728e-05
2.01491e-05
2.01487e-05
2.01718e-05
2.02058e-05
2.02489e-05
2.02926e-05
2.03302e-05
2.0369e-05
2.04039e-05
2.04367e-05
2.04667e-05
2.04895e-05
2.05077e-05
2.0523e-05
2.05199e-05
2.04172e-05
2.05686e-05
2.06673e-05
2.067e-05
2.06527e-05
2.06284e-05
2.05993e-05
2.05665e-05
2.05299e-05
2.04892e-05
2.04447e-05
2.03983e-05
2.03521e-05
2.03063e-05
2.02692e-05
2.02434e-05
2.02401e-05
2.02675e-05
2.03088e-05
2.03566e-05
2.04038e-05
2.04461e-05
2.04894e-05
2.05312e-05
2.05685e-05
2.06014e-05
2.06274e-05
2.06506e-05
2.06687e-05
2.06666e-05
2.05706e-05
2.07537e-05
2.08456e-05
2.08441e-05
2.08233e-05
2.07964e-05
2.0765e-05
2.07283e-05
2.06859e-05
2.06393e-05
2.05895e-05
2.05387e-05
2.04875e-05
2.04352e-05
2.03897e-05
2.03628e-05
2.036e-05
2.03902e-05
2.04372e-05
2.04888e-05
2.05399e-05
2.05895e-05
2.06397e-05
2.06869e-05
2.07278e-05
2.07651e-05
2.07962e-05
2.0823e-05
2.08425e-05
2.08444e-05
2.07528e-05
2.0976e-05
2.10582e-05
2.1054e-05
2.10326e-05
2.10042e-05
2.09688e-05
2.09257e-05
2.08779e-05
2.08272e-05
2.07725e-05
2.07149e-05
2.06572e-05
2.06023e-05
2.05481e-05
2.05175e-05
2.05166e-05
2.05483e-05
2.05995e-05
2.06575e-05
2.07147e-05
2.0772e-05
2.08275e-05
2.08787e-05
2.09237e-05
2.09676e-05
2.10042e-05
2.10329e-05
2.10538e-05
2.10606e-05
2.09742e-05
2.12419e-05
2.13184e-05
2.13136e-05
2.12899e-05
2.12556e-05
2.12141e-05
2.11669e-05
2.11157e-05
2.10596e-05
2.09986e-05
2.09359e-05
2.08721e-05
2.08146e-05
2.07549e-05
2.07151e-05
2.07188e-05
2.07567e-05
2.08106e-05
2.08741e-05
2.09366e-05
2.09997e-05
2.10593e-05
2.1116e-05
2.11681e-05
2.12144e-05
2.12545e-05
2.12879e-05
2.13138e-05
2.13229e-05
2.12443e-05
2.15667e-05
2.16418e-05
2.16307e-05
2.16001e-05
2.15606e-05
2.15163e-05
2.14658e-05
2.14087e-05
2.13472e-05
2.12821e-05
2.12173e-05
2.11469e-05
2.10824e-05
2.10211e-05
2.09769e-05
2.09817e-05
2.10245e-05
2.10813e-05
2.11479e-05
2.12166e-05
2.12845e-05
2.13476e-05
2.14083e-05
2.14681e-05
2.15174e-05
2.15603e-05
2.16006e-05
2.16322e-05
2.16426e-05
2.15684e-05
2.19673e-05
2.20445e-05
2.2022e-05
2.19891e-05
2.19465e-05
2.18949e-05
2.18383e-05
2.17763e-05
2.17126e-05
2.1644e-05
2.15783e-05
2.15106e-05
2.14477e-05
2.13891e-05
2.13502e-05
2.13544e-05
2.1392e-05
2.14479e-05
2.15116e-05
2.15766e-05
2.16437e-05
2.1713e-05
2.17769e-05
2.18378e-05
2.18939e-05
2.19468e-05
2.19904e-05
2.20247e-05
2.20447e-05
2.19668e-05
2.24745e-05
2.25882e-05
2.25491e-05
2.25159e-05
2.24599e-05
2.23953e-05
2.2336e-05
2.22678e-05
2.22081e-05
2.21559e-05
2.21198e-05
2.21139e-05
2.21434e-05
2.21791e-05
2.22102e-05
2.2248e-05
2.21865e-05
2.21431e-05
2.21218e-05
2.21226e-05
2.21549e-05
2.22078e-05
2.22714e-05
2.23345e-05
2.23932e-05
2.2459e-05
2.25142e-05
2.25463e-05
2.25903e-05
2.2474e-05
2.32625e-05
2.35806e-05
2.34683e-05
2.35084e-05
2.33663e-05
2.32565e-05
2.32461e-05
2.3182e-05
2.31676e-05
2.3307e-05
2.36452e-05
2.42934e-05
2.52846e-05
2.64814e-05
2.71912e-05
2.75294e-05
2.64508e-05
2.53646e-05
2.43811e-05
2.36513e-05
2.33247e-05
2.31743e-05
2.31763e-05
2.32468e-05
2.32524e-05
2.33565e-05
2.3516e-05
2.34675e-05
2.35891e-05
2.325e-05
2.53741e-05
2.66271e-05
2.62186e-05
2.71088e-05
2.62343e-05
2.59991e-05
2.66727e-05
2.66345e-05
2.71354e-05
2.90536e-05
3.2633e-05
3.8713e-05
4.81166e-05
5.82342e-05
6.42939e-05
6.52269e-05
5.84705e-05
4.84244e-05
3.97967e-05
3.26796e-05
2.92598e-05
2.72076e-05
2.66039e-05
2.66623e-05
2.59968e-05
2.62034e-05
2.71522e-05
2.62246e-05
2.66949e-05
2.52899e-05
3.59127e-05
3.84142e-05
3.75275e-05
4.36187e-05
3.97927e-05
4.1172e-05
4.72439e-05
4.80624e-05
5.44698e-05
6.89859e-05
9.5915e-05
0.000135188
0.000183374
0.00022164
0.000252189
0.000244011
0.000228965
0.000179568
0.000140574
9.49104e-05
7.08207e-05
5.50256e-05
4.79378e-05
4.69884e-05
4.1345e-05
3.96279e-05
4.40721e-05
3.76093e-05
3.86392e-05
3.55648e-05
8.74661e-05
7.64495e-05
8.52112e-05
0.000103776
0.000104473
0.000130616
0.000154703
0.000165201
0.000214205
0.000302226
0.000350884
0.000473729
0.000542636
0.000602304
0.000639433
0.000624794
0.0006096
0.000540141
0.000457486
0.000353344
0.000311475
0.000216974
0.000165217
0.000152369
0.000130958
0.000105229
0.000106924
8.82245e-05
7.69833e-05
8.73113e-05
0.000194444
0.000172694
0.00022892
0.000259284
0.000295369
0.000416547
0.000428786
0.00048049
0.00059147
0.000739584
0.000711609
0.000919186
0.000880683
0.00102462
0.000948536
0.00102244
0.000928563
0.00094145
0.000802738
0.00074467
0.000769369
0.000587588
0.00048433
0.000429491
0.000414225
0.000328428
0.000272971
0.000242279
0.000174224
0.000194824
0.000390547
0.000486572
0.000442283
0.000531161
0.000635878
0.000922209
0.000956619
0.000941555
0.00112192
0.00137694
0.00128779
0.00163559
0.00148988
0.00166222
0.00134987
0.0016594
0.00140588
0.00145747
0.00130307
0.00127498
0.00138803
0.00110124
0.000931741
0.000865406
0.00093076
0.000709814
0.000569616
0.000469217
0.000504363
0.000393497
0.000502759
0.000583566
0.00070653
0.000921273
0.00111557
0.00159472
0.0017318
0.00137403
0.00128307
0.00151261
0.00156877
0.0018295
0.00187039
0.00170945
0.0016349
0.00169313
0.0017257
0.00183436
0.00177191
0.00143906
0.00147438
0.00129613
0.00123512
0.001508
0.00162587
0.0012756
0.00100391
0.000749025
0.000602199
0.000507946
0.000569777
0.00065978
0.000896226
0.001154
0.00116831
0.00159344
0.0016644
0.00151176
0.00128226
0.00143562
0.00139233
0.00153857
0.00160059
0.00151538
0.00152433
0.00164298
0.00160974
0.00156745
0.0016596
0.00150453
0.00149627
0.00133038
0.00135422
0.0013425
0.00157086
0.00128116
0.00120679
0.000933656
0.000626305
0.000581753
0.000527286
0.000631755
0.000802924
0.000925709
0.000866845
0.00117129
0.00121648
0.00123972
0.00122411
0.0014255
0.00132008
0.00159013
0.00139819
0.0015629
0.00139493
0.00169427
0.00142776
0.00143036
0.00141764
0.00147496
0.00151294
0.00115029
0.0011845
0.00107337
0.00107647
0.000876299
0.00093525
0.000809989
0.000622447
0.000547375
0.000367009
0.000475618
0.000649989
0.000693967
0.00062874
0.000760003
0.000772125
0.000785324
0.000843428
0.00102411
0.00108256
0.00120338
0.00115691
0.00131048
0.00128266
0.00141057
0.00117341
0.00117896
0.00109884
0.00109058
0.00103142
0.000848252
0.000750085
0.000703027
0.000656302
0.000621079
0.000674432
0.000630706
0.000478929
0.000372679
0.000234438
0.000315723
0.000427293
0.000447922
0.000366989
0.000398651
0.000453693
0.000491197
0.000533504
0.000607844
0.000663418
0.000734128
0.000784536
0.000864698
0.0009277
0.000934812
0.000837341
0.000774002
0.000728462
0.000658308
0.000607399
0.000544486
0.000498397
0.000451816
0.000388311
0.000363029
0.000427923
0.000403802
0.000313149
0.000230198
0.000176253
0.000217751
0.000261924
0.000280879
0.000223118
0.000217562
0.000265982
0.000323386
0.000391327
0.000459571
0.000497022
0.000525771
0.000554513
0.00059402
0.000633662
0.000626078
0.000591049
0.000551239
0.000530836
0.000497244
0.000460612
0.000395196
0.000328148
0.000268313
0.000218065
0.000220747
0.000270769
0.000251008
0.000215615
0.00017343
0.000139675
0.000155443
0.000165335
0.00017346
0.000158182
0.000149687
0.000163212
0.000196287
0.000253308
0.000327541
0.000392282
0.000444137
0.000475828
0.00049653
0.000504063
0.000500367
0.000497575
0.000477899
0.000445045
0.000389592
0.000326397
0.000253177
0.000197856
0.000164741
0.000150917
0.000158384
0.00017178
0.00016128
0.000153834
0.000139794
0.000120438
0.00012085
0.000122133
0.000125362
0.000122874
0.000120675
0.00012413
0.00013452
0.000159186
0.000205567
0.000269156
0.0003388
0.00040067
0.000442635
0.000453819
0.000451633
0.000443355
0.000402583
0.0003391
0.000267549
0.000204803
0.000159212
0.000134969
0.000124676
0.000121357
0.000123451
0.000125403
0.000122108
0.000121085
0.000120416
0.000105874
0.000103251
0.000102494
0.000103486
0.0001036
0.000104092
0.000106026
0.000109997
0.000118128
0.000135724
0.00016929
0.000221923
0.000285097
0.000342643
0.000372085
0.000370054
0.000343057
0.000286711
0.000222256
0.00016902
0.000135619
0.000118258
0.000110051
0.000106208
0.000104294
0.000103794
0.000103684
0.000102843
0.000103619
0.000106677
9.53875e-05
9.16828e-05
9.08473e-05
9.13335e-05
9.19715e-05
9.31045e-05
9.45921e-05
9.6734e-05
9.98716e-05
0.000105387
0.000116535
0.000138281
0.000173204
0.000214807
0.000245789
0.000244807
0.000214915
0.000173918
0.000138566
0.000116586
0.000105345
9.97141e-05
9.67841e-05
9.4648e-05
9.32172e-05
9.20703e-05
9.15279e-05
9.12721e-05
9.22263e-05
9.59703e-05
8.69489e-05
8.26747e-05
8.20118e-05
8.23589e-05
8.31188e-05
8.42297e-05
8.54766e-05
8.68889e-05
8.83579e-05
9.01871e-05
9.30414e-05
9.87579e-05
0.000109416
0.000124746
0.000139237
0.000139089
0.00012487
0.000109597
9.9001e-05
9.31253e-05
9.03147e-05
8.82746e-05
8.69545e-05
8.55365e-05
8.43227e-05
8.33719e-05
8.24862e-05
8.2438e-05
8.33097e-05
8.73701e-05
7.95042e-05
7.52061e-05
7.44272e-05
7.46606e-05
7.54841e-05
7.64295e-05
7.7325e-05
7.8197e-05
7.89249e-05
7.95221e-05
8.008e-05
8.10875e-05
8.29436e-05
8.60791e-05
8.93656e-05
8.93141e-05
8.61597e-05
8.30075e-05
8.12303e-05
8.00874e-05
7.95336e-05
7.88683e-05
7.82318e-05
7.73919e-05
7.64209e-05
7.56889e-05
7.49393e-05
7.48247e-05
7.57462e-05
7.99528e-05
7.28245e-05
6.85919e-05
6.77629e-05
6.7975e-05
6.8649e-05
6.93408e-05
6.9865e-05
7.02739e-05
7.04998e-05
7.05008e-05
7.03147e-05
7.01373e-05
6.99183e-05
6.9929e-05
7.01235e-05
7.01063e-05
7.00009e-05
6.99673e-05
7.01877e-05
7.03866e-05
7.05503e-05
7.05822e-05
7.0361e-05
6.99286e-05
6.93494e-05
6.8733e-05
6.83605e-05
6.81636e-05
6.90053e-05
7.31369e-05
6.66647e-05
6.26512e-05
6.17976e-05
6.19848e-05
6.2539e-05
6.29288e-05
6.30892e-05
6.30932e-05
6.29255e-05
6.25755e-05
6.20624e-05
6.14595e-05
6.07456e-05
6.01364e-05
5.97739e-05
5.98085e-05
6.02366e-05
6.08472e-05
6.1463e-05
6.21257e-05
6.26873e-05
6.31264e-05
6.32507e-05
6.31276e-05
6.29604e-05
6.25936e-05
6.23256e-05
6.214e-05
6.29264e-05
6.6844e-05
6.09082e-05
5.71924e-05
5.65125e-05
5.66774e-05
5.6967e-05
5.70238e-05
5.69558e-05
5.67417e-05
5.63469e-05
5.57551e-05
5.50091e-05
5.41681e-05
5.32711e-05
5.25388e-05
5.21129e-05
5.21791e-05
5.2656e-05
5.34113e-05
5.42236e-05
5.51104e-05
5.58918e-05
5.65083e-05
5.68817e-05
5.70509e-05
5.70726e-05
5.69137e-05
5.67229e-05
5.66512e-05
5.74578e-05
6.10642e-05
5.55084e-05
5.23458e-05
5.17254e-05
5.17247e-05
5.17416e-05
5.16887e-05
5.15162e-05
5.1148e-05
5.05898e-05
4.9829e-05
4.89483e-05
4.80157e-05
4.70805e-05
4.6328e-05
4.58736e-05
4.59002e-05
4.63576e-05
4.71373e-05
4.80466e-05
4.90251e-05
4.99361e-05
5.06905e-05
5.12041e-05
5.15478e-05
5.16978e-05
5.1703e-05
5.16678e-05
5.17468e-05
5.25505e-05
5.57824e-05
5.07857e-05
4.79751e-05
4.72915e-05
4.7182e-05
4.71459e-05
4.70429e-05
4.67279e-05
4.62241e-05
4.55689e-05
4.47428e-05
4.38236e-05
4.28805e-05
4.19548e-05
4.11897e-05
4.07084e-05
4.06956e-05
4.11467e-05
4.19113e-05
4.28422e-05
4.38282e-05
4.47744e-05
4.56064e-05
4.62251e-05
4.66674e-05
4.69483e-05
4.71053e-05
4.72091e-05
4.73744e-05
4.81099e-05
5.09484e-05
4.64167e-05
4.39326e-05
4.33535e-05
4.32293e-05
4.31117e-05
4.28402e-05
4.24316e-05
4.18966e-05
4.12179e-05
4.03912e-05
3.94861e-05
3.85541e-05
3.76411e-05
3.68798e-05
3.64025e-05
3.63716e-05
3.67987e-05
3.75356e-05
3.84516e-05
3.94267e-05
4.03761e-05
4.12249e-05
4.19009e-05
4.24126e-05
4.27912e-05
4.3062e-05
4.32564e-05
4.34527e-05
4.41018e-05
4.65712e-05
4.25393e-05
4.05259e-05
4.00129e-05
3.97893e-05
3.95095e-05
3.91446e-05
3.87345e-05
3.81928e-05
3.75166e-05
3.67269e-05
3.58614e-05
3.49464e-05
3.40479e-05
3.33041e-05
3.28499e-05
3.28175e-05
3.32151e-05
3.3918e-05
3.48084e-05
3.57671e-05
3.67024e-05
3.75355e-05
3.8217e-05
3.87593e-05
3.91908e-05
3.95232e-05
3.97661e-05
3.99852e-05
4.05719e-05
4.26945e-05
3.92717e-05
3.76355e-05
3.70562e-05
3.67394e-05
3.64074e-05
3.60904e-05
3.56819e-05
3.51284e-05
3.44773e-05
3.37308e-05
3.28966e-05
3.20024e-05
3.1147e-05
3.04592e-05
3.00453e-05
3.00178e-05
3.03917e-05
3.10674e-05
3.19248e-05
3.28328e-05
3.37003e-05
3.44735e-05
3.51272e-05
3.56714e-05
3.61185e-05
3.64728e-05
3.6742e-05
3.69778e-05
3.74979e-05
3.92757e-05
3.6397e-05
3.49162e-05
3.43733e-05
3.40948e-05
3.3844e-05
3.35605e-05
3.31291e-05
3.25978e-05
3.19881e-05
3.12691e-05
3.04601e-05
2.96201e-05
2.88481e-05
2.82307e-05
2.78463e-05
2.78177e-05
2.81744e-05
2.88194e-05
2.96163e-05
3.04324e-05
3.12019e-05
3.1908e-05
3.25364e-05
3.30797e-05
3.35258e-05
3.38758e-05
3.41411e-05
3.43634e-05
3.47991e-05
3.62605e-05
3.37809e-05
3.24742e-05
3.20987e-05
3.19008e-05
3.1691e-05
3.13744e-05
3.09561e-05
3.04793e-05
2.99103e-05
2.92309e-05
2.84788e-05
2.77187e-05
2.702e-05
2.64426e-05
2.60752e-05
2.60571e-05
2.64096e-05
2.70146e-05
2.77305e-05
2.84505e-05
2.91425e-05
2.98015e-05
3.04039e-05
3.09202e-05
3.13328e-05
3.16485e-05
3.1886e-05
3.20821e-05
3.24438e-05
3.36429e-05
3.14411e-05
3.04666e-05
3.01997e-05
3.00225e-05
2.97949e-05
2.94824e-05
2.91273e-05
2.87052e-05
2.81786e-05
2.75587e-05
2.68849e-05
2.62067e-05
2.55679e-05
2.50262e-05
2.46903e-05
2.46957e-05
2.50367e-05
2.55844e-05
2.62162e-05
2.68582e-05
2.74892e-05
2.80932e-05
2.86391e-05
2.90963e-05
2.94576e-05
2.97365e-05
2.99512e-05
3.01296e-05
3.04329e-05
3.1408e-05
2.95411e-05
2.88326e-05
2.85629e-05
2.83821e-05
2.81712e-05
2.79176e-05
2.76192e-05
2.72302e-05
2.67445e-05
2.61855e-05
2.55922e-05
2.49968e-05
2.44242e-05
2.39356e-05
2.36445e-05
2.36646e-05
2.39756e-05
2.44578e-05
2.50117e-05
2.55831e-05
2.61483e-05
2.66824e-05
2.71565e-05
2.75521e-05
2.78698e-05
2.81213e-05
2.83181e-05
2.84787e-05
2.87279e-05
2.95039e-05
2.79905e-05
2.73666e-05
2.71153e-05
2.6985e-05
2.68224e-05
2.66111e-05
2.63314e-05
2.59656e-05
2.55288e-05
2.50471e-05
2.45526e-05
2.40523e-05
2.35555e-05
2.31267e-05
2.28761e-05
2.28953e-05
2.31627e-05
2.35737e-05
2.40497e-05
2.45493e-05
2.50442e-05
2.55066e-05
2.59138e-05
2.62571e-05
2.65396e-05
2.67667e-05
2.69432e-05
2.70819e-05
2.72798e-05
2.78804e-05
2.6569e-05
2.60343e-05
2.58976e-05
2.58139e-05
2.56665e-05
2.54639e-05
2.51956e-05
2.4869e-05
2.45005e-05
2.41142e-05
2.37205e-05
2.3303e-05
2.2874e-05
2.25025e-05
2.22823e-05
2.22866e-05
2.25031e-05
2.28461e-05
2.32552e-05
2.36936e-05
2.41272e-05
2.4528e-05
2.4881e-05
2.51834e-05
2.54354e-05
2.56361e-05
2.57863e-05
2.58995e-05
2.60527e-05
2.65059e-05
2.53217e-05
2.49946e-05
2.49342e-05
2.4833e-05
2.46856e-05
2.44969e-05
2.4262e-05
2.39913e-05
2.36951e-05
2.33862e-05
2.30532e-05
2.26839e-05
2.2309e-05
2.19929e-05
2.18027e-05
2.1794e-05
2.19644e-05
2.22564e-05
2.2619e-05
2.30085e-05
2.33892e-05
2.37378e-05
2.40449e-05
2.43087e-05
2.45258e-05
2.46927e-05
2.48118e-05
2.48999e-05
2.5017e-05
2.53571e-05
2.43989e-05
2.42404e-05
2.4139e-05
2.40199e-05
2.38954e-05
2.37364e-05
2.35444e-05
2.33266e-05
2.30916e-05
2.28339e-05
2.25354e-05
2.22065e-05
2.18911e-05
2.16345e-05
2.14732e-05
2.14543e-05
2.15898e-05
2.18398e-05
2.21548e-05
2.24904e-05
2.28127e-05
2.31042e-05
2.33612e-05
2.35823e-05
2.37615e-05
2.38966e-05
2.39934e-05
2.4067e-05
2.41585e-05
2.44051e-05
2.36948e-05
2.35461e-05
2.34227e-05
2.33467e-05
2.32596e-05
2.31344e-05
2.29788e-05
2.28033e-05
2.26137e-05
2.23925e-05
2.21311e-05
2.18581e-05
2.1612e-05
2.14111e-05
2.1274e-05
2.12495e-05
2.13551e-05
2.15582e-05
2.18144e-05
2.20841e-05
2.23418e-05
2.2578e-05
2.27891e-05
2.29716e-05
2.31213e-05
2.32372e-05
2.33233e-05
2.33884e-05
2.34565e-05
2.36204e-05
2.30318e-05
2.28852e-05
2.28349e-05
2.28146e-05
2.27572e-05
2.26563e-05
2.25211e-05
2.23717e-05
2.22094e-05
2.20161e-05
2.17984e-05
2.15872e-05
2.14004e-05
2.12387e-05
2.1121e-05
2.10967e-05
2.11814e-05
2.13437e-05
2.15453e-05
2.17562e-05
2.19614e-05
2.2156e-05
2.23342e-05
2.24889e-05
2.26162e-05
2.27158e-05
2.27898e-05
2.28419e-05
2.28826e-05
2.29743e-05
2.24375e-05
2.23814e-05
2.24121e-05
2.24081e-05
2.23534e-05
2.2256e-05
2.21342e-05
2.20092e-05
2.18712e-05
2.17077e-05
2.15358e-05
2.13757e-05
2.12261e-05
2.10859e-05
2.09826e-05
2.0966e-05
2.10455e-05
2.11833e-05
2.13462e-05
2.15155e-05
2.16831e-05
2.1845e-05
2.19941e-05
2.21226e-05