/*--------------------------------*- C++ -*----------------------------------*\
| =========                 |                                                 |
| \\      /  F ield         | OpenFOAM: The Open Source CFD Toolbox           |
|  \\    /   O peration     | Version:  2312                                  |
|   \\  /    A nd           | Website:  www.openfoam.com                      |
|    \\/     M anipulation  |                                                 |
\*---------------------------------------------------------------------------*/
FoamFile
{
    version     2.0;
    format      ascii;
    arch        "LSB;label=32;scalar=64";
    class       volScalarField;
    location    "1.553784609827";
    object      nut;
}
// * * * * * * * * * * * * * * * * * * * * * * * * * * * * * * * * * * * * * //

dimensions      [0 2 -1 0 0 0 0];

internalField   nonuniform List<scalar> 
90000
(
4.93726e-06
4.93796e-06
4.93818e-06
4.93824e-06
4.93838e-06
4.93845e-06
4.93851e-06
4.93855e-06
4.93852e-06
4.93842e-06
4.93823e-06
4.93799e-06
4.93776e-06
4.93768e-06
4.9378e-06
4.93789e-06
4.9379e-06
4.93791e-06
4.93796e-06
4.93797e-06
4.93786e-06
4.93785e-06
4.93829e-06
4.93899e-06
4.93956e-06
4.93976e-06
4.93942e-06
4.93916e-06
4.94079e-06
4.94362e-06
4.9385e-06
4.95431e-06
4.95589e-06
4.95594e-06
4.95593e-06
4.95595e-06
4.95601e-06
4.95606e-06
4.95609e-06
4.95609e-06
4.95612e-06
4.95617e-06
4.95623e-06
4.95624e-06
4.95619e-06
4.95609e-06
4.95601e-06
4.956e-06
4.95602e-06
4.95602e-06
4.95611e-06
4.95629e-06
4.95648e-06
4.95655e-06
4.95646e-06
4.95639e-06
4.95679e-06
4.95805e-06
4.95737e-06
4.94732e-06
4.93836e-06
4.95612e-06
4.95804e-06
4.95817e-06
4.95822e-06
4.95829e-06
4.95836e-06
4.95838e-06
4.95831e-06
4.95819e-06
4.95821e-06
4.95838e-06
4.95864e-06
4.9588e-06
4.95878e-06
4.95857e-06
4.95821e-06
4.95795e-06
4.9582e-06
4.95854e-06
4.95875e-06
4.95874e-06
4.95855e-06
4.9583e-06
4.95839e-06
4.95879e-06
4.95919e-06
4.96064e-06
4.96251e-06
4.94585e-06
4.93816e-06
4.95605e-06
4.95824e-06
4.95847e-06
4.95862e-06
4.95875e-06
4.95886e-06
4.95891e-06
4.95885e-06
4.95869e-06
4.95853e-06
4.95855e-06
4.95869e-06
4.95881e-06
4.95879e-06
4.9586e-06
4.95832e-06
4.95827e-06
4.95861e-06
4.95889e-06
4.95892e-06
4.95872e-06
4.95865e-06
4.95913e-06
4.95958e-06
4.95997e-06
4.96063e-06
4.96077e-06
4.96193e-06
4.94221e-06
4.9382e-06
4.95596e-06
4.95824e-06
4.95848e-06
4.95861e-06
4.95872e-06
4.95881e-06
4.95888e-06
4.95892e-06
4.95888e-06
4.95878e-06
4.95863e-06
4.95847e-06
4.95832e-06
4.95833e-06
4.95852e-06
4.95874e-06
4.95888e-06
4.95889e-06
4.95875e-06
4.95853e-06
4.95862e-06
4.95909e-06
4.95959e-06
4.9599e-06
4.9599e-06
4.95976e-06
4.96004e-06
4.95886e-06
4.94014e-06
4.93833e-06
4.95605e-06
4.95816e-06
4.95832e-06
4.95837e-06
4.95838e-06
4.95843e-06
4.95853e-06
4.95866e-06
4.95879e-06
4.95888e-06
4.95891e-06
4.95884e-06
4.95864e-06
4.95842e-06
4.95856e-06
4.95882e-06
4.95895e-06
4.95888e-06
4.95871e-06
4.95865e-06
4.95882e-06
4.95912e-06
4.95935e-06
4.95946e-06
4.95939e-06
4.95892e-06
4.95976e-06
4.95771e-06
4.93976e-06
4.93842e-06
4.95617e-06
4.95817e-06
4.95834e-06
4.95841e-06
4.95844e-06
4.95842e-06
4.9584e-06
4.95845e-06
4.95862e-06
4.95889e-06
4.95915e-06
4.95929e-06
4.95924e-06
4.95895e-06
4.95854e-06
4.95839e-06
4.95853e-06
4.95872e-06
4.95885e-06
4.95892e-06
4.95895e-06
4.95889e-06
4.95871e-06
4.95855e-06
4.95881e-06
4.95926e-06
4.96041e-06
4.95832e-06
4.93947e-06
4.93833e-06
4.95645e-06
4.95851e-06
4.95883e-06
4.95904e-06
4.95918e-06
4.95919e-06
4.95901e-06
4.95866e-06
4.95841e-06
4.95866e-06
4.95906e-06
4.95937e-06
4.95945e-06
4.95922e-06
4.95871e-06
4.9581e-06
4.95806e-06
4.95852e-06
4.95886e-06
4.959e-06
4.95895e-06
4.95872e-06
4.95845e-06
4.9584e-06
4.959e-06
4.95978e-06
4.96033e-06
4.95792e-06
4.93891e-06
4.93843e-06
4.95683e-06
4.95899e-06
4.95934e-06
4.95961e-06
4.95976e-06
4.95976e-06
4.95959e-06
4.95922e-06
4.95873e-06
4.95842e-06
4.95869e-06
4.95898e-06
4.95917e-06
4.9592e-06
4.95905e-06
4.95879e-06
4.95857e-06
4.95861e-06
4.9588e-06
4.95891e-06
4.95885e-06
4.95861e-06
4.9584e-06
4.95854e-06
4.95923e-06
4.95975e-06
4.95966e-06
4.9571e-06
4.9384e-06
4.93923e-06
4.95705e-06
4.95915e-06
4.95944e-06
4.95963e-06
4.95971e-06
4.95972e-06
4.95966e-06
4.95953e-06
4.95931e-06
4.95896e-06
4.95853e-06
4.95844e-06
4.95866e-06
4.95903e-06
4.95936e-06
4.95953e-06
4.95951e-06
4.95939e-06
4.95926e-06
4.95912e-06
4.9589e-06
4.95858e-06
4.95831e-06
4.95866e-06
4.9591e-06
4.95919e-06
4.95881e-06
4.95649e-06
4.93818e-06
4.93981e-06
4.95717e-06
4.95908e-06
4.95922e-06
4.95918e-06
4.95905e-06
4.95896e-06
4.95906e-06
4.95924e-06
4.95936e-06
4.95925e-06
4.95891e-06
4.95845e-06
4.95842e-06
4.95883e-06
4.95941e-06
4.95991e-06
4.96023e-06
4.96031e-06
4.96016e-06
4.95982e-06
4.95936e-06
4.95887e-06
4.9586e-06
4.95881e-06
4.95895e-06
4.95893e-06
4.95872e-06
4.95655e-06
4.93844e-06
4.93968e-06
4.95774e-06
4.95942e-06
4.95933e-06
4.95906e-06
4.95874e-06
4.95856e-06
4.95864e-06
4.95886e-06
4.95904e-06
4.9591e-06
4.95902e-06
4.95874e-06
4.95837e-06
4.95851e-06
4.95924e-06
4.96001e-06
4.96056e-06
4.96078e-06
4.96066e-06
4.96026e-06
4.95969e-06
4.95904e-06
4.95862e-06
4.9587e-06
4.9589e-06
4.95906e-06
4.95894e-06
4.95703e-06
4.93879e-06
4.93933e-06
4.95824e-06
4.95991e-06
4.95996e-06
4.96013e-06
4.96031e-06
4.96044e-06
4.96036e-06
4.95997e-06
4.9594e-06
4.95913e-06
4.95929e-06
4.95938e-06
4.95931e-06
4.95923e-06
4.95944e-06
4.95983e-06
4.96015e-06
4.96028e-06
4.96022e-06
4.95996e-06
4.95954e-06
4.95899e-06
4.95856e-06
4.9587e-06
4.95898e-06
4.95912e-06
4.95913e-06
4.95728e-06
4.93898e-06
4.94066e-06
4.95799e-06
4.96016e-06
4.96076e-06
4.96156e-06
4.96214e-06
4.96227e-06
4.96185e-06
4.96099e-06
4.96e-06
4.95934e-06
4.95953e-06
4.96001e-06
4.96038e-06
4.96051e-06
4.96036e-06
4.95992e-06
4.95935e-06
4.95907e-06
4.95912e-06
4.95926e-06
4.95926e-06
4.95908e-06
4.95888e-06
4.95892e-06
4.95902e-06
4.95921e-06
4.95938e-06
4.95739e-06
4.93923e-06
4.94185e-06
4.95718e-06
4.96091e-06
4.96204e-06
4.96278e-06
4.96297e-06
4.96259e-06
4.96175e-06
4.96071e-06
4.95972e-06
4.9591e-06
4.9594e-06
4.96014e-06
4.96078e-06
4.96103e-06
4.96083e-06
4.96023e-06
4.95938e-06
4.95859e-06
4.95831e-06
4.95872e-06
4.9591e-06
4.95926e-06
4.95921e-06
4.95911e-06
4.95935e-06
4.9599e-06
4.96016e-06
4.95837e-06
4.94008e-06
4.94178e-06
4.95956e-06
4.96226e-06
4.96275e-06
4.9627e-06
4.96212e-06
4.96119e-06
4.96029e-06
4.9596e-06
4.95909e-06
4.9588e-06
4.95917e-06
4.95995e-06
4.96059e-06
4.96086e-06
4.96074e-06
4.96037e-06
4.9598e-06
4.95915e-06
4.95864e-06
4.95865e-06
4.95898e-06
4.95922e-06
4.95929e-06
4.95944e-06
4.9599e-06
4.96043e-06
4.96079e-06
4.95925e-06
4.94059e-06
4.9406e-06
4.96158e-06
4.96302e-06
4.9626e-06
4.96168e-06
4.96049e-06
4.9594e-06
4.95908e-06
4.95917e-06
4.95909e-06
4.95907e-06
4.95938e-06
4.95986e-06
4.96026e-06
4.96047e-06
4.96055e-06
4.96042e-06
4.96006e-06
4.95958e-06
4.95911e-06
4.95883e-06
4.95884e-06
4.95902e-06
4.95919e-06
4.95952e-06
4.96001e-06
4.96045e-06
4.96072e-06
4.95883e-06
4.94018e-06
4.94043e-06
4.9623e-06
4.96319e-06
4.96235e-06
4.96123e-06
4.96014e-06
4.95946e-06
4.95918e-06
4.95923e-06
4.95932e-06
4.95947e-06
4.95954e-06
4.95959e-06
4.9597e-06
4.95992e-06
4.96009e-06
4.96015e-06
4.96005e-06
4.95979e-06
4.95942e-06
4.95907e-06
4.95903e-06
4.95914e-06
4.95926e-06
4.95963e-06
4.95999e-06
4.96016e-06
4.96008e-06
4.95793e-06
4.93964e-06
4.94162e-06
4.96232e-06
4.96333e-06
4.96254e-06
4.96162e-06
4.96087e-06
4.96035e-06
4.95995e-06
4.95961e-06
4.95941e-06
4.95924e-06
4.95907e-06
4.95902e-06
4.95905e-06
4.95918e-06
4.95941e-06
4.95966e-06
4.95978e-06
4.95968e-06
4.95943e-06
4.95919e-06
4.95915e-06
4.95923e-06
4.95981e-06
4.96032e-06
4.96036e-06
4.96017e-06
4.95994e-06
4.9579e-06
4.93993e-06
4.94272e-06
4.96219e-06
4.96341e-06
4.96273e-06
4.96194e-06
4.96135e-06
4.96094e-06
4.96055e-06
4.96014e-06
4.95975e-06
4.9594e-06
4.95908e-06
4.95878e-06
4.9585e-06
4.95863e-06
4.95905e-06
4.95942e-06
4.95954e-06
4.95946e-06
4.95934e-06
4.9593e-06
4.95969e-06
4.96054e-06
4.96118e-06
4.96123e-06
4.96096e-06
4.96088e-06
4.96103e-06
4.95967e-06
4.94107e-06
4.9436e-06
4.96183e-06
4.96318e-06
4.96262e-06
4.9621e-06
4.96176e-06
4.96147e-06
4.96113e-06
4.96074e-06
4.96031e-06
4.95985e-06
4.9593e-06
4.95877e-06
4.95883e-06
4.95934e-06
4.95974e-06
4.9598e-06
4.95965e-06
4.95959e-06
4.95981e-06
4.96041e-06
4.96126e-06
4.96177e-06
4.96161e-06
4.96102e-06
4.96076e-06
4.961e-06
4.96149e-06
4.96008e-06
4.9414e-06
4.94412e-06
4.96135e-06
4.96303e-06
4.96272e-06
4.9624e-06
4.96212e-06
4.9618e-06
4.96142e-06
4.961e-06
4.96051e-06
4.95987e-06
4.95927e-06
4.95951e-06
4.96012e-06
4.96032e-06
4.96006e-06
4.95966e-06
4.95958e-06
4.95999e-06
4.96082e-06
4.9618e-06
4.96231e-06
4.96197e-06
4.96125e-06
4.96097e-06
4.96111e-06
4.96151e-06
4.96183e-06
4.96001e-06
4.94181e-06
4.94423e-06
4.9611e-06
4.96311e-06
4.96301e-06
4.96271e-06
4.96232e-06
4.96189e-06
4.96146e-06
4.96104e-06
4.96052e-06
4.96001e-06
4.9601e-06
4.96044e-06
4.96034e-06
4.95981e-06
4.95929e-06
4.95922e-06
4.95972e-06
4.96069e-06
4.96182e-06
4.96248e-06
4.96227e-06
4.96161e-06
4.96139e-06
4.96154e-06
4.96197e-06
4.96241e-06
4.96244e-06
4.96047e-06
4.94259e-06
4.94419e-06
4.96144e-06
4.96353e-06
4.96346e-06
4.96309e-06
4.96262e-06
4.96223e-06
4.96191e-06
4.96152e-06
4.96103e-06
4.96069e-06
4.96069e-06
4.96047e-06
4.95976e-06
4.95901e-06
4.95908e-06
4.95942e-06
4.96022e-06
4.96152e-06
4.96234e-06
4.96232e-06
4.96186e-06
4.96193e-06
4.96221e-06
4.9626e-06
4.96319e-06
4.96346e-06
4.96345e-06
4.96138e-06
4.94364e-06
4.9448e-06
4.96239e-06
4.96436e-06
4.96424e-06
4.96385e-06
4.96347e-06
4.96319e-06
4.96291e-06
4.96249e-06
4.96196e-06
4.9615e-06
4.96108e-06
4.96032e-06
4.95943e-06
4.95937e-06
4.95946e-06
4.95979e-06
4.96103e-06
4.9619e-06
4.96201e-06
4.96193e-06
4.96253e-06
4.96299e-06
4.96326e-06
4.9639e-06
4.96432e-06
4.96456e-06
4.9646e-06
4.96253e-06
4.94512e-06
4.94633e-06
4.96386e-06
4.96571e-06
4.96551e-06
4.96514e-06
4.96481e-06
4.96453e-06
4.96419e-06
4.9637e-06
4.96317e-06
4.96252e-06
4.96161e-06
4.96062e-06
4.96014e-06
4.95987e-06
4.95961e-06
4.96021e-06
4.96108e-06
4.96158e-06
4.96219e-06
4.9631e-06
4.96366e-06
4.9639e-06
4.96448e-06
4.96506e-06
4.96541e-06
4.96575e-06
4.96601e-06
4.96475e-06
4.94642e-06
4.94867e-06
4.96577e-06
4.96755e-06
4.96732e-06
4.96693e-06
4.96651e-06
4.96606e-06
4.96556e-06
4.96498e-06
4.96423e-06
4.96326e-06
4.96222e-06
4.96156e-06
4.96115e-06
4.96046e-06
4.95998e-06
4.96034e-06
4.96124e-06
4.96248e-06
4.96362e-06
4.96423e-06
4.96455e-06
4.96516e-06
4.96589e-06
4.96645e-06
4.96707e-06
4.96753e-06
4.96804e-06
4.96663e-06
4.94832e-06
4.95131e-06
4.96814e-06
4.9699e-06
4.96959e-06
4.96905e-06
4.96839e-06
4.96767e-06
4.96696e-06
4.9662e-06
4.96527e-06
4.96426e-06
4.9636e-06
4.96312e-06
4.96234e-06
4.96133e-06
4.96089e-06
4.96152e-06
4.96279e-06
4.96405e-06
4.96483e-06
4.96532e-06
4.96605e-06
4.96686e-06
4.96761e-06
4.96838e-06
4.96933e-06
4.97001e-06
4.97009e-06
4.96845e-06
4.95086e-06
4.95414e-06
4.97086e-06
4.97247e-06
4.97207e-06
4.97146e-06
4.97068e-06
4.96978e-06
4.9689e-06
4.96793e-06
4.96686e-06
4.96602e-06
4.96541e-06
4.96455e-06
4.96338e-06
4.9623e-06
4.96209e-06
4.96301e-06
4.96426e-06
4.96537e-06
4.96622e-06
4.96696e-06
4.96798e-06
4.96897e-06
4.97001e-06
4.97091e-06
4.97207e-06
4.97284e-06
4.97264e-06
4.97092e-06
4.95432e-06
4.95736e-06
4.97395e-06
4.97558e-06
4.97513e-06
4.97444e-06
4.9736e-06
4.97267e-06
4.97159e-06
4.97028e-06
4.96904e-06
4.96807e-06
4.96706e-06
4.96573e-06
4.96427e-06
4.96318e-06
4.96321e-06
4.96424e-06
4.96543e-06
4.96665e-06
4.96789e-06
4.96907e-06
4.97038e-06
4.97171e-06
4.97301e-06
4.97391e-06
4.9751e-06
4.97605e-06
4.97585e-06
4.97483e-06
4.95791e-06
4.96132e-06
4.97789e-06
4.97951e-06
4.979e-06
4.97817e-06
4.97719e-06
4.97609e-06
4.97477e-06
4.97318e-06
4.97166e-06
4.9703e-06
4.96878e-06
4.96707e-06
4.96543e-06
4.96435e-06
4.96446e-06
4.96553e-06
4.96685e-06
4.96829e-06
4.97e-06
4.97173e-06
4.97335e-06
4.9752e-06
4.97648e-06
4.9774e-06
4.9785e-06
4.97969e-06
4.98027e-06
4.97903e-06
4.96187e-06
4.96627e-06
4.98284e-06
4.9843e-06
4.98358e-06
4.98255e-06
4.9814e-06
4.9801e-06
4.97856e-06
4.97675e-06
4.97489e-06
4.97307e-06
4.97114e-06
4.96912e-06
4.9673e-06
4.96607e-06
4.96608e-06
4.96727e-06
4.96902e-06
4.97089e-06
4.9728e-06
4.97497e-06
4.97701e-06
4.9788e-06
4.98024e-06
4.98145e-06
4.98265e-06
4.98413e-06
4.98521e-06
4.9835e-06
4.96679e-06
4.97231e-06
4.98858e-06
4.98986e-06
4.98905e-06
4.98786e-06
4.98649e-06
4.98497e-06
4.98323e-06
4.98118e-06
4.97893e-06
4.97652e-06
4.97411e-06
4.9718e-06
4.9698e-06
4.96836e-06
4.96829e-06
4.96964e-06
4.97197e-06
4.97422e-06
4.97634e-06
4.97905e-06
4.98096e-06
4.98282e-06
4.98484e-06
4.98654e-06
4.98776e-06
4.98953e-06
4.99053e-06
4.98885e-06
4.97274e-06
4.97958e-06
4.99545e-06
4.9967e-06
4.9958e-06
4.99443e-06
4.99281e-06
4.99098e-06
4.98886e-06
4.98631e-06
4.98357e-06
4.98073e-06
4.97799e-06
4.97536e-06
4.97299e-06
4.97133e-06
4.97132e-06
4.97275e-06
4.97544e-06
4.97818e-06
4.98072e-06
4.98347e-06
4.98597e-06
4.98824e-06
4.99072e-06
4.99261e-06
4.99432e-06
4.99601e-06
4.99688e-06
4.99554e-06
4.97985e-06
4.98838e-06
5.00393e-06
5.0051e-06
5.00401e-06
5.00233e-06
5.00031e-06
4.99803e-06
4.9954e-06
4.99248e-06
4.98937e-06
4.9862e-06
4.98305e-06
4.97988e-06
4.977e-06
4.97506e-06
4.9753e-06
4.97688e-06
4.97967e-06
4.98296e-06
4.98594e-06
4.9892e-06
4.99265e-06
4.99511e-06
4.99777e-06
5.00023e-06
5.00235e-06
5.00385e-06
5.00488e-06
5.00371e-06
4.98846e-06
4.99907e-06
5.01417e-06
5.01507e-06
5.01368e-06
5.01172e-06
5.0094e-06
5.00673e-06
5.00367e-06
5.00034e-06
4.99682e-06
4.99318e-06
4.98946e-06
4.98569e-06
4.98234e-06
4.98004e-06
4.98056e-06
4.98256e-06
4.98555e-06
4.98943e-06
4.9932e-06
4.99696e-06
5.00084e-06
5.00367e-06
5.00663e-06
5.00978e-06
5.01185e-06
5.0134e-06
5.01454e-06
5.01361e-06
4.99896e-06
5.01201e-06
5.02621e-06
5.02692e-06
5.02545e-06
5.02336e-06
5.0207e-06
5.01758e-06
5.0141e-06
5.01033e-06
5.00631e-06
5.00203e-06
4.99763e-06
4.99329e-06
4.98976e-06
4.98712e-06
4.98755e-06
4.98996e-06
4.99334e-06
4.99794e-06
5.00263e-06
5.00654e-06
5.01084e-06
5.01425e-06
5.01777e-06
5.02108e-06
5.02338e-06
5.02511e-06
5.02652e-06
5.02592e-06
5.0118e-06
5.02751e-06
5.0408e-06
5.0416e-06
5.04001e-06
5.03753e-06
5.0344e-06
5.03084e-06
5.02693e-06
5.02268e-06
5.01803e-06
5.01304e-06
5.00806e-06
5.00312e-06
4.99943e-06
4.99656e-06
4.99649e-06
4.99925e-06
5.00336e-06
5.00868e-06
5.01399e-06
5.01826e-06
5.023e-06
5.02726e-06
5.03115e-06
5.03472e-06
5.03739e-06
5.03961e-06
5.04142e-06
5.04086e-06
5.02743e-06
5.04621e-06
5.05893e-06
5.05948e-06
5.05738e-06
5.05441e-06
5.05088e-06
5.04693e-06
5.04252e-06
5.03764e-06
5.03232e-06
5.02673e-06
5.02132e-06
5.01572e-06
5.01136e-06
5.00832e-06
5.00783e-06
5.01112e-06
5.01617e-06
5.02199e-06
5.0276e-06
5.03246e-06
5.03778e-06
5.04286e-06
5.0472e-06
5.05112e-06
5.05424e-06
5.05708e-06
5.05923e-06
5.05869e-06
5.04623e-06
5.06897e-06
5.08065e-06
5.08066e-06
5.07813e-06
5.07487e-06
5.07113e-06
5.06671e-06
5.06161e-06
5.05602e-06
5.05012e-06
5.044e-06
5.03798e-06
5.03176e-06
5.02621e-06
5.02312e-06
5.0227e-06
5.0263e-06
5.032e-06
5.03826e-06
5.04424e-06
5.05012e-06
5.0562e-06
5.06183e-06
5.06662e-06
5.07115e-06
5.07486e-06
5.07812e-06
5.08041e-06
5.08034e-06
5.06864e-06
5.09618e-06
5.10645e-06
5.10617e-06
5.10361e-06
5.1002e-06
5.09599e-06
5.09079e-06
5.08502e-06
5.07897e-06
5.0725e-06
5.06563e-06
5.05875e-06
5.05242e-06
5.04574e-06
5.04215e-06
5.04204e-06
5.04585e-06
5.05193e-06
5.05896e-06
5.06562e-06
5.07249e-06
5.07913e-06
5.08517e-06
5.09054e-06
5.09585e-06
5.10026e-06
5.10367e-06
5.10608e-06
5.10668e-06
5.09596e-06
5.1286e-06
5.13792e-06
5.13764e-06
5.13485e-06
5.13075e-06
5.12578e-06
5.12008e-06
5.11393e-06
5.10723e-06
5.10002e-06
5.09262e-06
5.08498e-06
5.07841e-06
5.07113e-06
5.06631e-06
5.06685e-06
5.07146e-06
5.07775e-06
5.08539e-06
5.09272e-06
5.10024e-06
5.10731e-06
5.114e-06
5.12026e-06
5.12578e-06
5.13067e-06
5.13462e-06
5.13762e-06
5.13846e-06
5.12909e-06
5.16794e-06
5.17681e-06
5.17591e-06
5.17234e-06
5.1676e-06
5.16229e-06
5.15622e-06
5.14944e-06
5.1421e-06
5.1344e-06
5.12676e-06
5.11845e-06
5.11099e-06
5.10365e-06
5.09825e-06
5.09901e-06
5.10417e-06
5.11075e-06
5.11866e-06
5.12674e-06
5.13475e-06
5.14218e-06
5.14938e-06
5.15661e-06
5.16244e-06
5.16755e-06
5.17243e-06
5.17609e-06
5.17694e-06
5.16852e-06
5.21607e-06
5.22495e-06
5.2228e-06
5.21902e-06
5.21398e-06
5.20784e-06
5.20106e-06
5.19374e-06
5.18622e-06
5.1781e-06
5.17022e-06
5.1625e-06
5.15536e-06
5.1485e-06
5.14375e-06
5.14465e-06
5.1489e-06
5.15533e-06
5.16265e-06
5.17015e-06
5.17801e-06
5.18621e-06
5.19378e-06
5.2011e-06
5.20785e-06
5.214e-06
5.21915e-06
5.22304e-06
5.22507e-06
5.2166e-06
5.27641e-06
5.28934e-06
5.28519e-06
5.28159e-06
5.27521e-06
5.26764e-06
5.2606e-06
5.25259e-06
5.24563e-06
5.23943e-06
5.23529e-06
5.23563e-06
5.24016e-06
5.24696e-06
5.24935e-06
5.25683e-06
5.24658e-06
5.24073e-06
5.23643e-06
5.23569e-06
5.23929e-06
5.24559e-06
5.25309e-06
5.26046e-06
5.26751e-06
5.27509e-06
5.28134e-06
5.28473e-06
5.28961e-06
5.27705e-06
5.36876e-06
5.40466e-06
5.3921e-06
5.39701e-06
5.38118e-06
5.36901e-06
5.36796e-06
5.36073e-06
5.3594e-06
5.37608e-06
5.41715e-06
5.50039e-06
5.61029e-06
5.77826e-06
5.83044e-06
5.90182e-06
5.74823e-06
5.63382e-06
5.50455e-06
5.41767e-06
5.37824e-06
5.36025e-06
5.36028e-06
5.36806e-06
5.36863e-06
5.38016e-06
5.39784e-06
5.39181e-06
5.40558e-06
5.36784e-06
5.60687e-06
5.74011e-06
5.69778e-06
5.79042e-06
5.70119e-06
5.67926e-06
5.75322e-06
5.75469e-06
5.81466e-06
6.02636e-06
6.41893e-06
7.05964e-06
7.86804e-06
8.80716e-06
9.16303e-06
9.32521e-06
8.71265e-06
7.9556e-06
7.12814e-06
6.4185e-06
6.04924e-06
5.8227e-06
5.75156e-06
5.752e-06
5.67945e-06
5.69829e-06
5.79528e-06
5.69843e-06
5.7472e-06
5.59788e-06
6.65808e-06
6.87424e-06
6.81284e-06
7.31215e-06
7.01749e-06
7.15613e-06
7.67024e-06
7.79398e-06
8.35595e-06
9.53448e-06
1.13801e-05
1.34614e-05
1.5777e-05
1.72547e-05
1.84457e-05
1.80587e-05
1.75838e-05
1.55458e-05
1.37864e-05
1.12822e-05
9.65792e-06
8.40129e-06
7.78767e-06
7.64944e-06
7.17304e-06
7.00759e-06
7.34838e-06
6.82279e-06
6.89354e-06
6.62655e-06
1.02804e-05
9.65915e-06
1.02521e-05
1.12065e-05
1.13482e-05
1.27134e-05
1.38302e-05
1.44957e-05
1.65849e-05
1.9616e-05
2.15154e-05
2.45738e-05
2.65414e-05
2.75775e-05
2.86079e-05
2.81619e-05
2.79538e-05
2.62141e-05
2.42563e-05
2.15526e-05
1.98653e-05
1.66838e-05
1.45101e-05
1.37387e-05
1.27268e-05
1.14371e-05
1.13619e-05
1.04244e-05
9.69442e-06
1.0272e-05
1.51031e-05
1.44117e-05
1.63823e-05
1.76356e-05
1.91396e-05
2.24307e-05
2.28472e-05
2.42072e-05
2.6919e-05
2.95103e-05
3.00368e-05
3.33796e-05
3.31783e-05
3.53851e-05
3.43618e-05
3.53881e-05
3.39359e-05
3.38755e-05
3.17412e-05
3.03275e-05
3.00882e-05
2.67915e-05
2.42351e-05
2.28749e-05
2.24201e-05
1.99047e-05
1.80437e-05
1.68312e-05
1.44833e-05
1.51207e-05
2.1394e-05
2.41355e-05
2.26712e-05
2.52146e-05
2.79561e-05
3.2876e-05
3.36975e-05
3.3375e-05
3.68e-05
3.99763e-05
4.02834e-05
4.34717e-05
4.24132e-05
4.4248e-05
4.04795e-05
4.43721e-05
4.1119e-05
4.15629e-05
4.0186e-05
3.90767e-05
3.96865e-05
3.64287e-05
3.31802e-05
3.22162e-05
3.32081e-05
2.93956e-05
2.61374e-05
2.33849e-05
2.46649e-05
2.15015e-05
2.47216e-05
2.71417e-05
3.07113e-05
3.73853e-05
4.02776e-05
4.63277e-05
4.72336e-05
4.23508e-05
3.97924e-05
4.16152e-05
4.28832e-05
4.61671e-05
4.75112e-05
4.46281e-05
4.41246e-05
4.45483e-05
4.51758e-05
4.67142e-05
4.57661e-05
4.1857e-05
4.12782e-05
3.96771e-05
3.91143e-05
4.28402e-05
4.59984e-05
4.55281e-05
3.96707e-05
3.20707e-05
2.75003e-05
2.47833e-05
2.65746e-05
2.84648e-05
3.55963e-05
4.03395e-05
3.8978e-05
4.66695e-05
4.74614e-05
4.38681e-05
3.95346e-05
4.15173e-05
4.0888e-05
4.38091e-05
4.46429e-05
4.32078e-05
4.29908e-05
4.48326e-05
4.40587e-05
4.47416e-05
4.42832e-05
4.28305e-05
4.27327e-05
3.98113e-05
4.05076e-05
3.98456e-05
4.57361e-05
4.20303e-05
4.132e-05
3.61133e-05
2.82277e-05
2.66658e-05
2.54682e-05
2.80003e-05
3.34987e-05
3.56957e-05
3.25324e-05
3.94148e-05
4.0477e-05
4.00176e-05
3.79349e-05
4.11458e-05
4.04008e-05
4.40508e-05
4.1631e-05
4.34083e-05
4.11419e-05
4.45047e-05
4.17475e-05
4.13589e-05
4.15577e-05
4.19883e-05
4.21352e-05
3.68779e-05
3.83019e-05
3.58412e-05
3.65405e-05
3.2972e-05
3.56469e-05
3.34742e-05
2.80866e-05
2.56467e-05
2.21683e-05
2.4873e-05
2.99058e-05
3.02749e-05
2.76664e-05
3.12268e-05
3.14683e-05
3.12224e-05
3.22374e-05
3.54988e-05
3.70532e-05
3.85297e-05
3.72655e-05
4.00067e-05
3.92975e-05
4.13265e-05
3.75596e-05
3.78905e-05
3.61006e-05
3.67839e-05
3.54153e-05
3.25636e-05
2.99275e-05
2.89198e-05
2.81052e-05
2.72945e-05
2.95055e-05
2.91354e-05
2.48062e-05
2.21692e-05
1.76079e-05
2.04515e-05
2.41351e-05
2.39978e-05
2.11947e-05
2.20035e-05
2.32595e-05
2.40911e-05
2.53091e-05
2.71496e-05
2.85228e-05
3.01938e-05
3.10813e-05
3.29429e-05
3.36734e-05
3.40599e-05
3.2007e-05
3.09466e-05
2.96378e-05
2.83567e-05
2.71512e-05
2.56306e-05
2.43743e-05
2.31994e-05
2.16328e-05
2.10029e-05
2.32019e-05
2.31319e-05
2.01854e-05
1.73289e-05
1.48045e-05
1.6715e-05
1.85653e-05
1.8739e-05
1.66844e-05
1.6327e-05
1.78673e-05
1.95542e-05
2.14157e-05
2.31385e-05
2.4095e-05
2.49358e-05
2.57595e-05
2.68355e-05
2.76106e-05
2.75326e-05
2.66527e-05
2.56763e-05
2.50126e-05
2.41796e-05
2.32258e-05
2.15722e-05
1.97558e-05
1.79974e-05
1.63755e-05
1.65694e-05
1.81928e-05
1.79645e-05
1.65333e-05
1.45738e-05
1.30583e-05
1.38075e-05
1.43222e-05
1.45945e-05
1.41382e-05
1.37956e-05
1.43235e-05
1.55946e-05
1.75212e-05
1.96662e-05
2.13756e-05
2.27041e-05
2.35101e-05
2.40464e-05
2.42663e-05
2.42031e-05
2.40565e-05
2.35603e-05
2.2729e-05
2.13358e-05
1.96605e-05
1.75521e-05
1.56884e-05
1.44184e-05
1.38795e-05
1.41567e-05
1.45179e-05
1.40672e-05
1.37036e-05
1.30975e-05
1.22288e-05
1.22059e-05
1.23112e-05
1.25286e-05
1.25089e-05
1.24504e-05
1.26362e-05
1.3123e-05
1.4176e-05
1.58975e-05
1.79316e-05
1.99095e-05
2.15068e-05
2.25365e-05
2.28632e-05
2.28238e-05
2.25478e-05
2.15511e-05
1.99228e-05
1.79055e-05
1.5894e-05
1.42049e-05
1.31669e-05
1.26857e-05
1.25068e-05
1.25533e-05
1.2549e-05
1.23311e-05
1.2244e-05
1.22663e-05
1.15631e-05
1.13666e-05
1.13552e-05
1.14566e-05
1.15287e-05
1.15986e-05
1.17301e-05
1.19573e-05
1.23731e-05
1.31858e-05
1.45558e-05
1.64075e-05
1.83417e-05
1.99268e-05
2.07233e-05
2.06791e-05
1.99364e-05
1.83891e-05
1.64298e-05
1.45621e-05
1.31971e-05
1.2396e-05
1.19786e-05
1.17566e-05
1.16251e-05
1.15554e-05
1.14858e-05
1.1395e-05
1.14103e-05
1.16231e-05
1.1033e-05
1.07708e-05
1.07396e-05
1.08017e-05
1.08794e-05
1.09764e-05
1.10892e-05
1.12314e-05
1.14204e-05
1.17235e-05
1.2285e-05
1.32644e-05
1.46346e-05
1.60688e-05
1.70575e-05
1.70291e-05
1.60745e-05
1.46631e-05
1.32837e-05
1.22979e-05
1.17324e-05
1.14236e-05
1.12447e-05
1.11034e-05
1.09932e-05
1.08955e-05
1.08244e-05
1.07793e-05
1.08205e-05
1.10784e-05
1.05645e-05
1.0268e-05
1.02351e-05
1.02776e-05
1.03513e-05
1.04432e-05
1.05405e-05
1.06425e-05
1.07434e-05
1.08591e-05
1.10263e-05
1.13345e-05
1.18625e-05
1.25621e-05
1.31747e-05
1.31687e-05
1.257e-05
1.18752e-05
1.13515e-05
1.10372e-05
1.08722e-05
1.07469e-05
1.06532e-05
1.05516e-05
1.04565e-05
1.0374e-05
1.02973e-05
1.02734e-05
1.03225e-05
1.06038e-05
1.01202e-05
9.8172e-06
9.76965e-06
9.79956e-06
9.86932e-06
9.94688e-06
1.00197e-05
1.00876e-05
1.01441e-05
1.01891e-05
1.02288e-05
1.02907e-05
1.03955e-05
1.0565e-05
1.07375e-05
1.07357e-05
1.05714e-05
1.04027e-05
1.03026e-05
1.02365e-05
1.0198e-05
1.01503e-05
1.0099e-05
1.00327e-05
9.95641e-06
9.89185e-06
9.82969e-06
9.8088e-06
9.86706e-06
1.01625e-05
9.69451e-06
9.3911e-06
9.33487e-06
9.35849e-06
9.41457e-06
9.4721e-06
9.51783e-06
9.55403e-06
9.57627e-06
9.58192e-06
9.57387e-06
9.56312e-06
9.54796e-06
9.54589e-06
9.5558e-06
9.55617e-06
9.55299e-06
9.55559e-06
9.57182e-06
9.58593e-06
9.59496e-06
9.59255e-06
9.57106e-06
9.53337e-06
9.48498e-06
9.43344e-06
9.39671e-06
9.3754e-06
9.4333e-06
9.73065e-06
9.28016e-06
8.98371e-06
8.92272e-06
8.94155e-06
8.98631e-06
9.02001e-06
9.0385e-06
9.04527e-06
9.0383e-06
9.01699e-06
8.98294e-06
8.94053e-06
8.88985e-06
8.84635e-06
8.8207e-06
8.82437e-06
8.85604e-06
8.90139e-06
8.94755e-06
8.99523e-06
9.0342e-06
9.06207e-06
9.06732e-06
9.05413e-06
9.03516e-06
9.00292e-06
8.9766e-06
8.95907e-06
9.01689e-06
9.30751e-06
8.87073e-06
8.58846e-06
8.53533e-06
8.54976e-06
8.57398e-06
8.58294e-06
8.58252e-06
8.56993e-06
8.54287e-06
8.50016e-06
8.44471e-06
8.38095e-06
8.31283e-06
8.25677e-06
8.22426e-06
8.22982e-06
8.26757e-06
8.32668e-06
8.3907e-06
8.45882e-06
8.51825e-06
8.56387e-06
8.59026e-06
8.60029e-06
8.59812e-06
8.58263e-06
8.56478e-06
8.55697e-06
8.61894e-06
8.89587e-06
8.46789e-06
8.21584e-06
8.16383e-06
8.16504e-06
8.1687e-06
8.16729e-06
8.15544e-06
8.12773e-06
8.08448e-06
8.02447e-06
7.95374e-06
7.87778e-06
7.80125e-06
7.73918e-06
7.70194e-06
7.70461e-06
7.74361e-06
7.80909e-06
7.88521e-06
7.96576e-06
8.03976e-06
8.10026e-06
8.14109e-06
8.16713e-06
8.17755e-06
8.17628e-06
8.17154e-06
8.176e-06
8.24031e-06
8.49805e-06
8.09387e-06
7.86051e-06
7.80268e-06
7.79443e-06
7.79247e-06
7.78414e-06
7.75857e-06
7.71742e-06
7.66263e-06
7.59244e-06
7.51329e-06
7.43089e-06
7.34962e-06
7.28221e-06
7.24015e-06
7.23974e-06
7.2806e-06
7.34915e-06
7.432e-06
7.5188e-06
7.60097e-06
7.67218e-06
7.72494e-06
7.76195e-06
7.78491e-06
7.79722e-06
7.80471e-06
7.81727e-06
7.87901e-06
8.11451e-06
7.73064e-06
7.51701e-06
7.46524e-06
7.45417e-06
7.44376e-06
7.42028e-06
7.38499e-06
7.33795e-06
7.27704e-06
7.20217e-06
7.11918e-06
7.03258e-06
6.94727e-06
6.87591e-06
6.83144e-06
6.82933e-06
6.87047e-06
6.94075e-06
7.02729e-06
7.11839e-06
7.206e-06
7.28319e-06
7.34418e-06
7.38987e-06
7.42315e-06
7.44646e-06
7.46276e-06
7.47934e-06
7.53664e-06
7.74974e-06
7.39296e-06
7.21178e-06
7.16317e-06
7.14286e-06
7.11774e-06
7.08514e-06
7.04722e-06
6.99639e-06
6.93209e-06
6.85644e-06
6.77234e-06
6.68251e-06
6.59393e-06
6.52035e-06
6.47551e-06
6.47307e-06
6.51369e-06
6.58469e-06
6.67349e-06
6.76781e-06
6.85858e-06
6.93847e-06
7.0033e-06
7.05431e-06
7.09429e-06
7.12459e-06
7.14645e-06
7.16624e-06
7.22025e-06
7.41053e-06
7.09322e-06
6.93926e-06
6.88418e-06
6.85486e-06
6.82423e-06
6.79384e-06
6.75384e-06
6.69947e-06
6.63467e-06
6.5595e-06
6.47442e-06
6.38263e-06
6.29427e-06
6.22267e-06
6.17963e-06
6.17747e-06
6.21759e-06
6.28904e-06
6.37845e-06
6.47195e-06
6.56025e-06
6.63812e-06
6.70336e-06
6.75703e-06
6.80046e-06
6.83437e-06
6.85982e-06
6.88206e-06
6.93181e-06
7.0974e-06
6.81801e-06
6.6748e-06
6.62199e-06
6.59497e-06
6.57025e-06
6.54119e-06
6.49759e-06
6.44329e-06
6.38007e-06
6.30467e-06
6.21903e-06
6.12932e-06
6.04586e-06
5.97854e-06
5.93685e-06
5.93447e-06
5.97431e-06
6.04516e-06
6.13164e-06
6.21941e-06
6.3014e-06
6.37573e-06
6.44099e-06
6.4966e-06
6.54165e-06
6.57657e-06
6.60276e-06
6.62469e-06
6.66811e-06
6.80945e-06
6.55845e-06
6.42917e-06
6.39035e-06
6.37001e-06
6.34793e-06
6.31496e-06
6.27134e-06
6.22062e-06
6.15943e-06
6.08575e-06
6.00344e-06
5.91923e-06
5.84077e-06
5.77557e-06
5.73438e-06
5.73296e-06
5.77348e-06
5.84214e-06
5.92278e-06
6.00334e-06
6.07991e-06
6.15169e-06
6.21625e-06
6.27089e-06
6.31415e-06
6.34701e-06
6.37156e-06
6.39182e-06
6.4293e-06
6.54925e-06
6.31898e-06
6.21863e-06
6.18946e-06
6.17053e-06
6.14616e-06
6.11293e-06
6.0743e-06
6.02772e-06
5.96932e-06
5.90005e-06
5.82401e-06
5.74642e-06
5.67256e-06
5.60966e-06
5.57084e-06
5.57186e-06
5.61204e-06
5.67612e-06
5.74957e-06
5.82366e-06
5.89555e-06
5.96327e-06
6.02364e-06
6.07373e-06
6.11308e-06
6.14326e-06
6.16633e-06
6.18545e-06
6.21793e-06
6.31845e-06
6.11668e-06
6.0405e-06
6.01112e-06
5.99149e-06
5.96839e-06
5.94024e-06
5.90642e-06
5.86235e-06
5.80717e-06
5.7432e-06
5.67443e-06
5.60445e-06
5.53655e-06
5.47838e-06
5.4438e-06
5.44643e-06
5.48393e-06
5.54181e-06
5.6079e-06
5.67551e-06
5.74154e-06
5.80307e-06
5.85711e-06
5.90186e-06
5.93758e-06
5.96566e-06
5.98746e-06
6.00519e-06
6.03264e-06
6.11491e-06
5.94509e-06
5.87725e-06
5.84967e-06
5.83481e-06
5.81623e-06
5.7918e-06
5.75945e-06
5.71728e-06
5.6666e-06
5.61014e-06
5.55122e-06
5.49083e-06
5.43058e-06
5.37846e-06
5.34803e-06
5.35057e-06
5.38351e-06
5.43398e-06
5.49213e-06
5.55257e-06
5.61171e-06
5.66631e-06
5.71397e-06
5.75388e-06
5.78648e-06
5.81247e-06
5.83252e-06
5.84827e-06
5.87063e-06
5.93599e-06
5.78486e-06
5.72628e-06
5.7102e-06
5.69997e-06
5.6827e-06
5.65891e-06
5.62752e-06
5.5891e-06
5.54534e-06
5.49872e-06
5.45044e-06
5.39897e-06
5.34606e-06
5.30018e-06
5.27301e-06
5.27382e-06
5.30116e-06
5.34426e-06
5.3952e-06
5.4491e-06
5.50186e-06
5.55016e-06
5.59234e-06
5.62821e-06
5.6579e-06
5.68138e-06
5.69891e-06
5.71211e-06
5.72986e-06
5.78034e-06
5.64161e-06
5.60461e-06
5.5966e-06
5.58456e-06
5.56713e-06
5.54472e-06
5.51671e-06
5.48414e-06
5.44808e-06
5.40989e-06
5.36838e-06
5.32235e-06
5.27553e-06
5.23577e-06
5.21184e-06
5.21112e-06
5.23321e-06
5.2706e-06
5.3164e-06
5.3649e-06
5.41175e-06
5.45438e-06
5.49169e-06
5.52351e-06
5.54956e-06
5.56957e-06
5.5839e-06
5.5945e-06
5.60838e-06
5.64691e-06
5.53199e-06
5.51305e-06
5.50097e-06
5.48696e-06
5.47197e-06
5.45278e-06
5.42944e-06
5.40275e-06
5.37352e-06
5.34113e-06
5.30363e-06
5.26228e-06
5.22226e-06
5.18936e-06
5.16879e-06
5.16691e-06
5.18489e-06
5.21726e-06
5.25739e-06
5.29971e-06
5.33996e-06
5.37613e-06
5.40786e-06
5.43503e-06
5.45699e-06
5.47358e-06
5.48551e-06
5.49455e-06
5.50555e-06
5.5338e-06
5.44583e-06
5.42843e-06
5.41413e-06
5.40487e-06
5.39411e-06
5.37872e-06
5.3595e-06
5.33753e-06
5.31346e-06
5.28537e-06
5.25233e-06
5.21763e-06
5.18585e-06
5.15967e-06
5.14201e-06
5.13941e-06
5.15377e-06
5.18045e-06
5.21351e-06
5.24794e-06
5.28067e-06
5.31048e-06
5.33694e-06
5.35971e-06
5.37837e-06
5.39279e-06
5.40351e-06
5.41159e-06
5.41986e-06
5.43875e-06
5.36451e-06
5.3479e-06
5.34188e-06
5.33901e-06
5.33163e-06
5.31894e-06
5.30201e-06
5.28307e-06
5.26234e-06
5.23772e-06
5.20997e-06
5.18267e-06
5.15811e-06
5.13672e-06
5.12142e-06
5.1188e-06
5.13057e-06
5.15222e-06
5.1786e-06
5.20596e-06
5.23237e-06
5.25721e-06
5.2798e-06
5.29929e-06
5.31528e-06
5.32779e-06
5.33707e-06
5.34362e-06
5.34867e-06
5.35917e-06
5.29142e-06
5.28551e-06
5.28876e-06
5.28774e-06
5.28059e-06
5.26833e-06
5.25305e-06
5.23717e-06
5.21942e-06
5.19846e-06
5.17625e-06
5.15521e-06
5.13527e-06
5.11658e-06
5.10307e-06