/*--------------------------------*- C++ -*----------------------------------*\
| =========                 |                                                 |
| \\      /  F ield         | OpenFOAM: The Open Source CFD Toolbox           |
|  \\    /   O peration     | Version:  2312                                  |
|   \\  /    A nd           | Website:  www.openfoam.com                      |
|    \\/     M anipulation  |                                                 |
\*---------------------------------------------------------------------------*/
FoamFile
{
    version     2.0;
    format      ascii;
    arch        "LSB;label=32;scalar=64";
    class       volScalarField;
    location    "1.553784609827";
    object      p;
}
// * * * * * * * * * * * * * * * * * * * * * * * * * * * * * * * * * * * * * //

dimensions      [1 -1 -2 0 0 0 0];

internalField   nonuniform List<scalar> 
90000
(
4849.49
4849.49
4849.49
4849.48
4849.48
4849.48
4849.48
4849.48
4849.48
4849.47
4849.47
4849.47
4849.47
4849.47
4849.47
4849.47
4849.47
4849.47
4849.47
4849.48
4849.48
4849.48
4849.48
4849.48
4849.48
4849.48
4849.48
4849.48
4849.48
4849.48
4751.38
4751.38
4751.38
4751.38
4751.38
4751.38
4751.38
4751.38
4751.38
4751.38
4751.38
4751.37
4751.37
4751.37
4751.37
4751.37
4751.37
4751.37
4751.37
4751.37
4751.37
4751.38
4751.38
4751.38
4751.38
4751.38
4751.38
4751.38
4751.38
4751.38
4653.28
4653.28
4653.28
4653.28
4653.28
4653.28
4653.28
4653.28
4653.28
4653.28
4653.28
4653.28
4653.28
4653.28
4653.27
4653.27
4653.27
4653.27
4653.27
4653.27
4653.28
4653.28
4653.28
4653.28
4653.28
4653.28
4653.28
4653.28
4653.28
4653.28
4555.18
4555.18
4555.18
4555.18
4555.18
4555.18
4555.18
4555.18
4555.18
4555.18
4555.18
4555.18
4555.18
4555.18
4555.18
4555.18
4555.18
4555.18
4555.18
4555.18
4555.18
4555.18
4555.18
4555.18
4555.18
4555.18
4555.18
4555.18
4555.18
4555.18
4457.08
4457.07
4457.08
4457.08
4457.08
4457.08
4457.08
4457.08
4457.08
4457.08
4457.08
4457.08
4457.08
4457.08
4457.08
4457.08
4457.08
4457.08
4457.08
4457.08
4457.08
4457.08
4457.08
4457.08
4457.08
4457.08
4457.08
4457.08
4457.08
4457.08
4358.98
4358.98
4358.98
4358.98
4358.98
4358.98
4358.98
4358.98
4358.98
4358.98
4358.98
4358.98
4358.98
4358.98
4358.98
4358.98
4358.98
4358.98
4358.98
4358.98
4358.98
4358.98
4358.98
4358.98
4358.98
4358.98
4358.98
4358.98
4358.98
4358.98
4260.88
4260.88
4260.88
4260.88
4260.88
4260.88
4260.88
4260.88
4260.88
4260.88
4260.88
4260.88
4260.88
4260.88
4260.88
4260.89
4260.88
4260.88
4260.88
4260.88
4260.88
4260.88
4260.88
4260.88
4260.88
4260.88
4260.88
4260.88
4260.88
4260.88
4162.79
4162.79
4162.79
4162.79
4162.78
4162.78
4162.78
4162.78
4162.78
4162.78
4162.78
4162.78
4162.78
4162.78
4162.78
4162.78
4162.78
4162.78
4162.78
4162.78
4162.78
4162.78
4162.78
4162.78
4162.78
4162.78
4162.78
4162.78
4162.78
4162.78
4064.69
4064.69
4064.69
4064.69
4064.69
4064.69
4064.68
4064.68
4064.68
4064.68
4064.68
4064.68
4064.68
4064.68
4064.68
4064.68
4064.68
4064.68
4064.68
4064.68
4064.68
4064.68
4064.68
4064.68
4064.68
4064.68
4064.68
4064.68
4064.68
4064.68
3966.59
3966.59
3966.59
3966.59
3966.59
3966.59
3966.59
3966.58
3966.58
3966.58
3966.58
3966.58
3966.58
3966.58
3966.58
3966.58
3966.58
3966.59
3966.59
3966.59
3966.59
3966.58
3966.58
3966.58
3966.58
3966.58
3966.58
3966.58
3966.58
3966.58
3868.49
3868.49
3868.49
3868.49
3868.49
3868.49
3868.49
3868.49
3868.48
3868.48
3868.48
3868.48
3868.48
3868.48
3868.48
3868.48
3868.49
3868.49
3868.49
3868.49
3868.49
3868.49
3868.49
3868.49
3868.49
3868.49
3868.49
3868.49
3868.49
3868.48
3770.39
3770.39
3770.39
3770.39
3770.39
3770.39
3770.39
3770.39
3770.39
3770.38
3770.38
3770.38
3770.38
3770.38
3770.38
3770.38
3770.39
3770.39
3770.39
3770.39
3770.39
3770.39
3770.39
3770.39
3770.39
3770.39
3770.39
3770.39
3770.39
3770.39
3672.28
3672.28
3672.28
3672.28
3672.28
3672.28
3672.28
3672.29
3672.29
3672.29
3672.29
3672.29
3672.28
3672.28
3672.28
3672.28
3672.29
3672.29
3672.29
3672.29
3672.29
3672.29
3672.29
3672.29
3672.29
3672.29
3672.29
3672.29
3672.29
3672.29
3574.18
3574.18
3574.18
3574.18
3574.18
3574.18
3574.18
3574.19
3574.19
3574.19
3574.19
3574.19
3574.19
3574.19
3574.19
3574.19
3574.18
3574.18
3574.19
3574.19
3574.19
3574.19
3574.19
3574.19
3574.19
3574.19
3574.19
3574.19
3574.19
3574.19
3476.08
3476.08
3476.08
3476.08
3476.08
3476.09
3476.09
3476.09
3476.09
3476.09
3476.09
3476.09
3476.09
3476.09
3476.09
3476.09
3476.08
3476.08
3476.08
3476.09
3476.09
3476.09
3476.09
3476.09
3476.09
3476.09
3476.09
3476.09
3476.09
3476.09
3377.98
3377.98
3377.99
3377.99
3377.99
3377.99
3377.99
3377.99
3377.99
3377.99
3377.99
3377.99
3377.99
3377.99
3377.99
3377.99
3377.98
3377.98
3377.98
3377.99
3377.99
3377.99
3377.99
3377.99
3377.99
3377.99
3377.99
3377.99
3377.99
3377.99
3279.89
3279.89
3279.89
3279.89
3279.89
3279.89
3279.89
3279.89
3279.89
3279.89
3279.89
3279.89
3279.89
3279.89
3279.89
3279.89
3279.89
3279.88
3279.89
3279.89
3279.89
3279.89
3279.89
3279.89
3279.89
3279.89
3279.89
3279.89
3279.89
3279.89
3181.8
3181.8
3181.8
3181.8
3181.8
3181.79
3181.79
3181.79
3181.79
3181.79
3181.79
3181.79
3181.79
3181.79
3181.79
3181.79
3181.79
3181.79
3181.79
3181.79
3181.79
3181.79
3181.79
3181.79
3181.79
3181.79
3181.79
3181.79
3181.79
3181.79
3083.7
3083.7
3083.7
3083.7
3083.7
3083.7
3083.7
3083.69
3083.69
3083.69
3083.69
3083.69
3083.69
3083.69
3083.69
3083.69
3083.69
3083.69
3083.69
3083.69
3083.69
3083.69
3083.69
3083.69
3083.7
3083.7
3083.7
3083.7
3083.7
3083.7
2985.61
2985.61
2985.61
2985.6
2985.6
2985.6
2985.6
2985.6
2985.59
2985.59
2985.59
2985.59
2985.59
2985.59
2985.59
2985.59
2985.59
2985.59
2985.59
2985.59
2985.59
2985.6
2985.6
2985.6
2985.6
2985.6
2985.6
2985.6
2985.61
2985.61
2887.51
2887.51
2887.51
2887.51
2887.51
2887.5
2887.5
2887.5
2887.49
2887.49
2887.49
2887.49
2887.49
2887.48
2887.49
2887.49
2887.49
2887.49
2887.49
2887.49
2887.5
2887.5
2887.5
2887.5
2887.51
2887.51
2887.51
2887.51
2887.51
2887.51
2789.41
2789.41
2789.41
2789.41
2789.41
2789.4
2789.4
2789.4
2789.39
2789.39
2789.39
2789.39
2789.38
2789.38
2789.39
2789.39
2789.39
2789.39
2789.39
2789.39
2789.4
2789.4
2789.4
2789.41
2789.41
2789.41
2789.41
2789.41
2789.42
2789.42
2691.32
2691.32
2691.31
2691.31
2691.31
2691.31
2691.3
2691.3
2691.3
2691.29
2691.29
2691.29
2691.28
2691.28
2691.28
2691.28
2691.29
2691.29
2691.29
2691.29
2691.3
2691.3
2691.3
2691.31
2691.31
2691.31
2691.32
2691.32
2691.32
2691.32
2593.22
2593.22
2593.22
2593.22
2593.21
2593.21
2593.21
2593.2
2593.2
2593.19
2593.19
2593.19
2593.19
2593.18
2593.18
2593.18
2593.18
2593.19
2593.19
2593.19
2593.2
2593.2
2593.21
2593.21
2593.21
2593.22
2593.22
2593.22
2593.22
2593.23
2495.13
2495.13
2495.12
2495.12
2495.12
2495.11
2495.11
2495.11
2495.1
2495.1
2495.09
2495.09
2495.09
2495.09
2495.08
2495.08
2495.09
2495.09
2495.09
2495.1
2495.1
2495.1
2495.11
2495.11
2495.12
2495.12
2495.13
2495.13
2495.13
2495.13
2397.04
2397.04
2397.03
2397.03
2397.03
2397.02
2397.02
2397.01
2397.01
2397
2397
2396.99
2396.99
2396.99
2396.99
2396.99
2396.99
2396.99
2397
2397
2397
2397.01
2397.01
2397.02
2397.03
2397.03
2397.04
2397.04
2397.04
2397.04
2298.95
2298.95
2298.95
2298.94
2298.94
2298.93
2298.93
2298.92
2298.91
2298.91
2298.9
2298.9
2298.89
2298.89
2298.89
2298.89
2298.89
2298.89
2298.9
2298.9
2298.91
2298.91
2298.92
2298.93
2298.94
2298.94
2298.95
2298.95
2298.96
2298.96
2200.87
2200.87
2200.87
2200.86
2200.85
2200.85
2200.84
2200.83
2200.82
2200.82
2200.81
2200.8
2200.8
2200.79
2200.79
2200.79
2200.79
2200.8
2200.8
2200.81
2200.81
2200.82
2200.83
2200.84
2200.85
2200.86
2200.86
2200.87
2200.87
2200.88
2102.8
2102.79
2102.79
2102.78
2102.77
2102.76
2102.75
2102.74
2102.73
2102.72
2102.72
2102.71
2102.7
2102.7
2102.69
2102.69
2102.7
2102.7
2102.71
2102.71
2102.72
2102.73
2102.74
2102.76
2102.77
2102.78
2102.78
2102.79
2102.8
2102.8
2004.72
2004.72
2004.72
2004.71
2004.7
2004.69
2004.67
2004.66
2004.65
2004.64
2004.62
2004.61
2004.61
2004.6
2004.6
2004.6
2004.6
2004.61
2004.62
2004.63
2004.64
2004.65
2004.66
2004.68
2004.69
2004.7
2004.71
2004.72
2004.72
2004.73
1906.66
1906.65
1906.65
1906.64
1906.63
1906.61
1906.6
1906.58
1906.56
1906.55
1906.54
1906.52
1906.52
1906.51
1906.51
1906.51
1906.51
1906.52
1906.53
1906.54
1906.55
1906.57
1906.58
1906.6
1906.61
1906.63
1906.64
1906.65
1906.66
1906.66
1808.6
1808.6
1808.59
1808.58
1808.56
1808.54
1808.53
1808.51
1808.49
1808.47
1808.45
1808.44
1808.43
1808.42
1808.41
1808.41
1808.42
1808.43
1808.44
1808.45
1808.47
1808.49
1808.51
1808.53
1808.55
1808.56
1808.58
1808.59
1808.6
1808.6
1710.55
1710.54
1710.53
1710.52
1710.5
1710.48
1710.46
1710.44
1710.41
1710.39
1710.37
1710.35
1710.34
1710.33
1710.32
1710.32
1710.33
1710.34
1710.35
1710.37
1710.39
1710.42
1710.44
1710.46
1710.49
1710.51
1710.52
1710.54
1710.55
1710.55
1612.51
1612.5
1612.49
1612.47
1612.45
1612.43
1612.4
1612.37
1612.35
1612.32
1612.3
1612.27
1612.26
1612.25
1612.24
1612.24
1612.24
1612.26
1612.27
1612.3
1612.32
1612.35
1612.38
1612.41
1612.43
1612.46
1612.48
1612.49
1612.51
1612.51
1514.48
1514.47
1514.46
1514.44
1514.41
1514.39
1514.35
1514.32
1514.29
1514.25
1514.22
1514.2
1514.18
1514.16
1514.16
1514.16
1514.16
1514.18
1514.2
1514.23
1514.26
1514.29
1514.32
1514.36
1514.39
1514.42
1514.44
1514.46
1514.48
1514.48
1416.47
1416.46
1416.44
1416.42
1416.39
1416.35
1416.32
1416.28
1416.24
1416.2
1416.16
1416.13
1416.1
1416.09
1416.08
1416.08
1416.09
1416.1
1416.13
1416.16
1416.2
1416.24
1416.28
1416.32
1416.36
1416.39
1416.42
1416.45
1416.46
1416.47
1318.47
1318.46
1318.44
1318.41
1318.38
1318.34
1318.29
1318.24
1318.19
1318.15
1318.1
1318.07
1318.04
1318.02
1318
1318
1318.01
1318.03
1318.07
1318.1
1318.14
1318.19
1318.24
1318.29
1318.34
1318.38
1318.42
1318.44
1318.46
1318.47
1220.49
1220.48
1220.46
1220.42
1220.38
1220.34
1220.28
1220.22
1220.16
1220.11
1220.06
1220.01
1219.97
1219.95
1219.94
1219.93
1219.95
1219.97
1220.01
1220.05
1220.1
1220.16
1220.22
1220.28
1220.33
1220.38
1220.43
1220.46
1220.48
1220.49
1122.53
1122.52
1122.49
1122.46
1122.41
1122.35
1122.29
1122.22
1122.15
1122.08
1122.02
1121.97
1121.92
1121.89
1121.88
1121.88
1121.89
1121.92
1121.96
1122.02
1122.08
1122.15
1122.22
1122.28
1122.35
1122.41
1122.46
1122.5
1122.52
1122.54
1024.6
1024.59
1024.56
1024.52
1024.46
1024.39
1024.32
1024.24
1024.16
1024.08
1024
1023.94
1023.89
1023.85
1023.83
1023.83
1023.85
1023.89
1023.94
1024
1024.08
1024.15
1024.23
1024.31
1024.39
1024.46
1024.51
1024.56
1024.59
1024.6
926.699
926.683
926.65
926.601
926.538
926.463
926.379
926.288
926.193
926.099
926.012
925.936
925.875
925.83
925.806
925.808
925.83
925.872
925.934
926.01
926.096
926.188
926.282
926.374
926.459
926.535
926.598
926.648
926.68
926.696
828.829
828.811
828.775
828.722
828.653
828.57
828.475
828.371
828.262
828.153
828.052
827.962
827.889
827.838
827.81
827.812
827.838
827.889
827.961
828.05
828.15
828.257
828.365
828.469
828.565
828.648
828.717
828.771
828.807
828.824
730.992
730.975
730.938
730.882
730.808
730.718
730.613
730.497
730.375
730.25
730.132
730.028
729.942
729.883
729.85
729.852
729.883
729.944
730.028
730.131
730.246
730.371
730.492
730.607
730.712
730.802
730.875
730.931
730.969
730.986
633.191
633.175
633.14
633.084
633.009
632.915
632.805
632.679
632.544
632.405
632.269
632.146
632.045
631.976
631.937
631.944
631.978
632.05
632.148
632.266
632.404
632.54
632.674
632.798
632.906
633
633.076
633.133
633.167
633.182
535.417
535.41
535.384
535.333
535.261
535.169
535.058
534.927
534.779
534.624
534.47
534.331
534.21
534.14
534.085
534.105
534.136
534.224
534.334
534.478
534.625
534.774
534.917
535.045
535.155
535.248
535.32
535.374
535.401
535.41
437.655
437.678
437.67
437.633
437.573
437.488
437.384
437.257
437.097
436.922
436.748
436.592
436.444
436.391
436.324
436.357
436.374
436.491
436.617
436.768
436.925
437.089
437.238
437.362
437.465
437.55
437.609
437.654
437.668
437.65
339.856
339.98
339.986
339.985
339.955
339.886
339.809
339.698
339.527
339.317
339.136
338.95
338.787
338.735
338.715
338.708
338.753
338.867
339.02
339.173
339.325
339.51
339.659
339.768
339.85
339.915
339.939
339.955
339.966
339.85
241.844
242.359
242.305
242.396
242.437
242.391
242.371
242.3
242.102
241.811
241.637
241.335
241.251
241.122
241.281
241.08
241.297
241.311
241.576
241.723
241.827
242.065
242.206
242.298
242.338
242.348
242.308
242.247
242.351
241.838
143.591
144.749
144.447
144.888
145.026
144.991
145.149
145.097
144.854
144.374
144.275
143.8
143.873
143.64
144.217
143.608
144.195
143.895
144.373
144.382
144.482
144.795
144.86
145.017
145.024
144.869
144.748
144.356
144.784
143.556
54.4274
54.2309
54.3285
54.7271
54.5835
54.3481
54.6094
54.8436
54.7924
54.3689
53.9602
53.7117
53.9492
53.3641
54.1277
53.4343
54.2596
53.6418
53.8776
54.1655
54.7288
54.7243
54.4043
54.377
54.3119
54.5258
54.662
54.2485
54.2863
54.3378
5.09859
3.52398
4.14352
4.05423
3.67276
3.50323
3.65247
3.94324
4.13436
4.17457
3.45805
3.94156
3.62801
3.82446
3.42315
3.78577
3.60334
3.78842
3.09584
3.73246
4.56814
4.08055
3.68789
3.50509
3.3368
3.90795
4.15483
4.14172
3.54982
5.03014
-5.04494
-5.04665
-5.05521
-5.04926
-5.02967
-5.038
-5.04536
-5.04317
-5.03678
-5.02044
-5.02334
-5.02568
-5.05047
-5.04279
-5.06372
-5.05832
-5.07606
-5.07577
-5.062
-5.0526
-5.03666
-5.05324
-5.05115
-5.02908
-5.03575
-5.04683
-5.05597
-5.05839
-5.05351
-5.05001
-5.17481
-5.16854
-5.16734
-5.1682
-5.16557
-5.16889
-5.17037
-5.17399
-5.17279
-5.17012
-5.16916
-5.17073
-5.17733
-5.17461
-5.18364
-5.18019
-5.18539
-5.18162
-5.17993
-5.18131
-5.17732
-5.17394
-5.17418
-5.17047
-5.16952
-5.16936
-5.17048
-5.16963
-5.17077
-5.17569
-5.27304
-5.2748
-5.27267
-5.27638
-5.28135
-5.28036
-5.28058
-5.2815
-5.28494
-5.28885
-5.28831
-5.28959
-5.28695
-5.29011
-5.2883
-5.28762
-5.28594
-5.28425
-5.28603
-5.28695
-5.28806
-5.27992
-5.28118
-5.28383
-5.27906
-5.27896
-5.27682
-5.27363
-5.2758
-5.27321
-5.36989
-5.37063
-5.37067
-5.37247
-5.37469
-5.3748
-5.37566
-5.37629
-5.37837
-5.38182
-5.38167
-5.38272
-5.38052
-5.38391
-5.38189
-5.38259
-5.381
-5.38099
-5.38028
-5.38
-5.38049
-5.37781
-5.37631
-5.37674
-5.37425
-5.37309
-5.37221
-5.37113
-5.37137
-5.37008
-5.46711
-5.46744
-5.46771
-5.46893
-5.47055
-5.4712
-5.47222
-5.47325
-5.47467
-5.47607
-5.47673
-5.47728
-5.47708
-5.47801
-5.47725
-5.47759
-5.47693
-5.47672
-5.47634
-5.47594
-5.47542
-5.47422
-5.47338
-5.47271
-5.47139
-5.47033
-5.46905
-5.46813
-5.46774
-5.46721
-5.56447
-5.56476
-5.56517
-5.56623
-5.5673
-5.56796
-5.56881
-5.56972
-5.57071
-5.57166
-5.57225
-5.57277
-5.57297
-5.57327
-5.57291
-5.57307
-5.57281
-5.57263
-5.57237
-5.57185
-5.5713
-5.57044
-5.56964
-5.56888
-5.568
-5.56723
-5.56639
-5.56549
-5.56494
-5.56461
-5.66125
-5.66162
-5.66204
-5.66273
-5.66353
-5.66422
-5.6649
-5.66557
-5.66625
-5.66689
-5.66744
-5.6679
-5.66818
-5.6684
-5.66831
-5.6683
-5.66821
-5.66794
-5.6676
-5.66716
-5.66667
-5.6661
-5.6655
-5.66488
-5.66422
-5.66355
-5.66284
-5.66222
-5.66176
-5.6615
-5.75814
-5.75833
-5.75867
-5.7592
-5.7598
-5.76036
-5.76089
-5.76139
-5.76187
-5.76231
-5.76268
-5.76297
-5.76313
-5.76318
-5.7632
-5.76321
-5.76303
-5.76291
-5.76276
-5.76249
-5.76217
-5.76179
-5.76136
-5.76087
-5.76035
-5.7598
-5.75922
-5.75873
-5.75841
-5.75825
-5.85488
-5.85498
-5.85524
-5.85563
-5.85605
-5.85647
-5.85685
-5.8572
-5.85752
-5.85779
-5.85799
-5.85813
-5.85819
-5.85819
-5.85818
-5.85816
-5.85809
-5.85804
-5.85798
-5.85786
-5.85768
-5.85745
-5.85716
-5.85681
-5.85641
-5.856
-5.85558
-5.85523
-5.855
-5.85489
-5.95151
-5.95155
-5.95174
-5.95201
-5.9523
-5.95258
-5.95283
-5.95304
-5.9532
-5.95331
-5.95336
-5.95337
-5.95334
-5.95329
-5.95325
-5.95323
-5.95323
-5.95325
-5.95327
-5.95327
-5.95323
-5.95312
-5.95296
-5.95274
-5.95248
-5.9522
-5.95194
-5.95171
-5.95157
-5.95151
-6.04813
-6.04815
-6.04827
-6.04844
-6.0486
-6.04875
-6.04886
-6.04893
-6.04894
-6.04891
-6.04884
-6.04874
-6.04864
-6.04854
-6.04848
-6.04847
-6.04851
-6.04859
-6.04869
-6.04879
-6.04885
-6.04887
-6.04883
-6.04874
-6.04862
-6.04848
-6.04835
-6.04825
-6.04818
-6.04816
-6.14485
-6.14485
-6.1449
-6.14496
-6.145
-6.14502
-6.145
-6.14493
-6.14481
-6.14466
-6.14448
-6.14431
-6.14415
-6.14402
-6.14395
-6.14395
-6.144
-6.14412
-6.14427
-6.14443
-6.14459
-6.14473
-6.14482
-6.14487
-6.14489
-6.14489
-6.14489
-6.14488
-6.14488
-6.1449
-6.24169
-6.24169
-6.24167
-6.24162
-6.24154
-6.24143
-6.24128
-6.24109
-6.24086
-6.24061
-6.24035
-6.24011
-6.23991
-6.23976
-6.23968
-6.23967
-6.23974
-6.23988
-6.24007
-6.2403
-6.24054
-6.24078
-6.24099
-6.24118
-6.24133
-6.24145
-6.24155
-6.24163
-6.24168
-6.24171
-6.33868
-6.33866
-6.33858
-6.33844
-6.33825
-6.33802
-6.33776
-6.33747
-6.33715
-6.33683
-6.33652
-6.33623
-6.33599
-6.33582
-6.33573
-6.33573
-6.33581
-6.33597
-6.3362
-6.33648
-6.33678
-6.3371
-6.3374
-6.33769
-6.33794
-6.33816
-6.33833
-6.33847
-6.33855
-6.33859
-6.43576
-6.43573
-6.4356
-6.43539
-6.43513
-6.43482
-6.43448
-6.43412
-6.43375
-6.43337
-6.43302
-6.43271
-6.43246
-6.43227
-6.43218
-6.43218
-6.43227
-6.43244
-6.43269
-6.43299
-6.43334
-6.4337
-6.43406
-6.43441
-6.43472
-6.43499
-6.43521
-6.43537
-6.43548
-6.43552
-6.53287
-6.53283
-6.53267
-6.53244
-6.53214
-6.5318
-6.53142
-6.53103
-6.53063
-6.53024
-6.52987
-6.52955
-6.52929
-6.5291
-6.52901
-6.529
-6.52909
-6.52927
-6.52952
-6.52983
-6.53018
-6.53055
-6.53093
-6.53129
-6.53163
-6.53192
-6.53216
-6.53233
-6.53245
-6.53249
-6.62998
-6.62992
-6.62977
-6.62954
-6.62924
-6.6289
-6.62853
-6.62814
-6.62774
-6.62735
-6.62699
-6.62667
-6.62642
-6.62624
-6.62614
-6.62613
-6.62621
-6.62637
-6.62661
-6.62691
-6.62724
-6.6276
-6.62797
-6.62832
-6.62865
-6.62893
-6.62917
-6.62934
-6.62945
-6.6295
-6.72709
-6.72702
-6.72688
-6.72667
-6.7264
-6.72609
-6.72574
-6.72538
-6.725
-6.72464
-6.7243
-6.724
-6.72376
-6.72358
-6.72349
-6.72347
-6.72354
-6.72368
-6.7239
-6.72416
-6.72447
-6.7248
-6.72513
-6.72546
-6.72576
-6.72603
-6.72625
-6.72641
-6.72652
-6.72656
-6.82423
-6.82417
-6.82404
-6.82386
-6.82362
-6.82335
-6.82304
-6.82271
-6.82237
-6.82204
-6.82173
-6.82146
-6.82123
-6.82107
-6.82098
-6.82096
-6.82101
-6.82113
-6.82132
-6.82155
-6.82182
-6.82211
-6.82241
-6.8227
-6.82297
-6.82321
-6.82341
-6.82356
-6.82366
-6.82371
-6.92144
-6.92139
-6.92128
-6.92112
-6.92092
-6.92068
-6.92041
-6.92011
-6.91982
-6.91952
-6.91925
-6.919
-6.9188
-6.91865
-6.91856
-6.91854
-6.91858
-6.91868
-6.91884
-6.91904
-6.91927
-6.91952
-6.91978
-6.92004
-6.92028
-6.92049
-6.92067
-6.9208
-6.9209
-6.92094
-7.01875
-7.0187
-7.01861
-7.01847
-7.0183
-7.01809
-7.01785
-7.0176
-7.01734
-7.01708
-7.01684
-7.01662
-7.01644
-7.0163
-7.01622
-7.0162
-7.01623
-7.01631
-7.01644
-7.01661
-7.01681
-7.01703
-7.01725
-7.01747
-7.01768
-7.01787
-7.01803
-7.01815
-7.01823
-7.01827
-7.11616
-7.11612
-7.11604
-7.11592
-7.11576
-7.11558
-7.11538
-7.11515
-7.11493
-7.1147
-7.11449
-7.1143
-7.11414
-7.11402
-7.11395
-7.11392
-7.11394
-7.11401
-7.11412
-7.11427
-7.11444
-7.11462
-7.11482
-7.11501
-7.11519
-7.11535
-7.11549
-7.1156
-7.11567
-7.11571
-7.21367
-7.21363
-7.21356
-7.21346
-7.21332
-7.21316
-7.21298
-7.21279
-7.21259
-7.21239
-7.2122
-7.21204
-7.2119
-7.21179
-7.21173
-7.2117
-7.21172
-7.21178
-7.21187
-7.21199
-7.21214
-7.2123
-7.21246
-7.21263
-7.21278
-7.21292
-7.21305
-7.21314
-7.21321
-7.21324
-7.31127
-7.31123
-7.31117
-7.31108
-7.31096
-7.31082
-7.31066
-7.31049
-7.31031
-7.31014
-7.30998
-7.30983
-7.30971
-7.30962
-7.30956
-7.30954
-7.30955
-7.3096
-7.30968
-7.30978
-7.3099
-7.31004
-7.31018
-7.31033
-7.31046
-7.31058
-7.31069
-7.31077
-7.31083
-7.31086
-7.40894
-7.40891
-7.40885
-7.40877
-7.40867
-7.40854
-7.4084
-7.40826
-7.4081
-7.40795
-7.40781
-7.40768
-7.40758
-7.4075
-7.40744
-7.40742
-7.40743
-7.40747
-7.40754
-7.40762
-7.40773
-7.40785
-7.40797
-7.40809
-7.40821
-7.40832
-7.40841
-7.40848
-7.40853
-7.40856
-7.50668
-7.50665
-7.5066
-7.50653
-7.50644
-7.50633
-7.50621
-7.50608
-7.50594
-7.50581
-7.50569
-7.50558
-7.50549
-7.50541
-7.50537
-7.50535
-7.50536
-7.50539
-7.50544
-7.50552
-7.50561
-7.50571
-7.50581
-7.50592
-7.50602
-7.50611
-7.50619
-7.50625
-7.5063
-7.50632
-7.60447
-7.60445
-7.60441
-7.60434
-7.60426
-7.60417
-7.60406
-7.60395
-7.60383
-7.60372
-7.60361
-7.60351
-7.60343
-7.60337
-7.60333
-7.60331
-7.60331
-7.60334
-7.60339
-7.60345
-7.60353
-7.60361
-7.60371
-7.6038
-7.60388
-7.60396
-7.60403
-7.60409
-7.60412
-7.60414
-7.70232
-7.7023
-7.70226
-7.7022
-7.70213
-7.70205
-7.70196
-7.70186
-7.70175
-7.70166
-7.70156
-7.70148
-7.70141
-7.70135
-7.70132
-7.7013
-7.7013
-7.70133
-7.70136
-7.70142
-7.70148
-7.70156
-7.70164
-7.70172
-7.70179
-7.70186
-7.70192
-7.70196
-7.702
-7.70202
-7.8002
-7.80018
-7.80015
-7.8001
-7.80004
-7.79997
-7.79989
-7.7998
-7.79971
-7.79962
-7.79954
-7.79947
-7.79941
-7.79936
-7.79933
-7.79931
-7.79932
-7.79933
-7.79937
-7.79941
-7.79947
-7.79953
-7.7996
-7.79967
-7.79973
-7.79979
-7.79984
-7.79988
-7.79991
-7.79993
-7.89812
-7.8981
-7.89807
-7.89803
-7.89798
-7.89792
-7.89784
-7.89777
-7.89769
-7.89762
-7.89754
-7.89748
-7.89743
-7.89739
-7.89736
-7.89735
-7.89735
-7.89736
-7.89739
-7.89743
-7.89748
-7.89753
-7.89759
-7.89765
-7.89771
-7.89776
-7.8978
-7.89784
-7.89786
-7.89788
-7.99607
-7.99605
-7.99603
-7.99599
-7.99594
-7.99589
-7.99583
-7.99576
-7.99569
-7.99563
-7.99557
-7.99551
-7.99546
-7.99543
-7.9954
-7.99539
-7.99539
-7.99541
-7.99543
-7.99546
-7.99551
-7.99555
-7.9956
-7.99566
-7.99571
-7.99575
-7.99579
-7.99582
-7.99584
-7.99585
-8.09404
-8.09403
-8.09401
-8.09397
-8.09393
-8.09388
-8.09383
-8.09377
-8.09371
-8.09366
-8.0936
-8.09355
-8.09351
-8.09348
-8.09346
-8.09345
-8.09345
-8.09346
-8.09348
-8.09351
-8.09355
-8.09359
-8.09364
-8.09368
-8.09372
-8.09376
-8.0938
-8.09382
-8.09384
-8.09385
-8.19203
-8.19202
-8.192
-8.19198
-8.19194
-8.1919
-8.19185
-8.1918
-8.19175
-8.1917
-8.19165
-8.19161
-8.19157
-8.19154
-8.19153
-8.19152
-8.19152
-8.19153
-8.19155
-8.19157
-8.19161
-8.19164
-8.19168
-8.19172
-8.19176
-8.19179
-8.19182
-8.19185
-8.19186
-8.19187
-8.29004
-8.29003
-8.29002
-8.28999
-8.28996
-8.28992
-8.28988
-8.28984
-8.28979
-8.28975
-8.2897
-8.28967
-8.28964
-8.28961
-8.2896
-8.28959
-8.28959
-8.2896
-8.28962
-8.28964
-8.28967
-8.2897
-8.28974
-8.28977
-8.28981
-8.28984
-8.28986
-8.28988
-8.2899
-8.28991
-8.38806
-8.38806
-8.38804
-8.38802
-8.38799
-8.38796
-8.38792
-8.38788
-8.38784
-8.3878
-8.38777
-8.38774
-8.38771
-8.38769
-8.38768
-8.38767
-8.38767
-8.38768
-8.3877
-8.38772
-8.38774
-8.38777
-8.3878
-8.38783
-8.38786
-8.38789
-8.38791
-8.38793
-8.38795
-8.38795
-8.4861
-8.48609
-8.48608
-8.48606
-8.48604
-8.48601
-8.48597
-8.48594
-8.4859
-8.48587
-8.48584
-8.48581
-8.48579
-8.48577
-8.48576
-8.48575
-8.48576
-8.48576
-8.48578
-8.4858
-8.48582
-8.48585
-8.48587
-8.4859
-8.48593
-8.48595
-8.48597
-8.48599
-8.486
-8.48601
-8.58414
-8.58414
-8.58413
-8.58411
-8.58409
-8.58406
-8.58403
-8.584
-8.58397
-8.58394
-8.58391
-8.58389
-8.58387
-8.58385
-8.58384
-8.58384
-8.58384
-8.58385
-8.58386
-8.58388
-8.5839
-8.58393
-8.58395
-8.58398
-8.584
-8.58402
-8.58404
-8.58406
-8.58407
-8.58407
-8.68219
-8.68219
-8.68218
-8.68216
-8.68214
-8.68212
-8.6821
-8.68207
-8.68204
-8.68202
-8.68199
-8.68197
-8.68195
-8.68194
-8.68193
-8.68193
-8.68193
-8.68194
-8.68195
-8.68197
-8.68199
-8.68201
-8.68203
-8.68205
-8.68207
-8.68209
-8.68211
-8.68212
-8.68213
-8.68214
-8.78025
-8.78025
-8.78024
-8.78022
-8.78021
-8.78019
-8.78016
-8.78014
-8.78012
-8.78009
-8.78007
-8.78005
-8.78004
-8.78003
-8.78002
-8.78002
-8.78002
-8.78003
-8.78004
-8.78006
-8.78007
-8.78009
-8.78011
-8.78013
-8.78015
-8.78017
-8.78018
-8.7802
-8.7802
-8.78021
-8.87831
-8.87831
-8.8783
-8.87829
-8.87827
-8.87825
-8.87823
-8.87821
-8.87819
-8.87817
-8.87816
-8.87814
-8.87813
-8.87812
-8.87811
-8.87811
-8.87812
-8.87812
-8.87813
-8.87814
-8.87816
-8.87818
-8.8782
-8.87821
-8.87823
-8.87825
-8.87826
-8.87827
-8.87828
-8.87828
-8.97637
-8.97637
-8.97636
-8.97635
-8.97634
-8.97633
-8.97631
-8.97629
-8.97627
-8.97626
-8.97624
-8.97623
-8.97622
-8.97621
-8.97621
-8.97621
-8.97621
-8.97621
-8.97622
-8.97623
-8.97625
-8.97626
-8.97628
-8.97629
-8.97631
-8.97632
-8.97634
-8.97635
-8.97635
-8.97635
-9.07444
-9.07444
-9.07443
-9.07442
-9.07441
-9.0744
-9.07438
-9.07437
-9.07435
-9.07434
-9.07433
-9.07432
-9.07431
-9.0743
-9.0743
-9.0743
-9.0743
-9.07431
-9.07431
-9.07432
-9.07434
-9.07435
-9.07436
-9.07438
-9.07439
-9.0744
-9.07441
-9.07442
-9.07443
-9.07443
-9.17251
-9.17251
-9.1725
-9.1725
-9.17249
-9.17248
-9.17246
-9.17245
-9.17244
-9.17243
-9.17241
-9.17241
-9.1724
-9.17239
-9.17239
-9.17239
-9.17239
-9.1724
-9.17241
-9.17241
-9.17242
-9.17244
-9.17245
-9.17246
-9.17247
-9.17248
-9.17249
-9.1725
-9.1725
-9.1725
-9.27058
-9.27058
-9.27058
-9.27057
-9.27056
-9.27055
-9.27054
-9.27053
-9.27052
-9.27051
-9.2705
-9.2705
-9.27049
-9.27049
-9.27049
-9.27049
-9.27049
-9.27049
-9.2705
-9.27051
-9.27051
-9.27052
-9.27053
-9.27054
-9.27055
-9.27056
-9.27057
-9.27057
-9.27058
-9.27058
-9.36866
-9.36866
-9.36865
-9.36865
-9.36864
-9.36863
-9.36862
-9.36862
-9.36861
-9.3686
-9.36859
-9.36859
-9.36858
-9.36858
-9.36858
-9.36858
-9.36858
-9.36858
-9.36859
-9.3686
-9.3686
-9.36861
-9.36862
-9.36863
-9.36863
-9.36864
-9.36865
-9.36865
-9.36865
-9.36865
-9.46673
-9.46673
-9.46673
-9.46672
-9.46672
-9.46671
-9.46671
-9.4667
-9.4667
-9.46669
-9.46668
-9.46668
-9.46668
-9.46667
-9.46667
-9.46667
-9.46667
-9.46668
-9.46668
-9.46669
-9.46669
-9.4667
-9.4667
-9.46671
-9.46672
-9.46672
-9.46672
-9.46673
-9.46673
-9.46673
-9.56481
-9.56481
-9.5648
-9.5648
-9.5648
-9.5648
-9.56479
-9.56479
-9.56478
-9.56478
-9.56477
-9.56477
-9.56477
-9.56477
-9.56477
-9.56477
-9.56477
-9.56477
-9.56477
-9.56478
-9.56478
-9.56479
-9.56479
-9.56479
-9.5648
-9.5648
-9.5648
-9.5648
-9.56481
-9.56481
-9.66288
-9.66288
-9.66288
-9.66288
-9.66288
-9.66288
-9.66287
-9.66287
-9.66287
-9.66287
-9.66286
-9.66286
-9.66286
-9.66286
-9.66286
-9.66286
-9.66286
-9.66286
-9.66286
-9.66287
-9.66287
-9.66287
-9.66287
-9.66288
-9.66288
-9.66288
-9.66288
-9.66288
-9.66288
-9.66288
-9.76096
-9.76096
-9.76096
-9.76096
-9.76096
-9.76096
-9.76096
-9.76096
-9.76095
-9.76095
-9.76095
-9.76095
-9.76095
-9.76095
-9.76095
-9.76095
-9.76095
-9.76095
-9.76095
-9.76095
-9.76096
-9.76096
-9.76096
-9.76096
-9.76096
-9.76096
-9.76096
-9.76096
-9.76096
-9.76096
4849.49
4849.49
4849.49
4849.48
4849.48
4849.48
4849.48
4849.48
4849.48
4849.47
4849.47
4849.47
4849.47
4849.47
4849.47
4849.47
4849.47
4849.47
4849.47
4849.47
4849.48
4849.48
4849.48
4849.48
4849.48
4849.48
4849.48
4849.48
4849.49
4849.49
4751.38
4751.38
4751.38
4751.38
4751.38
4751.38
4751.38
4751.38
4751.38
4751.38
4751.38
4751.37
4751.37
4751.37
4751.37
4751.37
4751.37
4751.37
4751.37
4751.37
4751.37
4751.38
4751.38
4751.38
4751.38
4751.38
4751.38
4751.38
4751.38
4751.38
4653.28
4653.28
4653.28
4653.28
4653.28
4653.28
4653.28
4653.28
4653.28
4653.28
4653.28
4653.28
4653.28
4653.28
4653.27
4653.27
4653.27
4653.27
4653.27
4653.27
4653.28
4653.28
4653.28
4653.28
4653.28
4653.28
4653.28
4653.28
4653.28
4653.28
4555.18
4555.17
4555.17
4555.18
4555.18
4555.18
4555.18
4555.18
4555.18
4555.18
4555.18
4555.18
4555.18
4555.18
4555.18
4555.18
4555.18
4555.18
4555.18
4555.18
4555.18
4555.18
4555.18
4555.18
4555.18
4555.18
4555.18
4555.18
4555.18
4555.18
4457.07
4457.07
4457.07
4457.08
4457.08
4457.08
4457.08
4457.08
4457.08
4457.08
4457.08
4457.08
4457.08
4457.08
4457.08
4457.08
4457.08
4457.08
4457.08
4457.08
4457.08
4457.08
4457.08
4457.08
4457.08
4457.08
4457.08
4457.08
4457.08
4457.08
4358.98
4358.98
4358.98
4358.98
4358.98
4358.98
4358.98
4358.98
4358.98
4358.98
4358.98
4358.98
4358.98
4358.99
4358.99
4358.98
4358.98
4358.98
4358.98
4358.98
4358.98
4358.98
4358.98
4358.98
4358.98
4358.98
4358.98
4358.98
4358.98
4358.98
4260.88
4260.88
4260.88
4260.88
4260.88
4260.88
4260.88
4260.88
4260.88
4260.88
4260.88
4260.88
4260.88
4260.88
4260.89
4260.89
4260.88
4260.88
4260.88
4260.88
4260.88
4260.88
4260.88
4260.88
4260.88
4260.88
4260.88
4260.88
4260.88
4260.88
4162.79
4162.79
4162.79
4162.79
4162.78
4162.78
4162.78
4162.78
4162.78
4162.78
4162.78
4162.78
4162.78
4162.78
4162.78
4162.78
4162.78
4162.78
4162.78
4162.78
4162.78
4162.78
4162.78
4162.78
4162.78
4162.78
4162.78
4162.78
4162.78
4162.78
4064.69
4064.69
4064.69
4064.69
4064.69
4064.69
4064.68
4064.68
4064.68
4064.68
4064.68
4064.68
4064.68
4064.68
4064.68
4064.68
4064.68
4064.68
4064.68
4064.68
4064.68
4064.68
4064.68
4064.68
4064.68
4064.68
4064.68
4064.68
4064.68
4064.68
3966.59
3966.59
3966.59
3966.59
3966.59
3966.59
3966.59
3966.58
3966.58
3966.58
3966.58
3966.58
3966.58
3966.58
3966.58
3966.58
3966.58
3966.59
3966.59
3966.59
3966.59
3966.58
3966.58
3966.58
3966.58
3966.58
3966.58
3966.58
3966.58
3966.58
3868.49
3868.49
3868.49
3868.49
3868.49
3868.49
3868.49
3868.49
3868.48
3868.48
3868.48
3868.48
3868.48
3868.48
3868.48
3868.48
3868.49
3868.49
3868.49
3868.49
3868.49
3868.49
3868.49
3868.49
3868.49
3868.49
3868.49
3868.49
3868.49
3868.48
3770.39
3770.39
3770.39
3770.39
3770.39
3770.38
3770.39
3770.39
3770.39
3770.39
3770.38
3770.38
3770.38
3770.38
3770.38
3770.38
3770.39
3770.39
3770.39
3770.39
3770.39
3770.39
3770.39
3770.39
3770.39
3770.39
3770.39
3770.39
3770.39
3770.39
3672.28
3672.28
3672.28
3672.28
3672.28
3672.28
3672.28
3672.29
3672.29
3672.29
3672.29
3672.29
3672.28
3672.28
3672.28
3672.28
3672.29
3672.29
3672.29
3672.29
3672.29
3672.29
3672.29
3672.29
3672.29
3672.29
3672.29
3672.29
3672.29
3672.29
3574.18
3574.18
3574.18
3574.18
3574.18
3574.18
3574.19
3574.19
3574.19
3574.19
3574.19
3574.19
3574.19
3574.19
3574.19
3574.19
3574.19
3574.19
3574.19
3574.19
3574.19
3574.19
3574.19
3574.19
3574.19
3574.19
3574.19
3574.19
3574.19
3574.19
3476.08
3476.08
3476.08
3476.08
3476.08
3476.09
3476.09
3476.09
3476.09
3476.09
3476.09
3476.09
3476.09
3476.09
3476.09
3476.09
3476.08
3476.08
3476.08
3476.09
3476.09
3476.09
3476.09
3476.09
3476.09
3476.09
3476.09
3476.09
3476.09
3476.09
3377.98
3377.99
3377.99
3377.99
3377.99
3377.99
3377.99
3377.99
3377.99
3377.99
3377.99
3377.99
3377.99
3377.99
3377.99
3377.99
3377.98
3377.98
3377.98
3377.99
3377.99
3377.99
3377.99
3377.99
3377.99
3377.99
3377.99
3377.99
3377.99
3377.99
3279.89
3279.89
3279.89
3279.89
3279.89
3279.89
3279.89
3279.89
3279.89
3279.89
3279.89
3279.89
3279.89
3279.89
3279.89