/*--------------------------------*- C++ -*----------------------------------*\
| =========                 |                                                 |
| \\      /  F ield         | OpenFOAM: The Open Source CFD Toolbox           |
|  \\    /   O peration     | Version:  2312                                  |
|   \\  /    A nd           | Website:  www.openfoam.com                      |
|    \\/     M anipulation  |                                                 |
\*---------------------------------------------------------------------------*/
FoamFile
{
    version     2.0;
    format      ascii;
    arch        "LSB;label=32;scalar=64";
    class       volScalarField;
    location    "1.553784609827";
    object      p_rgh;
}
// * * * * * * * * * * * * * * * * * * * * * * * * * * * * * * * * * * * * * //

dimensions      [1 -1 -2 0 0 0 0];

internalField   nonuniform List<scalar> 
90000
(
4898.54
4898.54
4898.54
4898.54
4898.53
4898.53
4898.53
4898.53
4898.53
4898.52
4898.52
4898.52
4898.52
4898.52
4898.52
4898.52
4898.52
4898.52
4898.52
4898.53
4898.53
4898.53
4898.53
4898.53
4898.53
4898.53
4898.53
4898.53
4898.53
4898.53
4898.54
4898.54
4898.54
4898.54
4898.54
4898.53
4898.53
4898.53
4898.53
4898.52
4898.52
4898.52
4898.52
4898.52
4898.52
4898.52
4898.52
4898.52
4898.53
4898.53
4898.53
4898.53
4898.53
4898.53
4898.53
4898.53
4898.53
4898.53
4898.53
4898.51
4898.54
4898.54
4898.54
4898.54
4898.53
4898.53
4898.53
4898.53
4898.53
4898.52
4898.52
4898.52
4898.52
4898.52
4898.52
4898.52
4898.52
4898.52
4898.52
4898.52
4898.52
4898.52
4898.53
4898.53
4898.53
4898.53
4898.54
4898.55
4898.57
4898.53
4898.53
4898.53
4898.53
4898.53
4898.53
4898.53
4898.53
4898.53
4898.53
4898.53
4898.53
4898.52
4898.52
4898.52
4898.51
4898.51
4898.51
4898.51
4898.51
4898.52
4898.52
4898.52
4898.52
4898.53
4898.53
4898.53
4898.53
4898.52
4898.55
4898.53
4898.53
4898.52
4898.52
4898.52
4898.52
4898.53
4898.53
4898.53
4898.53
4898.53
4898.53
4898.53
4898.52
4898.52
4898.52
4898.51
4898.51
4898.51
4898.51
4898.52
4898.52
4898.52
4898.53
4898.53
4898.53
4898.53
4898.53
4898.53
4898.53
4898.53
4898.52
4898.51
4898.51
4898.51
4898.52
4898.52
4898.53
4898.53
4898.54
4898.54
4898.54
4898.54
4898.54
4898.53
4898.53
4898.52
4898.52
4898.52
4898.52
4898.52
4898.53
4898.53
4898.53
4898.53
4898.53
4898.53
4898.53
4898.53
4898.53
4898.52
4898.52
4898.5
4898.5
4898.5
4898.51
4898.52
4898.52
4898.53
4898.54
4898.54
4898.55
4898.55
4898.55
4898.55
4898.54
4898.54
4898.53
4898.53
4898.53
4898.53
4898.53
4898.53
4898.53
4898.54
4898.54
4898.54
4898.53
4898.53
4898.52
4898.52
4898.51
4898.49
4898.5
4898.5
4898.51
4898.51
4898.52
4898.53
4898.53
4898.54
4898.54
4898.55
4898.55
4898.55
4898.55
4898.55
4898.54
4898.54
4898.53
4898.53
4898.53
4898.53
4898.53
4898.54
4898.54
4898.54
4898.53
4898.52
4898.52
4898.53
4898.51
4898.51
4898.51
4898.51
4898.51
4898.52
4898.52
4898.52
4898.52
4898.53
4898.53
4898.54
4898.54
4898.55
4898.55
4898.55
4898.54
4898.53
4898.52
4898.52
4898.52
4898.52
4898.52
4898.52
4898.52
4898.52
4898.52
4898.52
4898.52
4898.53
4898.52
4898.54
4898.54
4898.54
4898.54
4898.53
4898.53
4898.52
4898.52
4898.52
4898.52
4898.52
4898.53
4898.54
4898.54
4898.54
4898.54
4898.53
4898.52
4898.52
4898.52
4898.51
4898.51
4898.51
4898.5
4898.5
4898.5
4898.51
4898.52
4898.53
4898.54
4898.59
4898.58
4898.58
4898.57
4898.56
4898.55
4898.53
4898.52
4898.52
4898.51
4898.52
4898.53
4898.53
4898.54
4898.54
4898.54
4898.54
4898.54
4898.53
4898.53
4898.52
4898.51
4898.5
4898.5
4898.5
4898.51
4898.52
4898.53
4898.53
4898.58
4898.63
4898.62
4898.61
4898.6
4898.58
4898.56
4898.54
4898.53
4898.52
4898.52
4898.52
4898.52
4898.53
4898.53
4898.54
4898.55
4898.55
4898.56
4898.56
4898.55
4898.54
4898.53
4898.52
4898.52
4898.53
4898.54
4898.54
4898.54
4898.54
4898.6
4898.63
4898.62
4898.6
4898.58
4898.57
4898.55
4898.53
4898.53
4898.52
4898.52
4898.52
4898.52
4898.52
4898.53
4898.54
4898.55
4898.56
4898.57
4898.57
4898.56
4898.55
4898.54
4898.54
4898.55
4898.56
4898.56
4898.55
4898.54
4898.53
4898.6
4898.58
4898.57
4898.55
4898.54
4898.53
4898.52
4898.52
4898.52
4898.52
4898.52
4898.52
4898.51
4898.51
4898.52
4898.53
4898.54
4898.56
4898.56
4898.56
4898.56
4898.55
4898.55
4898.55
4898.56
4898.55
4898.54
4898.52
4898.51
4898.51
4898.55
4898.5
4898.49
4898.48
4898.48
4898.49
4898.5
4898.52
4898.53
4898.53
4898.53
4898.52
4898.52
4898.51
4898.52
4898.53
4898.54
4898.54
4898.55
4898.55
4898.55
4898.55
4898.55
4898.55
4898.55
4898.53
4898.5
4898.49
4898.48
4898.49
4898.5
4898.42
4898.43
4898.44
4898.46
4898.49
4898.52
4898.54
4898.55
4898.55
4898.55
4898.54
4898.53
4898.52
4898.53
4898.53
4898.53
4898.53
4898.53
4898.54
4898.54
4898.56
4898.56
4898.56
4898.55
4898.53
4898.51
4898.51
4898.52
4898.54
4898.46
4898.41
4898.43
4898.46
4898.48
4898.51
4898.54
4898.55
4898.56
4898.55
4898.54
4898.53
4898.53
4898.53
4898.53
4898.53
4898.52
4898.52
4898.52
4898.53
4898.55
4898.56
4898.57
4898.56
4898.55
4898.55
4898.55
4898.57
4898.59
4898.61
4898.47
4898.44
4898.47
4898.49
4898.51
4898.53
4898.54
4898.54
4898.53
4898.52
4898.52
4898.53
4898.54
4898.54
4898.54
4898.52
4898.51
4898.5
4898.5
4898.52
4898.53
4898.54
4898.54
4898.54
4898.53
4898.54
4898.56
4898.58
4898.59
4898.57
4898.49
4898.48
4898.5
4898.5
4898.51
4898.51
4898.51
4898.51
4898.51
4898.51
4898.53
4898.55
4898.57
4898.57
4898.55
4898.53
4898.51
4898.5
4898.5
4898.51
4898.51
4898.51
4898.49
4898.48
4898.48
4898.49
4898.5
4898.5
4898.48
4898.43
4898.52
4898.5
4898.51
4898.51
4898.52
4898.52
4898.52
4898.53
4898.54
4898.56
4898.59
4898.61
4898.61
4898.59
4898.57
4898.54
4898.52
4898.52
4898.53
4898.53
4898.51
4898.49
4898.47
4898.47
4898.48
4898.48
4898.47
4898.45
4898.4
4898.41
4898.53
4898.53
4898.54
4898.55
4898.56
4898.57
4898.58
4898.59
4898.6
4898.62
4898.63
4898.63
4898.61
4898.58
4898.55
4898.54
4898.55
4898.56
4898.57
4898.56
4898.54
4898.52
4898.52
4898.53
4898.54
4898.54
4898.52
4898.5
4898.5
4898.57
4898.55
4898.58
4898.6
4898.61
4898.62
4898.62
4898.62
4898.62
4898.62
4898.62
4898.61
4898.58
4898.55
4898.53
4898.53
4898.55
4898.59
4898.61
4898.61
4898.59
4898.57
4898.56
4898.58
4898.59
4898.6
4898.6
4898.59
4898.59
4898.63
4898.64
4898.59
4898.64
4898.64
4898.64
4898.64
4898.63
4898.62
4898.61
4898.6
4898.59
4898.56
4898.54
4898.52
4898.52
4898.56
4898.6
4898.63
4898.64
4898.62
4898.59
4898.58
4898.59
4898.61
4898.62
4898.61
4898.6
4898.6
4898.61
4898.61
4898.56
4898.62
4898.65
4898.64
4898.63
4898.62
4898.61
4898.6
4898.6
4898.6
4898.58
4898.56
4898.54
4898.53
4898.55
4898.59
4898.61
4898.61
4898.58
4898.55
4898.54
4898.57
4898.61
4898.63
4898.63
4898.62
4898.61
4898.6
4898.59
4898.54
4898.54
4898.62
4898.62
4898.61
4898.6
4898.6
4898.6
4898.61
4898.62
4898.61
4898.59
4898.55
4898.53
4898.52
4898.54
4898.55
4898.54
4898.5
4898.47
4898.48
4898.52
4898.58
4898.63
4898.65
4898.64
4898.64
4898.63
4898.61
4898.58
4898.58
4898.64
4898.61
4898.58
4898.58
4898.58
4898.58
4898.59
4898.6
4898.6
4898.57
4898.54
4898.5
4898.49
4898.5
4898.51
4898.51
4898.48
4898.46
4898.47
4898.51
4898.58
4898.63
4898.63
4898.62
4898.61
4898.61
4898.61
4898.58
4898.58
4898.65
4898.6
4898.59
4898.54
4898.54
4898.54
4898.54
4898.55
4898.55
4898.54
4898.52
4898.5
4898.5
4898.52
4898.55
4898.57
4898.56
4898.54
4898.54
4898.58
4898.62
4898.65
4898.64
4898.6
4898.58
4898.58
4898.57
4898.56
4898.56
4898.59
4898.59
4898.48
4898.58
4898.5
4898.5
4898.5
4898.51
4898.52
4898.53
4898.53
4898.53
4898.54
4898.57
4898.6
4898.62
4898.62
4898.6
4898.59
4898.61
4898.64
4898.64
4898.61
4898.58
4898.56
4898.57
4898.59
4898.58
4898.59
4898.61
4898.58
4898.5
4898.57
4898.56
4898.5
4898.52
4898.54
4898.55
4898.56
4898.56
4898.55
4898.56
4898.57
4898.59
4898.6
4898.6
4898.57
4898.56
4898.56
4898.58
4898.58
4898.55
4898.51
4898.5
4898.53
4898.57
4898.59
4898.58
4898.62
4898.63
4898.54
4898.57
4898.69
4898.59
4898.57
4898.6
4898.6
4898.58
4898.56
4898.55
4898.54
4898.55
4898.57
4898.58
4898.58
4898.55
4898.53
4898.53
4898.55
4898.55
4898.53
4898.5
4898.48
4898.51
4898.54
4898.55
4898.57
4898.56
4898.59
4898.59
4898.57
4898.7
4898.64
4898.67
4898.64
4898.62
4898.59
4898.56
4898.55
4898.55
4898.58
4898.6
4898.62
4898.62
4898.59
4898.57
4898.56
4898.57
4898.58
4898.57
4898.54
4898.55
4898.57
4898.6
4898.57
4898.53
4898.58
4898.57
4898.57
4898.63
4898.69
4898.69
4898.62
4898.71
4898.62
4898.6
4898.59
4898.61
4898.63
4898.66
4898.66
4898.65
4898.62
4898.59
4898.56
4898.55
4898.57
4898.58
4898.59
4898.59
4898.61
4898.64
4898.65
4898.64
4898.58
4898.54
4898.64
4898.62
4898.6
4898.71
4898.73
4898.64
4898.72
4898.71
4898.65
4898.68
4898.72
4898.75
4898.74
4898.69
4898.62
4898.55
4898.52
4898.51
4898.53
4898.57
4898.61
4898.61
4898.6
4898.59
4898.61
4898.62
4898.58
4898.55
4898.57
4898.56
4898.67
4898.66
4898.67
4898.76
4898.7
4898.73
4898.79
4898.77
4898.82
4898.86
4898.85
4898.8
4898.7
4898.61
4898.54
4898.52
4898.53
4898.58
4898.63
4898.65
4898.64
4898.59
4898.55
4898.52
4898.52
4898.5
4898.44
4898.49
4898.64
4898.62
4898.66
4898.71
4898.77
4898.79
4898.78
4898.84
4898.83
4898.93
4898.97
4898.93
4898.86
4898.78
4898.71
4898.67
4898.65
4898.66
4898.68
4898.69
4898.69
4898.64
4898.59
4898.53
4898.53
4898.52
4898.52
4898.55
4898.56
4898.65
4898.81
4898.71
4898.71
4898.84
4898.88
4898.87
4898.9
4898.89
4898.93
4899.05
4899.01
4898.96
4898.93
4898.9
4898.86
4898.81
4898.76
4898.73
4898.71
4898.69
4898.66
4898.59
4898.57
4898.54
4898.62
4898.64
4898.63
4898.7
4898.75
4898.78
4898.88
4898.79
4898.85
4898.99
4898.96
4898.98
4898.98
4899.06
4899.09
4899.11
4899.11
4899.11
4899.07
4898.99
4898.9
4898.84
4898.8
4898.79
4898.75
4898.68
4898.63
4898.58
4898.65
4898.63
4898.69
4898.69
4898.64
4898.73
4898.82
4898.76
4898.85
4898.89
4898.98
4899.05
4899
4899.08
4899.11
4899.23
4899.17
4899.25
4899.26
4899.2
4899.11
4899.03
4899.01
4899
4898.96
4898.89
4898.78
4898.69
4898.7
4898.64
4898.76
4898.72
4898.67
4898.68
4898.67
4898.79
4898.87
4898.77
4898.86
4899.01
4899.02
4899.04
4899.07
4899.18
4899.21
4899.22
4899.23
4899.41
4899.33
4899.26
4899.25
4899.27
4899.27
4899.2
4899.06
4898.93
4898.85
4898.8
4898.87
4898.72
4898.73
4898.74
4898.63
4898.72
4898.77
4898.84
4898.86
4898.82
4898.92
4899.12
4899.06
4899.1
4899.23
4899.28
4899.29
4899.39
4899.55
4899.52
4899.47
4899.5
4899.53
4899.5
4899.39
4899.23
4899.1
4899.05
4899.04
4898.9
4898.88
4898.78
4898.66
4898.85
4898.74
4898.77
4898.79
4898.82
4898.84
4899
4899.1
4899.21
4899.2
4899.24
4899.42
4899.43
4899.54
4899.71
4899.77
4899.71
4899.75
4899.75
4899.69
4899.57
4899.43
4899.33
4899.29
4899.22
4899.17
4899.01
4898.87
4898.99
4898.74
4898.87
4898.84
4898.81
4898.88
4899.02
4899.04
4899.18
4899.23
4899.24
4899.43
4899.44
4899.63
4899.66
4899.81
4899.79
4899.76
4899.99
4899.98
4899.93
4899.85
4899.72
4899.62
4899.6
4899.56
4899.38
4899.23
4899.23
4899.08
4899.17
4898.96
4898.83
4899.02
4899.05
4899.01
4899.12
4899.18
4899.28
4899.49
4899.5
4899.66
4899.66
4899.78
4899.97
4900.06
4899.89
4899.7
4900.24
4900.24
4900.19
4900.11
4900.06
4899.98
4899.84
4899.7
4899.65
4899.55
4899.34
4899.28
4899.15
4899.26
4898.98
4899.08
4899.15
4899.12
4899.26
4899.5
4899.52
4899.59
4899.65
4899.72
4900.06
4900.09
4900.04
4900.07
4900.37
4900.03
4900.56
4900.6
4900.48
4900.45
4900.4
4900.23
4900.09
4900
4899.85
4899.8
4899.44
4899.57
4899.36
4899.35
4899.24
4899.19
4899.31
4899.47
4899.42
4899.52
4899.71
4899.86
4900.03
4900
4900.25
4900.45
4900.39
4900.44
4900.61
4900.31
4900.89
4900.92
4900.88
4900.72
4900.54
4900.67
4900.57
4900.38
4900.23
4900.28
4899.9
4899.65
4899.8
4899.48
4899.47
4899.59
4899.53
4899.72
4899.85
4899.88
4900.05
4900.19
4900.35
4900.66
4900.45
4900.55
4900.83
4901.06
4900.76
4900.22
4901.15
4901.22
4901.22
4901.16
4900.96
4901.12
4900.97
4900.89
4900.47
4900.33
4900.52
4900.02
4899.88
4899.98
4899.75
4899.82
4900.08
4899.89
4900.09
4900.34
4900.42
4900.55
4900.69
4900.94
4900.91
4901.12
4901.2
4901.1
4901.52
4900.82
4901.42
4901.62
4901.47
4901.74
4901.49
4901.51
4901.31
4901.39
4901.13
4901.03
4900.53
4900.76
4900.41
4900.12
4900.39
4900.3
4900.27
4900.5
4900.78
4900.73
4900.94
4901.24
4901.32
4901.41
4901.47
4901.34
4901.6
4901.55
4901.75
4901.76
4901.58
4902.09
4901.85
4902.2
4902.15
4902.15
4902.12
4902.13
4901.76
4901.61
4901.28
4901.09
4901.05
4900.86
4901.06
4900.84
4901.03
4901.08
4901.35
4901.49
4901.6
4901.77
4901.91
4902.03
4902.17
4902.17
4902.02
4901.85
4902.05
4901.59
4901.44
4902.61
4902.31
4902.76
4902.88
4902.9
4903
4902.95
4902.7
4902.24
4902.14
4901.66
4901.73
4901.49
4902.1
4901.47
4902.05
4901.75
4902.23
4902.24
4902.34
4902.66
4902.73
4902.87
4902.87
4902.73
4902.65
4902.24
4902.67
4901.42
3907.72
4230.66
4103.51
4232.82
4267.66
4227.41
4269.73
4245.88
4225.49
4131.62
4244.98
4083.92
4211.03
4065.81
4297.12
4093.87
4276.02
4110.72
4308.88
4199.28
4129.81
4222.06
4219.34
4268.33
4275.18
4212.11
4203.65
4097.28
4232.43
3900.88
1019.03
863.227
928.455
917.441
876.509
862.216
879
904.305
923.054
925.784
850.834
903.85
873.999
893.704
854.65
891.421
874.48
895.05
821.599
884.636
966.447
919.753
880.142
858.972
843.281
904.886
927.774
928.149
866.472
1012.84
4.47531
0.52883
0.780286
0.95877
1.91064
1.24243
0.697379
3.24173
1.47146
2.34981
1.63464
1.72912
0.617183
1.25128
0.831401
0.808609
0.499866
0.246887
0.652094
1.14619
2.225
0.900274
1.57124
2.14217
1.80948
0.83205
0.803609
0.993414
0.572101
3.68892
0.26215
0.932655
0.272968
0.230161
2.15861
0.842914
0.400288
0.391754
1.78377
2.15311
2.76282
2.31552
0.880312
2.18677
0.813913
0.762798
0.470659
0.0112462
0.711377
0.867961
1.73938
0.333779
0.42672
2.099
0.794808
0.76179
0.190163
0.238209
0.815788
0.139585
-0.0141181
0.108347
0.0110124
-0.0201664
-0.0322451
-0.000911723
-0.0194108
-0.025353
-0.0331891
-0.0389491
-0.034765
-0.0382597
-0.00609489
-0.0268591
-0.0198862
-0.0349195
-0.00965889
-0.0122681
0.0453477
-0.0325824
-0.0379376
0.255301
0.126014
-0.030232
-0.0224217
-0.0107565
-0.0233161
0.00654261
0.118047
-0.0198613
-0.0227461
-0.0235245
-0.0222435
-0.0251536
-0.0275462
-0.0283351
-0.0289692
-0.0162636
0.00712592
-0.0340817
-0.0211273
-0.0200242
-0.00878825
-0.0226365
-0.0287834
-0.0321634
-0.0131217
-0.0126197
-0.011849
-0.0127112
-0.0329423
-0.0143454
0.0371508
-0.0142871
-0.0277872
-0.0266201
-0.0257163
-0.0233544
-0.024744
-0.0229883
-0.0224863
-0.0224301
-0.0230458
-0.0243403
-0.0259645
-0.0266431
-0.0271031
-0.023458
-0.0231474
-0.0312303
-0.0317797
-0.0199421
-0.00660511
-0.0114326
-0.0215897
-0.0236336
-0.0100061
-0.0103032
-0.011298
-0.0229907
-0.0298138
-0.0235866
-0.0254857
-0.0277637
-0.0268277
-0.0257079
-0.0243744
-0.023449
-0.0231711
-0.0223146
-0.0218202
-0.0221095
-0.0225176
-0.0230178
-0.0241533
-0.0253035
-0.026161
-0.0270726
-0.0280609
-0.029004
-0.0289727
-0.0275172
-0.0241584
-0.0204855
-0.0125205
-0.0126857
-0.0180357
-0.0266528
-0.0278848
-0.0286237
-0.0285098
-0.0277923
-0.0269908
-0.0262298
-0.0253436
-0.0237805
-0.0228787
-0.022826
-0.022283
-0.021943
-0.0205
-0.020867
-0.0212919
-0.0218426
-0.022655
-0.0234522
-0.0241464
-0.0248221
-0.0255033
-0.0261357
-0.0266731
-0.0271453
-0.0274327
-0.0262374
-0.00956439
-0.00950286
-0.0256668
-0.0271897
-0.0268479
-0.0264052
-0.0259089
-0.0253471
-0.0247486
-0.0241335
-0.0234549
-0.0226493
-0.0218882
-0.0214694
-0.0210084
-0.0207468
-0.0192869
-0.0194713
-0.0198169
-0.0203472
-0.0209546
-0.021513
-0.022039
-0.0225428
-0.0230208
-0.0234567
-0.0238294
-0.0241219
-0.0242823
-0.0243285
-0.0225779
-0.0214125
-0.0241483
-0.0240599
-0.0239063
-0.0236363
-0.0233177
-0.0229431
-0.0225054
-0.0220227
-0.0214954
-0.0209455
-0.0203729
-0.0198781
-0.0195564
-0.0193968
-0.0179329
-0.0180278
-0.0182882
-0.0186755
-0.0191037
-0.0195158
-0.0199003
-0.0202548
-0.0205703
-0.0208376
-0.0210413
-0.0211796
-0.021243
-0.0212447
-0.0212342
-0.0212147
-0.0211407
-0.0210945
-0.0210306
-0.0209074
-0.0207337
-0.0205032
-0.0202076
-0.01986
-0.0194641
-0.0190483
-0.0186347
-0.0182802
-0.0180485
-0.017944
-0.0164559
-0.016503
-0.0166915
-0.0169612
-0.017254
-0.0175289
-0.0177752
-0.0179853
-0.018149
-0.0182575
-0.0183056
-0.018316
-0.0182873
-0.0182375
-0.0181982
-0.0181799
-0.0181753
-0.0181977
-0.0182234
-0.0182169
-0.0181773
-0.0180749
-0.0179078
-0.0176882
-0.0174287
-0.0171549
-0.0168873
-0.0166615
-0.0165151
-0.0164599
-0.0149814
-0.0150029
-0.0151236
-0.0152851
-0.0154537
-0.0155985
-0.0157091
-0.0157765
-0.0157937
-0.0157605
-0.015687
-0.0155904
-0.015487
-0.0153937
-0.0153327
-0.015323
-0.0153633
-0.0154437
-0.0155424
-0.0156352
-0.0156987
-0.015716
-0.0156779
-0.0155916
-0.0154702
-0.0153342
-0.0152035
-0.0150955
-0.0150285
-0.0150147
-0.0135951
-0.0135998
-0.0136528
-0.0137105
-0.0137546
-0.01377
-0.013747
-0.0136787
-0.0135645
-0.0134114
-0.013235
-0.0130561
-0.0128962
-0.0127738
-0.0127042
-0.0126974
-0.0127542
-0.0128668
-0.0130175
-0.0131835
-0.013342
-0.013475
-0.0135694
-0.0136235
-0.0136435
-0.0136432
-0.0136365
-0.013631
-0.0136314
-0.0136473
-0.0123404
-0.0123363
-0.0123189
-0.0122717
-0.0121924
-0.0120788
-0.0119267
-0.0117361
-0.0115109
-0.0112611
-0.0110042
-0.0107625
-0.0105578
-0.010408
-0.0103259
-0.0103196
-0.0103902
-0.0105302
-0.0107239
-0.0109511
-0.0111915
-0.0114275
-0.0116431
-0.0118285
-0.0119808
-0.0121033
-0.0122014
-0.0122767
-0.0123294
-0.0123626
-0.0112266
-0.0112129
-0.0111297
-0.0109886
-0.010801
-0.0105724
-0.0103089
-0.0100167
-0.00970292
-0.0093798
-0.00906508
-0.00877911
-0.00854248
-0.00837261
-0.00828189
-0.00827741
-0.00835978
-0.008522
-0.00875014
-0.009026
-0.00933055
-0.00964555
-0.00995352
-0.0102397
-0.0104936
-0.0107092
-0.0108842
-0.0110164
-0.0111031
-0.0111447
-0.0102095
-0.010181
-0.0100493
-0.00984372
-0.00958061
-0.00927237
-0.00893194
-0.00856923
-0.00819532
-0.00782466
-0.00747374
-0.0071612
-0.00690616
-0.00672494
-0.0066295
-0.00662621
-0.00671552
-0.00689098
-0.00713974
-0.00744485
-0.00778775
-0.00814937
-0.00851096
-0.00885534
-0.00916822
-0.00943879
-0.00965957
-0.00982476
-0.00992968
-0.00997387
-0.00922224
-0.00917796
-0.00902255
-0.00878924
-0.00849293
-0.00814994
-0.0077741
-0.00737843
-0.00697742
-0.00658619
-0.00622079
-0.00589895
-0.00563811
-0.00545322
-0.00535564
-0.00535117
-0.00543995
-0.00561593
-0.0058673
-0.00617819
-0.00653031
-0.00690445
-0.00728157
-0.00764418
-0.00797724
-0.00826809
-0.00850638
-0.00868404
-0.00879542
-0.00883995
-0.00822948
-0.00817261
-0.00801635
-0.00778525
-0.00749273
-0.00715274
-0.00677854
-0.00638515
-0.00598745
-0.00560035
-0.00524034
-0.00492441
-0.00466845
-0.00448625
-0.00438823
-0.00437959
-0.00446018
-0.00462442
-0.00486171
-0.0051574
-0.00549417
-0.00585368
-0.00621788
-0.0065701
-0.00689557
-0.00718137
-0.00741651
-0.00759238
-0.00770322
-0.00774811
-0.00723698
-0.00717482
-0.00703097
-0.00682022
-0.00655333
-0.00623986
-0.0058928
-0.0055258
-0.00515241
-0.00478788
-0.00444864
-0.00415041
-0.0039076
-0.00373302
-0.0036362
-0.00362182
-0.0036896
-0.00383448
-0.00404699
-0.0043141
-0.00462028
-0.00494889
-0.00528345
-0.00560847
-0.00591004
-0.00617601
-0.00639612
-0.0065623
-0.00666888
-0.00671424
-0.00627902
-0.00621787
-0.00609161
-0.00590829
-0.0056738
-0.0053965
-0.00508735
-0.00475741
-0.0044196
-0.00408884
-0.00377986
-0.00350664
-0.00328258
-0.00311958
-0.00302619
-0.00300655
-0.00306036
-0.00318319
-0.00336689
-0.00360022
-0.00386968
-0.00416059
-0.00445817
-0.00474847
-0.00501896
-0.00525879
-0.00545878
-0.00561156
-0.00571162
-0.00575679
-0.00539359
-0.00533665
-0.00522803
-0.00507018
-0.00486692
-0.00462598
-0.00435534
-0.00406473
-0.00376627
-0.00347297
-0.00319735
-0.00295214
-0.00274984
-0.00260105
-0.00251316
-0.00248978
-0.00253077
-0.00263253
-0.00278821
-0.00298823
-0.00322093
-0.0034735
-0.00373306
-0.00398746
-0.00422573
-0.00443828
-0.00461686
-0.00475473
-0.00484677
-0.00489065
-0.0046011
-0.00455096
-0.00445738
-0.00432075
-0.00414527
-0.00393635
-0.00370048
-0.00344681
-0.00318582
-0.00292822
-0.00268513
-0.00246822
-0.00228852
-0.002155
-0.00207388
-0.00204848
-0.00207894
-0.00216245
-0.00229328
-0.00246323
-0.00266227
-0.00287941
-0.00310366
-0.00332459
-0.00353263
-0.00371917
-0.0038768
-0.0039995
-0.00408275
-0.00412434
-0.0039114
-0.00386759
-0.00378616
-0.00366709
-0.00351423
-0.00333163
-0.00312567
-0.00290442
-0.00267646
-0.00245097
-0.00223802
-0.00204784
-0.00188965
-0.00177093
-0.0016971
-0.00167123
-0.00169372
-0.00176233
-0.00187221
-0.00201632
-0.00218609
-0.00237223
-0.00256542
-0.00275664
-0.00293746
-0.00310019
-0.00323825
-0.00334642
-0.00342082
-0.00345929
-0.00332026
-0.00328179
-0.00321006
-0.00310531
-0.00297063
-0.00281019
-0.00262995
-0.00243649
-0.00223706
-0.0020399
-0.00185392
-0.00168769
-0.00154885
-0.00144384
-0.00137743
-0.00135241
-0.00136918
-0.00142588
-0.00151837
-0.00164062
-0.00178544
-0.00194501
-0.00211137
-0.00227668
-0.00243346
-0.00257495
-0.00269538
-0.00279023
-0.00285607
-0.00289085
-0.00281634
-0.00278306
-0.00271946
-0.00262681
-0.00250786
-0.00236685
-0.00220874
-0.00203907
-0.00186439
-0.00169207
-0.00152971
-0.00138448
-0.00126288
-0.00117042
-0.00111127
-0.00108783
-0.00110043
-0.00114742
-0.00122525
-0.00132895
-0.00145253
-0.00158939
-0.00173267
-0.0018755
-0.0020113
-0.00213411
-0.00223891
-0.00232174
-0.0023795
-0.00241031
-0.0023897
-0.00236049
-0.00230426
-0.00222234
-0.00211745
-0.00199338
-0.00185437
-0.00170544
-0.00155252
-0.00140202
-0.00126032
-0.00113351
-0.00102718
-0.000946084
-0.000893717
-0.000872064
-0.000881365
-0.000920184
-0.000985615
-0.00107361
-0.00117914
-0.00129659
-0.00142
-0.00154332
-0.00166076
-0.00176715
-0.00185809
-0.0019301
-0.0019804
-0.00200732
-0.00202887
-0.00200303
-0.0019536
-0.00188137
-0.00178903
-0.00167991
-0.00155784
-0.00142742
-0.00129386
-0.00116258
-0.00103902
-0.000928447
-0.000835649
-0.000764653
-0.000718402
-0.000698509
-0.000705131
-0.00073711
-0.000792144
-0.000866904
-0.000957111
-0.0010579
-0.00116406
-0.00127031
-0.00137162
-0.00146352
-0.00154221
-0.00160462
-0.00164828
-0.00167169
-0.0017233
-0.00170103
-0.00165765
-0.0015942
-0.00151319
-0.00141752
-0.00131072
-0.00119687
-0.00108041
-0.000966036
-0.000858446
-0.000762211
-0.00068142
-0.000619445
-0.000578619
-0.000560353
-0.000564911
-0.000591378
-0.000637763
-0.000701204
-0.000778251
-0.00086461
-0.00095573
-0.00104706
-0.00113429
-0.00121359
-0.00128165
-0.00133573
-0.00137363
-0.00139395
-0.00146575
-0.00144668
-0.00140865
-0.00135316
-0.00128234
-0.00119875
-0.00110552
-0.00100621
-0.000904709
-0.000805087
-0.000711463
-0.00062776
-0.000557432
-0.000503248
-0.000467282
-0.000450718
-0.000453789
-0.000475745
-0.000514961
-0.000569009
-0.000634755
-0.000708656
-0.000786811
-0.000865329
-0.000940527
-0.00100907
-0.00106805
-0.00111498
-0.00114787
-0.00116543
-0.00124955
-0.00123297
-0.00119981
-0.00115146
-0.00108966
-0.00101669
-0.000935309
-0.000848665
-0.000760143
-0.000673334
-0.000591831
-0.000518983
-0.000457719
-0.000410417
-0.000378857
-0.000364016
-0.000366054
-0.000384377
-0.000417631
-0.000463733
-0.000519998
-0.000583376
-0.000650578
-0.0007183
-0.000783356
-0.000842791
-0.000893982
-0.00093471
-0.000963198
-0.000978294
-0.00106793
-0.00105362
-0.00102483
-0.000982721
-0.000928802
-0.000865091
-0.000794033
-0.00071839
-0.00064118
-0.00056553
-0.000494535
-0.000431082
-0.000377701
-0.000336476
-0.000308861
-0.000295675
-0.000297074
-0.00031255
-0.000340928
-0.000380438
-0.000428811
-0.000483441
-0.000541521
-0.000600199
-0.000656674
-0.000708312
-0.000752774
-0.000788111
-0.000812755
-0.000825688
-0.000915463
-0.000903341
-0.000878329
-0.000841619
-0.000794551
-0.000738885
-0.000676798
-0.000610744
-0.000543357
-0.00047735
-0.000415424
-0.000360086
-0.000313598
-0.000277665
-0.000253523
-0.000241935
-0.000243024
-0.000256326
-0.000280807
-0.00031497
-0.000356874
-0.000404287
-0.000454781
-0.000505849
-0.000555013
-0.000599954
-0.00063862
-0.000669323
-0.000690683
-0.000701786
-0.000787924
-0.000777696
-0.000755905
-0.000723773
-0.000682558
-0.000633877
-0.000579583
-0.00052179
-0.000462804
-0.000405049
-0.00035094
-0.000302634
-0.000262018
-0.000230675
-0.000209705
-0.000199707
-0.000200775
-0.000212474
-0.00023391
-0.000263763
-0.000300389
-0.000341836
-0.000385986
-0.000430639
-0.000473613
-0.000512883
-0.000546657
-0.000573441
-0.00059203
-0.000601595
-0.000681124
-0.000672273
-0.000653147
-0.000625028
-0.00058897
-0.000546321
-0.000498681
-0.000447927
-0.000396171
-0.000345569
-0.000298118
-0.000255846
-0.000220442
-0.000193222
-0.000175101
-0.00016659
-0.000167807
-0.000178348
-0.000197414
-0.000223783
-0.000256039
-0.000292533
-0.000331411
-0.000370714
-0.000408518
-0.000443053
-0.000472739
-0.000496239
-0.000512495
-0.000520762
-0.0005908
-0.000583172
-0.000566511
-0.000541939
-0.000510319
-0.000472798
-0.000430841
-0.000386167
-0.000340627
-0.000296139
-0.000254612
-0.000217758
-0.000186995
-0.000163439
-0.00014783
-0.000140572
-0.000141934
-0.00015156
-0.000168653
-0.000192219
-0.000220978
-0.000253445
-0.000287982
-0.000322871
-0.000356418
-0.000387023
-0.000413283
-0.000434006
-0.000448258
-0.00045539
-0.00051414
-0.000507696
-0.000493203
-0.00047162
-0.000443706
-0.000410497
-0.000373377
-0.000333946
-0.000293893
-0.000254954
-0.000218755
-0.000186685
-0.000159978
-0.000139551
-0.000126074
-0.000119849
-0.000121431
-0.000130458
-0.000146006
-0.000167268
-0.000193118
-0.000222221
-0.000253129
-0.000284317
-0.000314284
-0.000341594
-0.000364966
-0.000383341
-0.000395873
-0.000402017
-0.000448912
-0.000443473
-0.000430797
-0.00041166
-0.000386804
-0.000357321
-0.000324518
-0.000289825
-0.000254734
-0.000220683
-0.000189101
-0.000161145
-0.00013791
-0.000120211
-0.000108712
-0.000103924
-0.000105504
-0.000113878
-0.000128067
-0.00014734
-0.000170692
-0.000196938
-0.000224725
-0.000252716
-0.000279582
-0.000304045
-0.000324952
-0.000341329
-0.0003524
-0.000357714
-0.000392863
-0.000388159
-0.000376885
-0.000359783
-0.00033768
-0.000311621
-0.000282757
-0.000252344
-0.000221651
-0.000191887
-0.000164203
-0.00013974
-0.000119441
-0.000104192
-9.45281e-05
-9.08588e-05
-9.3072e-05
-0.000100559
-0.000113552
-0.0001311
-0.000152238
-0.000175898
-0.000200928
-0.000226114
-0.000250265
-0.00027224
-0.000291007
-0.000305661
-0.000315489
-0.00032011
-0.000343782
-0.000339568
-0.000329352
-0.000314109
-0.000294601
-0.00027171
-0.00024641
-0.000219749
-0.000192819
-0.000166723
-0.000142508
-0.000121189
-0.000103613
-9.05162e-05
-8.24462e-05
-7.96446e-05
-8.20422e-05
-8.93315e-05
-0.00010138
-0.000117368
-0.000136475
-0.000157792
-0.000180319
-0.000202985
-0.000224726
-0.000244508
-0.000261383
-0.000274516
-0.000283254
-0.000287282
-0.000299591
-0.000295834
-0.000286774
-0.000273354
-0.000256241
-0.000236176
-0.000214
-0.000190623
-0.000167029
-0.000144211
-0.000123139
-0.000104698
-8.96971e-05
-7.87137e-05
-7.21729e-05
-7.02659e-05
-7.2949e-05
-7.99184e-05
-9.09429e-05
-0.000105397
-0.000122594
-0.000141736
-0.000161945
-0.000182288
-0.000201804
-0.000219564
-0.000234693
-0.000246424
-0.000254163
-0.000257667
-0.000259707
-0.000256442
-0.000248501
-0.000236771
-0.000221779
-0.000204168
-0.000184718
-0.000164277
-0.000143724
-0.00012395
-0.000105834
-9.01765e-05
-7.755e-05
-6.85234e-05
-6.33879e-05
-6.22712e-05
-6.51111e-05
-7.17753e-05
-8.16387e-05
-9.45691e-05
-0.000109922
-0.000126992
-0.000145002
-0.000163136
-0.000180533
-0.000196354
-0.000209808
-0.000220201
-0.000227008
-0.00023001
-0.000223799
-0.000221026
-0.000214125
-0.000203863
-0.000190701
-0.00017526
-0.00015828
-0.000140534
-0.000122803
-0.000105858
-9.04742e-05
-7.72425e-05
-6.68473e-05
-5.96034e-05
-5.56989e-05
-5.51534e-05
-5.79592e-05
-6.39648e-05
-7.28427e-05
-8.43242e-05
-9.78985e-05
-0.000112968
-0.000128858
-0.000144847
-0.000160176
-0.000174096
-0.000185908
-0.000195002
-0.000200934
-0.000203473
-0.000191366
-0.000188986
-0.000182991
-0.000174008
-0.000162504
-0.00014909
-0.000134446
-0.000119253
-0.000104169
-8.97784e-05
-7.66377e-05
-6.56583e-05
-5.72586e-05
-5.14949e-05
-4.85811e-05
-4.8405e-05
-5.10359e-05
-5.63384e-05
-6.42727e-05
-7.43649e-05
-8.62224e-05
-9.93504e-05
-0.000113173
-0.000127057
-0.000140339
-0.000152373
-0.00016257
-0.0001704
-0.000175503
-0.000177655
-0.000161575
-0.000159448
-0.000154266
-0.000146512
-0.000136648
-0.000125244
-0.000112887
-0.000100148
-8.75519e-05
-7.55385e-05
-6.44992e-05
-5.55843e-05
-4.87788e-05
-4.41728e-05
-4.18087e-05
-4.18228e-05
-4.42473e-05
-4.89934e-05
-5.58761e-05
-6.46054e-05
-7.48116e-05
-8.6063e-05
-9.7863e-05
-0.000109672
-0.000120932
-0.000131107
-0.000139707
-0.000146313
-0.000150624
-0.000152419
-0.000133565
-0.000131686
-0.000127307
-0.000120825
-0.000112664
-0.000103293
-9.31762e-05
-8.27688e-05
-7.2497e-05
-6.28256e-05
-5.46716e-05
-4.73894e-05
-4.14329e-05
-3.72146e-05
-3.51655e-05
-3.52905e-05
-3.75174e-05
-4.17021e-05
-4.76082e-05
-5.50627e-05
-6.3688e-05
-7.31155e-05
-8.29369e-05
-9.27099e-05
-0.000101987
-0.000110336
-0.000117377
-0.000122792
-0.000126354
-0.000127834
-0.00010691
-0.000105373
-0.000101815
-9.66725e-05
-9.02478e-05
-8.28773e-05
-7.48925e-05
-6.66613e-05
-5.8598e-05
-5.11378e-05
-4.43559e-05
-3.84396e-05
-3.36521e-05
-3.02619e-05
-2.8663e-05
-2.89714e-05
-3.09955e-05
-3.45729e-05
-3.94998e-05
-4.56919e-05
-5.27858e-05
-6.04294e-05
-6.83138e-05
-7.61003e-05
-8.34461e-05
-9.00373e-05
-9.55772e-05
-9.98388e-05
-0.000102657
-0.00010383
-8.15485e-05
-8.03527e-05
-7.76572e-05
-7.38568e-05
-6.91224e-05
-6.36584e-05
-5.76821e-05
-5.14563e-05
-4.52334e-05
-3.93566e-05
-3.40552e-05
-2.95467e-05
-2.6028e-05
-2.36537e-05
-2.2603e-05
-2.29939e-05
-2.47208e-05
-2.76638e-05
-3.15708e-05
-3.64123e-05
-4.19571e-05
-4.77974e-05
-5.37667e-05
-5.96208e-05
-6.51158e-05
-7.00207e-05
-7.41366e-05
-7.72981e-05
-7.93873e-05
-8.02744e-05
-5.75115e-05
-5.65873e-05
-5.47227e-05
-5.21689e-05
-4.89951e-05
-4.53467e-05
-4.13877e-05
-3.72009e-05
-3.28845e-05
-2.87136e-05
-2.49148e-05
-2.16522e-05
-1.92134e-05
-1.76718e-05
-1.70512e-05
-1.75019e-05
-1.89767e-05
-2.13913e-05
-2.44713e-05
-2.78212e-05
-3.12586e-05
-3.5063e-05
-3.90739e-05
-4.3038e-05
-4.67566e-05
-5.00704e-05
-5.28481e-05
-5.49771e-05
-5.63908e-05
-5.70227e-05
-3.38982e-05
-3.33263e-05
-3.22649e-05
-3.07348e-05
-2.87988e-05
-2.64556e-05
-2.39457e-05
-2.1377e-05
-1.87281e-05
-1.62627e-05
-1.41163e-05
-1.24049e-05
-1.10377e-05