/*--------------------------------*- C++ -*----------------------------------*\
| =========                 |                                                 |
| \\      /  F ield         | OpenFOAM: The Open Source CFD Toolbox           |
|  \\    /   O peration     | Version:  2312                                  |
|   \\  /    A nd           | Website:  www.openfoam.com                      |
|    \\/     M anipulation  |                                                 |
\*---------------------------------------------------------------------------*/
FoamFile
{
    version     2.0;
    format      ascii;
    arch        "LSB;label=32;scalar=64";
    class       surfaceScalarField;
    location    "1.553784609827";
    object      phi;
}
// * * * * * * * * * * * * * * * * * * * * * * * * * * * * * * * * * * * * * //

dimensions      [0 3 -1 0 0 0 0];

oriented        oriented;

internalField   nonuniform List<scalar> 
263100
(
-3.39027e-09
6.78055e-09
-3.39028e-09
1.79195e-09
-3.3657e-09
-1.79917e-09
4.3015e-09
-1.14408e-09
-1.35123e-09
5.97565e-09
-8.77434e-10
-7.82762e-10
7.19013e-09
-1.18429e-09
-1.63573e-11
8.23268e-09
-1.59821e-09
5.69349e-10
9.06849e-09
-2.00975e-09
1.18745e-09
9.4507e-09
-2.17767e-09
1.80881e-09
9.15243e-09
-1.94546e-09
2.25691e-09
8.07881e-09
-1.26734e-09
2.35399e-09
6.23639e-09
-3.30546e-10
2.18586e-09
3.79283e-09
6.80781e-10
1.7755e-09
1.11649e-09
1.4605e-09
1.22837e-09
-1.26118e-09
1.76895e-09
6.21003e-10
-2.78964e-09
1.46394e-09
7.65519e-11
-3.29737e-09
6.39139e-10
-1.19643e-10
-2.81432e-09
-3.84046e-10
-8.74989e-11
-1.74032e-09
-1.27313e-09
2.10433e-10
-7.9123e-10
-1.74517e-09
8.07205e-10
-6.88789e-10
-1.50663e-09
1.4152e-09
-1.90263e-09
-6.2183e-10
1.84659e-09
-4.51165e-09
6.95591e-10
1.92427e-09
-8.08948e-09
1.91439e-09
1.67419e-09
-1.14456e-08
2.26298e-09
1.10377e-09
-1.31391e-08
1.30376e-09
4.00288e-10
-1.18521e-08
-9.2121e-10
-3.5544e-10
-6.47156e-09
-4.3934e-09
-9.76809e-10
4.41984e-09
-7.43496e-09
-3.4462e-09
1.82e-08
-9.5457e-09
-4.22421e-09
4.85967e-08
-3.03865e-08
9.19784e-10
4.95854e-09
9.19782e-10
1.04555e-09
-4.41819e-09
9.5477e-10
1.1501e-09
-2.13173e-09
9.0843e-10
1.2927e-09
-1.80918e-09
8.14135e-10
1.6202e-09
-2.271e-09
7.83946e-10
2.17616e-09
-2.88081e-09
7.51086e-10
2.9083e-09
-3.4064e-09
6.88635e-10
3.72555e-09
-3.58056e-09
6.09482e-10
4.52945e-09
-3.2842e-09
5.58393e-10
5.1524e-09
-2.44248e-09
5.75471e-10
5.4871e-09
-1.28376e-09
6.4147e-10
5.46356e-09
-1.72917e-10
8.99856e-10
5.02327e-09
7.14175e-10
1.20884e-09
4.23888e-09
9.67272e-10
1.60788e-09
3.10677e-09
6.14159e-10
2.00328e-09
1.62439e-09
-1.54765e-10
2.29728e-09
2.66958e-11
-1.20941e-09
2.44371e-09
-1.51256e-09
-2.06621e-09
2.35272e-09
-2.89209e-09
-2.37706e-09
2.0316e-09
-4.04014e-09
-1.93762e-09
1.59902e-09
-5.01878e-09
-8.29938e-10
1.20657e-09
-5.83789e-09
5.54747e-10
9.79581e-10
-6.53274e-09
1.72034e-09
9.08305e-10
-6.75143e-09
1.52934e-09
9.71486e-10
-6.64755e-09
-4.22565e-11
1.26109e-09
-6.64359e-09
-2.90249e-09
1.9961e-09
-6.86197e-09
-7.03997e-09
2.88365e-09
-2.27162e-09
-1.71394e-08
5.13282e-09
1.27786e-08
-3.32204e-08
8.64329e-09
5.84099e-08
2.98132e-09
2.08783e-09
7.96943e-10
2.08782e-09
-2.82281e-10
-3.08005e-09
1.05614e-09
-1.90572e-09
-1.36219e-09
8.75643e-10
-2.96054e-09
-1.23764e-09
5.04722e-10
-3.63786e-09
-1.73292e-09
1.60454e-10
-3.81878e-09
-2.52858e-09
-1.50347e-10
-3.34838e-09
-3.36997e-09
-4.8613e-10
-2.1814e-09
-3.94541e-09
-7.81691e-10
-3.59533e-10
-4.18214e-09
-9.03727e-10
1.89927e-09
-3.87605e-09
-8.05273e-10
4.29654e-09
-3.17346e-09
-4.87862e-10
6.36978e-09
-2.27802e-09
5.13341e-11
7.79894e-09
-1.33164e-09
6.359e-10
8.03708e-09
-5.61498e-10
1.30965e-09
6.93326e-09
-3.5391e-11
1.7722e-09
4.59953e-09
1.95909e-10
2.00171e-09
1.40896e-09
1.72028e-10
1.82761e-09
-1.92536e-09
-4.72051e-12
1.29112e-09
-4.59769e-09
-2.58273e-10
5.71621e-10
-6.01793e-09
-3.49015e-10
-1.50514e-10
-5.99557e-09
-2.09185e-10
-6.25546e-10
-4.68498e-09
7.54054e-11
-8.13979e-10
-2.47398e-09
1.99335e-10
-6.72987e-10
-1.2182e-10
-4.50019e-10
-3.56018e-10
1.91544e-09
-2.02244e-09
-4.04205e-11
2.72824e-09
-3.82036e-09
1.2167e-10
-1.6983e-10
-4.56245e-09
4.37172e-10
-7.6783e-09
-1.31793e-08
3.56503e-09
-4.91517e-09
-4.46166e-08
8.64968e-09
3.54121e-08
1.80966e-08
2.04634e-09
-3.28263e-09
2.04634e-09
-1.35177e-09
-5.28307e-10
8.68805e-10
-3.60628e-09
3.03134e-10
6.0939e-10
-5.22777e-09
2.56143e-10
1.47649e-10
-6.45597e-09
-2.49756e-10
-2.35237e-10
-7.13527e-09
-1.20525e-09
-6.24506e-10
-7.05097e-09
-2.36087e-09
-1.07411e-09
-6.04919e-09
-3.47522e-09
-1.45294e-09
-4.20455e-09
-4.36397e-09
-1.64403e-09
-1.65147e-09
-4.80127e-09
-1.60931e-09
1.30628e-09
-4.73974e-09
-1.37312e-09
4.15133e-09
-4.15647e-09
-9.48385e-10
6.30315e-09
-3.05209e-09
-4.13224e-10
7.22391e-09
-1.51389e-09
4.97448e-11
6.69506e-09
2.74598e-10
2.36946e-10
4.77052e-09
2.02428e-09
1.1422e-10
1.91002e-09
3.24494e-09
-1.94462e-10
-1.08848e-09
3.70147e-09
-6.8994e-10
-3.41567e-09
3.27227e-09
-1.18589e-09
-4.3497e-09
2.18178e-09
-1.57967e-09
-3.53648e-09
8.22487e-10
-1.82819e-09
-1.21313e-09
-3.36594e-10
-1.89502e-09
1.98172e-09
-1.25843e-09
-1.72101e-09
5.05763e-09
-2.17817e-09
-1.33183e-09
7.20809e-09
-3.3086e-09
-8.48395e-10
9.05176e-09
-4.83935e-09
-8.08695e-10
1.18254e-08
-4.33136e-09
-2.98869e-09
3.12881e-09
-1.15638e-09
-3.31023e-09
-1.12028e-08
-2.73555e-08
-2.9134e-09
1.62217e-08
8.00066e-09
1.65281e-09
-6.57611e-09
1.65281e-09
-1.54618e-09
2.03044e-09
6.60939e-10
-3.6284e-09
1.93518e-09
4.68875e-10
-5.15607e-09
1.69698e-09
1.05329e-10
-6.39925e-09
1.17837e-09
-1.66588e-10
-7.26765e-09
1.11037e-10
-4.29722e-10
-7.61852e-09
-1.26804e-09
-7.23995e-10
-7.35495e-09
-2.80456e-09
-9.16551e-10
-6.41987e-09
-4.15187e-09
-1.12974e-09
-4.81364e-09
-5.20925e-09
-1.18102e-09
-2.73888e-09
-5.65931e-09
-1.13814e-09
-5.25651e-10
-5.33042e-09
-1.0223e-09
1.48172e-09
-4.11289e-09
-9.29609e-10
2.90724e-09
-2.04118e-09
-8.81235e-10
3.57177e-09
5.62558e-10
-9.35475e-10
3.28926e-09
3.38567e-09
-1.06192e-09
2.2357e-09
5.50596e-09
-1.19067e-09
8.98535e-10
6.37848e-09
-1.32335e-09
-7.66802e-11
5.75315e-09
-1.48955e-09
-1.92678e-10
3.96057e-09
-1.6471e-09
7.52537e-10
1.67824e-09
-1.78569e-09
2.72533e-09
-4.04774e-10
-1.88964e-09
5.26672e-09
-1.85943e-09
-1.92558e-09
7.62105e-09
-2.68593e-09
-1.83181e-09
8.84363e-09
-3.0405e-09
-1.4759e-09
8.57141e-09
-3.86424e-09
-6.88078e-10
9.29343e-09
-4.35866e-09
-6.79952e-10
6.11143e-09
3.72203e-09
-1.68178e-09
-6.67404e-09
-1.0197e-08
-4.35871e-09
9.47583e-09
8.32279e-11
7.52887e-10
-8.07067e-09
7.52886e-10
-9.69885e-10
3.54381e-09
2.28406e-10
-1.97395e-09
2.72068e-09
2.35833e-10
-2.6807e-09
2.24562e-09
1.75265e-10
-3.36984e-09
1.70048e-09
1.84074e-10
-4.08032e-09
6.48152e-10
1.90238e-10
-4.76945e-09
-7.65948e-10
2.03683e-10
-5.46016e-09
-2.35221e-09
2.54728e-10
-6.06267e-09
-3.82933e-09
2.96072e-10
-6.36413e-09
-5.06644e-09
1.74501e-10
-6.23327e-09
-5.79352e-09
1.90059e-11
-5.55597e-09
-5.79712e-09
-1.95077e-10
-4.29048e-09
-4.9146e-09
-4.48347e-10
-2.56345e-09
-3.03542e-09
-7.17432e-10
-6.329e-10
-4.65115e-10
-8.8765e-10
1.17705e-09
2.52985e-09
-9.391e-10
2.58333e-09
4.94303e-09
-8.28642e-10
3.4763e-09
6.13407e-09
-6.34183e-10
3.97645e-09
5.73932e-09
-4.72327e-10
4.29783e-09
4.06939e-09
-4.1653e-10
4.77479e-09
1.73552e-09
-5.20805e-10
5.59779e-09
-4.76569e-10
-7.37884e-10
6.62954e-09
-1.89968e-09
-9.78208e-10
7.59544e-09
-2.45874e-09
-1.17981e-09
7.96219e-09
-2.0124e-09
-1.38164e-09
6.20755e-09
-7.59745e-10
-1.33684e-09
3.31382e-09
-3.54037e-10
-1.0982e-09
2.4011e-09
6.89034e-09
-2.24328e-09
-4.22346e-09
1.58718e-09
-5.14769e-09
8.24644e-09
-2.98477e-09
-7.11746e-10
-6.63686e-09
-7.11747e-10
-7.94312e-11
3.48966e-09
-5.60962e-10
7.28915e-10
2.22339e-09
-2.95368e-10
1.46929e-09
1.61231e-09
-9.14197e-11
1.8687e-09
1.06815e-09
2.48448e-10
1.66115e-09
2.51356e-10
6.19687e-10
6.93947e-10
-7.58884e-10
9.75213e-10
-9.70728e-10
-1.93358e-09
1.26083e-09
-3.15188e-09
-3.06585e-09
1.43216e-09
-5.53707e-09
-4.08148e-09
1.41443e-09
-7.63581e-09
-4.87932e-09
1.19848e-09
-8.81474e-09
-5.35879e-09
7.54266e-10
-8.61461e-09
-5.30529e-09
2.03953e-10
-7.02788e-09
-4.4445e-09
-1.64567e-10
-4.38092e-09
-2.80336e-09
-2.95986e-10
-1.07964e-09
-6.2677e-10
-1.32314e-10
2.16255e-09
1.53019e-09
1.82654e-10
4.82965e-09
2.91507e-09
5.63605e-10
6.53373e-09
3.09607e-09
9.50706e-10
7.3003e-09
2.12907e-09
1.18526e-09
7.38247e-09
4.17813e-10
1.2471e-09
7.01413e-09
-1.21198e-09
1.11541e-09
6.41799e-09
-2.21914e-09
9.27295e-10
5.42744e-09
-2.22536e-09
7.68737e-10
4.0161e-09
-1.01416e-09
4.24362e-10
1.85834e-09
1.82617e-09
-4.17365e-10
-1.54488e-09
4.17326e-09
-1.11382e-09
-2.16792e-09
9.80776e-09
-2.28461e-09
-4.05239e-09
7.52953e-09
-4.04847e-09
6.45888e-09
-2.25747e-09
-2.4499e-09
-1.72773e-09
-2.4499e-09
6.53426e-10
2.02073e-09
-1.61956e-09
3.42431e-09
7.80719e-10
-1.31465e-09
5.73423e-09
2.28794e-10
-9.12907e-10
7.30502e-09
-1.42916e-10
-3.46375e-10
7.77494e-09
-4.11006e-10
2.05591e-10
6.8447e-09
-5.67668e-10
7.51903e-10
4.54131e-09
-7.53974e-10
1.13643e-09
1.18039e-09
-1.04026e-09
1.34769e-09
-2.68377e-09
-1.53043e-09
1.32519e-09
-6.32207e-09
-2.33025e-09
1.101e-09
-8.93982e-09
-3.47512e-09
7.45467e-10
-9.98469e-09
-4.67128e-09
4.21784e-10
-9.21995e-09
-5.39123e-09
1.92425e-10
-6.80614e-09
-5.35511e-09
1.47858e-10
-3.32789e-09
-4.4669e-09
3.71389e-10
5.13705e-10
-3.04311e-09
7.40967e-10
4.03883e-09
-1.75421e-09
1.15337e-09
6.61922e-09
-1.06977e-09
1.59482e-09
7.94561e-09
-1.16555e-09
1.97788e-09
8.07559e-09
-1.96875e-09
2.26648e-09
7.2852e-09
-2.89758e-09
2.48604e-09
5.7023e-09
-3.21484e-09
2.58858e-09
3.30412e-09
-2.31808e-09
2.50054e-09
2.39607e-10
-5.22937e-11
2.11177e-09
-2.36157e-09
3.30555e-09
1.13031e-09
-4.92978e-09
6.64219e-09
1.07291e-10
-3.8214e-09
9.23618e-09
-5.29161e-10
-2.60979e-09
6.9478e-09
-6.22492e-10
2.87736e-09
9.77563e-10
-3.47638e-09
5.23301e-09
-3.47638e-09
1.58705e-09
-7.18702e-10
-2.31251e-09
5.62118e-09
-1.21174e-09
-2.03116e-09
8.86785e-09
-1.52467e-09
-1.48283e-09
1.10531e-08
-1.3918e-09
-9.26176e-10
1.18442e-08
-8.11898e-10
-3.80068e-10
1.10206e-08
1.99236e-10
6.66908e-11
8.69325e-09
1.29998e-09
2.83261e-10
5.18886e-09
2.11476e-09
3.59124e-10
1.09832e-09
2.22501e-09
3.44685e-10
-2.85504e-09
1.37992e-09
2.52499e-10
-6.02913e-09
-4.24025e-10
1.31888e-10
-7.9503e-09
-2.83459e-09
9.28497e-11
-8.39884e-09
-5.09221e-09
1.57346e-10
-7.38778e-09
-6.64497e-09
2.86183e-10
-5.16756e-09
-7.12845e-09
4.48455e-10
-2.19639e-09
-6.65696e-09
6.49795e-10
9.82141e-10
-5.78387e-09
8.58452e-10
3.82299e-09
-5.04646e-09
1.14351e-09
5.84183e-09
-4.72491e-09
1.54851e-09
6.70126e-09
-4.71016e-09
1.89017e-09
6.20695e-09
-4.61272e-09
2.21759e-09
4.41123e-09
-3.83255e-09
2.42126e-09
1.62257e-09
-1.81076e-09
2.28869e-09
-1.48802e-09
1.19248e-09
1.87264e-09
-3.61118e-09
4.30944e-09
1.12563e-09
-4.22289e-09
6.3642e-09
8.95735e-10
-1.98206e-09
5.68465e-09
1.31648e-09
-6.00145e-11
2.6588e-09
2.37255e-09
2.19554e-10
2.60204e-09
-3.17513e-09
1.15893e-08
-3.17513e-09
2.42442e-09
-4.50983e-09
-1.80131e-09
6.55712e-09
-3.92483e-09
-1.4131e-09
9.70589e-09
-3.82721e-09
-8.39833e-10
1.16235e-08
-2.93672e-09
-3.6628e-10
1.21191e-08
-1.269e-09
-3.20323e-11
1.13563e-08
9.19401e-10
4.92425e-11
9.50954e-09
3.14031e-09
1.33045e-11
6.93457e-09
4.81314e-09
-1.16462e-10
4.00438e-09
5.38682e-09
-2.24683e-10
1.03439e-09
4.50034e-09
-1.43653e-10
-1.7008e-09
2.2571e-09
6.04918e-11
-4.07059e-09
-8.03735e-10
3.44946e-10
-5.87797e-09
-3.85579e-09
5.76564e-10
-6.90429e-09
-6.28749e-09
6.74206e-10
-6.92602e-09
-7.72613e-09
6.24727e-10
-5.74306e-09
-8.24331e-09
4.08874e-10
-3.55384e-09
-8.20111e-09
2.33742e-10
-8.74019e-10
-7.9021e-09
1.81753e-10
1.57224e-09
-7.42982e-09
2.64624e-10
3.16956e-09
-6.73819e-09
4.36522e-10
3.35991e-09
-5.40625e-09
6.08653e-10
2.23241e-09
-3.1683e-09
4.68279e-10
4.4791e-10
-6.86135e-11
4.69633e-11
-1.11362e-09
3.18728e-09
-4.2898e-10
-1.40221e-09
5.13001e-09
-5.27892e-10
-1.06847e-10
4.90057e-09
1.72144e-10
1.60721e-09
2.8674e-09
1.10682e-09
1.37918e-09
1.22664e-09
1.66352e-09
9.59581e-10
6.4127e-10
-6.31027e-10
1.28547e-08
-6.31028e-10
3.37806e-09
-9.19538e-09
6.78707e-10
5.76906e-09
-7.21838e-09
9.0473e-10
7.1549e-09
-6.35744e-09
1.14657e-09
7.59884e-09
-4.68398e-09
1.3058e-09
7.28072e-09
-2.18258e-09
1.23458e-09
6.58809e-09
6.85987e-10
9.29445e-10
5.83032e-09
3.44996e-09
4.51975e-10
5.17091e-09
5.40002e-09
7.67096e-11
4.47694e-09
6.11902e-09
-3.39106e-11
3.50464e-09
5.37651e-09
1.00369e-10
1.91606e-09
3.40598e-09
4.43741e-10
-4.25968e-10
7.63257e-10
7.78834e-10
-3.30338e-09
-1.85572e-09
8.80986e-10
-6.13159e-09
-4.16722e-09
7.11576e-10
-8.1575e-09
-5.96682e-09
2.70325e-10
-8.78134e-09
-7.30387e-09
-3.11785e-10
-7.85447e-09
-8.29387e-09
-8.30312e-10
-5.75765e-09
-8.86455e-09
-1.1308e-09
-3.3037e-09
-8.68075e-09
-1.19985e-09
-1.36404e-09
-7.48861e-09
-1.18659e-09
-3.66322e-10
-5.15971e-09
-1.24209e-09
-1.22892e-10
-1.90846e-09
-1.50143e-09
8.08219e-11
1.43996e-09
-1.71062e-09
7.97903e-10
4.06518e-09
-1.59339e-09
2.30621e-09
4.72729e-09
-1.10411e-09
3.83205e-09
3.67139e-09
-2.9545e-10
3.73104e-09
2.84218e-09
1.27032e-10
1.58424e-09
3.78782e-09
-4.13896e-10
3.6156e-09
-1.07203e-09
3.25835e-09
6.33867e-09
3.25835e-09
3.15254e-09
-1.29568e-08
3.86505e-09
2.2282e-09
-1.05363e-08
4.24059e-09
5.93689e-10
-8.63986e-09
3.91551e-09
-1.08099e-09
-6.3013e-09
3.29118e-09
-2.27194e-09
-3.31395e-09
2.32218e-09
-2.57723e-09
-1.96884e-10
1.18874e-09
-1.68194e-09
2.31681e-09
2.38971e-10
8.23531e-11
3.99277e-09
-3.55567e-10
2.09365e-09
4.63116e-09
-5.21817e-10
3.45465e-09
4.3598e-09
-3.42694e-10
3.40263e-09
3.61381e-09
-1.54287e-10
1.69862e-09
2.56217e-09
-9.33695e-11
-1.31396e-09
1.41336e-09
-2.54868e-10
-4.83154e-09
6.05705e-11
-7.0845e-10
-7.79061e-09
-1.68303e-09
-1.32291e-09
-9.44321e-09
-3.76292e-09
-1.8867e-09
-9.51094e-09
-5.90487e-09
-2.32006e-09
-8.25936e-09
-7.56482e-09
-2.55075e-09
-6.39043e-09
-8.05041e-09
-2.49938e-09
-4.51921e-09
-7.0144e-09
-2.34611e-09
-2.86361e-09
-4.59065e-09
-2.22566e-09
-1.17546e-09
-1.57895e-09
-2.01872e-09
9.41211e-10
9.873e-10
-1.66503e-09
3.45426e-09
2.46583e-09
-9.14751e-10
5.54234e-09
2.65806e-09
-2.01336e-11
5.96609e-09
2.68875e-09
5.57217e-10
4.18066e-09
4.18044e-09
4.45126e-10
1.67676e-09
6.45003e-09
-1.60414e-10
4.95073e-09
3.39685e-10
6.72456e-09
-7.1122e-09
6.72456e-09
1.23545e-09
-1.3354e-08
5.88089e-09
-3.73363e-09
-1.05899e-08
5.01831e-09
-8.03408e-09
-8.02262e-09
3.67933e-09
-1.13971e-08
-5.09418e-09
2.15278e-09
-1.3019e-08
-2.16173e-09
4.67201e-10
-1.25455e-08
1.49444e-10
-8.21615e-10
-9.98086e-09
1.56836e-09
-1.81767e-09
-5.97525e-09
2.39274e-09
-2.40684e-09
-1.68419e-09
2.82725e-09
-2.48837e-09
1.56818e-09
3.4411e-09
-2.33487e-09
2.9602e-09
4.44254e-09
-2.22183e-09
2.34431e-09
5.55827e-09
-2.38106e-09
2.22173e-10
6.29257e-09
-2.75765e-09
-2.51431e-09
6.00352e-09
-3.20688e-09
-5.00234e-09
4.36869e-09
-3.56421e-09
-6.6376e-09
1.60135e-09
-3.72998e-09
-7.27205e-09
-1.58106e-09
-3.691e-09
-7.11761e-09
-4.28072e-09
-3.44091e-09
-6.40647e-09
-5.61319e-09
-3.15132e-09
-5.20084e-09
-5.36286e-09
-2.86039e-09
-3.35068e-09
-3.96369e-09
-2.48035e-09
-7.39809e-10
-2.27702e-09
-1.91595e-09
2.32831e-09
-1.00476e-09
-1.07922e-09
5.1819e-09
-3.44236e-10
-4.69109e-11
6.56474e-09
4.24804e-10
8.4667e-10
5.79625e-09
2.23367e-09
1.21958e-09
3.79568e-09
5.09105e-09
1.086e-09
2.00553e-09
6.92327e-09
1.31335e-09
5.28163e-09
1.67195e-09
6.19416e-09
-1.95039e-08
6.19416e-09
-3.31858e-09
-6.66755e-09
2.81919e-09
-1.0871e-08
-4.44868e-09
1.4054e-09
-1.63841e-08
-2.0568e-09
-4.57988e-10
-1.99024e-08
3.22126e-10
-1.90271e-09
-2.08045e-08
1.9776e-09
-3.24146e-09
-1.88668e-08
2.4024e-09
-4.19469e-09
-1.4698e-08
1.8703e-09
-4.47476e-09
-9.37292e-09
1.36045e-09
-4.29679e-09
-4.20799e-09
1.67428e-09
-4.01598e-09
-3.38731e-10
3.35036e-09
-3.78238e-09
1.87546e-09
6.0304e-09
-3.80557e-09
2.44208e-09
9.02538e-09
-4.03681e-09
1.9333e-09
1.11488e-08
-4.35016e-09
9.52819e-10
1.15002e-08
-4.51887e-09
-1.80812e-10
9.90058e-09
-4.40119e-09
-1.32664e-09
6.78387e-09
-4.04017e-09
-2.48567e-09
3.0894e-09
-3.51551e-09
-3.67493e-09
-2.60312e-11
-3.06996e-09
-4.51843e-09
-1.96393e-09
-2.81044e-09
-4.48885e-09
-2.71814e-09
-2.67895e-09
-3.22295e-09
-2.74797e-09
-2.48618e-09
-8.39987e-10
-2.53075e-09
-2.13389e-09
1.95528e-09
-2.15362e-09
-1.6514e-09
3.98717e-09
-1.15773e-09
-1.22377e-09
4.37756e-09
1.07933e-09
-1.05049e-09
3.44524e-09
4.55932e-09
-1.39866e-09
2.40333e-09
7.5972e-09
-1.46903e-09
1.10655e-09
9.06971e-09
-8.53863e-10
8.25969e-09
-1.8748e-09
1.06989e-09
-2.16477e-08
1.06988e-09
-8.89396e-09
5.73027e-09
-2.44161e-09
-1.59747e-08
6.27633e-09
-3.65067e-09
-2.04106e-08
7.43744e-09
-5.06442e-09
-2.22733e-08
7.91757e-09
-5.73862e-09
-2.14487e-08
6.86231e-09
-5.7153e-09
-1.8198e-08
4.39062e-09
-5.24505e-09
-1.35222e-08
1.67191e-09
-4.48377e-09
-8.7286e-09
1.67586e-10
-3.60723e-09
-4.62501e-09
5.89869e-10
-3.02554e-09
-1.54354e-09
3.14001e-09
-2.87707e-09
6.94895e-10
6.9016e-09
-3.11504e-09
2.435e-09
1.07262e-08
-3.44578e-09
3.84743e-09
1.3278e-08
-3.54633e-09
4.85703e-09
1.37688e-08
-3.28295e-09
5.11947e-09
1.23242e-08
-2.69116e-09
4.23753e-09
9.59351e-09
-1.93324e-09
2.23943e-09
6.39115e-09
-1.30946e-09
-3.91824e-10
3.64179e-09
-1.0424e-09
-2.80421e-09
1.61583e-09
-1.17308e-09
-4.04637e-09
-4.83573e-11
-1.43325e-09
-3.8899e-09
-1.09154e-09
-1.81872e-09
-2.61447e-09
-1.65782e-09
-2.15466e-09
-1.11862e-09
-1.13848e-09
-2.51778e-09
-2.1598e-10
1.02915e-09
-3.09655e-09
-1.3935e-10
4.89715e-09
-3.90121e-09
-2.5547e-10
9.16022e-09
-4.49088e-09
-4.76145e-10
1.21399e-08
-4.32752e-09
-8.45748e-10
1.39361e-08
-4.50199e-09
1.20888e-08
-4.67956e-09
-4.48689e-09
-1.26782e-08
-4.4869e-09
-1.15924e-08
1.9745e-08
-6.91715e-09
-1.56644e-08
1.70453e-08
-6.70399e-09
-1.73636e-08
1.56527e-08
-6.52309e-09
-1.67485e-08
1.30199e-08
-5.72462e-09
-1.42914e-08
8.87879e-09
-4.48131e-09
-1.10477e-08
4.14866e-09
-3.00987e-09
-8.06002e-09
3.83644e-10
-1.7078e-09
-5.721e-09
-1.37902e-09
-8.007e-10
-4.13924e-09
-4.57135e-10
-5.42658e-10
-2.69593e-09
2.59442e-09
-9.05005e-10
-7.29098e-10
6.45206e-09
-1.52399e-09
1.94576e-09
9.98385e-09
-1.93892e-09
4.98566e-09
1.20436e-08
-1.81193e-09
7.46022e-09
1.24734e-08
-1.18588e-09
8.44859e-09
1.1592e-08
-2.63263e-10
7.53834e-09
9.96247e-09
5.34034e-10
4.90695e-09
8.09733e-09
9.18031e-10
1.4216e-09
6.23862e-09
8.8152e-10
-1.65722e-09
4.15685e-09
5.30904e-10
-3.59066e-09
1.79693e-09
8.10141e-11
-4.13659e-09
-2.9245e-10
-2.60822e-10
-4.03432e-09
-1.17609e-09
-5.92235e-10
-4.01088e-09
-7.10146e-11
-1.09943e-09
-4.38323e-09
3.27962e-09
-1.88638e-09
-4.58797e-09
7.62238e-09
-2.52815e-09
-4.04581e-09
1.12591e-08
-2.6482e-09
-3.09662e-09
1.36585e-08
-2.47474e-09
-1.2919e-09
1.485e-08
-2.72571e-09
1.0737e-08
5.32878e-11
-6.92279e-09
1.16303e-09
-6.9228e-09
-9.16692e-09
2.84473e-08
-6.46699e-09
-9.52906e-09
2.29663e-08
-5.56694e-09
-8.46892e-09
1.89843e-08
-4.40021e-09
-6.44781e-09
1.38336e-08
-2.84378e-09
-4.24574e-09
7.90979e-09
-1.24259e-09
-2.75834e-09
2.6216e-09
2.98489e-11
-2.6564e-09
-4.55175e-10
7.27111e-10
-3.42677e-09
-1.36935e-09
7.51318e-10
-4.22072e-09
3.23797e-10
4.2568e-12
-3.89707e-09
3.19689e-09
-9.34279e-10
-1.90729e-09
6.02815e-09
-1.57368e-09
1.53546e-09
8.08988e-09
-1.55665e-09
5.32401e-09
9.20892e-09
-9.62102e-10
8.11538e-09
9.6801e-09
-6.74787e-12
9.01091e-09
9.87405e-09
8.13481e-10
7.83119e-09
9.85888e-09
1.2744e-09
5.26154e-09
9.33498e-09
1.32331e-09
2.41765e-09
7.86893e-09
1.20501e-09
2.7494e-10
5.21513e-09
1.07566e-09
-9.6853e-10
1.92487e-09
1.10629e-09
-1.83414e-09
-8.18139e-10
1.38156e-09
-2.84623e-09
-1.89168e-09
1.71775e-09
-4.27744e-09
-4.41061e-10
1.79163e-09
-5.481e-09
2.73242e-09
1.74171e-09
-5.52426e-09
5.68861e-09
1.96842e-09
-4.27149e-09
7.40349e-09
2.59424e-09
-2.19186e-09
8.04643e-09
3.52348e-09
5.35357e-10
7.25881e-09
4.85468e-09
3.88596e-09
7.37827e-09
-5.44445e-09
1.2047e-08
-5.44445e-09
-3.62842e-09
3.04485e-08
-3.82773e-09
-1.95951e-09
2.40948e-08
-2.80707e-09
3.08651e-11
1.86902e-08
-1.70648e-09
1.83793e-09
1.2695e-08
-6.79291e-10
2.6542e-09
7.05472e-09
2.76857e-11
2.01408e-09
3.01438e-09
2.36232e-10
3.78629e-11
1.53644e-09
-2.61194e-11
-2.32048e-09
1.76377e-09
-7.8487e-10
-3.73343e-09
3.18193e-09
-1.45466e-09
-3.35375e-09
4.61329e-09
-1.8052e-09
-1.00656e-09
5.22058e-09
-1.54884e-09
2.29651e-09
5.51099e-09
-7.33854e-10
5.22718e-09
5.91986e-09
3.48172e-10
6.79031e-09
7.00851e-09
1.09788e-09
6.76711e-09
8.51979e-09
1.36686e-09
5.61491e-09
9.8487e-09
1.15195e-09
4.24791e-09
9.87548e-09
8.16212e-10
3.34188e-09
8.14477e-09
6.19798e-10
2.97924e-09
4.85544e-09
7.11584e-10
2.56883e-09
1.24746e-09
1.07675e-09
1.35171e-09
-1.11754e-09
1.50546e-09
-7.13395e-10
-1.54804e-09
1.71087e-09
-2.8514e-09
-1.05638e-12
1.68806e-09
-3.78614e-09
1.77081e-09
1.88682e-09
-2.92641e-09
2.23033e-09
2.58887e-09
-9.21161e-10
1.64151e-09
3.74653e-09
1.37289e-09
8.80544e-10
4.86122e-09
2.15108e-09
3.15353e-10
6.15471e-09
2.41958e-09
3.60891e-09
-3.17346e-09
1.83882e-08
-3.17347e-09
4.35983e-12
2.90589e-08
-1.8007e-09
2.52252e-09
2.32299e-08
-1.66477e-09
4.34342e-09
1.8147e-08
-1.2897e-09
5.46058e-09
1.26263e-08
-1.06075e-09
5.30904e-09
8.10709e-09
-9.13228e-10
3.90012e-09
5.32602e-09
-9.14804e-10
1.95011e-09
4.45072e-09
-9.75781e-10
2.43401e-10
4.4549e-09
-9.95295e-10
-4.11444e-10
4.48835e-09
-6.62069e-10
3.20364e-10
3.69508e-09
1.75871e-10
2.00061e-09
2.31739e-09
1.212e-09
3.38153e-09
1.81527e-09
2.30331e-09
3.6096e-09
2.42855e-09
3.25138e-09
2.87731e-09
4.63618e-09
3.09274e-09
1.89752e-09
7.31093e-09
2.17699e-09
1.55742e-09
9.10296e-09
1.07441e-09
2.12352e-09
8.84572e-09
4.5223e-10
3.24018e-09
6.7846e-09
2.31857e-10
3.89632e-09
3.95266e-09
2.34826e-10
3.10872e-09
1.77518e-09
2.48249e-10
9.21097e-10
1.22011e-09
-1.61045e-10
-1.81092e-09
2.15534e-09
-9.81657e-10
-3.43922e-09
3.5954e-09
-1.97802e-09
-3.13111e-09
3.55027e-09
-2.09761e-09
-1.48346e-09
2.1784e-09
-1.60631e-09
6.10214e-11
1.40001e-09
-1.31395e-09
3.38779e-10
2.28599e-09
-1.69416e-09
-9.63983e-10
5.11614e-09
-3.50867e-09
8.86944e-09
-7.42215e-09
-2.19543e-09
2.27721e-08
-2.19543e-09
1.36206e-09
2.71712e-08
-1.68405e-09
3.91515e-09
2.2428e-08
-1.76423e-09
5.90111e-09
1.75284e-08
-1.38078e-09
7.11823e-09
1.22418e-08
-8.4616e-10
7.28713e-09
8.06028e-09
-1.35365e-10
6.51731e-09
5.69082e-09
3.92174e-10
5.54543e-09
4.46261e-09
9.47672e-10
4.92487e-09
3.41475e-09
1.6488e-09
4.99612e-09
1.74525e-09
2.65999e-09
5.01946e-09
-2.29656e-10
3.88926e-09
4.13616e-09
-1.99213e-09
5.18033e-09
1.82998e-09
-1.51192e-09
5.62066e-09
-1.13219e-09
7.9489e-10
4.58326e-09
-3.61707e-09
4.18898e-09
2.91993e-09
-4.31006e-09
6.91484e-09
1.07735e-09
-3.04926e-09
7.79292e-09
3.76696e-11
-5.47126e-10
6.78981e-09
-4.57889e-10
1.50219e-09
5.13233e-09
-4.08794e-10
1.7069e-09
4.15194e-09
-4.15505e-10
-1.10418e-10
4.46017e-09
-8.78586e-10
-2.95771e-09
6.14243e-09
-2.08523e-09
-5.11022e-09
7.6409e-09
-3.3429e-09
-5.064e-09
7.30999e-09
-3.77088e-09
-3.14136e-09
5.11117e-09
-3.49416e-09
-1.51154e-09
3.81611e-09
-3.2785e-09
-1.15351e-09
5.09598e-09
-4.06475e-09
-2.40208e-09
9.31454e-09
-5.79028e-09
-3.91448e-09
1.49674e-08
-8.34895e-09
1.24089e-08
-7.46195e-09
-1.72638e-09
2.6217e-08
-1.72639e-09
2.26937e-09
2.40824e-08
-9.22388e-10
5.27037e-09
1.97248e-08
-3.11823e-10
7.6237e-09
1.44936e-08
6.6747e-10
9.0818e-09
9.15853e-09
1.61119e-09
9.44846e-09
5.31006e-09
2.36979e-09
9.28686e-09
2.87148e-09
2.96751e-09
9.06234e-09
1.15258e-09
3.52144e-09
8.79627e-09
-7.33831e-10
4.40163e-09
8.01157e-09
-2.6749e-09
5.19171e-09
5.76547e-09
-3.76749e-09
5.77062e-09
1.73137e-09
-3.17424e-09
5.20292e-09
-3.25879e-09
-5.22173e-11
3.51758e-09
-7.32393e-09
3.53701e-09
1.31083e-09
-9.30217e-09
6.97896e-09
-8.232e-10
-8.2657e-09
7.68171e-09
-1.81439e-09
-5.11264e-09
6.48833e-09
-1.85945e-09
-2.01899e-09
5.02864e-09
-1.34349e-09
-9.28747e-10
4.81677e-09
-7.85544e-10
-2.09166e-09
6.29988e-09
-9.95399e-10
-4.47388e-09
8.7963e-09
-1.96375e-09
-6.19045e-09
1.07423e-08
-2.89299e-09
-5.73118e-09
1.00448e-08
-2.87313e-09
-3.42122e-09
6.80789e-09
-1.81852e-09
-1.43828e-09
3.61075e-09
-4.93543e-10
-1.28098e-09
3.81927e-09
-1.7121e-10
-2.411e-09
7.38619e-09
-1.17029e-09
-3.26291e-09
1.23628e-08
-2.20598e-09
-1.67816e-09
1.58698e-08
-2.49669e-09
1.01349e-08
5.87941e-10
3.1883e-10
2.55708e-08
3.18826e-10
4.52513e-09
1.81693e-08
1.69115e-09
7.44552e-09
1.43117e-08
2.47851e-09
9.27629e-09
9.26133e-09
3.38733e-09
9.77945e-09
4.58005e-09
4.06129e-09
9.36898e-09
1.29883e-09
4.40788e-09
8.74897e-09
-8.04834e-10
4.28271e-09
8.34857e-09
-2.5517e-09
4.09111e-09
7.55206e-09
-3.85537e-09
3.90438e-09
5.52751e-09
-4.18477e-09
3.52065e-09
1.60071e-09
-2.50656e-09
2.65226e-09
-3.56504e-09
9.75915e-10
1.00255e-09
-8.31619e-09
5.58108e-09
-8.94259e-10
-1.08029e-08
8.32324e-09
-2.31065e-09
-9.99229e-09
8.57428e-09
-2.41634e-09
-6.81651e-09
6.26696e-09
-1.77117e-09
-3.58845e-09
3.73784e-09
-4.87674e-10
-2.44041e-09
3.33798e-09
5.32624e-10
-3.71773e-09
5.55713e-09
5.27297e-10
-6.1549e-09
9.39327e-09
-6.65517e-10
-7.49332e-09
1.1993e-08
-1.86754e-09
-6.24487e-09
1.14219e-08
-1.93785e-09
-2.85452e-09
7.27765e-09
-6.33877e-10
1.44938e-10
2.58819e-09
1.20915e-09
7.30618e-10
8.89267e-10
2.12494e-09
-6.60876e-10
3.41741e-09
1.78321e-09
-1.95027e-09
7.40435e-09
1.26166e-09
-1.41246e-09
9.8058e-09
2.00995e-09
7.11622e-10
1.02771e-08
3.45947e-09
7.52062e-09
3.31811e-09
3.0208e-09
1.95206e-08
3.02079e-09
6.46027e-09
1.03459e-08
4.36842e-09
8.12569e-09
7.63459e-09
4.99759e-09
8.19336e-09
4.11198e-09
5.06791e-09
6.99545e-09
1.19301e-09
4.57141e-09
5.5441e-09
-8.84595e-10
3.62144e-09
4.62029e-09
-2.59893e-09
2.70463e-09
4.02195e-09
-3.98014e-09
2.01338e-09
2.98328e-09
-4.43549e-09
1.60522e-09
6.26135e-10
-3.04539e-09
1.20423e-09
-2.97238e-09
6.7319e-10
4.05715e-10
-6.72892e-09
5.34859e-09
-6.28237e-10
-8.67887e-09
8.48346e-09
-9.63436e-10
-7.97775e-09
8.1752e-09
-5.63186e-10
-5.08044e-09
4.89604e-09
7.713e-10
-2.30502e-09
1.03414e-09
2.44795e-09
-1.97678e-09
-4.30727e-10
3.83101e-09
-4.19245e-09
1.92625e-09
3.61839e-09
-7.41669e-09
6.82375e-09
1.94893e-09
-9.21873e-09
1.10302e-08
1.56376e-10
-7.89216e-09
1.10035e-08
-3.46399e-10
-3.82278e-09
6.72916e-09
6.1317e-10
1.02277e-10
1.18064e-09
2.16122e-09
1.13058e-09
-1.44335e-09
2.99266e-09
-3.92358e-10
1.12754e-10
2.28956e-09
-1.95874e-09
4.10278e-09
8.71754e-10
-1.99011e-09
6.51905e-09
9.07608e-10
-8.02513e-10
6.76118e-09
1.84797e-09
2.67116e-10
7.61909e-09
1.57946e-09
6.99755e-09
7.82684e-10
4.96555e-09
9.58095e-09
4.96554e-09
6.0198e-09
4.07882e-09
5.19771e-09
6.12754e-09
2.6936e-09
4.81968e-09
4.75286e-09
1.39085e-09
4.08278e-09
2.7902e-09
4.74983e-11
3.09553e-09
1.21277e-09
-1.43752e-09
2.11795e-09
4.12359e-10
-3.35668e-09
1.54576e-09
1.77274e-11
-5.08507e-09
1.48691e-09
-9.44443e-10
-5.14811e-09
1.66196e-09
-3.04408e-09
-2.52151e-09
1.5631e-09
-5.41192e-09
1.84974e-09
1.17929e-09
-6.56284e-09
5.59099e-09
8.97492e-10
-5.40892e-09
6.01327e-09
1.30616e-09
-2.35467e-09
2.60174e-09
2.50972e-09
9.1544e-11
-1.58087e-09
4.02149e-09
6.49514e-11
-3.86348e-09
4.91523e-09
-2.85881e-09
-1.71048e-09
4.19493e-09
-6.76773e-09
3.57763e-09
2.2494e-09
-9.13138e-09
8.74669e-09
4.32727e-10
-7.99012e-09
9.49715e-09
3.83395e-10
-3.99947e-09
5.18036e-09
1.82334e-09
-1.13735e-10
-6.18809e-10
3.4526e-09
6.7704e-10
-4.44504e-09
4.82539e-09
-1.58228e-09
-3.1742e-09
3.98131e-09
-3.95496e-09
1.85862e-10
2.29134e-09
-4.58797e-09
2.92397e-09
1.80375e-09
-4.16892e-09
4.36416e-09
1.72757e-09
-3.11031e-09
4.71069e-09
9.83319e-10
-9.24218e-10
4.10868e-09
1.31569e-09
2.11113e-09
3.95538e-09
4.7329e-09
1.06835e-10
4.73289e-09
4.20853e-09
2.97333e-10
4.29124e-09
3.35432e-09
-2.79485e-10
3.81442e-09
1.74113e-09
-1.37209e-10
3.12908e-09
-6.35287e-11
-5.46149e-10
2.3867e-09
-1.33168e-09
-2.18849e-09
2.00778e-09
-1.99399e-09
-4.7041e-09
1.99832e-09
-2.94123e-09
-6.38286e-09
2.23336e-09
-4.65231e-09
-5.53001e-09
2.08122e-09
-6.67957e-09
-2.03703e-09
1.53126e-09
-7.41896e-09
1.81213e-09
7.66137e-10
-5.9978e-09
3.57333e-09
5.8641e-10
-2.72512e-09
1.52176e-09
1.20937e-09
1.76695e-10
-2.44371e-09
2.13456e-09
8.00378e-10
-4.94763e-09
2.73434e-09
-1.45018e-09
-3.32226e-09
1.70113e-09
-4.68697e-09
1.58531e-09
-6.65382e-11
-6.38266e-09
6.57836e-09
-1.3121e-09
-4.77273e-09
7.78146e-09
-6.51789e-10
-5.02201e-10
3.915e-09
1.30409e-09
3.08526e-09
-2.09672e-09
3.68174e-09
3.06482e-09
-6.09911e-09
5.49301e-09
-4.30856e-10
-6.00702e-09
5.05053e-09
-4.5187e-09
-2.21097e-09
3.11808e-09
-6.29255e-09
-5.69372e-10
2.52265e-09
-6.06521e-09
-6.83468e-10
3.37322e-09
-5.73984e-09
9.19629e-10
3.11181e-09
-3.10503e-09
-1.51636e-11
2.08332e-09
1.57758e-09
-5.52046e-09
4.93862e-09
-2.40941e-09
6.09206e-09
3.79162e-09
-7.48443e-09
3.7916e-09
2.79997e-09
-2.07904e-09
3.35379e-09
1.70558e-09
-2.02585e-09
2.82847e-09
4.11903e-10
-1.05617e-09
2.20118e-09
-8.47137e-10
-1.00346e-09
1.70552e-09
-1.94113e-09
-2.51101e-09
1.406e-09
-3.36535e-09
-4.5853e-09
1.29488e-09
-5.57629e-09
-5.177e-09
9.94413e-10
-8.10505e-09
-3.2297e-09
2.17869e-10
-9.63384e-09
1.60255e-10
-6.78698e-10
-8.79741e-09
1.89901e-09
-9.32934e-10
-5.54298e-09
4.16933e-10
-1.07061e-10
-1.71857e-09
-3.2946e-09
9.83396e-10
2.36267e-10
-6.31218e-09
1.90551e-09
-3.967e-10
-5.97573e-09
1.6536e-09
-2.14719e-09
-2.3074e-09
7.29053e-10
-2.7202e-09
2.11409e-09
3.84745e-11
-3.47065e-10
3.68169e-09
5.18165e-10
4.24236e-09
9.78392e-10
2.20817e-09
7.50451e-09
-3.5283e-09
4.17545e-09
6.87522e-09
-6.89413e-09
5.42117e-09
2.62078e-09
-6.37509e-09
4.52544e-09
-2.55347e-09
-3.40604e-09
2.56879e-09
-5.69348e-09
-3.35776e-10
1.26026e-09
-6.17824e-09
-1.42949e-09
1.33968e-09
-5.29484e-09
-3.77837e-09
2.20546e-09
-4.28084e-09
-2.76578e-09
2.66483e-09
-1.28084e-09
-6.11238e-09
3.09045e-09
1.10526e-09
-1.17213e-08
3.80778e-09
-4.92984e-10
-8.16596e-10
2.43374e-09
-1.23597e-08
2.43372e-09
1.54705e-09
-2.95901e-09
1.7526e-09
7.79767e-10
-2.27759e-09
1.00699e-09
2.11582e-10
-7.60905e-10
2.61782e-10
-3.90415e-10
-4.36736e-10
2.4792e-11
-1.50349e-09
-1.39527e-09
-1.27009e-11
-3.70994e-09
-2.33446e-09
-5.42163e-11
-6.73136e-09
-1.91593e-09
-2.4926e-10
-9.19663e-09
-9.2605e-11
-6.80988e-10
-9.45536e-09
8.34062e-10
-4.23636e-10
-7.01963e-09
-1.18834e-09
6.43693e-10
-3.14741e-09
-5.41523e-09
1.9526e-09