/*--------------------------------*- C++ -*----------------------------------*\
| =========                 |                                                 |
| \\      /  F ield         | OpenFOAM: The Open Source CFD Toolbox           |
|  \\    /   O peration     | Version:  2312                                  |
|   \\  /    A nd           | Website:  www.openfoam.com                      |
|    \\/     M anipulation  |                                                 |
\*---------------------------------------------------------------------------*/
FoamFile
{
    version     2.0;
    format      ascii;
    arch        "LSB;label=32;scalar=64";
    class       volVectorField;
    location    "1.553784609827";
    object      U;
}
// * * * * * * * * * * * * * * * * * * * * * * * * * * * * * * * * * * * * * //

dimensions      [0 1 -1 0 0 0 0];

internalField   nonuniform List<vector> 
90000
(
(-3.97081e-05 4.82967e-05 -3.97081e-05)
(-1.48206e-05 -1.92207e-05 -2.50557e-05)
(4.27839e-05 -4.37572e-06 -2.12006e-05)
(4.9353e-05 -2.78938e-06 -1.76848e-05)
(6.61688e-05 -4.74125e-06 -1.24846e-05)
(7.69252e-05 -7.46328e-06 -6.44983e-06)
(8.64676e-05 -1.0134e-05 -5.80092e-07)
(9.29267e-05 -1.13766e-05 4.59123e-06)
(9.36963e-05 -1.01735e-05 8.43994e-06)
(8.6962e-05 -6.2033e-06 1.04757e-05)
(7.22661e-05 -3.88531e-07 1.08764e-05)
(5.05042e-05 5.95974e-06 9.86912e-06)
(2.42821e-05 1.12949e-05 7.62103e-06)
(-1.7843e-06 1.37678e-05 4.29743e-06)
(-2.18434e-05 1.24129e-05 5.20373e-07)
(-3.21261e-05 7.76042e-06 -2.48078e-06)
(-3.1693e-05 9.68489e-07 -3.55965e-06)
(-2.28044e-05 -5.63592e-06 -2.23989e-06)
(-1.13722e-05 -9.31156e-06 1.51236e-06)
(-4.90078e-06 -8.39372e-06 5.95317e-06)
(-9.76465e-06 -3.10498e-06 8.9487e-06)
(-2.95143e-05 5.0124e-06 9.05108e-06)
(-6.2247e-05 1.31376e-05 6.00372e-06)
(-9.8666e-05 1.67806e-05 -6.13082e-07)
(-0.000125909 1.22783e-05 -9.53979e-06)
(-0.000130673 -8.69991e-07 -1.90496e-05)
(-9.51043e-05 -2.08432e-05 -3.13641e-05)
(-4.34553e-05 -2.75473e-05 -6.61879e-05)
(0.000150045 -1.59795e-05 -0.000145868)
(0.000164385 0.000296629 -0.000334694)
(5.83555e-06 7.23107e-05 5.83554e-06)
(1.0946e-05 -4.32738e-05 6.19411e-06)
(1.07541e-05 -1.84331e-05 5.43325e-06)
(1.19693e-05 -1.49341e-05 4.04577e-06)
(1.42307e-05 -1.90132e-05 3.21004e-06)
(1.86309e-05 -2.41771e-05 2.30159e-06)
(2.51327e-05 -2.87274e-05 1.3732e-06)
(3.29918e-05 -3.01316e-05 4.94812e-07)
(4.12453e-05 -2.68417e-05 -9.74749e-08)
(4.85119e-05 -1.82547e-05 2.08358e-07)
(5.33562e-05 -5.9568e-06 1.27842e-06)
(5.49622e-05 6.55925e-06 3.79424e-06)
(5.2683e-05 1.53531e-05 6.94298e-06)
(4.65842e-05 1.8162e-05 1.11005e-05)
(3.70755e-05 1.34741e-05 1.51092e-05)
(2.39859e-05 2.93368e-06 1.80691e-05)
(8.38786e-06 -9.66365e-06 1.96605e-05)
(-7.49922e-06 -2.03766e-05 1.90902e-05)
(-2.21461e-05 -2.47817e-05 1.63016e-05)
(-3.47748e-05 -2.04611e-05 1.22802e-05)
(-4.53656e-05 -8.48725e-06 8.32947e-06)
(-5.43753e-05 7.97706e-06 5.67019e-06)
(-6.22303e-05 2.2269e-05 4.27179e-06)
(-6.70099e-05 2.44317e-05 4.73906e-06)
(-6.75885e-05 1.05673e-05 7.75711e-06)
(-6.74365e-05 -1.86636e-05 1.69401e-05)
(-5.75823e-05 -6.60265e-05 3.09344e-05)
(-9.5679e-05 -0.00013338 7.00717e-05)
(6.60524e-05 -0.000196139 8.54814e-05)
(0.000147568 0.000608871 4.73777e-05)
(2.08496e-05 2.96361e-05 2.08496e-05)
(1.3281e-05 -4.01073e-05 1.28921e-05)
(-1.6554e-05 -2.05654e-05 1.10643e-05)
(-2.42288e-05 -1.82542e-05 7.67629e-06)
(-3.32906e-05 -2.29723e-05 4.37111e-06)
(-3.78165e-05 -2.96513e-05 5.54618e-07)
(-3.65766e-05 -3.59703e-05 -3.17398e-06)
(-2.85043e-05 -3.90489e-05 -6.29023e-06)
(-1.36565e-05 -3.80832e-05 -8.29063e-06)
(6.97459e-06 -3.17173e-05 -8.50813e-06)
(3.07749e-05 -2.15068e-05 -6.75318e-06)
(5.36427e-05 -1.07269e-05 -3.046e-06)
(7.179e-05 -2.396e-06 3.00376e-06)
(8.06707e-05 1.42205e-06 8.5162e-06)
(7.64459e-05 9.08928e-08 1.30101e-05)
(5.89758e-05 -4.98479e-06 1.61377e-05)
(3.07005e-05 -1.14054e-05 1.61932e-05)
(-3.05652e-06 -1.69653e-05 1.30959e-05)
(-3.41227e-05 -1.86289e-05 7.87881e-06)
(-5.50653e-05 -1.50408e-05 1.88816e-06)
(-6.21365e-05 -6.71215e-06 -3.10654e-06)
(-5.51484e-05 4.01752e-06 -5.05076e-06)
(-3.66412e-05 1.11311e-05 -4.06075e-06)
(-1.2755e-05 6.26515e-06 -1.32097e-06)
(1.02036e-05 -1.1096e-05 1.50515e-06)
(2.46179e-05 -3.53266e-05 2.78563e-06)
(3.67795e-05 -6.19726e-05 9.02499e-06)
(-4.27654e-05 -0.00018495 4.51008e-05)
(-8.85505e-05 -0.00044142 0.000109642)
(-1.95175e-05 0.000495049 0.000179667)
(2.29247e-05 -1.27831e-05 2.29247e-05)
(9.49709e-06 -1.85249e-05 1.41175e-05)
(-3.098e-05 -5.64868e-06 1.18424e-05)
(-4.40842e-05 -5.26672e-06 8.22837e-06)
(-5.85512e-05 -1.03644e-05 3.89145e-06)
(-6.83831e-05 -1.90469e-05 -7.35995e-07)
(-7.16507e-05 -2.90784e-05 -4.91937e-06)
(-6.64234e-05 -3.7541e-05 -8.68049e-06)
(-5.22666e-05 -4.32219e-05 -1.14551e-05)
(-3.01219e-05 -4.3946e-05 -1.28181e-05)
(-2.10257e-06 -4.02267e-05 -1.26209e-05)
(2.76622e-05 -3.30673e-05 -1.05296e-05)
(5.34192e-05 -2.29416e-05 -7.01973e-06)
(6.93101e-05 -1.17067e-05 -3.37729e-06)
(7.14391e-05 -3.81798e-07 -9.33882e-08)
(5.88322e-05 9.67538e-06 3.72141e-07)
(3.40516e-05 1.57175e-05 -9.32123e-07)
(3.48848e-06 1.71507e-05 -3.63849e-06)
(-2.43958e-05 1.43787e-05 -6.75733e-06)
(-4.14539e-05 8.91462e-06 -9.42325e-06)
(-4.23284e-05 3.01339e-06 -1.11328e-05)
(-2.61258e-05 -1.70582e-06 -1.12687e-05)
(3.07012e-06 -6.05296e-06 -9.21965e-06)
(3.60561e-05 -1.46149e-05 -5.2576e-06)
(6.26398e-05 -2.8763e-05 1.35906e-07)
(8.07731e-05 -4.47013e-05 6.63218e-07)
(0.000108789 -3.87749e-05 -1.92581e-05)
(0.000117189 -6.06331e-05 -2.13387e-05)
(-6.76777e-05 -0.000393085 9.63893e-07)
(-0.000123813 0.000238512 8.84933e-05)
(1.9715e-05 -5.03845e-05 1.9715e-05)
(6.00546e-06 8.55174e-06 1.23382e-05)
(-3.13162e-05 1.18984e-05 1.07788e-05)
(-4.37412e-05 1.0629e-05 8.14347e-06)
(-5.77606e-05 5.58744e-06 5.16119e-06)
(-6.85005e-05 -4.24121e-06 1.87042e-06)
(-7.47722e-05 -1.74522e-05 -1.34472e-06)
(-7.54014e-05 -3.13353e-05 -3.2919e-06)
(-6.95713e-05 -4.29408e-05 -6.29671e-06)
(-5.67711e-05 -5.08897e-05 -8.50519e-06)
(-3.81224e-05 -5.32506e-05 -1.02507e-05)
(-1.61832e-05 -4.8818e-05 -1.10778e-05)
(5.47964e-06 -3.70754e-05 -1.16793e-05)
(2.28912e-05 -1.81942e-05 -1.19648e-05)
(3.35591e-05 5.66404e-06 -1.24036e-05)
(3.54386e-05 2.92994e-05 -1.26991e-05)
(2.81934e-05 4.67632e-05 -1.23807e-05)
(1.52934e-05 5.37845e-05 -1.20288e-05)
(2.63031e-06 4.82814e-05 -1.2029e-05)
(-3.81479e-06 3.29823e-05 -1.20169e-05)
(3.14332e-07 1.35109e-05 -1.17785e-05)
(1.61586e-05 -4.4701e-06 -1.11177e-05)
(3.99658e-05 -1.75121e-05 -9.92308e-06)
(6.54495e-05 -2.6902e-05 -7.59557e-06)
(8.43748e-05 -3.48628e-05 -2.83852e-06)
(8.86839e-05 -4.89776e-05 5.88306e-06)
(8.43709e-05 -5.06766e-05 3.72591e-06)
(0.000115077 3.14679e-05 -8.95807e-06)
(-1.5439e-05 -0.00017714 -1.88228e-05)
(-9.28738e-05 0.00010925 1.81308e-05)
(9.8209e-06 -7.60558e-05 9.82089e-06)
(1.57902e-06 2.99848e-05 6.0258e-06)
(-1.77124e-05 2.50885e-05 6.13035e-06)
(-2.29964e-05 2.15154e-05 5.80553e-06)
(-3.00005e-05 1.63745e-05 6.05008e-06)
(-3.70015e-05 5.91234e-06 6.09835e-06)
(-4.40529e-05 -8.99691e-06 5.95067e-06)
(-5.09974e-05 -2.57891e-05 5.74662e-06)
(-5.76004e-05 -4.07118e-05 5.23199e-06)
(-6.23251e-05 -5.2733e-05 3.15416e-06)
(-6.33505e-05 -5.90637e-05 -5.02254e-07)
(-5.94583e-05 -5.74332e-05 -4.07814e-06)
(-4.98181e-05 -4.64041e-05 -7.82626e-06)
(-3.47644e-05 -2.52234e-05 -1.13997e-05)
(-1.62343e-05 3.84708e-06 -1.37411e-05)
(2.96046e-06 3.38806e-05 -1.45922e-05)
(1.93853e-05 5.7405e-05 -1.33846e-05)
(3.06429e-05 6.77892e-05 -1.08283e-05)
(3.72978e-05 6.18459e-05 -7.92369e-06)
(4.13178e-05 4.31391e-05 -5.44635e-06)
(4.53001e-05 1.87002e-05 -4.0991e-06)
(5.19005e-05 -4.00476e-06 -3.70895e-06)
(6.14412e-05 -2.00605e-05 -3.94371e-06)
(7.1742e-05 -2.76003e-05 -4.46059e-06)
(7.92454e-05 -2.68137e-05 -5.44855e-06)
(7.85971e-05 -2.47686e-05 -4.07174e-06)
(3.42526e-05 -2.98004e-05 -3.44936e-07)
(4.40367e-05 5.00834e-05 -1.42935e-05)
(-9.04282e-06 -3.14969e-05 -3.07662e-05)
(-5.87697e-05 8.75004e-05 -1.81505e-05)
(-6.30164e-06 -7.83391e-05 -6.30165e-06)
(-5.85836e-06 3.73348e-05 -4.99263e-06)
(3.95901e-06 2.64472e-05 -2.72519e-06)
(1.12027e-05 2.08062e-05 -8.83747e-07)
(1.73156e-05 1.53008e-05 2.63566e-06)
(1.86488e-05 5.648e-06 6.47264e-06)
(1.29928e-05 -7.4681e-06 1.00936e-05)
(-1.91902e-07 -2.23312e-05 1.2888e-05)
(-1.97877e-05 -3.63692e-05 1.43144e-05)
(-4.31794e-05 -4.81765e-05 1.37584e-05)
(-6.63082e-05 -5.59212e-05 1.13261e-05)
(-8.34623e-05 -5.79932e-05 6.3932e-06)
(-8.88162e-05 -5.2417e-05 8.45191e-08)
(-7.98543e-05 -3.73985e-05 -5.18576e-06)
(-5.83061e-05 -1.41154e-05 -8.13289e-06)
(-2.79733e-05 1.28746e-05 -8.28014e-06)
(5.70356e-06 3.62357e-05 -6.1131e-06)
(3.59379e-05 4.92261e-05 -2.15462e-06)
(5.79499e-05 4.77566e-05 2.3471e-06)
(7.02614e-05 3.40246e-05 5.85665e-06)
(7.43013e-05 1.34229e-05 8.11955e-06)
(7.26512e-05 -6.92975e-06 8.84219e-06)
(6.77467e-05 -2.02675e-05 8.76017e-06)
(5.9762e-05 -2.35282e-05 8.24514e-06)
(4.74174e-05 -1.49413e-05 5.77132e-06)
(3.5705e-05 8.22453e-06 -7.47255e-07)
(-4.58515e-06 2.24045e-05 -5.64986e-06)
(-1.9216e-05 8.83076e-05 -1.72723e-05)
(-3.31112e-05 5.89321e-05 -2.84859e-05)
(-3.55334e-05 7.59123e-05 -1.72707e-05)
(-2.45761e-05 -4.73895e-05 -2.45761e-05)
(-1.55817e-05 2.95778e-05 -1.86477e-05)
(2.52529e-05 1.59909e-05 -1.57707e-05)
(4.59124e-05 9.95435e-06 -1.19433e-05)
(6.60823e-05 4.81708e-06 -6.18549e-06)
(7.67923e-05 -1.20535e-06 1.37134e-07)
(7.48021e-05 -7.72196e-06 6.12796e-06)
(5.85702e-05 -1.54534e-05 1.11477e-05)
(2.98468e-05 -2.31917e-05 1.42672e-05)
(-7e-06 -3.08852e-05 1.4908e-05)
(-4.55734e-05 -3.86624e-05 1.32005e-05)
(-7.78529e-05 -4.6161e-05 9.74437e-06)
(-9.67777e-05 -5.11724e-05 5.93883e-06)
(-9.8319e-05 -4.97924e-05 2.19952e-06)
(-8.19723e-05 -4.08545e-05 -5.46175e-07)
(-5.1727e-05 -2.50114e-05 -7.70363e-07)
(-1.40242e-05 -6.96197e-06 1.19789e-06)
(2.38399e-05 6.63499e-06 4.5516e-06)
(5.4946e-05 1.13135e-05 8.48773e-06)
(7.45791e-05 6.24556e-06 1.21903e-05)
(8.15874e-05 -6.10721e-06 1.54678e-05)
(7.80012e-05 -1.95743e-05 1.80261e-05)
(6.59161e-05 -2.64825e-05 1.93572e-05)
(4.60237e-05 -2.21472e-05 1.88436e-05)
(1.7003e-05 -5.32742e-06 1.58646e-05)
(-1.11491e-05 2.82144e-05 8.59386e-06)
(-4.07128e-05 5.97854e-05 1.33823e-06)
(-4.89641e-05 0.000101403 -7.28742e-06)
(-3.26986e-05 8.26959e-05 -8.5493e-06)
(-1.37572e-05 4.82635e-05 4.47067e-06)
(-3.69945e-05 1.45183e-05 -3.69945e-05)
(-1.92853e-05 8.48707e-06 -2.89335e-05)
(4.42552e-05 -1.35382e-06 -2.60548e-05)
(7.24452e-05 -5.89013e-06 -2.0683e-05)
(0.000100727 -7.64374e-06 -1.43584e-05)
(0.000115982 -6.44728e-06 -7.55506e-06)
(0.000116056 -2.5717e-06 -1.11174e-06)
(0.000100183 1.91037e-06 3.43435e-06)
(7.05603e-05 4.54797e-06 6.75546e-06)
(3.19018e-05 2.94255e-06 8.71199e-06)
(-9.35235e-06 -4.97524e-06 9.18927e-06)
(-4.58697e-05 -1.9506e-05 8.44733e-06)
(-7.1689e-05 -3.77381e-05 7.45483e-06)
(-8.36152e-05 -5.30517e-05 6.47534e-06)
(-8.0574e-05 -6.13511e-05 5.5401e-06)
(-6.3905e-05 -5.98731e-05 4.78417e-06)
(-3.73009e-05 -5.04774e-05 5.03541e-06)
(-5.71435e-06 -3.93747e-05 6.09635e-06)
(2.51057e-05 -3.17408e-05 7.82181e-06)
(4.97799e-05 -3.02116e-05 1.03095e-05)
(6.44056e-05 -3.38283e-05 1.26853e-05)
(6.62467e-05 -3.78679e-05 1.51971e-05)
(5.44563e-05 -3.58537e-05 1.686e-05)
(3.10411e-05 -2.18366e-05 1.60714e-05)
(-6.77886e-08 4.84132e-06 1.30382e-05)
(-2.77025e-05 3.98703e-05 7.33423e-06)
(-4.33019e-05 6.86715e-05 4.72298e-06)
(-3.44698e-05 7.71192e-05 6.39209e-06)
(-6.10113e-06 4.8251e-05 1.40846e-05)
(4.79162e-06 9.1935e-06 1.72332e-05)
(-3.69802e-05 8.76652e-05 -3.69802e-05)
(-1.39209e-05 -2.45909e-05 -2.74061e-05)
(5.40414e-05 -2.47102e-05 -2.35824e-05)
(8.14355e-05 -2.61735e-05 -1.79943e-05)
(0.000107916 -2.11105e-05 -1.22924e-05)
(0.000119991 -9.59478e-06 -7.21981e-06)
(0.000118543 6.69371e-06 -3.07245e-06)
(0.00010525 2.41569e-05 1.04099e-07)
(8.28227e-05 3.72859e-05 1.98797e-06)
(5.50124e-05 4.1167e-05 3.31989e-06)
(2.51921e-05 3.25054e-05 5.72332e-06)
(-3.80694e-06 1.16236e-05 8.46541e-06)
(-2.95082e-05 -1.69449e-05 1.05511e-05)
(-5.03639e-05 -4.53386e-05 1.18568e-05)
(-6.4708e-05 -6.68867e-05 1.18306e-05)
(-7.01763e-05 -7.77458e-05 1.03998e-05)
(-6.44722e-05 -7.84766e-05 7.61702e-06)
(-4.73025e-05 -7.35998e-05 4.35122e-06)
(-2.23712e-05 -6.76447e-05 2.01774e-06)
(4.37252e-06 -6.27448e-05 1.4205e-06)
(2.56548e-05 -5.84893e-05 2.0464e-06)
(3.49088e-05 -5.09821e-05 2.56853e-06)
(2.94499e-05 -3.60518e-05 1.26076e-06)
(1.36261e-05 -1.07244e-05 -1.53345e-06)
(-4.76033e-06 2.22647e-05 -4.82795e-06)
(-1.55746e-05 4.83098e-05 -5.55482e-06)
(-1.05712e-05 5.61027e-05 -5.82354e-07)
(9.10883e-06 3.78205e-05 6.53689e-06)
(1.92423e-05 9.19589e-06 1.14516e-05)
(8.92593e-06 -2.24521e-06 5.19829e-06)
(-1.61316e-05 0.000132297 -1.61316e-05)
(7.78811e-06 -6.82218e-05 -4.60853e-06)
(5.19034e-05 -5.54449e-05 -1.27702e-06)
(6.51038e-05 -5.09993e-05 2.11614e-06)
(7.45835e-05 -3.80636e-05 5.18798e-06)
(7.4846e-05 -1.64109e-05 6.21744e-06)
(6.94821e-05 1.04643e-05 5.29502e-06)
(6.2067e-05 3.57077e-05 3.39667e-06)
(5.49749e-05 5.45315e-05 2.50106e-06)
(4.8373e-05 6.14163e-05 3.67256e-06)
(4.03968e-05 5.28321e-05 6.07855e-06)
(2.80686e-05 3.04233e-05 9.90892e-06)
(8.69443e-06 -1.38118e-07 1.35915e-05)
(-1.76506e-05 -3.13943e-05 1.51645e-05)
(-4.7107e-05 -5.65628e-05 1.42554e-05)
(-7.24167e-05 -7.36663e-05 1.05193e-05)
(-8.63013e-05 -8.31285e-05 4.90529e-06)
(-8.48406e-05 -8.74323e-05 -8.48567e-07)
(-6.92316e-05 -8.77888e-05 -5.47243e-06)
(-4.57448e-05 -8.32773e-05 -8.20564e-06)
(-2.2702e-05 -7.27763e-05 -9.92062e-06)
(-7.12431e-06 -5.35384e-05 -1.16011e-05)
(-1.54536e-06 -2.48077e-05 -1.42092e-05)
(-7.64104e-07 9.35786e-06 -1.58469e-05)
(2.73003e-06 3.90013e-05 -1.52613e-05)
(1.47039e-05 5.04346e-05 -1.16047e-05)
(3.25365e-05 4.0853e-05 -4.98705e-06)
(4.19111e-05 2.252e-05 1.65271e-07)
(2.72038e-05 1.839e-05 -2.19524e-06)
(6.4104e-06 2.26315e-05 -7.50745e-06)
(2.21773e-05 0.000110947 2.21773e-05)
(3.65572e-05 -0.000112524 2.86475e-05)
(2.70869e-05 -9.06845e-05 3.24437e-05)
(1.52117e-05 -7.69826e-05 3.04307e-05)
(-2.92274e-06 -5.71981e-05 2.6455e-05)
(-1.77763e-05 -2.93212e-05 1.9676e-05)
(-2.59859e-05 1.80541e-06 1.14002e-05)
(-2.32194e-05 2.95508e-05 4.49192e-06)
(-9.19567e-06 4.84096e-05 -2.36167e-07)
(1.08986e-05 5.54563e-05 -1.21623e-06)
(2.92851e-05 4.98412e-05 1.17781e-06)
(3.69078e-05 3.48237e-05 4.42662e-06)
(2.81918e-05 1.42865e-05 6.92846e-06)
(4.00799e-06 -6.85834e-06 7.16586e-06)
(-2.99562e-05 -2.6385e-05 4.07852e-06)
(-6.38794e-05 -4.40141e-05 -9.20685e-07)
(-8.79143e-05 -6.05585e-05 -6.36167e-06)
(-9.68037e-05 -7.53178e-05 -1.12722e-05)
(-9.04483e-05 -8.56131e-05 -1.45742e-05)
(-7.4151e-05 -8.6205e-05 -1.58992e-05)
(-5.48698e-05 -7.38878e-05 -1.66865e-05)
(-3.6937e-05 -4.90695e-05 -1.75377e-05)
(-2.02946e-05 -1.57535e-05 -1.73974e-05)
(-1.91749e-06 1.63026e-05 -1.58524e-05)
(2.1795e-05 3.60468e-05 -1.06787e-05)
(4.66988e-05 3.81389e-05 -4.12216e-06)
(6.08905e-05 3.06601e-05 2.0974e-06)
(5.29971e-05 3.46565e-05 3.07571e-06)
(2.80568e-05 5.45177e-05 -8.48776e-07)
(7.30385e-06 4.55188e-05 2.51385e-06)
(6.12865e-05 4.781e-06 6.12865e-05)
(5.33255e-05 -0.000139334 5.61009e-05)
(-2.26247e-05 -0.000113337 5.01389e-05)
(-5.73646e-05 -9.04799e-05 4.01775e-05)
(-9.8816e-05 -6.37578e-05 2.83129e-05)
(-0.000124371 -3.35456e-05 1.46628e-05)
(-0.000130498 -5.68958e-06 1.64568e-06)
(-0.000115008 1.71379e-05 -8.67379e-06)
(-8.10903e-05 3.13421e-05 -1.40437e-05)
(-3.77755e-05 3.69499e-05 -1.53747e-05)
(2.31688e-06 3.82778e-05 -1.42507e-05)
(2.65783e-05 3.91613e-05 -1.29108e-05)
(2.98714e-05 3.89539e-05 -1.26009e-05)
(1.50791e-05 3.65312e-05 -1.38407e-05)
(-1.06737e-05 2.79621e-05 -1.61389e-05)
(-3.81196e-05 1.1593e-05 -1.84417e-05)
(-5.95957e-05 -1.22375e-05 -1.99188e-05)
(-7.11146e-05 -3.89446e-05 -2.04164e-05)
(-7.31909e-05 -6.06284e-05 -1.97618e-05)
(-6.8374e-05 -6.96278e-05 -1.88739e-05)
(-5.85703e-05 -6.28034e-05 -1.78716e-05)
(-4.33694e-05 -4.31977e-05 -1.63946e-05)
(-2.14111e-05 -1.88908e-05 -1.34894e-05)
(7.49966e-06 4.9832e-07 -8.38215e-06)
(3.87438e-05 9.31513e-06 -1.08579e-06)
(6.14658e-05 1.20679e-05 6.26444e-06)
(6.4269e-05 2.13177e-05 1.03792e-05)
(4.82046e-05 4.70546e-05 1.02218e-05)
(2.95776e-05 6.90131e-05 1.10477e-05)
(1.18079e-05 4.89905e-05 1.43476e-05)
(6.94978e-05 -0.000142823 6.94978e-05)
(3.30471e-05 -0.000112987 4.4907e-05)
(-8.75873e-05 -8.65604e-05 3.41883e-05)
(-0.000136731 -6.06315e-05 1.89319e-05)
(-0.000183962 -3.17699e-05 3.04363e-06)
(-0.000206636 -5.94802e-06 -1.12633e-05)
(-0.000201494 9.96811e-06 -2.12083e-05)
(-0.000170028 1.61935e-05 -2.56564e-05)
(-0.000121151 1.85648e-05 -2.68989e-05)
(-6.72807e-05 2.21208e-05 -2.64146e-05)
(-1.96203e-05 3.35182e-05 -2.49795e-05)
(1.16155e-05 5.26879e-05 -2.43174e-05)
(2.41924e-05 7.42923e-05 -2.47086e-05)
(2.34268e-05 8.97913e-05 -2.56458e-05)
(1.49599e-05 9.10609e-05 -2.59266e-05)
(3.84654e-06 7.53942e-05 -2.47442e-05)
(-7.86557e-06 4.56995e-05 -2.24002e-05)
(-1.94739e-05 9.99585e-06 -1.91484e-05)
(-3.11342e-05 -2.00031e-05 -1.62042e-05)
(-4.14939e-05 -3.74886e-05 -1.44007e-05)
(-4.60793e-05 -4.09314e-05 -1.36019e-05)
(-4.0041e-05 -3.44513e-05 -1.27319e-05)
(-2.1788e-05 -2.57848e-05 -1.0826e-05)
(5.44416e-06 -1.97595e-05 -7.68953e-06)
(3.15137e-05 -1.52761e-05 -4.63988e-06)
(4.39376e-05 -6.47298e-07 -2.9307e-06)
(4.00753e-05 2.89808e-05 -4.73823e-06)
(2.99835e-05 6.08983e-05 -4.8462e-06)
(1.84822e-05 7.52101e-05 -6.04592e-07)
(6.49395e-06 6.32244e-05 -9.04833e-06)
(3.68945e-05 -0.000225085 3.68945e-05)
(-2.28585e-05 -1.23443e-05 6.85799e-06)
(-0.000138478 3.64386e-06 -5.44119e-06)
(-0.000183763 2.29617e-05 -1.90572e-05)
(-0.000216309 4.02143e-05 -2.68824e-05)
(-0.000221588 4.60367e-05 -2.94077e-05)
(-0.000200565 3.70038e-05 -2.94301e-05)
(-0.000159699 2.02569e-05 -2.7092e-05)
(-0.000111267 8.98316e-06 -2.28269e-05)
(-6.58768e-05 1.21937e-05 -1.97513e-05)
(-2.88663e-05 3.32708e-05 -1.87994e-05)
(-2.49503e-06 6.62865e-05 -2.00326e-05)
(1.64306e-05 0.000101922 -2.16665e-05)
(3.1947e-05 0.000126994 -2.17817e-05)
(4.40059e-05 0.000132112 -1.94277e-05)
(5.06837e-05 0.000116796 -1.49288e-05)
(4.7983e-05 8.66082e-05 -9.48983e-06)
(3.35502e-05 5.06413e-05 -4.54805e-06)
(9.56358e-06 2.00143e-05 -1.79653e-06)
(-1.68347e-05 -6.79818e-07 -1.77281e-06)
(-3.61272e-05 -1.30668e-05 -3.57549e-06)
(-4.18287e-05 -1.96012e-05 -6.56586e-06)
(-3.39463e-05 -2.24106e-05 -9.21003e-06)
(-1.8539e-05 -1.96106e-05 -1.15948e-05)
(-4.78816e-06 -5.43388e-06 -1.5196e-05)
(-1.17732e-08 2.6422e-05 -2.09853e-05)
(-2.69404e-06 6.76681e-05 -2.64625e-05)
(-1.88541e-06 9.69737e-05 -2.70945e-05)
(-7.28858e-06 0.000112536 -2.91345e-05)
(-8.2204e-06 0.00010505 -3.48218e-05)
(-1.46678e-05 -0.000186184 -1.46678e-05)
(-7.84479e-05 0.000129719 -3.2823e-05)
(-0.000143109 0.000120548 -3.33689e-05)
(-0.000167214 0.000120479 -3.46362e-05)
(-0.000173086 0.000110642 -3.19183e-05)
(-0.000156881 8.41979e-05 -2.59405e-05)
(-0.000127311 4.67035e-05 -1.76913e-05)
(-9.54086e-05 1.23115e-05 -9.96617e-06)
(-6.80791e-05 -6.30526e-06 -4.23646e-06)
(-4.83994e-05 -8.94479e-07 -2.21323e-06)
(-3.40042e-05 2.73931e-05 -4.44794e-06)
(-1.81531e-05 6.70458e-05 -8.65007e-06)
(4.84737e-06 0.000105521 -1.18656e-05)
(3.44831e-05 0.00012978 -1.11764e-05)
(6.31116e-05 0.000134677 -6.91447e-06)
(8.13787e-05 0.000122525 -3.11416e-07)
(8.22627e-05 9.98557e-05 6.55106e-06)
(6.42793e-05 7.33786e-05 1.0535e-05)
(3.25987e-05 4.96817e-05 1.12014e-05)
(-2.52402e-06 2.97449e-05 9.07492e-06)
(-2.90602e-05 1.13563e-05 5.97324e-06)
(-4.07521e-05 -4.14494e-06 3.10021e-06)
(-4.18581e-05 -1.17267e-05 6.07436e-07)
(-4.03245e-05 -3.06883e-06 -2.81349e-06)
(-4.18153e-05 2.57854e-05 -8.57702e-06)
(-4.50993e-05 6.79639e-05 -1.46797e-05)
(-4.32517e-05 0.00010808 -1.82759e-05)
(-3.56266e-05 0.000135784 -1.97654e-05)
(-2.24418e-05 0.000154755 -2.43327e-05)
(-7.90401e-06 0.000125637 -7.83056e-06)
(-4.07491e-05 -5.7665e-05 -4.07492e-05)
(-8.63082e-05 0.000249268 -3.93846e-05)
(-9.55349e-05 0.000207174 -3.48084e-05)
(-9.16169e-05 0.000179799 -2.86587e-05)
(-7.56173e-05 0.000139392 -1.88721e-05)
(-5.34202e-05 8.67708e-05 -8.17478e-06)
(-3.35678e-05 3.29764e-05 1.12558e-06)
(-2.49766e-05 -5.83049e-06 6.53624e-06)
(-2.90649e-05 -2.091e-05 7.81547e-06)
(-3.8522e-05 -7.53621e-06 2.86546e-06)
(-4.25525e-05 2.53594e-05 -4.46304e-06)
(-3.17862e-05 6.14583e-05 -1.02077e-05)
(-4.06604e-06 9.07758e-05 -1.16204e-05)
(3.40151e-05 0.000107143 -8.76928e-06)
(6.87753e-05 0.000111533 -2.3743e-06)
(8.81793e-05 0.000107728 4.42961e-06)
(8.67964e-05 9.93201e-05 8.69034e-06)
(6.71513e-05 8.72514e-05 1.01277e-05)
(3.87211e-05 7.10781e-05 1.04469e-05)
(1.20985e-05 4.85702e-05 1.06855e-05)
(-5.43596e-06 2.17705e-05 1.17842e-05)
(-1.47128e-05 -2.34387e-06 1.44956e-05)
(-2.27822e-05 -1.2864e-05 1.73337e-05)
(-3.49969e-05 2.86843e-07 1.76587e-05)
(-4.92872e-05 3.43843e-05 1.60072e-05)
(-5.62416e-05 7.30038e-05 1.51509e-05)
(-4.99395e-05 0.000101257 1.68113e-05)
(-3.61005e-05 0.000119152 2.07565e-05)
(-3.3379e-06 0.000123271 2.77776e-05)
(1.0606e-05 7.56076e-05 4.91448e-05)
(-4.10885e-05 7.48226e-05 -4.10885e-05)
(-5.45199e-05 0.000301501 -3.02117e-05)
(-2.58272e-05 0.000240426 -2.35397e-05)
(-1.05448e-05 0.00019199 -1.58285e-05)
(1.02966e-05 0.000133812 -8.05645e-06)
(2.48599e-05 7.32885e-05 -1.99177e-06)
(2.63697e-05 2.31435e-05 7.21714e-07)
(1.25137e-05 -1.86626e-06 -1.28239e-07)
(-1.15273e-05 -3.64595e-06 -5.22225e-06)
(-3.2567e-05 1.52997e-05 -1.08019e-05)
(-3.86808e-05 3.97379e-05 -1.52646e-05)
(-2.48754e-05 5.79741e-05 -1.55045e-05)
(5.26833e-06 6.93145e-05 -1.18262e-05)
(3.83914e-05 7.63167e-05 -4.96212e-06)
(6.19769e-05 8.36758e-05 1.54955e-06)
(6.97439e-05 9.21092e-05 4.6259e-06)
(6.33664e-05 9.90973e-05 4.8717e-06)
(4.99292e-05 9.75606e-05 3.98851e-06)
(3.76896e-05 8.25346e-05 4.01117e-06)
(3.10227e-05 5.30044e-05 6.60212e-06)
(2.78712e-05 1.68433e-05 1.12907e-05)
(2.08619e-05 -1.28428e-05 1.60883e-05)
(4.47099e-06 -2.30695e-05 1.91289e-05)
(-1.84343e-05 -9.05199e-06 1.94116e-05)
(-3.57373e-05 1.77798e-05 1.97663e-05)
(-3.59045e-05 3.54834e-05 2.273e-05)
(-2.07106e-05 3.90178e-05 2.96544e-05)
(1.01129e-06 3.35197e-05 3.81204e-05)
(2.31034e-05 1.66351e-05 4.91005e-05)
(1.73573e-05 1.09423e-05 3.88038e-05)
(-3.20357e-05 0.000157752 -3.20358e-05)
(-2.1326e-05 0.000301404 -2.08996e-05)
(2.01383e-05 0.000239546 -1.92695e-05)
(3.30749e-05 0.000185937 -1.62343e-05)
(5.04717e-05 0.0001269 -1.38372e-05)
(5.57138e-05 7.48307e-05 -1.23537e-05)
(4.77694e-05 4.14805e-05 -1.21166e-05)
(2.98214e-05 3.20347e-05 -1.25633e-05)
(9.22729e-06 3.59007e-05 -1.34446e-05)
(-3.87093e-06 4.4931e-05 -1.26981e-05)
(-3.52772e-06 4.73173e-05 -8.57433e-06)
(1.02377e-05 4.18893e-05 -3.73158e-07)
(2.79156e-05 3.86421e-05 8.02512e-06)
(3.62373e-05 4.17952e-05 1.49989e-05)
(3.33023e-05 5.75959e-05 1.5287e-05)
(2.40503e-05 7.89745e-05 1.07664e-05)
(1.65941e-05 9.53978e-05 4.27998e-06)
(1.75272e-05 9.54377e-05 5.20267e-07)
(2.66715e-05 7.68089e-05 5.64756e-07)
(3.669e-05 4.49938e-05 2.76388e-06)
(3.75853e-05 1.19879e-05 5.38597e-06)
(2.2527e-05 -7.34569e-06 4.84809e-06)
(-4.54641e-06 -5.62432e-06 -2.05643e-07)
(-2.92044e-05 1.12251e-05 -8.39299e-06)
(-3.63805e-05 2.27837e-05 -1.10555e-05)
(-2.40465e-05 1.58431e-05 -8.15144e-06)
(-6.86874e-06 2.87194e-06 -3.99404e-06)
(7.70773e-06 -6.17502e-06 -3.43087e-06)
(-3.66404e-06 -2.77346e-06 -1.17898e-05)
(-1.13353e-05 4.65225e-05 -3.95137e-05)
(-2.62253e-05 0.000208786 -2.62253e-05)
(-9.89391e-06 0.000283976 -2.17943e-05)
(3.34118e-05 0.0002303 -2.23314e-05)
(4.8228e-05 0.00018047 -2.02278e-05)
(6.63838e-05 0.000126886 -1.71744e-05)
(7.35866e-05 8.48675e-05 -1.29139e-05)
(7.02934e-05 6.10199e-05 -8.79183e-06)
(6.07492e-05 5.24256e-05 -3.85626e-06)
(5.1797e-05 4.77151e-05 2.09548e-06)
(4.87554e-05 3.83465e-05 1.04927e-05)
(4.99057e-05 2.18466e-05 1.98348e-05)
(4.70121e-05 8.39624e-07 2.88342e-05)
(3.13501e-05 -4.33176e-06 3.3665e-05)
(3.64586e-06 8.07702e-06 2.8577e-05)
(-2.54568e-05 3.83145e-05 1.84313e-05)
(-4.27342e-05 6.91029e-05 6.52219e-06)
(-3.94169e-05 8.42816e-05 -2.37469e-06)
(-1.86671e-05 7.83006e-05 -5.1678e-06)
(7.04219e-06 5.85489e-05 -3.82179e-06)
(2.03942e-05 3.71698e-05 -2.26996e-06)
(1.1671e-05 2.5687e-05 -3.79268e-06)
(-1.46857e-05 3.21658e-05 -1.15206e-05)
(-4.30591e-05 4.88004e-05 -2.16267e-05)
(-5.48753e-05 5.93483e-05 -2.71289e-05)
(-4.30122e-05 4.90262e-05 -2.7184e-05)
(-2.1389e-05 3.16944e-05 -2.50523e-05)
(-1.05273e-05 3.04703e-05 -2.73753e-05)
(-1.29638e-05 5.60293e-05 -3.57044e-05)
(-3.76181e-05 0.000105801 -5.44446e-05)
(-3.07307e-05 0.000118728 -5.42267e-05)
(-2.33153e-05 0.000248574 -2.33153e-05)
(-4.03904e-06 0.000259052 -1.82486e-05)
(4.42269e-05 0.000213645 -1.52967e-05)
(6.45417e-05 0.000163281 -8.56662e-06)
(8.48581e-05 0.000111147 -5.57745e-07)
(9.40175e-05 7.13494e-05 6.29219e-06)
(9.45526e-05 4.7467e-05 1.21064e-05)
(9.21056e-05 3.25404e-05 1.75032e-05)
(8.95046e-05 1.55792e-05 2.40405e-05)
(8.47439e-05 -7.09005e-06 3.10126e-05)
(7.07507e-05 -2.71045e-05 3.7415e-05)
(3.99727e-05 -3.80896e-05 3.58537e-05)
(-7.22932e-06 -2.29547e-05 2.65604e-05)
(-5.50736e-05 1.12292e-05 1.27994e-05)
(-8.67058e-05 5.10857e-05 -4.25457e-06)
(-9.14605e-05 7.23035e-05 -1.30556e-05)
(-6.82718e-05 7.15663e-05 -1.45433e-05)
(-3.32661e-05 5.81643e-05 -1.181e-05)
(-9.22013e-06 4.71916e-05 -7.45101e-06)
(-1.03453e-05 4.85567e-05 -8.20829e-06)
(-3.15727e-05 6.39733e-05 -1.49436e-05)
(-5.56842e-05 8.66644e-05 -2.3208e-05)
(-6.36359e-05 9.5758e-05 -2.64634e-05)
(-4.73048e-05 8.00788e-05 -2.19941e-05)
(-2.1302e-05 4.89148e-05 -1.31674e-05)
(-9.68969e-06 3.99775e-05 -8.49156e-06)
(-1.65392e-05 6.51428e-05 -1.3097e-05)
(-3.09477e-05 0.000118467 -2.00895e-05)
(-2.80816e-05 0.000170902 -2.56217e-05)
(-9.38354e-06 0.000119344 -5.6562e-06)
(-9.76137e-06 0.000265057 -9.7614e-06)
(1.80665e-05 0.00021439 1.11989e-06)
(6.50195e-05 0.000173423 7.74083e-06)
(8.48436e-05 0.000120825 1.51233e-05)
(9.68633e-05 6.98954e-05 2.0724e-05)
(9.67113e-05 3.16712e-05 2.40697e-05)
(9.09305e-05 7.00116e-06 2.49823e-05)
(8.56615e-05 -1.11207e-05 2.53331e-05)
(8.01434e-05 -2.97095e-05 2.56221e-05)
(6.74625e-05 -4.35767e-05 2.50296e-05)
(3.86184e-05 -4.19267e-05 2.0914e-05)
(-8.69131e-06 -1.94926e-05 1.07854e-05)
(-6.12543e-05 2.33168e-05 -3.72666e-06)
(-9.96703e-05 6.18965e-05 -1.52362e-05)
(-0.000107926 8.32185e-05 -1.82769e-05)
(-8.55375e-05 7.46219e-05 -1.63332e-05)
(-5.00409e-05 5.34998e-05 -8.60609e-06)
(-2.50585e-05 4.1663e-05 -1.3759e-06)
(-2.60752e-05 5.07451e-05 -6.15088e-07)
(-4.822e-05 7.85738e-05 -9.09279e-06)
(-7.10769e-05 0.000107859 -1.93897e-05)
(-7.3474e-05 0.000118963 -2.3104e-05)
(-4.76056e-05 9.56381e-05 -1.6889e-05)
(-9.87039e-06 5.13125e-05 -3.2539e-06)
(1.0091e-05 2.03067e-05 7.39908e-06)
(1.96073e-06 3.42985e-05 6.99356e-06)
(-1.44045e-05 7.53086e-05 2.72339e-06)
(-2.3429e-05 0.00011654 5.59075e-06)
(-1.84428e-06 0.000133009 1.48295e-05)
(1.1386e-05 8.60073e-05 1.60421e-05)
(1.31379e-05 0.000233253 1.31379e-05)
(4.75215e-05 0.000143813 2.23706e-05)
(7.62801e-05 0.000110287 2.79153e-05)
(8.34827e-05 6.52735e-05 3.00822e-05)
(7.73572e-05 2.45145e-05 2.86481e-05)
(6.23606e-05 -3.195e-06 2.37419e-05)
(4.96302e-05 -2.21436e-05 1.83799e-05)
(4.28453e-05 -3.68726e-05 1.39077e-05)
(3.67131e-05 -4.55313e-05 1.14214e-05)
(2.12602e-05 -3.77521e-05 8.88186e-06)
(-9.91463e-06 -7.69423e-06 3.53877e-06)
(-4.96468e-05 3.72884e-05 -4.87612e-06)
(-8.02614e-05 7.96506e-05 -8.94595e-06)
(-8.68423e-05 9.33599e-05 -8.52673e-06)
(-6.69584e-05 7.69933e-05 -7.11309e-07)
(-3.44042e-05 4.22187e-05 1.05523e-05)
(-1.55004e-05 1.62856e-05 2.10682e-05)
(-2.61102e-05 2.31588e-05 2.13967e-05)
(-5.74647e-05 6.20319e-05 1.02421e-05)
(-8.65113e-05 0.000105817 -5.02588e-06)
(-9.08167e-05 0.00012317 -1.24048e-05)
(-6.15802e-05 9.96669e-05 -8.47848e-06)
(-1.48781e-05 4.66679e-05 3.49324e-06)
(1.33937e-05 2.58655e-06 1.23229e-05)
(6.89444e-06 1.26906e-06 9.63838e-06)
(-1.43355e-05 3.77578e-05 -4.55529e-07)
(-2.32368e-05 7.15877e-05 -3.05137e-06)
(-1.62255e-05 8.34237e-05 2.07209e-06)
(-5.34171e-07 8.79573e-05 1.70251e-06)
(4.74161e-06 7.66164e-05 -6.15582e-06)
(2.93924e-05 0.000149689 2.93924e-05)
(5.96207e-05 7.00168e-05 3.2074e-05)
(6.30709e-05 4.9152e-05 3.12254e-05)
(5.63608e-05 2.36196e-05 2.80634e-05)
(3.80593e-05 2.32026e-06 2.2504e-05)
(1.82527e-05 -1.35562e-05 1.57403e-05)
(6.21673e-06 -2.93193e-05 1.14046e-05)
(2.0167e-06 -4.45004e-05 1.01568e-05)
(-3.45658e-06 -4.66294e-05 1.05528e-05)
(-1.89337e-05 -2.52686e-05 9.41568e-06)
(-4.27439e-05 1.75049e-05 6.15266e-06)
(-6.26652e-05 6.09972e-05 3.06502e-06)
(-6.34293e-05 7.89988e-05 4.47169e-06)
(-4.02227e-05 5.88654e-05 1.21998e-05)
(-7.49539e-06 1.37125e-05 2.27156e-05)
(8.83857e-06 -2.26975e-05 3.0624e-05)
(-9.01866e-06 -2.37157e-05 2.81595e-05)
(-4.82543e-05 2.17307e-05 1.61796e-05)
(-8.34092e-05 7.99374e-05 6.21304e-07)
(-9.19652e-05 0.000108819 -4.25841e-06)
(-6.31147e-05 8.81461e-05 3.79643e-06)
(-1.64251e-05 3.22385e-05 1.62545e-05)
(1.08418e-05 -2.10916e-05 2.67103e-05)
(-6.52564e-07 -3.05975e-05 2.27476e-05)
(-2.98372e-05 1.95594e-06 1.0998e-05)
(-4.60003e-05 4.05913e-05 4.7296e-06)
(-4.43583e-05 5.82603e-05 2.70147e-06)
(-4.0814e-05 6.08308e-05 -3.36249e-06)
(-1.89954e-05 6.9731e-05 -3.14687e-06)
(1.58787e-06 5.34799e-05 1.92156e-05)
(3.20559e-05 4.66664e-05 3.20558e-05)
(5.13313e-05 1.89764e-05 2.95051e-05)
(3.82488e-05 9.3493e-06 2.77956e-05)
(2.69719e-05 3.57931e-06 2.43902e-05)
(8.25784e-06 -3.25422e-06 1.99002e-05)
(-7.96964e-06 -1.76592e-05 1.68191e-05)
(-1.7021e-05 -4.06776e-05 1.62313e-05)
(-2.42048e-05 -6.03185e-05 1.71291e-05)
(-3.73953e-05 -5.75806e-05 1.56268e-05)
(-5.73568e-05 -2.61708e-05 1.07726e-05)
(-7.33539e-05 1.85479e-05 4.07316e-06)
(-7.1061e-05 4.78007e-05 6.62862e-07)
(-4.53661e-05 3.86866e-05 3.90296e-06)
(-9.49729e-06 -2.60229e-06 1.05608e-05)
(1.21975e-05 -4.2078e-05 1.61564e-05)
(1.6937e-06 -4.66325e-05 1.06021e-05)
(-3.11638e-05 -6.50303e-06 -1.50926e-06)
(-6.06244e-05 5.4208e-05 -1.18517e-05)
(-6.26625e-05 9.00589e-05 -1.01887e-05)
(-2.8654e-05 7.29453e-05 2.15258e-06)
(1.75778e-05 1.51335e-05 2.02744e-05)
(3.96703e-05 -4.38513e-05 3.45646e-05)