/*--------------------------------*- C++ -*----------------------------------*\
| =========                 |                                                 |
| \\      /  F ield         | OpenFOAM: The Open Source CFD Toolbox           |
|  \\    /   O peration     | Version:  2312                                  |
|   \\  /    A nd           | Website:  www.openfoam.com                      |
|    \\/     M anipulation  |                                                 |
\*---------------------------------------------------------------------------*/
FoamFile
{
    version     2.0;
    format      ascii;
    arch        "LSB;label=32;scalar=64";
    class       volScalarField;
    location    "0.692487";
    object      alpha.water;
}
// * * * * * * * * * * * * * * * * * * * * * * * * * * * * * * * * * * * * * //

dimensions      [0 0 0 0 0 0 0];

internalField   nonuniform List<scalar> 
90000
(
1
0.999975
0.99998
0.999984
0.999988
0.999994
0.999999
1
1.00001
1.00001
1.00001
1.00001
1.00002
1.00002
1.00002
1.00002
1.00002
1.00002
1.00002
1.00001
1.00001
1
1
1
1
1.00001
1.00002
1.00003
1.00004
1.00004
0.999974
0.999965
0.999973
0.99998
0.99999
0.999999
1.00001
1.00002
1.00002
1.00002
1.00003
1.00003
1.00003
1.00003
1.00004
1.00004
1.00003
1.00003
1.00002
1.00001
1.00001
1
1
1.00001
1.00002
1.00003
1.00005
1.00006
1.00007
1.00005
0.999981
0.999979
0.999985
0.999991
0.999998
1
1.00001
1.00002
1.00002
1.00002
1.00002
1.00002
1.00003
1.00003
1.00002
1.00002
1.00002
1.00002
1.00001
1.00001
1
1
1
1.00001
1.00001
1.00002
1.00003
1.00004
1.00004
1.00002
0.999989
0.999995
0.999998
1
1.00001
1.00001
1.00001
1.00002
1.00002
1.00002
1.00002
1.00002
1.00002
1.00002
1.00001
1.00001
1.00001
1
1
1
1
1
1
1.00001
1.00001
1.00001
1.00001
1.00001
1
0.999995
0.999998
1.00001
1.00001
1.00001
1.00001
1.00001
1.00001
1.00001
1.00001
1.00001
1.00001
1.00001
1.00001
1.00001
1
0.999999
0.999997
0.999997
0.999998
1
1
1
1
0.999999
0.999995
0.999989
0.999983
0.999976
0.999972
0.999971
1.00001
1.00002
1.00002
1.00001
1.00001
1.00001
1.00001
1.00001
1
1
1
1
1
0.999999
0.999997
0.999996
0.999997
0.999998
1
1
1
1
1
0.999993
0.999985
0.999976
0.999968
0.999961
0.999957
0.999964
1.00001
1.00002
1.00002
1.00001
1.00001
1
1
0.999998
0.999997
0.999997
0.999998
0.999998
0.999999
1
1
1
1.00001
1.00001
1.00001
1.00001
1.00001
1
0.999999
0.999992
0.999984
0.999976
0.999969
0.999965
0.999964
0.999976
1.00001
1.00002
1.00002
1.00001
1.00001
1
0.999997
0.999994
0.999993
0.999993
0.999994
0.999997
1
1.00001
1.00001
1.00002
1.00002
1.00002
1.00002
1.00001
1.00001
1
0.999999
0.999994
0.999989
0.999985
0.999982
0.999982
0.999984
0.999993
1.00001
1.00003
1.00002
1.00001
1.00001
1.00001
1
0.999996
0.999992
0.999991
0.999992
0.999997
1
1.00001
1.00002
1.00002
1.00002
1.00002
1.00002
1.00001
1.00001
1
0.999998
0.999996
0.999995
0.999994
0.999995
0.999997
0.999999
1
1.00001
1.00003
1.00003
1.00002
1.00002
1.00001
1.00001
0.999999
0.999993
0.999989
0.999989
0.999992
0.999999
1.00001
1.00001
1.00002
1.00001
1.00001
1.00001
1
0.999998
0.999996
0.999996
0.999996
0.999997
0.999997
0.999999
1
1
0.999999
1.00002
1.00004
1.00004
1.00003
1.00003
1.00002
1.00001
1
0.999992
0.999985
0.999982
0.999984
0.999987
0.999992
0.999995
0.999995
0.999995
0.999993
0.999992
0.999992
0.999994
0.999996
0.999998
0.999998
0.999998
0.999998
0.999999
1
0.999999
0.999998
1.00003
1.00005
1.00004
1.00004
1.00003
1.00002
1.00001
0.999998
0.999988
0.999981
0.999977
0.999975
0.999975
0.999975
0.999975
0.999975
0.999977
0.99998
0.999986
0.999993
0.999999
1
1.00001
1.00001
1
1
1
1
1.00001
1.00001
1.00003
1.00004
1.00003
1.00003
1.00002
1.00001
1
0.999993
0.999986
0.999981
0.999978
0.999975
0.999971
0.999968
0.999966
0.999967
0.999972
0.999981
0.999992
1
1.00001
1.00001
1.00002
1.00002
1.00001
1.00001
1.00001
1.00001
1.00002
1.00001
1.00002
1.00001
1.00001
1
0.999998
0.999994
0.99999
0.999989
0.99999
0.99999
0.999988
0.999984
0.999978
0.999972
0.99997
0.999972
0.999979
0.99999
1
1.00001
1.00002
1.00002
1.00002
1.00002
1.00002
1.00002
1.00002
1.00001
1.00001
1
1.00001
0.999978
0.999977
0.999975
0.999974
0.999977
0.999984
0.999992
0.999999
1
1
0.999998
0.99999
0.999983
0.999979
0.999981
0.999988
0.999996
1
1.00001
1.00001
1.00001
1.00001
1.00001
1.00001
1.00001
1.00001
0.999999
0.99999
0.999981
0.999983
0.999945
0.999949
0.999952
0.999959
0.99997
0.999983
0.999997
1.00001
1.00001
1.00001
1.00001
0.999997
0.99999
0.999987
0.999987
0.99999
0.999994
0.999997
1
1
1
1.00001
1.00001
1.00001
1
0.999994
0.999984
0.999975
0.999977
0.999964
0.999927
0.999936
0.999944
0.999956
0.999971
0.999987
1
1.00001
1.00001
1.00001
1
0.999997
0.999992
0.999989
0.999988
0.999988
0.999988
0.999988
0.999991
0.999994
0.999999
1
1
1
0.999994
0.999986
0.999979
0.999978
0.99999
0.999956
0.999929
0.999941
0.999951
0.999964
0.999978
0.999991
1
1
1.00001
1
0.999999
0.999997
0.999995
0.999993
0.99999
0.999987
0.999985
0.999985
0.999988
0.999992
0.999996
0.999997
0.999995
0.999989
0.999983
0.999979
0.999979
0.999985
0.99999
0.99996
0.999947
0.999958
0.999967
0.999978
0.999987
0.999995
0.999999
1
1
0.999999
1
1
1
0.999998
0.999994
0.999989
0.999986
0.999986
0.999988
0.999989
0.999989
0.999985
0.99998
0.999975
0.999973
0.999974
0.999977
0.99998
0.999976
0.999972
0.999969
0.999977
0.999984
0.999992
0.999998
1
1
1
1
1
1
1.00001
1
1
0.999994
0.999989
0.999987
0.999986
0.999986
0.999984
0.99998
0.999975
0.999972
0.999972
0.999975
0.999978
0.999979
0.999974
0.999975
0.999985
0.999988
0.999993
0.999999
1
1.00001
1.00001
1.00001
1.00001
1.00001
1.00001
1.00001
1
1
0.999995
0.999991
0.999989
0.999988
0.999987
0.999985
0.999981
0.999977
0.999976
0.999979
0.999985
0.999989
0.99999
0.999987
0.999983
0.999992
0.999995
1
1
1.00001
1.00002
1.00002
1.00002
1.00001
1.00001
1.00001
1.00001
1
0.999998
0.999994
0.999992
0.999992
0.999993
0.999993
0.999991
0.999987
0.999983
0.999983
0.999987
0.999993
0.999998
0.999999
0.999997
0.999994
0.999994
0.999995
1
1.00001
1.00001
1.00002
1.00002
1.00002
1.00002
1.00001
1.00001
1.00001
1
0.999996
0.999993
0.999991
0.999993
0.999996
0.999998
0.999997
0.999993
0.999989
0.999988
0.999992
0.999998
1
1
1
1
0.999999
0.999996
0.999991
1.00001
1.00002
1.00002
1.00002
1.00002
1.00002
1.00001
1.00001
1.00001
1
0.999997
0.999992
0.99999
0.999991
0.999995
0.999999
0.999999
0.999995
0.999992
0.999991
0.999996
1
1.00001
1.00001
1.00001
1.00001
1.00001
1.00001
1.00001
1.00002
1.00001
1.00002
1.00002
1.00002
1.00001
1.00001
1.00001
1
1
0.999997
0.999991
0.999987
0.999987
0.999991
0.999995
0.999997
0.999995
0.999993
0.999993
0.999998
1.00001
1.00001
1.00002
1.00002
1.00003
1.00003
1.00003
1.00003
1.00003
1.00004
1.00001
1.00001
1.00001
1.00001
1
0.999999
0.999998
0.999997
0.999994
0.99999
0.999985
0.999984
0.999987
0.999992
0.999996
0.999997
0.999995
0.999995
0.999999
1.00001
1.00001
1.00002
1.00002
1.00002
1.00002
1.00002
1.00002
1.00003
1.00004
1.00002
1.00001
1.00001
1
0.999995
0.999991
0.99999
0.99999
0.99999
0.999987
0.999984
0.999983
0.999987
0.999993
0.999998
1
1
0.999998
0.999999
1
1
1
1
1
1
1
1
1.00001
1.00002
1.00002
0.999994
1
0.999995
0.999991
0.999987
0.999985
0.999985
0.999985
0.999984
0.999982
0.999982
0.999985
0.999992
0.999999
1
1
0.999998
0.999996
0.999995
0.999994
0.999992
0.999989
0.999987
0.999987
0.999986
0.999985
0.999995
1.00001
1
0.999991
0.999998
0.999996
0.99999
0.999988
0.999986
0.999984
0.999983
0.999981
0.999979
0.999979
0.999982
0.999989
0.999996
0.999999
0.999998
0.999994
0.99999
0.999988
0.999987
0.999984
0.99998
0.999978
0.999974
0.999974
0.999976
0.999981
0.999997
1
0.999987
0.999995
1.00001
0.999994
0.99999
0.999989
0.999987
0.999985
0.999982
0.999979
0.999978
0.99998
0.999986
0.999993
0.999996
0.999995
0.999991
0.999987
0.999985
0.999985
0.999984
0.999982
0.99998
0.999979
0.999973
0.999972
0.99998
0.999991
0.999998
0.999994
0.999991
1.00001
1.00001
0.999995
0.999994
0.999992
0.99999
0.999987
0.999984
0.999982
0.999982
0.999985
0.99999
0.999994
0.999994
0.999991
0.999988
0.999988
0.999989
0.999991
0.999992
0.999992
0.999989
0.999987
0.99998
0.999978
0.999991
0.999995
0.999987
0.999989
1.00001
1.00001
1
0.999997
0.999997
0.999996
0.999996
0.999994
0.999991
0.999987
0.999985
0.999986
0.999989
0.999991
0.999991
0.999991
0.999992
0.999995
0.999998
0.999999
1
1
0.999992
0.999987
0.999983
0.999984
0.999992
0.999985
0.999976
0.999995
1.00001
0.999993
1
0.999999
1
1
1
1
0.999995
0.999988
0.999984
0.999984
0.999986
0.999989
0.999992
0.999996
1
1
1
1
1
1
0.999988
0.999983
0.999987
0.999987
0.999986
0.999979
0.999984
1.00001
1
0.999999
1
1
1.00001
1.00001
1.00001
1
0.999994
0.999987
0.999984
0.999985
0.999988
0.999993
0.999999
1
1.00001
1.00001
1.00001
1.00001
1
0.999996
0.999985
0.999986
0.999996
0.999988
0.999981
0.999988
1
1.00001
1
1
1.00001
1.00001
1.00002
1.00001
1.00001
1
0.999995
0.99999
0.999989
0.999991
0.999994
0.999998
1
1
1.00001
1
1
1.00001
0.999998
0.999997
0.999995
1
1.00001
0.999993
0.999992
1.00001
1.00001
1.00001
1.00001
1.00001
1.00001
1.00001
1.00002
1.00002
1.00001
1
0.999999
0.999996
0.999996
0.999997
0.999998
1
1
1
1
1.00001
1.00001
1.00001
1
1.00001
1.00001
1.00001
1.00001
0.999999
1.00001
1.00002
1.00001
1.00001
1.00001
1.00002
1.00002
1.00001
1.00002
1.00002
1.00001
1
1
1
1
1
1
1
1
1
1.00001
1.00001
1.00002
1.00002
1.00001
1.00001
1.00002
1.00001
1.00001
1
1.00001
1.00002
1
1.00001
1.00001
1.00002
1.00001
1.00001
1.00002
1.00001
1.00001
1.00001
1.00001
1.00001
1
1
1
1
1
1.00001
1.00001
1.00001
1.00001
1.00001
1.00001
1.00002
1.00002
1
1.00001
1.00001
1.00001
1.00001
1
1.00001
1.00002
1.00001
1.00002
1.00001
1.00001
1.00001
1.00001
1.00001
1.00001
1
1
1
1
1
1
1.00001
1.00001
1.00001
1.00001
1.00001
1.00001
1.00002
1.00001
0.999999
1.00001
1.00001
1
1
1
1.00001
1.00001
1.00001
1.00002
1.00001
1.00001
1.00001
1.00001
1.00001
1.00001
1
1
1.00001
1.00001
1.00001
1
1.00001
1.00001
1.00001
1.00001
1.00001
1.00001
1.00002
1
1
1.00001
1.00001
1
1.00001
1.00001
1.00001
1.00001
1.00003
1.00002
1.00001
1.00002
1.00001
1.00001
1.00001
1.00001
1
1.00001
1.00001
1
1.00001
1
1.00001
1.00001
1.00001
1
1.00001
1.00001
1.00001
0.999999
1.00001
1.00002
1.00001
1.00001
1.00002
1.00001
1.00001
1.00002
1.00003
1.00002
1.00001
1.00001
1.00001
1.00001
1.00001
1
1
1.00001
1.00001
1
1
1
1.00001
1.00001
1.00001
0.999997
1.00001
1
1.00001
1
1.00001
1.00002
1.00001
1.00001
1.00001
0.999999
1.00001
1.00001
1.00001
1
1.00001
1.00001
1.00001
1.00001
1
1.00001
1.00001
1.00001
1.00001
1
0.999999
1.00001
1.00001
1.00001
1
1
1.00001
1.00001
1.00001
1.00001
1.00001
1.00001
1
1.00001
1
0.999998
1.00001
1.00002
1.00002
1.00001
1.00001
1.00001
1.00001
1.00001
1.00001
1.00001
1.00001
1.00001
0.999999
1
1
1.00001
1
1.00001
0.999995
1.00001
1.00001
1.00001
1
1.00001
1.00001
0.999995
0.999997
1
0.999997
1.00001
1.00001
1.00002
1.00001
1.00001
1.00001
1.00001
1.00001
1.00001
1.00001
1.00001
1
1
1
1
1
1.00001
0.999999
1
0.999994
1.00001
1.00001
1
0.999994
0.999999
1
0.999999
1
1
0.999995
1.00001
1.00001
1.00001
1
1
1
1.00001
1
1
1
1
1
1
1
1
1
1
0.999998
1
0.999999
1
1
0.999997
1
1.00001
1
1
1.00001
1
1
0.999997
1
0.999994
1
0.999999
1
1
1
1.00001
1
1
1
1
0.999997
0.999999
1
1
0.999998
1
0.999999
1
1
0.999993
0.999998
1
0.999995
0.999993
0.999992
0.999987
0.999996
1
0.999999
1.00001
0.999997
0.999996
0.999997
0.999994
0.999991
0.999987
0.999986
0.99999
0.999993
1
0.999995
0.999996
0.999994
0.999991
0.999985
0.999984
0.999981
0.999983
0.999985
0.99998
0.999988
0.999995
0.999992
0.999992
0.999992
0.999992
0.999994
0.999995
0.999985
0.999996
0.999989
0.999992
1.00001
1
1
1
1
1
0.999991
0.999982
0.999944
0.999903
0.999843
0.999778
0.999718
0.999671
0.99964
0.999642
0.999673
0.99971
0.999774
0.999844
0.9999
0.999943
0.999975
0.99999
0.999999
1
1
1
1
1
0.94311
0.944478
0.943315
0.939561
0.935005
0.929602
0.923306
0.918439
0.915135
0.91275
0.911416
0.911323
0.910411
0.909249
0.90857
0.908582
0.909242
0.910435
0.911351
0.911423
0.91278
0.91517
0.918467
0.923325
0.929625
0.935016
0.939561
0.943323
0.944473
0.943112
0.438895
0.432055
0.418536
0.404372
0.390278
0.375543
0.36072
0.345067
0.33274
0.319421
0.305511
0.294693
0.285656
0.279578
0.2762
0.276189
0.27958
0.285646
0.294669
0.305495
0.319399
0.332711
0.345042
0.360701
0.375512
0.390254
0.404352
0.418498
0.432034
0.438866
0.0154619
0.0130853
0.0100204
0.00741897
0.00546745
0.00375885
0.00233124
0.00241681
0.000265226
0.000134291
4.07003e-05
1.51157e-05
1.16456e-05
1.17406e-05
1.18405e-05
1.18469e-05
1.17603e-05
1.16679e-05
1.52886e-05
4.06863e-05
0.000134369
0.000265114
0.0024151
0.00233082
0.00375602
0.00546613
0.00742463
0.0100182
0.0130782
0.0154592
0.00177146
0.00152345
0.00112675
0.000794815
0.000528664
0.000331311
0.000236774
0.000251835
0.000302948
0.000166051
0.000317596
0.000371291
0.000240529
0.000128181
0.00013578
0.000135794
0.000128153
0.000240377
0.000371276
0.000317748
0.000166417
0.000303127
0.000252073
0.000236906
0.000331604
0.000529129
0.000795148
0.00112747
0.0015231
0.00177404
0.000382325
0.000352055
0.000228807
0.000141309
8.25785e-05
4.67134e-05
3.1819e-05
4.80564e-05
6.44181e-05
8.10927e-05
7.31798e-05
9.79238e-05
9.68299e-05
0.000113701
0.000107209
0.000107195
0.00011376
9.68959e-05
9.8077e-05
7.3231e-05
8.11735e-05
6.45303e-05
4.82082e-05
3.19623e-05
4.67749e-05
8.2667e-05
0.000141462
0.000229049
0.000352541
0.000383381
6.97064e-05
7.12608e-05
3.69819e-05
1.98336e-05
1.05426e-05
5.43364e-06
4.10868e-06
5.76645e-06
7.64419e-06
1.20135e-05
1.47887e-05
1.77216e-05
2.63157e-05
2.80463e-05
2.77988e-05
2.78115e-05
2.8113e-05
2.64195e-05
1.78473e-05
1.48755e-05
1.21092e-05
7.75226e-06
5.83666e-06
4.15748e-06
5.44995e-06
1.056e-05
1.98786e-05
3.70922e-05
7.14956e-05
6.96605e-05
9.90802e-06
1.04398e-05
6.03919e-06
2.85494e-06
1.38225e-06
6.89104e-07
5.3315e-07
5.3674e-07
5.63935e-07
9.55376e-07
1.67136e-06
2.79786e-06
4.66171e-06
6.56257e-06
8.09297e-06
8.08692e-06
6.56974e-06
4.68414e-06
2.82379e-06
1.68653e-06
9.6867e-07
5.74966e-07
5.44363e-07
5.40376e-07
6.91122e-07
1.3855e-06
2.86452e-06
6.07331e-06
1.0499e-05
9.87168e-06
1.39679e-06
1.33368e-06
7.62253e-07
3.44655e-07
1.60314e-07
8.65479e-08
5.95319e-08
4.51938e-08
3.62863e-08
4.21263e-08
6.88855e-08
1.25663e-07
1.5934e-07
2.77776e-07
6.37888e-07
6.36791e-07
2.76383e-07
1.58349e-07
1.25992e-07
6.95706e-08
4.29711e-08
3.66859e-08
4.55645e-08
5.97053e-08
8.6047e-08
1.60671e-07
3.46063e-07
7.6582e-07
1.34324e-06
1.38972e-06
1.58968e-07
1.59735e-07
8.55637e-08
3.7847e-08
1.71842e-08
8.26571e-09
4.75017e-09
3.12287e-09
2.78563e-09
2.50333e-09
3.20889e-09
2.84261e-09
1.29262e-09
2.29093e-09
5.52476e-09
5.4777e-09
2.29794e-09
1.30399e-09
2.81839e-09
3.25225e-09
2.52996e-09
2.80657e-09
3.12351e-09
4.71415e-09
8.04195e-09
1.71615e-08
3.78024e-08
8.58752e-08
1.60788e-07
1.58834e-07
1.28461e-08
1.46563e-08
7.56786e-09
3.27318e-09
1.37995e-09
6.25799e-10
3.14266e-10
2.32084e-10
1.75283e-10
1.30568e-10
1.60435e-10
3.49707e-10
5.05125e-10
3.78451e-10
3.96889e-10
3.98087e-10
3.77515e-10
5.06718e-10
3.51701e-10
1.61537e-10
1.31198e-10
1.75542e-10
2.25943e-10
2.93522e-10
5.88314e-10
1.36725e-09
3.27153e-09
7.61037e-09
1.47554e-08
1.28324e-08
8.15996e-10
1.12568e-09
5.82158e-10
2.49796e-10
1.05847e-10
5.04172e-11
3.10114e-11
1.79516e-11
1.1652e-11
1.57305e-11
2.45488e-11
3.52226e-11
5.09797e-11
7.61142e-11
7.89596e-11
7.89565e-11
7.63534e-11
5.11825e-11
3.54567e-11
2.48003e-11
1.5776e-11
1.15016e-11
1.74158e-11
2.83836e-11
4.31765e-11
9.93506e-11
2.50125e-10
5.85348e-10
1.13423e-09
8.18178e-10
4.79124e-11
8.28638e-11
4.36374e-11
2.03951e-11
1.0947e-11
4.36128e-12
1.94476e-12
1.45117e-12
1.23167e-12
1.87369e-12
3.63243e-12
6.05893e-12
1.20203e-11
1.9418e-11
1.9929e-11
1.99165e-11
1.94427e-11
1.20514e-11
6.09508e-12
3.68445e-12
1.89802e-12
1.23462e-12
1.39105e-12
1.67744e-12
3.89091e-12
1.00064e-11
1.94379e-11
4.40028e-11
8.38354e-11
4.8102e-11
4.5765e-12
7.50093e-12
4.30382e-12
1.64222e-12
1.1099e-12
5.73386e-13
2.77488e-13
2.27396e-13
3.10848e-13
6.34338e-13
1.35855e-12
2.76759e-12
5.63142e-12
9.15748e-12
1.03236e-11
1.03101e-11
9.16957e-12
5.65693e-12
2.78728e-12
1.38576e-12
6.48815e-13
3.16931e-13
2.27131e-13
2.62129e-13
5.18031e-13
9.98466e-13
1.61035e-12
4.34803e-12
7.58339e-12
4.59537e-12
3.40263e-13
5.20483e-13
4.55765e-13
1.87097e-13
6.7342e-14
2.41379e-14
1.05283e-14
9.78105e-15
1.77038e-14
4.47824e-14
1.18579e-13
3.26101e-13
7.09306e-13
1.19883e-12
1.69735e-12
1.69619e-12
1.20116e-12
7.15236e-13
3.30191e-13
1.21662e-13
4.61167e-14
1.82333e-14
9.91439e-15
1.00494e-14
2.19076e-14
6.27162e-14
1.84951e-13
4.61537e-13
5.26062e-13
3.4363e-13
1.48928e-14
3.2253e-14
1.8679e-14
6.30657e-15
1.79115e-15
5.31649e-16
2.31215e-16
2.55326e-16
5.16774e-16
1.42718e-15
4.68005e-15
1.57122e-14
3.98156e-14
8.09689e-14
1.26742e-13
1.26431e-13
8.11826e-14
4.03505e-14
1.60131e-14
4.81802e-15
1.47876e-15
5.34453e-16
2.58703e-16
2.19611e-16
4.76006e-16
1.6592e-15
6.22851e-15
1.90434e-14
3.29011e-14
1.50089e-14
3.2508e-16
8.43716e-16
4.10901e-16
1.23378e-16
3.47909e-17
1.00357e-17
4.95332e-18
6.97623e-18
1.53129e-17
4.2841e-17
1.3886e-16
4.6359e-16
1.29696e-15
2.98044e-15
4.81789e-15
4.81332e-15
2.98925e-15
1.31032e-15
4.74301e-16
1.4372e-16
4.45511e-17
1.59479e-17
7.11375e-18
4.75242e-18
8.85284e-18
3.18708e-17
1.22633e-16
4.198e-16
8.63391e-16
3.30129e-16
5.45868e-18
1.53492e-17
7.41783e-18
2.12386e-18
5.68183e-19
1.60638e-19
1.00706e-19
1.78129e-19
4.11261e-19
1.1363e-18
3.52545e-18
1.1387e-17
3.11936e-17
7.02126e-17
1.14375e-16
1.15002e-16
7.09284e-17
3.15841e-17
1.16988e-17
3.66992e-18
1.17841e-18
4.26832e-19
1.83467e-19
9.84529e-20
1.4213e-19
5.19152e-19
2.11089e-18
7.59324e-18
1.57497e-17
5.5348e-18
7.51887e-20
2.37278e-19
1.09946e-19
3.01652e-20
7.63934e-21
2.24101e-21
1.95263e-21
4.08263e-21
9.55156e-21
2.54888e-20
7.63592e-20
2.37895e-19
6.28589e-19
1.38651e-18
2.24282e-18
2.24167e-18
1.39274e-18
6.38864e-19
2.44041e-19
7.90678e-20
2.64483e-20
9.92625e-21
4.25393e-21
1.94926e-21
1.98511e-21
6.98301e-21
2.996e-20
1.13608e-19
2.43511e-19
7.72006e-20
8.37443e-22
2.95801e-21
1.34191e-21
3.46681e-22
8.57938e-23
2.80203e-23
3.5474e-23
8.26884e-23
1.88072e-22
4.76946e-22
1.35829e-21
4.02479e-21
1.03452e-20
2.24042e-20
3.5606e-20
3.55461e-20
2.25208e-20
1.05579e-20
4.1366e-21
1.40312e-21
4.94389e-22
1.95071e-22
8.60109e-23
3.64531e-23
2.54627e-23
7.78901e-23
3.4947e-22
1.39166e-21
3.08902e-21
8.81688e-22
7.89937e-24
2.98238e-23
1.35691e-23
3.34116e-24
8.03094e-25
3.27906e-25
6.01216e-25
1.43682e-24
3.10424e-24
7.3781e-24
1.97525e-23
5.55868e-23
1.36637e-22
2.82648e-22
4.4007e-22
4.43298e-22
2.86281e-22
1.37946e-22
5.65405e-23
2.05306e-23
7.72299e-24
3.24398e-24
1.49578e-24
6.29717e-25
3.16169e-25
7.24333e-25
3.34311e-24
1.39992e-23
3.20463e-23
8.22238e-24
5.75216e-26
2.58065e-25
1.075e-25
2.60908e-26
6.20328e-27
3.88993e-27
9.09954e-27
2.0856e-26
4.22047e-26
9.37745e-26
2.35163e-25
6.1683e-25
1.41863e-24
2.81791e-24
4.37406e-24
4.43635e-24
2.89938e-24
1.44873e-24
6.29804e-25
2.45337e-25
9.88248e-26
4.46579e-26
2.19919e-26
9.55438e-27
3.89478e-27
5.78086e-27
2.64065e-26
1.15679e-25
2.71725e-25
6.25207e-26
3.49948e-28
1.73091e-27
7.12756e-28
1.66526e-28
4.41178e-29
4.48924e-29
1.15678e-28
2.52629e-28
4.82211e-28
9.88754e-28
2.24534e-27
5.28194e-27
1.13226e-26
2.17483e-26
3.30266e-26
3.29453e-26
2.19915e-26
1.17546e-26
5.56395e-27
2.36774e-27
1.04013e-27
5.13778e-28
2.73286e-28
1.24708e-28
4.62376e-29
4.15723e-29
1.72925e-28
7.83957e-28
1.88927e-27
3.89542e-28
1.89624e-30
9.31157e-30
4.13034e-30
9.17819e-31
2.96835e-31
4.60533e-31
1.24011e-30
2.59833e-30
4.57945e-30
8.41124e-30
1.701e-29
3.63137e-29
7.34869e-29
1.33586e-28
1.93153e-28
1.93118e-28
1.36938e-28
7.90674e-29
4.00356e-29
1.84603e-29
8.95923e-30
4.91207e-30
2.83565e-30
1.36785e-30
4.99417e-31
2.85309e-31
9.44546e-31
4.38076e-30
1.08404e-29
2.00258e-30
7.41035e-33
4.57146e-32
1.83599e-32
4.24607e-33
1.90262e-33
4.37993e-33
1.16848e-32
2.23642e-32
3.48592e-32
5.64193e-32
1.03073e-31
2.0285e-31
3.75963e-31
6.23955e-31
8.63304e-31
8.8612e-31
6.59974e-31
4.00391e-31
2.19032e-31
1.14415e-31
6.34311e-32
3.86804e-32
2.41419e-32
1.24294e-32
4.73349e-33
1.99664e-33
4.49205e-33
2.0576e-32
5.1276e-32
8.49312e-33
2.67254e-35
1.82656e-34
6.71948e-35
1.75445e-35
1.29035e-35
3.63579e-35
8.9676e-35
1.55353e-34
2.19408e-34
3.2509e-34
5.37467e-34
9.14557e-34
1.44363e-33
2.1669e-33
2.96502e-33
3.15724e-33
2.46913e-33
1.62041e-33
1.00519e-33
6.01629e-34
3.72094e-34
2.48584e-34
1.69805e-34
9.59759e-35
3.92682e-35
1.42134e-35
1.93474e-35
8.09266e-35
1.98e-34
3.01897e-35
9.65688e-38
5.45841e-37
2.41723e-37
7.30255e-38
8.62233e-38
2.42806e-37
5.63963e-37
9.20493e-37
1.21501e-36
1.63532e-36
2.30805e-36
3.27694e-36
4.63176e-36
6.77456e-36
9.10181e-36
9.31864e-36
7.35089e-36
5.31461e-36
3.80251e-36
2.58758e-36
1.78641e-36
1.33629e-36
1.02471e-36
6.40958e-37
2.79198e-37
9.47378e-38
7.78983e-38
2.67355e-37
6.44659e-37
9.5017e-38
2.37855e-40
1.58187e-39
7.59179e-40
3.06774e-40
4.94058e-40
1.43827e-39
3.27241e-39
4.91383e-39
5.73719e-39
6.47172e-39
7.4969e-39
9.43817e-39
1.27855e-38
1.72361e-38
1.99462e-38
1.86725e-38
1.60386e-38
1.40928e-38
1.20062e-38
9.21474e-39
7.115e-39
6.03387e-39
5.23046e-39
3.59834e-39
1.65759e-39
5.61338e-40
3.19839e-40
8.02302e-40
1.89311e-39
2.748e-40
5.99215e-43
4.78977e-42
2.14572e-42
1.25233e-42
2.53047e-42
7.58047e-42
1.55912e-41
2.07477e-41
2.10559e-41
2.05291e-41
2.17086e-41
2.61582e-41
3.12875e-41
3.38292e-41
3.32818e-41
3.24567e-41
3.32014e-41
3.34503e-41
3.06218e-41
2.55923e-41
2.28623e-41
2.28898e-41
2.29599e-41
1.73656e-41
8.43451e-42
2.94096e-42
1.37996e-42
2.36411e-42
5.09399e-42
7.32712e-43
1.92416e-45
1.16864e-44
6.42729e-45
5.08502e-45
1.20733e-44
3.20011e-44
5.84355e-44
7.17754e-44
6.56259e-44
5.9e-44
5.86767e-44
6.11802e-44
5.58639e-44
4.84277e-44
4.66373e-44
5.12664e-44
5.57451e-44
5.64667e-44
5.56418e-44
5.65249e-44
6.39139e-44
7.63058e-44
8.66412e-44
6.96709e-44
3.54847e-44
1.31022e-44
5.79403e-45
7.04015e-45
1.26538e-44
1.87036e-45
4.3012e-48
2.64737e-47
1.84498e-47
1.94377e-47
4.44393e-47
1.07041e-46
1.94378e-46
2.21229e-46
1.86023e-46
1.4683e-46
1.23085e-46
9.91206e-47
7.26933e-47
5.81629e-47
5.89712e-47
6.45466e-47
6.56693e-47
6.82005e-47
8.23751e-47
1.09051e-46
1.5026e-46
2.03745e-46
2.42339e-46
2.15854e-46
1.21931e-46
5.00816e-47
2.24836e-47
2.15864e-47
3.05503e-47
4.7898e-48
1.06061e-50
6.37554e-50
5.15207e-50
5.86692e-50
1.20353e-49
2.96139e-49
5.21066e-49
5.05965e-49
3.89182e-49
2.58137e-49
1.83772e-49
1.31309e-49
9.32228e-50
7.40603e-50
6.69891e-50
5.96885e-50
5.60565e-50
6.84356e-50
1.07327e-49
1.74511e-49
2.71805e-49
4.14648e-49
5.30801e-49
5.70466e-49
3.7322e-49
1.67972e-49
7.59729e-50
6.34181e-50
7.22297e-50
1.20118e-50
2.62266e-53
1.33691e-52
1.29592e-52
1.37967e-52
2.93412e-52
6.89865e-52
1.03766e-51
9.15943e-52
6.10093e-52
3.63301e-52
2.44984e-52
1.74739e-52
1.19577e-52
7.91891e-53
5.42606e-53
4.19664e-53
4.58417e-53
7.49818e-53
1.43163e-52
2.57032e-52
4.26926e-52
7.12947e-52
1.08189e-51
1.28947e-51
9.52949e-52
4.42193e-52
1.99711e-52
1.57788e-52
1.5999e-52
2.82502e-53
3.98922e-56
2.77993e-55
2.36548e-55
2.75489e-55
5.92448e-55
1.24117e-54
1.76129e-54
1.53427e-54
9.46597e-55
5.39858e-55
3.57953e-55
2.38356e-55
1.35814e-55
7.18099e-56
4.43704e-56
3.91219e-56
5.30684e-56
9.58095e-56
1.82589e-55
3.23423e-55
5.57799e-55
1.03061e-54
1.8141e-54
2.3065e-54
1.82878e-54
8.6268e-55
4.06175e-55
3.29938e-55
3.30704e-55
6.07903e-56
8.29116e-59
5.1092e-58
3.90574e-58
5.05603e-58
9.22092e-58
1.90637e-57
2.68858e-57
2.25598e-57
1.27825e-57
7.09977e-58
4.45244e-58
2.57045e-58
1.25316e-58
6.45762e-59
4.55923e-59
4.61627e-59
6.15636e-59
9.95599e-59
1.80442e-58
3.35715e-58
6.57316e-58
1.40227e-57
2.77475e-57
3.60456e-57
2.91352e-57
1.39186e-57
7.04207e-58
6.07593e-58
6.25686e-58
1.15403e-58
2.22329e-61
5.99156e-61
7.82153e-61
9.37177e-61
1.60979e-60
3.48667e-60
4.17122e-60
3.17668e-60
1.63884e-60
8.65369e-61
4.83822e-61
2.46881e-61
1.18003e-61
6.88701e-62
5.44503e-62
5.36907e-62
6.46493e-62
9.88221e-62
1.95651e-61
4.27787e-61
9.58984e-61
2.17726e-60
4.28716e-60
5.27677e-60
4.10024e-60
1.98575e-60
1.09192e-60
9.95422e-61
1.05586e-60
1.92885e-61
1.76329e-64
1.10417e-63
1.60444e-63
1.71446e-63
3.10942e-63
6.14778e-63
6.13414e-63
4.60784e-63
2.31503e-63
1.15418e-63
5.78158e-64
2.74652e-64
1.3419e-64
8.15305e-65
6.13718e-65
5.52223e-65
6.56485e-65
1.1096e-64
2.5441e-64
6.12137e-64
1.37741e-63
2.93459e-63
5.47753e-63
6.39882e-63
5.14113e-63
2.70958e-63
1.63246e-63
1.55392e-63
1.66827e-63
2.97499e-64
2.89666e-67
3.21442e-66
2.7507e-66
2.75485e-66
4.56465e-66
7.57175e-66
7.2112e-66
5.71624e-66
2.87855e-66
1.33024e-66
6.04673e-67
2.69237e-67
1.2482e-67
6.86909e-68
4.59623e-68
4.04477e-68
5.42544e-68
1.09242e-67
2.78064e-67
6.69443e-67
1.42413e-66
2.94227e-66
5.87132e-66
7.35803e-66
7.01702e-66
4.11489e-66
2.56142e-66
2.42628e-66
2.53045e-66
4.32299e-67
9.59174e-70
4.68443e-69
3.5492e-69
3.60285e-69
5.4431e-69
8.44596e-69
8.21509e-69
6.41627e-69
2.98752e-69
1.2123e-69
4.93005e-70
2.03708e-70
8.69566e-71
4.31092e-71
2.78996e-71
2.77322e-71
4.5118e-71
1.03353e-70
2.66285e-70
6.13381e-70
1.29186e-69
2.88098e-69
6.6787e-69
9.74313e-69
1.02749e-68
6.14934e-69
3.70062e-69
3.41151e-69
3.526e-69
5.93234e-70
1.00367e-72
3.36885e-72
3.93615e-72
4.23617e-72
6.5816e-72
9.99892e-72
9.57561e-72
6.71421e-72
2.7551e-72
9.78039e-73
3.74059e-73
1.55783e-73
6.746e-74
3.45315e-74
2.45278e-74
2.75383e-74
4.73292e-74
1.0389e-73
2.44714e-73
5.34133e-73
1.17133e-72
2.90081e-72
7.40852e-72
1.14482e-71
1.17902e-71
6.7887e-72
4.17125e-72
4.02105e-72
4.57273e-72
8.00379e-73
5.70246e-76
5.79314e-75
5.76903e-75
5.66451e-75
7.66997e-75
1.00069e-74
9.34947e-75
6.09594e-75
2.31273e-75
7.90721e-76
3.21082e-76
1.46794e-76
6.82003e-77
3.68214e-77
2.70417e-77
2.92399e-77
4.47226e-77
8.4105e-77
1.78982e-76
3.94311e-76
9.43156e-76
2.5439e-75
6.63316e-75
9.73574e-75
9.47731e-75
5.55083e-75
3.96761e-75
4.38122e-75
5.84678e-75
1.06056e-75
1.47798e-78
1.37494e-77
8.75263e-78
7.28563e-78
7.72191e-78
9.28596e-78
9.33101e-78
6.15585e-78
2.30144e-78
8.30986e-79
3.70121e-79
1.76067e-79
8.02339e-80
4.13453e-80
2.80454e-80
2.65851e-80
3.48657e-80
5.90096e-80
1.26056e-79
3.06938e-79
8.10911e-79
2.2558e-78
5.60453e-78
7.54471e-78
7.10931e-78
4.61529e-78
3.7199e-78
4.77132e-78
6.96181e-78
1.23437e-78
4.4088e-81
1.36066e-80
9.22153e-81
6.31244e-81
6.86508e-81
1.01674e-80
1.08838e-80
7.09265e-81
2.66626e-81
1.02809e-81
4.64281e-82
2.06937e-82
8.60712e-83
4.11968e-83
2.63713e-83
2.35225e-83
2.9817e-83
5.16894e-83
1.19559e-82
3.16481e-82
8.53686e-82
2.25628e-81
5.13131e-81
6.58377e-81
6.13402e-81
4.28904e-81
3.56047e-81
4.67562e-81
6.65579e-81
1.11132e-81
1.86873e-84
6.42759e-84
7.0487e-84
5.66322e-84
7.63576e-84
1.23478e-83
1.15325e-83
6.38469e-84
2.36322e-84
8.99069e-85
3.69253e-85
1.44388e-85
5.61786e-86
2.77143e-86
1.92285e-86
1.86876e-86
2.55613e-86
4.73832e-86
1.1405e-85
3.02476e-85
7.85394e-85
1.97285e-84
4.38549e-84
5.8439e-84
5.65301e-84
4.08147e-84
3.23584e-84
3.92032e-84
4.92322e-84
7.78242e-85
9.95845e-88
1.11082e-86
9.96461e-87
8.32696e-87
1.22165e-86
1.45918e-86
9.77734e-87
4.25609e-87
1.44311e-87
4.63027e-88
1.49152e-88
4.91059e-89
1.94137e-89
1.14182e-89
9.54981e-90
1.05617e-89
1.54844e-89
2.93828e-89
7.02573e-89
1.83685e-88
4.84229e-88
1.3069e-87
3.29803e-87
5.26659e-87
5.68774e-87
4.15539e-87
3.04703e-87
3.15905e-87
3.29279e-87
4.99403e-88
2.37588e-90
2.26918e-89
1.56663e-89
1.34635e-89
1.62733e-89
1.33748e-89
7.81478e-90
3.20334e-90
9.67597e-91
2.44257e-91
6.22995e-92
1.913e-92
7.97517e-93
5.03662e-93
4.34025e-93
4.73062e-93
6.72515e-93
1.24785e-92
2.98334e-92
8.20168e-92
2.4983e-91
8.39346e-91
2.69316e-90
5.41541e-90
6.49844e-90
4.68449e-90
3.06688e-90
2.72852e-90
2.40863e-90
3.58892e-91
4.88094e-93
1.79263e-92
1.34659e-92
1.06729e-92
1.20932e-92
1.06747e-92
7.48171e-93
3.14615e-93
8.37681e-94
1.83081e-94
4.4382e-95
1.37019e-95
5.60924e-96
3.12927e-96
2.22665e-96
2.12697e-96
2.91288e-96
5.5923e-96
1.42977e-95
4.33916e-95
1.5147e-94
6.04894e-94
2.31578e-93
5.42904e-93
6.88304e-93
4.85941e-93
2.95147e-93
2.50081e-93
2.13726e-93
3.3105e-94
1.79028e-96
8.28556e-96
9.83132e-96
8.60548e-96
1.01466e-95
1.10115e-95
7.97903e-96
2.82357e-96
6.20247e-97
1.27196e-97
3.22382e-98
9.89537e-99
3.52542e-99
1.56012e-99
9.16729e-100
8.6003e-100
1.33327e-99
2.96998e-99
8.41945e-99
2.67052e-98
9.48982e-98
3.84854e-97
1.54662e-96
3.93896e-96
5.26351e-96
4.01437e-96
2.65669e-96
2.4679e-96
2.42171e-96
4.04179e-97
1.24457e-99
1.45506e-98
1.39824e-98
1.13275e-98
1.42844e-98
1.43969e-98
7.21804e-99
1.7002e-99
2.99324e-100
6.02771e-101
1.54564e-101
4.28491e-102
1.22558e-102
4.35012e-103
2.58083e-103
2.91971e-103
5.64018e-103
1.50197e-102
4.50862e-102
1.3709e-101
4.45744e-101
1.68877e-100
6.7696e-100
1.94828e-99
3.02786e-99
3.02759e-99
2.48067e-99
2.83023e-99
3.36395e-99
5.8834e-100
2.86977e-102
2.57691e-101
1.82732e-101
1.48216e-101
1.80567e-101
1.48555e-101
4.57172e-102
7.45042e-103
1.25151e-103
2.60433e-104
6.2645e-105
1.47473e-105
3.65017e-106
1.26396e-106
7.88873e-107
9.99215e-107
2.19049e-106
6.09657e-106
1.82014e-105
5.26082e-105
1.63237e-104
6.18929e-104
2.66119e-103
9.18366e-103
1.96067e-102
2.60046e-102
2.6077e-102
3.54929e-102
4.79106e-102
8.28832e-103
4.81356e-105
1.99532e-104
1.38189e-104
1.22661e-104
1.3637e-104
8.55417e-105
2.27848e-105
4.13707e-106
7.90552e-107
1.56288e-107
3.20447e-108
6.26565e-109
1.3516e-109
4.37758e-110
2.56212e-110
2.99497e-110
5.98375e-110
1.62289e-109
5.1748e-109
1.76956e-108
6.75623e-108
3.04853e-107
1.50072e-106
6.27582e-106
1.65473e-105
2.53587e-105
2.76164e-105
3.98248e-105
5.56916e-105
9.24884e-106
1.68736e-105
1.68736e-105
4.6152e-105
6.81848e-105
4.26254e-105
1.50069e-105
3.23886e-106
5.39342e-107
8.95161e-108
1.52679e-108
2.58712e-109
5.17758e-110
1.47955e-110
6.76915e-111
3.74876e-111
6.5989e-114
1.05274e-113
2.26107e-113
1.84168e-110
1.01932e-109
5.83392e-109
3.22048e-108
1.80154e-107
1.04307e-106
4.74344e-106
1.33271e-105
2.20579e-105
1.62104e-105
7.28621e-106
7.3046e-106
0.999975
0.999963
0.999971
0.999979
0.999988
0.999998
1.00001
1.00001
1.00002
1.00002
1.00003
1.00003
1.00003
1.00003
1.00004
1.00004
1.00004
1.00003
1.00003
1.00002
1.00001
1
1
1.00001
1.00002
1.00003
1.00005
1.00007
1.00008
1.00007