/*--------------------------------*- C++ -*----------------------------------*\
| =========                 |                                                 |
| \\      /  F ield         | OpenFOAM: The Open Source CFD Toolbox           |
|  \\    /   O peration     | Version:  2312                                  |
|   \\  /    A nd           | Website:  www.openfoam.com                      |
|    \\/     M anipulation  |                                                 |
\*---------------------------------------------------------------------------*/
FoamFile
{
    version     2.0;
    format      ascii;
    arch        "LSB;label=32;scalar=64";
    class       surfaceScalarField;
    location    "0.692487";
    object      alphaPhi0.water;
}
// * * * * * * * * * * * * * * * * * * * * * * * * * * * * * * * * * * * * * //

dimensions      [0 3 -1 0 0 0 0];

oriented        oriented;

internalField   nonuniform List<scalar> 
263100
(
1.10367e-10
-2.20728e-10
1.10367e-10
-1.02068e-09
1.44795e-09
-2.60473e-10
-1.65263e-09
1.0052e-09
-3.25433e-10
-1.98636e-09
8.22538e-10
-4.42015e-10
-2.07499e-09
6.39497e-10
-5.06567e-10
-1.92758e-09
4.10047e-10
-5.17706e-10
-1.58199e-09
1.86576e-10
-4.97481e-10
-1.12385e-09
2.35923e-11
-4.50552e-10
-6.77022e-10
-2.76387e-11
-3.89321e-10
-3.25289e-10
3.71098e-11
-3.59724e-10
-8.83246e-11
1.70582e-10
-3.82269e-10
6.06054e-11
3.23644e-10
-4.57927e-10
1.78817e-10
4.29142e-10
-5.51875e-10
3.47093e-10
4.48851e-10
-6.47805e-10
6.23492e-10
3.79925e-10
-7.15379e-10
1.02565e-09
2.32266e-10
-7.17515e-10
1.48035e-09
7.31094e-11
-6.24417e-10
1.84646e-09
-1.63744e-11
-4.45775e-10
1.98745e-09
1.29254e-11
-2.35686e-10
1.7928e-09
1.85708e-10
-4.92881e-11
1.20247e-09
4.74342e-10
8.35367e-11
2.31853e-10
8.36526e-10
1.221e-10
-1.00636e-09
1.1327e-09
1.02699e-10
-2.29194e-09
1.24927e-09
2.75686e-11
-3.24192e-09
1.02516e-09
-1.07126e-10
-3.60247e-09
4.58025e-10
-1.71138e-10
-3.54901e-09
-2.24098e-10
3.7491e-11
-3.64856e-09
-8.28962e-10
7.24181e-10
-4.54465e-09
-2.05029e-09
2.67355e-09
-1.55793e-08
1.0717e-08
-4.25893e-10
6.92937e-10
-4.25893e-10
-5.51288e-10
2.02002e-09
-3.6035e-10
-6.32861e-10
1.50691e-09
-3.42928e-10
-6.75028e-10
1.183e-09
-2.47061e-10
-6.68807e-10
8.38267e-10
-1.43251e-10
-6.27063e-10
4.69904e-10
-5.10599e-11
-5.54576e-10
1.47706e-10
7.00401e-12
-4.59018e-10
-5.46395e-11
1.59953e-11
-3.37493e-10
-1.26872e-10
4.27926e-12
-1.79539e-10
-8.25332e-11
-2.29057e-11
1.66243e-11
3.49443e-11
-6.60347e-11
2.42015e-10
1.48212e-10
-8.85786e-11
4.70678e-10
2.03129e-10
-8.39914e-11
6.77341e-10
1.73215e-10
-5.71348e-11
8.38107e-10
7.04569e-11
-1.38279e-11
9.22848e-10
-4.39325e-11
1.05152e-11
9.17286e-10
-1.07437e-10
1.02306e-11
8.37871e-10
-4.63456e-11
-3.8941e-11
7.00946e-10
1.7642e-10
-1.32389e-10
5.04046e-10
5.53727e-10
-2.31474e-10
2.85999e-10
9.95205e-10
-3.27621e-10
7.00349e-11
1.39157e-09
-3.48701e-10
-9.11516e-11
1.58699e-09
-3.14049e-10
-1.18348e-10
1.43012e-09
-2.14215e-10
3.53726e-11
7.761e-10
-2.95825e-11
4.28873e-10
-2.14856e-10
8.4797e-11
9.21237e-10
-1.02273e-09
1.25251e-10
5.21559e-10
-6.24491e-11
-1.04129e-10
-3.66058e-09
3.96706e-09
2.01806e-10
-1.44591e-08
2.81658e-09
-2.60543e-10
1.25514e-09
-2.60543e-10
2.33876e-10
1.64158e-09
-6.56973e-11
5.27204e-10
1.2069e-09
4.40996e-11
6.73353e-10
9.28699e-10
1.32327e-10
6.75447e-10
6.39429e-10
2.03938e-10
5.41187e-10
3.50887e-10
2.42129e-10
3.19209e-10
1.11812e-10
2.29667e-10
1.01112e-10
-6.03115e-11
1.80687e-10
-3.76613e-11
-1.51608e-10
1.06168e-10
-3.1482e-11
-1.89818e-10
2.70724e-11
1.2713e-10
-2.01984e-10
-1.71165e-11
3.86877e-10
-2.22836e-10
-9.75803e-12
6.59089e-10
-2.52633e-10
3.67183e-11
8.28999e-10
-2.74057e-10
1.1118e-10
8.13644e-10
-2.56438e-10
1.69925e-10
5.96013e-10
-1.61139e-10
1.73863e-10
2.31323e-10
2.69388e-11
9.79692e-11
-1.62969e-10
2.85688e-10
-2.9431e-11
-4.44588e-10
6.1049e-10
-2.00549e-10
-4.70115e-10
9.63847e-10
-3.96522e-10
-1.75367e-10
1.24036e-09
-5.31561e-10
4.03319e-10
1.39118e-09
-5.69971e-10
1.17447e-09
1.30281e-09
-4.99097e-10
1.96436e-09
8.81367e-10
-2.92756e-10
2.58712e-09
1.57867e-10
-1.21298e-10
2.88647e-09
-8.89888e-10
1.13382e-10
3.52623e-09
-2.41651e-09
2.37887e-11
5.47843e-09
-2.85122e-09
-1.29204e-09
1.63823e-09
5.04197e-09
-1.92413e-09
-7.67958e-09
-3.89855e-09
-4.472e-12
1.28376e-09
-4.472e-12
8.31712e-10
6.04081e-10
2.27958e-10
1.32543e-09
4.22078e-10
3.0043e-10
1.57101e-09
2.94777e-10
3.80188e-10
1.56258e-09
2.05869e-10
4.13892e-10
1.32242e-09
1.4828e-10
3.94201e-10
9.46706e-10
9.05267e-11
3.29097e-10
5.48538e-10
3.21121e-11
2.20029e-10
2.45164e-10
-5.59506e-11
1.05231e-10
1.04673e-10
-1.8145e-10
1.35107e-11
1.492e-10
-3.41026e-10
-3.84255e-11
3.12495e-10
-4.89276e-10
-3.92669e-11
4.86099e-10
-5.6999e-10
9.78691e-13
5.61892e-10
-5.3379e-10
5.35689e-11
4.60789e-10
-3.3866e-10
7.92948e-11
1.7079e-10
1.63542e-12
6.10183e-11
-2.22592e-10
4.05379e-10
-7.88703e-12
-5.89551e-10
7.86867e-10
-1.16192e-10
-7.51586e-10
1.06598e-09
-2.45081e-10
-5.79429e-10
1.19248e-09
-3.38112e-10
-1.85705e-11
1.14938e-09
-4.10174e-10
8.74768e-10
9.59229e-10
-4.18172e-10
1.92308e-09
6.25642e-10
-3.49555e-10
2.86142e-09
2.07549e-10
-2.56238e-10
3.37375e-09
-1.55743e-10
-1.62245e-10
3.06153e-09
-3.53818e-10
-7.51703e-12
2.0266e-09
-9.76579e-10
3.48002e-10
2.71806e-09
-2.57998e-09
3.17584e-10
2.48673e-09
4.08135e-09
4.5327e-11
-2.10906e-09
-2.53015e-09
2.02427e-10
8.86314e-10
2.02427e-10
1.20109e-09
-7.99104e-10
4.4114e-10
1.77795e-09
-6.1666e-10
4.8214e-10
2.07692e-09
-5.00022e-10
5.0527e-10
2.08114e-09
-2.86845e-10
4.87304e-10
1.84329e-09
-3.8106e-11
4.12699e-10
1.43638e-09
1.67456e-10
3.0844e-10
9.77929e-10
2.7182e-10
1.87605e-10
5.73867e-10
2.37087e-10
7.15252e-11
2.72072e-10
6.66022e-11
9.27267e-12
9.40837e-11
-1.64402e-10
-4.13384e-11
2.32173e-11
-3.84508e-10
-6.4659e-11
4.34617e-12
-4.86955e-10
-7.10471e-11
-3.21054e-11
-3.95505e-10
-7.43733e-11
-1.19754e-10
-9.85289e-11
-8.52742e-11
-2.57402e-10
3.4695e-10
-1.02819e-10
-4.08898e-10
8.12737e-10
-1.23208e-10
-4.9846e-10
1.14639e-09
-1.24712e-10
-4.23218e-10
1.24535e-09
-1.13362e-10
-1.1346e-10
1.09871e-09
-9.21223e-11
4.39206e-10
7.7754e-10
-8.04137e-11
1.19245e-09
3.61048e-10
-7.37624e-11
1.97693e-09
1.53961e-11
-9.61534e-11
2.58164e-09
-1.31825e-10
-1.70045e-10
2.91404e-09
-4.12825e-11
-3.42519e-10
2.78693e-09
4.30712e-10
-6.15897e-10
1.45403e-09
1.23301e-09
-8.06147e-10
1.83436e-10
2.75461e-10
-7.18222e-10
7.822e-10
4.1831e-09
-5.35639e-10
1.2786e-09
-2.10938e-09
3.35626e-10
2.35873e-10
3.35626e-10
1.28116e-09
-2.16093e-09
5.06191e-10
1.82978e-09
-1.59304e-09
5.08534e-10
2.1542e-09
-1.20954e-09
4.70345e-10
2.25574e-09
-6.89513e-10
3.92691e-10
2.14686e-09
-1.27926e-10
2.96173e-10
1.86606e-09
3.5882e-10
1.91334e-10
1.47607e-09
6.62519e-10
1.04376e-10
1.01857e-09
7.48504e-10
5.51606e-11
5.43859e-10
6.38256e-10
2.02066e-11
9.29262e-11
4.1186e-10
7.01469e-12
-2.99786e-10
1.82757e-10
-1.90292e-11
-5.8194e-10
4.39087e-11
-6.48203e-11
-7.21e-10
6.69713e-11
-1.12529e-10
-7.28009e-10
2.63125e-10
-1.26579e-10
-6.18255e-10
5.73726e-10
-1.08257e-10
-4.27816e-10
8.74849e-10
-4.36902e-11
-1.89732e-10
1.01422e-09
6.74024e-11
9.71805e-11
9.30958e-10
1.57996e-10
4.27532e-10
6.13131e-10
2.47437e-10
7.74691e-10
1.99307e-10
3.00595e-10
1.08814e-09
-1.69981e-10
2.8814e-10
1.30239e-09
-2.63817e-10
1.65888e-10
1.31383e-09
3.66464e-11
-7.50082e-12
1.09509e-09
6.83312e-10
-2.03279e-10
8.66715e-10
1.58842e-09
-5.07325e-10
3.58252e-10
3.02201e-09
-9.48041e-10
-8.38259e-10
3.21224e-09
-1.15743e-09
-3.55473e-10
5.21542e-09
-1.09259e-09
2.86629e-09
-1.56444e-09
3.02378e-10
-3.08502e-10
3.02378e-10
1.06445e-09
-3.1478e-09
3.86341e-10
1.55088e-09
-2.25651e-09
3.36166e-10
1.93983e-09
-1.66765e-09
2.43817e-10
2.20781e-09
-9.13337e-10
1.46457e-10
2.34472e-09
-1.26147e-10
6.50661e-11
2.29897e-09
5.84456e-10
3.35459e-11
2.04897e-09
1.09916e-09
3.4297e-11
1.6024e-09
1.35983e-09
6.41716e-11
9.82985e-10
1.3993e-09
9.81496e-11
2.62446e-10
1.27209e-09
1.13919e-10
-4.29611e-10
1.04083e-09
1.00877e-10
-9.63071e-10
7.7929e-10
7.05861e-11
-1.23854e-09
5.66601e-10
3.77436e-11
-1.21483e-09
4.48605e-10
1.96591e-11
-9.47856e-10
3.96409e-10
8.34164e-11
-5.22423e-10
3.67716e-10
1.83934e-10
-6.99168e-11
2.71118e-10
3.21277e-10
3.32081e-10
5.03915e-11
4.53857e-10
5.86502e-10
-2.39946e-10
5.49083e-10
6.56831e-10
-4.99413e-10
5.92459e-10
5.47122e-10
-5.67613e-10
5.23228e-10
3.06168e-10
-3.01775e-10
3.72796e-10
-4.21011e-11
4.08718e-10
1.50597e-10
-5.25486e-10
1.5123e-09
-9.0442e-11
-9.2283e-10
2.71452e-09
-3.57004e-10
-9.50108e-10
4.1091e-09
-6.9284e-10
-1.27789e-09
4.73114e-09
-8.28864e-10
-5.41305e-10
5.52349e-09
-7.72106e-10
3.21007e-09
-7.20693e-10
9.76634e-11
-4.00065e-10
9.76634e-11
6.51016e-10
-3.60432e-09
1.06032e-10
1.09967e-09
-2.50446e-09
-2.33144e-12
1.58263e-09
-1.82272e-09
-1.19006e-10
2.06544e-09
-1.00043e-09
-1.79537e-10
2.46737e-09
-1.27411e-10
-1.81856e-10
2.68241e-09
6.93718e-10
-1.06053e-10
2.61338e-09
1.38422e-09
1.21709e-12
2.23062e-09
1.86581e-09
9.46248e-11
1.55182e-09
2.10351e-09
1.94239e-10
6.76743e-10
2.09679e-09
2.68991e-10
-2.16467e-10
1.85093e-09
2.90469e-10
-9.45433e-10
1.40108e-09
2.84666e-10
-1.38379e-09
8.39809e-10
2.88635e-10
-1.48365e-09
2.7658e-10
3.18415e-10
-1.29016e-09
-2.0937e-10
3.68759e-10
-8.973e-10
-6.05973e-10
4.51146e-10
-4.55719e-10
-9.07952e-10
5.45059e-10
-9.91986e-11
-1.14337e-09
6.20921e-10
7.75265e-11
-1.28092e-09
6.68991e-10
3.87402e-11
-1.23943e-09
6.44372e-10
-2.17474e-10
-9.38073e-10
5.79974e-10
-6.36122e-10
-3.04517e-10
4.73839e-10
-1.08226e-09
6.51561e-10
3.41029e-10
-1.45444e-09
1.85993e-09
1.95101e-10
-1.74071e-09
3.1134e-09
6.42365e-11
-1.54607e-09
4.13819e-09
-6.70488e-11
-1.24379e-09
4.60459e-09
-7.8903e-11
-3.24625e-10
4.6448e-09
5.41453e-12
2.64542e-09
2.5245e-10
-2.51855e-10
2.22838e-10
-2.51855e-10
1.72436e-10
-3.55185e-09
-2.96356e-10
6.15123e-10
-2.39645e-09
-3.8572e-10
1.18963e-09
-1.80674e-09
-4.33906e-10
1.81301e-09
-1.06285e-09
-4.18173e-10
2.40253e-09
-2.55235e-10
-3.35762e-10
2.81035e-09
5.93135e-10
-1.97248e-10
2.90636e-09
1.40068e-09
-1.43921e-11
2.65356e-09
2.08758e-09
1.21258e-10
2.06409e-09
2.52229e-09
2.53108e-10
1.24093e-09
2.6228e-09
3.64372e-10
3.40077e-10
2.33815e-09
4.50152e-10
-4.80105e-10
1.70076e-09
5.05722e-10
-1.09828e-09
8.24312e-10
5.48566e-10
-1.48012e-09
-1.00118e-10
5.94064e-10
-1.63444e-09
-8.97366e-10
6.05959e-10
-1.57756e-09
-1.55439e-09
6.08919e-10
-1.39085e-09
-1.97527e-09
5.90759e-10
-1.17703e-09
-2.16389e-09
5.52139e-10
-1.01486e-09
-2.1136e-09
4.85649e-10
-9.47625e-10
-1.82473e-09
4.19441e-10
-1.01973e-09
-1.26963e-09
3.85033e-10
-1.19887e-09
-4.61566e-10
3.73629e-10
-1.4368e-09
5.58739e-10
3.95811e-10
-1.59707e-09
1.66064e-09
4.10869e-10
-1.61253e-09
2.67295e-09
4.54573e-10
-1.30173e-09
3.32283e-09
4.69488e-10
-7.44899e-10
3.45327e-09
5.41121e-10
-2.35557e-11
3.23133e-09
6.6516e-10
1.88585e-09
7.59612e-10
-4.58618e-10
1.23315e-09
-4.58618e-10
-1.3597e-10
-3.2689e-09
-4.95296e-10
2.22435e-10
-2.16197e-09
-5.08034e-10
7.35325e-10
-1.77041e-09
-4.89494e-10
1.33094e-09
-1.24229e-09
-3.85083e-10
1.90385e-09
-5.74485e-10
-2.49179e-10
2.33646e-09
2.48086e-10
-1.02937e-10
2.54661e-09
1.12413e-09
3.93278e-11
2.49872e-09
1.95606e-09
1.45819e-10
2.19481e-09
2.53008e-09
2.54414e-10
1.66998e-09
2.73346e-09
3.55069e-10
9.94107e-10
2.45613e-09
4.67561e-10
2.35309e-10
1.74926e-09
5.76618e-10
-5.39188e-10
7.69043e-10
6.49863e-10
-1.28142e-09
-2.36035e-10
6.63431e-10
-1.9084e-09
-1.11648e-09
6.2227e-10
-2.35521e-09
-1.8243e-09
5.17537e-10
-2.54581e-09
-2.2816e-09
3.53704e-10
-2.48144e-09
-2.47907e-09
1.8192e-10
-2.2615e-09
-2.40354e-09
7.45938e-11
-1.95132e-09
-2.11142e-09
3.51794e-11
-1.64607e-09
-1.55449e-09
5.97801e-11
-1.40969e-09
-7.56963e-10
1.22363e-10
-1.27468e-09
2.08753e-10
2.34394e-10
-1.13351e-09
1.14501e-09
3.45827e-10
-8.93542e-10
1.90638e-09
4.55899e-10
-4.77658e-10
2.27484e-09
5.69677e-10
-1.98647e-11
2.28929e-09
6.95787e-10
3.22201e-10
2.18887e-09
7.65209e-10
1.62102e-09
6.94768e-10
-2.74261e-10
1.82818e-09
-2.74261e-10
-2.31299e-10
-3.00059e-09
-2.62243e-10
-1.19898e-10
-2.06857e-09
-1.80724e-10
1.19879e-10
-1.89004e-09
-1.21596e-10
4.19552e-10
-1.55982e-09
-8.04769e-12
7.23445e-10
-1.00778e-09
8.576e-11
1.0094e-09
-2.27126e-10
1.37293e-10
1.266e-09
6.75699e-10
1.39168e-10
1.5047e-09
1.5451e-09
1.21003e-10
1.67188e-09
2.18052e-09
1.28137e-10
1.67786e-09
2.45518e-09
2.06861e-10
1.43312e-09
2.32483e-09
2.9344e-10
8.81966e-10
1.80744e-09
3.96104e-10
3.79917e-11
1.07073e-09
4.46551e-10
-9.90445e-10
3.11762e-10
4.1195e-10
-2.00837e-09
-3.99381e-10
2.87607e-10
-2.85413e-09
-9.96672e-10
8.00558e-11
-3.3885e-09
-1.47007e-09
-1.38742e-10
-3.46145e-09
-1.88549e-09
-3.26165e-10
-3.16219e-09
-2.06496e-09
-4.24712e-10
-2.62112e-09
-2.02816e-09
-4.35258e-10
-2.02147e-09
-1.67577e-09
-3.47277e-10
-1.44692e-09
-1.07599e-09
-1.98968e-10
-9.62712e-10
-2.74219e-10
-1.39509e-11
-5.11765e-10
5.24691e-10
1.22416e-10
-5.69043e-11
1.16044e-09
2.54158e-10
3.53523e-10
1.50506e-09
3.80943e-10
5.64772e-10
1.69967e-09
4.71862e-10
5.0402e-10
1.89927e-09
4.83805e-10
1.72971e-09
4.9557e-10
3.31045e-10
1.18466e-09
3.31045e-10
-1.94497e-10
-2.7695e-09
3.34048e-10
-5.31772e-10
-2.15499e-09
4.48168e-10
-8.35344e-10
-2.04562e-09
4.72002e-10
-1.08827e-09
-1.81148e-09
5.10227e-10
-1.21682e-09
-1.31804e-09
4.44275e-10
-1.12381e-09
-6.18582e-10
3.09579e-10
-7.76158e-10
2.16542e-10
1.29711e-10
-1.76575e-10
9.74691e-10
-7.78509e-12
5.7e-10
1.55354e-09
-1.01479e-10
1.20867e-09
1.9159e-09
-8.79218e-11
1.47696e-09
2.06193e-09
5.1722e-12
1.25204e-09
2.03242e-09
2.7144e-11
5.22051e-10
1.87461e-09
-3.71433e-12
-5.48736e-10
1.59929e-09
-7.80044e-11
-1.74179e-09
1.2417e-09
-2.28008e-10
-2.78832e-09
7.38665e-10
-3.971e-10
-3.4094e-09
5.06054e-11
-5.6957e-10
-3.55454e-09
-7.18451e-10
-7.02146e-10
-3.28583e-09
-1.36138e-09
-7.11122e-10
-2.74017e-09
-1.76784e-09
-6.35869e-10
-2.04923e-09
-1.80011e-09
-4.94001e-10
-1.34791e-09
-1.45704e-09
-3.2399e-10
-6.70357e-10
-8.39121e-10
-1.53184e-10
-3.2305e-11
-1.53283e-10
1.18803e-11
5.51201e-10
4.53013e-10
1.44729e-10
9.23949e-10
9.40387e-10
2.66928e-10
9.78631e-10
1.37157e-09
3.64755e-10
7.64128e-10
1.72231e-09
4.46978e-10
1.81523e-09
6.72905e-10
1.18854e-09
-1.16526e-09
1.18854e-09
-1.3998e-10
-2.39396e-09
1.01971e-09
-1.15201e-09
-2.10871e-09
1.02692e-09
-2.10589e-09
-1.93392e-09
9.06036e-10
-2.91674e-09
-1.65229e-09
7.22802e-10
-3.42944e-09
-1.18574e-09
4.61699e-10
-3.45417e-09
-6.7091e-10
1.67081e-10
-2.91231e-09
-1.40209e-10
-9.24152e-11
-1.8953e-09
3.33154e-10
-2.87844e-10
-6.27799e-10
7.43417e-10
-3.78851e-10
5.27405e-10
1.21548e-09
-3.7998e-10
1.2604e-09
1.75718e-09
-3.3976e-10
1.37904e-09
2.34741e-09
-3.05733e-10
9.14749e-10
2.87821e-09
-3.47522e-10
3.94429e-11
3.18216e-09
-4.41141e-10
-9.66582e-10
3.12142e-09
-5.44971e-10
-1.84605e-09
2.60295e-09
-6.30013e-10
-2.40431e-09
1.61882e-09
-6.79304e-10
-2.62654e-09
4.06871e-10
-6.43475e-10
-2.51173e-09
-7.89506e-10
-5.24757e-10
-2.20967e-09
-1.61531e-09
-3.88427e-10
-1.74107e-09
-2.02165e-09
-2.4931e-10
-1.18734e-09
-1.90885e-09
-1.30428e-10
-5.50145e-10
-1.48835e-09
-1.95515e-12
1.51369e-10
-9.30642e-10
1.00875e-10
7.82471e-10
-3.54869e-10
2.3479e-10
1.16733e-09
2.02093e-10
4.063e-10
1.22613e-09
7.1973e-10
5.95533e-10
9.84563e-10
1.10263e-09
8.10202e-10
1.70495e-09
1.04846e-09
1.61438e-09
-4.34475e-09
1.61438e-09
-4.56536e-10
-1.33459e-09
1.08581e-09
-2.00587e-09
-1.42495e-09
9.38945e-10
-3.3567e-09
-1.18126e-09
6.80403e-10
-4.41587e-09
-8.89337e-10
3.90302e-10
-4.97056e-09
-5.98755e-10
7.16624e-11
-4.93774e-09
-4.4412e-10
-1.52894e-10
-4.17046e-09
-4.35889e-10
-3.7123e-10
-2.85519e-09
-4.44287e-10
-4.49607e-10
-1.32666e-09
-2.72612e-10
-4.33037e-10
4.96907e-11
2.98194e-10
-3.73354e-10
9.89491e-10
1.26949e-09
-3.36474e-10
1.38495e-09
2.46787e-09
-3.47037e-10
1.29283e-09
3.60327e-09
-3.99585e-10
8.66622e-10
4.32398e-09
-4.27802e-10
3.03386e-10
4.42789e-09
-4.32955e-10
-2.44063e-10
3.81707e-09
-3.78018e-10
-7.00098e-10
2.55447e-09
-2.52031e-10
-1.03977e-09
9.91928e-10
-9.77003e-11
-1.27678e-09
-4.89752e-10
1.34316e-11
-1.39095e-09
-1.59655e-09
1.29922e-10
-1.39881e-09
-2.19843e-09
2.13834e-10
-1.18191e-09
-2.32788e-09
2.53964e-10
-7.15664e-10
-2.13074e-09
2.59598e-10
-9.15907e-11
-1.77323e-09
3.18313e-10
5.138e-10
-1.32547e-09
4.45753e-10
8.94026e-10
-7.75539e-10
6.246e-10
9.88195e-10
-2.33137e-10
8.37575e-10
6.96712e-10
3.69644e-10
1.01115e-09
1.62148e-09
8.25686e-10
1.1386e-09
-6.57564e-09
1.1386e-09
-1.12759e-09
4.94766e-10
4.6668e-10
-2.73772e-09
-6.71374e-12
2.26029e-10
-3.94064e-09
1.07871e-10
-4.10544e-11
-4.81086e-09
2.60011e-10
-2.21954e-10
-5.1318e-09
1.30855e-10
-3.44714e-10
-4.80249e-09
-3.25925e-10
-3.85704e-10
-3.80594e-09
-1.01924e-09
-3.60774e-10
-2.51665e-09
-1.46674e-09
-2.23505e-10
-1.16859e-09
-1.45233e-09
-1.2317e-10
-2.92889e-11
-7.41836e-10
-3.25776e-11
7.88599e-10
5.82921e-10
-2.21727e-11
1.28293e-09
2.20496e-09
-6.81945e-11
1.53488e-09
3.70094e-09
-1.38434e-10
1.593e-09
4.62573e-09
-1.25627e-10
1.52986e-09
4.75524e-09
-4.21618e-11
1.36838e-09
4.07941e-09
7.87285e-11
1.03653e-09
2.73115e-09
2.81106e-10
5.18598e-10
1.12759e-09
4.67151e-10
-1.22735e-10
-3.5787e-10
5.81341e-10
-7.68683e-10
-1.46877e-09
6.0507e-10
-1.22731e-09
-2.14224e-09
5.18347e-10
-1.34687e-09
-2.46551e-09
3.97157e-10
-1.11966e-09
-2.53777e-09
3.23037e-10
-6.60296e-10
-2.46527e-09
3.50542e-10
-2.23002e-10
-2.12763e-09
4.36513e-10
7.36291e-12
-1.48179e-09
5.11989e-10
-1.82217e-11
-6.78369e-10
5.20788e-10
-2.74365e-10
3.9415e-10
3.34154e-10
1.58252e-09
-1.32892e-10
1.08845e-10
-6.78493e-09
1.08845e-10
-1.61762e-09
2.64422e-09
-4.63313e-10
-2.70509e-09
1.62669e-09
-5.71749e-10
-3.39053e-09
1.48139e-09
-7.00219e-10
-3.65838e-09
1.19115e-09
-6.64235e-10
-3.44317e-09
4.33739e-10
-5.15725e-10
-2.78776e-09
-6.87692e-10
-2.9669e-10
-1.9433e-09
-1.83687e-09
-3.9161e-11
-1.06922e-09
-2.53049e-09
1.73185e-10
-4.00269e-10
-2.43003e-09
3.01961e-10
7.31281e-11
-1.52028e-09
3.25235e-10
4.69409e-10
1.91371e-12
2.43629e-10
9.03588e-10
1.76138e-09
1.05384e-10
1.41269e-09
3.27266e-09
3.5267e-11
1.91299e-09
4.18632e-09
4.95924e-11
2.26659e-09
4.32034e-09
1.64347e-10
2.34619e-09
3.67884e-09
3.70782e-10
1.99954e-09
2.52654e-09
5.8139e-10
1.2853e-09
1.19246e-09
6.83994e-10
3.36778e-10
-2.68941e-11
6.75808e-10
-6.03924e-10
-1.00928e-09
5.65659e-10
-1.28266e-09
-1.77085e-09
4.03802e-10
-1.60099e-09
-2.3472e-09
2.86937e-10
-1.5916e-09
-2.7448e-09
2.57016e-10
-1.45797e-09
-2.85247e-09
2.79613e-10
-1.38827e-09
-2.47087e-09
2.81895e-10
-1.44253e-09
-1.57686e-09
1.77968e-10
-1.58193e-09
-3.96662e-10
-6.72735e-11
-1.48506e-09
8.37084e-10
-4.59081e-10
6.71954e-10
-5.78098e-10
-8.03836e-10
-5.21307e-09
-8.03836e-10
-1.50681e-09
4.38893e-09
-1.13036e-09
-1.71323e-09
2.77876e-09
-1.01229e-09
-1.59042e-09
2.25162e-09
-9.48522e-10
-1.11648e-09
1.35711e-09
-6.9191e-10
-4.24634e-10
4.04102e-11
-3.57189e-10
2.22372e-10
-1.42762e-09
1.97324e-11
6.05846e-10
-2.61573e-09
3.06763e-10
6.77186e-10
-3.18008e-09
4.82002e-10
4.90014e-10
-2.83287e-09
4.99573e-10
2.66121e-10
-1.74325e-09
3.74616e-10
2.41949e-10
-1.83415e-10
1.59459e-10
5.50511e-10
1.38709e-09
3.03627e-11
1.15193e-09
2.66436e-09
-2.93111e-11
1.82743e-09
3.40373e-09
5.63024e-11
2.3178e-09
3.52221e-09
2.40192e-10
2.43531e-09
3.09119e-09
3.98076e-10
2.04274e-09
2.31901e-09
5.42474e-10
1.23617e-09
1.36767e-09
5.99891e-10
2.32937e-10
4.21132e-10
5.44678e-10
-7.06029e-10
-5.11237e-10
4.32118e-10
-1.42017e-09
-1.45033e-09
3.66505e-10
-1.85181e-09
-2.33457e-09
3.64976e-10
-2.12392e-09
-2.95544e-09
4.07807e-10
-2.42004e-09
-3.03093e-09
3.96829e-10
-2.74698e-09
-2.47487e-09
2.76084e-10
-2.93204e-09
-1.44945e-09
4.01108e-11
-2.79907e-09
-3.0151e-10
-2.40966e-10
-1.90675e-09
1.86114e-10
-3.1204e-10
-1.35148e-09
1.24673e-11
-1.18575e-09
-2.89985e-09
-1.18575e-09
-6.13076e-10
4.70298e-09
-9.9114e-10
3.22424e-11
2.87961e-09
-8.34494e-10
8.6328e-10
1.99118e-09
-6.6058e-10
1.79039e-09
6.93659e-10
-3.65896e-10
2.58868e-09
-8.28995e-10
-5.24958e-11
2.97589e-09
-2.21155e-09
2.47828e-10
2.81576e-09
-3.0524e-09
4.2678e-10
2.16845e-09
-3.16769e-09
4.54912e-10
1.32193e-09
-2.53049e-09
3.67852e-10
6.29966e-10
-1.41909e-09
2.05263e-10
3.43307e-10
-1.0527e-10
6.15132e-11
5.22564e-10
1.04432e-09
2.63755e-11
1.01593e-09
1.89448e-09
1.42179e-10
1.55638e-09
2.40752e-09
3.2366e-10
1.89872e-09
2.56632e-09
4.92836e-10
1.8683e-09
2.39562e-09
6.30082e-10
1.42019e-09
1.97917e-09
7.23221e-10
6.42841e-10
1.38977e-09
7.12831e-10
-2.28989e-10
5.69869e-10
6.82577e-10
-1.04788e-09
-4.13055e-10
6.6373e-10
-1.70411e-09
-1.55857e-09
6.86782e-10
-2.28743e-09
-2.57074e-09
7.30569e-10
-2.8944e-09
-3.14234e-09
7.07333e-10
-3.50152e-09
-3.06166e-09
5.64387e-10
-3.86865e-09
-2.49304e-09
3.27914e-10
-3.7296e-09
-1.77821e-09
1.29696e-10
-2.90232e-09
-1.40886e-09
1.82055e-10
-1.38417e-09
-1.92662e-09
4.81036e-10
-3.51105e-09
7.58998e-10
-8.5267e-10
-1.25641e-09
-8.5267e-10
5.93845e-10
3.60162e-09
-4.55912e-10
1.82975e-09
1.89886e-09
-3.63919e-10
3.03015e-09
8.49345e-10
-1.8281e-10
4.0993e-09
-5.6179e-10
3.98748e-11
4.7736e-09
-1.95194e-09
2.77798e-10
4.84435e-09
-2.9121e-09
4.38905e-10
4.31602e-09
-3.22442e-09
5.00484e-10
3.33166e-09
-2.87271e-09
4.95548e-10
2.24621e-09
-2.08354e-09
4.64299e-10
1.38879e-09
-1.15298e-09
4.44046e-10
9.46099e-10
-2.92696e-10
5.09019e-10
8.46519e-10
4.1263e-10
6.30867e-10
9.5461e-10
9.32052e-10
7.70818e-10
1.07271e-09
1.29651e-09
9.28593e-10
1.03216e-09
1.51933e-09
1.04895e-09
7.7402e-10
1.56305e-09
1.08058e-09
2.93273e-10
1.42068e-09
1.04948e-09
-3.6065e-10
1.03097e-09
1.02621e-09
-1.0867e-09
3.0653e-10
9.91119e-10
-1.78605e-09
-7.04302e-10
9.77663e-10
-2.49746e-09
-1.81472e-09
9.47202e-10
-3.27445e-09
-2.67817e-09
8.61189e-10
-4.03948e-09
-3.05647e-09
6.47579e-10
-4.49725e-09
-3.02562e-09
3.72805e-10
-4.40819e-09
-2.91697e-09
2.62535e-10
-3.60299e-09
-3.0544e-09
3.71943e-10
-2.19247e-09
-3.51677e-09
6.00186e-10
-8.5416e-10
-4.13041e-09
8.56184e-10
-5.01513e-09
7.23175e-10
-1.48222e-10
-1.02489e-09
-1.48222e-10
1.73647e-09
1.42193e-09
1.82136e-10
3.18817e-09
7.8276e-11
2.50788e-10
4.55227e-09
-1.03606e-09
3.88221e-10
5.6403e-09
-2.34876e-09
5.52205e-10
6.2155e-09
-3.38882e-09
7.07993e-10
6.16297e-09
-3.83692e-09
8.28838e-10
5.52447e-09
-3.62056e-09
9.06471e-10
4.53928e-09
-2.94806e-09
9.66638e-10
3.49357e-09
-2.13102e-09
1.04086e-09
2.58977e-09
-1.41109e-09
1.14861e-09
1.8427e-09
-8.59848e-10
1.329e-09
1.2332e-09
-4.43331e-10
1.49497e-09
7.14583e-10
-7.3185e-11
1.55898e-09
2.29933e-10
2.8921e-10
1.53023e-09
-2.34754e-10
5.96893e-10
1.42872e-09
-7.02413e-10
7.84824e-10
1.28728e-09
-1.21281e-09
8.04182e-10
1.15936e-09
-1.77686e-09
5.58501e-10
1.05206e-09
-2.41657e-09
-2.63397e-11
9.70811e-10
-3.14162e-09
-8.79062e-10
8.85602e-10
-3.95853e-09
-1.75589e-09
7.29716e-10
-4.72217e-09
-2.44446e-09
4.72375e-10
-5.18625e-09
-2.95811e-09
2.63001e-10
-5.04525e-09
-3.5081e-09
1.95797e-10
-4.24749e-09
-4.20807e-09
3.27498e-10
-2.94238e-09
-5.03215e-09
5.24329e-10
-1.62676e-09
-5.64164e-09
7.34376e-10
-7.75549e-10
-5.62235e-09
6.43777e-10
-6.30331e-09
4.48212e-10
5.1017e-10
-2.11086e-09
5.1017e-10
2.58947e-09
-1.45765e-09
7.14392e-10
4.22741e-09
-2.45668e-09
8.09577e-10
5.69346e-09
-3.57586e-09
9.83578e-10
6.76026e-09
-4.65956e-09
1.15782e-09
7.25705e-09
-5.28744e-09
1.33099e-09
7.1579e-09
-5.23892e-09
1.45997e-09
6.55605e-09
-4.5942e-09
1.57705e-09
5.66891e-09
-3.68445e-09
1.67377e-09
4.66187e-09
-2.81457e-09
1.78349e-09
3.57781e-09
-2.13949e-09
1.92986e-09
2.42481e-09
-1.62296e-09
2.03356e-09
1.24539e-09
-1.17844e-09
2.01065e-09
1.31004e-10
-7.53044e-10
1.85789e-09
-8.20523e-10
-3.46803e-10
1.61819e-09
-1.55479e-09
-5.41383e-11
1.38745e-09
-2.13598e-09
1.18494e-10
1.22482e-09
-2.69734e-09
2.43333e-10
1.07676e-09
-3.32637e-09
1.45391e-10
9.77469e-10
-4.05119e-09
-2.27035e-10
8.45679e-10
-4.84259e-09
-8.34512e-10
6.48574e-10
-5.58141e-09
-1.63636e-09
4.87558e-10
-6.0019e-09
-2.51697e-09
3.13911e-10
-5.84067e-09
-3.64316e-09
3.08045e-10
-5.06384e-09
-4.98678e-09
4.87066e-10
-3.85078e-09
-6.29117e-09
6.94471e-10
-2.64924e-09
-7.22007e-09
8.73127e-10
-1.68464e-09
-7.49975e-09
8.32832e-10
-9.03286e-10
-7.09859e-09
5.80535e-10
-7.923e-09
5.32707e-10
1.04285e-09
-4.2422e-09
1.04285e-09
3.35912e-09
-5.10083e-09
1.30967e-09
5.24403e-09
-5.82479e-09
1.46562e-09
6.75495e-09
-6.80328e-09
1.70278e-09
7.70022e-09
-7.54785e-09
1.93983e-09
8.0024e-09
-7.64693e-09
2.07602e-09
7.7612e-09
-7.0776e-09
2.13316e-09
7.17177e-09
-6.08612e-09
2.17691e-09
6.356e-09
-4.94537e-09
2.21041e-09
5.33534e-09
-3.90623e-09
2.26544e-09
4.05829e-09
-3.01007e-09
2.29128e-09
2.55315e-09
-2.23354e-09
2.22168e-09
9.73972e-10
-1.57966e-09
2.03272e-09
-4.66613e-10
-1.13697e-09
1.82439e-09
-1.58722e-09
-8.96355e-10
1.6315e-09
-2.43641e-09
-7.78993e-10
1.51349e-09
-3.1792e-09
-6.33981e-10
1.42433e-09
-3.94043e-09
-4.21784e-10
1.34998e-09
-4.79416e-09
-3.31552e-10
1.24905e-09
-5.67678e-09
-5.02657e-10
1.06645e-09
-6.44263e-09
-1.02375e-09
8.43196e-10
-6.87311e-09
-2.08559e-09
7.42611e-10
-6.79382e-09
-3.50002e-09
7.60144e-10
-6.07999e-09
-5.37423e-09
9.11794e-10
-5.03002e-09
-7.25265e-09
1.18289e-09
-4.01663e-09
-8.5929e-09
1.31405e-09
-3.12305e-09
-9.27839e-09
1.20362e-09
-2.24025e-09
-9.29546e-09
9.03759e-10
-1.11339e-09
-9.11285e-09
7.87933e-10
-9.88674e-09
8.50204e-10
1.64029e-09
-7.52479e-09
1.64029e-09
4.24211e-09
-9.59494e-09
1.96251e-09
6.27025e-09
-1.00373e-08
2.24548e-09
7.66713e-09
-1.06644e-08
2.52319e-09
8.32954e-09
-1.0805e-08
2.65567e-09
8.32925e-09
-1.02774e-08
2.7033e-09
7.94497e-09
-9.1869e-09
2.5881e-09
7.39051e-09
-7.89197e-09
2.47985e-09
6.63788e-09
-6.50432e-09
2.44552e-09
5.57705e-09
-5.15905e-09
2.43876e-09
4.15781e-09
-3.9037e-09
2.4028e-09
2.48553e-09
-2.84415e-09
2.32191e-09
8.36999e-10
-2.13054e-09
2.19138e-09
-5.83839e-10
-1.84966e-09
2.09942e-09
-1.7299e-09
-1.86163e-09
2.0767e-09
-2.75115e-09
-1.8676e-09
2.09075e-09
-3.83323e-09
-1.65706e-09
2.10215e-09
-4.96392e-09
-1.31169e-09
2.02291e-09
-6.09318e-09
-1.00989e-09
1.80224e-09
-7.02923e-09
-1.1655e-09
1.5784e-09
-7.59179e-09
-1.96426e-09
1.47321e-09
-7.68317e-09
-3.48982e-09
1.48363e-09
-7.18807e-09
-5.57538e-09
1.62972e-09
-6.43522e-09
-7.82638e-09
1.83725e-09
-5.7254e-09
-9.70137e-09
1.9358e-09
-5.02788e-09
-1.09066e-08
1.79521e-09
-4.26918e-09
-1.14324e-08
1.49869e-09
-3.08903e-09
-1.16613e-08
1.2156e-09
-1.39368e-09
-1.19433e-08
1.2009e-09
-1.26073e-08
1.47191e-09
2.31933e-09
-1.21145e-08
2.31933e-09
5.08719e-09
-1.4946e-08
2.73402e-09
7.07629e-09
-1.49368e-08
3.04142e-09
8.22944e-09
-1.48746e-08
3.17432e-09
8.59731e-09
-1.4196e-08
3.12622e-09
8.45596e-09
-1.29663e-08
2.92584e-09
8.11826e-09
-1.15386e-08
2.7848e-09
7.5915e-09
-9.98776e-09
2.71803e-09
6.84244e-09
-8.38775e-09
2.71684e-09
5.73671e-09
-6.726e-09
2.72864e-09
4.2935e-09
-5.14026e-09
2.69631e-09
2.7085e-09
-3.91019e-09
2.63468e-09
1.20279e-09
-3.26841e-09
2.61838e-09
-1.2176e-10
-3.20806e-09
2.67781e-09
-1.37044e-09
-3.39809e-09
2.81584e-09
-2.77085e-09
-3.31817e-09
2.90991e-09
-4.2966e-09
-2.91776e-09
2.8485e-09
-5.82424e-09
-2.37257e-09
2.62811e-09
-7.04377e-09
-2.19061e-09
2.40805e-09
-7.85685e-09
-2.65647e-09
2.29352e-09
-8.14691e-09
-3.9899e-09
2.32161e-09
-7.99414e-09
-6.07797e-09
2.50132e-09
-7.64624e-09
-8.47158e-09
2.69223e-09
-7.38224e-09
-1.06159e-08
2.70651e-09
-7.10871e-09
-1.23589e-08
2.52454e-09
-6.54858e-09
-1.36206e-08
2.21266e-09
-5.55139e-09
-1.43535e-08
1.927e-09
-3.85976e-09
-1.51126e-08
1.77209e-09
-1.4784e-09
-1.61222e-08
1.88488e-09
-1.65959e-08
2.44345e-09
3.0436e-09
-1.81043e-08
3.0436e-09
5.61131e-09
-2.06954e-08
3.39335e-09
7.44829e-09
-2.00715e-08
3.47927e-09
8.42916e-09
-1.9073e-08
3.36875e-09
8.73001e-09
-1.76007e-08
3.21954e-09
8.69569e-09
-1.59117e-08
3.06413e-09
8.4727e-09
-1.42316e-08
2.97599e-09
8.04917e-09
-1.25198e-08
2.99239e-09
7.28103e-09
-1.06616e-08
3.05062e-09
6.13328e-09
-8.67196e-09
3.07102e-09
4.75587e-09
-6.85123e-09
3.04377e-09
3.34595e-09
-5.61283e-09
3.07055e-09
2.03371e-09
-5.16581e-09
3.19914e-09
7.02752e-10
-5.22619e-09
3.38424e-09
-8.99998e-10
-5.28638e-09
3.55842e-09
-2.76458e-09
-4.97911e-09
3.58944e-09
-4.68174e-09
-4.4191e-09
3.44392e-09
-6.29941e-09
-4.03443e-09
3.2564e-09
-7.44645e-09
-4.27591e-09
3.18269e-09
-8.03034e-09
-5.376e-09
3.26853e-09
-8.24337e-09
-7.21766e-09
3.458e-09
-8.32839e-09
-9.54792e-09
3.63508e-09
-8.5149e-09
-1.19021e-08
3.72292e-09
-8.77292e-09
-1.38198e-08
3.51641e-09
-8.70104e-09
-1.55585e-08
3.09717e-09
-7.974e-09
-1.71403e-08
2.7475e-09
-6.50619e-09
-1.83289e-08
2.51688e-09
-4.2526e-09
-1.98086e-08
2.47459e-09
-1.48019e-09
-2.1673e-08
2.72325e-09
-2.14938e-08
3.24056e-09
3.58794e-09
-2.51435e-08
3.58794e-09
5.72914e-09
-2.6233e-08
3.61462e-09
7.39923e-09
-2.50327e-08
3.4626e-09
8.47444e-09
-2.33291e-08
3.30263e-09
9.08849e-09
-2.13064e-08
3.16302e-09
9.40507e-09
-1.93104e-08
3.11287e-09
9.42365e-09
-1.74444e-08
3.19514e-09
9.0258e-09
-1.54819e-08
3.33634e-09
8.16053e-09
-1.32862e-08
3.44468e-09
6.97881e-09
-1.1029e-08
3.48153e-09
5.69598e-09
-9.19377e-09
3.57742e-09
4.47356e-09
-8.17699e-09
3.77391e-09
3.19385e-09
-7.8866e-09
4.0357e-09
1.58183e-09
-7.86446e-09
4.31874e-09
-4.81734e-10
-7.6344e-09
4.47443e-09
-2.76613e-09
-7.11014e-09
4.43445e-09
-4.86275e-09
-6.65732e-09
4.30168e-09
-6.42785e-09
-6.76132e-09
4.23799e-09
-7.4307e-09
-7.60296e-09
4.30655e-09
-8.0099e-09
-9.26313e-09
4.50947e-09
-8.53307e-09
-1.12294e-08
4.63646e-09
-9.21067e-09
-1.3307e-08
4.55047e-09
-9.90267e-09
-1.54653e-08
4.33141e-09
-1.03338e-08
-1.73429e-08
3.97303e-09
-1.01914e-08
-1.92032e-08
3.51415e-09
-9.09019e-09
-2.13318e-08
3.18526e-09
-7.02294e-09
-2.33998e-08
3.15305e-09
-4.475e-09
-2.55959e-08
3.29574e-09
-1.88485e-09
-2.76829e-08
3.3353e-09
-2.61656e-08
2.88421e-09
3.53978e-09
-3.20872e-08
3.53978e-09
5.65157e-09
-3.15876e-08
3.36962e-09
7.47413e-09
-2.99762e-08
3.19398e-09
8.93613e-09
-2.78385e-08
3.07508e-09
1.00864e-08
-2.55588e-08
3.10043e-09
1.08582e-08
-2.33979e-08
3.30184e-09
1.10495e-08
-2.12558e-08
3.60288e-09
1.05855e-08
-1.88931e-08
3.85515e-09
9.61596e-09
-1.63638e-08
4.02501e-09
8.43234e-09
-1.40583e-08
4.19914e-09
7.27116e-09
-1.24718e-08
4.45181e-09
6.09161e-09
-1.17506e-08
4.8029e-09
4.5345e-09
-1.14417e-08
5.18768e-09