/*--------------------------------*- C++ -*----------------------------------*\
| =========                 |                                                 |
| \\      /  F ield         | OpenFOAM: The Open Source CFD Toolbox           |
|  \\    /   O peration     | Version:  2312                                  |
|   \\  /    A nd           | Website:  www.openfoam.com                      |
|    \\/     M anipulation  |                                                 |
\*---------------------------------------------------------------------------*/
FoamFile
{
    version     2.0;
    format      ascii;
    arch        "LSB;label=32;scalar=64";
    class       volScalarField;
    location    "0.692487";
    object      epsilon;
}
// * * * * * * * * * * * * * * * * * * * * * * * * * * * * * * * * * * * * * //

dimensions      [0 2 -3 0 0 0 0];

internalField   nonuniform List<scalar> 
90000
(
1.16707e-05
1.16713e-05
1.16717e-05
1.16718e-05
1.16719e-05
1.1672e-05
1.16719e-05
1.16719e-05
1.16718e-05
1.16717e-05
1.16717e-05
1.16718e-05
1.16718e-05
1.16718e-05
1.16718e-05
1.16719e-05
1.16721e-05
1.16723e-05
1.16724e-05
1.16723e-05
1.16721e-05
1.16718e-05
1.16717e-05
1.16721e-05
1.16725e-05
1.16728e-05
1.16728e-05
1.16726e-05
1.16726e-05
1.16729e-05
1.16712e-05
1.16977e-05
1.16989e-05
1.1699e-05
1.1699e-05
1.1699e-05
1.1699e-05
1.16991e-05
1.16992e-05
1.16993e-05
1.16993e-05
1.16994e-05
1.16994e-05
1.16994e-05
1.16995e-05
1.16995e-05
1.16995e-05
1.16994e-05
1.16993e-05
1.16993e-05
1.16993e-05
1.16993e-05
1.16993e-05
1.16993e-05
1.16991e-05
1.16989e-05
1.1699e-05
1.16995e-05
1.16981e-05
1.1676e-05
1.16717e-05
1.16995e-05
1.17008e-05
1.17008e-05
1.17007e-05
1.17007e-05
1.17007e-05
1.17007e-05
1.17008e-05
1.17009e-05
1.17009e-05
1.17008e-05
1.17008e-05
1.17008e-05
1.17008e-05
1.17008e-05
1.17007e-05
1.17006e-05
1.17008e-05
1.17009e-05
1.17011e-05
1.17012e-05
1.17012e-05
1.17012e-05
1.17014e-05
1.17015e-05
1.17017e-05
1.17019e-05
1.17006e-05
1.16747e-05
1.16721e-05
1.16999e-05
1.17013e-05
1.17014e-05
1.17013e-05
1.17013e-05
1.17012e-05
1.17011e-05
1.17011e-05
1.17011e-05
1.1701e-05
1.17009e-05
1.17008e-05
1.17007e-05
1.17006e-05
1.17006e-05
1.17006e-05
1.17008e-05
1.1701e-05
1.17012e-05
1.17013e-05
1.17013e-05
1.17015e-05
1.17018e-05
1.17021e-05
1.17022e-05
1.1702e-05
1.17018e-05
1.17007e-05
1.16726e-05
1.16725e-05
1.17002e-05
1.17017e-05
1.17018e-05
1.17018e-05
1.17017e-05
1.17016e-05
1.17015e-05
1.17013e-05
1.17012e-05
1.1701e-05
1.17008e-05
1.17006e-05
1.17005e-05
1.17004e-05
1.17004e-05
1.17007e-05
1.17009e-05
1.17011e-05
1.17011e-05
1.17012e-05
1.17013e-05
1.17016e-05
1.1702e-05
1.17022e-05
1.17022e-05
1.17019e-05
1.17011e-05
1.17006e-05
1.16724e-05
1.16728e-05
1.17005e-05
1.1702e-05
1.1702e-05
1.1702e-05
1.1702e-05
1.17019e-05
1.17017e-05
1.17015e-05
1.17012e-05
1.17009e-05
1.17007e-05
1.17006e-05
1.17005e-05
1.17005e-05
1.17005e-05
1.17007e-05
1.17008e-05
1.17009e-05
1.17011e-05
1.17012e-05
1.17015e-05
1.17017e-05
1.17017e-05
1.17017e-05
1.17017e-05
1.17019e-05
1.17019e-05
1.17013e-05
1.1673e-05
1.1673e-05
1.17008e-05
1.17021e-05
1.17021e-05
1.17021e-05
1.17021e-05
1.1702e-05
1.17019e-05
1.17016e-05
1.17013e-05
1.17009e-05
1.17007e-05
1.17006e-05
1.17006e-05
1.17006e-05
1.17006e-05
1.17006e-05
1.17007e-05
1.17009e-05
1.17011e-05
1.17014e-05
1.17016e-05
1.17016e-05
1.17015e-05
1.17016e-05
1.1702e-05
1.17026e-05
1.17029e-05
1.17018e-05
1.16735e-05
1.16731e-05
1.17009e-05
1.17021e-05
1.17021e-05
1.1702e-05
1.17021e-05
1.17021e-05
1.1702e-05
1.17018e-05
1.17015e-05
1.17011e-05
1.17008e-05
1.17007e-05
1.17007e-05
1.17008e-05
1.17008e-05
1.17007e-05
1.17007e-05
1.1701e-05
1.17013e-05
1.17015e-05
1.17016e-05
1.17016e-05
1.17017e-05
1.17021e-05
1.17027e-05
1.17032e-05
1.17035e-05
1.17021e-05
1.1674e-05
1.16733e-05
1.1701e-05
1.17022e-05
1.17021e-05
1.17021e-05
1.17021e-05
1.17021e-05
1.17021e-05
1.1702e-05
1.17018e-05
1.17015e-05
1.17012e-05
1.1701e-05
1.17009e-05
1.17009e-05
1.1701e-05
1.17011e-05
1.17013e-05
1.17014e-05
1.17016e-05
1.17016e-05
1.17016e-05
1.17017e-05
1.17021e-05
1.17026e-05
1.17031e-05
1.17035e-05
1.17037e-05
1.17023e-05
1.16744e-05
1.16737e-05
1.17011e-05
1.17023e-05
1.17022e-05
1.17022e-05
1.17021e-05
1.17022e-05
1.17022e-05
1.17022e-05
1.17021e-05
1.1702e-05
1.17017e-05
1.17014e-05
1.17011e-05
1.17011e-05
1.17013e-05
1.17017e-05
1.17019e-05
1.17021e-05
1.17021e-05
1.1702e-05
1.17019e-05
1.1702e-05
1.17023e-05
1.17028e-05
1.17033e-05
1.17037e-05
1.17038e-05
1.17024e-05
1.16746e-05
1.16742e-05
1.17013e-05
1.17026e-05
1.17025e-05
1.17024e-05
1.17023e-05
1.17022e-05
1.17022e-05
1.17023e-05
1.17023e-05
1.17023e-05
1.17021e-05
1.17018e-05
1.17014e-05
1.17011e-05
1.17014e-05
1.17018e-05
1.17022e-05
1.17024e-05
1.17025e-05
1.17023e-05
1.17022e-05
1.17022e-05
1.17025e-05
1.17029e-05
1.17033e-05
1.17037e-05
1.17038e-05
1.17024e-05
1.16747e-05
1.16747e-05
1.17017e-05
1.1703e-05
1.1703e-05
1.1703e-05
1.17029e-05
1.17027e-05
1.17026e-05
1.17025e-05
1.17025e-05
1.17024e-05
1.17023e-05
1.1702e-05
1.17017e-05
1.17012e-05
1.17012e-05
1.17017e-05
1.17021e-05
1.17023e-05
1.17024e-05
1.17023e-05
1.17022e-05
1.17023e-05
1.17026e-05
1.1703e-05
1.17034e-05
1.17037e-05
1.17038e-05
1.17024e-05
1.16748e-05
1.16752e-05
1.17024e-05
1.17038e-05
1.17039e-05
1.17039e-05
1.17039e-05
1.17038e-05
1.17036e-05
1.17032e-05
1.17028e-05
1.17025e-05
1.17024e-05
1.17022e-05
1.1702e-05
1.17016e-05
1.17014e-05
1.17016e-05
1.17017e-05
1.17019e-05
1.1702e-05
1.17021e-05
1.17023e-05
1.17025e-05
1.17029e-05
1.17032e-05
1.17036e-05
1.17038e-05
1.17039e-05
1.17025e-05
1.16752e-05
1.16758e-05
1.17033e-05
1.17047e-05
1.17048e-05
1.17049e-05
1.17049e-05
1.17048e-05
1.17045e-05
1.17039e-05
1.17033e-05
1.17027e-05
1.17024e-05
1.17023e-05
1.17022e-05
1.1702e-05
1.17019e-05
1.17019e-05
1.17018e-05
1.17017e-05
1.17019e-05
1.17023e-05
1.17027e-05
1.1703e-05
1.17034e-05
1.17037e-05
1.17039e-05
1.17042e-05
1.17043e-05
1.17031e-05
1.1676e-05
1.16767e-05
1.17042e-05
1.17057e-05
1.17058e-05
1.17059e-05
1.17058e-05
1.17055e-05
1.1705e-05
1.17044e-05
1.17037e-05
1.1703e-05
1.17025e-05
1.17023e-05
1.17023e-05
1.17023e-05
1.17023e-05
1.17023e-05
1.17023e-05
1.17024e-05
1.17027e-05
1.17031e-05
1.17035e-05
1.17039e-05
1.17042e-05
1.17044e-05
1.17046e-05
1.17049e-05
1.17052e-05
1.17041e-05
1.16772e-05
1.16777e-05
1.17056e-05
1.1707e-05
1.1707e-05
1.17068e-05
1.17064e-05
1.17059e-05
1.17053e-05
1.17046e-05
1.1704e-05
1.17033e-05
1.17027e-05
1.17025e-05
1.17024e-05
1.17025e-05
1.17026e-05
1.17027e-05
1.17029e-05
1.17032e-05
1.17036e-05
1.1704e-05
1.17044e-05
1.17048e-05
1.17051e-05
1.17054e-05
1.17057e-05
1.1706e-05
1.17065e-05
1.17057e-05
1.16785e-05
1.1679e-05
1.17074e-05
1.17085e-05
1.17082e-05
1.17077e-05
1.17071e-05
1.17063e-05
1.17056e-05
1.17051e-05
1.17046e-05
1.17039e-05
1.17032e-05
1.17027e-05
1.17025e-05
1.17024e-05
1.17025e-05
1.17029e-05
1.17034e-05
1.17039e-05
1.17043e-05
1.17048e-05
1.17052e-05
1.17057e-05
1.17061e-05
1.17065e-05
1.1707e-05
1.17076e-05
1.17082e-05
1.17072e-05
1.16796e-05
1.16806e-05
1.17093e-05
1.17101e-05
1.17097e-05
1.1709e-05
1.17082e-05
1.17074e-05
1.17066e-05
1.1706e-05
1.17053e-05
1.17045e-05
1.17038e-05
1.17031e-05
1.17026e-05
1.17022e-05
1.17023e-05
1.17029e-05
1.17036e-05
1.17043e-05
1.1705e-05
1.17056e-05
1.17061e-05
1.17067e-05
1.17072e-05
1.17078e-05
1.17085e-05
1.17093e-05
1.17097e-05
1.17084e-05
1.16807e-05
1.16827e-05
1.17111e-05
1.17119e-05
1.17114e-05
1.17107e-05
1.17099e-05
1.1709e-05
1.17081e-05
1.17072e-05
1.17063e-05
1.17053e-05
1.17044e-05
1.17034e-05
1.17026e-05
1.1702e-05
1.17021e-05
1.17029e-05
1.17038e-05
1.17048e-05
1.17057e-05
1.17065e-05
1.17072e-05
1.17079e-05
1.17087e-05
1.17095e-05
1.17103e-05
1.17109e-05
1.17111e-05
1.17096e-05
1.16822e-05
1.16853e-05
1.17131e-05
1.1714e-05
1.17134e-05
1.17126e-05
1.17118e-05
1.17109e-05
1.17099e-05
1.17088e-05
1.17076e-05
1.17064e-05
1.17052e-05
1.17039e-05
1.17027e-05
1.17019e-05
1.1702e-05
1.1703e-05
1.17043e-05
1.17055e-05
1.17067e-05
1.17078e-05
1.17087e-05
1.17097e-05
1.17107e-05
1.17117e-05
1.17124e-05
1.17127e-05
1.17128e-05
1.17115e-05
1.16843e-05
1.16883e-05
1.17154e-05
1.17164e-05
1.17158e-05
1.1715e-05
1.17141e-05
1.17131e-05
1.1712e-05
1.17108e-05
1.17094e-05
1.17079e-05
1.17063e-05
1.17048e-05
1.17033e-05
1.17022e-05
1.17023e-05
1.17035e-05
1.17051e-05
1.17067e-05
1.17081e-05
1.17095e-05
1.17108e-05
1.17121e-05
1.17132e-05
1.17141e-05
1.17147e-05
1.17151e-05
1.17153e-05
1.17141e-05
1.1687e-05
1.16917e-05
1.17183e-05
1.17193e-05
1.17187e-05
1.17179e-05
1.1717e-05
1.17159e-05
1.17146e-05
1.17131e-05
1.17115e-05
1.17097e-05
1.17079e-05
1.1706e-05
1.17043e-05
1.17031e-05
1.17031e-05
1.17045e-05
1.17063e-05
1.17082e-05
1.171e-05
1.17117e-05
1.17133e-05
1.17148e-05
1.1716e-05
1.1717e-05
1.17177e-05
1.17183e-05
1.17187e-05
1.17176e-05
1.16907e-05
1.16957e-05
1.17221e-05
1.17232e-05
1.17225e-05
1.17217e-05
1.17206e-05
1.17192e-05
1.17177e-05
1.1716e-05
1.17141e-05
1.1712e-05
1.17098e-05
1.17076e-05
1.17056e-05
1.17041e-05
1.17041e-05
1.17057e-05
1.17078e-05
1.17101e-05
1.17123e-05
1.17144e-05
1.17163e-05
1.1718e-05
1.17195e-05
1.17206e-05
1.17216e-05
1.17224e-05
1.1723e-05
1.1722e-05
1.16953e-05
1.17007e-05
1.1727e-05
1.17281e-05
1.17273e-05
1.17263e-05
1.1725e-05
1.17234e-05
1.17216e-05
1.17195e-05
1.17173e-05
1.17148e-05
1.17122e-05
1.17096e-05
1.17071e-05
1.17053e-05
1.17053e-05
1.17072e-05
1.17097e-05
1.17124e-05
1.17151e-05
1.17176e-05
1.17199e-05
1.1722e-05
1.17237e-05
1.17252e-05
1.17264e-05
1.17275e-05
1.17283e-05
1.17275e-05
1.17009e-05
1.1707e-05
1.17332e-05
1.17342e-05
1.17333e-05
1.17321e-05
1.17305e-05
1.17286e-05
1.17264e-05
1.17239e-05
1.17212e-05
1.17182e-05
1.17152e-05
1.17121e-05
1.17091e-05
1.1707e-05
1.17069e-05
1.17091e-05
1.17121e-05
1.17152e-05
1.17184e-05
1.17215e-05
1.17243e-05
1.17267e-05
1.17288e-05
1.17306e-05
1.17322e-05
1.17336e-05
1.17346e-05
1.17339e-05
1.17073e-05
1.17147e-05
1.17409e-05
1.17417e-05
1.17406e-05
1.17392e-05
1.17373e-05
1.1735e-05
1.17324e-05
1.17294e-05
1.17261e-05
1.17225e-05
1.17188e-05
1.17151e-05
1.17116e-05
1.17091e-05
1.1709e-05
1.17115e-05
1.1715e-05
1.17188e-05
1.17226e-05
1.17262e-05
1.17295e-05
1.17324e-05
1.17349e-05
1.17371e-05
1.17391e-05
1.17408e-05
1.1742e-05
1.17413e-05
1.17148e-05
1.17241e-05
1.17502e-05
1.17509e-05
1.17497e-05
1.17479e-05
1.17456e-05
1.17429e-05
1.17396e-05
1.1736e-05
1.17321e-05
1.17278e-05
1.17233e-05
1.17189e-05
1.17147e-05
1.17116e-05
1.17115e-05
1.17145e-05
1.17186e-05
1.17232e-05
1.17278e-05
1.17321e-05
1.1736e-05
1.17394e-05
1.17424e-05
1.17452e-05
1.17476e-05
1.17496e-05
1.17509e-05
1.17502e-05
1.17239e-05
1.17355e-05
1.17616e-05
1.17621e-05
1.17606e-05
1.17584e-05
1.17557e-05
1.17524e-05
1.17485e-05
1.17442e-05
1.17394e-05
1.17343e-05
1.1729e-05
1.17236e-05
1.17187e-05
1.17151e-05
1.17149e-05
1.17184e-05
1.17235e-05
1.1729e-05
1.17344e-05
1.17395e-05
1.17441e-05
1.17483e-05
1.17521e-05
1.17555e-05
1.17583e-05
1.17604e-05
1.17617e-05
1.17612e-05
1.17353e-05
1.17494e-05
1.17753e-05
1.17756e-05
1.17737e-05
1.17711e-05
1.17678e-05
1.17639e-05
1.17593e-05
1.17542e-05
1.17485e-05
1.17424e-05
1.17361e-05
1.17298e-05
1.17239e-05
1.17197e-05
1.17197e-05
1.17238e-05
1.17298e-05
1.17364e-05
1.17428e-05
1.17488e-05
1.17544e-05
1.17595e-05
1.17641e-05
1.17681e-05
1.17713e-05
1.17736e-05
1.17752e-05
1.1775e-05
1.17494e-05
1.17661e-05
1.17918e-05
1.17917e-05
1.17895e-05
1.17864e-05
1.17825e-05
1.17779e-05
1.17725e-05
1.17664e-05
1.17597e-05
1.17526e-05
1.17451e-05
1.17376e-05
1.17307e-05
1.17259e-05
1.17259e-05
1.17308e-05
1.17378e-05
1.17454e-05
1.1753e-05
1.17601e-05
1.17668e-05
1.1773e-05
1.17785e-05
1.17832e-05
1.17868e-05
1.17896e-05
1.17917e-05
1.17918e-05
1.17664e-05
1.17863e-05
1.18115e-05
1.18112e-05
1.18086e-05
1.18049e-05
1.18004e-05
1.1795e-05
1.17886e-05
1.17815e-05
1.17736e-05
1.17651e-05
1.17563e-05
1.17474e-05
1.17394e-05
1.17338e-05
1.17338e-05
1.17394e-05
1.17475e-05
1.17563e-05
1.17652e-05
1.17738e-05
1.17818e-05
1.17892e-05
1.17957e-05
1.1801e-05
1.18054e-05
1.18089e-05
1.18116e-05
1.1812e-05
1.17867e-05
1.18105e-05
1.18353e-05
1.18347e-05
1.18316e-05
1.18274e-05
1.18221e-05
1.18157e-05
1.18083e-05
1.17999e-05
1.17906e-05
1.17806e-05
1.17701e-05
1.17596e-05
1.17502e-05
1.17438e-05
1.17438e-05
1.17502e-05
1.17595e-05
1.17698e-05
1.17803e-05
1.17904e-05
1.18e-05
1.18086e-05
1.18161e-05
1.18224e-05
1.18278e-05
1.18322e-05
1.18354e-05
1.1836e-05
1.18111e-05
1.18395e-05
1.18639e-05
1.1863e-05
1.18594e-05
1.18545e-05
1.18483e-05
1.18409e-05
1.18322e-05
1.18223e-05
1.18114e-05
1.17995e-05
1.17871e-05
1.17748e-05
1.1764e-05
1.17567e-05
1.17567e-05
1.17639e-05
1.17746e-05
1.17866e-05
1.17989e-05
1.18108e-05
1.1822e-05
1.1832e-05
1.18407e-05
1.18482e-05
1.18547e-05
1.18598e-05
1.18636e-05
1.18645e-05
1.18401e-05
1.18741e-05
1.18981e-05
1.18968e-05
1.18927e-05
1.1887e-05
1.18799e-05
1.18712e-05
1.1861e-05
1.18495e-05
1.18366e-05
1.18227e-05
1.18083e-05
1.17942e-05
1.17818e-05
1.17736e-05
1.17736e-05
1.17817e-05
1.17939e-05
1.18078e-05
1.18221e-05
1.1836e-05
1.18488e-05
1.18604e-05
1.18706e-05
1.18795e-05
1.1887e-05
1.18928e-05
1.1897e-05
1.18983e-05
1.18743e-05
1.19153e-05
1.19387e-05
1.1937e-05
1.19323e-05
1.19258e-05
1.19176e-05
1.19075e-05
1.18958e-05
1.18825e-05
1.18677e-05
1.18517e-05
1.18351e-05
1.1819e-05
1.1805e-05
1.17957e-05
1.17957e-05
1.1805e-05
1.18189e-05
1.18349e-05
1.18513e-05
1.18673e-05
1.1882e-05
1.18953e-05
1.19071e-05
1.19173e-05
1.19257e-05
1.19321e-05
1.19368e-05
1.19382e-05
1.1915e-05
1.1964e-05
1.19866e-05
1.19847e-05
1.19793e-05
1.1972e-05
1.19627e-05
1.19513e-05
1.1938e-05
1.1923e-05
1.19062e-05
1.1888e-05
1.18692e-05
1.1851e-05
1.18352e-05
1.18248e-05
1.18249e-05
1.18354e-05
1.18512e-05
1.18694e-05
1.18881e-05
1.19062e-05
1.19229e-05
1.1938e-05
1.19514e-05
1.19628e-05
1.19721e-05
1.19791e-05
1.19841e-05
1.19857e-05
1.19633e-05
1.20216e-05
1.20432e-05
1.2041e-05
1.20352e-05
1.20271e-05
1.20168e-05
1.20043e-05
1.19896e-05
1.19727e-05
1.19538e-05
1.19335e-05
1.19124e-05
1.18921e-05
1.18745e-05
1.1863e-05
1.18632e-05
1.18749e-05
1.18926e-05
1.19131e-05
1.19341e-05
1.19544e-05
1.1973e-05
1.199e-05
1.20049e-05
1.20173e-05
1.20275e-05
1.20351e-05
1.20404e-05
1.20422e-05
1.20209e-05
1.20902e-05
1.21102e-05
1.21078e-05
1.21015e-05
1.20928e-05
1.20817e-05
1.20682e-05
1.2052e-05
1.20334e-05
1.20126e-05
1.19902e-05
1.19671e-05
1.19446e-05
1.19252e-05
1.19123e-05
1.19124e-05
1.19253e-05
1.19449e-05
1.19676e-05
1.19909e-05
1.20135e-05
1.20341e-05
1.20528e-05
1.20691e-05
1.20825e-05
1.20934e-05
1.21017e-05
1.21078e-05
1.211e-05
1.20901e-05
1.2171e-05
1.21894e-05
1.21868e-05
1.21802e-05
1.2171e-05
1.21593e-05
1.21448e-05
1.21274e-05
1.21074e-05
1.20851e-05
1.20609e-05
1.20356e-05
1.20109e-05
1.19894e-05
1.1975e-05
1.1975e-05
1.19892e-05
1.20106e-05
1.20355e-05
1.20607e-05
1.20853e-05
1.21077e-05
1.21279e-05
1.21454e-05
1.21597e-05
1.21713e-05
1.21804e-05
1.21871e-05
1.21898e-05
1.21715e-05
1.22654e-05
1.22822e-05
1.22799e-05
1.22732e-05
1.22638e-05
1.22516e-05
1.22366e-05
1.22186e-05
1.21977e-05
1.21741e-05
1.21482e-05
1.21209e-05
1.20941e-05
1.20707e-05
1.20551e-05
1.20549e-05
1.20702e-05
1.20933e-05
1.212e-05
1.2147e-05
1.21733e-05
1.2197e-05
1.22183e-05
1.22364e-05
1.22512e-05
1.22633e-05
1.2273e-05
1.228e-05
1.22827e-05
1.22661e-05
1.23758e-05
1.2391e-05
1.23892e-05
1.23828e-05
1.23736e-05
1.23616e-05
1.23467e-05
1.23286e-05
1.23074e-05
1.22831e-05
1.22561e-05
1.22276e-05
1.21992e-05
1.21743e-05
1.21574e-05
1.21571e-05
1.21737e-05
1.21984e-05
1.22268e-05
1.2255e-05
1.22822e-05
1.23064e-05
1.23279e-05
1.2346e-05
1.23607e-05
1.2373e-05
1.23824e-05
1.23891e-05
1.23917e-05
1.23765e-05
1.25047e-05
1.25187e-05
1.25173e-05
1.25115e-05
1.25032e-05
1.24922e-05
1.24782e-05
1.24609e-05
1.24403e-05
1.24164e-05
1.23896e-05
1.23606e-05
1.23315e-05
1.23056e-05
1.22882e-05
1.22882e-05
1.23058e-05
1.23315e-05
1.23604e-05
1.2389e-05
1.2416e-05
1.24397e-05
1.24603e-05
1.24775e-05
1.24914e-05
1.25027e-05
1.25111e-05
1.25172e-05
1.25193e-05
1.25052e-05
1.26553e-05
1.26674e-05
1.26673e-05
1.2663e-05
1.26561e-05
1.2647e-05
1.26353e-05
1.26202e-05
1.26018e-05
1.25798e-05
1.25544e-05
1.25263e-05
1.24979e-05
1.24722e-05
1.24547e-05
1.24546e-05
1.24723e-05
1.24982e-05
1.25267e-05
1.25547e-05
1.25798e-05
1.26017e-05
1.26199e-05
1.26347e-05
1.26465e-05
1.26557e-05
1.26627e-05
1.26676e-05
1.26681e-05
1.26554e-05
1.28299e-05
1.28401e-05
1.28424e-05
1.28407e-05
1.28371e-05
1.28312e-05
1.28233e-05
1.28125e-05
1.27982e-05
1.27804e-05
1.27591e-05
1.27341e-05
1.27076e-05
1.26828e-05
1.26658e-05
1.2666e-05
1.26831e-05
1.27081e-05
1.27345e-05
1.27598e-05
1.27809e-05
1.27982e-05
1.28123e-05
1.28228e-05
1.2831e-05
1.28368e-05
1.28405e-05
1.28426e-05
1.28405e-05
1.28299e-05
1.30304e-05
1.30396e-05
1.3046e-05
1.30487e-05
1.3051e-05
1.30511e-05
1.30494e-05
1.30456e-05
1.30387e-05
1.30293e-05
1.3016e-05
1.29985e-05
1.2979e-05
1.29605e-05
1.29488e-05
1.2949e-05
1.29608e-05
1.29795e-05
1.29989e-05
1.30164e-05
1.30298e-05
1.3039e-05
1.30457e-05
1.30489e-05
1.30508e-05
1.30507e-05
1.30488e-05
1.30462e-05
1.30395e-05
1.30304e-05
1.32642e-05
1.32759e-05
1.32888e-05
1.32989e-05
1.33109e-05
1.33218e-05
1.33328e-05
1.33424e-05
1.33515e-05
1.33641e-05
1.33797e-05
1.34009e-05
1.34365e-05
1.34831e-05
1.35351e-05
1.35353e-05
1.34833e-05
1.34365e-05
1.34013e-05
1.33802e-05
1.33645e-05
1.33517e-05
1.33424e-05
1.33324e-05
1.33215e-05
1.33107e-05
1.32992e-05
1.3289e-05
1.32759e-05
1.32642e-05
1.35517e-05
1.35728e-05
1.36003e-05
1.36271e-05
1.36585e-05
1.36993e-05
1.37473e-05
1.38115e-05
1.39034e-05
1.40561e-05
1.43241e-05
1.47428e-05
1.53432e-05
1.61182e-05
1.69133e-05
1.69137e-05
1.61188e-05
1.53442e-05
1.4745e-05
1.43265e-05
1.40578e-05
1.39045e-05
1.38118e-05
1.37472e-05
1.36991e-05
1.36582e-05
1.36274e-05
1.36e-05
1.35726e-05
1.35515e-05
1.39385e-05
1.39818e-05
1.4056e-05
1.41483e-05
1.42734e-05
1.44673e-05
1.47573e-05
1.52105e-05
1.60109e-05
1.7419e-05
2.01477e-05
2.46569e-05
3.09595e-05
3.89676e-05
4.72714e-05
4.72742e-05
3.8974e-05
3.09812e-05
2.46887e-05
2.01747e-05
1.7436e-05
1.60214e-05
1.52162e-05
1.47599e-05
1.44678e-05
1.42726e-05
1.41474e-05
1.40547e-05
1.39804e-05
1.39364e-05
1.46159e-05
1.47503e-05
1.50854e-05
1.55673e-05
1.63347e-05
1.76065e-05
1.97936e-05
2.34555e-05
3.02958e-05
4.28461e-05
6.79372e-05
0.000112083
0.000174787
0.000246595
0.000315682
0.00031574
0.000246715
0.000175095
0.00011245
6.8212e-05
4.30085e-05
3.03872e-05
2.35061e-05
1.98198e-05
1.76162e-05
1.63341e-05
1.55627e-05
1.50798e-05
1.47407e-05
1.4603e-05
1.65805e-05
1.78403e-05
2.00343e-05
2.32231e-05
2.8899e-05
3.92919e-05
5.87425e-05
9.43321e-05
0.000166314
0.000294405
0.000527789
0.000893886
0.00135147
0.00181518
0.00218342
0.00218412
0.00181661
0.00135424
0.000897102
0.000530403
0.000296067
0.000167262
9.48484e-05
5.90154e-05
3.94267e-05
2.89454e-05
2.32267e-05
2.00216e-05
1.78013e-05
1.6533e-05
4.21017e-05
7.2764e-05
0.000120808
0.000213745
0.000376683
0.000643522
0.00105809
0.00165824
0.00245409
0.00345215
0.00463398
0.00585636
0.00700338
0.00793862
0.00857718
0.00857992
0.00794451
0.00701397
0.00587034
0.0046489
0.00346553
0.00246483
0.00166609
0.00106332
0.000646768
0.000378567
0.000214742
0.00012124
7.28311e-05
4.20331e-05
6.69374e-05
0.000110687
0.000193265
0.000331561
0.000566289
0.000943021
0.00148803
0.00222928
0.00318571
0.00430083
0.00562002
0.00707026
0.00823979
0.00912298
0.00974588
0.00975189
0.00913268
0.00825521
0.00709176
0.00564514
0.00432324
0.0032035
0.00224237
0.00149641
0.000948564
0.00056961
0.000333378
0.000194022
0.000110826
6.67801e-05
0.000109623
0.000159477
0.000278884
0.000480388
0.000785537
0.00120317
0.00173042
0.00238823
0.00320481
0.00430008
0.00545798
0.00667241
0.00803754
0.00915341
0.00989394
0.00989902
0.0091634
0.00805185
0.00669488
0.00548987
0.00433103
0.00322812
0.00240482
0.0017414
0.00121103
0.000790958
0.000483783
0.000280303
0.000159682
0.00010954
0.000169473
0.000213253
0.000320818
0.000527344
0.00086414
0.00132085
0.00186244
0.00246839
0.003133
0.00391095
0.00491769
0.00608709
0.00718394
0.00801656
0.00865895
0.00866217
0.00802857
0.00720763
0.00611849
0.0049502
0.0039396
0.00315609
0.00248658
0.00187726
0.00133142
0.000871983
0.000532472
0.00032261
0.000213251
0.000169665
0.000202011
0.000237002
0.000298989
0.000422903
0.000652986
0.00104721
0.00159127
0.00222499
0.00289027
0.00355761
0.00430475
0.00512374
0.00595002
0.00655977
0.0070148
0.00702274
0.00657117
0.00597682
0.00515581
0.004334
0.00358372
0.00291276
0.00224403
0.00160713
0.00105876
0.000659839
0.000426879
0.000300253
0.0002371
0.000202424
0.000190851
0.000218476
0.000246267
0.000301544
0.000404049
0.000588825
0.000917368
0.00146283
0.00212862
0.0029069
0.00379339
0.00461796
0.00531777
0.00575119
0.00601024
0.00601541
0.00575604
0.00533318
0.00464114
0.00381614
0.00292867
0.00214787
0.0014786
0.000928113
0.000596066
0.000408006
0.000303443
0.00024679
0.000218504
0.000191153
0.000164067
0.000182877
0.00019197
0.000211296
0.00024635
0.000308332
0.000421376
0.000637641
0.000990795
0.00161297
0.00255513
0.00363349
0.0046018
0.00523116
0.00557973
0.00558226
0.0052367
0.0046148
0.0036571
0.00257731
0.00162872
0.0010016
0.000645332
0.000426121
0.000311316
0.000248588
0.000212325
0.00019259
0.000183314
0.000164257
0.000137533
0.000148873
0.0001504
0.000155546
0.000165399
0.000181969
0.000210877
0.00026542
0.000367039
0.000576062
0.00104538
0.00194132
0.00300525
0.00391338
0.00454395
0.0045482
0.00391769
0.00301194
0.00195196
0.00105403
0.000580606
0.000369755
0.000267473
0.000212393
0.000182949
0.000166191
0.00015609
0.000150903
0.000149329
0.000137641
0.000116706
0.000123092
0.000122738
0.000123635
0.000126182
0.000129814
0.000136029
0.000147099
0.000167202
0.000211334
0.000322639
0.000606502
0.00117367
0.0019247
0.00262036
0.00262241
0.00192584
0.00117604
0.000609031
0.000324522
0.000212556
0.000168093
0.000147665
0.000136482
0.000130314
0.00012655
0.000124148
0.000123007
0.000123308
0.000116855
0.000100826
0.000104036
0.000103519
0.000103716
0.000104233
0.000105255
0.00010678
0.000109058
0.000113057
0.000121087
0.000140074
0.000189486
0.000305437
0.000526064
0.000829601
0.000830612
0.000526269
0.000305813
0.00018985
0.000140399
0.000121286
0.0001132
0.000109162
0.000106765
0.000105451
0.000104604
0.000103931
0.000103645
0.000104213
0.000100845
8.74695e-05
8.90082e-05
8.8323e-05
8.84744e-05
8.87304e-05
8.92794e-05
8.9931e-05
9.06828e-05
9.17549e-05
9.33096e-05
9.63598e-05
0.000103469
0.000119008
0.000150952
0.000199413
0.000199419
0.000151011
0.000119253
0.000103589
9.64512e-05
9.33704e-05
9.18127e-05
9.07658e-05
9.00358e-05
8.95177e-05
8.91393e-05
8.86626e-05
8.85283e-05
8.90731e-05
8.74352e-05
7.57313e-05
7.65398e-05
7.59918e-05
7.59218e-05
7.63111e-05
7.6686e-05
7.70651e-05
7.74848e-05
7.78556e-05
7.81106e-05
7.83949e-05
7.90799e-05
8.08067e-05
8.43483e-05
8.96586e-05
8.9683e-05
8.45152e-05
8.10362e-05
7.92054e-05
7.84246e-05
7.80529e-05
7.7805e-05
7.75492e-05
7.72394e-05
7.69126e-05
7.65035e-05
7.61113e-05
7.60323e-05
7.65859e-05
7.59545e-05
6.636e-05
6.58474e-05
6.54692e-05
6.56534e-05
6.5834e-05
6.60542e-05
6.62685e-05
6.63844e-05
6.62892e-05
6.59997e-05
6.56293e-05
6.52384e-05
6.49168e-05
6.48129e-05
6.50193e-05
6.50302e-05
6.48692e-05
6.49636e-05
6.52521e-05
6.56407e-05
6.60154e-05
6.63324e-05
6.64419e-05
6.628e-05
6.60654e-05
6.58232e-05
6.56481e-05
6.56018e-05
6.60827e-05
6.6234e-05
5.77756e-05
5.71028e-05
5.66866e-05
5.68036e-05
5.68262e-05
5.69257e-05
5.69261e-05
5.67291e-05
5.63527e-05
5.58295e-05
5.51629e-05
5.43877e-05
5.35791e-05
5.291e-05
5.24956e-05
5.25056e-05
5.29644e-05
5.36448e-05
5.44543e-05
5.52821e-05
5.59824e-05
5.6481e-05
5.67788e-05
5.69445e-05
5.70076e-05
5.69561e-05
5.68625e-05
5.68344e-05
5.72463e-05
5.80305e-05
5.06634e-05
4.98062e-05
4.94592e-05
4.93254e-05
4.93552e-05
4.93103e-05
4.90927e-05
4.87155e-05
4.81599e-05
4.7418e-05
4.6542e-05
4.56112e-05
4.46909e-05
4.38886e-05
4.33445e-05
4.33353e-05
4.38849e-05
4.47123e-05
4.56748e-05
4.66552e-05
4.75283e-05
4.82556e-05
4.87893e-05
4.91455e-05
4.93531e-05
4.94486e-05
4.94586e-05
4.94919e-05
4.98606e-05
5.0808e-05
4.46589e-05
4.34648e-05
4.31656e-05
4.30953e-05
4.30476e-05
4.28386e-05
4.24707e-05
4.19789e-05
4.13219e-05
4.04893e-05
3.9543e-05
3.85696e-05
3.76119e-05
3.67686e-05
3.62034e-05
3.61802e-05
3.67259e-05
3.75929e-05
3.86083e-05
3.96387e-05
4.05862e-05
4.14055e-05
4.20826e-05
4.25625e-05
4.28562e-05
4.30262e-05
4.31211e-05
4.32309e-05
4.36085e-05
4.45559e-05
3.90703e-05
3.81672e-05
3.78766e-05
3.77784e-05
3.75792e-05
3.72857e-05
3.69111e-05
3.64071e-05
3.56965e-05
3.47955e-05
3.38378e-05
3.28779e-05
3.1931e-05
3.10952e-05
3.05604e-05
3.05675e-05
3.11037e-05
3.19295e-05
3.2892e-05
3.39067e-05
3.48879e-05
3.57545e-05
3.64607e-05
3.69822e-05
3.73382e-05
3.75925e-05
3.77872e-05
3.79625e-05
3.83204e-05
3.92518e-05
3.47205e-05
3.37286e-05
3.3453e-05
3.32839e-05
3.30745e-05
3.27723e-05
3.23603e-05
3.17851e-05
3.10373e-05
3.01961e-05
2.93157e-05
2.83811e-05
2.74355e-05
2.66318e-05
2.61504e-05
2.61746e-05
2.66684e-05
2.74299e-05
2.83429e-05
2.933e-05
3.02953e-05
3.11469e-05
3.18414e-05
3.2382e-05
3.28018e-05
3.31253e-05
3.33631e-05
3.35416e-05
3.38388e-05
3.47827e-05
3.08666e-05
3.00154e-05
2.97713e-05
2.96117e-05
2.93705e-05
2.9037e-05
2.86052e-05
2.80447e-05
2.73701e-05
2.66051e-05
2.5742e-05
2.48113e-05
2.39296e-05
2.3234e-05
2.28294e-05
2.28462e-05
2.32756e-05
2.39674e-05
2.48205e-05
2.57464e-05
2.66434e-05
2.74339e-05
2.80873e-05
2.86193e-05
2.90566e-05
2.94037e-05
2.96457e-05
2.98071e-05
3.00523e-05
3.09551e-05
2.76903e-05
2.69319e-05
2.66955e-05
2.65041e-05
2.62401e-05
2.59283e-05
2.55162e-05
2.50007e-05
2.43817e-05
2.36444e-05
2.28116e-05
2.19653e-05
2.12049e-05
2.06006e-05
2.02274e-05
2.0218e-05
2.05979e-05
2.12405e-05
2.20326e-05
2.2874e-05
2.36761e-05
2.43894e-05
2.50013e-05
2.55209e-05
2.59545e-05
2.62934e-05
2.65309e-05
2.66948e-05
2.692e-05
2.77117e-05
2.50118e-05
2.42742e-05
2.40715e-05
2.38875e-05
2.36719e-05
2.33889e-05
2.30031e-05
2.25275e-05
2.19415e-05
2.1247e-05
2.05026e-05
1.9772e-05
1.91069e-05
1.85567e-05
1.82071e-05
1.81961e-05
1.85488e-05
1.91401e-05
1.98535e-05
2.05937e-05
2.12972e-05
2.1941e-05
2.25144e-05
2.30086e-05
2.34137e-05
2.37252e-05
2.39484e-05
2.41087e-05
2.43088e-05
2.49784e-05
2.25987e-05
2.20732e-05
2.18918e-05
2.17638e-05
2.15992e-05
2.13243e-05
2.0968e-05
2.05258e-05
1.99861e-05
1.93778e-05
1.87452e-05
1.81133e-05
1.75132e-05
1.70065e-05
1.66894e-05
1.66867e-05
1.70057e-05
1.75259e-05
1.81443e-05
1.87846e-05
1.94028e-05
1.99819e-05
2.05051e-05
2.09544e-05
2.13168e-05
2.15943e-05
2.17976e-05
2.19481e-05
2.21258e-05
2.26925e-05
2.07488e-05
2.02635e-05
2.01427e-05
2.00317e-05
1.98448e-05
1.95788e-05
1.92622e-05
1.88697e-05
1.84094e-05
1.79027e-05
1.73593e-05
1.67911e-05
1.6241e-05
1.57845e-05
1.5509e-05
1.55173e-05
1.58004e-05
1.62486e-05
1.67798e-05
1.73363e-05
1.78835e-05
1.84006e-05
1.88672e-05
1.92651e-05
1.95849e-05
1.98322e-05
2.00195e-05
2.01634e-05
2.03219e-05
2.07951e-05
1.91843e-05
1.87381e-05
1.86611e-05
1.85413e-05
1.83575e-05
1.81434e-05
1.78733e-05
1.75358e-05
1.71482e-05
1.67125e-05
1.62275e-05
1.57182e-05
1.52377e-05
1.48509e-05
1.46219e-05
1.46353e-05
1.48775e-05
1.52558e-05
1.57092e-05
1.61932e-05
1.6677e-05
1.71353e-05
1.75466e-05
1.78948e-05
1.81765e-05
1.83981e-05
1.857e-05
1.87019e-05
1.88351e-05
1.92167e-05
1.77815e-05
1.75408e-05
1.7428e-05
1.73132e-05
1.7175e-05
1.69998e-05
1.67555e-05
1.646e-05
1.61235e-05
1.57382e-05
1.53117e-05
1.48767e-05
1.4473e-05
1.41439e-05
1.39418e-05
1.39454e-05
1.41477e-05
1.4473e-05
1.48694e-05
1.52966e-05
1.57233e-05
1.61231e-05
1.64782e-05
1.67797e-05
1.70269e-05
1.72243e-05
1.73768e-05
1.74897e-05
1.75953e-05
1.78987e-05
1.67838e-05
1.65797e-05
1.64588e-05
1.63598e-05
1.62414e-05
1.60644e-05
1.58356e-05
1.55763e-05
1.52832e-05
1.49511e-05
1.45931e-05
1.42311e-05
1.38873e-05
1.35936e-05
1.34062e-05
1.34026e-05
1.3581e-05
1.38732e-05
1.42249e-05
1.45971e-05
1.49614e-05
1.52991e-05
1.55994e-05
1.58589e-05
1.60758e-05
1.625e-05
1.6382e-05
1.64765e-05
1.65616e-05
1.68048e-05
1.59611e-05
1.57101e-05
1.56433e-05
1.55591e-05
1.54395e-05
1.52731e-05
1.508e-05
1.48634e-05
1.46159e-05
1.43391e-05
1.40418e-05
1.37343e-05
1.34336e-05
1.3172e-05
1.30051e-05
1.30032e-05
1.31645e-05
1.3423e-05
1.37265e-05
1.40412e-05
1.43456e-05
1.46287e-05
1.48849e-05
1.51095e-05
1.52983e-05
1.5448e-05
1.55596e-05
1.56389e-05
1.57094e-05
1.5903e-05
1.51331e-05
1.49841e-05
1.49347e-05
1.48622e-05
1.47586e-05
1.46305e-05
1.44809e-05
1.43032e-05
1.40957e-05
1.3862e-05
1.36057e-05
1.33359e-05
1.30723e-05
1.28471e-05
1.27055e-05
1.27039e-05
1.28441e-05
1.30676e-05
1.33268e-05
1.35943e-05
1.3855e-05
1.40992e-05
1.43199e-05
1.45109e-05
1.46676e-05
1.47898e-05
1.4881e-05
1.4948e-05
1.50074e-05
1.51582e-05
1.45014e-05
1.44313e-05
1.43655e-05
1.43051e-05
1.42262e-05
1.41279e-05
1.40033e-05
1.38508e-05
1.36731e-05
1.34719e-05
1.32499e-05
1.30176e-05
1.27944e-05
1.26057e-05
1.24853e-05
1.248e-05
1.25961e-05
1.27868e-05
1.30097e-05
1.32416e-05
1.34679e-05
1.36776e-05
1.38621e-05
1.40164e-05
1.41399e-05
1.42368e-05
1.4313e-05
1.4373e-05
1.44259e-05
1.4543e-05
1.40503e-05
1.39437e-05
1.38968e-05
1.38512e-05
1.37885e-05
1.37031e-05
1.35955e-05
1.34668e-05
1.33176e-05
1.31494e-05
1.29664e-05
1.27775e-05
1.25951e-05
1.24359e-05
1.23277e-05
1.23162e-05
1.24094e-05
1.25688e-05
1.27587e-05
1.29574e-05
1.31497e-05
1.3324e-05
1.3473e-05
1.3595e-05
1.36934e-05
1.37742e-05
1.38428e-05
1.39001e-05
1.39485e-05
1.4038e-05
1.36114e-05
1.3509e-05
1.34971e-05
1.34631e-05
1.34079e-05
1.33359e-05
1.325e-05
1.31474e-05
1.30267e-05
1.2891e-05
1.2745e-05
1.2594e-05
1.24438e-05
1.23055e-05
1.22063e-05
1.2192e-05
1.22671e-05
1.23983e-05
1.25586e-05
1.27269e-05
1.28875e-05
1.30308e-05
1.31523e-05
1.32522e-05
1.33354e-05
1.3407e-05
1.34694e-05
1.35208e-05
1.35602e-05
1.3622e-05
1.32273e-05
1.32022e-05
1.31946e-05
1.3161e-05
1.31102e-05
1.30515e-05
1.29831e-05
1.29e-05
1.2802e-05
1.2692e-05
1.25739e-05
1.24496e-05
1.23216e-05
1.22007e-05
1.21124e-05
1.20996e-05
1.21655e-05
1.22767e-05
1.2412e-05
1.25532e-05
1.26868e-05
1.28053e-05
1.29064e-05
1.29909e-05
1.30622e-05
1.31233e-05
1.3174e-05
1.32123e-05
1.32374e-05
1.32718e-05
1.29756e-05