/*--------------------------------*- C++ -*----------------------------------*\
| =========                 |                                                 |
| \\      /  F ield         | OpenFOAM: The Open Source CFD Toolbox           |
|  \\    /   O peration     | Version:  2312                                  |
|   \\  /    A nd           | Website:  www.openfoam.com                      |
|    \\/     M anipulation  |                                                 |
\*---------------------------------------------------------------------------*/
FoamFile
{
    version     2.0;
    format      ascii;
    arch        "LSB;label=32;scalar=64";
    class       volScalarField;
    location    "0.692487";
    object      k;
}
// * * * * * * * * * * * * * * * * * * * * * * * * * * * * * * * * * * * * * //

dimensions      [0 2 -2 0 0 0 0];

internalField   nonuniform List<scalar> 
90000
(
2.74107e-05
2.74118e-05
2.74124e-05
2.74127e-05
2.74129e-05
2.7413e-05
2.74129e-05
2.74128e-05
2.74126e-05
2.74125e-05
2.74125e-05
2.74125e-05
2.74126e-05
2.74126e-05
2.74126e-05
2.74128e-05
2.74131e-05
2.74134e-05
2.74136e-05
2.74135e-05
2.74131e-05
2.74126e-05
2.74124e-05
2.74131e-05
2.74138e-05
2.74143e-05
2.74143e-05
2.74141e-05
2.74141e-05
2.74149e-05
2.74116e-05
2.74557e-05
2.74579e-05
2.74579e-05
2.74579e-05
2.74579e-05
2.74579e-05
2.7458e-05
2.74582e-05
2.74583e-05
2.74584e-05
2.74584e-05
2.74585e-05
2.74586e-05
2.74586e-05
2.74587e-05
2.74587e-05
2.74586e-05
2.74584e-05
2.74583e-05
2.74583e-05
2.74584e-05
2.74585e-05
2.74584e-05
2.74581e-05
2.74576e-05
2.74579e-05
2.74588e-05
2.74567e-05
2.74211e-05
2.74125e-05
2.74588e-05
2.7461e-05
2.7461e-05
2.74609e-05
2.74608e-05
2.74607e-05
2.74608e-05
2.74609e-05
2.7461e-05
2.7461e-05
2.74609e-05
2.74609e-05
2.7461e-05
2.7461e-05
2.74609e-05
2.74607e-05
2.74606e-05
2.74609e-05
2.74612e-05
2.74614e-05
2.74616e-05
2.74617e-05
2.74617e-05
2.74619e-05
2.74622e-05
2.74624e-05
2.74626e-05
2.74602e-05
2.74181e-05
2.74131e-05
2.74594e-05
2.74618e-05
2.74619e-05
2.74618e-05
2.74617e-05
2.74615e-05
2.74614e-05
2.74614e-05
2.74613e-05
2.74612e-05
2.7461e-05
2.74608e-05
2.74608e-05
2.74607e-05
2.74606e-05
2.74606e-05
2.7461e-05
2.74613e-05
2.74616e-05
2.74617e-05
2.74618e-05
2.74621e-05
2.74626e-05
2.74632e-05
2.74634e-05
2.74631e-05
2.74628e-05
2.74607e-05
2.74142e-05
2.74137e-05
2.74598e-05
2.74624e-05
2.74626e-05
2.74626e-05
2.74625e-05
2.74622e-05
2.7462e-05
2.74617e-05
2.74615e-05
2.74612e-05
2.74609e-05
2.74607e-05
2.74604e-05
2.74602e-05
2.74604e-05
2.74607e-05
2.74611e-05
2.74614e-05
2.74615e-05
2.74616e-05
2.74618e-05
2.74623e-05
2.74629e-05
2.74632e-05
2.74632e-05
2.74627e-05
2.74615e-05
2.74607e-05
2.74135e-05
2.74141e-05
2.74602e-05
2.74628e-05
2.7463e-05
2.7463e-05
2.74629e-05
2.74627e-05
2.74624e-05
2.7462e-05
2.74616e-05
2.74611e-05
2.74608e-05
2.74606e-05
2.74605e-05
2.74604e-05
2.74605e-05
2.74608e-05
2.7461e-05
2.74612e-05
2.74614e-05
2.74616e-05
2.7462e-05
2.74623e-05
2.74625e-05
2.74624e-05
2.74624e-05
2.74629e-05
2.74629e-05
2.74618e-05
2.74146e-05
2.74144e-05
2.74608e-05
2.7463e-05
2.7463e-05
2.7463e-05
2.7463e-05
2.74629e-05
2.74627e-05
2.74623e-05
2.74617e-05
2.74611e-05
2.74607e-05
2.74606e-05
2.74607e-05
2.74607e-05
2.74607e-05
2.74607e-05
2.74608e-05
2.7461e-05
2.74615e-05
2.74619e-05
2.74622e-05
2.74622e-05
2.74621e-05
2.74623e-05
2.7463e-05
2.74641e-05
2.74645e-05
2.74627e-05
2.74154e-05
2.74147e-05
2.74611e-05
2.74631e-05
2.7463e-05
2.7463e-05
2.7463e-05
2.74631e-05
2.7463e-05
2.74627e-05
2.74621e-05
2.74615e-05
2.7461e-05
2.74608e-05
2.74609e-05
2.7461e-05
2.74609e-05
2.74608e-05
2.74608e-05
2.74612e-05
2.74617e-05
2.74621e-05
2.74622e-05
2.74621e-05
2.74623e-05
2.74631e-05
2.74641e-05
2.7465e-05
2.74654e-05
2.74631e-05
2.74161e-05
2.7415e-05
2.74613e-05
2.74632e-05
2.74631e-05
2.7463e-05
2.74631e-05
2.74632e-05
2.74632e-05
2.7463e-05
2.74627e-05
2.74622e-05
2.74617e-05
2.74613e-05
2.74612e-05
2.74612e-05
2.74614e-05
2.74616e-05
2.74618e-05
2.7462e-05
2.74622e-05
2.74623e-05
2.74622e-05
2.74624e-05
2.7463e-05
2.74639e-05
2.74647e-05
2.74654e-05
2.74657e-05
2.74633e-05
2.74167e-05
2.74155e-05
2.74614e-05
2.74635e-05
2.74633e-05
2.74631e-05
2.74631e-05
2.74632e-05
2.74633e-05
2.74633e-05
2.74632e-05
2.7463e-05
2.74626e-05
2.7462e-05
2.74615e-05
2.74614e-05
2.74618e-05
2.74624e-05
2.74629e-05
2.74631e-05
2.74631e-05
2.74629e-05
2.74627e-05
2.74629e-05
2.74634e-05
2.74642e-05
2.7465e-05
2.74656e-05
2.74658e-05
2.74634e-05
2.7417e-05
2.74164e-05
2.74617e-05
2.74639e-05
2.74637e-05
2.74635e-05
2.74632e-05
2.74632e-05
2.74632e-05
2.74634e-05
2.74635e-05
2.74634e-05
2.74632e-05
2.74626e-05
2.74619e-05
2.74614e-05
2.74619e-05
2.74627e-05
2.74634e-05
2.74638e-05
2.74638e-05
2.74636e-05
2.74633e-05
2.74632e-05
2.74636e-05
2.74643e-05
2.7465e-05
2.74655e-05
2.74657e-05
2.74633e-05
2.74172e-05
2.74172e-05
2.74622e-05
2.74646e-05
2.74645e-05
2.74644e-05
2.74642e-05
2.7464e-05
2.74638e-05
2.74637e-05
2.74636e-05
2.74636e-05
2.74634e-05
2.7463e-05
2.74624e-05
2.74616e-05
2.74617e-05
2.74624e-05
2.74631e-05
2.74636e-05
2.74637e-05
2.74636e-05
2.74634e-05
2.74634e-05
2.74638e-05
2.74644e-05
2.7465e-05
2.74655e-05
2.74657e-05
2.74633e-05
2.74174e-05
2.7418e-05
2.74634e-05
2.74657e-05
2.74659e-05
2.7466e-05
2.7466e-05
2.74658e-05
2.74654e-05
2.74649e-05
2.74642e-05
2.74637e-05
2.74635e-05
2.74633e-05
2.74629e-05
2.74623e-05
2.74621e-05
2.74623e-05
2.74626e-05
2.74628e-05
2.74629e-05
2.74631e-05
2.74634e-05
2.74638e-05
2.74642e-05
2.74647e-05
2.74653e-05
2.74657e-05
2.74659e-05
2.74635e-05
2.7418e-05
2.74191e-05
2.74647e-05
2.74671e-05
2.74673e-05
2.74676e-05
2.74677e-05
2.74675e-05
2.7467e-05
2.74661e-05
2.7465e-05
2.7464e-05
2.74635e-05
2.74634e-05
2.74633e-05
2.74631e-05
2.74629e-05
2.74628e-05
2.74626e-05
2.74625e-05
2.74627e-05
2.74633e-05
2.7464e-05
2.74646e-05
2.74651e-05
2.74655e-05
2.74659e-05
2.74662e-05
2.74665e-05
2.74643e-05
2.74193e-05
2.74207e-05
2.7466e-05
2.74687e-05
2.74689e-05
2.74691e-05
2.7469e-05
2.74686e-05
2.74678e-05
2.74667e-05
2.74655e-05
2.74643e-05
2.74636e-05
2.74635e-05
2.74636e-05
2.74636e-05
2.74636e-05
2.74635e-05
2.74633e-05
2.74634e-05
2.74638e-05
2.74646e-05
2.74653e-05
2.74659e-05
2.74663e-05
2.74667e-05
2.7467e-05
2.74674e-05
2.74678e-05
2.74658e-05
2.74211e-05
2.74224e-05
2.74683e-05
2.74707e-05
2.74707e-05
2.74705e-05
2.74699e-05
2.7469e-05
2.7468e-05
2.7467e-05
2.7466e-05
2.74649e-05
2.74639e-05
2.74636e-05
2.74637e-05
2.74638e-05
2.74639e-05
2.74641e-05
2.74644e-05
2.74648e-05
2.74653e-05
2.74659e-05
2.74666e-05
2.74673e-05
2.74678e-05
2.74682e-05
2.74687e-05
2.74692e-05
2.74699e-05
2.74684e-05
2.7423e-05
2.74242e-05
2.74712e-05
2.74731e-05
2.74726e-05
2.74718e-05
2.74707e-05
2.74695e-05
2.74686e-05
2.74678e-05
2.74669e-05
2.74658e-05
2.74646e-05
2.7464e-05
2.74637e-05
2.74637e-05
2.74639e-05
2.74644e-05
2.74651e-05
2.74657e-05
2.74664e-05
2.74671e-05
2.74679e-05
2.74687e-05
2.74693e-05
2.747e-05
2.74707e-05
2.74717e-05
2.74726e-05
2.74708e-05
2.74247e-05
2.74265e-05
2.74741e-05
2.74756e-05
2.74748e-05
2.74737e-05
2.74725e-05
2.74713e-05
2.74702e-05
2.74692e-05
2.74681e-05
2.74668e-05
2.74655e-05
2.74645e-05
2.74637e-05
2.74633e-05
2.74635e-05
2.74644e-05
2.74654e-05
2.74664e-05
2.74674e-05
2.74684e-05
2.74693e-05
2.74702e-05
2.74711e-05
2.74721e-05
2.74732e-05
2.74743e-05
2.74749e-05
2.74725e-05
2.74265e-05
2.74297e-05
2.74768e-05
2.74783e-05
2.74775e-05
2.74764e-05
2.74752e-05
2.74739e-05
2.74726e-05
2.74711e-05
2.74696e-05
2.7468e-05
2.74665e-05
2.7465e-05
2.74637e-05
2.74628e-05
2.7463e-05
2.74642e-05
2.74657e-05
2.74672e-05
2.74685e-05
2.74698e-05
2.7471e-05
2.74722e-05
2.74734e-05
2.74747e-05
2.7476e-05
2.74768e-05
2.7477e-05
2.74744e-05
2.74289e-05
2.74336e-05
2.74798e-05
2.74814e-05
2.74806e-05
2.74795e-05
2.74783e-05
2.7477e-05
2.74754e-05
2.74736e-05
2.74717e-05
2.74697e-05
2.74677e-05
2.74657e-05
2.74639e-05
2.74625e-05
2.74627e-05
2.74643e-05
2.74663e-05
2.74683e-05
2.74701e-05
2.74718e-05
2.74733e-05
2.7475e-05
2.74766e-05
2.7478e-05
2.74791e-05
2.74796e-05
2.74797e-05
2.74773e-05
2.74322e-05
2.74382e-05
2.74832e-05
2.74851e-05
2.74843e-05
2.74832e-05
2.7482e-05
2.74805e-05
2.74787e-05
2.74767e-05
2.74744e-05
2.7472e-05
2.74695e-05
2.7467e-05
2.74647e-05
2.7463e-05
2.74632e-05
2.74651e-05
2.74676e-05
2.74701e-05
2.74724e-05
2.74745e-05
2.74766e-05
2.74786e-05
2.74804e-05
2.74818e-05
2.74827e-05
2.74833e-05
2.74836e-05
2.74815e-05
2.74365e-05
2.74435e-05
2.74878e-05
2.74898e-05
2.7489e-05
2.74879e-05
2.74865e-05
2.74848e-05
2.74827e-05
2.74804e-05
2.74778e-05
2.74749e-05
2.74719e-05
2.7469e-05
2.74662e-05
2.74643e-05
2.74645e-05
2.74666e-05
2.74695e-05
2.74725e-05
2.74753e-05
2.74781e-05
2.74806e-05
2.74829e-05
2.74848e-05
2.74863e-05
2.74874e-05
2.74883e-05
2.74889e-05
2.74869e-05
2.74422e-05
2.74499e-05
2.74939e-05
2.74959e-05
2.74951e-05
2.74938e-05
2.74921e-05
2.74901e-05
2.74876e-05
2.74849e-05
2.74818e-05
2.74784e-05
2.74749e-05
2.74714e-05
2.74682e-05
2.74659e-05
2.7466e-05
2.74685e-05
2.74719e-05
2.74755e-05
2.7479e-05
2.74823e-05
2.74854e-05
2.7488e-05
2.74902e-05
2.74921e-05
2.74936e-05
2.74949e-05
2.74958e-05
2.7494e-05
2.74497e-05
2.7458e-05
2.75019e-05
2.75039e-05
2.75028e-05
2.75012e-05
2.74992e-05
2.74967e-05
2.74938e-05
2.74905e-05
2.74868e-05
2.74828e-05
2.74787e-05
2.74746e-05
2.74707e-05
2.74679e-05
2.74679e-05
2.74709e-05
2.7475e-05
2.74792e-05
2.74835e-05
2.74874e-05
2.7491e-05
2.74942e-05
2.7497e-05
2.74994e-05
2.75014e-05
2.75031e-05
2.75043e-05
2.75028e-05
2.74587e-05
2.74681e-05
2.7512e-05
2.75137e-05
2.75124e-05
2.75104e-05
2.75079e-05
2.7505e-05
2.75015e-05
2.74975e-05
2.74931e-05
2.74883e-05
2.74834e-05
2.74785e-05
2.7474e-05
2.74706e-05
2.74706e-05
2.7474e-05
2.74787e-05
2.74837e-05
2.74887e-05
2.74935e-05
2.74979e-05
2.75018e-05
2.75052e-05
2.75081e-05
2.75107e-05
2.75129e-05
2.75146e-05
2.75133e-05
2.74692e-05
2.74807e-05
2.75244e-05
2.75258e-05
2.75242e-05
2.75218e-05
2.75188e-05
2.75152e-05
2.75109e-05
2.75061e-05
2.75008e-05
2.74952e-05
2.74893e-05
2.74835e-05
2.7478e-05
2.7474e-05
2.74739e-05
2.74778e-05
2.74833e-05
2.74893e-05
2.74953e-05
2.75011e-05
2.75063e-05
2.75109e-05
2.7515e-05
2.75186e-05
2.75218e-05
2.75246e-05
2.75266e-05
2.75254e-05
2.74812e-05
2.74959e-05
2.75395e-05
2.75406e-05
2.75386e-05
2.75358e-05
2.75321e-05
2.75277e-05
2.75226e-05
2.75168e-05
2.75104e-05
2.75036e-05
2.74966e-05
2.74896e-05
2.7483e-05
2.74782e-05
2.7478e-05
2.74826e-05
2.74891e-05
2.74964e-05
2.75036e-05
2.75105e-05
2.75166e-05
2.75221e-05
2.7527e-05
2.75315e-05
2.75355e-05
2.75387e-05
2.75409e-05
2.75396e-05
2.74958e-05
2.75143e-05
2.75576e-05
2.75585e-05
2.75561e-05
2.75526e-05
2.75482e-05
2.75429e-05
2.75367e-05
2.75297e-05
2.75221e-05
2.7514e-05
2.75056e-05
2.74972e-05
2.74894e-05
2.74837e-05
2.74834e-05
2.74889e-05
2.74969e-05
2.75056e-05
2.75142e-05
2.75223e-05
2.75297e-05
2.75363e-05
2.75424e-05
2.75478e-05
2.75524e-05
2.75558e-05
2.75581e-05
2.7557e-05
2.75138e-05
2.75364e-05
2.75794e-05
2.75799e-05
2.75769e-05
2.75728e-05
2.75675e-05
2.75612e-05
2.75538e-05
2.75456e-05
2.75366e-05
2.7527e-05
2.7517e-05
2.7507e-05
2.74977e-05
2.74911e-05
2.7491e-05
2.74976e-05
2.7507e-05
2.75174e-05
2.75276e-05
2.75372e-05
2.7546e-05
2.75541e-05
2.75614e-05
2.75678e-05
2.7573e-05
2.75767e-05
2.75792e-05
2.75786e-05
2.7536e-05
2.7563e-05
2.76054e-05
2.76055e-05
2.76019e-05
2.7597e-05
2.75908e-05
2.75834e-05
2.75747e-05
2.75651e-05
2.75545e-05
2.75432e-05
2.75314e-05
2.75195e-05
2.75086e-05
2.7501e-05
2.75011e-05
2.75088e-05
2.75198e-05
2.75319e-05
2.75439e-05
2.75553e-05
2.75659e-05
2.75757e-05
2.75844e-05
2.75918e-05
2.75976e-05
2.76019e-05
2.76052e-05
2.7605e-05
2.75629e-05
2.75949e-05
2.76366e-05
2.76362e-05
2.7632e-05
2.76262e-05
2.7619e-05
2.76103e-05
2.76003e-05
2.7589e-05
2.75767e-05
2.75633e-05
2.75493e-05
2.75353e-05
2.75226e-05
2.75139e-05
2.7514e-05
2.75228e-05
2.75355e-05
2.75496e-05
2.75636e-05
2.75772e-05
2.75899e-05
2.76015e-05
2.76118e-05
2.76202e-05
2.7627e-05
2.76325e-05
2.76366e-05
2.76369e-05
2.75951e-05
2.7633e-05
2.7674e-05
2.76732e-05
2.76683e-05
2.76617e-05
2.76533e-05
2.76433e-05
2.76316e-05
2.76185e-05
2.76039e-05
2.75881e-05
2.75716e-05
2.75551e-05
2.75403e-05
2.75304e-05
2.75304e-05
2.75404e-05
2.75551e-05
2.75714e-05
2.75879e-05
2.7604e-05
2.7619e-05
2.76325e-05
2.76444e-05
2.76543e-05
2.76625e-05
2.76694e-05
2.76744e-05
2.76752e-05
2.7634e-05
2.76787e-05
2.77191e-05
2.77178e-05
2.77122e-05
2.77045e-05
2.76949e-05
2.76833e-05
2.76696e-05
2.76543e-05
2.76371e-05
2.76185e-05
2.7599e-05
2.75798e-05
2.75628e-05
2.75515e-05
2.75515e-05
2.75628e-05
2.75796e-05
2.75985e-05
2.76177e-05
2.76365e-05
2.7654e-05
2.76697e-05
2.76834e-05
2.76952e-05
2.77052e-05
2.77133e-05
2.77192e-05
2.77206e-05
2.76803e-05
2.77332e-05
2.77729e-05
2.77711e-05
2.77647e-05
2.7756e-05
2.77448e-05
2.77313e-05
2.77155e-05
2.76975e-05
2.76775e-05
2.76558e-05
2.76331e-05
2.7611e-05
2.75917e-05
2.75788e-05
2.75788e-05
2.75915e-05
2.76106e-05
2.76324e-05
2.76546e-05
2.76764e-05
2.76965e-05
2.77145e-05
2.77305e-05
2.77443e-05
2.7756e-05
2.77653e-05
2.7772e-05
2.7774e-05
2.77345e-05
2.7798e-05
2.78368e-05
2.78345e-05
2.78272e-05
2.78172e-05
2.78044e-05
2.77889e-05
2.77706e-05
2.77499e-05
2.77269e-05
2.77019e-05
2.76761e-05
2.76509e-05
2.7629e-05
2.76144e-05
2.76144e-05
2.76288e-05
2.76505e-05
2.76754e-05
2.7701e-05
2.77258e-05
2.77488e-05
2.77693e-05
2.77877e-05
2.78036e-05
2.78169e-05
2.78271e-05
2.78345e-05
2.78367e-05
2.77982e-05
2.78744e-05
2.79121e-05
2.79092e-05
2.79011e-05
2.78898e-05
2.78755e-05
2.7858e-05
2.78375e-05
2.78141e-05
2.7788e-05
2.77597e-05
2.77305e-05
2.77021e-05
2.76776e-05
2.76615e-05
2.76616e-05
2.76779e-05
2.77024e-05
2.77307e-05
2.77598e-05
2.77877e-05
2.78135e-05
2.78368e-05
2.78575e-05
2.78752e-05
2.78897e-05
2.79007e-05
2.79084e-05
2.79108e-05
2.78737e-05
2.79645e-05
2.80005e-05
2.79973e-05
2.79885e-05
2.79762e-05
2.79605e-05
2.79414e-05
2.79188e-05
2.78928e-05
2.78637e-05
2.78323e-05
2.77998e-05
2.77684e-05
2.77413e-05
2.77235e-05
2.77238e-05
2.7742e-05
2.77693e-05
2.7801e-05
2.78334e-05
2.78646e-05
2.78932e-05
2.79191e-05
2.7942e-05
2.79612e-05
2.79766e-05
2.79883e-05
2.79964e-05
2.79991e-05
2.79637e-05
2.80713e-05
2.81049e-05
2.81013e-05
2.80919e-05
2.80789e-05
2.80623e-05
2.80418e-05
2.80173e-05
2.7989e-05
2.79573e-05
2.79231e-05
2.78877e-05
2.78533e-05
2.78235e-05
2.78037e-05
2.78039e-05
2.78238e-05
2.78539e-05
2.78889e-05
2.79244e-05
2.79587e-05
2.79901e-05
2.80185e-05
2.80431e-05
2.80634e-05
2.80798e-05
2.80923e-05
2.81013e-05
2.81046e-05
2.80716e-05
2.81962e-05
2.82274e-05
2.82237e-05
2.82141e-05
2.82007e-05
2.81834e-05
2.8162e-05
2.81362e-05
2.81063e-05
2.80727e-05
2.80362e-05
2.79979e-05
2.79604e-05
2.79276e-05
2.79056e-05
2.79056e-05
2.79274e-05
2.796e-05
2.79979e-05
2.8036e-05
2.80729e-05
2.81065e-05
2.81368e-05
2.81627e-05
2.81838e-05
2.82008e-05
2.82142e-05
2.8224e-05
2.82278e-05
2.81973e-05
2.83413e-05
2.837e-05
2.8367e-05
2.83575e-05
2.83444e-05
2.83271e-05
2.83056e-05
2.82796e-05
2.82491e-05
2.82144e-05
2.81758e-05
2.8135e-05
2.80948e-05
2.80595e-05
2.80357e-05
2.80353e-05
2.80587e-05
2.80935e-05
2.81338e-05
2.8174e-05
2.8213e-05
2.8248e-05
2.82791e-05
2.83051e-05
2.83262e-05
2.83434e-05
2.83569e-05
2.83667e-05
2.83704e-05
2.8342e-05
2.85094e-05
2.85359e-05
2.85339e-05
2.85257e-05
2.85136e-05
2.84977e-05
2.84774e-05
2.84524e-05
2.84225e-05
2.83877e-05
2.83484e-05
2.83066e-05
2.82648e-05
2.82276e-05
2.82023e-05
2.82018e-05
2.82268e-05
2.82637e-05
2.83059e-05
2.83471e-05
2.83867e-05
2.84213e-05
2.84515e-05
2.84766e-05
2.84966e-05
2.85128e-05
2.85251e-05
2.85336e-05
2.85366e-05
2.85099e-05
2.8704e-05
2.87292e-05
2.87286e-05
2.87222e-05
2.87127e-05
2.86997e-05
2.86823e-05
2.86599e-05
2.86324e-05
2.85998e-05
2.85623e-05
2.85211e-05
2.8479e-05
2.8441e-05
2.84153e-05
2.84154e-05
2.84415e-05
2.84793e-05
2.85212e-05
2.85618e-05
2.85997e-05
2.86321e-05
2.86595e-05
2.86816e-05
2.86987e-05
2.87121e-05
2.87217e-05
2.87284e-05
2.87298e-05
2.87044e-05
2.89291e-05
2.89526e-05
2.8955e-05
2.89523e-05
2.89466e-05
2.89381e-05
2.8926e-05
2.89093e-05
2.88872e-05
2.88596e-05
2.88262e-05
2.8788e-05
2.87484e-05
2.87116e-05
2.86862e-05
2.86861e-05
2.87118e-05
2.87488e-05
2.87886e-05
2.88268e-05
2.88599e-05
2.88873e-05
2.89091e-05
2.89255e-05
2.89375e-05
2.8946e-05
2.89518e-05
2.89553e-05
2.89531e-05
2.8929e-05
2.9192e-05
2.92115e-05
2.92188e-05
2.92216e-05
2.92225e-05
2.92211e-05
2.92174e-05
2.92098e-05
2.91967e-05
2.91784e-05
2.91538e-05
2.91227e-05
2.9088e-05
2.90543e-05
2.90307e-05
2.90311e-05
2.90549e-05
2.90887e-05
2.91233e-05
2.9155e-05
2.91792e-05
2.9197e-05
2.92098e-05
2.92171e-05
2.9221e-05
2.92223e-05
2.92215e-05
2.92191e-05
2.92116e-05
2.91916e-05
2.95029e-05
2.95169e-05
2.95297e-05
2.95382e-05
2.95494e-05
2.95592e-05
2.95677e-05
2.9574e-05
2.9576e-05
2.95745e-05
2.9567e-05
2.95528e-05
2.95356e-05
2.95189e-05
2.95096e-05
2.95102e-05
2.95194e-05
2.95364e-05
2.95535e-05
2.95678e-05
2.95754e-05
2.95767e-05
2.95744e-05
2.95672e-05
2.95587e-05
2.95492e-05
2.95387e-05
2.95302e-05
2.95165e-05
2.95025e-05
2.98685e-05
2.98844e-05
2.99059e-05
2.99238e-05
2.99471e-05
2.99744e-05
3.00056e-05
3.00377e-05
3.00728e-05
3.01178e-05
3.01785e-05
3.02625e-05
3.03844e-05
3.05356e-05
3.06889e-05
3.06898e-05
3.05359e-05
3.03842e-05
3.0263e-05
3.01795e-05
3.01186e-05
3.00732e-05
3.00379e-05
3.00051e-05
2.99741e-05
2.9947e-05
2.99245e-05
2.99061e-05
2.98844e-05
2.98687e-05
3.03187e-05
3.03476e-05
3.039e-05
3.04305e-05
3.04816e-05
3.05538e-05
3.06493e-05
3.07845e-05
3.09953e-05
3.13537e-05
3.20071e-05
3.30484e-05
3.44893e-05
3.62577e-05
3.7976e-05
3.7978e-05
3.62587e-05
3.44922e-05
3.30542e-05
3.20127e-05
3.13572e-05
3.09975e-05
3.07855e-05
3.06491e-05
3.05539e-05
3.04813e-05
3.04309e-05
3.03894e-05
3.03474e-05
3.03185e-05
3.0915e-05
3.09766e-05
3.10876e-05
3.12249e-05
3.14151e-05
3.17172e-05
3.22374e-05
3.31007e-05
3.47532e-05
3.76944e-05
4.32457e-05
5.18817e-05
6.28874e-05
7.52668e-05
8.6668e-05
8.66762e-05
7.52787e-05
6.29254e-05
5.19384e-05
4.3295e-05
3.77257e-05
3.4772e-05
3.31108e-05
3.22416e-05
3.17179e-05
3.14142e-05
3.12235e-05
3.10858e-05
3.0975e-05
3.09116e-05
3.1954e-05
3.21481e-05
3.26369e-05
3.33408e-05
3.44662e-05
3.63272e-05
3.97934e-05
4.61049e-05
5.78046e-05
7.76747e-05
0.000110704
0.00015821
0.000213581
0.000267414
0.000311884
0.000311933
0.000267512
0.000213833
0.000158555
0.000111007
7.78842e-05
5.79343e-05
4.61785e-05
3.98316e-05
3.63419e-05
3.44661e-05
3.33347e-05
3.26291e-05
3.21342e-05
3.19351e-05
3.47211e-05
3.6639e-05
3.96963e-05
4.4103e-05
5.16928e-05
6.47781e-05
8.96961e-05
0.000132753
0.000203044
0.000301635
0.000434656
0.000597825
0.000764922
0.000911103
0.00101535
0.00101557
0.000911563
0.000765878
0.000599096
0.000435905
0.000302651
0.000203765
0.000133218
8.99721e-05
6.49323e-05
5.17548e-05
4.41119e-05
3.96817e-05
3.65889e-05
3.46573e-05
6.68349e-05
9.85521e-05
0.000141402
0.000210175
0.000309001
0.000441473
0.000607426
0.000801033
0.0010208
0.00125789
0.00150514
0.00173579
0.00193438
0.00208717
0.00218823
0.00218874
0.00208821
0.0019363
0.00173842
0.00150823
0.00126096
0.00102359
0.000803411
0.000609313
0.000442886
0.000309991
0.000210816
0.000141749
9.86365e-05
6.67842e-05
8.60667e-05
0.000120544
0.000176013
0.000253687
0.000363535
0.000514338
0.000702549
0.000913506
0.00117213
0.00142316
0.00167789
0.00192696
0.00212647
0.00227563
0.0023761
0.00237699
0.00227748
0.0021295
0.0019307
0.00168278
0.00142775
0.00117589
0.000917044
0.000705233
0.000516162
0.000364856
0.000254549
0.000176477
0.000120681
8.59313e-05
0.000122151
0.000155814
0.000227023
0.000327571
0.000457088
0.00060958
0.000772575
0.000957549
0.00115266
0.00139622
0.0016158
0.00184218
0.00209118
0.00228615
0.00240632
0.00240678
0.00228722
0.00209365
0.00184662
0.00162207
0.0014022
0.00115831
0.000961899
0.000775744
0.000611762
0.000459136
0.000328995
0.000227708
0.000156031
0.000122071
0.000163858
0.000192125
0.000255891
0.000358095
0.000496045
0.000651981
0.000809268
0.000963773
0.00111788
0.00129219
0.00150624
0.00173631
0.00193363
0.00207325
0.0021799
0.00218035
0.00207472
0.001937
0.00174225
0.00151111
0.00129706
0.0011248
0.000968445
0.000812346
0.000654569
0.000498703
0.000360383
0.000256649
0.000192266
0.000163981
0.000183168
0.000206033
0.000244448
0.000311452
0.000416098
0.00056192
0.000728863
0.000896338
0.00105013
0.00119446
0.00134881
0.00151268
0.00166999
0.00178345
0.00186478
0.00186644
0.00178591
0.00167473
0.00151917
0.00135404
0.00119909
0.00105545
0.000901016
0.000733432
0.000566332
0.000419561
0.000313976
0.000245405
0.000206308
0.000183787
0.000176579
0.000195544
0.000213591
0.000245888
0.000298452
0.000380621
0.000504523
0.000677821
0.000857707
0.00104642
0.00123911
0.00140313
0.00153525
0.00161311
0.00165741
0.00165807
0.00161393
0.00153766
0.00140769
0.00124395
0.00105083
0.000862477
0.000682511
0.000508798
0.000383929
0.000300187
0.000246851
0.000214006
0.000195533
0.000176617
0.000158535
0.00017314
0.000179683
0.000192039
0.000212511
0.000244946
0.00029738
0.000384373
0.000512657
0.00070449
0.000951776
0.00120694
0.00140868
0.00152709
0.00158938
0.00158966
0.00152797
0.00141096
0.00121161
0.000957193
0.000708849
0.000516328
0.000387198
0.000299329
0.000246423
0.00021373
0.000192754
0.000180184
0.00017337
0.000158827
0.000140488
0.000150146
0.000151421
0.000155079
0.000161866
0.000172144
0.000188595
0.000218444
0.000268862
0.000359496
0.000530652
0.000793641
0.00106945
0.00127418
0.00140401
0.00140469
0.00127477
0.00107101
0.000796588
0.00053338
0.000361073
0.000270004
0.000219418
0.000189457
0.000172818
0.000162376
0.000155547
0.000151829
0.000150454
0.0001406
0.00012611
0.000131336
0.000131283
0.000132212
0.000134227
0.000136842
0.000141469
0.000149179
0.000162273
0.000188723
0.000247786
0.000373771
0.000571589
0.000798077
0.000984745
0.000985115
0.000797967
0.000572144
0.0003748
0.000248742
0.000189362
0.000162748
0.000149496
0.000141802
0.000137237
0.000134469
0.000132537
0.000131558
0.000131684
0.000126238
0.000114805
0.000117044
0.00011689
0.000117227
0.000117814
0.000118939
0.000120495
0.000122569
0.000125836
0.000131861
0.000145075
0.00017643
0.00024027
0.000340281
0.000454961
0.000455267
0.000340222
0.000240331
0.000176569
0.000145248
0.000131979
0.000125917
0.000122597
0.000120435
0.000119034
0.000118032
0.000117296
0.000116888
0.000117209
0.000114736
0.000104403
0.000105172
0.000104784
0.000105147
0.000105696
0.000106499
0.000107367
0.000108294
0.000109469
0.000111001
0.000113603
0.0001191
0.000130436
0.000151938
0.000181253
0.00018124
0.000151928
0.000130561
0.000119168
0.000113671
0.00011107
0.000109537
0.000108354
0.000107421
0.000106675
0.000106077
0.00010544
0.000105064
0.000105255
0.000104597
9.5385e-05
9.52058e-05
9.49576e-05
9.51805e-05
9.57865e-05
9.63748e-05
9.69513e-05
9.75475e-05
9.81144e-05
9.85817e-05
9.90232e-05
9.97172e-05
0.000101194
0.000104079
0.000108232
0.000108266
0.000104241
0.000101424
9.98661e-05
9.90818e-05
9.8568e-05
9.81032e-05
9.76155e-05
9.70885e-05
9.65373e-05
9.59305e-05
9.53456e-05
9.50127e-05
9.5255e-05
9.54736e-05
8.75046e-05
8.63259e-05
8.62002e-05
8.65631e-05
8.69342e-05
8.73233e-05
8.76983e-05
8.80071e-05
8.8134e-05
8.80815e-05
8.79227e-05
8.76995e-05
8.74884e-05
8.74373e-05
8.76245e-05
8.7636e-05
8.74838e-05
8.75157e-05
8.76791e-05
8.78806e-05
8.80356e-05
8.81185e-05
8.80192e-05
8.76825e-05
8.73049e-05
8.6887e-05
8.65241e-05
8.62945e-05
8.65926e-05
8.73556e-05
7.97728e-05
7.87407e-05
7.84585e-05
7.86975e-05
7.8863e-05
7.90889e-05
7.92357e-05
7.92059e-05
7.90144e-05
7.86795e-05
7.81844e-05
7.75582e-05
7.68666e-05
7.6272e-05
7.58896e-05
7.58894e-05
7.62922e-05
7.6884e-05
7.75758e-05
7.82607e-05
7.88058e-05
7.91437e-05
7.92876e-05
7.92968e-05
7.91991e-05
7.90042e-05
7.87697e-05
7.86138e-05
7.89207e-05
8.01416e-05
7.32846e-05
7.21004e-05
7.17915e-05
7.17574e-05
7.18748e-05
7.1931e-05
7.18197e-05
7.15564e-05
7.11225e-05
7.0499e-05
6.9732e-05
6.88897e-05
6.80301e-05
6.72637e-05
6.67358e-05
6.67293e-05
6.72695e-05
6.80744e-05
6.8995e-05
6.99073e-05
7.06866e-05
7.12972e-05
7.16964e-05
7.19121e-05
7.19852e-05
7.19587e-05
7.18724e-05
7.18242e-05
7.2142e-05
7.34594e-05
6.7513e-05
6.59413e-05
6.56784e-05
6.56754e-05
6.57022e-05
6.55648e-05
6.52677e-05
6.48446e-05
6.42468e-05
6.34599e-05
6.2542e-05
6.15769e-05
6.06071e-05
5.9739e-05
5.91522e-05
5.91339e-05
5.97114e-05
6.06124e-05
6.16464e-05
6.26712e-05
6.35852e-05
6.43412e-05
6.49322e-05
6.53147e-05
6.55168e-05
6.56139e-05
6.56534e-05
6.57253e-05
6.60942e-05
6.73787e-05
6.17436e-05
6.05031e-05
6.02384e-05
6.01837e-05
6.00266e-05
5.97739e-05
5.94394e-05
5.89638e-05
5.82601e-05
5.73387e-05
5.63362e-05
5.53087e-05
5.42753e-05
5.33476e-05
5.27479e-05
5.27544e-05
5.33514e-05
5.42604e-05
5.53021e-05
5.63795e-05
5.7398e-05
5.82733e-05
5.89648e-05
5.94577e-05
5.97796e-05
6.0006e-05
6.01816e-05
6.03429e-05
6.07154e-05
6.19632e-05
5.70396e-05
5.57887e-05
5.54891e-05
5.53214e-05
5.51155e-05
5.48208e-05
5.44112e-05
5.38192e-05
5.30254e-05
5.21088e-05
5.11257e-05
5.00606e-05
4.89645e-05
4.80195e-05
4.74461e-05
4.74699e-05
4.80488e-05
4.89372e-05
4.99901e-05
5.11111e-05
5.21885e-05
5.31214e-05
5.38671e-05
5.44353e-05
5.48687e-05
5.51972e-05
5.54358e-05
5.56123e-05
5.59331e-05
5.7179e-05
5.27948e-05
5.1687e-05
5.13825e-05
5.11973e-05
5.09339e-05
5.05762e-05
5.01084e-05
4.94889e-05
4.87251e-05
4.78392e-05
4.68203e-05
4.57033e-05
4.4629e-05
4.37706e-05
4.32658e-05
4.32841e-05
4.3816e-05
4.46693e-05
4.57104e-05
4.68241e-05
4.78856e-05
4.88059e-05
4.95535e-05
5.01509e-05
5.06324e-05
5.10068e-05
5.12604e-05
5.14246e-05
5.16994e-05
5.28976e-05
4.91449e-05
4.80984e-05
4.77979e-05
4.75764e-05
4.72776e-05
4.69235e-05
4.64491e-05
4.58436e-05
4.51001e-05
4.41991e-05
4.3165e-05
4.20981e-05
4.1127e-05
4.03471e-05
3.98635e-05
3.98527e-05
4.03479e-05
4.11783e-05
4.21894e-05
4.32487e-05
4.42434e-05
4.5114e-05
4.58481e-05
4.64593e-05
4.69592e-05
4.73418e-05
4.76033e-05
4.77806e-05
4.80449e-05
4.91216e-05
4.58961e-05
4.48602e-05
4.46096e-05
4.43996e-05
4.41504e-05
4.38164e-05
4.33505e-05
4.27628e-05
4.20256e-05
4.11384e-05
4.01726e-05
3.92108e-05
3.83252e-05
3.75867e-05
3.71162e-05
3.71035e-05
3.75807e-05
3.83734e-05
3.93185e-05
4.02866e-05
4.11939e-05
4.20116e-05
4.27282e-05
4.33355e-05
4.38247e-05
4.41946e-05
4.44554e-05
4.46417e-05
4.48888e-05
4.58252e-05
4.28507e-05
4.20874e-05
4.18662e-05
4.17193e-05
4.15233e-05
4.11844e-05
4.07334e-05
4.01629e-05
3.94582e-05
3.86518e-05
3.78009e-05
3.69402e-05
3.61146e-05
3.54122e-05
3.49708e-05
3.49679e-05
3.54121e-05
3.61318e-05
3.69786e-05
3.78457e-05
3.86721e-05
3.9436e-05
4.01167e-05
4.06939e-05
4.11533e-05
4.15008e-05
4.17529e-05
4.1939e-05
4.21689e-05
4.2979e-05
4.04453e-05
3.97605e-05
3.96058e-05
3.94702e-05
3.92327e-05
3.88866e-05
3.84666e-05
3.79407e-05
3.73178e-05
3.66237e-05
3.58711e-05
3.50767e-05
3.43004e-05
3.36507e-05
3.32564e-05
3.32678e-05
3.3672e-05
3.43095e-05
3.50591e-05
3.58367e-05
3.6593e-05
3.72998e-05
3.79304e-05
3.8463e-05
3.88872e-05
3.92122e-05
3.94567e-05
3.96437e-05
3.98557e-05
4.05443e-05
3.8385e-05
3.77599e-05
3.76514e-05
3.7492e-05
3.72435e-05
3.69487e-05
3.6575e-05
3.61064e-05
3.55643e-05
3.49507e-05
3.42632e-05
3.35358e-05
3.28426e-05
3.22796e-05
3.19443e-05
3.19632e-05
3.23168e-05
3.28679e-05
3.35242e-05
3.42187e-05
3.49065e-05
3.55519e-05
3.61261e-05
3.66083e-05
3.69958e-05
3.72988e-05
3.75321e-05
3.771e-05
3.78932e-05
3.84582e-05
3.65047e-05
3.61454e-05
3.59832e-05
3.58202e-05
3.56217e-05
3.53696e-05
3.50208e-05
3.45983e-05
3.41155e-05
3.3561e-05
3.29442e-05
3.23103e-05
3.17168e-05
3.12293e-05
3.09291e-05
3.09344e-05
3.12356e-05
3.17187e-05
3.23037e-05
3.2929e-05
3.35483e-05
3.41242e-05
3.46323e-05
3.50612e-05
3.54109e-05
3.56887e-05
3.5902e-05
3.60587e-05
3.62078e-05
3.66648e-05
3.51215e-05
3.48074e-05
3.4629e-05
3.44829e-05
3.43073e-05
3.40488e-05
3.37159e-05
3.33377e-05
3.29093e-05
3.24227e-05
3.18956e-05
3.1359e-05
3.0846e-05
3.04055e-05
3.01239e-05
3.01189e-05
3.03881e-05
3.08276e-05
3.13533e-05
3.19057e-05
3.24428e-05
3.29378e-05
3.33756e-05
3.3752e-05
3.40652e-05
3.43155e-05
3.45044e-05
3.46387e-05
3.47614e-05
3.51341e-05
3.39458e-05
3.35603e-05
3.34555e-05
3.33292e-05
3.31516e-05
3.29063e-05
3.26211e-05
3.23005e-05
3.19339e-05
3.15226e-05
3.10787e-05
3.06171e-05
3.01637e-05
2.97674e-05
2.95139e-05
2.9511e-05
2.97563e-05
3.01482e-05
3.06063e-05
3.10787e-05
3.15328e-05
3.1953e-05
3.23313e-05
3.26616e-05
3.29379e-05
3.31566e-05
3.3319e-05
3.3434e-05
3.35377e-05
3.38399e-05
3.27372e-05
3.24891e-05
3.24127e-05
3.23036e-05
3.2149e-05
3.19579e-05
3.17345e-05
3.14691e-05
3.11589e-05
3.08082e-05
3.04223e-05
3.00142e-05
2.96132e-05
2.92691e-05
2.9052e-05
2.90493e-05
2.92635e-05
2.96047e-05
2.99987e-05
3.04033e-05
3.07955e-05
3.11608e-05
3.14894e-05
3.17727e-05
3.20048e-05
3.21855e-05
3.23203e-05
3.24191e-05
3.2508e-05
3.27481e-05
3.17868e-05
3.16561e-05
3.15587e-05
3.14678e-05
3.13494e-05
3.12019e-05
3.10152e-05
3.07866e-05
3.05194e-05
3.02158e-05
2.98794e-05
2.95256e-05
2.91837e-05
2.88929e-05
2.8707e-05
2.86984e-05
2.88767e-05
2.91694e-05
2.95102e-05
2.98628e-05
3.02052e-05
3.05208e-05
3.07975e-05
3.10286e-05
3.12133e-05
3.13582e-05
3.1472e-05
3.15615e-05
3.16415e-05
3.18312e-05
3.10939e-05
3.09187e-05
3.08475e-05
3.0779e-05
3.06846e-05
3.05567e-05
3.03952e-05
3.02013e-05
2.99758e-05
2.97203e-05
2.94413e-05
2.91514e-05
2.88702e-05
2.86235e-05
2.84554e-05
2.84373e-05
2.85814e-05
2.88273e-05
2.91192e-05
2.94231e-05
2.97158e-05
2.99799e-05
3.02052e-05
3.03893e-05
3.05377e-05
3.06595e-05
3.07626e-05
3.08485e-05
3.09221e-05
3.10692e-05
3.0424e-05
3.02582e-05
3.02389e-05
3.01877e-05
3.01047e-05
2.99963e-05
2.98666e-05
2.9711e-05
2.95273e-05
2.93199e-05
2.90957e-05
2.88626e-05
2.86297e-05
2.84145e-05
2.82598e-05
2.82373e-05
2.83542e-05
2.85581e-05
2.8806e-05
2.90649e-05
2.93108e-05
2.95293e-05
2.97141e-05
2.98659e-05
2.99921e-05
3.01004e-05
3.01945e-05
3.02719e-05
3.03322e-05
3.04358e-05
2.98348e-05
2.97864e-05
2.97753e-05
2.97249e-05
2.96484e-05
2.95596e-05
2.94556e-05
2.93288e-05
2.91788e-05
2.90098e-05
2.88276e-05
2.8635e-05
2.84359e-05
2.82472e-05
2.81089e-05
2.80887e-05
2.81921e-05
2.8366e-05
2.85762e-05
2.87944e-05
2.89999e-05
2.91816e-05
2.93359e-05
2.94648e-05
2.95734e-05