/*--------------------------------*- C++ -*----------------------------------*\
| =========                 |                                                 |
| \\      /  F ield         | OpenFOAM: The Open Source CFD Toolbox           |
|  \\    /   O peration     | Version:  2312                                  |
|   \\  /    A nd           | Website:  www.openfoam.com                      |
|    \\/     M anipulation  |                                                 |
\*---------------------------------------------------------------------------*/
FoamFile
{
    version     2.0;
    format      ascii;
    arch        "LSB;label=32;scalar=64";
    class       volScalarField;
    location    "0.692487";
    object      nut;
}
// * * * * * * * * * * * * * * * * * * * * * * * * * * * * * * * * * * * * * //

dimensions      [0 2 -1 0 0 0 0];

internalField   nonuniform List<scalar> 
90000
(
5.79411e-06
5.79427e-06
5.79435e-06
5.79439e-06
5.79442e-06
5.79442e-06
5.79441e-06
5.79439e-06
5.79436e-06
5.79434e-06
5.79433e-06
5.79433e-06
5.79434e-06
5.79435e-06
5.79435e-06
5.79438e-06
5.79442e-06
5.79446e-06
5.79449e-06
5.79448e-06
5.79443e-06
5.79435e-06
5.79433e-06
5.79442e-06
5.79453e-06
5.79459e-06
5.7946e-06
5.79457e-06
5.7946e-06
5.79475e-06
5.79423e-06
5.79973e-06
5.80002e-06
5.80002e-06
5.80001e-06
5.80001e-06
5.80001e-06
5.80002e-06
5.80003e-06
5.80004e-06
5.80004e-06
5.80005e-06
5.80006e-06
5.80007e-06
5.80008e-06
5.80009e-06
5.80009e-06
5.80008e-06
5.80007e-06
5.80005e-06
5.80006e-06
5.80007e-06
5.80008e-06
5.80008e-06
5.80003e-06
5.79997e-06
5.80001e-06
5.80016e-06
5.79993e-06
5.79587e-06
5.79435e-06
5.80012e-06
5.80042e-06
5.80041e-06
5.80039e-06
5.80037e-06
5.80036e-06
5.80036e-06
5.80038e-06
5.80039e-06
5.80039e-06
5.80038e-06
5.80038e-06
5.80039e-06
5.8004e-06
5.80039e-06
5.80036e-06
5.80036e-06
5.80039e-06
5.80043e-06
5.80047e-06
5.80049e-06
5.8005e-06
5.80051e-06
5.80054e-06
5.80056e-06
5.80058e-06
5.80057e-06
5.80019e-06
5.79523e-06
5.79443e-06
5.80017e-06
5.8005e-06
5.80052e-06
5.80051e-06
5.80049e-06
5.80047e-06
5.80044e-06
5.80043e-06
5.80042e-06
5.80041e-06
5.80039e-06
5.80038e-06
5.80037e-06
5.80036e-06
5.80035e-06
5.80036e-06
5.80041e-06
5.80045e-06
5.80049e-06
5.8005e-06
5.80051e-06
5.80055e-06
5.80062e-06
5.8007e-06
5.80073e-06
5.80071e-06
5.80069e-06
5.80037e-06
5.79462e-06
5.79448e-06
5.8002e-06
5.80057e-06
5.8006e-06
5.8006e-06
5.80058e-06
5.80055e-06
5.80052e-06
5.80048e-06
5.80045e-06
5.80041e-06
5.80038e-06
5.80036e-06
5.80033e-06
5.80031e-06
5.80034e-06
5.80038e-06
5.80043e-06
5.80046e-06
5.80048e-06
5.80048e-06
5.8005e-06
5.80057e-06
5.80064e-06
5.80069e-06
5.80069e-06
5.80063e-06
5.80049e-06
5.80037e-06
5.79447e-06
5.79451e-06
5.80027e-06
5.80062e-06
5.80064e-06
5.80064e-06
5.80063e-06
5.80061e-06
5.80057e-06
5.80053e-06
5.80047e-06
5.80041e-06
5.80037e-06
5.80036e-06
5.80035e-06
5.80035e-06
5.80037e-06
5.80039e-06
5.80042e-06
5.80044e-06
5.80045e-06
5.80047e-06
5.80052e-06
5.80056e-06
5.80058e-06
5.80058e-06
5.80059e-06
5.80065e-06
5.80065e-06
5.80052e-06
5.7946e-06
5.79453e-06
5.80035e-06
5.80065e-06
5.80065e-06
5.80065e-06
5.80065e-06
5.80064e-06
5.80062e-06
5.80057e-06
5.8005e-06
5.80043e-06
5.80038e-06
5.80037e-06
5.80039e-06
5.80039e-06
5.80039e-06
5.80038e-06
5.80038e-06
5.80041e-06
5.80045e-06
5.8005e-06
5.80053e-06
5.80053e-06
5.80051e-06
5.80055e-06
5.80066e-06
5.80081e-06
5.80087e-06
5.80063e-06
5.79471e-06
5.79456e-06
5.8004e-06
5.80066e-06
5.80065e-06
5.80064e-06
5.80065e-06
5.80067e-06
5.80066e-06
5.80063e-06
5.80057e-06
5.80049e-06
5.80043e-06
5.80041e-06
5.80042e-06
5.80043e-06
5.80042e-06
5.8004e-06
5.80038e-06
5.80042e-06
5.80048e-06
5.80052e-06
5.80053e-06
5.80051e-06
5.80055e-06
5.80066e-06
5.80079e-06
5.80091e-06
5.80096e-06
5.80066e-06
5.79477e-06
5.79459e-06
5.80043e-06
5.80069e-06
5.80066e-06
5.80065e-06
5.80066e-06
5.80068e-06
5.80069e-06
5.80068e-06
5.80064e-06
5.80058e-06
5.80052e-06
5.80046e-06
5.80044e-06
5.80045e-06
5.80047e-06
5.80049e-06
5.80051e-06
5.80054e-06
5.80056e-06
5.80056e-06
5.80055e-06
5.80056e-06
5.80063e-06
5.80074e-06
5.80086e-06
5.80095e-06
5.80098e-06
5.80065e-06
5.79482e-06
5.79466e-06
5.80045e-06
5.80071e-06
5.80069e-06
5.80066e-06
5.80065e-06
5.80067e-06
5.80069e-06
5.80071e-06
5.8007e-06
5.80067e-06
5.80062e-06
5.80054e-06
5.80047e-06
5.80045e-06
5.80052e-06
5.8006e-06
5.80066e-06
5.80068e-06
5.80068e-06
5.80065e-06
5.80062e-06
5.80062e-06
5.80067e-06
5.80076e-06
5.80086e-06
5.80093e-06
5.80095e-06
5.80062e-06
5.79484e-06
5.79476e-06
5.80046e-06
5.80074e-06
5.80072e-06
5.80068e-06
5.80065e-06
5.80064e-06
5.80066e-06
5.80069e-06
5.80072e-06
5.80072e-06
5.80069e-06
5.80062e-06
5.80052e-06
5.80045e-06
5.80052e-06
5.80063e-06
5.80072e-06
5.80077e-06
5.80078e-06
5.80075e-06
5.8007e-06
5.80067e-06
5.80069e-06
5.80076e-06
5.80084e-06
5.80091e-06
5.80093e-06
5.80061e-06
5.79485e-06
5.79486e-06
5.80051e-06
5.80081e-06
5.80081e-06
5.8008e-06
5.80077e-06
5.80073e-06
5.80071e-06
5.8007e-06
5.80071e-06
5.80072e-06
5.80071e-06
5.80066e-06
5.80058e-06
5.80049e-06
5.80049e-06
5.80059e-06
5.80069e-06
5.80076e-06
5.80077e-06
5.80075e-06
5.80072e-06
5.8007e-06
5.80072e-06
5.80076e-06
5.80083e-06
5.80089e-06
5.80092e-06
5.8006e-06
5.79487e-06
5.79493e-06
5.80063e-06
5.80094e-06
5.80096e-06
5.80098e-06
5.80099e-06
5.80097e-06
5.80093e-06
5.80085e-06
5.80076e-06
5.80072e-06
5.80071e-06
5.8007e-06
5.80066e-06
5.8006e-06
5.80056e-06
5.80059e-06
5.80062e-06
5.80065e-06
5.80067e-06
5.80069e-06
5.80071e-06
5.80073e-06
5.80076e-06
5.80079e-06
5.80084e-06
5.8009e-06
5.80093e-06
5.80062e-06
5.79494e-06
5.7951e-06
5.80076e-06
5.80109e-06
5.80113e-06
5.80117e-06
5.8012e-06
5.80119e-06
5.80112e-06
5.801e-06
5.80085e-06
5.80072e-06
5.80069e-06
5.80071e-06
5.80072e-06
5.80071e-06
5.80068e-06
5.80065e-06
5.80061e-06
5.80057e-06
5.8006e-06
5.80068e-06
5.80076e-06
5.80082e-06
5.80086e-06
5.80089e-06
5.80092e-06
5.80096e-06
5.80098e-06
5.80069e-06
5.79507e-06
5.79533e-06
5.80086e-06
5.80124e-06
5.8013e-06
5.80134e-06
5.80134e-06
5.8013e-06
5.8012e-06
5.80106e-06
5.8009e-06
5.80074e-06
5.80067e-06
5.8007e-06
5.80075e-06
5.80077e-06
5.80077e-06
5.80074e-06
5.80069e-06
5.80066e-06
5.80069e-06
5.8008e-06
5.80089e-06
5.80096e-06
5.80101e-06
5.80104e-06
5.80106e-06
5.80109e-06
5.80111e-06
5.80082e-06
5.79525e-06
5.79553e-06
5.80109e-06
5.80145e-06
5.80147e-06
5.80146e-06
5.8014e-06
5.80129e-06
5.80118e-06
5.80107e-06
5.80096e-06
5.80082e-06
5.80069e-06
5.8007e-06
5.80074e-06
5.80078e-06
5.8008e-06
5.80081e-06
5.80081e-06
5.80081e-06
5.80084e-06
5.80093e-06
5.80102e-06
5.8011e-06
5.80117e-06
5.80121e-06
5.80125e-06
5.80129e-06
5.80135e-06
5.80112e-06
5.79545e-06
5.7957e-06
5.80145e-06
5.8017e-06
5.80165e-06
5.80154e-06
5.8014e-06
5.80129e-06
5.80122e-06
5.80116e-06
5.80106e-06
5.80092e-06
5.80075e-06
5.80072e-06
5.80073e-06
5.80074e-06
5.80078e-06
5.80082e-06
5.80087e-06
5.80091e-06
5.80095e-06
5.80103e-06
5.80114e-06
5.80124e-06
5.80133e-06
5.8014e-06
5.80147e-06
5.80156e-06
5.80165e-06
5.80137e-06
5.79561e-06
5.79588e-06
5.80176e-06
5.80195e-06
5.80185e-06
5.80172e-06
5.80161e-06
5.80151e-06
5.80142e-06
5.80131e-06
5.80118e-06
5.80101e-06
5.80084e-06
5.80076e-06
5.80071e-06
5.80068e-06
5.80071e-06
5.80079e-06
5.80089e-06
5.80097e-06
5.80104e-06
5.80115e-06
5.80127e-06
5.80139e-06
5.80151e-06
5.80162e-06
5.80173e-06
5.80184e-06
5.80188e-06
5.80152e-06
5.79581e-06
5.79615e-06
5.80202e-06
5.80221e-06
5.80213e-06
5.80203e-06
5.80193e-06
5.80183e-06
5.80169e-06
5.80152e-06
5.80133e-06
5.80113e-06
5.80095e-06
5.8008e-06
5.80068e-06
5.8006e-06
5.80062e-06
5.80074e-06
5.80088e-06
5.80103e-06
5.80116e-06
5.8013e-06
5.80145e-06
5.8016e-06
5.80175e-06
5.8019e-06
5.80202e-06
5.80209e-06
5.80208e-06
5.80173e-06
5.79609e-06
5.79652e-06
5.80226e-06
5.80251e-06
5.80245e-06
5.80238e-06
5.80228e-06
5.80216e-06
5.80199e-06
5.80178e-06
5.80156e-06
5.80132e-06
5.8011e-06
5.80088e-06
5.80068e-06
5.80054e-06
5.80055e-06
5.80072e-06
5.80093e-06
5.80114e-06
5.80134e-06
5.80152e-06
5.80171e-06
5.8019e-06
5.80208e-06
5.80223e-06
5.80233e-06
5.80237e-06
5.80237e-06
5.80204e-06
5.79644e-06
5.79698e-06
5.80256e-06
5.80289e-06
5.80285e-06
5.80278e-06
5.80268e-06
5.80253e-06
5.80234e-06
5.80211e-06
5.80185e-06
5.80158e-06
5.80129e-06
5.80101e-06
5.80074e-06
5.80057e-06
5.8006e-06
5.80081e-06
5.80108e-06
5.80134e-06
5.8016e-06
5.80183e-06
5.80207e-06
5.80229e-06
5.80248e-06
5.80262e-06
5.8027e-06
5.80276e-06
5.80279e-06
5.80247e-06
5.7969e-06
5.79755e-06
5.80305e-06
5.8034e-06
5.80337e-06
5.8033e-06
5.80317e-06
5.80299e-06
5.80277e-06
5.8025e-06
5.80221e-06
5.80188e-06
5.80154e-06
5.8012e-06
5.80089e-06
5.8007e-06
5.80074e-06
5.80098e-06
5.80129e-06
5.80162e-06
5.80193e-06
5.80223e-06
5.8025e-06
5.80274e-06
5.80294e-06
5.80309e-06
5.80321e-06
5.8033e-06
5.80336e-06
5.80306e-06
5.79752e-06
5.79826e-06
5.80375e-06
5.8041e-06
5.80406e-06
5.80396e-06
5.80379e-06
5.80356e-06
5.80329e-06
5.80298e-06
5.80263e-06
5.80225e-06
5.80185e-06
5.80145e-06
5.8011e-06
5.80087e-06
5.8009e-06
5.80119e-06
5.80156e-06
5.80195e-06
5.80234e-06
5.80269e-06
5.80301e-06
5.80329e-06
5.80352e-06
5.80373e-06
5.8039e-06
5.80403e-06
5.80412e-06
5.80385e-06
5.79835e-06
5.79919e-06
5.8047e-06
5.80502e-06
5.80494e-06
5.80479e-06
5.80456e-06
5.80428e-06
5.80395e-06
5.80359e-06
5.80317e-06
5.80272e-06
5.80226e-06
5.8018e-06
5.80138e-06
5.8011e-06
5.80112e-06
5.80146e-06
5.8019e-06
5.80237e-06
5.80282e-06
5.80324e-06
5.80362e-06
5.80397e-06
5.80429e-06
5.80456e-06
5.80479e-06
5.80497e-06
5.8051e-06
5.80488e-06
5.7994e-06
5.80037e-06
5.80589e-06
5.80617e-06
5.80604e-06
5.80582e-06
5.80554e-06
5.8052e-06
5.8048e-06
5.80436e-06
5.80386e-06
5.80333e-06
5.80278e-06
5.80225e-06
5.80176e-06
5.80142e-06
5.80142e-06
5.8018e-06
5.80232e-06
5.80286e-06
5.80339e-06
5.8039e-06
5.80439e-06
5.80483e-06
5.80522e-06
5.80556e-06
5.80586e-06
5.8061e-06
5.8063e-06
5.80612e-06
5.80064e-06
5.80185e-06
5.80735e-06
5.80757e-06
5.80738e-06
5.8071e-06
5.80676e-06
5.80635e-06
5.80587e-06
5.80533e-06
5.80473e-06
5.80409e-06
5.80345e-06
5.80283e-06
5.80225e-06
5.80182e-06
5.80181e-06
5.80223e-06
5.80282e-06
5.80346e-06
5.80412e-06
5.80475e-06
5.80534e-06
5.80587e-06
5.80634e-06
5.80676e-06
5.80713e-06
5.80745e-06
5.80771e-06
5.80756e-06
5.80204e-06
5.80363e-06
5.80908e-06
5.80925e-06
5.80901e-06
5.80867e-06
5.80826e-06
5.80776e-06
5.80718e-06
5.80652e-06
5.8058e-06
5.80504e-06
5.80428e-06
5.80353e-06
5.80284e-06
5.80231e-06
5.80228e-06
5.80276e-06
5.80347e-06
5.80426e-06
5.80506e-06
5.80581e-06
5.80651e-06
5.80713e-06
5.8077e-06
5.80821e-06
5.80868e-06
5.80907e-06
5.80934e-06
5.80917e-06
5.80367e-06
5.80574e-06
5.81113e-06
5.81126e-06
5.81097e-06
5.81056e-06
5.81006e-06
5.80946e-06
5.80876e-06
5.80796e-06
5.80711e-06
5.80622e-06
5.80531e-06
5.80441e-06
5.80356e-06
5.80293e-06
5.80289e-06
5.80348e-06
5.80434e-06
5.8053e-06
5.80625e-06
5.80714e-06
5.80796e-06
5.80871e-06
5.8094e-06
5.81001e-06
5.81055e-06
5.81098e-06
5.81124e-06
5.81105e-06
5.80564e-06
5.80823e-06
5.81353e-06
5.81363e-06
5.81328e-06
5.81281e-06
5.81221e-06
5.81149e-06
5.81065e-06
5.80972e-06
5.80872e-06
5.80767e-06
5.80659e-06
5.8055e-06
5.80449e-06
5.80376e-06
5.80374e-06
5.80445e-06
5.80549e-06
5.80662e-06
5.80774e-06
5.8088e-06
5.80978e-06
5.81068e-06
5.8115e-06
5.81221e-06
5.81281e-06
5.81325e-06
5.8135e-06
5.81335e-06
5.80804e-06
5.81116e-06
5.81637e-06
5.81643e-06
5.81603e-06
5.81547e-06
5.81477e-06
5.81392e-06
5.81295e-06
5.81187e-06
5.81072e-06
5.8095e-06
5.80821e-06
5.80691e-06
5.80572e-06
5.8049e-06
5.8049e-06
5.80573e-06
5.80694e-06
5.80826e-06
5.80958e-06
5.81084e-06
5.81201e-06
5.81308e-06
5.81406e-06
5.81487e-06
5.81551e-06
5.81597e-06
5.81628e-06
5.81619e-06
5.81096e-06
5.81464e-06
5.81975e-06
5.81977e-06
5.8193e-06
5.81866e-06
5.81785e-06
5.81688e-06
5.81577e-06
5.81454e-06
5.81321e-06
5.81177e-06
5.81025e-06
5.80873e-06
5.80735e-06
5.80642e-06
5.80644e-06
5.80739e-06
5.80878e-06
5.81031e-06
5.81186e-06
5.81335e-06
5.81474e-06
5.816e-06
5.81713e-06
5.81805e-06
5.81875e-06
5.81931e-06
5.81973e-06
5.81968e-06
5.81452e-06
5.81879e-06
5.82381e-06
5.82378e-06
5.82325e-06
5.82253e-06
5.82161e-06
5.82051e-06
5.81925e-06
5.81784e-06
5.81629e-06
5.8146e-06
5.81282e-06
5.81104e-06
5.80946e-06
5.80841e-06
5.80843e-06
5.8095e-06
5.81109e-06
5.81287e-06
5.81466e-06
5.81641e-06
5.81804e-06
5.8195e-06
5.8208e-06
5.82185e-06
5.82268e-06
5.8234e-06
5.82394e-06
5.82395e-06
5.81889e-06
5.82374e-06
5.8287e-06
5.82863e-06
5.82804e-06
5.82723e-06
5.82619e-06
5.82494e-06
5.8235e-06
5.82188e-06
5.82007e-06
5.81808e-06
5.816e-06
5.81394e-06
5.81214e-06
5.81094e-06
5.81095e-06
5.81216e-06
5.81395e-06
5.816e-06
5.81806e-06
5.82008e-06
5.82197e-06
5.82364e-06
5.82512e-06
5.82634e-06
5.82737e-06
5.82827e-06
5.82893e-06
5.82904e-06
5.82409e-06
5.82965e-06
5.83456e-06
5.83445e-06
5.83379e-06
5.83287e-06
5.8317e-06
5.83028e-06
5.82862e-06
5.82674e-06
5.82463e-06
5.82232e-06
5.81991e-06
5.81755e-06
5.81549e-06
5.81413e-06
5.81412e-06
5.81547e-06
5.81749e-06
5.81981e-06
5.82217e-06
5.82447e-06
5.82663e-06
5.82852e-06
5.8302e-06
5.83166e-06
5.83291e-06
5.83395e-06
5.83473e-06
5.83493e-06
5.83006e-06
5.83668e-06
5.84151e-06
5.84134e-06
5.8406e-06
5.83957e-06
5.83824e-06
5.83663e-06
5.83474e-06
5.83258e-06
5.83015e-06
5.82751e-06
5.82476e-06
5.82209e-06
5.81977e-06
5.81823e-06
5.81822e-06
5.81973e-06
5.822e-06
5.82463e-06
5.82731e-06
5.82991e-06
5.83234e-06
5.83445e-06
5.83635e-06
5.83806e-06
5.83948e-06
5.84062e-06
5.84146e-06
5.84169e-06
5.83691e-06
5.84493e-06
5.84965e-06
5.84942e-06
5.8486e-06
5.84746e-06
5.84599e-06
5.84421e-06
5.84209e-06
5.83966e-06
5.83693e-06
5.83397e-06
5.83091e-06
5.82794e-06
5.82537e-06
5.8237e-06
5.82371e-06
5.8254e-06
5.82794e-06
5.8309e-06
5.83392e-06
5.83681e-06
5.83947e-06
5.84182e-06
5.84396e-06
5.84584e-06
5.84735e-06
5.84853e-06
5.84936e-06
5.84958e-06
5.84495e-06
5.85458e-06
5.85913e-06
5.85886e-06
5.85798e-06
5.85677e-06
5.85522e-06
5.85331e-06
5.85101e-06
5.84836e-06
5.84538e-06
5.84216e-06
5.83883e-06
5.8356e-06
5.83282e-06
5.83101e-06
5.83106e-06
5.83294e-06
5.83573e-06
5.839e-06
5.84233e-06
5.84548e-06
5.84837e-06
5.85095e-06
5.85327e-06
5.85523e-06
5.85678e-06
5.85796e-06
5.85878e-06
5.859e-06
5.85458e-06
5.86589e-06
5.8702e-06
5.86991e-06
5.86903e-06
5.8678e-06
5.86622e-06
5.86425e-06
5.86185e-06
5.85906e-06
5.85593e-06
5.85252e-06
5.84898e-06
5.84552e-06
5.84251e-06
5.84053e-06
5.84056e-06
5.84261e-06
5.84565e-06
5.84919e-06
5.85275e-06
5.85611e-06
5.8592e-06
5.86196e-06
5.86435e-06
5.86632e-06
5.86788e-06
5.86907e-06
5.86991e-06
5.87019e-06
5.86606e-06
5.87893e-06
5.88302e-06
5.88276e-06
5.88194e-06
5.88077e-06
5.87924e-06
5.8773e-06
5.87494e-06
5.87215e-06
5.86898e-06
5.86546e-06
5.86173e-06
5.85805e-06
5.85479e-06
5.85261e-06
5.85261e-06
5.85481e-06
5.85804e-06
5.86178e-06
5.86545e-06
5.86895e-06
5.87215e-06
5.87496e-06
5.87731e-06
5.87921e-06
5.88071e-06
5.88187e-06
5.88271e-06
5.88303e-06
5.87912e-06
5.89386e-06
5.89773e-06
5.89757e-06
5.89689e-06
5.89591e-06
5.89457e-06
5.89285e-06
5.8907e-06
5.88808e-06
5.885e-06
5.88145e-06
5.87762e-06
5.8738e-06
5.87039e-06
5.86806e-06
5.86801e-06
5.87033e-06
5.8737e-06
5.87755e-06
5.88125e-06
5.88481e-06
5.88794e-06
5.89061e-06
5.89274e-06
5.89442e-06
5.89572e-06
5.8967e-06
5.89743e-06
5.89767e-06
5.89383e-06
5.9108e-06
5.91454e-06
5.91457e-06
5.91421e-06
5.9136e-06
5.9127e-06
5.91144e-06
5.90971e-06
5.90745e-06
5.90467e-06
5.90133e-06
5.89765e-06
5.89388e-06
5.89042e-06
5.88802e-06
5.88797e-06
5.89039e-06
5.89385e-06
5.89772e-06
5.90129e-06
5.90467e-06
5.90744e-06
5.90969e-06
5.91142e-06
5.91266e-06
5.91353e-06
5.91414e-06
5.91448e-06
5.91448e-06
5.91065e-06
5.92998e-06
5.93378e-06
5.93415e-06
5.93428e-06
5.93431e-06
5.93412e-06
5.93359e-06
5.93257e-06
5.93101e-06
5.92888e-06
5.92614e-06
5.92289e-06
5.91938e-06
5.91604e-06
5.9137e-06
5.9137e-06
5.91614e-06
5.91947e-06
5.92304e-06
5.92624e-06
5.92904e-06
5.93114e-06
5.93265e-06
5.93365e-06
5.93413e-06
5.9343e-06
5.93428e-06
5.93413e-06
5.93372e-06
5.92989e-06
5.95168e-06
5.95565e-06
5.95668e-06
5.95762e-06
5.95851e-06
5.9593e-06
5.95987e-06
5.96006e-06
5.95966e-06
5.95865e-06
5.95692e-06
5.95448e-06
5.95157e-06
5.9486e-06
5.9464e-06
5.94642e-06
5.94862e-06
5.9516e-06
5.95456e-06
5.95703e-06
5.95878e-06
5.95974e-06
5.96011e-06
5.95993e-06
5.95929e-06
5.95846e-06
5.95758e-06
5.95666e-06
5.95555e-06
5.95158e-06
5.97787e-06
5.9811e-06
5.98305e-06
5.98498e-06
5.98705e-06
5.98921e-06
5.99135e-06
5.99331e-06
5.99465e-06
5.99543e-06
5.99531e-06
5.99429e-06
5.99249e-06
5.9903e-06
5.98857e-06
5.98868e-06
5.99038e-06
5.99256e-06
5.99435e-06
5.99546e-06
5.99553e-06
5.9947e-06
5.99339e-06
5.99146e-06
5.98925e-06
5.98709e-06
5.98503e-06
5.98308e-06
5.98097e-06
5.97771e-06
6.01191e-06
6.01338e-06
6.01568e-06
6.01789e-06
6.02137e-06
6.02531e-06
6.02955e-06
6.03389e-06
6.03791e-06
6.04168e-06
6.04476e-06
6.04711e-06
6.04913e-06
6.05089e-06
6.05255e-06
6.05271e-06
6.05096e-06
6.0492e-06
6.04719e-06
6.0449e-06
6.04178e-06
6.03805e-06
6.03402e-06
6.02958e-06
6.02527e-06
6.02141e-06
6.01803e-06
6.01575e-06
6.01327e-06
6.01179e-06
6.05325e-06
6.05436e-06
6.05719e-06
6.05984e-06
6.06379e-06
6.06989e-06
6.07751e-06
6.08616e-06
6.09619e-06
6.10874e-06
6.12622e-06
6.1506e-06
6.18384e-06
6.22396e-06
6.26243e-06
6.26268e-06
6.22401e-06
6.18377e-06
6.15064e-06
6.12636e-06
6.10884e-06
6.0963e-06
6.08623e-06
6.07749e-06
6.06993e-06
6.06384e-06
6.05996e-06
6.05717e-06
6.05432e-06
6.05331e-06
6.10477e-06
6.10696e-06
6.11163e-06
6.11585e-06
6.12227e-06
6.13299e-06
6.14984e-06
6.17545e-06
6.21892e-06
6.29438e-06
6.43678e-06
6.66752e-06
6.97744e-06
7.34053e-06
7.67419e-06
7.67483e-06
7.34066e-06
6.97813e-06
6.66885e-06
6.43794e-06
6.29504e-06
6.21932e-06
6.17568e-06
6.14986e-06
6.13312e-06
6.12231e-06
6.11588e-06
6.11149e-06
6.10693e-06
6.10477e-06
6.17114e-06
6.17659e-06
6.18806e-06
6.20213e-06
6.2229e-06
6.25813e-06
6.33807e-06
6.48294e-06
6.78915e-06
7.34129e-06
8.35415e-06
9.825e-06
1.14967e-05
1.30841e-05
1.43008e-05
1.43027e-05
1.30861e-05
1.15026e-05
9.83381e-06
8.36203e-06
7.34633e-06
6.79208e-06
6.4845e-06
6.33858e-06
6.2582e-06
6.22287e-06
6.20196e-06
6.18792e-06
6.17652e-06
6.1707e-06
6.28738e-06
6.30599e-06
6.3548e-06
6.42657e-06
6.54511e-06
6.7458e-06
7.20012e-06
8.1563e-06
9.92623e-06
1.26733e-05
1.62354e-05
2.00988e-05
2.34886e-05
2.60993e-05
2.77318e-05
2.77355e-05
2.61056e-05
2.35026e-05
2.01206e-05
1.62584e-05
1.26937e-05
9.94084e-06
8.16472e-06
7.2044e-06
6.74755e-06
6.54535e-06
6.42613e-06
6.35415e-06
6.30465e-06
6.28547e-06
6.54384e-06
6.77218e-06
7.07895e-06
7.53807e-06
8.32185e-06
9.61158e-06
1.23264e-05
1.6814e-05
2.23098e-05
2.78139e-05
3.22161e-05
3.5984e-05
3.89646e-05
4.11583e-05
4.24945e-05
4.24994e-05
4.11676e-05
3.89822e-05
3.60076e-05
3.22418e-05
2.78443e-05
2.23411e-05
1.68397e-05
1.23451e-05
9.62439e-06
8.32845e-06
7.53994e-06
7.07823e-06
6.76847e-06
6.53853e-06
9.54883e-06
1.20132e-05
1.48956e-05
1.85998e-05
2.28132e-05
2.72576e-05
3.13839e-05
3.48253e-05
3.82148e-05
4.12511e-05
4.3999e-05
4.63028e-05
4.8086e-05
4.93872e-05
5.02441e-05
5.02512e-05
4.93995e-05
4.81087e-05
4.6333e-05
4.40378e-05
4.12931e-05
3.82566e-05
3.48675e-05
3.14237e-05
2.72946e-05
2.28453e-05
1.86266e-05
1.49154e-05
1.20227e-05
9.54989e-06
9.95964e-06
1.1815e-05
1.44272e-05
1.74693e-05
2.10038e-05
2.52475e-05
2.98528e-05
3.36899e-05
3.88141e-05
4.23837e-05
4.50848e-05
4.72664e-05
4.93907e-05
5.10868e-05
5.21376e-05
5.21445e-05
5.11158e-05
4.94389e-05
4.73062e-05
4.51466e-05
4.24361e-05
3.88464e-05
3.37532e-05
2.99128e-05
2.52783e-05
2.10333e-05
1.74924e-05
1.44466e-05
1.1827e-05
9.95173e-06
1.22501e-05
1.37012e-05
1.66326e-05
2.0103e-05
2.39374e-05
2.77956e-05
3.10435e-05
3.45532e-05
3.73115e-05
4.08012e-05
4.30515e-05
4.57748e-05
4.89667e-05
5.13891e-05
5.26722e-05
5.26652e-05
5.13807e-05
4.89954e-05
4.58412e-05
4.31339e-05
4.08574e-05
3.74058e-05
3.46273e-05
3.11014e-05
2.78133e-05
2.39867e-05
2.01358e-05
1.66484e-05
1.37217e-05
1.22432e-05
1.42585e-05
1.55781e-05
1.83693e-05
2.18849e-05
2.56271e-05
2.8964e-05
3.16479e-05
3.38672e-05
3.58982e-05
3.84249e-05
4.15211e-05
4.45745e-05
4.68408e-05
4.82568e-05
4.93913e-05
4.93933e-05
4.82531e-05
4.68498e-05
4.46497e-05
4.15158e-05
3.84334e-05
3.6078e-05
3.39461e-05
3.16374e-05
2.89625e-05
2.56696e-05
2.1952e-05
1.83757e-05
1.56012e-05
1.42638e-05
1.49474e-05
1.61199e-05
1.7987e-05
2.06436e-05
2.38633e-05
2.71367e-05
3.00463e-05
3.24981e-05
3.43389e-05
3.60931e-05
3.8036e-05
4.0193e-05
4.21841e-05
4.3639e-05
4.46153e-05
4.46442e-05
4.36836e-05
4.22341e-05
4.02866e-05
3.80731e-05
3.61085e-05
3.44203e-05
3.25596e-05
3.01239e-05
2.7264e-05
2.40102e-05
2.0784e-05
1.80518e-05
1.61563e-05
1.5018e-05
1.47036e-05
1.57516e-05
1.66725e-05
1.80454e-05
1.98408e-05
2.21432e-05
2.49724e-05
2.82669e-05
3.11045e-05
3.39016e-05
3.64282e-05
3.83694e-05
3.98906e-05
4.07203e-05
4.11351e-05
4.11322e-05
4.07274e-05
3.99005e-05
3.84269e-05
3.64943e-05
3.3934e-05
3.11695e-05
2.83538e-05
2.51034e-05
2.22562e-05
1.98774e-05
1.80732e-05
1.67019e-05
1.57479e-05
1.46868e-05
1.3787e-05
1.4753e-05
1.51364e-05
1.57084e-05
1.64988e-05
1.75132e-05
1.88884e-05
2.08532e-05
2.38733e-05
2.76928e-05
3.1908e-05
3.6082e-05
3.88095e-05
4.0121e-05
4.07458e-05
4.07418e-05
4.01251e-05
3.88255e-05
3.61272e-05
3.19945e-05
2.77654e-05
2.39551e-05
2.09086e-05
1.89237e-05
1.75551e-05
1.65384e-05
1.57488e-05
1.51718e-05
1.4757e-05
1.38219e-05
1.29155e-05
1.36287e-05
1.37204e-05
1.39151e-05
1.42568e-05
1.46566e-05
1.51801e-05
1.61804e-05
1.77252e-05
2.01912e-05
2.42432e-05
2.92007e-05
3.42516e-05
3.73382e-05
3.90437e-05
3.90449e-05
3.73318e-05
3.42757e-05
2.92576e-05
2.4292e-05
2.02093e-05
1.77447e-05
1.61997e-05
1.52098e-05
1.46923e-05
1.42785e-05
1.39506e-05
1.37485e-05
1.3643e-05
1.29261e-05
1.22645e-05
1.26119e-05
1.26382e-05
1.27247e-05
1.28507e-05
1.29825e-05
1.32415e-05
1.3616e-05
1.4174e-05
1.51678e-05
1.71269e-05
2.07311e-05
2.50531e-05
2.9783e-05
3.33065e-05
3.33054e-05
2.97572e-05
2.50514e-05
2.07588e-05
1.71592e-05
1.5183e-05
1.41816e-05
1.36214e-05
1.32597e-05
1.30075e-05
1.28596e-05
1.27344e-05
1.26634e-05
1.26566e-05
1.22738e-05
1.17649e-05
1.18511e-05
1.18789e-05
1.19248e-05
1.19847e-05
1.20962e-05
1.22375e-05
1.2398e-05
1.26053e-05
1.29234e-05
1.3523e-05
1.47846e-05
1.70106e-05
1.98098e-05
2.24555e-05
2.24583e-05
1.97952e-05
1.69983e-05
1.47796e-05
1.35238e-05
1.29254e-05
1.26057e-05
1.23916e-05
1.2227e-05
1.20931e-05
1.19865e-05
1.19142e-05
1.1864e-05
1.18644e-05
1.17487e-05
1.12153e-05
1.11844e-05
1.11881e-05
1.12466e-05
1.13315e-05
1.14336e-05
1.15365e-05
1.16393e-05
1.17543e-05
1.18841e-05
1.20538e-05
1.23384e-05
1.28665e-05
1.37638e-05
1.48272e-05
1.48246e-05
1.37566e-05
1.28647e-05
1.23381e-05
1.2057e-05
1.18912e-05
1.17615e-05
1.16416e-05
1.15348e-05
1.14408e-05
1.13609e-05
1.12852e-05
1.12219e-05
1.11938e-05
1.12614e-05
1.08125e-05
1.06582e-05
1.06791e-05
1.07392e-05
1.08209e-05
1.09007e-05
1.09772e-05
1.10524e-05
1.1128e-05
1.11976e-05
1.12572e-05
1.13166e-05
1.14052e-05
1.15582e-05
1.17587e-05
1.17629e-05
1.15714e-05
1.14246e-05
1.13325e-05
1.12662e-05
1.12028e-05
1.11327e-05
1.10587e-05
1.09835e-05
1.09052e-05
1.08262e-05
1.07497e-05
1.06858e-05
1.06628e-05
1.08008e-05
1.03848e-05
1.01856e-05
1.02146e-05
1.02719e-05
1.03317e-05
1.03897e-05
1.04452e-05
1.05006e-05
1.0546e-05
1.05796e-05
1.0601e-05
1.06104e-05
1.06117e-05
1.06163e-05
1.0628e-05
1.0629e-05
1.06184e-05
1.06107e-05
1.06033e-05
1.0589e-05
1.05661e-05
1.05354e-05
1.04943e-05
1.04397e-05
1.03836e-05
1.03222e-05
1.02635e-05
1.02163e-05
1.02121e-05
1.03691e-05
9.91307e-06
9.772e-06
9.77331e-06
9.81272e-06
9.85009e-06
9.88928e-06
9.92597e-06
9.95294e-06
9.97104e-06
9.97934e-06
9.97322e-06
9.954e-06
9.92481e-06
9.89543e-06
9.87378e-06
9.87186e-06
9.89052e-06
9.91714e-06
9.94634e-06
9.97115e-06
9.98407e-06
9.98097e-06
9.96475e-06
9.93808e-06
9.90262e-06
9.86285e-06
9.82053e-06
9.78653e-06
9.79214e-06
9.96098e-06
9.54055e-06
9.39366e-06
9.37867e-06
9.39518e-06
9.42027e-06
9.44357e-06
9.4561e-06
9.45959e-06
9.45304e-06
9.43335e-06
9.40291e-06
9.3644e-06
9.32022e-06
9.27796e-06
9.24755e-06
9.2477e-06
9.28036e-06
9.32789e-06
9.37996e-06
9.4273e-06
9.4616e-06
9.48068e-06
9.48226e-06
9.4703e-06
9.44963e-06
9.42442e-06
9.39994e-06
9.38102e-06
9.39422e-06
9.55885e-06
9.18565e-06
9.00369e-06
8.99394e-06
9.00779e-06
9.02513e-06
9.03126e-06
9.02713e-06
9.01485e-06
8.99011e-06
8.9516e-06
8.90257e-06
8.84777e-06
8.7895e-06
8.73538e-06
8.6983e-06
8.69849e-06
8.73745e-06
8.79548e-06
8.85885e-06
8.91783e-06
8.96554e-06
8.99835e-06
9.01696e-06
9.02064e-06
9.01436e-06
9.00535e-06
8.99636e-06
8.99318e-06
9.01568e-06
9.17029e-06
8.78173e-06
8.63191e-06
8.6222e-06
8.62893e-06
8.62945e-06
8.6243e-06
8.61459e-06
8.59463e-06
8.55773e-06
8.50383e-06
8.44144e-06
8.37385e-06
8.30298e-06
8.2372e-06
8.19395e-06
8.19407e-06
8.23612e-06
8.29883e-06
8.36825e-06
8.43724e-06
8.49889e-06
8.54774e-06
8.5823e-06
8.60331e-06
8.6138e-06
8.62049e-06
8.6263e-06
8.63256e-06
8.65785e-06
8.8034e-06
8.43354e-06
8.30495e-06
8.28367e-06
8.27549e-06
8.26602e-06
8.25328e-06
8.23391e-06
8.2015e-06
8.15315e-06
8.09308e-06
8.02455e-06
7.94705e-06
7.86488e-06
7.7925e-06
7.74755e-06
7.74817e-06
7.79131e-06
7.85772e-06
7.93535e-06
8.01607e-06
8.09127e-06
8.15393e-06
8.20158e-06
8.23571e-06
8.26027e-06
8.27782e-06
8.29006e-06
8.29851e-06
8.32081e-06
8.45965e-06
8.12709e-06
8.01054e-06
7.9813e-06
7.96661e-06
7.94959e-06
7.92834e-06
7.89984e-06
7.8597e-06
7.80678e-06
7.74186e-06
7.66424e-06
7.57683e-06
7.491e-06
7.42134e-06
7.37967e-06
7.3805e-06
7.42347e-06
7.49271e-06
7.57641e-06
7.66416e-06
7.74573e-06
7.81449e-06
7.86831e-06
7.90937e-06
7.94062e-06
7.96334e-06
7.97709e-06
7.98482e-06
8.00454e-06
8.13548e-06
7.85003e-06
7.73103e-06
7.70231e-06
7.68622e-06
7.66633e-06
7.64274e-06
7.60993e-06
7.56565e-06
7.50815e-06
7.43601e-06
7.35105e-06
7.26158e-06
7.17894e-06
7.11195e-06
7.07054e-06
7.07002e-06
7.11314e-06
7.18481e-06
7.27083e-06
7.35945e-06
7.44095e-06
7.51039e-06
7.56697e-06
7.61188e-06
7.64666e-06
7.67158e-06
7.68716e-06
7.69695e-06
7.71724e-06
7.83653e-06
7.57965e-06
7.46138e-06
7.44041e-06
7.4273e-06
7.41102e-06
7.38766e-06
7.35265e-06
7.30571e-06
7.2444e-06
7.16869e-06
7.08425e-06
6.99849e-06
6.91867e-06
6.8519e-06
6.80972e-06
6.80918e-06
6.85262e-06
6.92404e-06
7.0081e-06
7.09301e-06
7.17107e-06
7.23976e-06
7.29814e-06
7.34581e-06
7.38262e-06
7.40919e-06
7.42703e-06
7.43959e-06
7.46029e-06
7.56634e-06
7.31263e-06
7.22242e-06
7.20592e-06
7.19751e-06
7.18437e-06
7.15866e-06
7.12175e-06
7.07285e-06
7.01115e-06
6.9387e-06
6.86054e-06
6.78021e-06
6.7026e-06
6.63641e-06
6.59501e-06
6.59496e-06
6.63672e-06
6.70411e-06
6.78271e-06
6.86235e-06
6.93703e-06
7.00474e-06
7.06367e-06
7.11255e-06
7.15039e-06
7.17822e-06
7.19793e-06
7.21244e-06
7.23317e-06
7.32611e-06
7.09556e-06
7.02152e-06
7.00878e-06
6.99945e-06
6.98061e-06
6.95114e-06
6.91362e-06
6.86575e-06
6.80823e-06
6.7429e-06
6.67112e-06
6.59479e-06
6.51974e-06
6.45657e-06
6.41814e-06
6.41911e-06
6.45823e-06
6.52014e-06
6.5926e-06
6.66717e-06
6.73888e-06
6.80491e-06
6.86292e-06
6.91124e-06
6.94916e-06
6.97775e-06
6.99892e-06
7.01498e-06
7.03494e-06
7.11444e-06
6.91225e-06
6.84824e-06
6.83704e-06
6.82306e-06
6.80033e-06
6.7721e-06
6.73607e-06
6.69091e-06
6.63821e-06
6.57828e-06
6.511e-06
6.43955e-06
6.37087e-06
6.3146e-06
6.28095e-06
6.28261e-06
6.31784e-06
6.37311e-06
6.43881e-06
6.50784e-06
6.57563e-06
6.63859e-06
6.69408e-06
6.74023e-06
6.777e-06
6.80548e-06
6.8271e-06
6.84336e-06
6.86114e-06
6.92696e-06
6.74485e-06
6.70347e-06
6.68641e-06
6.66992e-06
6.6493e-06
6.62308e-06
6.58776e-06
6.54519e-06
6.49661e-06
6.44106e-06
6.37936e-06
6.31566e-06
6.25551e-06
6.20582e-06
6.17528e-06
6.17581e-06
6.20663e-06
6.25627e-06
6.31616e-06
6.37974e-06
6.44231e-06
6.5001e-06
6.55081e-06
6.59341e-06
6.62797e-06
6.65523e-06
6.67592e-06
6.69087e-06
6.70578e-06
6.7596e-06
6.61453e-06
6.57673e-06
6.55728e-06
6.54142e-06
6.52217e-06
6.49504e-06
6.46066e-06
6.42169e-06
6.37772e-06
6.328e-06
6.27417e-06
6.21912e-06
6.16627e-06
6.12086e-06
6.09197e-06
6.09157e-06
6.11951e-06
6.16515e-06
6.21956e-06
6.27643e-06
6.3315e-06
6.38214e-06
6.42677e-06
6.46499e-06
6.49668e-06
6.52186e-06
6.54071e-06
6.55393e-06
6.56652e-06
6.61101e-06
6.49757e-06
6.45233e-06
6.43942e-06
6.42553e-06
6.40644e-06
6.38076e-06
6.35094e-06
6.31748e-06
6.27941e-06
6.23682e-06
6.19077e-06
6.14278e-06
6.09563e-06
6.05442e-06
6.02812e-06
6.02784e-06
6.05336e-06
6.09421e-06
6.14192e-06
6.19103e-06
6.23806e-06
6.28145e-06
6.3204e-06
6.35426e-06
6.38252e-06
6.40484e-06
6.42137e-06
6.43298e-06
6.4439e-06
6.48068e-06
6.37378e-06
6.33996e-06
6.33108e-06
6.3192e-06
6.3028e-06
6.2826e-06
6.25905e-06
6.23129e-06
6.19895e-06
6.16241e-06
6.12216e-06
6.07957e-06
6.03759e-06
6.00146e-06
5.97865e-06
5.97828e-06
6.00057e-06
6.03627e-06
6.07746e-06
6.11965e-06
6.16042e-06
6.19818e-06
6.23204e-06
6.2612e-06
6.28511e-06
6.30379e-06
6.31774e-06
6.32792e-06
6.33749e-06
6.36748e-06
6.27081e-06
6.24959e-06
6.23963e-06
6.22993e-06
6.21744e-06
6.20192e-06
6.18246e-06
6.15872e-06
6.13095e-06
6.09933e-06
6.06422e-06
6.02712e-06
5.99103e-06
5.96017e-06
5.94043e-06
5.93941e-06
5.95805e-06
5.98875e-06
6.02448e-06
6.06128e-06
6.09684e-06
6.12951e-06
6.15809e-06
6.18199e-06
6.2012e-06
6.21632e-06
6.22819e-06
6.23749e-06
6.24618e-06
6.27041e-06
6.19306e-06
6.1703e-06
6.16267e-06
6.15551e-06
6.14566e-06
6.13249e-06
6.11585e-06
6.09579e-06
6.07235e-06
6.04568e-06
6.01637e-06
5.98573e-06
5.95578e-06
5.92939e-06
5.91141e-06
5.90938e-06
5.92457e-06
5.95055e-06
5.98129e-06
6.01315e-06
6.04367e-06
6.07113e-06
6.09454e-06
6.11371e-06
6.12921e-06
6.14193e-06
6.15266e-06
6.16157e-06
6.16953e-06
6.18867e-06
6.12029e-06
6.09968e-06
6.09723e-06
6.09196e-06
6.08345e-06
6.07236e-06
6.05894e-06
6.04277e-06
6.02358e-06
6.00178e-06
5.97803e-06
5.95316e-06
5.92819e-06
5.90505e-06
5.88842e-06
5.8859e-06
5.8984e-06
5.92022e-06
5.94656e-06
5.97387e-06
5.99968e-06
6.02252e-06
6.04181e-06
6.05768e-06
6.07086e-06
6.08211e-06
6.09186e-06
6.09987e-06
6.1064e-06
6.12029e-06
6.05644e-06
6.04831e-06
6.04728e-06
6.04217e-06
6.03443e-06
6.02529e-06
6.0145e-06
6.00124e-06
5.98547e-06
5.96763e-06
5.94824e-06
5.92763e-06
5.90622e-06
5.88585e-06
5.87086e-06
5.86861e-06