/*--------------------------------*- C++ -*----------------------------------*\
| =========                 |                                                 |
| \\      /  F ield         | OpenFOAM: The Open Source CFD Toolbox           |
|  \\    /   O peration     | Version:  2312                                  |
|   \\  /    A nd           | Website:  www.openfoam.com                      |
|    \\/     M anipulation  |                                                 |
\*---------------------------------------------------------------------------*/
FoamFile
{
    version     2.0;
    format      ascii;
    arch        "LSB;label=32;scalar=64";
    class       volScalarField;
    location    "0.692487";
    object      p;
}
// * * * * * * * * * * * * * * * * * * * * * * * * * * * * * * * * * * * * * //

dimensions      [1 -1 -2 0 0 0 0];

internalField   nonuniform List<scalar> 
90000
(
4850.19
4850.19
4850.19
4850.19
4850.19
4850.19
4850.2
4850.2
4850.2
4850.2
4850.2
4850.2
4850.2
4850.2
4850.2
4850.21
4850.2
4850.2
4850.2
4850.2
4850.2
4850.2
4850.2
4850.2
4850.2
4850.2
4850.2
4850.2
4850.2
4850.2
4752.09
4752.09
4752.09
4752.09
4752.09
4752.1
4752.1
4752.1
4752.1
4752.1
4752.1
4752.1
4752.1
4752.1
4752.1
4752.1
4752.1
4752.1
4752.1
4752.1
4752.1
4752.1
4752.1
4752.1
4752.1
4752.1
4752.1
4752.1
4752.1
4752.1
4654
4654
4654
4654
4654
4654
4654
4654
4654
4654
4654
4654
4654
4654
4654
4654
4654
4654
4654
4654
4654
4654
4654
4654
4654
4654
4654
4654
4654
4654
4555.9
4555.9
4555.9
4555.9
4555.9
4555.9
4555.9
4555.9
4555.9
4555.9
4555.9
4555.9
4555.9
4555.9
4555.9
4555.9
4555.9
4555.9
4555.9
4555.9
4555.9
4555.9
4555.9
4555.9
4555.9
4555.9
4555.9
4555.9
4555.9
4555.9
4457.8
4457.8
4457.8
4457.8
4457.8
4457.8
4457.8
4457.8
4457.8
4457.8
4457.8
4457.8
4457.8
4457.8
4457.8
4457.8
4457.8
4457.8
4457.8
4457.8
4457.8
4457.8
4457.8
4457.8
4457.8
4457.8
4457.8
4457.8
4457.8
4457.8
4359.71
4359.71
4359.71
4359.71
4359.7
4359.7
4359.7
4359.7
4359.7
4359.7
4359.7
4359.7
4359.7
4359.7
4359.7
4359.7
4359.7
4359.7
4359.7
4359.7
4359.7
4359.7
4359.7
4359.7
4359.7
4359.71
4359.71
4359.71
4359.71
4359.71
4261.61
4261.61
4261.61
4261.61
4261.61
4261.61
4261.6
4261.6
4261.6
4261.6
4261.6
4261.6
4261.6
4261.6
4261.6
4261.6
4261.6
4261.6
4261.6
4261.6
4261.6
4261.61
4261.61
4261.61
4261.61
4261.61
4261.61
4261.61
4261.61
4261.61
4163.51
4163.51
4163.51
4163.51
4163.51
4163.51
4163.51
4163.5
4163.5
4163.5
4163.5
4163.5
4163.5
4163.5
4163.5
4163.5
4163.5
4163.5
4163.5
4163.51
4163.51
4163.51
4163.51
4163.51
4163.51
4163.51
4163.51
4163.51
4163.51
4163.51
4065.42
4065.42
4065.41
4065.41
4065.41
4065.41
4065.41
4065.41
4065.41
4065.4
4065.4
4065.4
4065.4
4065.4
4065.4
4065.4
4065.4
4065.4
4065.4
4065.41
4065.41
4065.41
4065.41
4065.41
4065.41
4065.42
4065.42
4065.42
4065.42
4065.42
3967.32
3967.32
3967.32
3967.32
3967.31
3967.31
3967.31
3967.31
3967.31
3967.31
3967.3
3967.3
3967.3
3967.3
3967.3
3967.3
3967.3
3967.3
3967.31
3967.31
3967.31
3967.31
3967.31
3967.32
3967.32
3967.32
3967.32
3967.32
3967.32
3967.32
3869.22
3869.22
3869.22
3869.22
3869.22
3869.22
3869.21
3869.21
3869.21
3869.21
3869.21
3869.21
3869.21
3869.2
3869.2
3869.2
3869.21
3869.21
3869.21
3869.21
3869.21
3869.22
3869.22
3869.22
3869.22
3869.22
3869.22
3869.22
3869.22
3869.22
3771.12
3771.12
3771.12
3771.12
3771.12
3771.12
3771.12
3771.12
3771.12
3771.11
3771.11
3771.11
3771.11
3771.11
3771.11
3771.11
3771.11
3771.11
3771.11
3771.12
3771.12
3771.12
3771.12
3771.12
3771.12
3771.13
3771.13
3771.13
3771.13
3771.13
3673.02
3673.02
3673.02
3673.02
3673.02
3673.02
3673.02
3673.02
3673.02
3673.02
3673.02
3673.02
3673.02
3673.01
3673.01
3673.01
3673.01
3673.02
3673.02
3673.02
3673.02
3673.02
3673.03
3673.03
3673.03
3673.03
3673.03
3673.03
3673.03
3673.03
3574.93
3574.93
3574.93
3574.93
3574.93
3574.93
3574.93
3574.93
3574.93
3574.93
3574.92
3574.92
3574.92
3574.92
3574.92
3574.92
3574.92
3574.92
3574.92
3574.92
3574.92
3574.93
3574.93
3574.93
3574.93
3574.93
3574.93
3574.94
3574.94
3574.94
3476.83
3476.83
3476.83
3476.83
3476.83
3476.83
3476.83
3476.83
3476.83
3476.83
3476.83
3476.83
3476.83
3476.82
3476.82
3476.82
3476.82
3476.82
3476.82
3476.82
3476.83
3476.83
3476.83
3476.83
3476.84
3476.84
3476.84
3476.84
3476.84
3476.85
3378.74
3378.74
3378.74
3378.74
3378.74
3378.74
3378.74
3378.74
3378.74
3378.74
3378.73
3378.73
3378.73
3378.73
3378.73
3378.73
3378.72
3378.72
3378.73
3378.73
3378.73
3378.73
3378.74
3378.74
3378.74
3378.75
3378.75
3378.75
3378.75
3378.75
3280.66
3280.66
3280.66
3280.66
3280.66
3280.65
3280.65
3280.65
3280.64
3280.64
3280.64
3280.63
3280.63
3280.63
3280.63
3280.63
3280.63
3280.63
3280.63
3280.63
3280.63
3280.64
3280.64
3280.64
3280.65
3280.65
3280.66
3280.66
3280.66
3280.66
3182.58
3182.58
3182.57
3182.57
3182.57
3182.56
3182.56
3182.55
3182.55
3182.54
3182.54
3182.53
3182.53
3182.53
3182.53
3182.53
3182.53
3182.53
3182.53
3182.53
3182.54
3182.54
3182.55
3182.55
3182.56
3182.56
3182.57
3182.57
3182.57
3182.57
3084.49
3084.49
3084.49
3084.49
3084.48
3084.47
3084.47
3084.46
3084.45
3084.44
3084.44
3084.43
3084.43
3084.43
3084.43
3084.43
3084.43
3084.43
3084.43
3084.44
3084.44
3084.45
3084.45
3084.46
3084.47
3084.47
3084.48
3084.48
3084.49
3084.49
2986.41
2986.41
2986.4
2986.4
2986.39
2986.38
2986.37
2986.36
2986.35
2986.35
2986.34
2986.33
2986.33
2986.33
2986.32
2986.32
2986.33
2986.33
2986.33
2986.34
2986.35
2986.35
2986.36
2986.37
2986.38
2986.39
2986.39
2986.4
2986.4
2986.4
2888.32
2888.32
2888.32
2888.31
2888.3
2888.29
2888.28
2888.27
2888.26
2888.25
2888.24
2888.23
2888.23
2888.22
2888.22
2888.22
2888.22
2888.23
2888.23
2888.24
2888.25
2888.26
2888.27
2888.28
2888.29
2888.3
2888.31
2888.31
2888.32
2888.32
2790.24
2790.24
2790.23
2790.23
2790.21
2790.2
2790.19
2790.18
2790.16
2790.15
2790.14
2790.13
2790.13
2790.12
2790.12
2790.12
2790.12
2790.13
2790.13
2790.14
2790.15
2790.17
2790.18
2790.19
2790.2
2790.21
2790.22
2790.23
2790.24
2790.24
2692.16
2692.16
2692.15
2692.14
2692.13
2692.11
2692.1
2692.08
2692.07
2692.06
2692.04
2692.03
2692.02
2692.02
2692.01
2692.01
2692.02
2692.02
2692.03
2692.04
2692.06
2692.07
2692.09
2692.1
2692.11
2692.13
2692.14
2692.15
2692.15
2692.16
2594.08
2594.08
2594.07
2594.06
2594.05
2594.03
2594.01
2593.99
2593.98
2593.96
2593.94
2593.93
2593.92
2593.91
2593.91
2593.91
2593.91
2593.92
2593.93
2593.94
2593.96
2593.97
2593.99
2594.01
2594.03
2594.05
2594.06
2594.07
2594.08
2594.08
2496.01
2496.01
2496
2495.98
2495.97
2495.95
2495.93
2495.9
2495.88
2495.86
2495.84
2495.82
2495.81
2495.8
2495.8
2495.8
2495.8
2495.81
2495.83
2495.84
2495.86
2495.88
2495.9
2495.93
2495.95
2495.97
2495.98
2496
2496
2496.01
2397.95
2397.95
2397.93
2397.92
2397.9
2397.87
2397.85
2397.82
2397.79
2397.77
2397.74
2397.72
2397.71
2397.7
2397.69
2397.69
2397.7
2397.71
2397.72
2397.74
2397.76
2397.79
2397.82
2397.84
2397.87
2397.89
2397.91
2397.93
2397.94
2397.95
2299.9
2299.89
2299.88
2299.86
2299.83
2299.81
2299.77
2299.74
2299.71
2299.67
2299.65
2299.62
2299.6
2299.59
2299.58
2299.58
2299.59
2299.6
2299.62
2299.64
2299.67
2299.7
2299.74
2299.77
2299.8
2299.83
2299.86
2299.88
2299.89
2299.9
2201.87
2201.86
2201.84
2201.82
2201.78
2201.75
2201.71
2201.67
2201.63
2201.59
2201.55
2201.52
2201.5
2201.48
2201.48
2201.47
2201.48
2201.5
2201.52
2201.55
2201.58
2201.62
2201.66
2201.7
2201.74
2201.78
2201.81
2201.84
2201.85
2201.86
2103.85
2103.84
2103.82
2103.79
2103.75
2103.7
2103.65
2103.6
2103.55
2103.51
2103.46
2103.43
2103.4
2103.38
2103.37
2103.37
2103.38
2103.4
2103.42
2103.46
2103.5
2103.55
2103.6
2103.65
2103.7
2103.74
2103.78
2103.81
2103.84
2103.85
2005.85
2005.84
2005.81
2005.78
2005.73
2005.67
2005.61
2005.55
2005.49
2005.43
2005.38
2005.33
2005.3
2005.27
2005.26
2005.26
2005.27
2005.29
2005.33
2005.38
2005.43
2005.49
2005.55
2005.61
2005.67
2005.73
2005.77
2005.81
2005.84
2005.85
1907.88
1907.87
1907.83
1907.79
1907.73
1907.66
1907.59
1907.51
1907.43
1907.36
1907.3
1907.24
1907.2
1907.17
1907.15
1907.15
1907.17
1907.2
1907.24
1907.29
1907.36
1907.43
1907.51
1907.58
1907.66
1907.73
1907.78
1907.83
1907.86
1907.88
1809.94
1809.92
1809.89
1809.83
1809.76
1809.67
1809.58
1809.49
1809.39
1809.3
1809.22
1809.15
1809.1
1809.06
1809.04
1809.04
1809.06
1809.1
1809.15
1809.22
1809.3
1809.39
1809.48
1809.58
1809.67
1809.75
1809.82
1809.88
1809.92
1809.94
1712.04
1712.02
1711.97
1711.9
1711.82
1711.71
1711.6
1711.48
1711.37
1711.26
1711.16
1711.07
1711.01
1710.96
1710.94
1710.94
1710.96
1711.01
1711.07
1711.16
1711.26
1711.37
1711.48
1711.6
1711.71
1711.81
1711.9
1711.96
1712.01
1712.03
1614.19
1614.16
1614.1
1614.02
1613.91
1613.79
1613.65
1613.51
1613.37
1613.23
1613.11
1613.01
1612.92
1612.87
1612.84
1612.84
1612.87
1612.92
1613.01
1613.11
1613.23
1613.37
1613.51
1613.65
1613.79
1613.91
1614.01
1614.1
1614.15
1614.18
1516.4
1516.36
1516.29
1516.19
1516.06
1515.9
1515.74
1515.56
1515.39
1515.22
1515.08
1514.95
1514.85
1514.78
1514.74
1514.74
1514.78
1514.85
1514.95
1515.08
1515.23
1515.39
1515.57
1515.74
1515.9
1516.05
1516.18
1516.28
1516.36
1516.39
1418.68
1418.64
1418.55
1418.42
1418.26
1418.07
1417.87
1417.66
1417.45
1417.24
1417.06
1416.91
1416.78
1416.7
1416.66
1416.66
1416.7
1416.79
1416.91
1417.07
1417.25
1417.45
1417.66
1417.87
1418.07
1418.26
1418.42
1418.54
1418.63
1418.68
1321.06
1321
1320.89
1320.73
1320.54
1320.31
1320.06
1319.8
1319.54
1319.3
1319.08
1318.89
1318.74
1318.63
1318.58
1318.58
1318.63
1318.74
1318.89
1319.08
1319.3
1319.55
1319.8
1320.06
1320.31
1320.54
1320.73
1320.89
1320.99
1321.05
1223.54
1223.48
1223.34
1223.15
1222.91
1222.63
1222.32
1222.01
1221.69
1221.39
1221.12
1220.89
1220.71
1220.58
1220.52
1220.52
1220.58
1220.71
1220.89
1221.12
1221.39
1221.69
1222.01
1222.32
1222.63
1222.91
1223.15
1223.34
1223.47
1223.54
1126.17
1126.09
1125.92
1125.69
1125.39
1125.05
1124.68
1124.29
1123.91
1123.55
1123.22
1122.94
1122.71
1122.56
1122.48
1122.48
1122.56
1122.71
1122.93
1123.21
1123.54
1123.91
1124.29
1124.68
1125.05
1125.39
1125.69
1125.92
1126.09
1126.17
1028.96
1028.86
1028.66
1028.37
1028.01
1027.59
1027.14
1026.67
1026.21
1025.77
1025.37
1025.03
1024.76
1024.58
1024.48
1024.48
1024.58
1024.76
1025.03
1025.37
1025.77
1026.21
1026.67
1027.14
1027.59
1028.01
1028.37
1028.66
1028.86
1028.97
931.964
931.838
931.595
931.245
930.805
930.296
929.745
929.176
928.613
928.08
927.599
927.189
926.867
926.645
926.532
926.532
926.644
926.866
927.187
927.597
928.078
928.61
929.173
929.742
930.294
930.803
931.244
931.595
931.84
931.966
835.215
835.063
834.766
834.34
833.806
833.19
832.522
831.835
831.156
830.514
829.936
829.444
829.058
828.792
828.656
828.657
828.792
829.057
829.442
829.934
830.511
831.152
831.83
832.518
833.186
833.804
834.339
834.766
835.065
835.217
738.773
738.588
738.228
737.712
737.066
736.323
735.516
734.688
733.874
733.107
732.416
731.829
731.369
731.052
730.891
730.891
731.052
731.368
731.828
732.414
733.104
733.871
734.684
735.512
736.319
737.064
737.711
738.228
738.589
738.774
642.7
642.476
642.042
641.419
640.641
639.748
638.779
637.79
636.82
635.909
635.09
634.395
633.849
633.474
633.283
633.284
633.474
633.849
634.394
635.089
635.907
636.818
637.787
638.776
639.744
640.639
641.418
642.041
642.477
642.701
547.073
546.804
546.281
545.533
544.602
543.533
542.382
541.207
540.06
538.989
538.027
537.211
536.57
536.13
535.906
535.906
536.13
536.57
537.21
538.026
538.987
540.058
541.205
542.379
543.531
544.599
545.532
546.28
546.804
547.074
451.985
451.661
451.033
450.141
449.033
447.766
446.404
445.023
443.687
442.441
441.326
440.379
439.636
439.124
438.863
438.862
439.124
439.636
440.379
441.326
442.439
443.686
445.021
446.402
447.764
449.031
450.139
451.033
451.661
451.985
357.542
357.153
356.402
355.342
354.035
352.548
350.955
349.336
347.797
346.368
345.096
344.016
343.164
342.574
342.272
342.271
342.574
343.164
344.016
345.096
346.367
347.795
349.334
350.953
352.546
354.034
355.341
356.402
357.152
357.542
263.855
263.386
262.486
261.227
259.696
257.971
256.102
254.197
252.522
250.948
249.535
248.322
247.352
246.676
246.33
246.33
246.676
247.352
248.323
249.535
250.948
252.522
254.196
256.101
257.97
259.695
261.226
262.485
263.385
263.854
171.117
170.551
169.456
167.962
166.21
164.28
162.255
160.206
158.18
156.45
154.928
153.628
152.566
151.826
151.448
151.448
151.826
152.566
153.629
154.928
156.451
158.18
160.206
162.255
164.278
166.209
167.961
169.455
170.55
171.116
81.7293
81.0337
79.7352
78.1229
76.3821
74.5599
72.6611
70.5602
68.6444
67.247
65.8885
64.7207
63.7213
63.0365
62.6941
62.694
63.0365
63.7215
64.7205
65.8881
67.2462
68.6433
70.5595
72.6601
74.5584
76.3806
78.1213
79.7325
81.0311
81.7271
18.0112
17.4408
16.506
15.5494
14.6642
13.7841
12.9326
12.1429
11.369
10.6793
9.99327
9.4616
9.01011
8.70367
8.53432
8.5338
8.70368
9.00953
9.46034
9.9924
10.6782
11.3675
12.1414
12.9315
13.7823
14.6629
15.5486
16.5037
17.4388
18.009
-4.28359
-4.40926
-4.56181
-4.70414
-4.81493
-4.90256
-4.96615
-4.99419
-5.05057
-5.0665
-5.07217
-5.07562
-5.07941
-5.08257
-5.08341
-5.08342
-5.08262
-5.07947
-5.07567
-5.07223
-5.06653
-5.05059
-4.99431
-4.96629
-4.90267
-4.81504
-4.70419
-4.56211
-4.40989
-4.28392
-5.14539
-5.15104
-5.16061
-5.17057
-5.17793
-5.18118
-5.18106
-5.18238
-5.17299
-5.17048
-5.16944
-5.16746
-5.16846
-5.16822
-5.16816
-5.16816
-5.16823
-5.1685
-5.16752
-5.16948
-5.1705
-5.17305
-5.18243
-5.18115
-5.18126
-5.17807
-5.17076
-5.1608
-5.15137
-5.14565
-5.30465
-5.3028
-5.2998
-5.29615
-5.2919
-5.28759
-5.28431
-5.28244
-5.27937
-5.27625
-5.2749
-5.27337
-5.27089
-5.26835
-5.26766
-5.26766
-5.26836
-5.27089
-5.27338
-5.27487
-5.27623
-5.27945
-5.2825
-5.28435
-5.28766
-5.29204
-5.29635
-5.30002
-5.30317
-5.30507
-5.4033
-5.40148
-5.39712
-5.39189
-5.38665
-5.382
-5.37853
-5.37626
-5.37397
-5.37236
-5.37093
-5.36946
-5.36708
-5.36542
-5.36441
-5.36442
-5.36544
-5.36709
-5.36947
-5.3709
-5.37233
-5.37401
-5.37631
-5.37862
-5.38214
-5.38687
-5.39218
-5.39744
-5.40191
-5.40382
-5.49232
-5.49082
-5.48738
-5.48318
-5.4789
-5.47496
-5.47173
-5.46921
-5.46704
-5.46533
-5.46395
-5.46293
-5.46169
-5.46067
-5.46003
-5.46003
-5.46068
-5.46169
-5.46293
-5.46395
-5.46531
-5.46705
-5.46927
-5.47185
-5.47512
-5.47907
-5.48344
-5.48772
-5.49122
-5.49274
-5.58094
-5.57984
-5.57744
-5.57433
-5.57108
-5.56795
-5.56519
-5.56279
-5.56071
-5.55896
-5.55758
-5.55663
-5.55591
-5.55557
-5.55529
-5.55528
-5.55556
-5.5559
-5.55661
-5.55757
-5.55895
-5.56073
-5.56284
-5.56527
-5.56809
-5.57126
-5.57461
-5.57778
-5.58023
-5.58139
-5.67126
-5.67041
-5.66872
-5.66649
-5.66403
-5.66156
-5.65926
-5.65719
-5.65536
-5.65375
-5.65243
-5.65135
-5.6506
-5.65022
-5.65005
-5.65004
-5.6502
-5.65059
-5.65134
-5.65241
-5.65372
-5.65537
-5.65724
-5.65936
-5.66172
-5.66423
-5.66676
-5.66906
-5.6708
-5.67168
-5.76323
-5.76255
-5.76135
-5.75975
-5.75787
-5.75591
-5.75403
-5.75228
-5.75069
-5.74927
-5.74806
-5.74708
-5.74633
-5.74581
-5.74553
-5.74551
-5.74577
-5.7463
-5.74707
-5.74806
-5.74926
-5.7507
-5.75233
-5.75412
-5.75605
-5.75805
-5.75999
-5.76168
-5.76295
-5.76363
-5.85653
-5.85602
-5.85516
-5.85393
-5.8525
-5.85096
-5.84943
-5.84796
-5.84658
-5.84535
-5.84431
-5.84345
-5.84277
-5.84232
-5.84207
-5.84205
-5.84228
-5.84274
-5.84342
-5.8443
-5.84536
-5.8466
-5.84799
-5.84951
-5.85108
-5.85267
-5.85416
-5.85544
-5.85638
-5.85689
-5.95076
-5.95042
-5.94975
-5.94884
-5.94773
-5.94653
-5.94527
-5.94403
-5.94286
-5.94181
-5.9409
-5.94015
-5.93955
-5.93913
-5.9389
-5.9389
-5.93912
-5.93954
-5.94013
-5.9409
-5.94183
-5.9429
-5.94409
-5.94535
-5.94665
-5.94793
-5.9491
-5.95007
-5.95076
-5.95114
-6.0459
-6.0456
-6.0451
-6.04441
-6.04355
-6.04259
-6.04155
-6.0405
-6.03952
-6.03864
-6.03785
-6.03718
-6.03665
-6.03628
-6.03609
-6.0361
-6.0363
-6.03665
-6.03717
-6.03785
-6.03866
-6.03958
-6.04057
-6.04161
-6.04267
-6.0437
-6.04462
-6.04535
-6.04587
-6.04616
-6.14154
-6.14131
-6.14095
-6.14041
-6.13975
-6.13896
-6.13809
-6.13724
-6.13641
-6.13564
-6.13496
-6.13437
-6.1339
-6.13358
-6.13342
-6.13342
-6.13359
-6.13389
-6.13435
-6.13494
-6.13564
-6.13643
-6.13728
-6.13817
-6.13905
-6.13987
-6.14058
-6.14116
-6.14158
-6.14182
-6.23766
-6.23751
-6.23722
-6.2368
-6.23626
-6.2356
-6.23491
-6.23418
-6.23346
-6.23279
-6.23219
-6.23167
-6.23124
-6.23095
-6.2308
-6.23081
-6.23096
-6.23123
-6.23165
-6.23219
-6.23282
-6.23352
-6.23426
-6.235
-6.23571
-6.23637
-6.23695
-6.23742
-6.23777
-6.23796
-6.33421
-6.33411
-6.33386
-6.33353
-6.33308
-6.33255
-6.33196
-6.33134
-6.33073
-6.33015
-6.32961
-6.32913
-6.32874
-6.32847
-6.32834
-6.32836
-6.3285
-6.32877
-6.32916
-6.32966
-6.33021
-6.3308
-6.33141
-6.33201
-6.3326
-6.33314
-6.33363
-6.33403
-6.33431
-6.33446
-6.4311
-6.43096
-6.43077
-6.43048
-6.43012
-6.42969
-6.42921
-6.42869
-6.42816
-6.42764
-6.42714
-6.4267
-6.42634
-6.4261
-6.42597
-6.42598
-6.42611
-6.42637
-6.42673
-6.42716
-6.42765
-6.42816
-6.42868
-6.42919
-6.42969
-6.43015
-6.43056
-6.4309
-6.43113
-6.43126
-6.52811
-6.528
-6.52784
-6.52761
-6.52732
-6.52696
-6.52656
-6.52612
-6.52567
-6.5252
-6.52476
-6.52436
-6.52402
-6.52378
-6.52365
-6.52364
-6.52377
-6.52401
-6.52434
-6.52474
-6.52517
-6.52563
-6.52609
-6.52654
-6.52697
-6.52738
-6.52773
-6.52801
-6.5282
-6.5283
-6.62536
-6.62532
-6.62516
-6.62495
-6.62467
-6.62436
-6.62401
-6.62364
-6.62324
-6.62284
-6.62244
-6.62207
-6.62175
-6.62152
-6.6214
-6.6214
-6.62152
-6.62174
-6.62204
-6.6224
-6.62281
-6.62323
-6.62365
-6.62406
-6.62444
-6.62478
-6.62507
-6.6253
-6.62545
-6.62552
-6.72284
-6.72278
-6.72262
-6.7224
-6.72216
-6.7219
-6.72161
-6.72128
-6.72092
-6.72056
-6.72019
-6.71984
-6.71956
-6.71936
-6.71926
-6.71927
-6.71937
-6.71958
-6.71986
-6.7202
-6.72058
-6.72096
-6.72134
-6.72169
-6.72202
-6.7223
-6.72253
-6.72271
-6.72283
-6.72289
-6.82038
-6.8203
-6.82018
-6.82
-6.81981
-6.81958
-6.81932
-6.81902
-6.81869
-6.81835
-6.81802
-6.81772
-6.81748
-6.81731
-6.81722
-6.81723
-6.81732
-6.81751
-6.81777
-6.81807
-6.8184
-6.81873
-6.81905
-6.81936
-6.81964
-6.81989
-6.82009
-6.82023
-6.82033
-6.82038
-6.91796
-6.9179
-6.91781
-6.91768
-6.91751
-6.9173
-6.91705
-6.91678
-6.91649
-6.91618
-6.91589
-6.91563
-6.91543
-6.91528
-6.91519
-6.91519
-6.91528
-6.91544
-6.91567
-6.91593
-6.91622
-6.91651
-6.9168
-6.91709
-6.91734
-6.91755
-6.91773
-6.91785
-6.91794
-6.91799
-7.01559
-7.01555
-7.01548
-7.01537
-7.01521
-7.01502
-7.01481
-7.01456
-7.0143
-7.01403
-7.01378
-7.01356
-7.01339
-7.01326
-7.01319
-7.01319
-7.01327
-7.01341
-7.01361
-7.01384
-7.01409
-7.01435
-7.01461
-7.01486
-7.01509
-7.01528
-7.01544
-7.01556
-7.01565
-7.01569
-7.11332
-7.11331
-7.11324
-7.11314
-7.11299
-7.11281
-7.1126
-7.11237
-7.11214
-7.11192
-7.11172
-7.11154
-7.1114
-7.1113
-7.11125
-7.11126
-7.11132
-7.11144
-7.11159
-7.11178
-7.112
-7.11223
-7.11246
-7.11268
-7.11288
-7.11306
-7.11321
-7.11333
-7.11341
-7.11344
-7.21115
-7.21113
-7.21108
-7.21097
-7.21082
-7.21063
-7.21043
-7.21023
-7.21004
-7.20986
-7.2097
-7.20956
-7.20945
-7.20938
-7.20935
-7.20936
-7.20941
-7.20949
-7.20962
-7.20977
-7.20995
-7.21014
-7.21034
-7.21054
-7.21072
-7.21088
-7.21101
-7.21111
-7.21118
-7.2112
-7.30896
-7.30895
-7.30889
-7.30877
-7.30863
-7.30847
-7.3083
-7.30815
-7.308
-7.30786
-7.30773
-7.30762
-7.30754
-7.30749
-7.30748
-7.30749
-7.30752
-7.30759
-7.30768
-7.3078
-7.30795
-7.3081
-7.30826
-7.30841
-7.30856
-7.30869
-7.3088
-7.30888
-7.30893
-7.30895
-7.40674
-7.40672
-7.40665
-7.40656
-7.40645
-7.40634
-7.40622
-7.4061
-7.40598
-7.40587
-7.40578
-7.4057
-7.40564
-7.40562
-7.40561
-7.40563
-7.40566
-7.4057
-7.40577
-7.40585
-7.40595
-7.40606
-7.40617
-7.40628
-7.40639
-7.40649
-7.40658
-7.40664
-7.40669
-7.40671
-7.50451
-7.50448
-7.50443
-7.50438
-7.50431
-7.50423
-7.50414
-7.50405
-7.50396
-7.50388
-7.50381
-7.50376
-7.50373
-7.50372
-7.50373
-7.50374
-7.50376
-7.50379
-7.50382
-7.50387
-7.50393
-7.504
-7.50407
-7.50415
-7.50424
-7.50432
-7.50439
-7.50444
-7.50448
-7.5045
-7.6023
-7.60227
-7.60225
-7.60222
-7.60218
-7.60212
-7.60205
-7.60198
-7.60192
-7.60187
-7.60184
-7.60182
-7.6018
-7.6018
-7.6018
-7.60181
-7.60182
-7.60184
-7.60185
-7.60188
-7.60191
-7.60195
-7.60201
-7.60207
-7.60213
-7.60219
-7.60225
-7.60229
-7.60233
-7.60234
-7.70013
-7.70011
-7.70011
-7.70009
-7.70006
-7.70002
-7.69998
-7.69994
-7.69991
-7.69989
-7.69988
-7.69987
-7.69987
-7.69987
-7.69987
-7.69988
-7.69988
-7.69989
-7.6999
-7.69991
-7.69993
-7.69995
-7.69999
-7.70003
-7.70008
-7.70012
-7.70016
-7.7002
-7.70022
-7.70024
-7.79805
-7.79805
-7.79804
-7.79802
-7.798
-7.79799
-7.79797
-7.79795
-7.79793
-7.79792
-7.79792
-7.79791
-7.79792
-7.79793
-7.79794
-7.79794
-7.79795
-7.79795
-7.79795
-7.79796
-7.79796
-7.79798
-7.798
-7.79803
-7.79806
-7.79809
-7.79812
-7.79815
-7.79818
-7.7982
-7.89606
-7.89605
-7.89604
-7.89603
-7.89603
-7.89602
-7.89601
-7.89599
-7.89597
-7.89596
-7.89595
-7.89596
-7.89597
-7.89599
-7.896
-7.89601
-7.89602
-7.89602
-7.89601
-7.89601
-7.89601
-7.89602
-7.89604
-7.89606
-7.89608
-7.89611
-7.89614
-7.89617
-7.8962
-7.89622
-7.99412
-7.99411
-7.99411
-7.9941
-7.99409
-7.99408
-7.99407
-7.99405
-7.99403
-7.99401
-7.99401
-7.99402
-7.99404
-7.99407
-7.99409
-7.9941
-7.9941
-7.9941
-7.99409
-7.99409
-7.99409
-7.9941
-7.99411
-7.99413
-7.99416
-7.99419
-7.99422
-7.99425
-7.99427
-7.99428
-8.09222
-8.09221
-8.09221
-8.0922
-8.09218
-8.09216
-8.09214
-8.09212
-8.09211
-8.0921
-8.09211
-8.09213
-8.09216
-8.09218
-8.09219
-8.0922
-8.0922
-8.0922
-8.09219
-8.09219
-8.0922
-8.09221
-8.09222
-8.09225
-8.09227
-8.0923
-8.09232
-8.09234
-8.09236
-8.09236
-8.19033
-8.19033
-8.19032
-8.1903
-8.19027
-8.19024
-8.19022
-8.19021
-8.19022
-8.19023
-8.19025
-8.19027
-8.19029
-8.1903
-8.19031
-8.19031
-8.19031
-8.19031
-8.19031
-8.19031
-8.19032
-8.19033
-8.19035
-8.19036
-8.19038
-8.1904
-8.19042
-8.19043
-8.19043
-8.19043
-8.28845
-8.28844
-8.28842
-8.28839
-8.28837
-8.28835
-8.28834
-8.28834
-8.28835
-8.28837
-8.28839
-8.2884
-8.28842
-8.28842
-8.28843
-8.28843
-8.28843
-8.28843
-8.28843
-8.28844
-8.28844
-8.28845
-8.28846
-8.28847
-8.28848
-8.28849
-8.2885
-8.2885
-8.28851
-8.28851
-8.38654
-8.38653
-8.38651
-8.3865
-8.38648
-8.38647
-8.38646
-8.38647
-8.38648
-8.3865
-8.38651
-8.38653
-8.38653
-8.38654
-8.38654
-8.38654
-8.38655
-8.38655
-8.38656
-8.38656
-8.38656
-8.38657
-8.38657
-8.38657
-8.38657
-8.38657
-8.38658
-8.38658
-8.38658
-8.38658
-8.48462
-8.48462
-8.48461
-8.48461
-8.4846
-8.48459
-8.48459
-8.4846
-8.48461
-8.48462
-8.48464
-8.48465
-8.48465
-8.48466
-8.48467
-8.48467
-8.48468
-8.48469
-8.48469
-8.48469
-8.48469
-8.48469
-8.48468
-8.48468
-8.48467
-8.48467
-8.48467
-8.48466
-8.48466
-8.48466
-8.58272
-8.58272
-8.58272
-8.58272
-8.58271
-8.58271
-8.58271
-8.58272
-8.58273
-8.58275
-8.58276
-8.58278
-8.58279
-8.5828
-8.58282
-8.58283
-8.58284
-8.58284
-8.58284
-8.58283
-8.58283
-8.58281
-8.5828
-8.58279
-8.58278
-8.58277
-8.58276
-8.58275
-8.58274
-8.58274
-8.68082
-8.68083
-8.68083
-8.68082
-8.68082
-8.68082
-8.68083
-8.68084
-8.68086
-8.68088
-8.6809
-8.68092
-8.68094
-8.68096
-8.68097
-8.68098
-8.68098
-8.68098
-8.68098
-8.68097
-8.68095
-8.68093
-8.68091
-8.68089
-8.68087
-8.68086
-8.68084
-8.68083
-8.68082
-8.68081
-8.77891
-8.77892
-8.77891
-8.77891
-8.77892
-8.77893
-8.77895
-8.77898
-8.779
-8.77903
-8.77905
-8.77907
-8.77909
-8.7791
-8.77912
-8.77912
-8.77912
-8.77911
-8.7791
-8.77909
-8.77907
-8.77904
-8.77902
-8.77899
-8.77896
-8.77894
-8.77892
-8.7789
-8.77889
-8.77889
-8.87699
-8.87698
-8.87698
-8.877
-8.87702
-8.87705
-8.87708
-8.87712
-8.87715
-8.87717
-8.8772
-8.87722
-8.87723
-8.87724
-8.87725
-8.87725
-8.87725
-8.87724
-8.87722
-8.8772
-8.87718
-8.87715
-8.87712
-8.87709
-8.87706
-8.87703
-8.87701
-8.87699
-8.87698
-8.87697
-8.97505
-8.97505
-8.97506
-8.97509
-8.97513
-8.97517
-8.97522
-8.97526
-8.97529
-8.97532
-8.97534
-8.97536
-8.97537
-8.97538
-8.97539
-8.97538
-8.97538
-8.97536
-8.97535
-8.97533
-8.9753
-8.97527
-8.97524
-8.9752
-8.97517
-8.97514
-8.97511
-8.9751
-8.97509
-8.97508
-9.07315
-9.07315
-9.07317
-9.07321
-9.07326
-9.07331
-9.07336
-9.0734
-9.07344
-9.07347
-9.07349
-9.07351
-9.07352
-9.07353
-9.07353
-9.07353
-9.07352
-9.07351
-9.07349
-9.07347
-9.07344
-9.07341
-9.07338
-9.07334
-9.07331
-9.07328
-9.07325
-9.07323
-9.07323
-9.07322
-9.1713
-9.1713
-9.17133
-9.17137
-9.17142
-9.17146
-9.17151
-9.17155
-9.17159
-9.17162
-9.17164
-9.17166
-9.17168
-9.17169
-9.17169
-9.17169
-9.17169
-9.17167
-9.17166
-9.17163
-9.1716
-9.17157
-9.17154
-9.1715
-9.17147
-9.17144
-9.17141
-9.1714
-9.17139
-9.17139
-9.26949
-9.2695
-9.26952
-9.26955
-9.26959
-9.26963
-9.26967
-9.26971
-9.26974
-9.26978
-9.2698
-9.26983
-9.26985
-9.26986
-9.26987
-9.26987
-9.26986
-9.26984
-9.26983
-9.2698
-9.26977
-9.26974
-9.2697
-9.26967
-9.26964
-9.26961
-9.26959
-9.26958
-9.26957
-9.26957
-9.36772
-9.36772
-9.36773
-9.36775
-9.36778
-9.36781
-9.36785
-9.36788
-9.36792
-9.36795
-9.36798
-9.36801
-9.36803
-9.36804
-9.36805
-9.36804
-9.36803
-9.36802
-9.368
-9.36797
-9.36794
-9.36791
-9.36788
-9.36785
-9.36783
-9.3678
-9.36779
-9.36778
-9.36777
-9.36777
-9.46596
-9.46596
-9.46597
-9.46598
-9.466
-9.46602
-9.46605
-9.46609
-9.46612
-9.46615
-9.46618
-9.46621
-9.46622
-9.46623
-9.46623
-9.46623
-9.46622
-9.4662
-9.46618
-9.46615
-9.46613
-9.4661
-9.46608
-9.46605
-9.46603
-9.46602
-9.46601
-9.466
-9.466
-9.466
-9.56423
-9.56422
-9.56423
-9.56423
-9.56425
-9.56427
-9.56429
-9.56432
-9.56435
-9.56438
-9.5644
-9.56442
-9.56443
-9.56444
-9.56443
-9.56443
-9.56441
-9.5644
-9.56438
-9.56436
-9.56434
-9.56432
-9.5643
-9.56428
-9.56427
-9.56426
-9.56425
-9.56425
-9.56425
-9.56426
-9.66252
-9.66251
-9.66251
-9.66252
-9.66253
-9.66254
-9.66256
-9.66258
-9.6626
-9.66262
-9.66263
-9.66264
-9.66265
-9.66265
-9.66265
-9.66264
-9.66263
-9.66262
-9.66261
-9.6626
-9.66258
-9.66257
-9.66256
-9.66255
-9.66254
-9.66254
-9.66253
-9.66253
-9.66254
-9.66254
-9.76084
-9.76083
-9.76083
-9.76083
-9.76084
-9.76084
-9.76085
-9.76086
-9.76086
-9.76087
-9.76088
-9.76088
-9.76088
-9.76088
-9.76088
-9.76088
-9.76088
-9.76087
-9.76087
-9.76086
-9.76086
-9.76085
-9.76085
-9.76085
-9.76084
-9.76084
-9.76084
-9.76084
-9.76084
-9.76084
4850.19
4850.19
4850.19
4850.19
4850.19
4850.19
4850.2
4850.2
4850.2
4850.2
4850.2
4850.2
4850.2
4850.21
4850.21
4850.21
4850.2
4850.2
4850.2
4850.2
4850.2
4850.2
4850.2
4850.2
4850.2
4850.2
4850.2
4850.2
4850.2
4850.2
4752.09
4752.09
4752.09
4752.09
4752.09
4752.1
4752.1
4752.1
4752.1
4752.1
4752.1
4752.1
4752.1
4752.1
4752.1
4752.1
4752.1
4752.1
4752.1
4752.1
4752.1
4752.1
4752.1
4752.1
4752.1
4752.1
4752.1
4752.1
4752.1
4752.1
4654
4654
4654
4654
4654
4654
4654
4654
4654
4654
4654
4654
4654
4654
4654
4654
4654
4654
4654
4654
4654
4654
4654
4654
4654
4654
4654
4654
4654
4654
4555.9
4555.9
4555.9
4555.9
4555.9
4555.9
4555.9
4555.9
4555.9
4555.9
4555.9
4555.9
4555.9
4555.9
4555.9
4555.9
4555.9
4555.9
4555.9
4555.9
4555.9
4555.9
4555.9
4555.9
4555.9
4555.9
4555.9
4555.9
4555.9
4555.9
4457.8
4457.8
4457.8
4457.8
4457.8
4457.8
4457.8
4457.8
4457.8
4457.8
4457.8
4457.8
4457.8
4457.8
4457.8
4457.8
4457.8
4457.8
4457.8
4457.8
4457.8
4457.8
4457.8
4457.8
4457.8
4457.8
4457.8
4457.8
4457.8
4457.8
4359.71
4359.71
4359.71
4359.71
4359.7
4359.7
4359.7
4359.7
4359.7
4359.7
4359.7
4359.7
4359.7
4359.7
4359.7
4359.7
4359.7
4359.7
4359.7
4359.7
4359.7
4359.7
4359.7
4359.7
4359.7
4359.71
4359.71
4359.71
4359.71
4359.71
4261.61
4261.61
4261.61
4261.61
4261.61
4261.61
4261.6
4261.6
4261.6
4261.6
4261.6
4261.6
4261.6
4261.6
4261.6
4261.6
4261.6
4261.6
4261.6
4261.6
4261.6
4261.61
4261.61
4261.61
4261.61
4261.61
4261.61
4261.61
4261.61
4261.61
4163.51
4163.51
4163.51
4163.51
4163.51
4163.51
4163.51
4163.5
4163.5
4163.5
4163.5
4163.5
4163.5
4163.5
4163.5
4163.5
4163.5
4163.5
4163.5
4163.5
4163.51
4163.51
4163.51
4163.51
4163.51
4163.51
4163.51
4163.51
4163.51
4163.51
4065.42
4065.41
4065.41
4065.41
4065.41
4065.41
4065.41
4065.41
4065.4
4065.4
4065.4
4065.4
4065.4
4065.4
4065.4
4065.4
4065.4
4065.4
4065.4
4065.41
4065.41
4065.41
4065.41
4065.41
4065.41
4065.41
4065.42
4065.42
4065.42
4065.42
3967.32
3967.32
3967.32
3967.32
3967.31
3967.31
3967.31
3967.31
3967.31
3967.31
3967.3
3967.3
3967.3
3967.3
3967.3
3967.3
3967.3
3967.3
3967.31
3967.31
3967.31
3967.31
3967.31
3967.32
3967.32
3967.32
3967.32
3967.32
3967.32
3967.32
3869.22
3869.22
3869.22
3869.22
3869.22
3869.22
3869.21
3869.21
3869.21
3869.21
3869.21
3869.21
3869.21
3869.2
3869.2
3869.2
3869.21
3869.21
3869.21
3869.21
3869.21
3869.22
3869.22
3869.22
3869.22
3869.22
3869.22
3869.22
3869.22
3869.22
3771.12
3771.12
3771.12
3771.12
3771.12
3771.12
3771.12
3771.12
3771.12
3771.12
3771.11
3771.11
3771.11
3771.11
3771.11
3771.11
3771.11
3771.11
3771.11
3771.12
3771.12
3771.12
3771.12
3771.12
3771.12
3771.13
3771.13
3771.13
3771.13
3771.13
3673.02
3673.02
3673.02
3673.02
3673.02
3673.02
3673.02
3673.02
3673.02
3673.02
3673.02
3673.02
3673.02
3673.01
3673.01
3673.01
3673.01
3673.02
3673.02
3673.02
3673.02
3673.02
3673.03
3673.03
3673.03
3673.03
3673.03
3673.03
3673.03
3673.03
3574.93
3574.92
3574.93
3574.93
3574.93
3574.93
3574.93
3574.93
3574.93
3574.93
3574.92
3574.92
3574.92
3574.92
3574.92
3574.92
3574.92
3574.92
3574.92
3574.92
3574.92
3574.93
3574.93
3574.93
3574.93
3574.93
3574.93
3574.94
3574.94
3574.94
3476.83
3476.83
3476.83
3476.83
3476.83
3476.83
3476.83
3476.83
3476.83
3476.83
3476.83
3476.83
3476.83
3476.82
3476.82
3476.82
3476.82
3476.82
3476.82
3476.82
3476.83
3476.83
3476.83
3476.83
3476.84
3476.84
3476.84
3476.84
3476.84
3476.85
3378.74
3378.74
3378.74
3378.74
3378.74
3378.74
3378.74
3378.74
3378.74
3378.73
3378.73
3378.73
3378.73
3378.73
3378.73
3378.72
3378.72
3378.72
3378.72
3378.73
3378.73
3378.73
3378.73
3378.74
3378.74
3378.75
3378.75
3378.75
3378.75
3378.75
3280.66
3280.66
3280.66
3280.66
3280.66
3280.65
3280.65
3280.64
3280.64
3280.64
3280.63
3280.63
3280.63
3280.63
3280.63
3280.63
3280.63
3280.63
3280.63
3280.63
3280.63
3280.63
3280.64
3280.64
3280.65
3280.65
3280.66
3280.66
3280.66
3280.66
3182.58
3182.58
3182.57
3182.57
3182.57
3182.56
3182.56
3182.55
3182.55
3182.54
3182.54
3182.53
3182.53
3182.53
3182.53
3182.53
3182.53
3182.53
3182.53
3182.53
3182.53
3182.54
3182.54
3182.55
3182.56
3182.56
3182.57
3182.57
3182.57
3182.57
3084.49
3084.49
3084.49
3084.48
3084.48
3084.47
3084.46
3084.46
3084.45
3084.44
3084.44
3084.43
3084.43
3084.43