/*--------------------------------*- C++ -*----------------------------------*\
| =========                 |                                                 |
| \\      /  F ield         | OpenFOAM: The Open Source CFD Toolbox           |
|  \\    /   O peration     | Version:  2312                                  |
|   \\  /    A nd           | Website:  www.openfoam.com                      |
|    \\/     M anipulation  |                                                 |
\*---------------------------------------------------------------------------*/
FoamFile
{
    version     2.0;
    format      ascii;
    arch        "LSB;label=32;scalar=64";
    class       volScalarField;
    location    "0.692487";
    object      p_rgh;
}
// * * * * * * * * * * * * * * * * * * * * * * * * * * * * * * * * * * * * * //

dimensions      [1 -1 -2 0 0 0 0];

internalField   nonuniform List<scalar> 
90000
(
4899.24
4899.24
4899.24
4899.24
4899.24
4899.24
4899.25
4899.25
4899.25
4899.25
4899.25
4899.25
4899.25
4899.26
4899.26
4899.26
4899.26
4899.26
4899.25
4899.25
4899.25
4899.25
4899.25
4899.25
4899.25
4899.25
4899.25
4899.26
4899.26
4899.26
4899.24
4899.24
4899.24
4899.24
4899.24
4899.25
4899.25
4899.25
4899.25
4899.25
4899.25
4899.26
4899.26
4899.26
4899.26
4899.26
4899.26
4899.26
4899.25
4899.25
4899.25
4899.25
4899.25
4899.25
4899.25
4899.25
4899.26
4899.26
4899.26
4899.26
4899.24
4899.24
4899.24
4899.25
4899.25
4899.25
4899.25
4899.25
4899.25
4899.25
4899.25
4899.26
4899.26
4899.26
4899.26
4899.26
4899.26
4899.25
4899.25
4899.25
4899.25
4899.25
4899.25
4899.25
4899.25
4899.25
4899.26
4899.26
4899.26
4899.25
4899.25
4899.25
4899.25
4899.25
4899.25
4899.25
4899.25
4899.25
4899.25
4899.25
4899.26
4899.26
4899.25
4899.25
4899.25
4899.25
4899.25
4899.25
4899.25
4899.25
4899.25
4899.25
4899.25
4899.25
4899.25
4899.25
4899.25
4899.25
4899.25
4899.25
4899.25
4899.26
4899.26
4899.26
4899.26
4899.26
4899.26
4899.25
4899.25
4899.25
4899.25
4899.25
4899.25
4899.25
4899.25
4899.25
4899.25
4899.25
4899.25
4899.25
4899.25
4899.25
4899.25
4899.25
4899.25
4899.25
4899.24
4899.24
4899.24
4899.24
4899.26
4899.27
4899.27
4899.26
4899.26
4899.26
4899.26
4899.25
4899.25
4899.25
4899.25
4899.25
4899.25
4899.25
4899.25
4899.25
4899.25
4899.25
4899.25
4899.26
4899.26
4899.26
4899.25
4899.25
4899.25
4899.24
4899.24
4899.23
4899.23
4899.24
4899.27
4899.27
4899.27
4899.27
4899.26
4899.26
4899.25
4899.25
4899.25
4899.25
4899.25
4899.25
4899.25
4899.25
4899.25
4899.25
4899.26
4899.26
4899.26
4899.26
4899.26
4899.26
4899.26
4899.25
4899.25
4899.24
4899.24
4899.24
4899.24
4899.25
4899.27
4899.28
4899.27
4899.27
4899.26
4899.26
4899.25
4899.25
4899.25
4899.25
4899.25
4899.25
4899.25
4899.26
4899.26
4899.26
4899.27
4899.27
4899.27
4899.27
4899.26
4899.26
4899.26
4899.26
4899.25
4899.25
4899.25
4899.25
4899.25
4899.26
4899.28
4899.29
4899.28
4899.28
4899.27
4899.26
4899.26
4899.25
4899.25
4899.25
4899.25
4899.25
4899.25
4899.26
4899.27
4899.27
4899.27
4899.27
4899.27
4899.27
4899.26
4899.26
4899.26
4899.26
4899.26
4899.26
4899.26
4899.26
4899.27
4899.27
4899.28
4899.3
4899.29
4899.29
4899.28
4899.28
4899.27
4899.26
4899.25
4899.25
4899.24
4899.25
4899.25
4899.26
4899.26
4899.27
4899.27
4899.26
4899.26
4899.26
4899.26
4899.26
4899.26
4899.26
4899.26
4899.27
4899.27
4899.27
4899.27
4899.27
4899.29
4899.31
4899.31
4899.3
4899.3
4899.29
4899.28
4899.26
4899.25
4899.24
4899.24
4899.24
4899.24
4899.25
4899.25
4899.25
4899.25
4899.25
4899.25
4899.25
4899.26
4899.26
4899.27
4899.27
4899.27
4899.27
4899.27
4899.27
4899.27
4899.27
4899.3
4899.32
4899.32
4899.31
4899.3
4899.29
4899.28
4899.26
4899.25
4899.24
4899.24
4899.23
4899.23
4899.23
4899.23
4899.23
4899.23
4899.24
4899.25
4899.26
4899.27
4899.27
4899.28
4899.28
4899.28
4899.28
4899.28
4899.28
4899.28
4899.28
4899.31
4899.32
4899.31
4899.31
4899.3
4899.29
4899.27
4899.26
4899.25
4899.25
4899.24
4899.24
4899.23
4899.22
4899.22
4899.22
4899.23
4899.24
4899.26
4899.27
4899.28
4899.29
4899.29
4899.3
4899.3
4899.3
4899.3
4899.3
4899.3
4899.3
4899.31
4899.29
4899.29
4899.28
4899.27
4899.27
4899.26
4899.26
4899.26
4899.26
4899.26
4899.25
4899.24
4899.23
4899.23
4899.23
4899.24
4899.26
4899.27
4899.29
4899.3
4899.3
4899.3
4899.31
4899.31
4899.31
4899.3
4899.3
4899.3
4899.29
4899.29
4899.25
4899.25
4899.25
4899.25
4899.25
4899.26
4899.27
4899.28
4899.29
4899.28
4899.27
4899.26
4899.25
4899.24
4899.25
4899.25
4899.27
4899.28
4899.29
4899.3
4899.3
4899.3
4899.3
4899.31
4899.3
4899.3
4899.29
4899.28
4899.27
4899.27
4899.21
4899.22
4899.22
4899.23
4899.25
4899.27
4899.29
4899.3
4899.3
4899.3
4899.29
4899.27
4899.26
4899.26
4899.26
4899.26
4899.27
4899.27
4899.28
4899.28
4899.29
4899.3
4899.3
4899.3
4899.3
4899.29
4899.28
4899.27
4899.27
4899.25
4899.19
4899.21
4899.22
4899.23
4899.26
4899.28
4899.3
4899.31
4899.31
4899.3
4899.29
4899.28
4899.27
4899.26
4899.26
4899.26
4899.26
4899.26
4899.26
4899.27
4899.28
4899.3
4899.3
4899.3
4899.29
4899.28
4899.28
4899.28
4899.3
4899.25
4899.2
4899.22
4899.24
4899.26
4899.28
4899.29
4899.3
4899.3
4899.3
4899.29
4899.28
4899.28
4899.27
4899.27
4899.26
4899.26
4899.25
4899.25
4899.26
4899.27
4899.28
4899.29
4899.29
4899.29
4899.28
4899.28
4899.29
4899.3
4899.31
4899.27
4899.25
4899.26
4899.28
4899.29
4899.3
4899.31
4899.31
4899.3
4899.29
4899.29
4899.28
4899.28
4899.28
4899.27
4899.26
4899.26
4899.25
4899.26
4899.26
4899.27
4899.28
4899.28
4899.27
4899.27
4899.27
4899.28
4899.29
4899.3
4899.29
4899.31
4899.3
4899.31
4899.32
4899.33
4899.33
4899.33
4899.32
4899.31
4899.3
4899.3
4899.29
4899.29
4899.28
4899.27
4899.26
4899.26
4899.25
4899.26
4899.26
4899.26
4899.27
4899.26
4899.27
4899.28
4899.29
4899.3
4899.31
4899.3
4899.31
4899.35
4899.35
4899.35
4899.36
4899.36
4899.36
4899.35
4899.34
4899.32
4899.31
4899.3
4899.3
4899.29
4899.27
4899.26
4899.25
4899.25
4899.26
4899.26
4899.26
4899.26
4899.27
4899.27
4899.29
4899.31
4899.33
4899.34
4899.34
4899.33
4899.35
4899.38
4899.39
4899.39
4899.4
4899.4
4899.39
4899.37
4899.35
4899.34
4899.32
4899.3
4899.29
4899.27
4899.26
4899.25
4899.25
4899.26
4899.26
4899.27
4899.27
4899.27
4899.28
4899.3
4899.33
4899.35
4899.36
4899.37
4899.37
4899.37
4899.38
4899.41
4899.43
4899.43
4899.43
4899.42
4899.41
4899.39
4899.36
4899.34
4899.32
4899.29
4899.27
4899.26
4899.25
4899.25
4899.25
4899.26
4899.27
4899.27
4899.27
4899.28
4899.3
4899.33
4899.36
4899.37
4899.38
4899.39
4899.4
4899.4
4899.39
4899.45
4899.46
4899.46
4899.46
4899.44
4899.42
4899.39
4899.37
4899.34
4899.31
4899.28
4899.26
4899.24
4899.24
4899.24
4899.25
4899.26
4899.26
4899.26
4899.27
4899.3
4899.33
4899.37
4899.39
4899.41
4899.43
4899.44
4899.45
4899.44
4899.47
4899.48
4899.5
4899.49
4899.48
4899.45
4899.42
4899.39
4899.37
4899.34
4899.3
4899.27
4899.24
4899.23
4899.23
4899.24
4899.24
4899.24
4899.24
4899.26
4899.29
4899.33
4899.37
4899.4
4899.43
4899.46
4899.48
4899.49
4899.51
4899.53
4899.56
4899.53
4899.53
4899.51
4899.49
4899.45
4899.42
4899.39
4899.36
4899.33
4899.29
4899.26
4899.23
4899.23
4899.23
4899.23
4899.23
4899.24
4899.25
4899.27
4899.3
4899.34
4899.38
4899.41
4899.44
4899.48
4899.5
4899.51
4899.55
4899.6
4899.56
4899.57
4899.56
4899.53
4899.5
4899.46
4899.43
4899.4
4899.36
4899.32
4899.28
4899.25
4899.24
4899.23
4899.24
4899.23
4899.23
4899.24
4899.25
4899.27
4899.3
4899.33
4899.36
4899.4
4899.43
4899.46
4899.49
4899.53
4899.58
4899.59
4899.53
4899.62
4899.59
4899.57
4899.53
4899.49
4899.46
4899.42
4899.37
4899.33
4899.29
4899.26
4899.25
4899.25
4899.24
4899.23
4899.22
4899.22
4899.24
4899.26
4899.28
4899.3
4899.34
4899.38
4899.42
4899.45
4899.52
4899.58
4899.6
4899.58
4899.61
4899.69
4899.66
4899.63
4899.6
4899.55
4899.51
4899.45
4899.4
4899.34
4899.31
4899.28
4899.26
4899.25
4899.22
4899.2
4899.19
4899.19
4899.21
4899.23
4899.26
4899.29
4899.33
4899.38
4899.43
4899.5
4899.59
4899.64
4899.63
4899.67
4899.73
4899.78
4899.76
4899.73
4899.69
4899.63
4899.57
4899.5
4899.44
4899.38
4899.34
4899.31
4899.27
4899.23
4899.2
4899.17
4899.17
4899.18
4899.2
4899.23
4899.27
4899.32
4899.36
4899.42
4899.5
4899.59
4899.67
4899.71
4899.74
4899.83
4899.83
4899.92
4899.9
4899.86
4899.81
4899.74
4899.67
4899.59
4899.51
4899.44
4899.38
4899.33
4899.27
4899.22
4899.18
4899.16
4899.17
4899.19
4899.22
4899.27
4899.31
4899.37
4899.42
4899.49
4899.61
4899.69
4899.74
4899.8
4899.9
4899.93
4899.93
4900.08
4900.07
4900.02
4899.97
4899.89
4899.8
4899.69
4899.59
4899.5
4899.42
4899.34
4899.28
4899.22
4899.19
4899.18
4899.19
4899.21
4899.25
4899.3
4899.35
4899.41
4899.49
4899.58
4899.7
4899.77
4899.83
4899.96
4900.05
4900.05
4900.09
4900.29
4900.28
4900.24
4900.17
4900.07
4899.95
4899.81
4899.68
4899.57
4899.46
4899.37
4899.3
4899.25
4899.21
4899.2
4899.2
4899.23
4899.27
4899.32
4899.37
4899.45
4899.58
4899.69
4899.8
4899.89
4900.01
4900.17
4900.22
4900.26
4900.3
4900.55
4900.55
4900.49
4900.4
4900.27
4900.12
4899.96
4899.8
4899.67
4899.54
4899.44
4899.35
4899.28
4899.24
4899.21
4899.21
4899.24
4899.27
4899.34
4899.41
4899.54
4899.71
4899.82
4899.94
4900.09
4900.26
4900.39
4900.46
4900.51
4900.55
4900.88
4900.87
4900.79
4900.67
4900.51
4900.34
4900.15
4899.97
4899.81
4899.65
4899.52
4899.41
4899.31
4899.25
4899.21
4899.21
4899.25
4899.29
4899.39
4899.51
4899.68
4899.87
4899.99
4900.16
4900.39
4900.54
4900.66
4900.77
4900.83
4900.88
4901.27
4901.26
4901.15
4901.01
4900.82
4900.62
4900.4
4900.19
4899.98
4899.79
4899.61
4899.47
4899.34
4899.26
4899.23
4899.24
4899.29
4899.35
4899.48
4899.66
4899.84
4900.05
4900.21
4900.45
4900.71
4900.85
4901
4901.13
4901.24
4901.28
4901.75
4901.73
4901.6
4901.42
4901.2
4900.97
4900.72
4900.46
4900.2
4899.95
4899.73
4899.54
4899.4
4899.31
4899.28
4899.29
4899.34
4899.41
4899.58
4899.79
4899.98
4900.22
4900.46
4900.77
4901.03
4901.2
4901.41
4901.59
4901.71
4901.75
4902.34
4902.29
4902.13
4901.93
4901.68
4901.41
4901.1
4900.77
4900.45
4900.14
4899.87
4899.65
4899.48
4899.37
4899.32
4899.31
4899.38
4899.48
4899.7
4899.94
4900.16
4900.47
4900.79
4901.12
4901.41
4901.66
4901.93
4902.15
4902.27
4902.35
4903.06
4902.99
4902.81
4902.58
4902.28
4901.93
4901.54
4901.15
4900.76
4900.41
4900.08
4899.8
4899.59
4899.45
4899.38
4899.37
4899.45
4899.59
4899.84
4900.11
4900.39
4900.79
4901.18
4901.54
4901.9
4902.25
4902.58
4902.8
4902.98
4903.1
4903.94
4903.86
4903.66
4903.37
4903
4902.56
4902.11
4901.64
4901.18
4900.74
4900.34
4899.99
4899.75
4899.57
4899.48
4899.45
4899.57
4899.74
4900.04
4900.33
4900.71
4901.2
4901.66
4902.11
4902.58
4903.02
4903.37
4903.67
4903.91
4904
4905.05
4904.95
4904.69
4904.33
4903.88
4903.37
4902.81
4902.25
4901.68
4901.15
4900.67
4900.25
4899.95
4899.73
4899.62
4899.6
4899.75
4899.94
4900.28
4900.64
4901.16
4901.73
4902.27
4902.84
4903.41
4903.91
4904.34
4904.73
4905
4905.08
4906.4
4906.27
4905.96
4905.52
4904.98
4904.36
4903.69
4903.01
4902.34
4901.67
4901.09
4900.6
4900.24
4899.98
4899.83
4899.79
4899.97
4900.21
4900.63
4901.09
4901.72
4902.36
4903
4903.7
4904.38
4904.95
4905.53
4905.96
4906.27
4906.39
4908.06
4907.89
4907.52
4906.99
4906.34
4905.59
4904.79
4903.96
4903.15
4902.36
4901.66
4901.1
4900.65
4900.33
4900.14
4900.15
4900.35
4900.65
4901.11
4901.69
4902.41
4903.16
4903.95
4904.79
4905.58
4906.3
4907.01
4907.54
4907.91
4908.05
4910.08
4909.87
4909.42
4908.8
4908.02
4907.12
4906.16
4905.17
4904.17
4903.27
4902.44
4901.78
4901.21
4900.86
4900.61
4900.66
4900.86
4901.24
4901.76
4902.47
4903.28
4904.14
4905.13
4906.14
4907.08
4908.03
4908.79
4909.47
4909.87
4910.09
4912.55
4912.28
4911.76
4911.01
4910.08
4909.01
4907.84
4906.68
4905.52
4904.45
4903.48
4902.69
4902.01
4901.6
4901.33
4901.41
4901.61
4902.03
4902.64
4903.47
4904.44
4905.51
4906.67
4907.84
4908.96
4910.08
4911.02
4911.77
4912.27
4912.53
4915.55
4915.23
4914.6
4913.7
4912.59
4911.33
4909.96
4908.58
4907.24
4905.99
4904.88
4903.93
4903.18
4902.67
4902.41
4902.43
4902.68
4903.17
4903.93
4904.9
4906.01
4907.26
4908.59
4909.97
4911.33
4912.57
4913.71
4914.56
4915.21
4915.53
4919.2
4918.81
4918.07
4917.02
4915.69
4914.2
4912.61
4910.99
4909.43
4908.01
4906.75
4905.67
4904.8
4904.22
4903.92
4903.92
4904.22
4904.78
4905.66
4906.75
4908
4909.42
4910.95
4912.54
4914.18
4915.7
4916.99
4918.08
4918.79
4919.18
4923.59
4923.11
4922.19
4920.92
4919.38
4917.67
4915.82
4913.95
4912.25
4910.68
4909.26
4908.03
4907.03
4906.35
4905.99
4906
4906.35
4907.01
4908.02
4909.26
4910.66
4912.23
4913.91
4915.81
4917.69
4919.42
4920.91
4922.22
4923.09
4923.57
4928.99
4928.41
4927.31
4925.82
4924.06
4922.13
4920.06
4917.97
4915.76
4913.84
4912.03
4910.42
4909.08
4908.11
4907.59
4907.6
4908.12
4909.04
4910.41
4912.04
4913.82
4915.76
4917.94
4920.06
4922.12
4924.06
4925.81
4927.33
4928.41
4928.97
4661.7
4667.64
4660.7
4640.88
4617.04
4589
4556.56
4530.85
4512.91
4499.94
4492.11
4490.49
4485.07
4478.74
4475.11
4475.17
4478.71
4485.18
4490.62
4492.14
4500.08
4513.07
4530.99
4556.65
4589.11
4617.09
4640.87
4660.74
4667.62
4661.71
2195.1
2160.68
2092.83
2021.78
1951.14
1877.34
1803.12
1724.87
1663.08
1596.48
1526.95
1472.88
1427.7
1397.32
1380.43
1380.37
1397.32
1427.65
1472.76
1526.87
1596.37
1662.94
1724.74
1803.03
1877.18
1951.02
2021.68
2092.64
2160.57
2194.95
78.8063
66.6859
51.0644
37.7923
27.832
19.1209
11.852
12.2559
1.3402
0.663432
0.185399
0.052819
0.0315212
0.0288336
0.0285008
0.0285244
0.028887
0.031567
0.0536416
0.185267
0.663797
1.33962
12.2471
11.8498
19.1065
27.8252
37.8208
51.053
66.649
78.7922
9.11919
7.83751
5.78691
4.06908
2.69235
1.6737
1.18741
1.26359
1.53595
0.834121
1.61487
1.89312
1.21934
0.641532
0.680687
0.680762
0.641375
1.21852
1.89298
1.61561
0.83598
1.53682
1.26476
1.188
1.67512
2.6946
4.0706
5.7904
7.83536
9.13222
1.94827
1.79141
1.14821
0.693101
0.38942
0.205686
0.130871
0.217876
0.306731
0.397277
0.357142
0.488401
0.485151
0.57614
0.542799
0.542723
0.576443
0.485493
0.489193
0.35744
0.397718
0.307235
0.218608
0.13158
0.205934
0.38974
0.693693
1.14926
1.79359
1.95339
0.315454
0.325583
0.146856
0.0604949
0.0161113
-0.00652637
-0.0101379
0.000992063
0.0133071
0.0382564
0.0545092
0.0716424
0.11992
0.130828
0.130514
0.130577
0.131162
0.120471
0.0723078
0.0549999
0.0387943
0.0138471
0.001319
-0.00995957
-0.00658437
0.0159772
0.0604477
0.147125
0.326403
0.314693
0.00612272
0.0105104
-0.00997896
-0.0230983
-0.0268276
-0.0266646
-0.0242782
-0.0217454
-0.0194227
-0.0155801
-0.0103094
-0.00316264
0.00821373
0.0195776
0.02854
0.02851
0.0196051
0.00833629
-0.0030245
-0.0102277
-0.015487
-0.0193758
-0.0217569
-0.0243578
-0.0268086
-0.0269883
-0.0233123
-0.0101338
0.0104374
0.00549999
-0.0305517
-0.029809
-0.0305671
-0.0297763
-0.027546
-0.0248222
-0.0222076
-0.0198908
-0.0178559
-0.0160797
-0.0145521
-0.0132817
-0.0123776
-0.0113848
-0.00910624
-0.00910572
-0.0113837
-0.0123748
-0.0132626
-0.0145375
-0.0160667
-0.0178782
-0.019933
-0.0222938
-0.0249682
-0.0277175
-0.0300484
-0.0308896
-0.0301376
-0.0310474
-0.0296099
-0.028756
-0.027487
-0.025528
-0.0231796
-0.0207585
-0.018483
-0.0164245
-0.0145962
-0.0129827
-0.0116582
-0.0105849
-0.00984011
-0.00945381
-0.00927387
-0.0092626
-0.00943457
-0.00983511
-0.0105791
-0.0116457
-0.0129598
-0.0146029
-0.0164745
-0.0185855
-0.0209211
-0.0233872
-0.0257999
-0.0278271
-0.0291417
-0.0300377
-0.0243039
-0.0236138
-0.0224596
-0.0208781
-0.0190087
-0.0170608
-0.0151769
-0.0134296
-0.0118386
-0.0104145
-0.00921134
-0.00822516
-0.00747575
-0.00695624
-0.00667335
-0.0066595
-0.00692256
-0.00745055
-0.00821765
-0.00920663
-0.0104063
-0.011846
-0.0134764
-0.015273
-0.0171988
-0.0191967
-0.0211196
-0.0227912
-0.0240179
-0.0247027
-0.0195735
-0.0190666
-0.0182076
-0.0169757
-0.0155537
-0.0140095
-0.0124758
-0.011005
-0.00962711
-0.0084021
-0.00736192
-0.00649603
-0.00582429
-0.00536566
-0.00511504
-0.00510262
-0.00533435
-0.00579217
-0.00647051
-0.00734641
-0.00840803
-0.00965141
-0.0110446
-0.0125559
-0.0141328
-0.0157207
-0.0172131
-0.0184877
-0.019423
-0.019933
-0.0157102
-0.0153696
-0.0146955
-0.0137894
-0.0126826
-0.0114757
-0.0102241
-0.00897504
-0.00780529
-0.00676203
-0.00585474
-0.00509499
-0.00449885
-0.00407622
-0.0038459
-0.0038452
-0.00407143
-0.00448847
-0.00508488
-0.00585299
-0.00677994
-0.00785055
-0.0090364
-0.0103025
-0.0116004
-0.012878
-0.0140515
-0.0150215
-0.0157128
-0.0160867
-0.0127488
-0.0124519
-0.0119466
-0.0112583
-0.0104001
-0.0094381
-0.00839513
-0.00734987
-0.00637286
-0.00549212
-0.00470397
-0.00402938
-0.003499
-0.00313245
-0.00293581
-0.00294622
-0.00314809
-0.00350364
-0.00402124
-0.00469561
-0.00550803
-0.00642546
-0.00742112
-0.00846472
-0.00952498
-0.0105489
-0.011465
-0.0122001
-0.0127204
-0.0130114
-0.0102857
-0.0100555
-0.00970467
-0.00915891
-0.00850347
-0.00770504
-0.00684357
-0.00599067
-0.00516331
-0.00439288
-0.00370606
-0.00312054
-0.00265373
-0.00233021
-0.00216501
-0.00217089
-0.00233528
-0.00264277
-0.00309762
-0.00368818
-0.00439149
-0.00517994
-0.00603217
-0.00691584
-0.0077979
-0.0086184
-0.00933231
-0.00991041
-0.0103312
-0.0105685
-0.00830768
-0.00815698
-0.00786523
-0.00745416
-0.00690872
-0.00625403
-0.00555504
-0.00482701
-0.00410764
-0.00343677
-0.00283707
-0.00231595
-0.00189151
-0.00159665
-0.00145187
-0.00145982
-0.00160565
-0.00188413
-0.00229957
-0.00283782
-0.00347185
-0.00417176
-0.00490978
-0.00565348
-0.00636241
-0.00701676
-0.00759523
-0.0080727
-0.00842091
-0.00860905
-0.00676126
-0.00666012
-0.00641152
-0.00608307
-0.00562644
-0.00510142
-0.00451461
-0.00389266
-0.00327769
-0.00269611
-0.00215646
-0.00167541
-0.0012861
-0.00102136
-0.000894441
-0.000905957
-0.00104743
-0.00131679
-0.00171047
-0.00220534
-0.00276367
-0.00335332
-0.00395841
-0.00456332
-0.00514865
-0.00569125
-0.00617726
-0.00657714
-0.00686179
-0.00701282
-0.00554776
-0.00541353
-0.00522203
-0.00492783
-0.00456973
-0.00414227
-0.00365611
-0.00313883
-0.00261327
-0.00209206
-0.00159404
-0.00115036
-0.000794103
-0.000546763
-0.000420776
-0.000426411
-0.000561903
-0.000817956
-0.00117673
-0.00161413
-0.0021001
-0.00260939
-0.00312665
-0.00364078
-0.00413794
-0.00460257
-0.0050123
-0.00534735
-0.00558492
-0.00571177
-0.00445842
-0.00435281
-0.0041935
-0.00395989
-0.00366729
-0.00331074
-0.00290902
-0.00247395
-0.00201571
-0.00155376
-0.00110994
-0.000707888
-0.000373744
-0.00012862
4.17115e-06
6.46035e-06
-0.00012218
-0.000362315
-0.000689689
-0.0010853
-0.00152085
-0.00197774
-0.00243795
-0.00289074
-0.00332455
-0.00372543
-0.00407656
-0.00435601
-0.00454936
-0.0046516
-0.0036113
-0.00356694
-0.003412
-0.00319679
-0.00291756
-0.0026078
-0.00226464
-0.00189016
-0.00149196
-0.00108794
-0.000690638
-0.000318447
-1.1837e-06
0.000230241
0.000351696
0.000350771
0.000231117
1.13641e-05
-0.000288442
-0.000651062
-0.00105577
-0.00147972
-0.00190208
-0.00231197
-0.00269238
-0.00303371
-0.00332264
-0.00354734
-0.00369705
-0.0037725
-0.00299004
-0.00293164
-0.00276872
-0.00255305
-0.00230912
-0.00205174
-0.00175885
-0.00142956
-0.00107499
-0.000706755
-0.000337843
5.04744e-06
0.000287907
0.000485989
0.000586425
0.000582489
0.00047506
0.000272516
-9.42686e-06
-0.000350559
-0.000727055
-0.00111351
-0.00148925
-0.00184325
-0.00216643
-0.00244975
-0.00268363
-0.0028609
-0.00297779
-0.00303597
-0.00242918
-0.00235406
-0.00222684
-0.00205019
-0.00185812
-0.00163236
-0.00136584
-0.00106686
-0.000742151
-0.000401966
-6.75114e-05
0.000231146
0.00046927
0.000635966
0.00072519
0.000723928
0.000628494
0.00044217
0.000184263
-0.00011998
-0.00044745
-0.00078005
-0.00110485
-0.00141289
-0.00169449
-0.00193838
-0.00213514
-0.0022812
-0.0023777
-0.00242797
-0.00191304
-0.00185054
-0.00176074
-0.00162656
-0.00145693
-0.00124509
-0.00100319
-0.000733866
-0.000438399
-0.000131697
0.000160966
0.000416971
0.000623343
0.000773402
0.000857698
0.000859346
0.000773317
0.000605919
0.000378972
0.000115658
-0.000167905
-0.000461402
-0.000754651
-0.00103522
-0.0012891
-0.00150445
-0.00167536
-0.00180262
-0.00188955
-0.0019375
-0.00143538
-0.00140498
-0.00132716
-0.00121562
-0.00105988
-0.000870742
-0.000656344
-0.000413414
-0.000147959
0.00011983
0.000368784
0.000586204
0.00076433
0.000894305
0.000963961
0.000960852
0.000882348
0.000737118
0.000542353
0.000314394
6.45147e-05
-0.000198263
-0.000462501
-0.000714189
-0.000940623
-0.00113365
-0.00129046
-0.00141135
-0.00149579
-0.00154075
-0.00106859
-0.00105576
-0.000989146
-0.000887825
-0.000740316
-0.000560192
-0.000352892
-0.000124746
0.000109654
0.000333164
0.000534951
0.000710038
0.000852061
0.00095135
0.000999041
0.000990425
0.000926228
0.00081176
0.000655335
0.000465921
0.00025234
2.42664e-05
-0.000206885
-0.000429391
-0.000633744
-0.000813469
-0.000963921
-0.00108058
-0.00115831
-0.00119299
-0.000797758
-0.000781835
-0.000727853
-0.000620837
-0.000468013
-0.000284903
-8.46925e-05
0.000118036
0.000311792
0.000490299
0.000650445
0.000788238
0.000896388
0.000967228
0.000997408
0.000987922
0.000940431
0.000855571
0.000734334
0.000580543
0.000401673
0.000207587
8.79806e-06
-0.000185156
-0.000366421
-0.000528081
-0.000663163
-0.000764744
-0.000827355
-0.000849155
-0.00050966
-0.000495952
-0.000436525
-0.00032301
-0.000179089
-1.83571e-05
0.000145588
0.00030325
0.000452232
0.000592336
0.000720085
0.000828193
0.0009088
0.000957401
0.000974673
0.000963906
0.0009267
0.00086179
0.000767678
0.000646327
0.000504028
0.000349399
0.00019089
3.5625e-05
-0.000110332
-0.000240971
-0.000349858
-0.000430964
-0.000480199
-0.000496687
-0.000186496
-0.000171337
-0.000102642
-8.64302e-06
9.81451e-05
0.000213493
0.000331746
0.000449475
0.000565141
0.000675372
0.000773447
0.000851689
0.000905077
0.000932911
0.000938115
0.000924567
0.000894256
0.000846706
0.000780781
0.000697218
0.000599365
0.000492086
0.000380083
0.0002676
0.000158894
5.88122e-05
-2.72157e-05
-9.39984e-05
-0.000137641
-0.000156238
0.000136257
0.000167443
0.000219757
0.000273894
0.000338409
0.000416922
0.000506602
0.000601076
0.000692561
0.000773974
0.000839893
0.000887261
0.000915689
0.000927103
0.000924728
0.000911955
0.000891067
0.000862567
0.000825499
0.000778574
0.000721178
0.000653763
0.000578014
0.000496792
0.000414115
0.000334922
0.0002645
0.000207701
0.000168302
0.000148634
0.0004475
0.000483527
0.000503914
0.000528115
0.000568789
0.00062693
0.000696254
0.000766312
0.000827805
0.000876047
0.000910613
0.000933132
0.000945418
0.000948993
0.00094552
0.000937058
0.000925618
0.000912048
0.000895111
0.000871953
0.000839561
0.000796254
0.000742619
0.000681584
0.000617691
0.000556003
0.000501122
0.000456627
0.000424977
0.000407676
0.000715462
0.000735836
0.000740601
0.000756805
0.000786593
0.000826436
0.00086954
0.000908303
0.000938083
0.000958582
0.000971919
0.000980036
0.00098371
0.000983154
0.000979001
0.00097277
0.000966237
0.000960133
0.000953097
0.000942067
0.000923676
0.000895962
0.000859342
0.000816479
0.000771225
0.000727417
0.00068802
0.000654981
0.000629614
0.000613194
0.00089565
0.00090321
0.000911982
0.000926929
0.00094516
0.000964857
0.000984018
0.00100125
0.00101584
0.00102716
0.0010342
0.00103595
0.00103224
0.00102435
0.00101472
0.00100611
0.00100041
0.00099784
0.000996582
0.000993591
0.000985674
0.000970792
0.000948761
0.000921027
0.000889881
0.000857679
0.000826388
0.000797585
0.000772884
0.000754453
0.000988798
0.000998061
0.00100886
0.00101766
0.00102496
0.00103281
0.00104369
0.00105884
0.00107637
0.00109125
0.00109805
0.00109434
0.00108167
0.00106442
0.00104789
0.0010362
0.00103114
0.00103176
0.00103524
0.00103795
0.00103661
0.00102896
0.00101419
0.00099276
0.000966051
0.000936082
0.000905115
0.00087558
0.000850163
0.000831699
0.00102903
0.00103842
0.00104398
0.00104924
0.00105616
0.00106661
0.00108238
0.00110286
0.00112353
0.00113732
0.00113879
0.00112701
0.00110609
0.00108284
0.00106379
0.0010527
0.00105009
0.00105349
0.00105913
0.00106305
0.00106214
0.00105447
0.0010393
0.0010171
0.000989522
0.000958964
0.000928339
0.000900887
0.000879608
0.000866673
0.00103475
0.00103634
0.00104184
0.00105483
0.00107242
0.0010925
0.00111344
0.0011324
0.00114466
0.00114609
0.00113549
0.00111552
0.00109169
0.00107017
0.00105533
0.00104879
0.00104934
0.0010535
0.00105736
0.00105804
0.00105358
0.00104302
0.00102628
0.00100426
0.000978685
0.000952071
0.000927386
0.000907476
0.000894557
0.000889401
0.00101793
0.00101567
0.00103055
0.00105491
0.00108191
0.00110687
0.00112582
0.00113527
0.00113321
0.00112045
0.00110055
0.00107839
0.00105877
0.00104511
0.00103769
0.00103608
0.0010379
0.00104027
0.00103984
0.0010361
0.00102863
0.00101751
0.001003
0.000985946
0.000967525
0.000949535
0.000933936
0.000922528
0.000916579
0.00091615
0.00100292
0.00100785
0.00102888
0.00105504
0.0010806
0.0011012
0.00111277
0.00111269
0.0011015
0.00108317
0.0010633
0.001046
0.00103288
0.0010258
0.00102429
0.00102452
0.0010245
0.00102293
0.00101953
0.00101369
0.00100644
0.00099842
0.000989779
0.000980399
0.00097073
0.000961354
0.000953244
0.000947394
0.000944564
0.000944833
0.00100923
0.00101985
0.0010363
0.00105305
0.00106895
0.00108095
0.00108548
0.0010808
0.0010684
0.00105219
0.00103617
0.00102335
0.00101608
0.00101311
0.0010115
0.00100888
0.00100473
0.000998858
0.000993278
0.000988793
0.000985438
0.000983076
0.000981421
0.000979977
0.000978127
0.000975652
0.000972811
0.000970326
0.000968858
0.000968725
0.0010262
0.00103246
0.00103805
0.00104481
0.00105272
0.00105865
0.00105931
0.00105344
0.00104221
0.00102812
0.00101437
0.00100363
0.000996
0.000989233
0.000982438
0.000975114
0.000967563
0.000960908
0.000956583
0.000955414
0.000957264
0.000961482
0.000967006
0.000972747
0.000977762
0.000981572
0.000984144
0.000985847
0.00098724
0.000988533
0.00103224
0.00102973
0.00102913
0.00103302
0.00103855
0.00104156
0.00103928
0.00103116
0.00101855
0.00100361
0.000988091
0.000973167
0.000959175
0.000945947
0.000933666
0.000923016
0.000914992
0.000910656
0.000910742
0.000915352
0.000923898
0.000935193
0.000947954
0.000960953
0.000973273
0.000984307
0.000993746
0.0010014
0.0010075
0.00101165
0.00102841
0.00102196
0.00102375
0.00102887
0.00103189
0.00102952
0.00102086
0.00100672
0.000988811
0.000968967
0.00094858
0.00092864
0.000909896
0.000893104
0.000879322
0.000869648
0.000865041
0.000865881
0.000872134
0.000883323
0.000898538
0.000916579
0.000936316
0.000956375
0.000975998
0.000994473
0.00101071
0.00102424
0.00103433
0.00104023
0.00103603
0.00103436
0.00103778
0.00103867
0.0010317
0.00101767
0.000997708
0.00097406
0.000948979
0.000924169
0.000900678
0.000879186
0.000860389
0.000845202
0.000834709
0.000829367
0.000829485
0.000835314
0.000847054
0.000863759
0.000884401
0.000908024
0.000933315
0.000959437
0.000985289
0.00101006
0.00103177
0.00104906
0.00106036
0.00106495
0.00106416
0.00106832
0.00106736
0.00105442
0.00103162
0.00100132
0.00096766
0.00093406
0.000902885
0.000875317
0.000851719
0.000832143
0.000816702
0.000805683
0.000799396
0.000798559
0.000803489
0.000813993
0.000829333
0.000849201
0.0008731
0.000900257
0.000929755
0.000960611
0.000991391
0.00101971
0.00104417
0.0010626
0.00107354
0.00107728
0.00109674
0.00110152
0.00108904
0.00105949
0.00102007
0.000975626
0.000931403
0.000891008
0.000856316
0.00082779
0.000805125
0.000787801
0.000775406
0.000767739
0.000764784
0.00076668
0.000773541
0.000785472
0.000802315
0.000823878
0.000849841
0.000879654
0.000912285
0.000946216
0.000979533
0.00100994
0.00103538
0.00105374
0.00106359
0.00106544
0.00109974
0.0010999
0.00107627
0.00103638
0.000988193
0.000937806
0.000889911
0.000847386
0.000811446
0.000782133
0.000758973
0.000741383
0.000728889
0.000721178
0.000718136
0.000719842
0.000726495
0.000738357
0.000755574
0.000778116
0.000805631
0.000837346
0.000871928
0.000907542
0.000942003
0.00097297
0.000998275
0.00101603
0.00102495
0.00102595
0.00105162
0.00104779
0.00102028
0.00098024
0.000934344
0.00088712
0.00084191
0.000800719
0.000764487
0.000733507
0.000707792
0.000687277
0.000671904
0.000661675
0.00065667
0.000657088
0.000663201
0.000675239
0.000693261
0.000717022
0.000745875
0.00077869
0.000813858
0.000849411
0.000883194
0.000913041
0.00093703
0.000953645
0.000961979
0.000962555
0.00095731
0.000951717
0.000929214
0.00089786
0.000861427
0.000822367
0.000782664
0.000743896
0.000707345
0.000674123
0.000645149
0.00062118
0.000602789
0.000590396
0.000584301
0.000584709
0.000591713
0.000605224
0.000624895
0.000650039
0.000679614
0.000712197
0.000746079
0.000779387
0.000810249
0.000836959
0.000858043
0.000872403
0.000879444
0.00087961
0.000832057
0.000829051
0.000815877
0.000795638
0.000769559
0.000738453
0.000703782
0.000667306
0.000630863
0.000596409
0.000565749
0.00054035
0.000521283
0.000509215
0.00050445
0.000506979
0.000516492
0.000532399
0.000553844
0.000579694
0.000608586
0.000639008
0.000669382
0.000698145
0.000723928
0.000745667
0.000762283
0.000773084
0.000777657
0.000776804
0.000687546
0.000688356
0.000683001
0.000671148
0.000652621
0.000627477
0.00059711
0.000563428
0.000528856
0.000495931
0.000466892
0.000443459
0.000426846
0.000417688
0.000416081
0.0004217
0.000433798
0.00045136
0.000473186
0.000497917
0.00052399
0.000550033
0.000574837
0.000597535
0.000617116
0.000632849
0.000644186
0.000650772
0.00065228
0.000649716
0.000522113
0.000526126
0.000524913
0.000517985
0.000504354
0.000484046
0.000458603
0.000430009
0.000400699
0.000373119
0.000349374
0.000331011
0.000319021
0.000313811
0.000315234
0.000322724
0.000335323
0.000351872
0.000371121
0.000391785
0.000412484
0.000432462
0.000450717
0.000466647
0.000479794
0.000489747
0.000496306
0.000499359
0.000498167
0.00049434
0.000331934
0.000335386
0.000335345
0.000331142
0.000321929
0.000308084
0.000290498
0.00027081
0.000250878
0.00023246
0.000217008
0.000205573
0.000198759
0.000196726
0.000199238
0.000205733
0.000215405
0.000227323
0.000240532
0.000254201
0.000267564
0.000280158
0.00029128
0.00030057
0.000307841
0.000312972
0.000315972
0.000316792
0.00031481
0.000311166
0.000114808
0.000115891
0.000116214
0.00011506
0.000112069
0.000107405
0.000101154
9.40233e-05
8.68078e-05
8.01578e-05
7.4609e-05
7.05536e-05
6.82264e-05
6.76609e-05
6.87464e-05
7.12429e-05
7.48283e-05
7.91436e-05
8.38389e-05
8.86137e-05
9.32275e-05
9.76644e-05
0.000101521
0.000104675
0.000107069
0.000108644
0.00010958
0.000109749
0.000108786
0.000107028
4899.24
4899.24
4899.24
4899.24
4899.24
4899.24
4899.25
4899.25
4899.25
4899.25
4899.25
4899.25
4899.26
4899.26
4899.26
4899.26
4899.26
4899.26
4899.25
4899.25
4899.25
4899.25
4899.25
4899.25
4899.25