/*--------------------------------*- C++ -*----------------------------------*\
| =========                 |                                                 |
| \\      /  F ield         | OpenFOAM: The Open Source CFD Toolbox           |
|  \\    /   O peration     | Version:  2312                                  |
|   \\  /    A nd           | Website:  www.openfoam.com                      |
|    \\/     M anipulation  |                                                 |
\*---------------------------------------------------------------------------*/
FoamFile
{
    version     2.0;
    format      ascii;
    arch        "LSB;label=32;scalar=64";
    class       surfaceScalarField;
    location    "0.692487";
    object      phi;
}
// * * * * * * * * * * * * * * * * * * * * * * * * * * * * * * * * * * * * * //

dimensions      [0 3 -1 0 0 0 0];

oriented        oriented;

internalField   nonuniform List<scalar> 
263100
(
8.04012e-11
-1.60802e-10
8.04013e-11
-1.06121e-09
1.43567e-09
-2.80779e-10
-1.71666e-09
1.0034e-09
-3.3718e-10
-2.08081e-09
8.17606e-10
-4.43124e-10
-2.20513e-09
6.31308e-10
-4.96899e-10
-2.09811e-09
4.00865e-10
-4.98045e-10
-1.79637e-09
1.78805e-10
-4.7075e-10
-1.38308e-09
1.84919e-11
-4.21938e-10
-9.7708e-10
-3.03647e-11
-3.65536e-10
-6.5446e-10
3.57627e-11
-3.47898e-10
-4.26255e-10
1.70744e-10
-3.88126e-10
-2.5796e-10
3.27353e-10
-4.8444e-10
-8.79125e-11
4.40127e-10
-5.98805e-10
1.63356e-10
4.7057e-10
-7.10344e-10
5.44916e-10
4.15075e-10
-7.85011e-10
1.05591e-09
2.85436e-10
-7.84704e-10
1.60536e-09
1.40018e-10
-6.77593e-10
2.0346e-09
6.61668e-11
-4.83231e-10
2.19899e-09
1.03718e-10
-2.55543e-10
1.98607e-09
2.79058e-10
-5.31647e-11
1.34267e-09
5.65723e-10
9.09832e-11
2.98164e-10
9.22796e-10
1.35252e-10
-1.01943e-09
1.21521e-09
1.16054e-10
-2.37215e-09
1.32892e-09
3.7535e-11
-3.36383e-09
1.11481e-09
-1.0936e-10
-3.72702e-09
5.75613e-10
-1.98629e-10
-3.60084e-09
-4.48023e-11
-6.75073e-11
-3.51081e-09
-4.23856e-10
3.47633e-10
-4.12069e-09
-7.19324e-10
1.34298e-09
-1.12281e-08
7.12212e-09
-4.4466e-10
7.4193e-10
-4.4466e-10
-6.11363e-10
2.00911e-09
-3.85692e-10
-7.29323e-10
1.50568e-09
-3.65628e-10
-8.06863e-10
1.18123e-09
-2.67964e-10
-8.34001e-10
8.36723e-10
-1.60395e-10
-8.2225e-10
4.70103e-10
-6.31894e-11
-7.7702e-10
1.51562e-10
1.05638e-15
-7.06791e-10
-4.58483e-11
1.25954e-11
-6.07555e-10
-1.12005e-10
1.38053e-12
-4.64831e-10
-5.85035e-11
-2.87453e-11
-2.70895e-10
7.49653e-11
-7.79603e-11
-2.6981e-11
2.13926e-10
-1.09964e-10
2.45966e-10
3.03976e-10
-1.16006e-10
5.20497e-10
3.1461e-10
-9.75605e-11
7.66141e-10
2.49715e-10
-5.90567e-11
9.43502e-10
1.61663e-10
-3.20397e-11
1.0188e-09
1.15898e-10
-2.91202e-11
9.98237e-10
1.77025e-10
-6.75988e-11
8.87157e-10
3.87163e-10
-1.48999e-10
6.81494e-10
7.45157e-10
-2.36501e-10
4.26936e-10
1.16803e-09
-3.23412e-10
1.51863e-10
1.55691e-09
-3.34462e-10
-7.24373e-11
1.76105e-09
-2.96817e-10
-1.5687e-10
1.63021e-09
-1.92168e-10
-3.99059e-11
1.02658e-09
-4.617e-12
3.52638e-10
8.52451e-11
1.18997e-10
9.60666e-10
-8.19803e-10
1.73186e-10
1.13147e-09
-5.43387e-10
-1.12795e-10
-1.49519e-09
2.07036e-09
-4.53077e-10
-1.40885e-08
3.97186e-10
-2.92469e-10
1.33752e-09
-2.92469e-10
1.47054e-10
1.69196e-09
-1.04712e-10
3.95011e-10
1.2721e-09
1.3833e-12
5.03194e-10
1.00068e-09
8.7895e-11
4.76927e-10
7.19361e-10
1.59222e-10
3.24809e-10
4.39446e-10
1.98685e-10
9.32691e-11
2.11091e-10
1.88141e-10
-1.28829e-10
5.12893e-11
1.41651e-10
-2.68569e-10
-2.3827e-11
6.86078e-11
-2.598e-10
-3.83803e-11
-1.15009e-11
-9.21408e-11
-1.74551e-11
-5.75707e-11
1.87417e-10
3.71078e-12
-5.14635e-11
4.94097e-10
2.09968e-11
-5.65027e-12
7.14012e-10
4.37037e-11
6.92166e-11
7.60662e-10
9.12623e-11
1.30302e-10
6.08316e-10
1.95402e-10
1.37502e-10
3.05008e-10
3.71044e-10
6.75371e-11
-4.24956e-11
5.98468e-10
-5.40599e-11
-2.97651e-10
8.82936e-10
-2.20281e-10
-3.17446e-10
1.19703e-09
-4.11377e-10
-3.82806e-11
1.45312e-09
-5.43258e-10
5.12638e-10
1.60601e-09
-5.78738e-10
1.25043e-09
1.54847e-09
-5.03544e-10
2.0077e-09
1.18487e-09
-2.89439e-10
2.59178e-09
5.63273e-10
-9.55588e-11
2.80567e-09
-3.00798e-10
2.09716e-10
3.16009e-09
-1.44679e-09
3.6348e-10
4.80445e-09
-1.48424e-09
-4.41204e-10
3.24898e-09
5.34275e-09
-1.13673e-09
-6.89002e-09
-4.09179e-09
-3.53636e-11
1.41773e-09
-3.53636e-11
7.32288e-10
7.52608e-10
1.87557e-10
1.17398e-09
5.8944e-10
2.55458e-10
1.37968e-09
4.77699e-10
3.32036e-10
1.34588e-09
4.05215e-10
3.63013e-10
1.09568e-09
3.62752e-10
3.42589e-10
7.2177e-10
3.23449e-10
2.77488e-10
3.34315e-10
2.85709e-10
1.6931e-10
4.61905e-11
2.23887e-10
5.67504e-11
-7.65428e-11
1.32406e-10
-3.16149e-11
-1.2031e-11
1.39219e-11
-7.93683e-11
1.74027e-10
-9.09644e-11
-7.48189e-11
3.74696e-10
-1.34893e-10
-2.8032e-11
4.8337e-10
-7.83873e-11
3.04769e-11
4.19663e-10
1.11302e-10
6.11841e-11
1.69189e-10
4.17596e-10
4.63276e-11
-1.85769e-10
7.67299e-10
-2.27385e-11
-5.18033e-10
1.08412e-09
-1.34418e-10
-6.51819e-10
1.30466e-09
-2.68663e-10
-4.58262e-10
1.39046e-09
-3.67475e-10
1.1759e-10
1.34092e-09
-4.43898e-10
1.02186e-09
1.17381e-09
-4.51988e-10
2.07714e-09
8.94007e-10
-3.80399e-10
3.02174e-09
5.44999e-10
-2.84432e-10
3.56776e-09
2.40266e-10
-2.06228e-10
3.35507e-09
3.71453e-11
-1.28415e-10
2.26885e-09
-5.6415e-10
1.38859e-10
2.12145e-09
-1.79017e-09
3.30899e-10
2.8852e-09
4.52008e-09
2.43538e-10
-1.47636e-09
-2.54964e-09
1.87148e-10
1.05196e-09
1.87148e-10
1.10599e-09
-5.68554e-10
4.16697e-10
1.62685e-09
-3.71572e-10
4.53649e-10
1.88382e-09
-2.4003e-10
4.74893e-10
1.86351e-09
-1.40836e-11
4.54123e-10
1.61819e-09
2.46381e-10
3.76884e-10
1.21829e-09
4.68792e-10
2.6983e-10
7.78082e-10
5.93175e-10
1.48179e-10
3.98459e-10
5.8528e-10
3.35378e-11
1.23054e-10
4.47656e-10
-2.46267e-11
-2.99592e-11
2.51063e-10
-6.89409e-11
-7.93928e-11
5.86368e-11
-8.49482e-11
-8.07376e-11
-3.36951e-11
-8.43308e-11
-1.03555e-10
4.51997e-11
-8.47862e-11
-1.78052e-10
2.98504e-10
-9.61546e-11
-2.99384e-10
6.7523e-10
-1.1917e-10
-4.27111e-10
1.06007e-09
-1.47432e-10
-4.85542e-10
1.32075e-09
-1.60281e-10
-3.6919e-10
1.36671e-09
-1.60314e-10
-1.35264e-11
1.20152e-09
-1.48499e-10
5.87579e-10
8.98149e-10
-1.39928e-10
1.38749e-09
5.24598e-10
-1.32035e-10
2.20839e-09
2.35676e-10
-1.43764e-10
2.82226e-09
1.43164e-10
-1.92624e-10
3.1186e-09
2.91047e-10
-3.22285e-10
2.97682e-09
7.93733e-10
-5.72213e-10
1.78601e-09
1.51713e-09
-8.39718e-10
1.04707e-10
6.09442e-10
-7.54571e-10
8.03591e-10
4.4266e-09
-5.49771e-10
1.53478e-09
-2.20286e-09
3.42902e-10
3.73965e-10
3.42902e-10
1.19895e-09
-1.91637e-09
5.04955e-10
1.69127e-09
-1.35752e-09
5.06204e-10
1.97566e-09
-9.73449e-10
4.62398e-10
2.05121e-09
-4.55363e-10
3.79311e-10
1.93253e-09
1.03525e-10
2.75646e-10
1.6587e-09
5.91181e-10
1.65507e-10
1.28678e-09
9.04735e-10
7.44209e-11
8.53641e-10
1.00883e-09
2.3436e-11
4.04095e-10
9.21376e-10
-1.04258e-11
-2.61161e-11
7.15563e-10
-2.05405e-11
-4.06517e-10
4.96842e-10
-4.39385e-11
-6.82959e-10
3.47169e-10
-9.01793e-11
-8.21367e-10
3.37857e-10
-1.39533e-10
-8.28292e-10
4.80432e-10
-1.59777e-10
-7.08912e-10
7.25071e-10
-1.53519e-10
-4.92537e-10
9.65053e-10
-1.05311e-10
-2.11657e-10
1.06333e-09
-7.26025e-12
1.33381e-10
9.64171e-10
7.37183e-11
5.32016e-10
6.5964e-10
1.59494e-10
9.49095e-10
2.82602e-10
2.14948e-10
1.32572e-09
-4.39737e-11
2.09025e-10
1.58706e-09
-1.06141e-10
9.84227e-11
1.62345e-09
1.94371e-10
-7.00476e-11
1.37267e-09
8.14985e-10
-2.60145e-10
1.02016e-09
1.70488e-09
-5.47529e-10
5.18093e-10
3.08505e-09
-1.0334e-09
-8.55224e-10
3.24515e-09
-1.25454e-09
-4.02656e-10
5.20504e-09
-1.20528e-09
2.85445e-09
-1.71237e-09
3.23309e-10
-2.65383e-10
3.23309e-10
9.94336e-10
-2.97212e-09
3.96586e-10
1.43007e-09
-2.11915e-09
3.37213e-10
1.77952e-09
-1.54832e-09
2.37496e-10
2.02096e-09
-8.15619e-10
1.30954e-10
2.14653e-09
-4.85413e-11
3.89987e-11
2.10376e-09
6.49318e-10
-2.89388e-12
1.86697e-09
1.16326e-09
-9.2334e-12
1.43796e-09
1.434e-09
1.62397e-11
8.34923e-10
1.48934e-09
4.74867e-11
1.24716e-10
1.37664e-09
6.1589e-11
-5.63212e-10
1.15118e-09
4.61566e-11
-1.09882e-09
8.82686e-10
1.28966e-11
-1.37739e-09
6.59181e-10
-2.96895e-11
-1.34939e-09
5.24749e-10
-5.90031e-11
-1.06423e-09
4.61182e-10
-7.749e-12
-6.01527e-10
4.32513e-10
8.34739e-11
-9.07955e-11
3.49851e-10
2.16336e-10
3.83584e-10
1.54324e-10
3.48907e-10
7.15755e-10
-1.08699e-10
4.49476e-10
8.5754e-10
-3.49499e-10
5.03548e-10
8.00433e-10
-4.18527e-10
4.44868e-10
5.80674e-10
-1.74883e-10
3.02234e-10
2.22946e-10
4.88079e-10
7.99393e-11
-2.91421e-10
1.52376e-09
-1.77e-10
-7.83593e-10
2.66497e-09
-4.56119e-10
-8.78946e-10
4.02105e-09
-8.2515e-10
-1.28476e-09
4.63151e-09
-9.67517e-10
-5.79207e-10
5.42605e-09
-9.10239e-10
3.13873e-09
-8.53541e-10
1.05931e-10
-4.70558e-10
1.05931e-10
5.83944e-10
-3.54009e-09
1.00089e-10
9.9129e-10
-2.49635e-09
-2.05856e-11
1.44227e-09
-1.84317e-09
-1.4596e-10
1.90474e-09
-1.0502e-09
-2.17667e-10
2.29716e-09
-2.00161e-10
-2.30296e-10
2.51149e-09
6.09172e-10
-1.63554e-10
2.4481e-09
1.30091e-09
-6.34545e-11
2.07285e-09
1.79441e-09
2.57493e-11
1.39903e-09
2.05227e-09
1.21884e-10
5.2564e-10
2.06809e-09
1.92984e-10
-3.67375e-10
1.84565e-09
2.09603e-10
-1.09888e-09
1.42654e-09
1.9875e-10
-1.5316e-09
9.07963e-10
1.95073e-10
-1.61194e-09
3.9684e-10
2.19381e-10
-1.38326e-09
-2.69336e-11
2.70481e-10
-9.39383e-10
-3.59266e-10
3.58825e-10
-4.35271e-10
-6.06476e-10
4.62944e-10
-1.46219e-11
-8.08545e-10
5.52782e-10
2.19398e-10
-9.46272e-10
6.14123e-10
2.25446e-10
-9.42158e-10
5.97453e-10
-6.63168e-12
-7.08844e-10
5.33494e-10
-4.29453e-10
-1.61062e-10
4.19773e-10
-9.10134e-10
7.08244e-10
2.71093e-10
-1.32194e-09
1.84492e-09
1.03064e-10
-1.64987e-09
3.04822e-09
-4.35372e-11
-1.49382e-09
4.06166e-09
-1.86681e-10
-1.2108e-09
4.54109e-09
-1.82251e-10
-3.11079e-10
4.61254e-09
-7.48449e-11
2.64708e-09
1.88789e-10
-2.7265e-10
8.04068e-11
-2.7265e-10
1.07184e-10
-3.58475e-09
-3.2735e-10
5.22845e-10
-2.4789e-09
-4.2581e-10
1.07854e-09
-1.91035e-09
-4.8076e-10
1.69065e-09
-1.18184e-09
-4.72472e-10
2.27518e-09
-3.81024e-10
-3.95367e-10
2.68161e-09
4.71192e-10
-2.59772e-10
2.77739e-09
1.29237e-09
-7.83122e-11
2.52458e-09
2.00052e-09
5.59394e-11
1.93227e-09
2.46528e-09
1.88625e-10
1.10815e-09
2.60404e-09
2.97579e-10
2.09894e-10
2.37209e-09
3.81308e-10
-5.99889e-10
1.80869e-09
4.37147e-10
-1.19572e-09
1.02845e-09
4.84845e-10
-1.54465e-09
2.14749e-10
5.40419e-10
-1.65725e-09
-4.72336e-10
5.67138e-10
-1.55404e-09
-1.04106e-09
5.87448e-10
-1.32571e-09
-1.41354e-09
5.87377e-10
-1.08037e-09
-1.60723e-09
5.61878e-10
-9.00505e-10
-1.61852e-09
5.00918e-10
-8.31343e-10
-1.43422e-09
4.31635e-10
-9.15729e-10
-9.9879e-10
3.83456e-10
-1.11033e-09
-3.06686e-10
3.49387e-10
-1.36739e-09
6.24781e-10
3.48614e-10
-1.54099e-09
1.6775e-09
3.48529e-10
-1.54734e-09
2.67029e-09
3.92219e-10
-1.22699e-09
3.32772e-09
4.20273e-10
-6.70268e-10
3.47441e-09
5.16806e-10
2.22839e-11
3.26914e-09
6.57902e-10
1.92391e-09
7.50269e-10
-4.96427e-10
1.07753e-09
-4.96427e-10
-1.84071e-10
-3.35769e-09
-5.34005e-10
1.65665e-10
-2.27476e-09
-5.48904e-10
6.73772e-10
-1.88327e-09
-5.29876e-10
1.26707e-09
-1.34438e-09
-4.24994e-10
1.83783e-09
-6.59533e-10
-2.86166e-10
2.2673e-09
1.84278e-10
-1.35882e-10
2.47299e-09
1.08385e-09
9.75481e-12
2.41966e-09
1.94266e-09
1.18593e-10
2.11148e-09
2.55327e-09
2.27779e-10
1.58839e-09
2.80554e-09
3.29564e-10
9.2425e-10
2.60042e-09
4.4418e-10
1.8893e-10
1.99273e-09
5.59932e-10
-5.53136e-10
1.13275e-09
6.46552e-10
-1.26028e-09
2.51948e-10
6.78593e-10
-1.85726e-09
-5.24252e-10
6.57187e-10
-2.28613e-09
-1.17326e-09
5.69009e-10
-2.47496e-09
-1.63234e-09
4.15426e-10
-2.4242e-09
-1.89421e-09
2.44025e-10
-2.22816e-09
-1.93306e-09
1.26287e-10
-1.94529e-09
-1.77676e-09
6.72067e-11
-1.66061e-09
-1.34811e-09
7.16424e-11
-1.43045e-09
-6.45218e-10
1.14765e-10
-1.28101e-09
2.65097e-10
2.15524e-10
-1.11039e-09
1.18165e-09
3.2912e-10
-8.31353e-10
1.9399e-09
4.55115e-10
-3.95741e-10
2.30772e-09
5.87383e-10
4.72649e-11
2.31191e-09
7.22035e-10
3.48844e-10
2.19004e-09
7.79458e-10
1.58054e-09
6.92631e-10
-3.03273e-10
1.68673e-09
-3.03273e-10
-2.42907e-10
-3.12819e-09
-2.86444e-10
-1.26398e-10
-2.18952e-09
-1.98676e-10
1.16634e-10
-1.9932e-09
-1.29818e-10
4.16729e-10
-1.63318e-09
-7.36349e-12
7.18038e-10
-1.04925e-09
9.25838e-11
9.99013e-10
-2.39449e-10
1.47669e-10
1.24863e-09
6.88696e-10
1.5074e-10
1.48136e-09
1.58397e-09
1.3188e-10
1.64812e-09
2.25488e-09
1.38122e-10
1.66609e-09
2.58226e-09
2.12629e-10
1.44264e-09
2.52524e-09
3.06813e-10
9.20614e-10
2.10516e-09
4.18318e-10
1.04767e-10
1.47547e-09
4.82081e-10
-9.0622e-10
8.09632e-10
4.62108e-10
-1.92546e-09
1.54243e-10
3.49149e-10
-2.79406e-09
-4.4132e-10
1.44736e-10
-3.36809e-09
-9.69827e-10
-8.05822e-11
-3.48897e-09
-1.48431e-09
-2.8129e-10
-3.2328e-09
-1.7846e-09
-3.97348e-10
-2.71699e-09
-1.85719e-09
-4.2898e-10
-2.11871e-09
-1.58573e-09
-3.5567e-10
-1.52222e-09
-1.02793e-09
-2.10304e-10
-9.94605e-10
-2.42897e-10
-1.73809e-11
-4.96384e-10
5.49032e-10
1.35368e-10
-9.7221e-12
1.17051e-09
2.82936e-10
3.97724e-10
1.48722e-09
4.12098e-10
5.79124e-10
1.64058e-09
4.87858e-10
4.93596e-10
1.79242e-09
4.80105e-10
1.59067e-09
4.80407e-10
3.27984e-10
1.03213e-09
3.27984e-10
-1.75265e-10
-2.96958e-09
3.4721e-10
-5.01494e-10
-2.33402e-09
4.72829e-10
-7.98445e-10
-2.193e-09
4.98856e-10
-1.04863e-09
-1.92054e-09
5.40378e-10
-1.18041e-09
-1.39039e-09
4.75967e-10
-1.0944e-09
-6.61135e-10
3.39573e-10
-7.52951e-10
1.97102e-10
1.5463e-10
-1.5245e-10
9.78265e-10
1.07565e-11
6.05125e-10
1.59004e-09
-8.59962e-11
1.26432e-09
2.00289e-09
-7.1806e-11
1.55936e-09
2.21828e-09
2.11105e-11
1.35666e-09
2.26722e-09
5.04851e-11
6.34727e-10
2.17913e-09
2.82981e-11
-4.49697e-10
1.94664e-09
-4.2675e-11
-1.68096e-09
1.59037e-09
-1.95232e-10
-2.78404e-09
1.04363e-09
-3.72509e-10
-3.46778e-09
2.82472e-10
-5.59547e-10
-3.66575e-09
-5.68712e-10
-7.09351e-10
-3.42494e-09
-1.28449e-09
-7.33889e-10
-2.88298e-09
-1.73089e-09
-6.62847e-10
-2.17081e-09
-1.77742e-09
-5.16865e-10
-1.4294e-09
-1.43358e-09
-3.33821e-10
-7.06421e-10
-8.18821e-10
-1.46388e-10
-3.6931e-11
-1.52634e-10
3.14394e-11
5.51086e-10
4.1582e-10
1.64354e-10
9.0703e-10
8.56645e-10
2.70556e-10
9.46101e-10
1.24848e-09
3.4765e-10
7.37788e-10
1.57014e-09
4.24522e-10
1.66441e-09
6.59388e-10
1.21104e-09
-1.38922e-09
1.21104e-09
-1.03348e-10
-2.70073e-09
1.04897e-09
-1.10597e-09
-2.3854e-09
1.05647e-09
-2.05557e-09
-2.17687e-09
9.35691e-10
-2.86545e-09
-1.85857e-09
7.50867e-10
-3.37952e-09
-1.3586e-09
4.85593e-10
-3.40415e-09
-8.17475e-10
1.8539e-10
-2.85881e-09
-2.63018e-10
-7.96647e-11
-1.8272e-09
2.3467e-10
-2.80866e-10
-5.37116e-10
6.81484e-10
-3.72616e-10
6.43367e-10
1.20395e-09
-3.71124e-10
1.39549e-09
1.80266e-09
-3.2488e-10
1.51669e-09
2.44476e-09
-2.86504e-10
1.03251e-09
3.00531e-09
-3.29504e-10
1.11299e-10
3.30674e-09
-4.2626e-10
-9.57504e-10
3.21316e-09
-5.41375e-10
-1.9033e-09
2.64478e-09
-6.43017e-10
-2.51685e-09
1.61366e-09
-7.06066e-10
-2.77217e-09
3.73706e-10
-6.76968e-10
-2.66746e-09
-8.24214e-10
-5.5678e-10
-2.3519e-09
-1.63021e-09
-4.1e-10
-1.85339e-09
-2.01541e-09
-2.55991e-10
-1.26598e-09
-1.89572e-09
-1.22252e-10
-6.04222e-10
-1.49336e-09
1.41804e-11
1.03123e-10
-9.74405e-10
1.13702e-10
7.26047e-10
-4.44096e-10
2.3397e-10
1.10852e-09
8.09529e-11
3.88374e-10
1.18727e-09
5.86242e-10
5.77696e-10
9.66779e-10
9.81923e-10
8.02447e-10
1.58979e-09
1.03686e-09
1.63246e-09
-4.65311e-09
1.63246e-09
-4.2861e-10
-1.73448e-09
1.1018e-09
-1.96841e-09
-1.79337e-09
9.52809e-10
-3.31298e-09
-1.51945e-09
6.9174e-10
-4.36679e-09
-1.19759e-09
3.98154e-10
-4.91508e-09
-8.79765e-10
7.55092e-11
-4.87056e-09
-7.04646e-10
-1.49815e-10
-4.08401e-09
-6.72259e-10
-3.68001e-10
-2.74373e-09
-6.47757e-10
-4.46497e-10
-1.18909e-09
-4.34351e-10
-4.25394e-10
2.04604e-10
1.8516e-10
-3.60004e-10
1.14489e-09
1.19785e-09
-3.19415e-10
1.51908e-09
2.41825e-09
-3.30875e-10
1.38289e-09
3.54915e-09
-3.90219e-10
8.95247e-10
4.24248e-09
-4.30076e-10
2.66499e-10
4.30971e-09
-4.49601e-10
-3.36462e-10
3.67018e-09
-4.04737e-10
-8.2911e-10
2.40386e-09
-2.81141e-10
-1.1837e-09
8.63516e-10
-1.20664e-10
-1.41825e-09
-5.79821e-10
2.70397e-12
-1.52082e-09
-1.64913e-09
1.32266e-10
-1.50915e-09
-2.23695e-09
2.19079e-10
-1.27725e-09
-2.38376e-09
2.635e-10
-8.04959e-10
-2.22358e-09
2.62844e-10
-1.8069e-10
-1.90464e-09
3.08109e-10
4.31401e-10
-1.47851e-09
4.22221e-10
8.37906e-10
-9.29885e-10
6.02886e-10
9.57954e-10
-3.61503e-10
8.25632e-10
6.72985e-10
2.64512e-10
9.99846e-10
1.46862e-09
7.93015e-10
1.13611e-09
-6.92249e-09
1.13611e-09
-1.11397e-09
6.73919e-11
4.6326e-10
-2.71124e-09
-4.06126e-10
2.21593e-10
-3.90266e-09
-2.7146e-10
-4.55697e-11
-4.76016e-09
-1.02827e-10
-2.25589e-10
-5.06422e-09
-2.174e-10
-3.45519e-10
-4.7097e-09
-6.58169e-10
-3.86457e-10
-3.68793e-09
-1.32069e-09
-3.56628e-10
-2.37163e-09
-1.7306e-09
-2.14593e-10
-1.00506e-09
-1.67076e-09
-1.09291e-10
1.35057e-10
-9.16902e-10
-1.57322e-11
9.3368e-10
4.3044e-10
-7.546e-12
1.38781e-09
2.05231e-09
-6.32898e-11
1.58504e-09
3.52497e-09
-1.46912e-10
1.58406e-09
4.41771e-09
-1.47155e-10
1.46879e-09
4.52483e-09
-7.2564e-11
1.26685e-09
3.85294e-09
4.56594e-11
9.11882e-10
2.53164e-09
2.52221e-10
3.83378e-10
9.69135e-10
4.46273e-10
-2.61133e-10
-4.80058e-10
5.66593e-10
-9.04276e-10
-1.57745e-09
5.91776e-10
-1.35549e-09
-2.26911e-09
5.01798e-10
-1.4673e-09
-2.63033e-09
3.74234e-10
-1.23231e-09
-2.73861e-09
2.92908e-10
-7.59737e-10
-2.68257e-09
3.15749e-10
-2.96048e-10
-2.33879e-09
4.05479e-10
-3.77357e-11
-1.67208e-09
4.91858e-10
-5.20401e-11
-8.43374e-10
5.03744e-10
-3.09857e-10
2.34156e-10
2.95845e-10
1.32441e-09
-1.57082e-10
8.92826e-11
-7.09374e-09
8.92826e-11
-1.61164e-09
2.27567e-09
-4.77018e-10
-2.68334e-09
1.27382e-09
-5.83685e-10
-3.35363e-09
1.13099e-09
-7.08336e-10
-3.60259e-09
8.4128e-10
-6.70901e-10
-3.36338e-09
8.96312e-11
-5.20803e-10
-2.68404e-09
-1.01176e-09
-2.98743e-10
-1.81355e-09
-2.1239e-09
-3.81628e-11
-9.18442e-10
-2.77083e-09
1.76076e-10
-2.43527e-10
-2.62202e-09
3.09148e-10
2.18946e-10
-1.67145e-09
3.26517e-10
5.88934e-10
-1.36047e-10
2.32763e-10
9.82056e-10
1.61416e-09
8.31696e-11
1.44241e-09
3.1007e-09
3.68727e-12
1.89326e-09
3.99435e-09
1.32578e-11
2.20473e-09
4.12694e-09
1.27189e-10
2.25229e-09
3.50949e-09
3.35914e-10
1.88355e-09
2.38909e-09
5.50329e-10
1.15079e-09
1.08426e-09
6.55748e-10
1.90487e-10
-1.28118e-10
6.45392e-10
-7.51615e-10
-1.13155e-09
5.31586e-10
-1.42197e-09
-1.93236e-09
3.6662e-10
-1.72549e-09
-2.54627e-09
2.49747e-10
-1.69665e-09
-2.96269e-09
2.23273e-10
-1.53567e-09
-3.06963e-09
2.52864e-10
-1.43573e-09
-2.67884e-09
2.66159e-10
-1.47422e-09
-1.77617e-09
1.68224e-10
-1.61148e-09
-5.97176e-10
-8.29074e-11
-1.49038e-09
6.04063e-10
-4.63511e-10
4.17537e-10
-5.56582e-10
-8.32967e-10
-5.41167e-09
-8.32967e-10
-1.50473e-09
4.15465e-09
-1.15138e-09
-1.69552e-09
2.54455e-09
-1.03326e-09
-1.55621e-09
2.0044e-09
-9.67095e-10
-1.06331e-09
1.10384e-09
-7.09998e-10
-3.49725e-10
-2.03013e-10
-3.74621e-10
3.21156e-10
-1.63808e-09
2.61973e-12
7.28996e-10
-2.77291e-09
2.89876e-10
8.14057e-10
-3.27305e-09
4.67128e-10
6.30732e-10
-2.86657e-09
4.79518e-10
3.99514e-10
-1.73743e-09
3.50721e-10
3.52919e-10
-1.67539e-10
1.33749e-10
6.31713e-10
1.38753e-09
5.52527e-12
1.19577e-09
2.64456e-09
-4.88116e-11
1.82993e-09
3.37537e-09
4.44999e-11
2.28268e-09
3.50017e-09
2.33633e-10
2.36394e-09
3.08441e-09
4.03272e-10
1.93788e-09
2.32853e-09
5.45987e-10
1.10377e-09
1.37541e-09
6.0203e-10
8.59626e-11
4.02907e-10
5.4496e-10
-8.51334e-10
-5.69919e-10
4.32228e-10
-1.55292e-09
-1.54593e-09
3.69868e-10
-1.96869e-09
-2.45022e-09
3.7311e-10
-2.2194e-09
-3.07817e-09
4.19275e-10
-2.48686e-09
-3.15988e-09
4.11041e-10
-2.78649e-09
-2.61711e-09
2.91602e-10
-2.94889e-09
-1.61234e-09
5.34349e-11
-2.78417e-09
-4.88921e-10
-2.15926e-10
-1.84487e-09
-8.07869e-12
-2.67467e-10
-1.45778e-09
8.62143e-11
-1.22694e-09
-2.92667e-09
-1.22694e-09
-6.21536e-10
4.66805e-09
-1.02507e-09
4.02083e-11
2.83168e-09
-8.68749e-10
8.88209e-10
1.93028e-09
-6.95198e-10
1.83537e-09
6.34679e-10
-4.00291e-10
2.65749e-09
-8.61915e-10
-8.54218e-11
3.07082e-09
-2.19144e-09
2.17497e-10
2.93503e-09
-2.95996e-09
4.00739e-10
2.30524e-09
-2.997e-09
4.3201e-10
1.4673e-09
-2.30099e-09
3.51737e-10
7.77001e-10
-1.16771e-09
2.01432e-10
4.79851e-10
1.41447e-10
7.0555e-11
6.31269e-10
1.26901e-09
5.06834e-11
1.08608e-09
2.0939e-09
1.79978e-10
1.58392e-09
2.59075e-09
3.71063e-10
1.88262e-09
2.74113e-09
5.44921e-10
1.81021e-09
2.56088e-09
6.81182e-10
1.32324e-09
2.12568e-09
7.75768e-10
5.18484e-10
1.50352e-09
7.62821e-10
-3.64123e-10
6.42009e-10
7.29349e-10
-1.18423e-09
-3.74525e-10
7.10238e-10
-1.8407e-09
-1.53683e-09
7.33285e-10
-2.41942e-09
-2.5549e-09
7.70741e-10
-3.00753e-09
-3.13667e-09
7.36033e-10
-3.5802e-09
-3.07985e-09
5.84314e-10
-3.9084e-09
-2.53926e-09
3.44925e-10
-3.72621e-09
-1.84549e-09
1.49561e-10
-2.84438e-09
-1.48339e-09
2.15554e-10
-1.31079e-09
-1.96871e-09
5.33474e-10
-3.45664e-09
7.85209e-10
-9.10969e-10
-1.05115e-09
-9.10969e-10
5.77362e-10
3.83074e-09
-5.06313e-10
1.83418e-09
2.11349e-09
-4.12702e-10
3.05733e-09
1.0596e-09
-2.2828e-10
4.15302e-09
-3.38792e-10
9.71297e-14
4.85727e-09
-1.69148e-09
2.46432e-10
4.95829e-09
-2.59176e-09
4.18478e-10
4.4582e-09
-2.83529e-09
4.93234e-10
3.49925e-09
-2.42416e-09
5.02654e-10
2.42843e-09
-1.60378e-09
4.89634e-10
1.56702e-09
-6.77218e-10
4.86658e-10
1.10262e-09
1.54463e-10
5.66764e-10
9.66211e-10
8.23866e-10
6.96406e-10
1.03044e-09
1.30255e-09
8.41449e-10
1.09948e-09
1.63925e-09
9.96815e-10
1.01113e-09
1.83684e-09
1.10787e-09
7.10307e-10
1.85089e-09
1.12745e-09
1.9563e-10
1.67139e-09
1.08695e-09
-4.80689e-10
1.24401e-09
1.05498e-09
-1.22274e-09
4.91857e-10
1.01292e-09
-1.94243e-09
-5.27705e-10
9.96165e-10
-2.66978e-09
-1.63021e-09
9.47757e-10
-3.44285e-09
-2.48689e-09
8.36575e-10
-4.1757e-09
-2.8734e-09
6.05942e-10
-4.57893e-09
-2.86682e-09
3.32149e-10
-4.43032e-09
-2.7691e-09
2.30056e-10
-3.57372e-09
-2.89925e-09
3.53038e-10
-2.14362e-09
-3.33689e-09
5.85637e-10
-8.41422e-10
-3.91534e-09
8.12053e-10
-4.8006e-09
6.52663e-10
-2.18764e-10
-5.29776e-10
-2.18764e-10
1.7216e-09
1.97265e-09
1.24493e-10
3.20323e-09
6.14521e-10
1.99969e-10
4.59915e-09
-5.0132e-10
3.45705e-10
5.72197e-09
-1.80356e-09
5.19868e-10
6.33395e-09
-2.81639e-09
6.8785e-10
6.31687e-09
-3.22642e-09
8.22544e-10
5.70908e-09
-2.97555e-09
9.14834e-10
4.74173e-09
-2.28582e-09
9.91734e-10
3.69722e-09
-1.48038e-09
1.08016e-09
2.77302e-09
-7.92959e-10
1.19543e-09
1.98958e-09
-2.88065e-10
1.37805e-09
1.33169e-09
9.05712e-11
1.54048e-09
7.61479e-10
4.31e-10
1.5894e-09
2.29173e-10
7.7456e-10
1.54448e-09
-2.74946e-10
1.06194e-09
1.42763e-09
-7.73914e-10
1.22333e-09
1.27696e-09
-1.31124e-09
1.21844e-09
1.14305e-09
-1.90247e-09
9.61521e-10
1.02979e-09
-2.5748e-09
3.86535e-10
9.3851e-10
-3.32926e-09
-4.3501e-10
8.28793e-10
-4.15479e-09
-1.2794e-09
6.4881e-10
-4.89298e-09
-1.95009e-09
3.83181e-10
-5.29826e-09
-2.45531e-09
1.77715e-10
-5.09278e-09
-2.99712e-09
1.25464e-10
-4.24898e-09
-3.67275e-09
2.71093e-10
-2.92721e-09
-4.46813e-09
4.67753e-10
-1.62881e-09
-5.06035e-09
6.54079e-10
-7.87345e-10
-5.05843e-09
5.38161e-10
-5.75086e-09
3.70426e-10
4.3848e-10
-1.28608e-09
4.3848e-10
2.58446e-09
-5.59468e-10
6.59865e-10
4.25903e-09
-1.57817e-09
7.62947e-10
5.76285e-09
-2.70707e-09
9.44602e-10
6.86923e-09
-3.79742e-09
1.12646e-09
7.40534e-09
-4.42676e-09
1.30811e-09
7.34089e-09
-4.38117e-09
1.44622e-09
6.76223e-09
-3.74935e-09
1.57196e-09
5.88e-09
-2.86833e-09
1.67612e-09
4.85461e-09
-2.04173e-09
1.78986e-09
3.73281e-09
-1.41053e-09
1.9344e-09
2.52998e-09
-9.24429e-10
2.02691e-09
1.30071e-09
-4.88054e-10
1.99006e-09
1.44308e-10
-5.77004e-11
1.82394e-09
-8.38269e-10
3.5885e-10
1.576e-09
-1.59446e-09
6.46365e-10
1.35019e-09
-2.19922e-09
8.17899e-10
1.19089e-09
-2.79054e-09
9.50244e-10
1.04443e-09
-3.45594e-09
8.79037e-10
9.39329e-10
-4.21533e-09
5.5189e-10
7.9393e-10
-5.01997e-09
-2.50908e-12
5.81576e-10
-5.7364e-09
-7.5885e-10
4.1565e-10
-6.10166e-09
-1.60753e-09
2.5411e-10
-5.88388e-09
-2.70027e-09
2.71767e-10
-5.08037e-09
-4.0054e-09
4.63129e-10
-3.86788e-09
-5.27528e-09
6.60856e-10
-2.6751e-09
-6.19476e-09
8.15514e-10
-1.70958e-09
-6.48535e-09
7.50195e-10
-8.67347e-10
-6.11637e-09
5.1296e-10
-6.90207e-09
5.38276e-10
9.76985e-10
-3.07997e-09
9.76985e-10
3.36054e-09
-3.86767e-09
1.2588e-09
5.28279e-09
-4.61714e-09
1.41874e-09
6.83222e-09
-5.61554e-09
1.65859e-09
7.81833e-09
-6.38546e-09
1.89688e-09
8.15993e-09
-6.51482e-09
2.03412e-09
7.94935e-09
-5.98728e-09
2.09461e-09
7.37215e-09
-5.04885e-09
2.14305e-09
6.54541e-09
-3.96744e-09
2.17937e-09
5.49292e-09
-2.9807e-09
2.23141e-09
4.17213e-09
-2.11269e-09
2.24973e-09
2.62393e-09
-1.3328e-09
2.17165e-09
1.01415e-09
-6.51407e-10
1.97912e-09
-4.44287e-10
-1.75598e-10
1.77619e-09
-1.57848e-09
8.88136e-11
1.60088e-09
-2.44714e-09
2.1506e-10
1.49646e-09
-3.22284e-09
3.76273e-10
1.41702e-09
-4.02611e-09
6.19589e-10
1.34049e-09
-4.91563e-09
7.57801e-10
1.22729e-09
-5.81069e-09
6.43558e-10
1.03172e-09
-6.55416e-09
1.74898e-10
8.07242e-10
-6.93277e-09
-8.47262e-10
7.22255e-10
-6.80653e-09
-2.23053e-09
7.67366e-10
-6.08695e-09
-4.06348e-09
9.29846e-10
-5.06936e-09
-5.89965e-09
1.17689e-09
-4.07685e-09
-7.22524e-09
1.26926e-09
-3.16633e-09
-7.92562e-09
1.1415e-09
-2.22781e-09
-7.95654e-09
8.59253e-10
-1.03559e-09
-7.76818e-09
7.86909e-10
-8.50863e-09
8.41092e-10
1.58332e-09
-6.05168e-09
1.58332e-09
4.24352e-09
-8.07239e-09
1.9167e-09
6.30365e-09
-8.53705e-09
2.19888e-09
7.73472e-09
-9.18454e-09
2.47395e-09
8.43586e-09
-9.359e-09
2.60301e-09
8.47032e-09
-8.87892e-09
2.65112e-09
8.10915e-09
-7.85323e-09
2.53664e-09
7.55946e-09
-6.63298e-09
2.42848e-09
6.79154e-09
-5.31389e-09
2.39231e-09
5.70146e-09
-4.01173e-09
2.38107e-09
4.253e-09
-2.76281e-09
2.34092e-09
2.56317e-09
-1.67804e-09
2.26138e-09
9.08872e-10
-9.27161e-10
2.14308e-09
-5.15516e-10
-6.19681e-10
2.07154e-09
-1.67873e-09
-6.19139e-10
2.06827e-09
-2.7395e-09
-6.19867e-10
2.09179e-09
-3.87386e-09
-3.89355e-10
2.10048e-09
-5.04964e-09
2.3487e-12
2.00288e-09
-6.19191e-09
3.6007e-10
1.76274e-09
-7.10431e-09
2.57104e-10
1.53655e-09
-7.61639e-09
-5.04756e-10
1.44581e-09
-7.6669e-09
-2.00181e-09
1.47638e-09
-7.17981e-09
-4.05551e-09
1.62555e-09
-6.47637e-09
-6.27239e-09
1.8065e-09
-5.80309e-09
-8.1244e-09
1.86212e-09
-5.08914e-09
-9.32524e-09
1.70289e-09
-4.27454e-09
-9.85424e-09
1.43231e-09
-3.03723e-09
-1.00728e-08
1.19303e-09
-1.36278e-09
-1.03184e-08
1.18072e-09
-1.10417e-08
1.40681e-09
2.27904e-09
-1.03945e-08
2.27904e-09
5.0877e-09
-1.32109e-08
2.70022e-09
7.09611e-09
-1.32109e-08
3.00441e-09
8.27369e-09
-1.31603e-08
3.13306e-09
8.67209e-09
-1.25065e-08
3.07835e-09
8.55974e-09
-1.13197e-08
2.8729e-09
8.24069e-09
-9.95518e-09
2.72878e-09
7.71696e-09
-8.47563e-09
2.65893e-09
6.95838e-09
-6.93421e-09
2.65387e-09
5.84126e-09
-5.30148e-09
2.6624e-09
4.39619e-09
-3.71378e-09
2.63184e-09
2.81991e-09
-2.4661e-09
2.5812e-09
1.31947e-09
-1.81275e-09
2.58607e-09
-1.62612e-11
-1.75976e-09
2.6625e-09
-1.30609e-09
-1.95915e-09
2.80825e-09
-2.76844e-09
-1.87474e-09
2.89394e-09
-4.34996e-09
-1.43798e-09
2.81199e-09
-5.89608e-09
-8.33478e-10
2.57461e-09
-7.09524e-09
-5.87324e-10
2.35419e-09
-7.86309e-09
-1.00484e-09
2.25523e-09
-8.11871e-09
-2.30845e-09
2.30372e-09
-7.9782e-09
-4.36531e-09
2.48471e-09
-7.68527e-09
-6.72236e-09
2.64824e-09
-7.45696e-09
-8.84568e-09
2.62554e-09
-7.15559e-09
-1.05849e-08
2.43982e-09
-6.54572e-09
-1.18285e-08
2.16797e-09
-5.51749e-09
-1.25425e-08
1.92106e-09
-3.83402e-09
-1.32938e-08
1.77957e-09
-1.49921e-09
-1.4306e-08
1.87318e-09
-1.48416e-08
2.45231e-09
3.026e-09
-1.62365e-08
3.026e-09
5.60751e-09
-1.88551e-08
3.37917e-09
7.44859e-09
-1.82192e-08
3.45663e-09
8.44254e-09
-1.72026e-08
3.33296e-09
8.76568e-09
-1.57243e-08
3.17472e-09
8.7551e-09
-1.405e-08
3.01444e-09
8.54879e-09
-1.24075e-08
2.92405e-09
8.13269e-09
-1.07436e-08
2.93868e-09
7.36925e-09
-8.92517e-09
2.99577e-09
6.23286e-09
-6.95777e-09
3.01837e-09
4.87629e-09
-5.14864e-09
3.00002e-09
3.48369e-09
-3.92896e-09
3.04632e-09
2.17071e-09
-3.51198e-09
3.1863e-09
8.0599e-10
-3.61022e-09
3.3754e-09
-8.55485e-10
-3.68748e-09
3.54122e-09
-2.77717e-09
-3.35914e-09
3.55532e-09
-4.71559e-09
-2.74426e-09
3.39841e-09
-6.31847e-09
-2.28588e-09
3.21945e-09
-7.42946e-09
-2.46512e-09
3.1684e-09
-7.99163e-09
-3.52104e-09
3.27655e-09
-8.22231e-09
-5.33421e-09
3.47254e-09
-8.35816e-09
-7.63295e-09
3.63242e-09
-8.58011e-09
-9.95211e-09
3.68547e-09
-8.80689e-09
-1.18697e-08
3.48035e-09
-8.66434e-09
-1.36366e-08
3.12454e-09
-7.91798e-09
-1.52177e-08
2.83416e-09
-6.49974e-09
-1.63899e-08
2.58929e-09
-4.28063e-09
-1.79079e-08
2.52041e-09
-1.45905e-09
-1.98258e-08
2.79033e-09
-1.96497e-08
3.38922e-09
3.58795e-09
-2.32403e-08
3.58795e-09
5.71825e-09
-2.43781e-08
3.60532e-09
7.38438e-09
-2.31318e-08
3.43896e-09
8.47088e-09
-2.13725e-08
3.27188e-09
9.10531e-09
-1.93019e-08
3.13108e-09
9.44149e-09
-1.72825e-08
3.08434e-09
9.47359e-09
-1.54214e-08
3.17061e-09
9.08515e-09
-1.34807e-08
3.31374e-09
8.23349e-09
-1.13109e-08
3.42329e-09
7.07375e-09
-9.08086e-09
3.46397e-09
5.81521e-09
-7.28222e-09
3.56605e-09
4.60106e-09
-6.31851e-09
3.76813e-09
3.30167e-09
-6.08766e-09
4.02903e-09
1.64514e-09
-6.10892e-09
4.29965e-09
-4.63165e-10
-5.87877e-09
4.43724e-09
-2.76079e-09
-5.31566e-09
4.38924e-09
-4.83461e-09
-4.79977e-09
4.26671e-09
-6.36687e-09
-4.84006e-09
4.23137e-09
-7.359e-09
-5.64319e-09
4.32757e-09
-7.97294e-09
-7.26701e-09
4.5318e-09
-8.55633e-09
-9.20253e-09
4.63543e-09
-9.26431e-09
-1.12671e-08
4.53063e-09
-9.92919e-09
-1.34287e-08
4.32525e-09
-1.03012e-08
-1.53399e-08
4.00983e-09
-1.01328e-08
-1.72661e-08
3.5995e-09
-9.08944e-09
-1.94388e-08
3.27632e-09
-7.0865e-09
-2.15458e-08
3.20773e-09
-4.50339e-09
-2.38258e-08
3.34628e-09
-1.82155e-09
-2.5972e-08
3.44193e-09
-2.44819e-08
2.96888e-09
3.53822e-09
-3.02126e-08
3.53822e-09
5.64487e-09
-2.97604e-08
3.35873e-09
7.4775e-09
-2.80744e-08
3.18203e-09
8.95751e-09
-2.5851e-08
3.0698e-09
1.01245e-08
-2.34967e-08
3.10521e-09
1.09038e-08
-2.12885e-08
3.31447e-09
1.10945e-08
-1.91271e-08
3.61647e-09
1.06301e-08
-1.67634e-08
3.86335e-09
9.66923e-09
-1.42445e-08
4.02563e-09
8.50135e-09
-1.19619e-08
4.19264e-09
7.35032e-09
-1.04185e-08
4.44065e-09
6.16241e-09
-9.75533e-09
4.78358e-09
4.57807e-09
-9.49539e-09
5.153e-09