/*--------------------------------*- C++ -*----------------------------------*\
| =========                 |                                                 |
| \\      /  F ield         | OpenFOAM: The Open Source CFD Toolbox           |
|  \\    /   O peration     | Version:  2312                                  |
|   \\  /    A nd           | Website:  www.openfoam.com                      |
|    \\/     M anipulation  |                                                 |
\*---------------------------------------------------------------------------*/
FoamFile
{
    version     2.0;
    format      ascii;
    arch        "LSB;label=32;scalar=64";
    class       volVectorField;
    location    "0.692487";
    object      U;
}
// * * * * * * * * * * * * * * * * * * * * * * * * * * * * * * * * * * * * * //

dimensions      [0 1 -1 0 0 0 0];

internalField   nonuniform List<vector> 
90000
(
(2.89008e-06 -3.45679e-06 2.89008e-06)
(-3.4203e-06 7.7739e-06 -2.09755e-07)
(-1.48535e-05 5.41373e-06 -9.21599e-07)
(-1.90791e-05 4.41704e-06 -1.91952e-06)
(-2.15707e-05 3.47641e-06 -2.57761e-06)
(-2.16413e-05 2.24193e-06 -3.05401e-06)
(-1.95462e-05 1.00111e-06 -3.39144e-06)
(-1.59158e-05 1.39858e-07 -3.49417e-06)
(-1.17544e-05 -1.22523e-07 -3.34976e-06)
(-8.05914e-06 2.47972e-07 -3.22796e-06)
(-5.32581e-06 1.07224e-06 -3.28191e-06)
(-3.40427e-06 2.06002e-06 -3.59622e-06)
(-1.79293e-06 2.81308e-06 -4.06513e-06)
(1.67018e-07 3.07763e-06 -4.58896e-06)
(3.30145e-06 2.79869e-06 -4.93852e-06)
(7.91532e-06 2.00452e-06 -4.86201e-06)
(1.33404e-05 9.64105e-07 -4.13509e-06)
(1.8329e-05 2.32024e-07 -2.79719e-06)
(2.1423e-05 1.88474e-07 -1.25158e-06)
(2.12749e-05 1.04511e-06 1.22285e-07)
(1.70458e-05 2.6763e-06 1.13724e-06)
(8.65266e-06 4.73854e-06 1.24237e-06)
(-3.37073e-06 6.5234e-06 5.32987e-07)
(-1.7076e-05 7.58217e-06 -1.00475e-06)
(-2.90687e-05 6.93183e-06 -3.19576e-06)
(-3.59787e-05 4.57476e-06 -5.22999e-06)
(-3.69955e-05 1.23779e-06 -5.79387e-06)
(-3.52523e-05 -4.27345e-06 -8.67802e-07)
(-4.25236e-05 -1.21182e-05 1.7124e-05)
(-2.56118e-05 -6.42676e-05 6.01101e-05)
(-2.4269e-06 8.80445e-07 -2.4269e-06)
(-5.46266e-06 1.81026e-05 -2.16507e-06)
(-6.72593e-06 1.32104e-05 -2.09948e-06)
(-7.69487e-06 1.05261e-05 -1.58378e-06)
(-8.22541e-06 7.74027e-06 -1.02968e-06)
(-8.30453e-06 4.55276e-06 -6.04554e-07)
(-8.01916e-06 1.62574e-06 -3.57991e-07)
(-7.43911e-06 -3.75466e-07 -3.02154e-07)
(-6.59701e-06 -9.6076e-07 -4.31049e-07)
(-5.39637e-06 -1.83721e-07 -6.43353e-07)
(-3.71914e-06 1.4486e-06 -8.34947e-07)
(-1.53068e-06 3.18101e-06 -9.29581e-07)
(1.06406e-06 4.37832e-06 -8.47873e-07)
(3.82888e-06 4.60919e-06 -6.19467e-07)
(6.47571e-06 3.88741e-06 -2.53153e-07)
(8.62465e-06 2.47292e-06 1.55811e-07)
(9.88596e-06 1.10826e-06 2.97289e-07)
(1.01545e-05 7.51761e-07 -6.23039e-08)
(9.50907e-06 1.96363e-06 -6.1681e-07)
(7.8923e-06 4.7877e-06 -1.22258e-06)
(5.54881e-06 8.69567e-06 -1.89763e-06)
(2.85837e-06 1.28412e-05 -2.11816e-06)
(2.33514e-07 1.57335e-05 -1.98953e-06)
(-1.45116e-06 1.60748e-05 -1.41529e-06)
(-1.49517e-06 1.21183e-05 -3.86887e-07)
(1.04184e-06 4.36078e-06 -6.57349e-09)
(5.86885e-06 -3.24457e-06 -1.92148e-06)
(1.84757e-05 -2.93683e-06 -7.06084e-06)
(-3.58224e-06 -1.31648e-06 -8.32285e-06)
(-1.79012e-05 -0.000140936 -2.27851e-06)
(-2.64556e-06 1.11524e-05 -2.64556e-06)
(-1.30778e-06 1.93257e-05 -1.62989e-06)
(3.30978e-06 1.4553e-05 -9.03393e-07)
(4.64763e-06 1.14034e-05 2.0989e-08)
(5.09442e-06 8.05427e-06 7.14057e-07)
(4.09546e-06 4.61697e-06 1.08517e-06)
(2.10363e-06 1.72481e-06 1.07586e-06)
(-2.48719e-07 -2.322e-07 8.09023e-07)
(-2.14208e-06 -9.76629e-07 3.07376e-07)
(-2.84964e-06 -6.24077e-07 -2.09306e-07)
(-2.00691e-06 3.03543e-07 -5.34204e-07)
(3.25109e-07 1.17589e-06 -4.81417e-07)
(3.45964e-06 1.71055e-06 -6.46484e-08)
(6.21011e-06 1.79096e-06 5.09846e-07)
(7.59245e-06 1.54482e-06 1.07045e-06)
(7.05699e-06 1.41557e-06 1.29782e-06)
(4.68578e-06 1.92042e-06 9.76698e-07)
(1.27241e-06 3.50516e-06 1.51715e-07)
(-2.00503e-06 6.23645e-06 -1.07339e-06)
(-3.60851e-06 9.89139e-06 -2.30828e-06)
(-2.3556e-06 1.35735e-05 -3.24483e-06)
(1.92617e-06 1.65169e-05 -3.49519e-06)
(8.61102e-06 1.73527e-05 -2.90887e-06)
(1.63057e-05 1.47182e-05 -1.34582e-06)
(2.31986e-05 8.05909e-06 1.38403e-06)
(2.72594e-05 -2.62392e-06 4.88583e-06)
(2.86674e-05 -1.30628e-05 6.4247e-06)
(4.18932e-05 -6.8149e-06 -5.56411e-07)
(4.36282e-05 4.08451e-05 -7.36563e-06)
(1.65747e-05 -0.00011068 -2.88888e-05)
(-2.02037e-06 1.42426e-05 -2.02037e-06)
(2.31123e-06 1.28111e-05 -5.5277e-08)
(1.02214e-05 9.78074e-06 7.01982e-07)
(1.29962e-05 7.74612e-06 1.50879e-06)
(1.38817e-05 5.87199e-06 1.94345e-06)
(1.23521e-05 4.20413e-06 2.03364e-06)
(9.15229e-06 2.77961e-06 1.74403e-06)
(5.12623e-06 1.70862e-06 1.16067e-06)
(1.5686e-06 9.54097e-07 5.29283e-07)
(-4.93657e-07 3.87093e-07 -6.85991e-08)
(-7.51874e-07 -1.51505e-07 -4.21735e-07)
(6.45297e-07 -6.3202e-07 -4.26759e-07)
(2.85353e-06 -8.45303e-07 -1.36528e-07)
(4.52434e-06 -4.55596e-07 2.71475e-07)
(4.7652e-06 7.71936e-07 5.16568e-07)
(3.17278e-06 2.85012e-06 5.08584e-07)
(7.61282e-09 5.58215e-06 1.34043e-07)
(-3.67702e-06 8.52073e-06 -6.00597e-07)
(-6.30543e-06 1.11918e-05 -1.48513e-06)
(-6.20494e-06 1.33137e-05 -2.16405e-06)
(-2.38851e-06 1.44147e-05 -2.63782e-06)
(5.28531e-06 1.43647e-05 -2.57278e-06)
(1.54419e-05 1.25065e-05 -1.95022e-06)
(2.56611e-05 8.67152e-06 -8.0747e-07)
(3.34434e-05 3.56464e-06 9.04658e-07)
(3.54588e-05 -2.78e-06 3.73435e-06)
(2.8159e-05 -1.34292e-05 7.61691e-06)
(2.06833e-05 -2.10935e-05 9.50341e-06)
(2.83015e-05 5.22656e-05 5.62989e-06)
(1.87099e-05 -3.71533e-05 -1.43401e-05)
(-4.64493e-07 1.27492e-05 -4.64493e-07)
(5.6269e-06 1.14399e-06 1.52526e-06)
(1.42879e-05 1.2712e-06 2.05111e-06)
(1.77174e-05 1.34498e-06 2.46692e-06)
(1.89254e-05 2.11508e-06 2.5836e-06)
(1.75313e-05 3.18316e-06 2.40173e-06)
(1.42045e-05 4.05221e-06 1.92165e-06)
(9.90084e-06 4.3916e-06 1.34234e-06)
(5.69843e-06 3.99425e-06 7.76879e-07)
(2.39868e-06 2.7466e-06 2.81549e-07)
(2.90476e-07 9.88886e-07 -8.30831e-08)
(-6.44003e-07 -5.9582e-07 -2.57901e-07)
(-7.97434e-07 -1.34849e-06 -3.71228e-07)
(-7.98007e-07 -6.14274e-07 -5.02862e-07)
(-1.22454e-06 1.80217e-06 -6.7381e-07)
(-2.28251e-06 5.4134e-06 -8.77139e-07)
(-3.65294e-06 9.33657e-06 -1.08586e-06)
(-4.76843e-06 1.24206e-05 -1.17376e-06)
(-4.70084e-06 1.38463e-05 -1.16795e-06)
(-2.43026e-06 1.34267e-05 -1.01011e-06)
(2.53609e-06 1.15321e-05 -7.95419e-07)
(9.7911e-06 8.64788e-06 -4.49853e-07)
(1.80591e-05 5.40169e-06 -3.04002e-08)
(2.53725e-05 2.77109e-06 2.12665e-07)
(3.00544e-05 1.76069e-06 -2.49686e-07)
(3.12021e-05 3.53015e-06 -1.49864e-06)
(2.57507e-05 3.1408e-06 -2.73106e-06)
(3.07663e-06 -9.7178e-06 -7.98754e-07)
(1.48739e-06 4.38219e-05 -8.71727e-07)
(8.78973e-06 4.13747e-06 -1.19757e-05)
(8.51652e-07 7.24024e-06 8.51652e-07)
(7.21025e-06 -1.26365e-05 2.35274e-06)
(1.4877e-05 -8.84455e-06 2.56882e-06)
(1.84342e-05 -6.18736e-06 2.52677e-06)
(2.02347e-05 -2.37238e-06 2.2798e-06)
(1.99917e-05 1.73402e-06 1.88615e-06)
(1.79976e-05 5.28207e-06 1.46414e-06)
(1.47464e-05 7.46163e-06 1.19601e-06)
(1.07054e-05 7.87456e-06 9.85271e-07)
(6.27606e-06 6.61776e-06 7.50846e-07)
(1.8596e-06 4.39117e-06 5.02388e-07)
(-2.20698e-06 2.18499e-06 1.07918e-07)
(-5.51368e-06 9.99209e-07 -4.30409e-07)
(-7.61142e-06 1.54987e-06 -9.81227e-07)
(-8.35014e-06 3.85597e-06 -1.40561e-06)
(-7.78978e-06 7.29919e-06 -1.62175e-06)
(-6.12658e-06 1.06768e-05 -1.47491e-06)
(-3.66114e-06 1.25753e-05 -9.45173e-07)
(-4.86203e-07 1.2237e-05 -1.57234e-07)
(3.30578e-06 9.74455e-06 7.46758e-07)
(7.43789e-06 6.07143e-06 1.48894e-06)
(1.14722e-05 2.23177e-06 1.95834e-06)
(1.47527e-05 6.30273e-08 1.80888e-06)
(1.63181e-05 9.09412e-07 1.15845e-06)
(1.52025e-05 4.83285e-06 -1.04876e-08)
(1.20424e-05 1.22833e-05 -2.09907e-06)
(9.6941e-06 2.3696e-05 -5.23301e-06)
(-3.28768e-06 2.02589e-05 -6.49717e-06)
(-8.81534e-06 4.83721e-05 -6.51441e-06)
(-1.04695e-06 2.32769e-05 -9.96075e-06)
(1.06453e-06 1.58869e-07 1.06453e-06)
(6.23762e-06 -2.51209e-05 1.81409e-06)
(1.23477e-05 -1.80128e-05 1.60518e-06)
(1.60306e-05 -1.30101e-05 1.11608e-06)
(1.89899e-05 -6.57779e-06 6.64121e-07)
(2.08748e-05 2.33129e-07 3.96119e-07)
(2.13354e-05 6.19376e-06 3.53944e-07)
(2.00116e-05 1.03285e-05 6.02896e-07)
(1.67198e-05 1.21421e-05 1.04481e-06)
(1.15171e-05 1.18735e-05 1.35758e-06)
(4.85783e-06 1.0179e-05 1.33168e-06)
(-2.23461e-06 7.8514e-06 9.65061e-07)
(-8.4868e-06 5.82552e-06 3.66268e-07)
(-1.26568e-05 4.88305e-06 -4.06471e-07)
(-1.39071e-05 5.20147e-06 -1.0312e-06)
(-1.22933e-05 6.39747e-06 -1.14001e-06)
(-8.50875e-06 7.59918e-06 -6.53764e-07)
(-3.53982e-06 7.67202e-06 2.60727e-07)
(1.54954e-06 6.09977e-06 1.39975e-06)
(5.69357e-06 3.0313e-06 2.36192e-06)
(8.14069e-06 -4.52456e-07 3.11942e-06)
(8.55671e-06 -2.72202e-06 3.24325e-06)
(7.10129e-06 -1.85234e-06 2.70323e-06)
(4.17335e-06 3.1435e-06 1.37069e-06)
(-1.59728e-07 1.17019e-05 -4.76473e-07)
(-5.95558e-06 2.22168e-05 -2.44625e-06)
(-8.43635e-06 3.64406e-05 -5.10357e-06)
(-1.13596e-05 4.09894e-05 -5.83066e-06)
(-1.04396e-05 5.42609e-05 -6.04844e-06)
(-3.02844e-06 3.08098e-05 -6.03563e-06)
(-2.21503e-07 -4.71363e-06 -2.21503e-07)
(2.88444e-06 -3.3498e-05 -1.51748e-07)
(7.95932e-06 -2.39111e-05 -7.51705e-07)
(1.20043e-05 -1.75373e-05 -1.35999e-06)
(1.6658e-05 -9.58655e-06 -1.63914e-06)
(2.10326e-05 -1.26942e-06 -1.55779e-06)
(2.4168e-05 6.33924e-06 -1.01245e-06)
(2.50234e-05 1.23775e-05 -1.23438e-07)
(2.28872e-05 1.6207e-05 9.19855e-07)
(1.7633e-05 1.77559e-05 1.76978e-06)
(9.77439e-06 1.72382e-05 2.17819e-06)
(7.41394e-07 1.50249e-05 2.07284e-06)
(-7.58256e-06 1.16611e-05 1.63418e-06)
(-1.35208e-05 8.06985e-06 1.15675e-06)
(-1.60687e-05 4.96172e-06 8.47737e-07)
(-1.52528e-05 2.53463e-06 7.73033e-07)
(-1.17903e-05 6.2293e-07 1.1861e-06)
(-6.845e-06 -1.14992e-06 1.93924e-06)
(-1.9879e-06 -3.17546e-06 2.79234e-06)
(1.35269e-06 -5.32214e-06 3.37176e-06)
(2.60762e-06 -6.71607e-06 3.55396e-06)
(1.47449e-06 -5.93314e-06 3.35139e-06)
(-1.97673e-06 -1.74357e-06 2.67124e-06)
(-6.68332e-06 6.12803e-06 1.59716e-06)
(-1.12994e-05 1.74644e-05 1.7978e-07)
(-1.52897e-05 2.9424e-05 -1.09489e-06)
(-1.61202e-05 4.1416e-05 -2.42648e-06)
(-1.42516e-05 4.72088e-05 -2.67219e-06)
(-7.36613e-06 5.11138e-05 -2.42978e-06)
(-7.06212e-07 2.93751e-05 -4.22595e-07)
(-2.37266e-06 -3.16616e-06 -2.37266e-06)
(-1.43944e-06 -3.64345e-05 -2.70602e-06)
(3.24486e-06 -2.55313e-05 -3.33618e-06)
(7.64402e-06 -1.91081e-05 -3.67343e-06)
(1.37092e-05 -1.12261e-05 -3.56463e-06)
(1.98552e-05 -2.82842e-06 -2.96377e-06)
(2.4941e-05 5.49969e-06 -1.93469e-06)
(2.75657e-05 1.30976e-05 -6.22148e-07)
(2.68157e-05 1.9166e-05 7.67071e-07)
(2.25466e-05 2.285e-05 1.8763e-06)
(1.53391e-05 2.35997e-05 2.64579e-06)
(6.52959e-06 2.13429e-05 3.12099e-06)
(-2.18673e-06 1.644e-05 3.28784e-06)
(-9.28387e-06 9.9368e-06 3.27705e-06)
(-1.39799e-05 3.2026e-06 3.29679e-06)
(-1.62211e-05 -2.77245e-06 3.23313e-06)
(-1.61676e-05 -7.42745e-06 3.23117e-06)
(-1.43855e-05 -1.05978e-05 3.19838e-06)
(-1.18301e-05 -1.25411e-05 3.08121e-06)
(-9.58204e-06 -1.32329e-05 2.73494e-06)
(-8.34691e-06 -1.21229e-05 2.27903e-06)
(-8.39287e-06 -8.56511e-06 1.86522e-06)
(-9.90925e-06 -2.14091e-06 1.35517e-06)
(-1.239e-05 7.08454e-06 9.87969e-07)
(-1.4675e-05 1.83144e-05 7.52858e-07)
(-1.574e-05 2.93688e-05 7.83995e-07)
(-1.41367e-05 3.75174e-05 6.41713e-07)
(-1.00409e-05 4.06154e-05 1.31355e-06)
(-2.11476e-06 3.96703e-05 2.40542e-06)
(1.74203e-06 2.2933e-05 3.46318e-06)
(-3.76048e-06 5.3386e-06 -3.76048e-06)
(-4.34246e-06 -3.49951e-05 -4.03488e-06)
(-1.77138e-07 -2.39197e-05 -4.25611e-06)
(3.77768e-06 -1.89445e-05 -4.22426e-06)
(9.604e-06 -1.25507e-05 -3.56293e-06)
(1.55762e-05 -5.07337e-06 -2.60858e-06)
(2.06834e-05 3.38254e-06 -1.4838e-06)
(2.39194e-05 1.21545e-05 -3.3553e-07)
(2.46798e-05 1.99702e-05 7.207e-07)
(2.28365e-05 2.55388e-05 1.71978e-06)
(1.86129e-05 2.74485e-05 2.53208e-06)
(1.25862e-05 2.51741e-05 3.36395e-06)
(5.53469e-06 1.91887e-05 4.15641e-06)
(-1.88045e-06 1.08278e-05 4.66854e-06)
(-9.13862e-06 1.85099e-06 4.77639e-06)
(-1.56679e-05 -6.2581e-06 4.53042e-06)
(-2.08112e-05 -1.24119e-05 3.85296e-06)
(-2.39047e-05 -1.636e-05 2.72692e-06)
(-2.45647e-05 -1.84354e-05 1.40528e-06)
(-2.32949e-05 -1.83767e-05 1.59027e-07)
(-2.08469e-05 -1.63761e-05 -7.44029e-07)
(-1.79548e-05 -1.17776e-05 -1.22267e-06)
(-1.53624e-05 -4.58429e-06 -1.21496e-06)
(-1.34992e-05 4.76501e-06 -7.66628e-07)
(-1.19813e-05 1.46009e-05 -1.8489e-07)
(-9.81655e-06 2.33788e-05 6.56463e-07)
(-6.20383e-06 2.82761e-05 1.66568e-06)
(-1.75977e-06 2.88156e-05 2.81763e-06)
(2.82548e-06 2.69801e-05 3.45432e-06)
(2.67916e-06 1.72608e-05 3.20414e-06)
(-2.38923e-06 1.44997e-05 -2.38923e-06)
(-3.37545e-06 -3.23478e-05 -2.31046e-06)
(-1.87664e-06 -2.21291e-05 -1.90245e-06)
(-2.4179e-07 -1.9292e-05 -1.52573e-06)
(2.62575e-06 -1.48335e-05 -7.50906e-07)
(5.66498e-06 -8.49576e-06 -6.52983e-08)
(8.62919e-06 -2.31648e-07 3.67673e-07)
(1.12628e-05 9.08911e-06 4.98027e-07)
(1.36547e-05 1.78524e-05 5.03861e-07)
(1.57053e-05 2.44645e-05 7.02881e-07)
(1.66925e-05 2.73892e-05 1.37188e-06)
(1.57239e-05 2.59019e-05 2.16376e-06)
(1.21214e-05 2.05177e-05 3.16333e-06)
(5.55025e-06 1.27391e-05 3.8437e-06)
(-3.76245e-06 4.20373e-06 3.89699e-06)
(-1.41615e-05 -3.52701e-06 3.22448e-06)
(-2.37043e-05 -9.88385e-06 1.78287e-06)
(-3.10325e-05 -1.47198e-05 -9.8226e-08)
(-3.45518e-05 -1.79529e-05 -1.79784e-06)
(-3.38189e-05 -1.92255e-05 -3.1638e-06)
(-2.98606e-05 -1.85453e-05 -4.01805e-06)
(-2.42005e-05 -1.49049e-05 -4.16909e-06)
(-1.80992e-05 -8.31859e-06 -3.82547e-06)
(-1.24308e-05 1.4739e-07 -3.15117e-06)
(-7.35956e-06 8.69771e-06 -2.1033e-06)
(-2.43521e-06 1.54826e-05 -8.33723e-07)
(2.10761e-06 1.88044e-05 3.73492e-07)
(5.04557e-06 1.94428e-05 1.22628e-06)
(5.94441e-06 1.95122e-05 1.39769e-06)
(3.08789e-06 1.54081e-05 1.56846e-06)
(2.83053e-06 1.54316e-05 2.83053e-06)
(1.7169e-06 -3.04605e-05 3.0102e-06)
(-3.6391e-06 -2.25088e-05 3.74887e-06)
(-6.50719e-06 -2.09756e-05 3.70866e-06)
(-9.2575e-06 -1.79424e-05 3.83138e-06)
(-1.12305e-05 -1.24566e-05 3.22961e-06)
(-1.15699e-05 -4.65504e-06 2.1177e-06)
(-9.48958e-06 4.41839e-06 7.74404e-07)
(-4.71952e-06 1.29377e-05 -5.58478e-07)
(2.20794e-06 1.94832e-05 -1.15697e-06)
(9.54962e-06 2.32385e-05 -9.35472e-07)
(1.46361e-05 2.39071e-05 -6.53619e-08)
(1.53223e-05 2.18147e-05 4.8113e-07)
(1.06513e-05 1.78797e-05 7.04499e-07)
(1.34184e-06 1.28179e-05 5.41638e-07)
(-1.05468e-05 7.54074e-06 -3.84156e-07)
(-2.24853e-05 1.70378e-06 -1.68809e-06)
(-3.15936e-05 -4.61062e-06 -3.04396e-06)
(-3.60344e-05 -1.08052e-05 -4.40075e-06)
(-3.57346e-05 -1.56541e-05 -5.11462e-06)
(-3.1701e-05 -1.80474e-05 -5.36744e-06)
(-2.52849e-05 -1.69809e-05 -5.08467e-06)
(-1.7924e-05 -1.2336e-05 -4.41986e-06)
(-1.0546e-05 -5.37241e-06 -3.54382e-06)
(-3.54805e-06 1.93253e-06 -2.71112e-06)
(2.7351e-06 7.82261e-06 -1.52657e-06)
(7.55825e-06 1.15875e-05 -4.25221e-07)
(9.50349e-06 1.42991e-05 3.6187e-07)
(9.08839e-06 1.67032e-05 1.06673e-06)
(4.4203e-06 1.59803e-05 2.8329e-06)
(1.00652e-05 3.6854e-07 1.00652e-05)
(7.80941e-06 -2.88485e-05 9.0591e-06)
(-7.62963e-06 -2.40508e-05 9.07756e-06)
(-1.57767e-05 -2.23643e-05 8.07386e-06)
(-2.47153e-05 -1.95299e-05 6.59768e-06)
(-3.14673e-05 -1.44671e-05 4.44549e-06)
(-3.42837e-05 -7.7426e-06 1.92609e-06)
(-3.18286e-05 -4.8292e-07 -4.41376e-07)
(-2.38231e-05 6.13751e-06 -2.14057e-06)
(-1.1911e-05 1.15157e-05 -3.04317e-06)
(8.21654e-07 1.61837e-05 -3.10285e-06)
(1.09519e-05 2.02071e-05 -2.59881e-06)
(1.56041e-05 2.35583e-05 -1.91669e-06)
(1.35875e-05 2.58206e-05 -1.7985e-06)
(6.19759e-06 2.61222e-05 -2.18238e-06)
(-4.0699e-06 2.38298e-05 -2.78007e-06)
(-1.45155e-05 1.83264e-05 -3.386e-06)
(-2.24398e-05 9.63393e-06 -3.97086e-06)
(-2.67858e-05 -7.23004e-07 -4.09608e-06)
(-2.74661e-05 -1.00238e-05 -3.76791e-06)
(-2.52223e-05 -1.65937e-05 -3.25349e-06)
(-2.10495e-05 -1.87901e-05 -2.61582e-06)
(-1.55962e-05 -1.67122e-05 -2.00853e-06)
(-9.35693e-06 -1.16023e-05 -1.44139e-06)
(-2.48709e-06 -5.62844e-06 -7.73301e-07)
(4.24514e-06 -1.20691e-07 1.91162e-07)
(9.40229e-06 4.72932e-06 1.33245e-06)
(1.17126e-05 9.2313e-06 2.70139e-06)
(1.16983e-05 1.27901e-05 4.16936e-06)
(5.83386e-06 1.62817e-05 6.04599e-06)
(1.47339e-05 -2.96631e-05 1.47339e-05)
(9.76988e-06 -2.3653e-05 1.11985e-05)
(-1.45584e-05 -2.21204e-05 1.01145e-05)
(-2.64274e-05 -1.98565e-05 8.16308e-06)
(-3.85686e-05 -1.616e-05 5.69865e-06)
(-4.68258e-05 -1.18405e-05 2.79851e-06)
(-4.96112e-05 -7.85164e-06 -4.47022e-08)
(-4.53842e-05 -4.73232e-06 -2.026e-06)
(-3.44304e-05 -1.97032e-06 -3.1436e-06)
(-1.97006e-05 1.31626e-06 -3.4028e-06)
(-4.62947e-06 7.02793e-06 -3.08785e-06)
(7.48784e-06 1.50594e-05 -2.65437e-06)
(1.43075e-05 2.44565e-05 -2.39961e-06)
(1.52236e-05 3.30128e-05 -2.42882e-06)
(1.16458e-05 3.81918e-05 -2.43211e-06)
(5.81963e-06 3.82724e-05 -2.46427e-06)
(-4.63585e-07 3.23699e-05 -2.19929e-06)
(-5.97796e-06 2.09167e-05 -1.51963e-06)
(-1.01625e-05 6.90194e-06 -4.68936e-07)
(-1.30499e-05 -6.3048e-06 5.809e-07)
(-1.4716e-05 -1.63315e-05 1.47669e-06)
(-1.51993e-05 -2.1346e-05 2.06694e-06)
(-1.40679e-05 -2.16511e-05 2.28794e-06)
(-1.0602e-05 -1.87231e-05 2.16884e-06)
(-5.02656e-06 -1.44281e-05 2.41071e-06)
(1.33217e-06 -9.59002e-06 3.22211e-06)
(6.56412e-06 -4.27318e-06 4.39447e-06)
(9.31442e-06 1.03933e-06 5.92351e-06)
(8.79282e-06 6.01165e-06 7.24537e-06)
(3.92798e-06 1.53576e-05 6.08057e-06)
(1.25139e-05 -6.06028e-05 1.25139e-05)
(4.24895e-06 -9.66155e-06 8.01237e-06)
(-2.16502e-05 -1.2118e-05 6.19277e-06)
(-3.31965e-05 -1.00645e-05 3.68473e-06)
(-4.35773e-05 -6.94106e-06 1.21368e-06)
(-4.95296e-05 -5.60424e-06 -7.05699e-07)
(-4.93658e-05 -6.71647e-06 -1.80275e-06)
(-4.23841e-05 -9.5759e-06 -1.99907e-06)
(-3.04497e-05 -1.18748e-05 -1.50126e-06)
(-1.68072e-05 -1.06278e-05 -1.14454e-06)
(-4.09497e-06 -3.83352e-06 -5.91889e-07)
(5.7485e-06 8.03664e-06 -4.30087e-07)
(1.20503e-05 2.24947e-05 -6.09533e-07)
(1.51277e-05 3.57244e-05 -9.8607e-07)
(1.59264e-05 4.39257e-05 -8.99808e-07)
(1.52808e-05 4.49876e-05 -3.10312e-07)
(1.3715e-05 3.83842e-05 9.8332e-07)
(1.09927e-05 2.53611e-05 2.58235e-06)
(6.64484e-06 9.5626e-06 4.1064e-06)
(7.62616e-07 -5.40489e-06 5.27611e-06)
(-5.81561e-06 -1.65934e-05 5.74977e-06)
(-1.1527e-05 -2.31675e-05 5.38614e-06)
(-1.44938e-05 -2.55429e-05 4.57016e-06)
(-1.38155e-05 -2.52586e-05 4.07712e-06)
(-1.00921e-05 -2.32077e-05 4.21574e-06)
(-5.13968e-06 -1.9425e-05 4.81041e-06)
(-1.35347e-06 -1.37859e-05 5.37819e-06)
(1.0909e-07 -6.65738e-06 5.50172e-06)
(-2.3727e-06 2.06945e-06 4.33203e-06)
(-2.48478e-06 1.41731e-05 4.19101e-07)
(5.12611e-06 -7.49019e-05 5.12611e-06)
(-4.52399e-06 1.13975e-05 -1.04952e-07)
(-2.30956e-05 4.04262e-06 -1.34711e-06)
(-3.04413e-05 4.22377e-06 -2.78086e-06)
(-3.51805e-05 3.84608e-06 -3.08496e-06)
(-3.52746e-05 -3.80312e-07 -2.55504e-06)
(-3.05098e-05 -8.08731e-06 -1.51535e-06)
(-2.25951e-05 -1.69547e-05 -1.24775e-07)
(-1.35692e-05 -2.28868e-05 1.20256e-06)
(-5.64097e-06 -2.23816e-05 2.07221e-06)
(-2.69342e-08 -1.40256e-05 2.16747e-06)
(4.06032e-06 9.4119e-07 1.60335e-06)
(7.78762e-06 1.82966e-05 6.99204e-07)
(1.20056e-05 3.3379e-05 3.57785e-08)
(1.66383e-05 4.24924e-05 1.56472e-07)
(2.05786e-05 4.3737e-05 1.16811e-06)
(2.25081e-05 3.71586e-05 2.67926e-06)
(2.11155e-05 2.47907e-05 4.38342e-06)
(1.55622e-05 1.01155e-05 5.58359e-06)
(6.85774e-06 -3.54479e-06 6.06073e-06)
(-2.9065e-06 -1.40867e-05 5.66114e-06)
(-1.13026e-05 -2.14451e-05 4.93164e-06)
(-1.62036e-05 -2.62001e-05 4.20047e-06)
(-1.73239e-05 -2.90745e-05 4.07649e-06)
(-1.61495e-05 -2.92386e-05 4.26738e-06)
(-1.46648e-05 -2.57556e-05 4.36212e-06)
(-1.43255e-05 -1.84783e-05 3.65016e-06)
(-1.5221e-05 -7.73724e-06 1.57522e-06)
(-1.73259e-05 4.20667e-06 -1.86217e-06)
(-9.5498e-06 9.17685e-06 -2.93946e-06)
(-4.02562e-06 -6.55238e-05 -4.02562e-06)
(-1.17863e-05 3.25066e-05 -5.99866e-06)
(-1.6412e-05 1.94371e-05 -5.45583e-06)
(-1.64968e-05 1.60608e-05 -5.39152e-06)
(-1.33647e-05 1.0134e-05 -4.03091e-06)
(-7.22604e-06 -2.54901e-07 -2.16474e-06)
(-1.17385e-07 -1.31576e-05 -1.15786e-08)
(5.46835e-06 -2.49256e-05 2.05782e-06)
(8.18927e-06 -3.12061e-05 3.31929e-06)
(7.54631e-06 -2.92799e-05 3.48066e-06)
(5.07142e-06 -1.86611e-05 2.64722e-06)
(3.42522e-06 -2.4304e-06 1.08759e-06)
(4.36069e-06 1.49353e-05 -1.88038e-07)
(8.71979e-06 2.89471e-05 -6.61573e-07)
(1.50655e-05 3.7064e-05 -1.72231e-07)
(2.07473e-05 3.83152e-05 1.12357e-06)
(2.36343e-05 3.31088e-05 2.34697e-06)
(2.20065e-05 2.35943e-05 3.54589e-06)
(1.55388e-05 1.21718e-05 4.30842e-06)
(6.0401e-06 1.21579e-06 4.43039e-06)
(-4.08199e-06 -8.45932e-06 4.0494e-06)
(-1.24774e-05 -1.72412e-05 3.85333e-06)
(-1.78572e-05 -2.4977e-05 4.00405e-06)
(-2.09581e-05 -3.0494e-05 4.40246e-06)
(-2.3422e-05 -3.15482e-05 4.43924e-06)
(-2.62314e-05 -2.69273e-05 3.57294e-06)
(-2.87289e-05 -1.73784e-05 1.53457e-06)
(-2.91178e-05 -5.06694e-06 -1.09589e-06)
(-2.47639e-05 3.74048e-06 -1.78684e-06)
(-1.07237e-05 -4.8209e-06 -3.25069e-07)
(-8.13008e-06 -4.1155e-05 -8.13008e-06)
(-1.09572e-05 4.48746e-05 -6.7794e-06)
(-2.88463e-06 2.74294e-05 -5.93482e-06)
(4.40951e-06 2.01785e-05 -5.08977e-06)
(1.34759e-05 9.06524e-06 -3.2136e-06)
(2.25685e-05 -5.16728e-06 -1.17647e-06)
(2.89752e-05 -1.9276e-05 8.61735e-07)
(3.04165e-05 -2.92834e-05 2.32509e-06)
(2.64482e-05 -3.22459e-05 2.70525e-06)
(1.88615e-05 -2.70241e-05 2.11579e-06)
(1.06235e-05 -1.52708e-05 9.62921e-07)
(5.38897e-06 -5.45166e-07 -7.53767e-08)
(4.9046e-06 1.33705e-05 -5.86116e-07)
(8.21978e-06 2.39274e-05 -2.2609e-07)
(1.33382e-05 2.99971e-05 7.9651e-07)
(1.7591e-05 3.13205e-05 2.10054e-06)
(1.90007e-05 2.83374e-05 3.30643e-06)
(1.61708e-05 2.23881e-05 4.06766e-06)
(9.40205e-06 1.455e-05 4.14393e-06)
(8.04012e-07 5.67365e-06 4.167e-06)
(-7.81416e-06 -4.29909e-06 4.34018e-06)
(-1.52319e-05 -1.51002e-05 4.66557e-06)
(-2.12518e-05 -2.50043e-05 5.12619e-06)
(-2.69857e-05 -3.12532e-05 5.17749e-06)
(-3.28975e-05 -3.14313e-05 4.22905e-06)
(-3.76062e-05 -2.57912e-05 2.44482e-06)
(-3.88334e-05 -1.66524e-05 5.64562e-07)
(-3.37919e-05 -9.01243e-06 5.24954e-07)
(-2.1172e-05 -9.20841e-06 2.04571e-06)
(-6.66943e-06 -2.49055e-05 3.76836e-06)
(-7.69925e-06 -1.83931e-05 -7.69925e-06)
(-3.39458e-06 4.31615e-05 -5.12954e-06)
(1.32054e-05 2.51857e-05 -4.46107e-06)
(2.42961e-05 1.53464e-05 -3.39577e-06)
(3.60893e-05 1.74501e-06 -1.92348e-06)
(4.5282e-05 -1.26357e-05 -3.89664e-07)
(4.94554e-05 -2.39871e-05 1.06512e-06)
(4.74161e-05 -2.91975e-05 1.98612e-06)
(3.99255e-05 -2.71981e-05 2.10559e-06)
(2.9459e-05 -1.93736e-05 1.9452e-06)
(1.94532e-05 -8.84075e-06 1.63742e-06)
(1.27649e-05 1.99426e-06 1.87202e-06)
(9.88317e-06 1.06857e-05 2.48308e-06)
(9.75503e-06 1.71079e-05 3.46478e-06)
(1.07024e-05 2.11903e-05 4.40994e-06)
(1.08195e-05 2.28837e-05 5.12801e-06)
(8.94871e-06 2.20522e-05 5.42416e-06)
(4.75149e-06 1.90835e-05 5.47834e-06)
(-1.31172e-06 1.39125e-05 5.41095e-06)
(-8.47767e-06 6.1079e-06 5.29897e-06)
(-1.58043e-05 -4.3229e-06 5.4261e-06)
(-2.29027e-05 -1.59183e-05 5.42861e-06)
(-3.03577e-05 -2.57028e-05 4.97363e-06)
(-3.80569e-05 -3.04827e-05 3.55997e-06)
(-4.41472e-05 -2.9744e-05 1.66678e-06)
(-4.56752e-05 -2.60105e-05 5.55959e-07)
(-4.07781e-05 -2.26374e-05 8.81347e-07)
(-2.90721e-05 -2.36495e-05 2.44595e-06)
(-1.41561e-05 -2.98917e-05 4.06521e-06)
(-3.46588e-06 -4.22009e-05 3.48153e-06)
(-4.39246e-06 -7.18206e-06 -4.39246e-06)
(5.33264e-06 2.94548e-05 -2.2923e-06)
(2.55862e-05 1.40227e-05 -1.92473e-06)
(3.89536e-05 3.13799e-06 -1.03848e-06)
(5.18104e-05 -1.04296e-05 1.99712e-07)
(6.08881e-05 -2.23087e-05 1.6356e-06)
(6.38682e-05 -2.89441e-05 2.73306e-06)
(6.03946e-05 -2.88312e-05 3.73653e-06)
(5.23026e-05 -2.30978e-05 4.34525e-06)
(4.20433e-05 -1.47808e-05 4.88656e-06)
(3.18903e-05 -6.64805e-06 5.50544e-06)
(2.31826e-05 -1.94667e-08 6.458e-06)
(1.61527e-05 4.66144e-06 7.39013e-06)
(1.03002e-05 8.50028e-06 7.94551e-06)
(4.96776e-06 1.1686e-05 7.81206e-06)
(-1.50985e-07 1.41248e-05 7.23503e-06)
(-5.14274e-06 1.51719e-05 6.42904e-06)
(-1.03376e-05 1.43873e-05 5.69609e-06)
(-1.59908e-05 1.10077e-05 5.07513e-06)
(-2.22375e-05 4.3261e-06 4.66482e-06)
(-2.92694e-05 -5.03197e-06 4.21583e-06)
(-3.72167e-05 -1.49186e-05 3.294e-06)
(-4.52022e-05 -2.26259e-05 1.78608e-06)
(-5.11047e-05 -2.6713e-05 9.36267e-08)
(-5.2522e-05 -2.8868e-05 -5.95828e-07)
(-4.74482e-05 -3.15418e-05 -3.62972e-07)
(-3.61703e-05 -3.63213e-05 1.18399e-06)
(-2.23144e-05 -4.26451e-05 2.88828e-06)
(-1.13688e-05 -4.61351e-05 2.7324e-06)
(-3.6889e-06 -5.33456e-05 1.78738e-06)
(-9.57843e-07 -8.5163e-06 -9.57843e-07)
(1.26022e-05 7.4264e-06 8.41099e-07)
(3.47933e-05 -4.42943e-06 1.3513e-06)
(5.01532e-05 -1.56564e-05 2.48528e-06)
(6.35012e-05 -2.77142e-05 3.97785e-06)
(7.20004e-05 -3.60082e-05 5.44337e-06)
(7.4198e-05 -3.78457e-05 6.51794e-06)
(7.06573e-05 -3.32935e-05 7.40495e-06)
(6.32066e-05 -2.5294e-05 8.04961e-06)
(5.3575e-05 -1.71218e-05 8.86584e-06)
(4.28097e-05 -1.06784e-05 9.84869e-06)
(3.11813e-05 -6.03002e-06 1.04544e-05)
(1.90271e-05 -2.34587e-06 1.03201e-05)
(7.0901e-06 1.26852e-06 9.43443e-06)
(-3.6061e-06 4.94536e-06 8.06847e-06)
(-1.22284e-05 8.10397e-06 6.78669e-06)
(-1.89614e-05 1.02126e-05 5.82751e-06)
(-2.48955e-05 1.07712e-05 4.97832e-06)
(-3.11152e-05 9.10382e-06 4.16436e-06)
(-3.81795e-05 4.54872e-06 3.34807e-06)
(-4.60098e-05 -2.34338e-06 2.31092e-06)
(-5.37303e-05 -9.87083e-06 7.94557e-07)
(-5.93116e-05 -1.71445e-05 -6.20785e-07)
(-6.01832e-05 -2.50348e-05 -1.1223e-06)
(-5.50588e-05 -3.43584e-05 -3.75128e-07)
(-4.48171e-05 -4.44431e-05 1.39511e-06)
(-3.23153e-05 -5.35083e-05 2.87424e-06)
(-2.12359e-05 -5.85053e-05 3.20017e-06)
(-1.27804e-05 -5.63515e-05 2.00216e-06)
(-4.55861e-06 -6.32297e-05 1.72876e-06)
(2.47112e-06 -2.12811e-05 2.47112e-06)
(1.97066e-05 -2.16391e-05 4.22201e-06)
(4.36916e-05 -3.04647e-05 5.55039e-06)
(6.0781e-05 -4.12981e-05 7.22458e-06)
(7.35938e-05 -5.07703e-05 8.73073e-06)
(8.01842e-05 -5.4662e-05 9.77128e-06)
(8.07011e-05 -5.17781e-05 1.04963e-05)
(7.66368e-05 -4.38407e-05 1.09201e-05)
(6.95514e-05 -3.40298e-05 1.12377e-05)
(6.01534e-05 -2.49932e-05 1.16469e-05)
(4.83125e-05 -1.76597e-05 1.18528e-05)
(3.39584e-05 -1.15893e-05 1.14792e-05)
(1.80035e-05 -6.23858e-06 1.0434e-05)
(2.57949e-06 -1.59284e-06 9.02457e-06)
(-1.02961e-05 1.89869e-06 8.00834e-06)
(-2.02153e-05 4.26518e-06 7.32031e-06)
(-2.83333e-05 6.30992e-06 6.80616e-06)
(-3.61681e-05 7.90589e-06 6.29062e-06)
(-4.45984e-05 8.22408e-06 5.33758e-06)
(-5.35211e-05 6.04443e-06 4.0722e-06)
(-6.17818e-05 1.20728e-06 2.59076e-06)
(-6.75124e-05 -6.48539e-06 1.15462e-06)
(-6.88586e-05 -1.80626e-05 8.4544e-07)
(-6.46042e-05 -3.30645e-05 1.88642e-06)
(-5.57785e-05 -4.91667e-05 3.66103e-06)
(-4.53465e-05 -6.25102e-05 4.94241e-06)
(-3.57035e-05 -7.08142e-05 4.53492e-06)
(-2.69374e-05 -7.22577e-05 3.08399e-06)
(-1.63445e-05 -6.88546e-05 1.94908e-06)
(-5.11031e-06 -7.67636e-05 2.27564e-06)
(6.39061e-06 -4.48118e-05 6.39061e-06)
(2.79748e-05 -5.92105e-05 8.55576e-06)
(5.33014e-05 -6.5383e-05 1.03758e-05)
(7.05485e-05 -7.39189e-05 1.20804e-05)
(8.1191e-05 -7.88088e-05 1.32593e-05)
(8.47077e-05 -7.71693e-05 1.38047e-05)
(8.29042e-05 -6.95179e-05 1.34342e-05)
(7.82715e-05 -5.84157e-05 1.29051e-05)
(7.17065e-05 -4.64309e-05 1.27115e-05)
(6.24847e-05 -3.49854e-05 1.26586e-05)
(4.98086e-05 -2.44494e-05 1.24006e-05)
(3.40416e-05 -1.51236e-05 1.16801e-05)
(1.71992e-05 -7.96624e-06 1.08692e-05)
(1.76972e-06 -3.79838e-06 1.03981e-05)
(-1.10787e-05 -2.48167e-06 1.02997e-05)
(-2.20938e-05 -1.88625e-06 1.03777e-05)
(-3.30001e-05 1.45726e-07 1.04042e-05)
(-4.45419e-05 3.44273e-06 9.86599e-06)
(-5.61612e-05 5.78951e-06 8.48128e-06)
(-6.6477e-05 4.99523e-06 6.81464e-06)
(-7.36608e-05 -7.14743e-07 5.57809e-06)
(-7.65086e-05 -1.27994e-05 5.34306e-06)
(-7.42817e-05 -3.07592e-05 6.33272e-06)
(-6.8127e-05 -5.14227e-05 7.63902e-06)
(-6.09441e-05 -7.026e-05 8.36921e-06)
(-5.41341e-05 -8.28807e-05 7.75892e-06)
(-4.6872e-05 -8.89148e-05 5.74048e-06)
(-3.6883e-05 -8.99008e-05 3.79485e-06)
(-2.15817e-05 -8.97932e-05 3.35115e-06)
(-6.21817e-06 -9.74302e-05 4.83108e-06)
(1.08345e-05 -8.13468e-05 1.08345e-05)
(3.65949e-05 -0.000106248 1.33723e-05)
(6.15748e-05 -0.000108732 1.5356e-05)
(7.72738e-05 -0.000111964 1.65036e-05)
(8.49852e-05 -0.000109751 1.66874e-05)
(8.61959e-05 -0.0001016 1.56226e-05)
(8.37904e-05 -8.9401e-05 1.45486e-05)
(7.95633e-05 -7.55733e-05 1.38769e-05)
(7.33369e-05 -6.12407e-05 1.37235e-05)
(6.40211e-05 -4.6565e-05 1.36807e-05)
(5.11983e-05 -3.2335e-05 1.34037e-05)
(3.59989e-05 -2.05469e-05 1.30233e-05)
(2.05117e-05 -1.33501e-05 1.29796e-05)
(6.39184e-06 -1.14744e-05 1.33248e-05)
(-6.60501e-06 -1.23007e-05 1.40633e-05)
(-2.01187e-05 -1.22992e-05 1.45267e-05)
(-3.53483e-05 -9.11915e-06 1.40769e-05)
(-5.1242e-05 -3.77142e-06 1.27713e-05)
(-6.50159e-05 -3.10615e-07 1.14374e-05)
(-7.48707e-05 -2.79627e-06 1.05885e-05)
(-7.9964e-05 -1.30425e-05 1.05606e-05)
(-8.04155e-05 -3.12712e-05 1.15237e-05)
(-7.80777e-05 -5.36931e-05 1.27467e-05)
(-7.5449e-05 -7.5738e-05 1.28711e-05)
(-7.29401e-05 -9.38379e-05 1.20143e-05)
(-6.85482e-05 -0.000105827 1.03991e-05)
(-6.05677e-05 -0.000111839 8.3696e-06)
(-4.72544e-05 -0.000116459 6.87775e-06)
(-2.58527e-05 -0.000122648 7.35994e-06)
(-6.42127e-06 -0.000129197 1.16833e-05)
(1.53312e-05 -0.000132733 1.53312e-05)
(4.34954e-05 -0.000160766 1.76534e-05)
(6.57825e-05 -0.000157744 1.88569e-05)
(7.98331e-05 -0.000152539 1.83747e-05)
(8.619e-05 -0.000141894 1.71781e-05)
(8.75541e-05 -0.000127444 1.59957e-05)
(8.6433e-05 -0.000111872 1.52374e-05)
(8.34003e-05 -9.61187e-05 1.51235e-05)
(7.75729e-05 -7.93287e-05 1.52996e-05)
(6.80699e-05 -6.12937e-05 1.53007e-05)
(5.55395e-05 -4.41864e-05 1.51011e-05)
(4.17142e-05 -3.16547e-05 1.52674e-05)
(2.8199e-05 -2.6207e-05 1.59437e-05)
(1.49918e-05 -2.65386e-05 1.69067e-05)
(-5.28298e-08 -2.78083e-05 1.778e-05)
(-1.80679e-05 -2.60599e-05 1.78663e-05)
(-3.74926e-05 -2.06629e-05 1.69946e-05)
(-5.53052e-05 -1.52108e-05 1.59807e-05)
(-6.90338e-05 -1.41469e-05 1.55733e-05)
(-7.73152e-05 -2.1662e-05 1.60407e-05)
(-8.10113e-05 -3.76572e-05 1.70717e-05)
(-8.27235e-05 -5.9846e-05 1.82451e-05)
(-8.44637e-05 -8.35105e-05 1.87935e-05)
(-8.68311e-05 -0.000103928 1.78686e-05)