/*--------------------------------*- C++ -*----------------------------------*\
| =========                 |                                                 |
| \\      /  F ield         | OpenFOAM: The Open Source CFD Toolbox           |
|  \\    /   O peration     | Version:  2312                                  |
|   \\  /    A nd           | Website:  www.openfoam.com                      |
|    \\/     M anipulation  |                                                 |
\*---------------------------------------------------------------------------*/
FoamFile
{
    version     2.0;
    format      ascii;
    arch        "LSB;label=32;scalar=64";
    class       surfaceScalarField;
    location    "0.46258";
    object      alphaPhi0.water;
}
// * * * * * * * * * * * * * * * * * * * * * * * * * * * * * * * * * * * * * //

dimensions      [0 3 -1 0 0 0 0];

oriented        oriented;

internalField   nonuniform List<scalar> 
263100
(
4.44662e-11
-8.89323e-11
4.44662e-11
-4.17955e-10
4.73411e-10
-1.10057e-10
-7.19768e-10
3.50648e-10
-1.31123e-10
-9.03459e-10
2.79218e-10
-1.67578e-10
-9.69511e-10
1.96417e-10
-1.8482e-10
-9.1408e-10
9.50509e-11
-1.8229e-10
-7.616e-10
3.60794e-12
-1.66132e-10
-5.60633e-10
-6.34982e-11
-1.32655e-10
-3.79751e-10
-7.52441e-11
-9.61837e-11
-2.54475e-10
-3.57343e-11
-8.50278e-11
-1.8133e-10
2.95405e-11
-1.08596e-10
-1.46366e-10
1.14242e-10
-1.65196e-10
-1.05087e-10
1.79699e-10
-2.41189e-10
-1.44992e-11
2.07019e-10
-3.12639e-10
1.60962e-10
1.90008e-10
-3.65327e-10
4.25252e-10
1.31974e-10
-3.73661e-10
7.11483e-10
8.85941e-11
-3.27885e-10
9.37408e-10
6.35609e-11
-2.23035e-10
1.02411e-09
9.18178e-11
-1.02901e-10
9.17711e-10
1.70901e-10
8.09454e-12
5.88876e-10
2.84925e-10
1.04511e-10
7.21234e-11
4.31569e-10
1.32107e-10
-5.65047e-10
5.7159e-10
1.05052e-10
-1.20957e-09
6.41622e-10
4.56653e-11
-1.68853e-09
5.69147e-10
-3.41188e-11
-1.83426e-09
3.34093e-10
-1.13055e-10
-1.57372e-09
-4.50423e-12
-1.59292e-10
-9.96181e-10
-3.34721e-10
-1.24489e-10
-1.67067e-10
-5.88359e-10
-1.03762e-10
-3.97953e-10
3.76162e-10
-1.22247e-10
5.49981e-11
-1.22247e-10
-3.07133e-10
6.27199e-10
-1.21728e-10
-4.13452e-10
4.48255e-10
-1.18394e-10
-4.9222e-10
3.59116e-10
-9.97024e-11
-5.31374e-10
2.50115e-10
-7.5871e-11
-5.32427e-10
1.27889e-10
-5.58698e-11
-4.97168e-10
1.22462e-11
-4.03284e-11
-4.42506e-10
-6.06838e-11
-4.15403e-11
-3.76917e-10
-6.45867e-11
-6.27584e-11
-2.91675e-10
-2.03119e-11
-9.84802e-11
-1.84657e-10
4.61808e-11
-1.3287e-10
-5.15512e-11
1.23071e-10
-1.54462e-10
9.97442e-11
1.84687e-10
-1.59019e-10
2.57526e-10
2.16709e-10
-1.46856e-10
4.0517e-10
2.12178e-10
-1.16478e-10
5.01928e-10
1.9703e-10
-7.42108e-11
5.44092e-10
2.01901e-10
-4.12308e-11
5.22393e-10
2.49711e-10
-3.86146e-11
4.36644e-10
3.58992e-10
-6.13643e-11
2.89606e-10
5.29382e-10
-1.09955e-10
1.2558e-10
7.03605e-10
-1.74232e-10
-3.86246e-11
8.64587e-10
-2.00446e-10
-1.34345e-10
9.37742e-10
-1.97958e-10
-1.3776e-10
8.8927e-10
-1.52013e-10
-5.76931e-11
6.44671e-10
-3.48981e-11
1.14167e-10
2.10266e-10
9.96519e-11
3.78717e-10
-3.49193e-10
2.33877e-10
6.58493e-10
-8.36022e-10
2.95324e-10
6.15415e-10
-1.07978e-09
2.73586e-10
-1.22726e-09
1.04841e-10
-1.02047e-10
1.76995e-10
-1.02047e-10
-4.25521e-11
5.04441e-10
-5.36411e-11
-5.50358e-12
3.49811e-10
-3.25052e-11
-1.3456e-11
2.9956e-10
9.01786e-13
-6.63759e-11
2.40579e-10
2.86974e-11
-1.49978e-10
1.70903e-10
3.79736e-11
-2.47362e-10
1.07306e-10
2.30542e-11
-3.18847e-10
5.75655e-11
-1.27435e-11
-3.37716e-10
4.92998e-11
-5.58078e-11
-2.68113e-10
4.81868e-11
-9.74417e-11
-1.12527e-10
5.38514e-11
-1.20438e-10
1.00379e-10
6.55063e-11
-1.07116e-10
3.18276e-10
8.51152e-11
-6.12681e-11
4.79504e-10
1.22761e-10
2.85338e-13
5.22462e-10
1.777e-10
6.85584e-11
4.32352e-10
2.66315e-10
1.03438e-10
2.45286e-10
3.82774e-10
8.81395e-11
1.96065e-11
5.24027e-10
2.53999e-11
-1.74223e-10
6.81386e-10
-6.84202e-11
-2.3796e-10
8.30475e-10
-1.93199e-10
-1.36666e-10
9.26789e-10
-2.92775e-10
1.47544e-10
9.49022e-10
-3.41167e-10
5.61307e-10
8.7532e-10
-3.18948e-10
1.03334e-09
6.67927e-10
-2.07858e-10
1.43576e-09
3.72426e-10
-7.58548e-11
1.64638e-09
-2.58951e-11
9.82947e-11
1.54055e-09
-3.96231e-10
2.94882e-10
1.27827e-09
-5.51698e-10
3.53383e-10
9.25809e-10
-1.05104e-10
1.94581e-10
-2.3943e-10
-3.81805e-10
-4.60089e-11
2.00622e-10
-4.60089e-11
1.84319e-10
1.90561e-10
2.0477e-11
3.15138e-10
1.2228e-10
5.56256e-11
3.62189e-10
1.39261e-10
9.65081e-11
3.11989e-10
1.75876e-10
1.22341e-10
1.88434e-10
2.04266e-10
1.17982e-10
2.69545e-11
2.2532e-10
8.67715e-11
-1.24374e-10
2.31072e-10
3.34142e-11
-1.88057e-10
2.00569e-10
-2.03349e-11
-1.46487e-10
1.3223e-10
-4.61016e-11
-8.56897e-12
5.97904e-11
-5.29676e-11
1.8842e-10
-4.03272e-12
-2.9884e-11
3.63132e-10
-1.69777e-11
2.28496e-11
4.38407e-10
3.75106e-11
9.27345e-11
3.79389e-10
1.66042e-10
1.3188e-10
1.98115e-10
3.53788e-10
1.2951e-10
-4.99613e-11
5.72541e-10
7.05524e-11
-2.83352e-10
7.58365e-10
-5.55331e-12
-4.02903e-10
8.9373e-10
-1.05821e-10
-3.25887e-10
9.32388e-10
-1.92915e-10
-2.12559e-11
8.65897e-10
-2.54021e-10
4.89304e-10
7.0272e-10
-2.701e-10
1.09796e-09
4.91575e-10
-2.30486e-10
1.66232e-09
2.54574e-10
-1.66463e-10
2.03639e-09
4.89577e-11
-9.4744e-11
2.05687e-09
-1.03247e-10
-5.49974e-11
1.62805e-09
-1.78647e-10
-4.14369e-11
9.07045e-10
-1.74889e-10
-4.78677e-11
4.3429e-10
5.28646e-10
-1.38301e-10
5.44319e-10
-6.30189e-10
2.76527e-11
1.12252e-10
2.76527e-11
3.76263e-10
-2.53723e-10
1.15988e-10
5.64914e-10
-1.88862e-10
1.55857e-10
6.42352e-10
-7.78447e-11
1.83528e-10
6.10902e-10
7.29552e-11
1.82291e-10
4.86519e-10
2.19966e-10
1.56587e-10
3.15056e-10
3.3027e-10
1.15218e-10
1.56685e-10
3.73885e-10
7.05116e-11
6.37829e-11
3.31816e-10
2.98436e-11
4.14302e-11
2.30931e-10
8.58751e-12
8.45816e-11
9.76727e-11
1.63566e-11
1.46908e-10
-1.20514e-11
4.22957e-11
1.75531e-10
-4.41502e-11
7.54526e-11
1.39357e-10
2.45329e-11
8.86601e-11
2.87901e-11
1.97156e-10
7.25634e-11
-1.34709e-10
4.3859e-10
2.95815e-11
-2.80232e-10
6.70476e-10
-2.74455e-11
-3.46491e-10
8.32664e-10
-8.68682e-11
-2.76071e-10
8.77642e-10
-1.17811e-10
-2.71881e-11
7.67055e-10
-1.22664e-10
3.66571e-10
5.67942e-10
-1.14244e-10
8.45773e-10
3.07159e-10
-9.56293e-11
1.32163e-09
5.63691e-11
-6.61182e-11
1.65602e-09
-8.25679e-11
-5.58083e-11
1.7396e-09
-4.16778e-11
-9.45729e-11
1.52704e-09
1.66424e-10
-1.9336e-10
1.02339e-09
4.86683e-10
-3.45286e-10
2.39186e-10
7.31629e-10
-4.79409e-10
-1.69703e-10
1.32359e-09
-6.13565e-10
1.09422e-09
-9.38472e-10
1.07652e-10
-8.06516e-11
1.07652e-10
4.69197e-10
-7.09703e-10
1.93934e-10
6.61775e-10
-5.03279e-10
2.14512e-10
7.59702e-10
-3.0103e-10
2.04735e-10
7.68413e-10
-5.0159e-11
1.72445e-10
7.0245e-10
1.97549e-10
1.25196e-10
5.96105e-10
3.85942e-10
7.52912e-11
4.77218e-10
4.79853e-10
3.92528e-11
3.621e-10
4.63192e-10
2.40605e-11
2.54799e-10
3.66088e-10
3.02765e-11
1.41136e-10
2.36033e-10
4.28753e-11
8.50792e-12
1.25484e-10
5.31502e-11
-1.38686e-10
8.15479e-11
4.75514e-11
-2.85388e-10
1.39195e-10
1.00784e-11
-4.01661e-10
2.80897e-10
-3.85185e-11
-4.40215e-10
4.57672e-10
-8.41978e-11
-3.76773e-10
6.15191e-10
-1.1581e-10
-2.0079e-10
6.66467e-10
-9.2074e-11
7.54107e-11
6.07626e-10
-4.54941e-11
4.24135e-10
4.09324e-10
1.12025e-11
7.57897e-10
1.67155e-10
9.12712e-11
1.00924e-09
-8.44237e-11
1.57665e-10
1.11704e-09
-2.06648e-10
1.38183e-10
1.05601e-09
-1.15363e-10
2.22908e-11
8.22301e-10
1.79128e-10
-1.24094e-10
4.54096e-10
6.55761e-10
-3.1041e-10
6.99471e-11
1.23117e-09
-5.43057e-10
-3.67588e-10
1.7062e-09
-7.49988e-10
-4.88681e-10
2.16257e-09
-8.60463e-10
1.43229e-09
-8.86729e-10
1.43877e-10
-2.97387e-10
1.43877e-10
4.20081e-10
-1.04591e-09
1.84903e-10
5.85903e-10
-7.36092e-10
1.63163e-10
7.07214e-10
-4.68855e-10
1.0902e-10
7.91845e-10
-1.54035e-10
4.57145e-11
8.46675e-10
1.54463e-10
-1.26153e-11
8.58152e-10
4.04583e-10
-4.15061e-11
8.12483e-10
5.62288e-10
-4.03352e-11
6.94775e-10
6.15603e-10
-1.82032e-11
4.89552e-10
5.92095e-10
1.63457e-11
2.06508e-10
5.2516e-10
3.9607e-11
-1.19706e-10
4.47924e-10
3.81582e-11
-4.28841e-10
3.87775e-10
7.41497e-12
-6.45756e-10
3.60733e-10
-3.75577e-11
-7.13648e-10
3.65125e-10
-7.76782e-11
-6.16255e-10
3.7189e-10
-7.75506e-11
-3.68056e-10
3.69511e-10
-4.39914e-11
-8.93925e-12
3.0312e-10
8.3397e-12
3.87135e-10
1.71033e-10
9.26802e-11
6.94251e-10
-2.29265e-11
2.06842e-10
8.47948e-10
-2.23647e-10
3.16244e-10
8.02863e-10
-3.20855e-10
3.25959e-10
5.68672e-10
-2.31996e-10
2.50629e-10
2.15757e-10
7.97783e-11
9.76775e-11
-1.74361e-10
5.82694e-10
-1.07795e-10
-5.15373e-10
1.19979e-09
-3.1357e-10
-6.80704e-10
1.8222e-09
-5.05787e-10
-6.93932e-10
2.25348e-09
-5.68616e-10
-4.81397e-10
2.52189e-09
-5.48141e-10
1.48689e-09
-4.80253e-10
7.37314e-11
-3.65227e-10
7.37314e-11
2.52199e-10
-1.20832e-09
6.05945e-11
3.98412e-10
-8.35961e-10
-6.41717e-12
5.65792e-10
-5.53455e-10
-7.77857e-11
7.61446e-10
-2.30357e-10
-1.41192e-10
9.59707e-10
9.24019e-11
-1.68817e-10
1.10433e-09
3.84091e-10
-1.48785e-10
1.14151e-09
6.23962e-10
-1.00767e-10
1.03352e-09
7.94364e-10
-4.43897e-11
7.54879e-10
8.92566e-10
2.74331e-11
3.45915e-10
9.26685e-10
6.59262e-11
-1.12982e-10
8.90175e-10
6.90277e-11
-5.15318e-10
7.87759e-10
3.92946e-11
-7.71689e-10
6.24746e-10
1.5891e-11
-8.16457e-10
4.18013e-10
1.54206e-11
-6.68788e-10
2.33627e-10
3.29092e-11
-3.54599e-10
3.43201e-11
9.62842e-11
2.09564e-11
-1.56764e-10
1.93218e-10
3.38325e-10
-3.35218e-10
3.15393e-10
5.09188e-10
-4.83054e-10
4.06147e-10
4.74982e-10
-5.34048e-10
4.24962e-10
2.45858e-10
-4.34112e-10
3.71572e-10
-1.12097e-10
-1.47768e-10
2.55482e-10
-5.10105e-10
3.11536e-10
1.22383e-10
-8.00637e-10
8.46291e-10
-8.38859e-12
-9.52544e-10
1.43552e-09
-8.61369e-11
-8.94781e-10
1.92869e-09
-1.22637e-10
-6.55805e-10
2.19335e-09
-9.88285e-11
-2.43627e-10
2.24608e-09
-4.88149e-11
1.23271e-09
5.76318e-11
-8.07012e-11
-1.63358e-10
-8.07012e-11
4.81011e-11
-1.20856e-09
-1.38989e-10
2.01084e-10
-8.07622e-10
-2.14711e-10
4.43065e-10
-5.73136e-10
-2.69949e-10
7.51992e-10
-2.98278e-10
-2.88197e-10
1.07159e-09
-5.7076e-13
-2.57981e-10
1.31461e-09
3.17635e-10
-1.81044e-10
1.4083e-09
6.40945e-10
-8.4836e-11
1.30974e-09
9.3911e-10
5.41382e-12
1.01147e-09
1.16917e-09
8.93415e-11
5.73023e-10
1.2998e-09
1.39147e-10
9.29253e-11
1.27854e-09
1.66404e-10
-3.185e-10
1.09454e-09
1.82008e-10
-5.89925e-10
7.79929e-10
2.03847e-10
-7.03754e-10
4.00078e-10
2.37708e-10
-6.43938e-10
1.52712e-11
2.84905e-10
-4.8125e-10
-3.40748e-10
3.50657e-10
-3.04233e-10
-6.16282e-10
4.14116e-10
-1.88919e-10
-7.94005e-10
4.46142e-10
-1.7828e-10
-8.49477e-10
4.13267e-10
-2.82138e-10
-7.57658e-10
3.38095e-10
-4.75042e-10
-5.01458e-10
2.39495e-10
-6.87843e-10
-1.16968e-10
1.56789e-10
-8.50965e-10
3.57036e-10
1.14708e-10
-9.42714e-10
8.5111e-10
1.2532e-10
-8.92795e-10
1.29741e-09
1.70919e-10
-7.07267e-10
1.63234e-09
2.14959e-10
-4.13725e-10
1.7277e-09
2.67748e-10
-5.6123e-11
1.63501e-09
3.14101e-10
8.37888e-10
3.61812e-10
-2.3231e-10
2.83565e-10
-2.3231e-10
-8.75969e-11
-1.15067e-09
-2.74278e-10
1.11415e-10
-7.68765e-10
-3.07575e-10
4.10522e-10
-6.32687e-10
-2.97545e-10
7.66873e-10
-4.47499e-10
-2.42533e-10
1.11333e-09
-2.02708e-10
-1.52495e-10
1.35675e-09
1.32848e-10
-4.26489e-11
1.45168e-09
5.39242e-10
3.81407e-11
1.36791e-09
9.36014e-10
1.23559e-10
1.13228e-09
1.24725e-09
1.9346e-10
7.84835e-10
1.44834e-09
2.35363e-10
4.04645e-10
1.43278e-09
2.71465e-10
5.39254e-11
1.19358e-09
3.17323e-10
-2.27763e-10
7.82843e-10
3.7092e-10
-4.59299e-10
3.19981e-10
4.25616e-10
-6.4079e-10
-1.53319e-10
4.68388e-10
-8.04992e-10
-5.62613e-10
4.83312e-10
-9.46641e-10
-8.53128e-10
4.31762e-10
-1.05533e-09
-1.00668e-09
3.21501e-10
-1.12846e-09
-9.98885e-10
1.80346e-10
-1.14359e-09
-8.79746e-10
8.07865e-11
-1.1017e-09
-6.21197e-10
4.17294e-11
-1.0109e-09
-2.40787e-10
4.4792e-11
-8.89395e-10
1.9862e-10
1.0563e-10
-7.45124e-10
6.2871e-10
1.91513e-10
-5.72236e-10
9.76255e-10
2.81867e-10
-3.48765e-10
1.16538e-09
3.66516e-10
-1.23616e-10
1.18349e-09
4.18085e-10
6.72555e-11
1.10888e-09
4.26477e-10
5.942e-10
4.23651e-10
-1.9147e-10
6.13986e-10
-1.9147e-10
-1.21928e-11
-1.21504e-09
-1.79137e-10
1.71896e-10
-8.59732e-10
-1.40513e-10
4.27569e-10
-8.3445e-10
-8.06256e-11
6.91709e-10
-7.25532e-10
6.04631e-12
9.19043e-10
-5.08526e-10
7.99294e-11
1.05382e-09
-1.70893e-10
1.65735e-10
1.09639e-09
2.55715e-10
2.2072e-10
1.06284e-09
6.95442e-10
2.32427e-10
9.71196e-10
1.06291e-09
2.19849e-10
8.46061e-10
1.27976e-09
2.40173e-10
6.74198e-10
1.30339e-09
2.70554e-10
4.49307e-10
1.10717e-09
3.17123e-10
1.39488e-10
7.67387e-10
3.66309e-10
-2.51322e-10
3.71037e-10
3.9749e-10
-7.13611e-10
-2.32343e-11
3.77296e-10
-1.19216e-09
-3.72476e-10
2.93965e-10
-1.60012e-09
-6.44464e-10
1.54953e-10
-1.84729e-09
-8.37029e-10
-3.1818e-12
-1.88647e-09
-9.20991e-10
-1.22559e-10
-1.73176e-09
-9.03213e-10
-1.79984e-10
-1.45397e-09
-7.4332e-10
-1.4349e-10
-1.12615e-09
-4.54015e-10
-3.85095e-11
-7.97703e-10
-8.10398e-11
7.29114e-11
-5.04808e-10
2.9824e-10
1.75809e-10
-2.56861e-10
5.98299e-10
2.63643e-10
-4.96336e-11
7.69228e-10
3.1673e-10
1.01472e-10
8.38365e-10
3.41915e-10
1.93565e-10
8.65932e-10
3.54481e-10
6.06669e-10
4.06209e-10
7.22433e-11
4.27936e-10
7.22433e-11
1.78993e-10
-1.43921e-09
1.23886e-10
2.59751e-10
-1.13422e-09
2.09729e-10
3.30528e-10
-1.16064e-09
2.77103e-10
3.5221e-10
-1.10464e-09
3.70454e-10
3.36643e-10
-9.14019e-10
4.08083e-10
3.16267e-10
-5.82392e-10
3.79121e-10
3.31725e-10
-1.57029e-10
3.01035e-10
4.14985e-10
2.75909e-10
2.06518e-10
5.64093e-10
6.46935e-10
1.25861e-10
7.28383e-10
8.93706e-10
9.6943e-11
8.07348e-10
1.00201e-09
1.35798e-10
7.18016e-10
9.96103e-10
1.58876e-10
4.046e-10
8.92779e-10
1.79575e-10
-1.11209e-10
7.23192e-10
1.62346e-10
-7.55525e-10
5.14137e-10
8.55854e-11
-1.40101e-09
2.67246e-10
-4.95767e-11
-1.90635e-09
-3.4965e-11
-1.85589e-10
-2.15144e-09
-3.72293e-10
-3.00693e-10
-2.11877e-09
-6.68155e-10
-3.35166e-10
-1.8668e-09
-8.68113e-10
-2.86995e-10
-1.48908e-09
-9.06927e-10
-1.68359e-10
-1.08948e-09
-7.59741e-10
-2.49033e-11
-7.22545e-10
-4.63218e-10
8.24288e-11
-3.97486e-10
-1.21681e-10
1.49296e-10
-1.14564e-10
1.69618e-10
2.01128e-10
1.19967e-10
3.79142e-10
2.45503e-10
2.97982e-10
5.20493e-10
2.95964e-10
3.72067e-10
6.26212e-10
3.79195e-10
6.08391e-10
5.21359e-10
5.07275e-10
-5.79533e-10
5.07275e-10
3.24645e-10
-1.70796e-09
5.55942e-10
1.96253e-10
-1.53872e-09
6.24982e-10
-8.88455e-12
-1.51636e-09
6.3363e-10
-2.59548e-10
-1.42319e-09
6.03741e-10
-4.984e-10
-1.2016e-09
5.08206e-10
-6.23351e-10
-8.97745e-10
3.65467e-10
-5.46392e-10
-5.54113e-10
1.98515e-10
-2.92091e-10
-1.80891e-10
5.61152e-11
1.25167e-10
1.04916e-10
-1.86849e-11
5.51886e-10
3.90957e-10
-4.05483e-11
8.35202e-10
6.72782e-10
-3.24141e-11
8.48211e-10
9.40705e-10
-2.76743e-12
5.61694e-10
1.17298e-09
-2.3716e-11
3.21946e-11
1.30939e-09
-9.25393e-11
-6.1857e-10
1.2854e-09
-1.74112e-10
-1.23103e-09
1.06797e-09
-2.55723e-10
-1.63152e-09
6.19893e-10
-3.18717e-10
-1.795e-09
6.57523e-11
-3.17969e-10
-1.74144e-09
-5.00491e-10
-2.38973e-10
-1.5506e-09
-9.58641e-10
-1.07025e-10
-1.30778e-09
-1.18364e-09
1.18656e-11
-1.05244e-09
-1.15646e-09
8.3051e-11
-7.82973e-10
-9.66346e-10
1.39532e-10
-4.68425e-10
-7.16693e-10
1.76296e-10
-1.18823e-10
-4.77137e-10
2.22208e-10
2.11712e-10
-2.70712e-10
3.01174e-10
4.34122e-10
-9.67908e-11
4.20515e-10
4.69464e-10
5.31827e-11
5.45962e-10
3.2344e-10
6.67941e-10
8.67169e-10
-2.24325e-09
8.67169e-10
3.20736e-10
-1.72508e-09
7.56529e-10
-6.36293e-11
-1.71065e-09
7.17216e-10
-4.82229e-10
-1.61667e-09
6.43918e-10
-9.09983e-10
-1.44521e-09
5.23704e-10
-1.21828e-09
-1.23477e-09
3.58526e-10
-1.32199e-09
-1.0165e-09
1.8919e-10
-1.14339e-09
-8.20419e-10
2.11026e-11
-6.79284e-10
-6.68877e-10
-5.44165e-11
-9.05619e-11
-4.85805e-10
-6.94481e-11
4.59724e-10
-1.49891e-10
-6.51399e-11
8.1047e-10
3.34334e-10
-5.51536e-11
8.76442e-10
8.98379e-10
-6.4786e-11
6.58014e-10
1.44454e-09
-1.03888e-10
2.45253e-10
1.80267e-09
-1.44242e-10
-2.12013e-10
1.88074e-09
-2.06672e-10
-5.98694e-10
1.62855e-09
-2.32715e-10
-8.54023e-10
1.01479e-09
-1.78624e-10
-9.89833e-10
2.60396e-10
-8.40808e-11
-1.05249e-09
-5.27988e-10
5.4838e-11
-1.10189e-09
-1.16189e-09
1.76364e-10
-1.157e-09
-1.53805e-09
2.73248e-10
-1.14921e-09
-1.65425e-09
3.00602e-10
-9.90881e-10
-1.61355e-09
2.77715e-10
-6.71071e-10
-1.50933e-09
2.78395e-10
-2.66245e-10
-1.38286e-09
3.4409e-10
9.24508e-11
-1.23114e-09
4.67019e-10
2.8373e-10
-1.05114e-09
6.02763e-10
2.64371e-10
-8.27023e-10
6.79924e-10
-2.14629e-10
5.94653e-10
8.57739e-10
-3.83171e-09
8.57739e-10
1.0203e-10
-1.34384e-09
6.13477e-10
-3.98755e-10
-1.51681e-09
5.06221e-10
-8.47827e-10
-1.38864e-09
3.81661e-10
-1.23296e-09
-1.19296e-09
2.46997e-10
-1.43751e-09
-1.07346e-09
1.12552e-10
-1.38997e-09
-1.04982e-09
2.03223e-11
-1.04065e-09
-1.12353e-09
-3.3187e-11
-5.12696e-10
-1.18095e-09
-1.42877e-11
5.82704e-11
-1.07094e-09
7.12853e-12
5.24655e-10
-6.77737e-10
4.1109e-11
7.7404e-10
4.74251e-13
4.33467e-11
8.06662e-10
8.02422e-10
-1.74812e-12
6.92089e-10
1.55438e-09
-7.74909e-11
5.00988e-10
2.03194e-09
-1.20642e-10
3.30578e-10
2.11812e-09
-1.29814e-10
1.87032e-10
1.79308e-09
-5.31831e-11
3.81778e-11
1.06871e-09
8.59348e-11
-1.66729e-10
2.1134e-10
2.42364e-10
-4.68693e-10
-6.38937e-10
3.67392e-10
-8.56954e-10
-1.29214e-09
4.21108e-10
-1.20501e-09
-1.72131e-09
3.89648e-10
-1.3623e-09
-1.97315e-09
3.18675e-10
-1.25741e-09
-2.14533e-09
2.82881e-10
-9.46302e-10
-2.26325e-09
3.20928e-10
-5.73966e-10
-2.28926e-09
4.13511e-10
-2.95553e-10
-2.16704e-09
5.0156e-10
-2.01257e-10
-1.86325e-09
5.12664e-10
-2.3349e-10
-1.40393e-09
4.04946e-10
-7.18641e-10
1.84056e-10
5.03988e-10
-4.6862e-09
5.03988e-10
-1.2871e-10
-7.41264e-10
2.38835e-10
-4.96496e-10
-1.10533e-09
1.28284e-10
-7.59665e-10
-1.01428e-09
2.79447e-11
-8.95818e-10
-9.24048e-10
-2.67125e-11
-8.68514e-10
-9.94074e-10
-2.83209e-11
-6.22379e-10
-1.24128e-09
2.94635e-12
-2.19331e-10
-1.55354e-09
6.73978e-11
1.9393e-10
-1.72141e-09
1.4783e-10
5.09394e-10
-1.59376e-09
2.01003e-10
6.66664e-10
-1.08607e-09
2.11458e-10
6.84556e-10
-2.53259e-10
1.64267e-10
6.53445e-10
6.85993e-10
5.68528e-11
6.55448e-10
1.49651e-09
-3.12697e-11
6.95636e-10
1.9878e-09
-5.53964e-11
7.55883e-10
2.04582e-09
-5.0108e-12
7.62165e-10
1.67859e-09
1.29807e-10
5.76992e-10
1.00641e-09
2.87063e-10
2.02998e-10
2.23244e-10
3.9406e-10
-3.67388e-10
-4.79929e-10
4.21898e-10
-9.7196e-10
-1.05224e-09
3.60987e-10
-1.42301e-09
-1.53319e-09
2.66362e-10
-1.59849e-09
-1.98144e-09
2.10209e-10
-1.51113e-09
-2.41286e-09
2.23133e-10
-1.29266e-09
-2.7368e-09
2.86146e-10
-1.10598e-09
-2.82143e-09
3.34368e-10
-1.03015e-09
-2.60092e-09
3.0297e-10
-1.00937e-09
-2.10521e-09
1.69445e-10
-8.47989e-10
-1.51781e-09
-3.1815e-11
-1.33614e-09
-1.57059e-10
5.09592e-11
-4.6623e-09
5.09592e-11
-1.74426e-10
-2.99314e-10
-1.31248e-10
-2.0936e-10
-8.65914e-10
-1.43417e-10
-1.45914e-10
-8.80214e-10
-1.56787e-10
5.328e-11
-9.86726e-10
-1.09324e-10
3.90001e-10
-1.2864e-09
-2.44828e-11
7.6238e-10
-1.69799e-09
9.81258e-11
1.03381e-09
-2.05244e-09
2.29771e-10
1.14154e-09
-2.16208e-09
3.14508e-10
1.05337e-09
-1.89527e-09
3.43436e-10
8.36273e-10
-1.23769e-09
2.96072e-10
6.35527e-10
-3.0649e-10
1.67716e-10
5.52099e-10
6.40241e-10
5.0588e-11
6.31033e-10
1.37298e-09
-4.53473e-12
7.90246e-10
1.79391e-09
2.7869e-11
9.18395e-10
1.818e-09
1.33181e-10
8.8989e-10
1.50679e-09
2.59617e-10
5.71056e-10
1.03002e-09
3.63821e-10
2.8225e-12
4.73631e-10
3.90034e-10
-6.85052e-10
-5.24012e-11
3.46182e-10
-1.30158e-09
-5.88801e-10
2.6948e-10
-1.70134e-09
-1.20558e-09
2.248e-10
-1.85231e-09
-1.90271e-09
2.44055e-10
-1.85492e-09
-2.55299e-09
3.01356e-10
-1.84914e-09
-2.95239e-09
3.31161e-10
-1.88373e-09
-2.97571e-09
2.79202e-10
-1.87836e-09
-2.6443e-09
1.36571e-10
-1.6718e-09
-2.12658e-09
-3.82923e-11
-1.12681e-09
-1.81842e-09
-7.4695e-11
-2.40147e-09
3.31265e-11
-1.48638e-10
-4.32797e-09
-1.48638e-10
1.06589e-10
-5.21413e-10
-1.29241e-10
4.46241e-10
-1.20556e-09
-9.57271e-11
8.75115e-10
-1.30871e-09
-9.43628e-11
1.39835e-09
-1.56396e-09
-2.74478e-11
1.9089e-09
-1.94589e-09
8.36183e-11
2.25478e-09
-2.32277e-09
2.24127e-10
2.31563e-09
-2.5118e-09
3.43065e-10
2.07881e-09
-2.38303e-09
3.91761e-10
1.62833e-09
-1.88661e-09
3.63079e-10
1.13117e-09
-1.08984e-09
2.65782e-10
7.74667e-10
-1.83654e-10
1.59939e-10
6.44096e-10
6.14033e-10
1.06619e-10
6.86789e-10
1.1787e-09
1.30657e-10
7.90375e-10
1.47017e-09
2.23493e-10
7.92907e-10
1.49329e-09
3.38363e-10
5.53323e-10
1.32788e-09
4.39183e-10
9.02057e-11
1.03995e-09
4.81648e-10
-5.56767e-10
7.1838e-10
4.53885e-10
-1.20828e-09
2.83907e-10
4.06703e-10
-1.72051e-09
-3.40465e-10
3.97182e-10
-2.04032e-09
-1.1653e-09
4.34998e-10
-2.23155e-09
-2.05881e-09
4.9629e-10
-2.4086e-09
-2.7685e-09
5.21396e-10
-2.58472e-09
-3.11676e-09
4.64601e-10
-2.65233e-09
-3.09025e-09
3.34417e-10
-2.44486e-09
-2.84684e-09
1.92692e-10
-1.85954e-09
-2.72774e-09
2.21905e-10
-9.66655e-10
-2.94142e-09
3.64313e-10
-3.84974e-09
5.31371e-10
-4.42198e-11
-4.32006e-09
-4.42198e-11
6.62653e-10
-1.52806e-09
4.73869e-11
1.32087e-09
-2.13983e-09
5.61596e-11
2.0337e-09
-2.29109e-09
7.76205e-11
2.73846e-09
-2.57953e-09
1.54779e-10
3.29231e-09
-2.88402e-09
2.60928e-10
3.54477e-09
-3.04741e-09
3.69691e-10
3.41709e-09
-2.92246e-09
4.43771e-10
2.9419e-09
-2.45748e-09
4.56286e-10
2.28451e-09
-1.73503e-09
4.15561e-10
1.65642e-09
-8.9946e-10
3.57654e-10
1.20465e-09
-1.29352e-10
3.32674e-10
9.45297e-10
4.57102e-10
3.64231e-10
8.0361e-10
8.29234e-10
4.41843e-10
6.51851e-10
1.02485e-09
5.39363e-10
3.71127e-10
1.0805e-09
6.23893e-10
-6.54784e-11
1.03465e-09
6.57749e-10
-6.66741e-10
9.39049e-10
6.46447e-10
-1.29961e-09
7.11655e-10
6.16373e-10
-1.85414e-09
2.31512e-10
6.16429e-10
-2.27264e-09
-5.43621e-10
6.46046e-10
-2.59572e-09
-1.51607e-09
6.92661e-10
-2.90819e-09
-2.43977e-09
7.06211e-10
-3.19703e-09
-3.08982e-09
6.43111e-10
-3.33113e-09
-3.41414e-09
5.15755e-10
-3.15195e-09
-3.55473e-09
4.2191e-10
-2.58425e-09
-3.7689e-09
4.96392e-10
-1.68191e-09
-4.19486e-09
6.42382e-10
-6.83171e-10
-4.73887e-09
8.02637e-10
-5.41341e-09
8.76167e-10
2.25911e-10
-4.94091e-09
2.25911e-10
1.27978e-09
-3.20461e-09
3.10876e-10
2.19231e-09
-3.62802e-09
3.18593e-10
3.11411e-09
-3.78565e-09
3.58035e-10
3.9324e-09
-4.00475e-09
4.34418e-10
4.48496e-09
-4.10434e-09
5.28125e-10
4.63922e-09
-3.93004e-09
6.09306e-10
4.37859e-09
-3.41912e-09
6.5063e-10
3.81399e-09
-2.63848e-09
6.50299e-10
3.10408e-09
-1.74434e-09
6.37676e-10
2.41184e-09
-9.15893e-10
6.39889e-10
1.81722e-09
-2.72879e-10
6.73109e-10
1.31922e-09
1.50348e-10
7.28481e-10
8.56929e-10
3.99555e-10
7.91616e-10
3.35634e-10
5.78355e-10
8.41251e-10
-2.60456e-10
7.01688e-10
8.33476e-10
-9.21862e-10
7.63425e-10
7.94283e-10
-1.58476e-09
7.34681e-10
7.43803e-10
-2.18051e-09
4.73707e-10
7.20838e-10
-2.68062e-09
-1.18128e-10
7.29892e-10
-3.11368e-09
-9.93537e-10
7.4294e-10
-3.52858e-09
-1.96972e-09
7.19749e-10
-3.89102e-09
-2.83087e-09
6.32262e-10
-4.06485e-09
-3.49333e-09
5.16156e-10
-3.91841e-09
-4.06987e-09
5.0145e-10
-3.36603e-09
-4.68402e-09
5.70973e-10
-2.48231e-09
-5.42838e-09
7.12589e-10
-1.5114e-09
-6.15566e-09
8.61408e-10
-6.66176e-10
-6.60347e-09
8.92744e-10
-6.96799e-09
7.67082e-10
5.69812e-10
-6.27052e-09
5.69812e-10
1.89454e-09
-5.44589e-09
6.48126e-10
3.0524e-09
-5.6764e-09
6.74921e-10
4.14251e-09
-5.79494e-09
7.39991e-10
5.02143e-09
-5.85461e-09
8.23041e-10
5.54326e-09
-5.65243e-09
9.02321e-10
5.62937e-09
-5.07324e-09
9.52899e-10
5.31612e-09
-4.15537e-09
9.6606e-10
4.73222e-09
-3.06971e-09
9.5465e-10
4.0158e-09
-2.02084e-09
9.51546e-10
3.24224e-09
-1.15404e-09
9.75549e-10
2.45072e-09
-5.43387e-10
1.01087e-09
1.63324e-09
-1.55607e-10
1.04073e-09
7.75443e-10
1.02975e-10
1.03671e-09
-9.446e-11
3.19274e-10
9.87126e-10
-9.67148e-10
5.07515e-10
9.16311e-10
-1.79762e-09
6.02782e-10
8.3808e-10
-2.54046e-09
5.30626e-10
7.80879e-10
-3.18498e-09
1.69305e-10
7.50004e-10
-3.7579e-09
-5.10409e-10
7.24177e-10
-4.28682e-09
-1.40775e-09
6.79499e-10
-4.73024e-09
-2.36361e-09
5.94926e-10
-4.95999e-09
-3.30049e-09
5.13694e-10
-4.85135e-09
-4.25356e-09
5.13582e-10
-4.34493e-09
-5.31064e-09
5.92223e-10
-3.52986e-09
-6.42611e-09
7.3402e-10
-2.60622e-09
-7.46096e-09
8.65973e-10
-1.746e-09
-8.14651e-09
8.88015e-10
-9.62777e-10
-8.37019e-09
7.68687e-10
-8.78814e-09
6.55542e-10
9.55377e-10
-8.33283e-09
9.55377e-10
2.57278e-09
-8.28938e-09
1.05788e-09
3.97969e-09
-8.34625e-09
1.12703e-09
5.19363e-09
-8.3445e-09
1.2203e-09
6.06707e-09
-8.12345e-09
1.2982e-09
6.50672e-09
-7.5074e-09
1.33784e-09
6.51785e-09
-6.4714e-09
1.33535e-09
6.19587e-09
-5.15227e-09
1.2983e-09
5.64382e-09
-3.76375e-09
1.25317e-09
4.91768e-09
-2.5058e-09
1.22937e-09
4.03598e-09
-1.50037e-09
1.23276e-09
3.01319e-09
-7.77012e-10
1.22683e-09
1.87528e-09
-2.8014e-10
1.19311e-09
6.84188e-10
6.61578e-11
1.12988e-09
-4.83753e-10
3.29341e-10
1.04715e-09
-1.58112e-09
5.14618e-10
9.71572e-10
-2.58452e-09
5.52081e-10
9.13636e-10
-3.48695e-09
3.74028e-10
8.74501e-10
-4.29654e-09
-9.52927e-11
8.37129e-10
-5.01668e-09
-8.43263e-10
7.85732e-10
-5.6047e-09
-1.79005e-09
7.18781e-10
-5.9552e-09
-2.88029e-09
6.67126e-10
-5.95813e-09
-4.1392e-09
6.84319e-10
-5.57657e-09
-5.5843e-09
7.83995e-10
-4.89814e-09
-7.14211e-09
9.37887e-10
-4.07181e-09
-8.56605e-09
1.06024e-09
-3.20668e-09
-9.62927e-09
1.05826e-09
-2.29014e-09
-1.02417e-08
9.64793e-10
-1.24477e-09
-1.04891e-08
8.66267e-10
-1.1023e-08
8.69625e-10
1.41324e-09
-1.12462e-08
1.41324e-09
3.35777e-09
-1.18504e-08
1.5622e-09
4.99296e-09
-1.16894e-08
1.66409e-09
6.27439e-09
-1.141e-08
1.74829e-09
7.08613e-09
-1.07424e-08
1.78217e-09
7.42813e-09
-9.6281e-09
1.77269e-09
7.40352e-09
-8.10669e-09
1.68128e-09
7.11414e-09
-6.38588e-09
1.57149e-09
6.59215e-09
-4.67767e-09
1.49702e-09
5.83072e-09
-3.14923e-09
1.45392e-09
4.81382e-09
-1.89079e-09
1.42248e-09
3.56618e-09
-9.27954e-10
1.3744e-09
2.16847e-09
-2.41422e-10
1.30906e-09
7.21771e-10
2.22927e-10
1.2347e-09
-6.86643e-10
5.10205e-10
1.17564e-09
-2.02458e-09
6.51728e-10
1.13958e-09
-3.28307e-09
6.02511e-10
1.11369e-09
-4.44076e-09
3.06632e-10
1.08635e-09
-5.47179e-09
-2.74584e-10
1.04589e-09
-6.31986e-09
-1.14153e-09
9.97402e-10
-6.90065e-09
-2.28742e-09
9.75699e-10
-7.12653e-09
-3.74464e-09
1.0225e-09
-6.97581e-09
-5.51793e-09
1.14626e-09
-6.51491e-09
-7.49084e-09
1.31143e-09
-5.87669e-09
-9.39188e-09
1.43528e-09
-5.11542e-09
-1.09483e-08
1.44568e-09
-4.17397e-09
-1.20599e-08
1.33991e-09
-2.96199e-09
-1.28196e-08
1.22669e-09
-1.44389e-09
-1.33524e-08
1.22498e-09
-1.38844e-08
1.37434e-09
1.95938e-09
-1.51838e-08
1.95938e-09
4.21402e-09
-1.6183e-08
2.13279e-09
6.03073e-09
-1.56786e-08
2.2216e-09
7.34761e-09
-1.49541e-08
2.27504e-09
8.12133e-09
-1.37189e-08
2.2525e-09
8.46667e-09
-1.20181e-08
2.10325e-09
8.4934e-09
-1.00082e-08
1.94544e-09
8.25443e-09
-7.89644e-09
1.82431e-09
7.73684e-09
-5.84214e-09
1.74304e-09
6.8954e-09
-3.96135e-09
1.68377e-09
5.72306e-09
-2.34401e-09
1.62247e-09
4.27942e-09
-1.05791e-09
1.55399e-09
2.66928e-09
-1.31579e-10
1.48933e-09
9.87907e-10
4.67421e-10
1.44832e-09
-6.94549e-10
7.80995e-10
1.43575e-09
-2.35705e-09
8.97561e-10
1.4282e-09
-3.95237e-09
7.64133e-10
1.41594e-09
-5.41497e-09
3.44048e-10
1.38873e-09
-6.66115e-09
-4.07294e-10
1.35593e-09
-7.60703e-09
-1.53545e-09
1.35453e-09
-8.18366e-09
-3.09138e-09
1.41998e-09
-8.37697e-09
-5.09049e-09
1.55619e-09
-8.2522e-09
-7.39867e-09
1.71304e-09
-7.90642e-09
-9.75e-09
1.82557e-09
-7.35181e-09
-1.18971e-08
1.85867e-09
-6.52061e-09
-1.36555e-08
1.79196e-09
-5.31156e-09
-1.50312e-08
1.68449e-09
-3.65592e-09
-1.61829e-08
1.63999e-09
-1.65649e-09
-1.71394e-08
1.73307e-09
-1.75189e-08
1.88324e-09
2.55899e-09
-2.02564e-08
2.55899e-09
5.05716e-09
-2.125e-08
2.71343e-09
7.04623e-09
-2.0317e-08
2.77395e-09
8.46884e-09
-1.89634e-08
2.69698e-09
9.36597e-09
-1.7064e-08
2.54425e-09
9.84123e-09
-1.47844e-08
2.37602e-09
9.98571e-09
-1.23115e-08
2.23139e-09
9.80321e-09
-9.78722e-09
2.12593e-09
9.2421e-09
-7.30292e-09
2.0461e-09
8.27142e-09
-4.95983e-09
1.9668e-09
6.92549e-09
-2.89531e-09
1.88619e-09
5.28861e-09
-1.23548e-09
1.82099e-09
3.45212e-09
-4.30965e-11
1.78836e-09
1.48203e-09
7.18754e-10
1.78553e-09
-5.85394e-10
1.12314e-09
1.79262e-09
-2.66046e-09
1.22117e-09
1.7979e-09
-4.65308e-09
9.99007e-10
1.78676e-09
-6.43179e-09
3.93813e-10
1.76622e-09
-7.88938e-09
-6.61311e-10
1.77807e-09
-8.961e-09
-2.22942e-09
1.8507e-09
-9.63603e-09
-4.33112e-09
1.97994e-09
-9.9681e-09
-6.87606e-09
2.13099e-09
-1.00213e-08
-9.63406e-09
2.258e-09
-9.79841e-09
-1.2301e-08
2.29973e-09
-9.20054e-09
-1.47471e-08
2.24914e-09
-8.12885e-09
-1.69057e-08
2.17487e-09
-6.50795e-09
-1.87932e-08
2.14678e-09
-4.39201e-09
-2.04702e-08
2.1927e-09
-2.0051e-09
-2.18673e-08
2.29446e-09
-2.19904e-08
2.38628e-09
3.15847e-09
-2.64767e-08
3.15847e-09
5.86646e-09
-2.69958e-08
3.22933e-09
8.11754e-09
-2.55552e-08
3.14556e-09
9.82763e-09
-2.35492e-08
3.00616e-09
1.10363e-08
-2.10208e-08
2.8491e-09
1.17941e-08
-1.81749e-08
2.70554e-09
1.2111e-08
-1.51807e-08
2.59714e-09
1.19459e-08
-1.21168e-08
2.51048e-09
1.12712e-08
-9.05644e-09
2.41982e-09
1.01188e-08
-6.14379e-09
2.31967e-09
8.55985e-09
-3.57932e-09
2.2413e-09
6.6821e-09
-1.53225e-09
2.20364e-09
4.5299e-09
-4.14238e-11
2.2054e-09
2.13837e-09
9.43726e-10
2.2235e-09
-4.1771e-10
1.4802e-09
2.23534e-09
-3.00126e-09
1.59053e-09
2.22969e-09
-5.4289e-09
1.23007e-09
2.21501e-09
-7.54896e-09
3.33589e-10
2.2259e-09
-9.26907e-09
-1.17116e-09
2.30079e-09
-1.05701e-08
-3.30154e-09
2.43908e-09
-1.14967e-08
-5.96621e-09
2.59626e-09
-1.20898e-08
-9.00383e-09
2.73481e-09
-1.23302e-08
-1.21868e-08
2.81768e-09
-1.21328e-08
-1.52459e-08
2.80425e-09
-1.13608e-08
-1.81662e-08
2.73616e-09
-9.89778e-09
-2.09826e-08
2.71039e-09
-7.79225e-09
-2.35743e-08
2.77564e-09
-5.25318e-09
-2.58294e-08
2.88672e-09
-2.52703e-09
-2.75596e-08
2.95598e-09
-2.74205e-08
2.96557e-09
3.69569e-09
-3.37481e-08
3.69569e-09
6.78257e-09
-3.35522e-08
3.64947e-09
9.49852e-09
-3.16466e-08
3.51564e-09
1.17155e-08
-2.90424e-08
3.38205e-09
1.3398e-08
-2.58889e-08
3.25771e-09
1.45086e-08
-2.24038e-08
3.15971e-09
1.49846e-08
-1.87197e-08
3.07636e-09
1.47885e-08
-1.49116e-08
2.98118e-09
1.39583e-08
-1.11118e-08
2.86377e-09
1.25879e-08
-7.54554e-09
2.75556e-09
1.07667e-08
-4.44883e-09
2.69308e-09
8.53638e-09
-1.95897e-09
2.67613e-09
5.9033e-09
-8.02405e-11
2.68849e-09
2.92315e-09
1.22252e-09