/*--------------------------------*- C++ -*----------------------------------*\
| =========                 |                                                 |
| \\      /  F ield         | OpenFOAM: The Open Source CFD Toolbox           |
|  \\    /   O peration     | Version:  2312                                  |
|   \\  /    A nd           | Website:  www.openfoam.com                      |
|    \\/     M anipulation  |                                                 |
\*---------------------------------------------------------------------------*/
FoamFile
{
    version     2.0;
    format      ascii;
    arch        "LSB;label=32;scalar=64";
    class       volScalarField;
    location    "0.46258";
    object      alpha.water;
}
// * * * * * * * * * * * * * * * * * * * * * * * * * * * * * * * * * * * * * //

dimensions      [0 0 0 0 0 0 0];

internalField   nonuniform List<scalar> 
90000
(
1
0.999998
0.999999
1
1
1
1
1
1
1
1
1
1
1
1
1
1
1
1
1
0.999998
0.999996
0.999994
0.999994
0.999996
1
1.00001
1.00001
1.00002
1.00002
0.999999
0.999997
0.999999
1
1
1
1.00001
1.00001
1.00001
1.00001
1
1
1
1
1
1
1
1
1
0.999997
0.999994
0.999992
0.999992
0.999995
1
1.00001
1.00002
1.00003
1.00005
1.00008
0.999998
0.999996
0.999998
0.999999
1
1
1
1
1
1
1
1
1
1
1
1
1
1
1
0.999999
0.999998
0.999997
0.999998
1
1.00001
1.00001
1.00002
1.00001
1
1.00003
0.999997
0.999996
0.999997
0.999997
0.999998
0.999999
1
1
1
1
1
1
1
1
1
1
1
1
1
1
1
1
1
1.00001
1.00001
1.00002
1.00002
1.00002
1.00001
1.00001
0.999997
0.999997
0.999997
0.999998
0.999998
0.999999
0.999999
1
1
1
1.00001
1.00001
1.00001
1.00001
1.00001
1
1
1
1
1
1
1
1.00001
1.00001
1.00001
1.00001
1
1
0.999996
0.999992
0.999998
1
1
1
1
1
1
1
1
1.00001
1.00001
1.00001
1.00001
1.00001
1.00001
1
1
0.999999
0.999998
0.999999
1
1
1.00001
1
1
0.999998
0.99999
0.999985
0.999978
0.999977
1
1
1
1
1
1
1
1
1
1
1.00001
1.00001
1.00001
1.00001
1
1
1
0.999998
0.999998
0.999999
1
1
1
0.999998
0.999993
0.999987
0.999979
0.999973
0.999969
0.999975
1
1.00001
1.00001
1
1
1
0.999999
0.999999
0.999999
1
1
1
1
1
1
1
1
1
1
1
1
0.999999
0.999997
0.999992
0.999987
0.999981
0.999976
0.999974
0.999974
0.999983
1
1.00001
1.00001
1
1
0.999999
0.999997
0.999996
0.999996
0.999996
0.999996
0.999997
0.999999
1
1
1
1
1.00001
1.00001
1
1
0.999998
0.999993
0.999988
0.999983
0.99998
0.99998
0.999981
0.999984
0.99999
1
1.00001
1.00001
1
1
1
0.999999
0.999998
0.999996
0.999995
0.999994
0.999995
0.999997
1
1
1.00001
1.00001
1.00001
1.00001
1.00001
1
0.999995
0.999989
0.999985
0.999983
0.999982
0.999984
0.999986
0.999987
0.999988
1
1.00001
1.00001
1.00001
1.00001
1.00001
1.00001
1
1
0.999997
0.999994
0.999994
0.999995
0.999998
1
1.00001
1.00001
1.00001
1.00001
1
0.999998
0.999993
0.999989
0.999987
0.999986
0.999986
0.999987
0.999986
0.999984
0.999985
1.00001
1.00002
1.00002
1.00002
1.00002
1.00002
1.00001
1.00001
1
0.999998
0.999994
0.999993
0.999993
0.999995
0.999998
1
1
1
1
1
1
0.999999
0.999998
0.999998
0.999997
0.999995
0.999993
0.99999
0.999989
0.999994
1.00001
1.00002
1.00002
1.00002
1.00002
1.00002
1.00001
1.00001
1
0.999997
0.999994
0.999991
0.999991
0.999992
0.999993
0.999995
0.999997
0.999999
1
1.00001
1.00001
1.00001
1.00002
1.00001
1.00001
1.00001
1.00001
1
1.00001
1.00001
1.00001
1.00001
1.00001
1.00001
1.00001
1.00001
1.00001
1
0.999999
0.999997
0.999996
0.999995
0.999994
0.999993
0.999993
0.999993
0.999996
1
1.00001
1.00002
1.00002
1.00003
1.00003
1.00003
1.00002
1.00002
1.00002
1.00002
1.00002
1.00002
1.00001
0.999998
0.999998
0.999997
0.999996
0.999995
0.999995
0.999997
0.999999
1
1
1
1
0.999998
0.999996
0.999995
0.999998
1
1.00001
1.00002
1.00003
1.00003
1.00003
1.00002
1.00002
1.00002
1.00002
1.00002
1.00002
1
0.999997
0.999978
0.999979
0.999979
0.99998
0.999984
0.999989
0.999996
1
1.00001
1.00001
1.00001
1.00001
1
0.999997
0.999995
0.999998
1
1.00001
1.00001
1.00001
1.00001
1.00001
1.00001
1.00001
1.00001
1.00001
1
0.999994
0.999986
0.999984
0.999963
0.999967
0.999969
0.999974
0.99998
0.999989
0.999998
1.00001
1.00001
1.00001
1.00001
1
0.999998
0.999994
0.999993
0.999994
0.999996
0.999998
0.999997
0.999996
0.999995
0.999996
1
1
1
0.999994
0.999985
0.999978
0.999983
0.999977
0.999961
0.999966
0.99997
0.999975
0.999983
0.999992
1
1.00001
1.00001
1.00001
1
0.999999
0.999995
0.999993
0.999993
0.999993
0.999992
0.99999
0.999987
0.999986
0.999989
0.999993
0.999996
0.999995
0.999989
0.999982
0.999978
0.999981
0.999991
0.999978
0.999968
0.999973
0.999976
0.999981
0.999988
0.999994
0.999999
1
1
1
0.999999
0.999998
0.999998
0.999999
0.999999
0.999997
0.999993
0.99999
0.999988
0.999989
0.999992
0.999995
0.999994
0.999988
0.999982
0.99998
0.999984
0.999992
0.999996
0.999983
0.999978
0.999981
0.999984
0.999989
0.999993
0.999997
1
1
1
1
1
1
1
1.00001
1
1
0.999995
0.999992
0.999992
0.999994
0.999996
0.999993
0.999988
0.999982
0.999982
0.999987
0.999994
0.999997
0.999995
0.999989
0.999987
0.999989
0.999993
0.999997
1
1
1
1
1
1
1
1.00001
1.00001
1.00001
1
0.999999
0.999996
0.999996
0.999997
0.999996
0.999993
0.999987
0.999983
0.999984
0.999989
0.999996
0.999997
0.999994
0.999992
0.999994
0.999994
0.999997
1
1
1.00001
1.00001
1
1
1
1
1
1.00001
1.00001
1
1
0.999999
0.999998
0.999999
0.999998
0.999995
0.999989
0.999986
0.999987
0.999993
0.999998
0.999999
0.999995
0.999991
0.99999
0.999997
0.999999
1
1.00001
1.00001
1.00001
1.00001
1
1
1
1
1
1
1
1
0.999999
1
1
0.999999
0.999996
0.999992
0.999989
0.999991
0.999998
1
1
0.999999
0.999995
0.999993
0.999995
1
1
1.00001
1.00001
1.00001
1.00001
1.00001
1
1
1
1
1
0.999999
0.999998
0.999998
0.999999
1
0.999999
0.999996
0.999993
0.999991
0.999995
1
1.00001
1.00001
1
1
1
1
1.00001
1
1
1.00001
1.00001
1.00001
1.00001
1
1
1
1
0.999999
0.999997
0.999996
0.999996
0.999997
0.999999
0.999999
0.999997
0.999995
0.999994
0.999998
1
1.00001
1.00001
1.00001
1.00001
1.00001
1.00001
1.00001
1.00001
1
1
1
1
1
1
1
1
0.999999
0.999997
0.999995
0.999994
0.999995
0.999997
1
1
1
0.999999
0.999998
1
1.00001
1.00001
1.00001
1.00001
1.00001
1.00001
1.00001
1.00001
1.00002
1.00001
1
1
1
1
0.999998
0.999997
0.999997
0.999996
0.999995
0.999994
0.999993
0.999994
0.999997
1
1
1
1
1
1
1
1.00001
1
1
1
1
1
1.00001
1.00001
1.00001
1.00001
1
1
0.999998
0.999996
0.999994
0.999993
0.999993
0.999993
0.999992
0.999992
0.999993
0.999996
0.999999
1
1
1
0.999999
0.999998
0.999998
0.999998
0.999996
0.999993
0.99999
0.99999
0.999992
0.999997
1
1.00001
1
1
0.999999
0.999997
0.999996
0.999994
0.999992
0.999991
0.99999
0.999989
0.999989
0.99999
0.999993
0.999996
0.999998
0.999998
0.999997
0.999996
0.999994
0.999994
0.999993
0.99999
0.999987
0.999985
0.999983
0.999984
0.999989
0.999996
1
0.999999
0.999999
1
0.999998
0.999997
0.999995
0.999993
0.999991
0.999989
0.999988
0.999987
0.999988
0.999989
0.999992
0.999993
0.999994
0.999993
0.999992
0.999992
0.999992
0.999991
0.99999
0.999988
0.999985
0.999983
0.999982
0.999987
0.999994
0.999999
1
0.999999
1
1.00001
0.999999
0.999998
0.999996
0.999993
0.999991
0.999989
0.999987
0.999986
0.999987
0.999988
0.999989
0.99999
0.99999
0.99999
0.999991
0.999991
0.999992
0.999992
0.999991
0.99999
0.999987
0.999985
0.999985
0.999992
0.999999
0.999997
0.999997
1
1
1.00001
0.999999
0.999999
0.999997
0.999995
0.999992
0.999989
0.999986
0.999984
0.999984
0.999984
0.999986
0.999988
0.99999
0.999992
0.999993
0.999995
0.999996
0.999997
0.999996
0.999993
0.999989
0.999987
0.999989
0.999995
0.999995
0.99999
0.999995
1
1
0.999999
1
1
0.999999
0.999997
0.999993
0.999989
0.999985
0.999982
0.999981
0.999983
0.999986
0.999989
0.999993
0.999995
0.999997
0.999998
0.999999
0.999999
0.999996
0.999991
0.999987
0.999988
0.999991
0.999991
0.999988
0.999986
0.999994
0.999998
0.999994
0.999994
1
1
1
0.999998
0.999993
0.999988
0.999984
0.999982
0.999982
0.999985
0.999988
0.999992
0.999994
0.999996
0.999997
0.999998
0.999998
0.999997
0.999992
0.999987
0.999986
0.99999
0.999989
0.999984
0.999985
0.999989
0.999995
0.999996
0.999992
0.999996
1
1
1
0.999998
0.999993
0.999989
0.999986
0.999985
0.999986
0.999988
0.999991
0.999994
0.999996
0.999996
0.999998
1
1
0.999998
0.999993
0.999992
0.999993
0.999996
0.999991
0.999989
0.999996
0.999998
0.999998
0.999997
0.999997
1
1
1
1
0.999997
0.999994
0.999992
0.999991
0.99999
0.999991
0.999992
0.999995
0.999997
0.999999
1
1
1
1
1
0.999999
1
1
1
0.999997
0.999999
1
0.999999
0.999998
0.999999
0.999999
0.999999
1
1
0.999999
0.999998
0.999997
0.999996
0.999995
0.999994
0.999994
0.999995
0.999998
0.999999
1
1
1
1.00001
1
1
1
1.00001
1
1
1
1
1
0.999998
1
1
1
1
1
0.999999
0.999999
0.999999
0.999999
0.999998
0.999996
0.999995
0.999995
0.999998
1
1
1
1
1
1
1
1
1.00001
1.00001
1
1
1
0.999998
0.999995
0.999995
0.999998
0.999999
0.999998
1
0.999999
0.999999
1
1
1
0.999998
0.999996
0.999997
0.999999
1
1
1
1
1
1
1
1
1.00001
1.00001
1
0.999998
1
0.999998
0.999995
0.999997
0.999999
0.999999
1
1
1
1
1
1
1
1
0.999998
0.999998
1
1
1
1
1
1
1.00001
1.00001
1
1.00001
1
1
1
1
1.00001
1
1
1.00001
1.00001
1
1.00001
1.00001
1.00001
1
1
1
1
1
0.999999
1
1
1
1
1
1
1.00001
1.00001
1.00001
1
1.00001
1
1
1
1.00001
1.00001
1
1
1.00001
0.999999
1
1
1.00001
1
1
1.00001
1
1
1
1
1
1
1
0.999999
1
1
1
1
1
0.999998
1
1
1
1.00001
1.00001
1.00001
1
1.00001
1.00001
0.999999
1
1.00001
1.00001
0.999998
1
1
1
1
1
1
1
1
1
1
1
1
1
1
0.999999
1
1.00001
1.00001
1.00001
1
1
0.999998
0.999999
1
0.999998
0.999998
1.00001
1.00001
1
1
1
1
1
1
1
1
1
1
1
1
1
1
1
1
1
1.00001
1.00001
1
1
1
0.999999
0.999997
1
1.00001
0.999998
1
1.00001
1.00001
0.999997
1.00001
1
1
1
1
1
1
1
1
1
1
0.999999
1
0.999999
1
1
1.00001
1
1
1
1
0.999999
1
1.00001
1
0.999997
1
1.00001
1
0.999998
1
0.999999
1
1
0.999999
0.999999
0.999999
0.999999
0.999999
0.999997
0.999998
0.999997
0.999999
0.999997
0.999999
0.999997
0.999998
0.999996
0.999995
0.999996
0.999998
0.999996
0.999998
1
0.999999
0.999998
1
0.999999
0.999999
0.999998
1
0.999995
0.999995
0.999996
0.999996
0.999996
0.999996
0.999997
0.999997
0.999996
0.999998
0.999998
0.999998
0.999999
0.999999
0.999997
0.999999
0.999998
0.999998
1
0.999997
0.999997
0.999997
0.999998
0.999996
0.999995
0.999997
0.999996
0.999995
0.999993
0.999995
0.999922
0.999919
0.999925
0.999931
0.999939
0.999951
0.999962
0.999969
0.999976
0.999986
0.999989
0.999988
0.999985
0.999985
0.999987
0.99999
0.999985
0.999987
0.999991
0.999989
0.999986
0.999977
0.999972
0.999963
0.999949
0.999941
0.999932
0.999924
0.99992
0.999922
0.998892
0.998862
0.998894
0.99893
0.998992
0.999094
0.999233
0.999404
0.999586
0.999747
0.999871
0.999868
0.999763
0.999718
0.999715
0.999714
0.999717
0.999762
0.999867
0.999871
0.999748
0.999587
0.999406
0.999234
0.999094
0.998995
0.998931
0.998893
0.998863
0.998894
0.778762
0.773899
0.765884
0.753916
0.738773
0.721471
0.70329
0.685735
0.67016
0.658632
0.6489
0.641976
0.636836
0.63374
0.632125
0.63215
0.633726
0.636855
0.641986
0.648902
0.658638
0.67015
0.685728
0.703272
0.721464
0.738787
0.753937
0.765895
0.773892
0.778736
0.045709
0.0438487
0.0401301
0.0351659
0.0292818
0.0230675
0.0170509
0.0118406
0.00777603
0.0056376
0.00375853
0.00299751
0.00271405
0.00304484
0.00328549
0.00329189
0.00303541
0.00271389
0.00298542
0.00375023
0.00563888
0.00777863
0.0118355
0.0170519
0.0230811
0.0292684
0.0351492
0.040135
0.0438368
0.0457284
8.07037e-08
7.57399e-08
7.93954e-08
9.45664e-08
1.13209e-07
2.48684e-07
1.13546e-06
5.59301e-06
2.03184e-05
5.65024e-05
8.72891e-05
9.15173e-05
8.89234e-05
8.74014e-05
8.51913e-05
8.53002e-05
8.73202e-05
8.88233e-05
9.11765e-05
8.68864e-05
5.59032e-05
2.01282e-05
5.57031e-06
1.11695e-06
2.38609e-07
1.09363e-07
9.06323e-08
7.65653e-08
7.586e-08
7.99757e-08
2.34009e-07
3.03942e-07
1.10344e-06
1.50345e-06
2.02183e-06
6.14796e-06
8.72032e-06
9.0439e-06
1.28883e-05
2.38918e-05
4.2405e-05
3.76941e-05
3.81781e-05
3.49305e-05
3.44418e-05
3.45107e-05
3.49487e-05
3.82852e-05
3.74931e-05
4.22057e-05
2.35956e-05
1.26805e-05
9.05851e-06
8.81548e-06
6.23704e-06
2.0047e-06
1.48186e-06
1.10805e-06
3.07331e-07
2.47655e-07
1.24811e-08
2.85091e-08
5.42901e-08
1.58902e-07
3.82005e-07
1.44265e-06
2.66066e-06
2.39488e-06
1.08757e-05
3.6723e-05
4.01974e-05
3.60462e-05
3.52229e-05
3.40301e-05
3.01738e-05
3.03269e-05
3.41531e-05
3.52873e-05
3.61062e-05
4.04717e-05
3.70159e-05
1.09877e-05
2.44362e-06
2.71845e-06
1.48264e-06
3.87341e-07
1.59475e-07
5.48864e-08
2.86385e-08
1.25381e-08
2.75138e-11
7.40477e-11
7.48187e-11
2.22069e-10
9.66036e-10
4.76628e-09
2.01933e-08
9.66847e-08
1.84126e-06
1.51218e-05
2.9065e-05
3.52264e-05
3.44036e-05
3.42933e-05
3.49723e-05
3.49742e-05
3.44489e-05
3.45466e-05
3.54018e-05
2.94403e-05
1.55662e-05
2.04162e-06
1.02715e-07
2.1823e-08
5.09552e-09
1.00948e-09
2.27988e-10
7.68312e-11
6.94461e-11
2.82862e-11
2.6019e-11
3.65681e-11
3.71985e-11
3.04917e-11
7.46105e-11
2.56309e-10
1.22796e-09
7.20027e-09
4.56663e-08
2.19362e-07
2.77985e-06
7.95876e-06
1.14804e-05
1.419e-05
1.26725e-05
1.25238e-05
1.42036e-05
1.15946e-05
8.14909e-06
2.91517e-06
2.25068e-07
4.77007e-08
7.77924e-09
1.3589e-09
2.7884e-10
8.0413e-11
3.12228e-11
3.75119e-11
3.6888e-11
2.66563e-11
5.75249e-12
7.7586e-12
1.01821e-11
1.60981e-11
2.03653e-11
2.75642e-11
6.18798e-11
4.00752e-10
2.86745e-09
1.59246e-08
5.73123e-08
1.59249e-07
3.19432e-07
5.2936e-07
6.46199e-07
6.42749e-07
5.30287e-07
3.2172e-07
1.6183e-07
5.85291e-08
1.6367e-08
3.01091e-09
4.35487e-10
8.70992e-11
3.12568e-11
2.03582e-11
1.6108e-11
1.02879e-11
7.81331e-12
5.90409e-12
9.70167e-13
1.57135e-12
2.09021e-12
2.86791e-12
3.61396e-12
5.10654e-12
6.38375e-12
2.01746e-11
1.40981e-10
8.65822e-10
3.5544e-09
1.16758e-08
2.8083e-08
5.64988e-08
8.15143e-08
8.10144e-08
5.65418e-08
2.82914e-08
1.1871e-08
3.64145e-09
8.92744e-10
1.48844e-10
2.45195e-11
7.40335e-12
5.34972e-12
3.67001e-12
2.89038e-12
2.12128e-12
1.5767e-12
1.01015e-12
4.01697e-13
6.14371e-13
7.54339e-13
7.8997e-13
5.78203e-13
6.94236e-13
1.16924e-12
1.53905e-12
6.78607e-12
3.79259e-11
1.72105e-10
6.36255e-10
1.73741e-09
3.97157e-09
6.41755e-09
6.37173e-09
3.97217e-09
1.75527e-09
6.47123e-10
1.76556e-10
3.93107e-11
7.46416e-12
1.72167e-12
1.2288e-12
7.13122e-13
5.80555e-13
7.96394e-13
7.62255e-13
6.15117e-13
4.18746e-13
2.77185e-14
4.68504e-14
5.80036e-14
7.26497e-14
1.04588e-13
1.8607e-13
3.16014e-13
3.46307e-13
5.27541e-13
1.79015e-12
6.96066e-12
2.70588e-11
8.10299e-11
2.01884e-10
3.47871e-10
3.4572e-10
2.01983e-10
8.18616e-11
2.75902e-11
7.19747e-12
1.88756e-12
5.48282e-13
3.60149e-13
3.22528e-13
1.90538e-13
1.05263e-13
7.32792e-14
5.88016e-14
4.68805e-14
2.90832e-14
6.59801e-16
1.26086e-15
1.67047e-15
2.6156e-15
5.16522e-15
1.02619e-14
1.84967e-14
3.2102e-14
7.44712e-14
1.92744e-13
3.06247e-13
1.05781e-12
3.13873e-12
7.80553e-12
1.40091e-11
1.39426e-11
7.82771e-12
3.17509e-12
1.08755e-12
3.1582e-13
1.99649e-13
7.73923e-14
3.29875e-14
1.891e-14
1.05213e-14
5.2172e-15
2.63241e-15
1.70198e-15
1.26181e-15
6.96033e-16
1.67883e-17
3.41328e-17
4.48325e-17
6.85079e-17
1.21023e-16
2.28238e-16
4.58253e-16
1.05662e-15
2.77881e-15
8.04206e-15
2.38504e-14
7.05064e-14
1.35637e-13
2.75754e-13
4.96384e-13
4.94349e-13
2.77411e-13
1.34803e-13
7.21992e-14
2.45616e-14
8.30553e-15
2.88794e-15
1.084e-15
4.70997e-16
2.3495e-16
1.22057e-16
6.91283e-17
4.57075e-17
3.41292e-17
1.77811e-17
4.12574e-19
8.92313e-19
1.14845e-18
1.70132e-18
2.84726e-18
5.19868e-18
1.02609e-17
2.18811e-17
5.35355e-17
1.65374e-16
5.94507e-16
2.07248e-15
6.04778e-15
1.50593e-14
2.66873e-14
2.6615e-14
1.51899e-14
6.07097e-15
2.11632e-15
6.14384e-16
1.70756e-16
5.55712e-17
2.25156e-17
1.05413e-17
5.36261e-18
2.8766e-18
1.71782e-18
1.17089e-18
8.91704e-19
4.36415e-19
8.92377e-21
2.06545e-20
2.6061e-20
3.79821e-20
6.16541e-20
1.09654e-19
2.08671e-19
4.19506e-19
9.76261e-19
2.86441e-18
9.7569e-18
3.53298e-17
1.13494e-16
3.13679e-16
5.94386e-16
5.88803e-16
3.15875e-16
1.166e-16
3.64463e-17
1.009e-17
2.97612e-18
1.0119e-18
4.32874e-19
2.14519e-19
1.13202e-19
6.25876e-20
3.82663e-20
2.66406e-20
2.06692e-20
9.46349e-21
1.69432e-22
4.2004e-22
5.18583e-22
7.30991e-22
1.16802e-21
1.9984e-21
3.64245e-21
7.05009e-21
1.54642e-20
4.27232e-20
1.41611e-19
5.02611e-19
1.61226e-18
4.5513e-18
8.67706e-18
8.62203e-18
4.57687e-18
1.66272e-18
5.19272e-19
1.45569e-19
4.46916e-20
1.60764e-20
7.25971e-21
3.76102e-21
2.06398e-21
1.18033e-21
7.42335e-22
5.29493e-22
4.1965e-22
1.79332e-22
2.78631e-24
7.38507e-24
8.95807e-24
1.22879e-23
1.8935e-23
3.11112e-23
5.43723e-23
1.00009e-22
2.04165e-22
5.30803e-22
1.67334e-21
5.90883e-21
1.92033e-20
5.37979e-20
1.02656e-19
1.02697e-19
5.42117e-20
1.94887e-20
6.12928e-21
1.75944e-21
5.55773e-22
2.12574e-22
1.02619e-22
5.61137e-23
3.22365e-23
1.91902e-23
1.24794e-23
9.14263e-24
7.40897e-24
2.95232e-24
3.96895e-26
1.13376e-25
1.32328e-25
1.79227e-25
2.62326e-25
4.15502e-25
6.89185e-25
1.18734e-24
2.25293e-24
5.43555e-24
1.61897e-23
5.63666e-23
1.79437e-22
4.95128e-22
9.59746e-22
9.59968e-22
4.99255e-22
1.81113e-22
5.82779e-23
1.71071e-23
5.67668e-24
2.3474e-24
1.22205e-24
7.10308e-25
4.29539e-25
2.67709e-25
1.80609e-25
1.36274e-25
1.13183e-25
4.20458e-26
4.83006e-28
1.48916e-27
1.70184e-27
2.19504e-27
3.13132e-27
4.67882e-27
7.31443e-27
1.18289e-26
2.07298e-26
4.59991e-26
1.31503e-25
4.3991e-25
1.35299e-24
3.74152e-24
7.33716e-24
7.21529e-24
3.72968e-24
1.38457e-24
4.51142e-25
1.34862e-25
4.76079e-26
2.16119e-26
1.22321e-26
7.58209e-27
4.84253e-27
3.18075e-27
2.23919e-27
1.74604e-27
1.48811e-27
5.1451e-28
5.09941e-30
1.66008e-29
1.87053e-29
2.30704e-29
3.19079e-29
4.4485e-29
6.56159e-29
9.86931e-29
1.57988e-28
3.21657e-28
8.56449e-28
2.68501e-27
8.14468e-27
2.25727e-26
4.31925e-26
4.20743e-26
2.20503e-26
8.10546e-27
2.67337e-27
8.57798e-28
3.32501e-28
1.65198e-28
1.01671e-28
6.77827e-29
4.62327e-29
3.21595e-29
2.36915e-29
1.90825e-29
1.67016e-29
5.38426e-30
4.49022e-32
1.60659e-31
1.71442e-31
2.10175e-31
2.68472e-31
3.5828e-31
4.95255e-31
6.85029e-31
1.00375e-30
1.85799e-30
4.53412e-30
1.36697e-29
4.02637e-29
1.06055e-28
1.97712e-28
1.99558e-28
1.07223e-28
3.84877e-29
1.29692e-29
4.52028e-30
1.90722e-30
1.0418e-30
7.06464e-31
5.11196e-31
3.73205e-31
2.74587e-31
2.11737e-31
1.76822e-31
1.59757e-31
4.80212e-32
3.3807e-34
1.30378e-33
1.34756e-33
1.57745e-33
1.91794e-33
2.44062e-33
3.08771e-33
3.91853e-33
5.18984e-33
8.50961e-33
1.95524e-32
5.65749e-32
1.53034e-31
3.87027e-31
7.44902e-31
7.63149e-31
3.9638e-31
1.40928e-31
4.98879e-32
1.96803e-32
9.09859e-33
5.4615e-33
4.07612e-33
3.20377e-33
2.51453e-33
1.96973e-33
1.60008e-33
1.39131e-33
1.29758e-33
3.6246e-34
2.18027e-36
8.74457e-36
9.12165e-36
9.87691e-36
1.18459e-35
1.3742e-35
1.60516e-35
1.88109e-35
2.24063e-35
3.33661e-35
7.17153e-35
1.80025e-34
4.38222e-34
1.10796e-33
2.13145e-33
2.08237e-33
1.06306e-33
4.07076e-34
1.56249e-34
6.84389e-35
3.44666e-35
2.32546e-35
1.94171e-35
1.67856e-35
1.4269e-35
1.19263e-35
1.01966e-35
9.21679e-36
8.8624e-36
2.30405e-36
1.13467e-38
5.09962e-38
4.97249e-38
5.3458e-38
5.94652e-38
6.38615e-38
7.04271e-38
7.51502e-38
8.08572e-38
1.09716e-37
2.02005e-37
4.33044e-37
1.03099e-36
2.61156e-36
4.70452e-36
4.36275e-36
2.26797e-36
9.40645e-37
3.83627e-37
1.9022e-37
1.10092e-37
8.4464e-38
7.88227e-38
7.41972e-38
6.76866e-38
6.01961e-38
5.4325e-38
5.11176e-38
5.08007e-38
1.23407e-38
4.98408e-41
2.48522e-40
2.28682e-40
2.4313e-40
2.47844e-40
2.57883e-40
2.62212e-40
2.54188e-40
2.55668e-40
3.02708e-40
4.514e-40
8.63408e-40
1.93141e-39
4.25488e-39
7.07768e-39
6.86872e-39
3.98904e-39
1.85095e-39
8.39808e-40
4.77031e-40
3.08619e-40
2.62298e-40
2.69611e-40
2.74064e-40
2.67714e-40
2.55311e-40
2.45171e-40
2.38735e-40
2.43884e-40
5.5648e-41
1.9052e-43
9.81543e-43
9.31175e-43
9.0613e-43
9.13692e-43
8.97063e-43
8.48214e-43
8.05503e-43
7.91104e-43
8.47035e-43
1.0897e-42
1.79313e-42
3.09015e-42
5.14633e-42
8.98411e-42
9.54064e-42
5.59957e-42
2.61614e-42
1.51054e-42
1.02806e-42
7.71536e-43
7.32945e-43
8.46251e-43
8.98067e-43
9.21538e-43
9.3062e-43
9.48379e-43
9.34784e-43
9.73012e-43
2.13534e-43
5.71508e-46
3.53141e-45
3.18251e-45
3.04107e-45
3.02733e-45
2.83624e-45
2.74017e-45
2.72411e-45
2.77714e-45
2.92184e-45
3.22279e-45
3.84687e-45
4.63398e-45
5.73697e-45
1.02893e-44
1.10886e-44
5.9861e-45
3.04944e-45
3.40839e-45
2.71459e-45
2.24615e-45
2.21987e-45
2.77452e-45
2.87032e-45
2.8875e-45
2.99641e-45
3.23641e-45
3.09905e-45
3.23992e-45
7.27642e-46
1.41481e-48
1.23442e-47
9.95436e-48
1.00932e-47
9.80447e-48
9.63573e-48
1.00113e-47
1.0526e-47
1.12446e-47
1.14476e-47
1.07114e-47
9.93451e-48
9.8094e-48
1.09153e-47
1.26326e-47
1.29495e-47
6.83766e-48
8.35474e-48
9.45767e-48
7.9028e-48
7.12315e-48
7.36797e-48
1.00092e-47
9.89393e-48
9.21286e-48
9.43052e-48
1.07522e-47
9.09081e-48
9.14754e-48
2.42997e-48
3.27756e-51
4.18298e-50
3.38971e-50
3.51832e-50
3.53113e-50
3.69248e-50
3.98389e-50
4.2542e-50
4.47951e-50
4.10602e-50
3.46415e-50
2.7596e-50
2.37213e-50
2.34323e-50
1.58247e-50
1.48399e-50
1.29139e-50
2.01723e-50
2.24428e-50
2.11123e-50
2.23843e-50
2.54085e-50
3.78596e-50
3.80163e-50
3.29643e-50
3.22373e-50
3.85865e-50
2.55416e-50
2.27771e-50
9.01135e-51
5.94e-54
1.60876e-52
1.27834e-52
1.35401e-52
1.39079e-52
1.45771e-52
1.55249e-52
1.58369e-52
1.52012e-52
1.29116e-52
9.36638e-53
6.51894e-53
4.78334e-53
4.01534e-53
2.79472e-53
2.65648e-53
2.49292e-53
4.01352e-53
4.70988e-53
5.00905e-53
6.19954e-53
8.16317e-53
1.31349e-52
1.43576e-52
1.23676e-52
1.19e-52
1.51126e-52
7.72264e-53
5.49589e-53
3.77602e-53
9.28545e-57
6.59493e-55
4.90966e-55
5.273e-55
5.24911e-55
5.29477e-55
5.35285e-55
4.98538e-55
4.32205e-55
3.27878e-55
2.05133e-55
1.22786e-55
7.71184e-56
5.71334e-56
4.24819e-56
4.06819e-56
3.44975e-56
5.88157e-56
7.82922e-56
9.64479e-56
1.38248e-55
2.18041e-55
3.87402e-55
4.7877e-55
4.36146e-55
4.33646e-55
5.87841e-55
2.59177e-55
1.44125e-55
1.5862e-55
2.09869e-59
2.44455e-57
1.7566e-57
1.84923e-57
1.74094e-57
1.66306e-57
1.53323e-57
1.31313e-57
1.00711e-57
6.63354e-58
3.57142e-58
1.81112e-58
9.66656e-59
6.23686e-59
4.41636e-59
3.93324e-59
3.02492e-59
6.18012e-59
9.82692e-59
1.43123e-58
2.4286e-58
4.48934e-58
9.90825e-58
1.3189e-57
1.33929e-57
1.41172e-57
2.05012e-57
8.69643e-58
4.17831e-58
5.9902e-58
5.66306e-62
7.74377e-60
5.47144e-60
5.50362e-60
4.90503e-60
4.35455e-60
3.70637e-60
2.81292e-60
1.90137e-60
1.0806e-60
4.94194e-61
2.10402e-61
9.46561e-62
5.23214e-62
3.37831e-62
2.77761e-62
1.9543e-62
4.84565e-62
9.24587e-62
1.60123e-61
3.29176e-61
7.30965e-61
2.07018e-60
2.98811e-60
3.45e-60
3.89737e-60
6.08204e-60
2.6277e-60
1.2103e-60
1.93182e-60
7.33417e-65
2.09491e-62
1.43199e-62
1.36978e-62
1.16065e-62
9.43093e-63
7.2861e-63
4.93087e-63
2.91085e-63
1.41435e-63
5.43919e-64
1.92731e-64
7.2318e-65
3.38683e-65
1.97673e-65
1.50638e-65
8.83022e-66
2.61764e-65
6.10309e-65
1.27602e-64
3.32115e-64
9.17513e-64
3.38374e-63
5.66588e-63
7.25167e-63
9.06105e-63
1.50626e-62
6.78291e-63
3.14899e-63
5.21154e-63
1.38748e-67
4.72006e-65
3.1053e-65
2.82969e-65
2.27015e-65
1.68479e-65
1.17841e-65
7.07079e-66
3.61866e-66
1.49206e-66
4.79025e-67
1.4032e-67
4.3746e-68
1.72636e-68
9.2047e-69
6.28033e-69
3.89265e-69
1.27025e-68
3.75125e-68
1.01081e-67
2.95653e-67
8.58308e-67
4.42909e-66
8.7935e-66
1.24961e-65
1.74801e-65
3.08944e-65
1.46244e-65
6.9607e-66
1.16747e-65
3.69154e-70
8.71694e-68
5.59914e-68
4.8463e-68
3.64842e-68
2.48653e-68
1.56992e-68
8.31509e-69
3.67331e-69
1.28072e-69
3.42881e-70
8.37817e-71
2.22995e-71
7.72648e-72
3.9839e-72
2.283e-72
1.3526e-72
5.26898e-72
1.90759e-71
6.38681e-71
2.29675e-70
7.58972e-70
4.66176e-69
1.11185e-68
1.77175e-68
2.77802e-68
5.23238e-68
2.61477e-68
1.28315e-68
2.16975e-68
4.74246e-73
1.33941e-70
8.41363e-71
6.89583e-71
4.866e-71
3.03796e-71
1.72649e-71
8.06441e-72
3.07226e-72
9.08589e-73
2.06606e-73
4.42401e-74
1.10822e-74
3.87925e-75
2.19272e-75
1.4946e-75
4.13161e-76
1.69875e-75
7.67633e-75
3.23116e-74
1.44418e-73
5.75215e-73
3.93225e-72
1.14847e-71
2.0697e-71
3.6469e-71
7.32941e-71
3.87738e-71
1.96436e-71
3.35011e-71
3.03021e-76
1.73103e-73
1.0547e-73
8.20048e-74
5.43036e-74
3.09375e-74
1.58195e-74
6.54268e-75
2.16871e-75
5.57184e-76
1.14996e-76
2.47379e-77
6.95527e-78
2.69741e-78
1.6659e-78
1.38466e-78
1.10651e-78
5.64186e-79
2.50022e-78
1.32646e-77
7.4344e-77
3.56577e-76
2.67213e-75
9.7839e-75
2.00755e-74
3.97526e-74
8.51745e-74
4.77388e-74
2.4944e-74
4.30495e-74
2.82124e-79
1.87296e-76
1.10186e-76
8.1967e-77
5.11732e-77
2.65843e-77
1.23245e-77
4.59321e-78
1.36686e-78
3.2692e-79
7.02805e-80
1.76433e-80
5.59551e-81
2.31194e-81
1.48051e-81
1.32068e-81
1.64286e-81
2.21535e-81
1.68995e-81
4.51548e-81
3.13282e-80
1.82223e-79
1.52131e-78
7.01754e-78
1.63524e-77
3.61978e-77
8.23443e-77
4.88359e-77
2.62511e-77
4.61932e-77
4.99881e-82
1.68997e-79
9.66549e-80
6.9686e-80
4.14394e-80
1.97188e-80
8.44957e-81
2.95251e-81
8.44938e-82
2.09026e-82
5.18751e-83
1.46061e-83
4.85703e-84
2.02503e-84
1.29875e-84
1.18337e-84
1.62413e-84
3.02427e-84
5.85736e-84
6.42938e-84
1.09816e-83
7.70925e-83
7.99159e-82
4.38759e-81
1.14557e-80
2.78253e-80
6.65123e-80
4.16317e-80
2.29143e-80
4.17021e-80
2.58208e-85
1.31076e-82
7.27553e-83
5.16322e-83
2.97359e-83
1.30762e-83
5.35938e-84
1.86994e-84
5.53921e-85
1.5063e-85
4.09336e-86
1.19405e-86
3.95208e-87
1.62561e-87
1.0339e-87
9.49109e-88
1.3453e-87
2.71829e-87
6.65227e-87
1.74081e-86
3.65264e-86
3.91559e-86
4.75247e-85
2.56307e-84
7.14629e-84
1.83393e-83
4.53505e-83
2.97875e-83
1.66488e-83
3.21079e-83
9.45341e-89
8.96764e-86
4.80938e-86
3.43988e-86
1.96347e-86
8.15276e-87
3.32641e-87
1.21725e-87
3.8638e-88
1.1038e-88
3.0727e-89
8.86122e-90
2.86572e-90
1.15628e-90
7.27759e-91
6.70068e-91
9.66467e-91
2.02319e-90
5.33341e-90
1.67581e-89
5.24303e-89
1.07934e-88
3.36193e-88
1.53542e-87
4.25171e-87
1.07326e-86
2.71296e-86
1.86887e-86
1.01163e-86
2.15843e-86
5.23136e-92
5.55804e-89
2.87e-89
2.14103e-89
1.24222e-89
4.98497e-90
2.09141e-90
8.13446e-91
2.64972e-91
7.62065e-92
2.08924e-92
5.85376e-93
1.84127e-93
7.28154e-94
4.53463e-94
4.1817e-94
6.11711e-94
1.31299e-93
3.60434e-93
1.21945e-92
4.36675e-92
1.33575e-91
4.14421e-91
1.41901e-90
3.41455e-90
6.24586e-90
1.60795e-89
1.05448e-89
5.18187e-90
1.31391e-89
6.8295e-95
3.2362e-92
1.62619e-92
1.30613e-92
7.789e-93
3.09614e-93
1.33553e-93
5.29021e-94
1.71661e-94
4.83566e-95
1.28442e-95
3.47993e-96
1.06397e-96
4.12487e-97
2.54109e-97
2.34996e-97
3.48863e-97
7.67387e-97
2.17839e-96
7.72653e-96
2.97125e-95
1.05098e-94
3.49171e-94
1.14139e-93
2.66479e-93
4.41144e-93
9.17843e-93
5.61554e-93
2.25229e-93
7.63142e-93
3.0598e-98
1.91235e-95
9.40454e-96
8.18781e-96
4.98809e-96
1.9416e-96
8.40223e-97
3.30257e-97
1.04477e-97
2.84413e-98
7.27809e-99
1.90514e-99
5.66667e-100
2.15683e-100
1.31637e-100
1.22388e-100
1.84818e-100
4.17593e-100
1.22677e-99
4.52553e-99
1.82797e-98
6.98289e-98
2.45243e-97
8.0992e-97
1.92554e-96
3.11608e-96
5.48951e-96
3.03786e-96
8.53346e-97
4.47076e-96
1.13491e-101
1.19612e-98
5.75742e-99
5.25263e-99
3.18872e-99
1.21014e-99
5.18288e-100
1.98478e-100
6.05489e-101
1.58526e-101
3.90685e-102
9.90054e-103
2.87307e-103
1.07656e-103
6.52508e-104
6.10452e-104
9.39137e-104
2.18371e-103
6.65001e-103
2.54521e-102
1.06864e-101
4.28986e-101
1.5739e-100
5.32564e-100
1.30119e-99
2.11124e-99
3.42311e-99
1.77948e-99
3.28213e-100
2.76811e-99
5.09421e-105
7.67765e-102
3.6118e-102
3.37646e-102
2.01781e-102
7.44871e-103
3.13006e-103
1.15798e-103
3.39728e-104
8.56319e-105
2.03844e-105
5.01719e-106
1.42439e-106
5.2641e-107
3.17124e-107
2.98717e-107
4.68453e-107
1.12216e-106
3.54608e-106
1.40633e-105
6.10326e-105
2.54062e-104
9.64582e-104
3.34669e-103
8.41653e-103
1.38464e-102
2.16652e-102
1.08425e-102
1.28653e-103
1.75543e-102
6.65629e-108
4.94426e-105
2.27863e-105
2.15127e-105
1.25698e-105
4.50997e-106
1.85363e-106
6.61221e-107
1.86785e-107
4.54534e-108
1.04834e-108
2.51344e-109
6.99813e-110
2.55543e-110
1.53076e-110
1.45178e-110
2.3223e-110
5.7305e-110
1.87953e-109
7.71612e-109
3.4498e-108
1.47938e-107
5.77609e-107
2.04898e-106
5.29556e-106
8.87372e-106
1.37861e-105
6.80933e-106
5.45072e-107
1.12679e-105
4.05641e-111
3.20127e-108
1.4481e-108
1.36555e-108
7.75012e-109
2.70235e-109
1.08504e-109
3.73088e-110
1.01612e-110
2.39232e-111
5.35947e-112
1.25397e-112
3.43006e-113
1.23853e-113
7.38942e-114
7.05742e-114
1.14909e-113
2.92506e-113
9.95504e-113
4.22562e-112
1.94216e-111
8.5497e-111
3.41958e-110
1.23631e-109
3.27543e-109
5.59479e-109
8.7553e-109
4.34053e-109
2.67189e-110
7.26171e-109
2.04853e-114
2.08558e-111
9.30163e-112
8.71146e-112
4.78551e-112
1.62047e-112
6.34647e-113
2.10015e-113
5.51281e-114
1.25658e-114
2.73829e-115
6.26245e-116
1.6858e-116
6.05479e-117
3.61161e-117
3.47521e-117
5.74981e-117
1.50112e-116
5.29967e-116
2.32361e-115
1.09626e-114
4.94234e-114
2.01966e-113
7.42435e-113
2.01413e-112
3.51127e-112
5.56691e-112
2.77237e-112
1.59505e-113
4.67119e-112
7.53198e-115
1.11725e-114
4.23906e-112
3.05278e-112
1.07113e-112
4.03698e-113
1.25983e-113
3.21078e-114
7.28295e-115
1.61039e-115
3.8335e-116
1.07647e-116
3.33971e-117
1.60304e-117
9.35044e-118
9.08328e-118
1.49501e-117
3.32992e-117
1.05059e-116
3.78621e-116
1.63098e-115
7.58689e-115
3.38819e-114
1.37363e-113
4.96691e-113
1.40977e-112
1.43413e-112
1.57189e-113
1.57189e-113
1.57189e-113
0.999998
0.999998
1
1
1
1.00001
1.00001
1.00001
1.00001
1.00001
1
1
1
1
1
1
1
1
1
0.999998
0.999994
0.999991
0.99999
0.999993
0.999999
1.00001
1.00002
1.00003
1.00002
0.999986
0.999997
0.999997
0.999999
1
1
1.00001
1.00001
1.00001
1.00001
1.00001
1
1
1
1
1
1.00001
1
1
1
0.999996
0.999993
0.99999
0.999991
0.999996
1.00001
1.00002
1.00003
1.00004
1.00005
1.00003
0.999996
0.999995
0.999997
0.999998
1
1
1
1
1
1
1
1
1
1
1.00001
1.00001
1
1
1
1
0.999999
0.999999
1
1.00001
1.00001
1.00002
1.00003
1.00004
1.00002
1.00002
0.999996
0.999995
0.999996
0.999996
0.999997
0.999998
1
1
1
1
1.00001
1.00001
1.00001
1.00001
1.00001
1.00001
1
1
1
1
1
1.00001
1.00001
1.00001
1.00001
1.00001
1.00001
1.00002
1.00001
1
0.999997
0.999997
0.999997
0.999997
0.999998
0.999998
1
1
1
1.00001
1.00001
1.00001
1.00001
1.00001
1.00001
1.00001
1
1
1
1
1
1.00001
1.00001
1.00001
1.00001
1
0.999995
0.999994
0.999984
0.99998
1
1
1
1
1
1
1
1
1.00001
1.00001
1.00001
1.00001
1.00001
1.00001
1.00001
1
1
0.999998
0.999997
0.999999
1
1
1.00001
1
0.999997
0.999989
0.999978
0.999971
0.999964
0.99997
1
1.00001
1
1
1
1
1
1
1
1.00001
1.00001
1.00001
1.00001
1.00001
1
1
0.999999
0.999997
0.999997
0.999999
1
1
0.999999
0.999994
0.999986