/*--------------------------------*- C++ -*----------------------------------*\
| =========                 |                                                 |
| \\      /  F ield         | OpenFOAM: The Open Source CFD Toolbox           |
|  \\    /   O peration     | Version:  2312                                  |
|   \\  /    A nd           | Website:  www.openfoam.com                      |
|    \\/     M anipulation  |                                                 |
\*---------------------------------------------------------------------------*/
FoamFile
{
    version     2.0;
    format      ascii;
    arch        "LSB;label=32;scalar=64";
    class       volScalarField;
    location    "0.46258";
    object      epsilon;
}
// * * * * * * * * * * * * * * * * * * * * * * * * * * * * * * * * * * * * * //

dimensions      [0 2 -3 0 0 0 0];

internalField   nonuniform List<scalar> 
90000
(
1.35709e-05
1.35715e-05
1.35715e-05
1.35715e-05
1.35715e-05
1.35715e-05
1.35715e-05
1.35715e-05
1.35714e-05
1.35714e-05
1.35714e-05
1.35714e-05
1.35713e-05
1.35713e-05
1.35713e-05
1.35713e-05
1.35714e-05
1.35714e-05
1.35714e-05
1.35714e-05
1.35714e-05
1.35713e-05
1.35714e-05
1.35715e-05
1.35717e-05
1.35717e-05
1.35717e-05
1.35716e-05
1.35714e-05
1.35711e-05
1.35715e-05
1.35855e-05
1.35859e-05
1.35859e-05
1.35859e-05
1.35859e-05
1.35859e-05
1.35859e-05
1.35859e-05
1.35859e-05
1.35858e-05
1.35858e-05
1.35858e-05
1.35858e-05
1.35858e-05
1.35857e-05
1.35857e-05
1.35857e-05
1.35857e-05
1.35857e-05
1.35857e-05
1.35858e-05
1.35858e-05
1.35858e-05
1.35857e-05
1.35857e-05
1.35858e-05
1.35859e-05
1.35857e-05
1.35724e-05
1.35715e-05
1.3586e-05
1.35865e-05
1.35865e-05
1.35865e-05
1.35865e-05
1.35865e-05
1.35864e-05
1.35864e-05
1.35864e-05
1.35864e-05
1.35864e-05
1.35864e-05
1.35863e-05
1.35863e-05
1.35863e-05
1.35862e-05
1.35863e-05
1.35863e-05
1.35864e-05
1.35864e-05
1.35864e-05
1.35864e-05
1.35863e-05
1.35864e-05
1.35865e-05
1.35866e-05
1.35865e-05
1.35857e-05
1.35718e-05
1.35715e-05
1.3586e-05
1.35866e-05
1.35866e-05
1.35866e-05
1.35866e-05
1.35866e-05
1.35865e-05
1.35865e-05
1.35865e-05
1.35865e-05
1.35864e-05
1.35864e-05
1.35864e-05
1.35863e-05
1.35863e-05
1.35863e-05
1.35864e-05
1.35865e-05
1.35865e-05
1.35865e-05
1.35865e-05
1.35865e-05
1.35866e-05
1.35867e-05
1.35868e-05
1.35869e-05
1.35869e-05
1.35859e-05
1.35717e-05
1.35716e-05
1.35862e-05
1.35867e-05
1.35868e-05
1.35868e-05
1.35867e-05
1.35867e-05
1.35866e-05
1.35866e-05
1.35866e-05
1.35865e-05
1.35865e-05
1.35864e-05
1.35864e-05
1.35863e-05
1.35863e-05
1.35864e-05
1.35865e-05
1.35865e-05
1.35865e-05
1.35865e-05
1.35865e-05
1.35866e-05
1.35867e-05
1.35868e-05
1.35868e-05
1.35867e-05
1.35867e-05
1.3586e-05
1.35717e-05
1.35719e-05
1.35864e-05
1.35869e-05
1.35869e-05
1.35869e-05
1.35869e-05
1.35868e-05
1.35868e-05
1.35867e-05
1.35866e-05
1.35865e-05
1.35865e-05
1.35864e-05
1.35863e-05
1.35863e-05
1.35863e-05
1.35864e-05
1.35864e-05
1.35864e-05
1.35864e-05
1.35865e-05
1.35866e-05
1.35867e-05
1.35867e-05
1.35867e-05
1.35867e-05
1.35866e-05
1.35867e-05
1.35862e-05
1.35717e-05
1.35721e-05
1.35867e-05
1.35871e-05
1.35871e-05
1.3587e-05
1.3587e-05
1.35869e-05
1.35869e-05
1.35868e-05
1.35867e-05
1.35865e-05
1.35864e-05
1.35863e-05
1.35863e-05
1.35863e-05
1.35863e-05
1.35863e-05
1.35863e-05
1.35863e-05
1.35864e-05
1.35866e-05
1.35867e-05
1.35868e-05
1.35868e-05
1.35867e-05
1.35868e-05
1.35868e-05
1.35868e-05
1.35863e-05
1.35717e-05
1.35723e-05
1.35869e-05
1.35873e-05
1.35872e-05
1.35872e-05
1.35871e-05
1.35871e-05
1.3587e-05
1.35869e-05
1.35868e-05
1.35866e-05
1.35864e-05
1.35862e-05
1.35862e-05
1.35862e-05
1.35862e-05
1.35863e-05
1.35863e-05
1.35865e-05
1.35866e-05
1.35867e-05
1.35868e-05
1.35869e-05
1.35869e-05
1.35869e-05
1.35869e-05
1.35869e-05
1.35868e-05
1.35862e-05
1.35718e-05
1.35725e-05
1.35871e-05
1.35875e-05
1.35874e-05
1.35873e-05
1.35873e-05
1.35872e-05
1.35872e-05
1.3587e-05
1.35869e-05
1.35867e-05
1.35865e-05
1.35863e-05
1.35862e-05
1.35862e-05
1.35863e-05
1.35864e-05
1.35866e-05
1.35867e-05
1.35869e-05
1.3587e-05
1.35871e-05
1.35871e-05
1.35871e-05
1.3587e-05
1.3587e-05
1.3587e-05
1.35869e-05
1.35863e-05
1.35721e-05
1.35726e-05
1.35873e-05
1.35877e-05
1.35876e-05
1.35876e-05
1.35875e-05
1.35874e-05
1.35873e-05
1.35872e-05
1.3587e-05
1.35868e-05
1.35866e-05
1.35864e-05
1.35863e-05
1.35862e-05
1.35864e-05
1.35866e-05
1.35868e-05
1.3587e-05
1.35872e-05
1.35873e-05
1.35873e-05
1.35873e-05
1.35873e-05
1.35872e-05
1.35872e-05
1.35872e-05
1.35871e-05
1.35866e-05
1.35725e-05
1.35728e-05
1.35876e-05
1.35879e-05
1.35879e-05
1.35878e-05
1.35877e-05
1.35876e-05
1.35874e-05
1.35873e-05
1.35871e-05
1.3587e-05
1.35868e-05
1.35866e-05
1.35864e-05
1.35863e-05
1.35865e-05
1.35867e-05
1.3587e-05
1.35873e-05
1.35874e-05
1.35875e-05
1.35876e-05
1.35876e-05
1.35876e-05
1.35875e-05
1.35875e-05
1.35876e-05
1.35876e-05
1.35872e-05
1.3573e-05
1.35731e-05
1.35879e-05
1.35883e-05
1.35883e-05
1.35882e-05
1.3588e-05
1.35878e-05
1.35876e-05
1.35874e-05
1.35873e-05
1.35871e-05
1.3587e-05
1.35868e-05
1.35866e-05
1.35864e-05
1.35865e-05
1.35868e-05
1.35871e-05
1.35874e-05
1.35876e-05
1.35877e-05
1.35878e-05
1.35879e-05
1.35879e-05
1.35879e-05
1.3588e-05
1.35881e-05
1.35882e-05
1.35877e-05
1.35734e-05
1.35737e-05
1.35885e-05
1.35888e-05
1.35887e-05
1.35886e-05
1.35884e-05
1.35882e-05
1.35879e-05
1.35876e-05
1.35875e-05
1.35873e-05
1.35872e-05
1.3587e-05
1.35868e-05
1.35865e-05
1.35864e-05
1.35868e-05
1.35871e-05
1.35874e-05
1.35876e-05
1.35879e-05
1.3588e-05
1.35882e-05
1.35883e-05
1.35884e-05
1.35886e-05
1.35887e-05
1.35887e-05
1.35883e-05
1.35739e-05
1.35747e-05
1.35891e-05
1.35895e-05
1.35893e-05
1.35891e-05
1.35888e-05
1.35886e-05
1.35883e-05
1.3588e-05
1.35878e-05
1.35876e-05
1.35874e-05
1.35871e-05
1.35868e-05
1.35866e-05
1.35865e-05
1.35867e-05
1.3587e-05
1.35873e-05
1.35876e-05
1.3588e-05
1.35883e-05
1.35886e-05
1.35888e-05
1.3589e-05
1.35892e-05
1.35893e-05
1.35893e-05
1.35888e-05
1.35744e-05
1.35758e-05
1.35898e-05
1.35901e-05
1.35899e-05
1.35897e-05
1.35894e-05
1.35891e-05
1.35888e-05
1.35885e-05
1.35882e-05
1.35879e-05
1.35876e-05
1.35872e-05
1.35869e-05
1.35866e-05
1.35865e-05
1.35866e-05
1.35868e-05
1.35873e-05
1.35877e-05
1.35882e-05
1.35887e-05
1.35891e-05
1.35894e-05
1.35897e-05
1.35899e-05
1.359e-05
1.359e-05
1.35895e-05
1.35751e-05
1.3577e-05
1.35905e-05
1.35909e-05
1.35907e-05
1.35903e-05
1.359e-05
1.35897e-05
1.35895e-05
1.35892e-05
1.35888e-05
1.35883e-05
1.35878e-05
1.35873e-05
1.35869e-05
1.35866e-05
1.35865e-05
1.35866e-05
1.35869e-05
1.35874e-05
1.3588e-05
1.35887e-05
1.35892e-05
1.35898e-05
1.35902e-05
1.35905e-05
1.35907e-05
1.35908e-05
1.35908e-05
1.35903e-05
1.3576e-05
1.35781e-05
1.35913e-05
1.35918e-05
1.35915e-05
1.35912e-05
1.3591e-05
1.35907e-05
1.35904e-05
1.359e-05
1.35894e-05
1.35888e-05
1.35881e-05
1.35875e-05
1.35869e-05
1.35866e-05
1.35864e-05
1.35867e-05
1.35871e-05
1.35878e-05
1.35885e-05
1.35893e-05
1.359e-05
1.35906e-05
1.35911e-05
1.35914e-05
1.35917e-05
1.35918e-05
1.35918e-05
1.35913e-05
1.35772e-05
1.35792e-05
1.35924e-05
1.35929e-05
1.35927e-05
1.35925e-05
1.35922e-05
1.35919e-05
1.35915e-05
1.35909e-05
1.35902e-05
1.35894e-05
1.35886e-05
1.35878e-05
1.35871e-05
1.35866e-05
1.35865e-05
1.35869e-05
1.35876e-05
1.35884e-05
1.35893e-05
1.35901e-05
1.35909e-05
1.35916e-05
1.35921e-05
1.35926e-05
1.35929e-05
1.35931e-05
1.35932e-05
1.35928e-05
1.35788e-05
1.35806e-05
1.35939e-05
1.35944e-05
1.35943e-05
1.3594e-05
1.35938e-05
1.35934e-05
1.35928e-05
1.35921e-05
1.35912e-05
1.35902e-05
1.35892e-05
1.35883e-05
1.35875e-05
1.35869e-05
1.35868e-05
1.35874e-05
1.35883e-05
1.35893e-05
1.35903e-05
1.35912e-05
1.35921e-05
1.35928e-05
1.35935e-05
1.3594e-05
1.35944e-05
1.35947e-05
1.3595e-05
1.35947e-05
1.35807e-05
1.35824e-05
1.35959e-05
1.35964e-05
1.35962e-05
1.3596e-05
1.35956e-05
1.35951e-05
1.35944e-05
1.35935e-05
1.35925e-05
1.35913e-05
1.35902e-05
1.35891e-05
1.35881e-05
1.35872e-05
1.35872e-05
1.3588e-05
1.35891e-05
1.35903e-05
1.35914e-05
1.35925e-05
1.35934e-05
1.35943e-05
1.35951e-05
1.35957e-05
1.35963e-05
1.35967e-05
1.35971e-05
1.35968e-05
1.35828e-05
1.35847e-05
1.35984e-05
1.35988e-05
1.35986e-05
1.35983e-05
1.35979e-05
1.35973e-05
1.35964e-05
1.35953e-05
1.35941e-05
1.35928e-05
1.35914e-05
1.359e-05
1.35887e-05
1.35877e-05
1.35877e-05
1.35888e-05
1.35901e-05
1.35914e-05
1.35927e-05
1.35939e-05
1.3595e-05
1.35961e-05
1.3597e-05
1.35979e-05
1.35986e-05
1.35992e-05
1.35996e-05
1.35992e-05
1.35852e-05
1.35877e-05
1.36015e-05
1.36019e-05
1.36017e-05
1.36013e-05
1.36007e-05
1.35999e-05
1.35988e-05
1.35974e-05
1.3596e-05
1.35944e-05
1.35927e-05
1.3591e-05
1.35894e-05
1.35882e-05
1.35883e-05
1.35896e-05
1.35911e-05
1.35927e-05
1.35942e-05
1.35956e-05
1.3597e-05
1.35983e-05
1.35995e-05
1.36006e-05
1.36014e-05
1.36021e-05
1.36025e-05
1.36021e-05
1.35882e-05
1.35914e-05
1.36054e-05
1.36058e-05
1.36055e-05
1.3605e-05
1.36041e-05
1.3603e-05
1.36016e-05
1.36e-05
1.35982e-05
1.35963e-05
1.35943e-05
1.35922e-05
1.35903e-05
1.35889e-05
1.35891e-05
1.35906e-05
1.35924e-05
1.35943e-05
1.35961e-05
1.35979e-05
1.35996e-05
1.36012e-05
1.36027e-05
1.3604e-05
1.3605e-05
1.36057e-05
1.36061e-05
1.36059e-05
1.35921e-05
1.35962e-05
1.36103e-05
1.36106e-05
1.36101e-05
1.36094e-05
1.36082e-05
1.36068e-05
1.3605e-05
1.36031e-05
1.36009e-05
1.35986e-05
1.35962e-05
1.35938e-05
1.35915e-05
1.359e-05
1.35901e-05
1.35919e-05
1.35941e-05
1.35963e-05
1.35986e-05
1.36008e-05
1.36029e-05
1.36049e-05
1.36067e-05
1.36082e-05
1.36093e-05
1.36102e-05
1.36108e-05
1.36107e-05
1.3597e-05
1.36021e-05
1.36164e-05
1.36164e-05
1.36157e-05
1.36146e-05
1.36131e-05
1.36113e-05
1.36092e-05
1.36068e-05
1.36042e-05
1.36015e-05
1.35986e-05
1.35958e-05
1.35932e-05
1.35914e-05
1.35915e-05
1.35935e-05
1.35961e-05
1.35989e-05
1.36017e-05
1.36044e-05
1.3607e-05
1.36094e-05
1.36114e-05
1.36131e-05
1.36145e-05
1.36156e-05
1.36165e-05
1.36167e-05
1.36029e-05
1.36094e-05
1.36235e-05
1.36233e-05
1.36223e-05
1.36209e-05
1.3619e-05
1.36168e-05
1.36143e-05
1.36115e-05
1.36084e-05
1.36052e-05
1.36018e-05
1.35985e-05
1.35954e-05
1.35932e-05
1.35932e-05
1.35955e-05
1.35987e-05
1.3602e-05
1.36055e-05
1.36088e-05
1.36118e-05
1.36146e-05
1.3617e-05
1.36191e-05
1.36208e-05
1.36222e-05
1.36234e-05
1.36237e-05
1.36099e-05
1.3618e-05
1.36318e-05
1.36314e-05
1.36301e-05
1.36284e-05
1.36262e-05
1.36237e-05
1.36207e-05
1.36174e-05
1.36137e-05
1.36098e-05
1.36058e-05
1.36018e-05
1.35981e-05
1.35954e-05
1.35953e-05
1.3598e-05
1.36017e-05
1.36059e-05
1.361e-05
1.3614e-05
1.36176e-05
1.36209e-05
1.36237e-05
1.36262e-05
1.36284e-05
1.36302e-05
1.36316e-05
1.36319e-05
1.36182e-05
1.36282e-05
1.36416e-05
1.36411e-05
1.36395e-05
1.36375e-05
1.3635e-05
1.3632e-05
1.36285e-05
1.36245e-05
1.36201e-05
1.36155e-05
1.36107e-05
1.36058e-05
1.36013e-05
1.35981e-05
1.3598e-05
1.36011e-05
1.36056e-05
1.36106e-05
1.36156e-05
1.36203e-05
1.36246e-05
1.36285e-05
1.36319e-05
1.3635e-05
1.36376e-05
1.36398e-05
1.36413e-05
1.36417e-05
1.36282e-05
1.36402e-05
1.36533e-05
1.36526e-05
1.36509e-05
1.36485e-05
1.36456e-05
1.3642e-05
1.36379e-05
1.36331e-05
1.36279e-05
1.36224e-05
1.36166e-05
1.36107e-05
1.36053e-05
1.36016e-05
1.36015e-05
1.36052e-05
1.36106e-05
1.36165e-05
1.36224e-05
1.3628e-05
1.36332e-05
1.36378e-05
1.36419e-05
1.36456e-05
1.36487e-05
1.36511e-05
1.36528e-05
1.36534e-05
1.36401e-05
1.36545e-05
1.36674e-05
1.36666e-05
1.36646e-05
1.36618e-05
1.36584e-05
1.36541e-05
1.36492e-05
1.36435e-05
1.36374e-05
1.36308e-05
1.36238e-05
1.36169e-05
1.36106e-05
1.36062e-05
1.36062e-05
1.36105e-05
1.36169e-05
1.36239e-05
1.36309e-05
1.36375e-05
1.36436e-05
1.36491e-05
1.36541e-05
1.36584e-05
1.36619e-05
1.36646e-05
1.36666e-05
1.36675e-05
1.36545e-05
1.36716e-05
1.36844e-05
1.36833e-05
1.3681e-05
1.36778e-05
1.36737e-05
1.36687e-05
1.36629e-05
1.36563e-05
1.36491e-05
1.36412e-05
1.36329e-05
1.36247e-05
1.36174e-05
1.36124e-05
1.36124e-05
1.36174e-05
1.36248e-05
1.3633e-05
1.36412e-05
1.3649e-05
1.36563e-05
1.3663e-05
1.36688e-05
1.36738e-05
1.36778e-05
1.3681e-05
1.36834e-05
1.36845e-05
1.36717e-05
1.3692e-05
1.37046e-05
1.37033e-05
1.37006e-05
1.36969e-05
1.36921e-05
1.36863e-05
1.36795e-05
1.36719e-05
1.36634e-05
1.36541e-05
1.36444e-05
1.36347e-05
1.36262e-05
1.36205e-05
1.36206e-05
1.36263e-05
1.36348e-05
1.36444e-05
1.36541e-05
1.36634e-05
1.3672e-05
1.36798e-05
1.36866e-05
1.36923e-05
1.36969e-05
1.37006e-05
1.37034e-05
1.37047e-05
1.36922e-05
1.37163e-05
1.37287e-05
1.37271e-05
1.3724e-05
1.37197e-05
1.37142e-05
1.37075e-05
1.36998e-05
1.36909e-05
1.36809e-05
1.36701e-05
1.36586e-05
1.36474e-05
1.36376e-05
1.36311e-05
1.36312e-05
1.36378e-05
1.36476e-05
1.36587e-05
1.367e-05
1.3681e-05
1.36911e-05
1.37001e-05
1.37079e-05
1.37144e-05
1.37197e-05
1.3724e-05
1.37271e-05
1.37288e-05
1.37164e-05
1.37449e-05
1.37571e-05
1.37552e-05
1.37517e-05
1.37468e-05
1.37407e-05
1.37331e-05
1.37243e-05
1.3714e-05
1.37024e-05
1.36897e-05
1.36765e-05
1.36635e-05
1.36523e-05
1.3645e-05
1.36451e-05
1.36525e-05
1.36637e-05
1.36765e-05
1.36897e-05
1.37024e-05
1.37141e-05
1.37244e-05
1.37333e-05
1.37407e-05
1.37468e-05
1.37516e-05
1.37551e-05
1.3757e-05
1.37448e-05
1.37787e-05
1.37905e-05
1.37884e-05
1.37845e-05
1.37791e-05
1.37723e-05
1.37638e-05
1.37538e-05
1.3742e-05
1.37286e-05
1.3714e-05
1.36988e-05
1.3684e-05
1.36713e-05
1.3663e-05
1.36631e-05
1.36714e-05
1.36842e-05
1.36989e-05
1.3714e-05
1.37286e-05
1.3742e-05
1.37537e-05
1.37638e-05
1.37722e-05
1.3779e-05
1.37843e-05
1.37881e-05
1.37901e-05
1.37783e-05
1.38181e-05
1.38297e-05
1.38273e-05
1.38231e-05
1.38173e-05
1.38098e-05
1.38005e-05
1.37892e-05
1.37759e-05
1.37607e-05
1.37441e-05
1.37268e-05
1.37101e-05
1.36957e-05
1.36864e-05
1.36864e-05
1.36957e-05
1.37102e-05
1.3727e-05
1.37442e-05
1.37608e-05
1.37759e-05
1.37892e-05
1.38005e-05
1.38099e-05
1.38173e-05
1.3823e-05
1.3827e-05
1.38291e-05
1.38176e-05
1.38639e-05
1.38752e-05
1.38727e-05
1.38684e-05
1.38623e-05
1.38543e-05
1.38441e-05
1.38316e-05
1.38168e-05
1.37999e-05
1.37813e-05
1.3762e-05
1.37432e-05
1.37271e-05
1.37166e-05
1.37166e-05
1.3727e-05
1.37433e-05
1.37622e-05
1.37817e-05
1.38003e-05
1.38173e-05
1.3832e-05
1.38445e-05
1.38546e-05
1.38626e-05
1.38685e-05
1.38724e-05
1.38747e-05
1.38635e-05
1.39168e-05
1.39279e-05
1.39253e-05
1.3921e-05
1.39148e-05
1.39065e-05
1.38958e-05
1.38824e-05
1.38663e-05
1.38478e-05
1.38273e-05
1.38058e-05
1.37849e-05
1.3767e-05
1.37554e-05
1.37555e-05
1.37671e-05
1.37851e-05
1.38061e-05
1.38277e-05
1.38483e-05
1.38669e-05
1.3883e-05
1.38964e-05
1.39071e-05
1.39154e-05
1.39213e-05
1.39252e-05
1.39276e-05
1.39166e-05
1.39771e-05
1.39881e-05
1.39857e-05
1.39817e-05
1.39757e-05
1.39675e-05
1.39566e-05
1.39427e-05
1.39258e-05
1.39059e-05
1.38836e-05
1.38602e-05
1.38373e-05
1.38177e-05
1.3805e-05
1.3805e-05
1.38178e-05
1.38374e-05
1.38603e-05
1.38838e-05
1.39061e-05
1.39262e-05
1.39432e-05
1.39571e-05
1.39682e-05
1.39764e-05
1.3982e-05
1.39859e-05
1.39883e-05
1.39774e-05
1.40453e-05
1.40564e-05
1.40544e-05
1.4051e-05
1.40459e-05
1.40384e-05
1.4028e-05
1.40142e-05
1.39968e-05
1.3976e-05
1.39524e-05
1.39274e-05
1.39028e-05
1.38817e-05
1.38679e-05
1.38678e-05
1.38815e-05
1.39026e-05
1.39272e-05
1.39523e-05
1.39759e-05
1.39968e-05
1.40141e-05
1.40281e-05
1.40388e-05
1.40462e-05
1.40513e-05
1.40547e-05
1.40568e-05
1.4046e-05
1.41214e-05
1.41328e-05
1.41315e-05
1.41296e-05
1.4126e-05
1.41201e-05
1.4111e-05
1.40982e-05
1.40813e-05
1.40605e-05
1.40364e-05
1.40104e-05
1.39846e-05
1.39622e-05
1.39475e-05
1.39474e-05
1.3962e-05
1.39843e-05
1.401e-05
1.4036e-05
1.40601e-05
1.40808e-05
1.40977e-05
1.41108e-05
1.412e-05
1.41259e-05
1.41297e-05
1.41318e-05
1.41334e-05
1.4122e-05
1.42049e-05
1.42169e-05
1.42171e-05
1.42174e-05
1.42165e-05
1.42133e-05
1.42069e-05
1.41965e-05
1.41814e-05
1.41618e-05
1.41384e-05
1.41125e-05
1.40864e-05
1.40633e-05
1.40481e-05
1.4048e-05
1.40632e-05
1.40862e-05
1.41123e-05
1.41382e-05
1.41616e-05
1.4181e-05
1.41959e-05
1.42066e-05
1.42129e-05
1.42161e-05
1.42175e-05
1.42174e-05
1.42176e-05
1.42053e-05
1.4295e-05
1.43082e-05
1.43106e-05
1.43143e-05
1.43174e-05
1.43186e-05
1.43167e-05
1.43105e-05
1.42993e-05
1.42827e-05
1.42617e-05
1.42373e-05
1.4212e-05
1.41891e-05
1.41739e-05
1.4174e-05
1.41892e-05
1.42121e-05
1.42374e-05
1.42618e-05
1.42829e-05
1.42991e-05
1.43103e-05
1.43165e-05
1.43181e-05
1.43171e-05
1.43144e-05
1.43111e-05
1.43087e-05
1.42953e-05
1.43906e-05
1.44056e-05
1.44114e-05
1.442e-05
1.44288e-05
1.44365e-05
1.44413e-05
1.44421e-05
1.44374e-05
1.44269e-05
1.44103e-05
1.43893e-05
1.43661e-05
1.43447e-05
1.43304e-05
1.43306e-05
1.4345e-05
1.43664e-05
1.43895e-05
1.44105e-05
1.4427e-05
1.44373e-05
1.44422e-05
1.44412e-05
1.44359e-05
1.44286e-05
1.44201e-05
1.44121e-05
1.44058e-05
1.43908e-05
1.44893e-05
1.45067e-05
1.45173e-05
1.45328e-05
1.45502e-05
1.45671e-05
1.45819e-05
1.4593e-05
1.45985e-05
1.45975e-05
1.45899e-05
1.45759e-05
1.45581e-05
1.45409e-05
1.45297e-05
1.45297e-05
1.4541e-05
1.45581e-05
1.4576e-05
1.459e-05
1.45975e-05
1.45985e-05
1.45932e-05
1.45818e-05
1.45667e-05
1.45502e-05
1.4533e-05
1.45178e-05
1.45068e-05
1.44894e-05
1.45855e-05
1.46069e-05
1.46244e-05
1.46496e-05
1.4679e-05
1.47098e-05
1.47402e-05
1.47678e-05
1.47913e-05
1.48098e-05
1.48255e-05
1.48405e-05
1.48567e-05
1.4873e-05
1.48951e-05
1.4895e-05
1.48729e-05
1.48566e-05
1.48406e-05
1.48257e-05
1.48098e-05
1.47913e-05
1.4768e-05
1.474e-05
1.47096e-05
1.4679e-05
1.46499e-05
1.46247e-05
1.4607e-05
1.45856e-05
1.46866e-05
1.47144e-05
1.47428e-05
1.47833e-05
1.48327e-05
1.48901e-05
1.49564e-05
1.50367e-05
1.51391e-05
1.52812e-05
1.54907e-05
1.58012e-05
1.62211e-05
1.66915e-05
1.71898e-05
1.71889e-05
1.66916e-05
1.62217e-05
1.58027e-05
1.54925e-05
1.52824e-05
1.51399e-05
1.5037e-05
1.49561e-05
1.489e-05
1.48326e-05
1.47834e-05
1.47428e-05
1.47144e-05
1.46867e-05
1.48149e-05
1.48536e-05
1.49048e-05
1.49824e-05
1.50914e-05
1.52556e-05
1.55216e-05
1.59767e-05
1.67591e-05
1.80906e-05
2.03338e-05
2.39074e-05
2.89512e-05
3.47994e-05
4.10493e-05
4.10418e-05
3.48024e-05
2.89649e-05
2.39305e-05
2.03562e-05
1.81053e-05
1.67672e-05
1.59805e-05
1.55226e-05
1.52552e-05
1.50904e-05
1.49817e-05
1.49043e-05
1.4853e-05
1.4814e-05
1.49243e-05
1.49967e-05
1.51478e-05
1.5403e-05
1.58484e-05
1.67166e-05
1.84539e-05
2.18446e-05
2.82813e-05
4.00715e-05
6.14039e-05
9.73203e-05
0.00014897
0.000209031
0.00027238
0.000272353
0.000209071
0.000149195
9.76293e-05
6.1649e-05
4.02131e-05
2.83531e-05
2.18817e-05
1.84677e-05
1.67159e-05
1.58424e-05
1.53973e-05
1.51435e-05
1.49922e-05
1.49176e-05
1.54127e-05
1.56849e-05
1.64598e-05
1.7804e-05
2.03594e-05
2.58012e-05
3.75376e-05
6.17882e-05
0.000110254
0.000200716
0.000363545
0.000626218
0.000974489
0.00134667
0.00171478
0.00171482
0.00134729
0.000976687
0.000629111
0.00036574
0.000201934
0.000110857
6.20948e-05
3.76656e-05
2.58231e-05
2.03427e-05
1.77798e-05
1.64387e-05
1.56561e-05
1.53752e-05
2.00632e-05
2.14384e-05
2.60016e-05
3.3803e-05
4.91661e-05
8.31651e-05
0.000157385
0.000305642
0.000583483
0.00105707
0.0018319
0.00296085
0.00429863
0.00560684
0.00683427
0.00683377
0.00561064
0.00431018
0.0029768
0.00184469
0.00106467
0.0005876
0.000307792
0.00015844
8.3525e-05
4.92364e-05
3.37648e-05
2.59333e-05
2.12918e-05
1.99005e-05
4.55869e-05
5.28427e-05
7.84527e-05
0.000121353
0.000203819
0.000377503
0.00071609
0.00130987
0.00227912
0.00377969
0.00601655
0.00892668
0.0118724
0.0142408
0.0163014
0.0163043
0.0142589
0.0119125
0.00898494
0.00606535
0.00381107
0.00229663
0.00132018
0.000722253
0.000380408
0.000205358
0.000121947
7.84497e-05
5.22774e-05
4.52231e-05
4.82021e-05
5.27109e-05
7.74902e-05
0.000139833
0.000275352
0.000504583
0.000820573
0.00126275
0.00201842
0.00349435
0.00628203
0.0104865
0.0148432
0.0181763
0.0210899
0.0211108
0.0182339
0.0149664
0.0106375
0.00640219
0.00356028
0.00204934
0.00127735
0.000828293
0.000509792
0.000278584
0.000141003
7.77754e-05
5.25619e-05
4.85607e-05
5.1754e-05
5.35511e-05
6.25491e-05
8.58556e-05
0.000152578
0.000334262
0.000725011
0.00137344
0.00226849
0.00335878
0.00481032
0.00674386
0.00897673
0.0108692
0.0123887
0.0123986
0.0108979
0.00902903
0.00680924
0.00486062
0.00339346
0.00229362
0.00139059
0.000736339
0.000339611
0.000154474
8.61981e-05
6.23735e-05
5.29593e-05
5.16708e-05
5.26045e-05
5.357e-05
5.79832e-05
6.58737e-05
8.1269e-05
0.0001207
0.000242331
0.000595222
0.00135118
0.0025156
0.00400223
0.00572899
0.00735606
0.00867873
0.00965767
0.00966883
0.008698
0.00739196
0.0057682
0.00403839
0.00254256
0.00137159
0.000606967
0.000246896
0.000122233
8.18063e-05
6.61197e-05
5.81677e-05
5.36441e-05
5.24761e-05
5.37164e-05
5.37137e-05
5.67528e-05
6.13283e-05
6.72238e-05
7.56052e-05
9.166e-05
0.000140232
0.000326825
0.000882196
0.00198879
0.00359292
0.00535464
0.00689407
0.00812842
0.00813465
0.00690268
0.00537369
0.00361668
0.00200969
0.000896422
0.000333514
0.000142217
9.2178e-05
7.58182e-05
6.73391e-05
6.12571e-05
5.67357e-05
5.37744e-05
5.36008e-05
5.4982e-05
5.41765e-05
5.65535e-05
6.00589e-05
6.41874e-05
6.91005e-05
7.48373e-05
8.28801e-05
0.000100128
0.000160117
0.000377491
0.00103805
0.00221385
0.00368237
0.00515481
0.00515628
0.00368354
0.0022194
0.00104558
0.000381761
0.00016163
0.00010063
8.30266e-05
7.4954e-05
6.91539e-05
6.42659e-05
6.00563e-05
5.64367e-05
5.4195e-05
5.48663e-05
5.60793e-05
5.47108e-05
5.66288e-05
5.9479e-05
6.29222e-05
6.68591e-05
7.13422e-05
7.61666e-05
8.1752e-05
8.94766e-05
0.000106734
0.000165069
0.000332982
0.000743847
0.00152487
0.00152373
0.000743086
0.000333475
0.000165912
0.000107062
8.96323e-05
8.1765e-05
7.62464e-05
7.14218e-05
6.67941e-05
6.30144e-05
5.94483e-05
5.65503e-05
5.46648e-05
5.59988e-05
5.63536e-05
5.46947e-05
5.6189e-05
5.85182e-05
6.14979e-05
6.47942e-05
6.85276e-05
7.24735e-05
7.66846e-05
8.09034e-05
8.51965e-05
9.07984e-05
0.000101649
0.000130906
0.000198181
0.000197987
0.00013077
0.000101684
9.08048e-05
8.52472e-05
8.08576e-05
7.66029e-05
7.2563e-05
6.84751e-05
6.47969e-05
6.15816e-05
5.85555e-05
5.6182e-05
5.46266e-05
5.6303e-05
5.56746e-05
5.38332e-05
5.50279e-05
5.69725e-05
5.93129e-05
6.21933e-05
6.50844e-05
6.83896e-05
7.16283e-05
7.47193e-05
7.75276e-05
7.97946e-05
8.16367e-05
8.35366e-05
8.63571e-05
8.63628e-05
8.35032e-05
8.17118e-05
7.98066e-05
7.75484e-05
7.47402e-05
7.15912e-05
6.84356e-05
6.5103e-05
6.22619e-05
5.94185e-05
5.70198e-05
5.5009e-05
5.38021e-05
5.55912e-05
5.39467e-05
5.21013e-05
5.29911e-05
5.46255e-05
5.65385e-05
5.87121e-05
6.1141e-05
6.36475e-05
6.59912e-05
6.81643e-05
6.9972e-05
7.13321e-05
7.23403e-05
7.28505e-05
7.29966e-05
7.30015e-05
7.28168e-05
7.23416e-05
7.13889e-05
7.00087e-05
6.81865e-05
6.60899e-05
6.36844e-05
6.11401e-05
5.88019e-05
5.65358e-05
5.46393e-05
5.30546e-05
5.21202e-05
5.39375e-05
5.15373e-05
4.97464e-05
5.04731e-05
5.16331e-05
5.31152e-05
5.4748e-05
5.6511e-05
5.82133e-05
5.98291e-05
6.12183e-05
6.2264e-05
6.29957e-05
6.34363e-05
6.3569e-05
6.35041e-05
6.351e-05
6.35944e-05
6.34691e-05
6.30345e-05
6.22797e-05
6.11922e-05
5.98408e-05
5.81485e-05
5.64569e-05
5.4731e-05
5.30737e-05
5.16144e-05
5.04456e-05
4.97552e-05
5.15761e-05
4.85671e-05
4.68193e-05
4.73205e-05
4.81735e-05
4.92283e-05
5.03646e-05
5.15598e-05
5.27003e-05
5.36986e-05
5.44834e-05
5.50318e-05
5.5365e-05
5.54359e-05
5.53392e-05
5.52352e-05
5.52386e-05
5.53495e-05
5.54174e-05
5.53506e-05
5.50714e-05
5.45393e-05
5.37342e-05
5.26852e-05
5.15693e-05
5.0357e-05
4.92087e-05
4.81925e-05
4.73646e-05
4.68762e-05
4.85927e-05
4.53451e-05
4.36734e-05
4.39841e-05
4.45238e-05
4.52909e-05
4.60272e-05
4.6772e-05
4.74429e-05
4.79567e-05
4.82939e-05
4.84376e-05
4.83867e-05
4.81981e-05
4.79783e-05
4.78386e-05
4.78295e-05
4.7994e-05
4.82342e-05
4.84163e-05
4.84755e-05
4.83581e-05
4.79875e-05
4.74304e-05
4.67578e-05
4.60078e-05
4.52676e-05
4.4589e-05
4.40067e-05
4.36834e-05
4.52702e-05
4.18018e-05
4.03568e-05
4.05575e-05
4.09816e-05
4.13908e-05
4.18308e-05
4.22359e-05
4.25482e-05
4.2714e-05
4.27103e-05
4.25192e-05
4.22036e-05
4.18434e-05
4.14991e-05
4.1264e-05
4.125e-05
4.14821e-05
4.18378e-05
4.22175e-05
4.25434e-05
4.27481e-05
4.27365e-05
4.25436e-05
4.221e-05
4.18135e-05
4.13979e-05
4.09755e-05
4.0588e-05
4.04067e-05
4.18452e-05
3.84571e-05
3.71531e-05
3.72387e-05
3.74857e-05
3.76984e-05
3.79503e-05
3.80782e-05
3.80939e-05
3.80063e-05
3.77756e-05
3.73932e-05
3.69081e-05
3.63937e-05
3.59494e-05
3.56812e-05
3.56847e-05
3.59518e-05
3.63826e-05
3.68962e-05
3.74024e-05
3.78146e-05
3.80513e-05
3.81218e-05
3.80669e-05
3.79245e-05
3.7723e-05
3.74903e-05
3.72743e-05
3.72083e-05
3.84819e-05
3.52378e-05
3.41308e-05
3.41632e-05
3.42325e-05
3.43419e-05
3.43675e-05
3.43241e-05
3.42204e-05
3.39748e-05
3.35494e-05
3.30054e-05
3.24186e-05
3.18474e-05
3.13683e-05
3.10879e-05
3.10909e-05
3.13649e-05
3.1829e-05
3.2403e-05
3.30135e-05
3.35616e-05
3.39767e-05
3.42342e-05
3.43511e-05
3.43667e-05
3.43259e-05
3.42512e-05
3.41656e-05
3.41725e-05
3.52916e-05
3.23212e-05
3.13179e-05
3.12879e-05
3.1295e-05
3.13121e-05
3.12177e-05
3.10766e-05
3.08246e-05
3.04248e-05
2.99201e-05
2.93461e-05
2.87263e-05
2.81134e-05
2.76068e-05
2.73169e-05
2.73159e-05
2.75964e-05
2.80889e-05
2.87041e-05
2.93629e-05
2.99671e-05
3.04591e-05
3.08216e-05
3.1068e-05
3.12194e-05
3.12971e-05
3.13196e-05
3.13028e-05
3.13433e-05
3.23186e-05
2.96298e-05
2.87807e-05
2.8711e-05
2.86899e-05
2.8584e-05
2.8434e-05
2.82395e-05
2.79215e-05
2.7485e-05
2.69604e-05
2.63511e-05
2.56932e-05
2.50733e-05
2.45852e-05
2.43133e-05
2.43152e-05
2.45905e-05
2.5076e-05
2.56841e-05
2.63352e-05
2.69515e-05
2.74877e-05
2.79224e-05
2.82516e-05
2.84769e-05
2.86117e-05
2.86794e-05
2.87076e-05
2.87788e-05
2.96258e-05
2.72191e-05
2.65119e-05
2.64171e-05
2.63592e-05
2.62275e-05
2.60789e-05
2.58252e-05
2.54592e-05
2.50141e-05
2.44845e-05
2.38742e-05
2.32344e-05
2.26501e-05
2.2189e-05
2.19231e-05
2.19177e-05
2.21825e-05
2.26562e-05
2.32503e-05
2.38824e-05
2.44853e-05
2.50202e-05
2.54677e-05
2.58198e-05
2.60765e-05
2.62477e-05
2.63546e-05
2.64229e-05
2.65148e-05
2.72373e-05
2.51436e-05
2.45298e-05
2.44429e-05
2.43556e-05
2.4226e-05
2.40353e-05
2.37437e-05
2.33893e-05
2.29651e-05
2.24517e-05
2.18725e-05
2.12807e-05
2.07395e-05
2.03062e-05
2.00535e-05
2.00516e-05
2.03075e-05
2.07559e-05
2.13084e-05
2.18891e-05
2.24457e-05
2.29511e-05
2.33892e-05
2.37487e-05
2.40246e-05
2.42218e-05
2.43539e-05
2.44409e-05
2.45371e-05
2.51455e-05
2.33135e-05
2.27942e-05
2.27227e-05
2.26347e-05
2.25149e-05
2.23e-05
2.20221e-05
2.16911e-05
2.12803e-05
2.07959e-05
2.02697e-05
1.97382e-05
1.92403e-05
1.88322e-05
1.8592e-05
1.85876e-05
1.88217e-05
1.92294e-05
1.97291e-05
2.0258e-05
2.07743e-05
2.12527e-05
2.16734e-05
2.20222e-05
2.22941e-05
2.24944e-05
2.26346e-05
2.27287e-05
2.2825e-05
2.33348e-05
2.17428e-05
2.13144e-05
2.12599e-05
2.11734e-05
2.10319e-05
2.08196e-05
2.05677e-05
2.02532e-05
1.98711e-05
1.94389e-05
1.89728e-05
1.84913e-05
1.80291e-05
1.76505e-05
1.74326e-05
1.74345e-05
1.76528e-05
1.80246e-05
1.84779e-05
1.89588e-05
1.94317e-05
1.98698e-05
2.0254e-05
2.05736e-05
2.08277e-05
2.10223e-05
2.1166e-05
2.12675e-05
2.13597e-05
2.17796e-05
2.04072e-05
2.00832e-05
2.00148e-05
1.9923e-05
1.97729e-05
1.95871e-05
1.93548e-05
1.90632e-05
1.8724e-05
1.83448e-05
1.79288e-05
1.74939e-05
1.70796e-05
1.6748e-05
1.6561e-05
1.65684e-05
1.67641e-05
1.70909e-05
1.74914e-05
1.79174e-05
1.83387e-05
1.87296e-05
1.90741e-05
1.93644e-05
1.96004e-05
1.97862e-05
1.99267e-05
2.00265e-05
2.01089e-05
2.04466e-05
1.92861e-05
1.90515e-05
1.89628e-05
1.88682e-05
1.87355e-05
1.85724e-05
1.83586e-05
1.81008e-05
1.78042e-05
1.74668e-05
1.70944e-05
1.67103e-05
1.635e-05
1.60607e-05
1.58937e-05
1.58949e-05
1.60614e-05
1.63461e-05
1.66989e-05
1.70779e-05
1.74529e-05
1.78007e-05
1.81076e-05
1.83676e-05
1.85803e-05
1.87484e-05
1.88757e-05
1.89656e-05
1.90375e-05
1.93093e-05
1.83631e-05
1.81487e-05
1.80669e-05
1.79746e-05
1.7862e-05
1.77146e-05
1.75286e-05
1.73068e-05
1.70444e-05
1.67427e-05
1.64153e-05
1.6083e-05
1.57711e-05
1.55138e-05
1.53602e-05
1.53577e-05
1.55068e-05
1.57634e-05
1.6079e-05
1.64153e-05
1.6744e-05
1.70461e-05
1.73116e-05
1.75368e-05
1.7722e-05
1.78695e-05
1.79822e-05
1.8063e-05
1.81278e-05
1.83493e-05
1.75689e-05
1.73725e-05
1.73092e-05
1.72268e-05
1.71277e-05
1.69981e-05
1.68394e-05
1.66449e-05
1.64122e-05
1.61501e-05
1.58714e-05
1.5588e-05
1.53176e-05
1.50907e-05
1.49538e-05
1.49537e-05
1.50904e-05
1.53191e-05
1.55948e-05
1.58839e-05
1.61635e-05
1.64203e-05
1.66473e-05
1.68419e-05
1.70039e-05
1.71343e-05
1.72349e-05
1.73083e-05
1.73666e-05
1.75448e-05
1.68767e-05
1.67358e-05
1.66791e-05
1.66137e-05
1.65267e-05
1.64151e-05
1.62747e-05
1.61016e-05
1.59003e-05
1.5679e-05
1.54434e-05
1.52002e-05
1.49653e-05
1.47674e-05
1.46481e-05
1.46492e-05
1.47694e-05
1.49668e-05
1.5202e-05
1.54472e-05
1.56854e-05
1.5906e-05
1.6103e-05
1.62728e-05
1.64144e-05
1.65281e-05
1.66158e-05
1.66799e-05
1.67298e-05
1.687e-05
1.63091e-05
1.62061e-05
1.61582e-05
1.61064e-05
1.60299e-05
1.59301e-05
1.58048e-05
1.56561e-05
1.54878e-05
1.53018e-05
1.50997e-05
1.48892e-05
1.4686e-05
1.45147e-05
1.44108e-05
1.44115e-05
1.45158e-05
1.46858e-05
1.48874e-05
1.50981e-05
1.53034e-05
1.54935e-05
1.56624e-05
1.58071e-05
1.59267e-05
1.60223e-05
1.60965e-05
1.61516e-05
1.61943e-05
1.63043e-05
1.58451e-05
1.57545e-05
1.57229e-05
1.56742e-05
1.56047e-05
1.55159e-05
1.54107e-05
1.52895e-05
1.51508e-05
1.49932e-05
1.48202e-05
1.46409e-05
1.44689e-05
1.43232e-05
1.42328e-05
1.42325e-05
1.43234e-05
1.44708e-05
1.46441e-05
1.48239e-05
1.49973e-05
1.51564e-05
1.52966e-05
1.54162e-05
1.55153e-05
1.55959e-05
1.56601e-05
1.57093e-05
1.57475e-05
1.58344e-05
1.54475e-05
1.5383e-05
1.53557e-05
1.53087e-05
1.52476e-05
1.51747e-05
1.50899e-05
1.49902e-05
1.48735e-05
1.47403e-05
1.45955e-05
1.44467e-05
1.43034e-05
1.41794e-05
1.40989e-05
1.4097e-05
1.41764e-05
1.43036e-05
1.4451e-05
1.4601e-05
1.47439e-05
1.48745e-05
1.49902e-05
1.50899e-05
1.51743e-05
1.52447e-05
1.53022e-05
1.53466e-05
1.53798e-05
1.54455e-05
1.51191e-05
1.50831e-05
1.5052e-05
1.50128e-05
1.49642e-05
1.49057e-05
1.48337e-05
1.47474e-05
1.46474e-05
1.45359e-05
1.44165e-05
1.42938e-05
1.41734e-05
1.40656e-05
1.3993e-05
1.39909e-05
1.40609e-05
1.417e-05
1.42938e-05
1.44185e-05
1.45369e-05
1.46458e-05
1.47434e-05
1.48288e-05
1.49021e-05
1.49636e-05