/*--------------------------------*- C++ -*----------------------------------*\
| =========                 |                                                 |
| \\      /  F ield         | OpenFOAM: The Open Source CFD Toolbox           |
|  \\    /   O peration     | Version:  2312                                  |
|   \\  /    A nd           | Website:  www.openfoam.com                      |
|    \\/     M anipulation  |                                                 |
\*---------------------------------------------------------------------------*/
FoamFile
{
    version     2.0;
    format      ascii;
    arch        "LSB;label=32;scalar=64";
    class       volScalarField;
    location    "0.46258";
    object      k;
}
// * * * * * * * * * * * * * * * * * * * * * * * * * * * * * * * * * * * * * //

dimensions      [0 2 -2 0 0 0 0];

internalField   nonuniform List<scalar> 
90000
(
3.02528e-05
3.02537e-05
3.02537e-05
3.02538e-05
3.02538e-05
3.02538e-05
3.02538e-05
3.02537e-05
3.02536e-05
3.02536e-05
3.02536e-05
3.02536e-05
3.02536e-05
3.02536e-05
3.02536e-05
3.02536e-05
3.02537e-05
3.02538e-05
3.02538e-05
3.02537e-05
3.02536e-05
3.02534e-05
3.02536e-05
3.02538e-05
3.0254e-05
3.02541e-05
3.0254e-05
3.02538e-05
3.02535e-05
3.0253e-05
3.02537e-05
3.02769e-05
3.02777e-05
3.02776e-05
3.02776e-05
3.02776e-05
3.02776e-05
3.02776e-05
3.02776e-05
3.02776e-05
3.02777e-05
3.02777e-05
3.02777e-05
3.02777e-05
3.02777e-05
3.02776e-05
3.02776e-05
3.02775e-05
3.02774e-05
3.02774e-05
3.02774e-05
3.02774e-05
3.02774e-05
3.02773e-05
3.02772e-05
3.02771e-05
3.02772e-05
3.02774e-05
3.02767e-05
3.02539e-05
3.02537e-05
3.02779e-05
3.02787e-05
3.02787e-05
3.02787e-05
3.02787e-05
3.02786e-05
3.02787e-05
3.02787e-05
3.02787e-05
3.02787e-05
3.02786e-05
3.02786e-05
3.02786e-05
3.02786e-05
3.02785e-05
3.02784e-05
3.02784e-05
3.02786e-05
3.02786e-05
3.02787e-05
3.02786e-05
3.02786e-05
3.02785e-05
3.02786e-05
3.02788e-05
3.0279e-05
3.02791e-05
3.02781e-05
3.02541e-05
3.02539e-05
3.02781e-05
3.0279e-05
3.0279e-05
3.0279e-05
3.0279e-05
3.0279e-05
3.02789e-05
3.02789e-05
3.02789e-05
3.02788e-05
3.02788e-05
3.02788e-05
3.02787e-05
3.02786e-05
3.02784e-05
3.02785e-05
3.02787e-05
3.02788e-05
3.02789e-05
3.02789e-05
3.02789e-05
3.02789e-05
3.02791e-05
3.02793e-05
3.02795e-05
3.02794e-05
3.02793e-05
3.0278e-05
3.02541e-05
3.02541e-05
3.02784e-05
3.02793e-05
3.02794e-05
3.02794e-05
3.02793e-05
3.02793e-05
3.02792e-05
3.02791e-05
3.0279e-05
3.02789e-05
3.02788e-05
3.02787e-05
3.02786e-05
3.02784e-05
3.02784e-05
3.02785e-05
3.02787e-05
3.02788e-05
3.02789e-05
3.02789e-05
3.02789e-05
3.02791e-05
3.02794e-05
3.02795e-05
3.02795e-05
3.02794e-05
3.02791e-05
3.02781e-05
3.02542e-05
3.02545e-05
3.02788e-05
3.02797e-05
3.02797e-05
3.02796e-05
3.02796e-05
3.02795e-05
3.02793e-05
3.02792e-05
3.0279e-05
3.02789e-05
3.02787e-05
3.02785e-05
3.02784e-05
3.02784e-05
3.02784e-05
3.02784e-05
3.02785e-05
3.02786e-05
3.02787e-05
3.02788e-05
3.02791e-05
3.02793e-05
3.02794e-05
3.02793e-05
3.02792e-05
3.02791e-05
3.02792e-05
3.02784e-05
3.02543e-05
3.02549e-05
3.02792e-05
3.028e-05
3.02799e-05
3.02798e-05
3.02797e-05
3.02796e-05
3.02795e-05
3.02793e-05
3.02791e-05
3.02788e-05
3.02785e-05
3.02783e-05
3.02783e-05
3.02783e-05
3.02782e-05
3.02783e-05
3.02783e-05
3.02785e-05
3.02787e-05
3.0279e-05
3.02792e-05
3.02793e-05
3.02793e-05
3.02792e-05
3.02793e-05
3.02794e-05
3.02794e-05
3.02785e-05
3.02543e-05
3.02552e-05
3.02795e-05
3.02802e-05
3.02801e-05
3.028e-05
3.02799e-05
3.02798e-05
3.02796e-05
3.02794e-05
3.02791e-05
3.02788e-05
3.02784e-05
3.02782e-05
3.02782e-05
3.02782e-05
3.02782e-05
3.02783e-05
3.02784e-05
3.02787e-05
3.0279e-05
3.02793e-05
3.02794e-05
3.02794e-05
3.02794e-05
3.02794e-05
3.02795e-05
3.02795e-05
3.02795e-05
3.02785e-05
3.02545e-05
3.02554e-05
3.02797e-05
3.02804e-05
3.02802e-05
3.02801e-05
3.028e-05
3.02799e-05
3.02798e-05
3.02796e-05
3.02793e-05
3.0279e-05
3.02786e-05
3.02783e-05
3.02782e-05
3.02782e-05
3.02784e-05
3.02786e-05
3.02789e-05
3.02792e-05
3.02795e-05
3.02796e-05
3.02797e-05
3.02797e-05
3.02797e-05
3.02797e-05
3.02797e-05
3.02797e-05
3.02797e-05
3.02788e-05
3.0255e-05
3.02555e-05
3.02799e-05
3.02806e-05
3.02804e-05
3.02803e-05
3.02802e-05
3.02801e-05
3.028e-05
3.02798e-05
3.02795e-05
3.02793e-05
3.0279e-05
3.02786e-05
3.02784e-05
3.02784e-05
3.02787e-05
3.02791e-05
3.02795e-05
3.02798e-05
3.028e-05
3.02801e-05
3.02801e-05
3.02801e-05
3.028e-05
3.028e-05
3.028e-05
3.02801e-05
3.02801e-05
3.02793e-05
3.02557e-05
3.02556e-05
3.02802e-05
3.02809e-05
3.02808e-05
3.02807e-05
3.02806e-05
3.02804e-05
3.02802e-05
3.02799e-05
3.02797e-05
3.02796e-05
3.02793e-05
3.02791e-05
3.02788e-05
3.02786e-05
3.02789e-05
3.02794e-05
3.02799e-05
3.02802e-05
3.02804e-05
3.02805e-05
3.02805e-05
3.02805e-05
3.02804e-05
3.02804e-05
3.02805e-05
3.02807e-05
3.02808e-05
3.028e-05
3.02563e-05
3.02561e-05
3.02809e-05
3.02815e-05
3.02815e-05
3.02813e-05
3.02811e-05
3.02808e-05
3.02804e-05
3.02801e-05
3.02799e-05
3.02798e-05
3.02797e-05
3.02795e-05
3.02791e-05
3.02787e-05
3.02789e-05
3.02794e-05
3.02799e-05
3.02803e-05
3.02805e-05
3.02807e-05
3.02807e-05
3.02808e-05
3.02809e-05
3.0281e-05
3.02812e-05
3.02814e-05
3.02815e-05
3.02807e-05
3.02568e-05
3.02571e-05
3.02818e-05
3.02824e-05
3.02823e-05
3.02821e-05
3.02818e-05
3.02814e-05
3.02809e-05
3.02805e-05
3.02802e-05
3.02801e-05
3.028e-05
3.02797e-05
3.02793e-05
3.02789e-05
3.02788e-05
3.02792e-05
3.02797e-05
3.02801e-05
3.02804e-05
3.02807e-05
3.0281e-05
3.02813e-05
3.02815e-05
3.02818e-05
3.0282e-05
3.02821e-05
3.02822e-05
3.02813e-05
3.02574e-05
3.02587e-05
3.02828e-05
3.02835e-05
3.02833e-05
3.02829e-05
3.02825e-05
3.0282e-05
3.02816e-05
3.02811e-05
3.02808e-05
3.02805e-05
3.02802e-05
3.02799e-05
3.02795e-05
3.0279e-05
3.02788e-05
3.0279e-05
3.02793e-05
3.02798e-05
3.02803e-05
3.02808e-05
3.02814e-05
3.02819e-05
3.02823e-05
3.02826e-05
3.02828e-05
3.0283e-05
3.0283e-05
3.02821e-05
3.02581e-05
3.02607e-05
3.02838e-05
3.02845e-05
3.02842e-05
3.02837e-05
3.02832e-05
3.02827e-05
3.02822e-05
3.02818e-05
3.02814e-05
3.02809e-05
3.02804e-05
3.02799e-05
3.02794e-05
3.0279e-05
3.02788e-05
3.02789e-05
3.02791e-05
3.02797e-05
3.02805e-05
3.02813e-05
3.02821e-05
3.02828e-05
3.02833e-05
3.02836e-05
3.02839e-05
3.0284e-05
3.0284e-05
3.0283e-05
3.02591e-05
3.02625e-05
3.02848e-05
3.02855e-05
3.02851e-05
3.02846e-05
3.02841e-05
3.02836e-05
3.02831e-05
3.02827e-05
3.02822e-05
3.02815e-05
3.02807e-05
3.02799e-05
3.02794e-05
3.02789e-05
3.02788e-05
3.02789e-05
3.02793e-05
3.028e-05
3.0281e-05
3.0282e-05
3.0283e-05
3.02838e-05
3.02844e-05
3.02848e-05
3.0285e-05
3.02852e-05
3.02852e-05
3.02842e-05
3.02604e-05
3.02642e-05
3.02859e-05
3.02867e-05
3.02863e-05
3.02858e-05
3.02854e-05
3.02849e-05
3.02845e-05
3.02839e-05
3.02831e-05
3.02821e-05
3.0281e-05
3.02801e-05
3.02793e-05
3.02788e-05
3.02787e-05
3.0279e-05
3.02797e-05
3.02807e-05
3.02818e-05
3.0283e-05
3.02841e-05
3.0285e-05
3.02857e-05
3.02862e-05
3.02865e-05
3.02867e-05
3.02867e-05
3.02859e-05
3.02624e-05
3.02657e-05
3.02875e-05
3.02883e-05
3.0288e-05
3.02876e-05
3.02873e-05
3.02868e-05
3.02862e-05
3.02854e-05
3.02842e-05
3.0283e-05
3.02816e-05
3.02805e-05
3.02796e-05
3.02789e-05
3.02787e-05
3.02793e-05
3.02804e-05
3.02816e-05
3.0283e-05
3.02844e-05
3.02855e-05
3.02865e-05
3.02873e-05
3.02879e-05
3.02884e-05
3.02887e-05
3.02889e-05
3.02882e-05
3.0265e-05
3.02677e-05
3.02896e-05
3.02906e-05
3.02903e-05
3.02901e-05
3.02897e-05
3.02891e-05
3.02883e-05
3.02871e-05
3.02857e-05
3.02842e-05
3.02827e-05
3.02813e-05
3.02801e-05
3.02792e-05
3.02791e-05
3.028e-05
3.02814e-05
3.0283e-05
3.02845e-05
3.0286e-05
3.02873e-05
3.02884e-05
3.02893e-05
3.02901e-05
3.02908e-05
3.02913e-05
3.02917e-05
3.02912e-05
3.0268e-05
3.02703e-05
3.02925e-05
3.02935e-05
3.02933e-05
3.0293e-05
3.02925e-05
3.02918e-05
3.02907e-05
3.02893e-05
3.02877e-05
3.0286e-05
3.02842e-05
3.02825e-05
3.0281e-05
3.02798e-05
3.02797e-05
3.0281e-05
3.02827e-05
3.02845e-05
3.02863e-05
3.02878e-05
3.02893e-05
3.02905e-05
3.02917e-05
3.02928e-05
3.02937e-05
3.02944e-05
3.0295e-05
3.02944e-05
3.0271e-05
3.02737e-05
3.02962e-05
3.02971e-05
3.02969e-05
3.02966e-05
3.0296e-05
3.02951e-05
3.02938e-05
3.02921e-05
3.02903e-05
3.02882e-05
3.02861e-05
3.0284e-05
3.0282e-05
3.02805e-05
3.02805e-05
3.02822e-05
3.02842e-05
3.02862e-05
3.02881e-05
3.02899e-05
3.02915e-05
3.02931e-05
3.02946e-05
3.02959e-05
3.02971e-05
3.0298e-05
3.02985e-05
3.02978e-05
3.02743e-05
3.02781e-05
3.03008e-05
3.03017e-05
3.03015e-05
3.03011e-05
3.03003e-05
3.02991e-05
3.02975e-05
3.02955e-05
3.02933e-05
3.02908e-05
3.02882e-05
3.02856e-05
3.0283e-05
3.02812e-05
3.02814e-05
3.02833e-05
3.02857e-05
3.0288e-05
3.02902e-05
3.02923e-05
3.02944e-05
3.02964e-05
3.02983e-05
3.03e-05
3.03014e-05
3.03023e-05
3.03027e-05
3.03019e-05
3.02788e-05
3.02838e-05
3.03069e-05
3.03077e-05
3.03074e-05
3.03067e-05
3.03056e-05
3.03039e-05
3.03018e-05
3.02994e-05
3.02966e-05
3.02936e-05
3.02905e-05
3.02872e-05
3.02843e-05
3.02822e-05
3.02825e-05
3.02848e-05
3.02876e-05
3.02904e-05
3.02931e-05
3.02957e-05
3.02983e-05
3.03009e-05
3.03033e-05
3.03053e-05
3.03069e-05
3.03078e-05
3.03083e-05
3.03078e-05
3.02851e-05
3.02912e-05
3.03146e-05
3.03153e-05
3.03147e-05
3.03136e-05
3.03119e-05
3.03097e-05
3.0307e-05
3.03039e-05
3.03006e-05
3.02969e-05
3.02932e-05
3.02894e-05
3.02861e-05
3.02837e-05
3.02841e-05
3.02867e-05
3.02901e-05
3.02935e-05
3.02969e-05
3.03003e-05
3.03036e-05
3.03068e-05
3.03096e-05
3.03119e-05
3.03135e-05
3.03147e-05
3.03156e-05
3.03155e-05
3.0293e-05
3.03004e-05
3.03241e-05
3.03244e-05
3.03234e-05
3.03217e-05
3.03194e-05
3.03165e-05
3.03132e-05
3.03095e-05
3.03055e-05
3.03012e-05
3.02969e-05
3.02926e-05
3.02887e-05
3.0286e-05
3.02863e-05
3.02894e-05
3.02934e-05
3.02975e-05
3.03018e-05
3.0306e-05
3.031e-05
3.03137e-05
3.03169e-05
3.03194e-05
3.03214e-05
3.03231e-05
3.03246e-05
3.03248e-05
3.0302e-05
3.03118e-05
3.03352e-05
3.03351e-05
3.03335e-05
3.03312e-05
3.03283e-05
3.03249e-05
3.0321e-05
3.03167e-05
3.03119e-05
3.0307e-05
3.03019e-05
3.02969e-05
3.02923e-05
3.02889e-05
3.0289e-05
3.02925e-05
3.02972e-05
3.03023e-05
3.03075e-05
3.03126e-05
3.03174e-05
3.03217e-05
3.03253e-05
3.03283e-05
3.03309e-05
3.03333e-05
3.03352e-05
3.03355e-05
3.03125e-05
3.03252e-05
3.0348e-05
3.03475e-05
3.03454e-05
3.03427e-05
3.03393e-05
3.03354e-05
3.03308e-05
3.03257e-05
3.03201e-05
3.03142e-05
3.03081e-05
3.03021e-05
3.02964e-05
3.02922e-05
3.02921e-05
3.02961e-05
3.03017e-05
3.0308e-05
3.03144e-05
3.03206e-05
3.03262e-05
3.03312e-05
3.03354e-05
3.03392e-05
3.03427e-05
3.03457e-05
3.03478e-05
3.03482e-05
3.03254e-05
3.03409e-05
3.0363e-05
3.03622e-05
3.03598e-05
3.03567e-05
3.03529e-05
3.03483e-05
3.03428e-05
3.03366e-05
3.03299e-05
3.03228e-05
3.03155e-05
3.03081e-05
3.03011e-05
3.02961e-05
3.02959e-05
3.03007e-05
3.03076e-05
3.03153e-05
3.0323e-05
3.03304e-05
3.03369e-05
3.03428e-05
3.0348e-05
3.03528e-05
3.03571e-05
3.03605e-05
3.03627e-05
3.03633e-05
3.0341e-05
3.03594e-05
3.03811e-05
3.03801e-05
3.03774e-05
3.03738e-05
3.03693e-05
3.03637e-05
3.03571e-05
3.03498e-05
3.03418e-05
3.03333e-05
3.03244e-05
3.03155e-05
3.03072e-05
3.03014e-05
3.03013e-05
3.03069e-05
3.03153e-05
3.03245e-05
3.03336e-05
3.03422e-05
3.03499e-05
3.0357e-05
3.03635e-05
3.03693e-05
3.03742e-05
3.03778e-05
3.03804e-05
3.03815e-05
3.03595e-05
3.03815e-05
3.04029e-05
3.04017e-05
3.03986e-05
3.03943e-05
3.03889e-05
3.03822e-05
3.03744e-05
3.03657e-05
3.03563e-05
3.03462e-05
3.03356e-05
3.03249e-05
3.03152e-05
3.03085e-05
3.03085e-05
3.03151e-05
3.03249e-05
3.03357e-05
3.03464e-05
3.03565e-05
3.03658e-05
3.03744e-05
3.03822e-05
3.0389e-05
3.03944e-05
3.03987e-05
3.04019e-05
3.04033e-05
3.03817e-05
3.04081e-05
3.04293e-05
3.04277e-05
3.0424e-05
3.04189e-05
3.04124e-05
3.04045e-05
3.03955e-05
3.03853e-05
3.03742e-05
3.03622e-05
3.03495e-05
3.03368e-05
3.03255e-05
3.03178e-05
3.03178e-05
3.03256e-05
3.03369e-05
3.03495e-05
3.03621e-05
3.03741e-05
3.03854e-05
3.03958e-05
3.0405e-05
3.04127e-05
3.04189e-05
3.0424e-05
3.04279e-05
3.04295e-05
3.04084e-05
3.04399e-05
3.04608e-05
3.04587e-05
3.04543e-05
3.04484e-05
3.04408e-05
3.04317e-05
3.04211e-05
3.04093e-05
3.03962e-05
3.03819e-05
3.03668e-05
3.03519e-05
3.03387e-05
3.033e-05
3.03302e-05
3.03391e-05
3.03522e-05
3.03669e-05
3.03817e-05
3.03961e-05
3.04095e-05
3.04217e-05
3.04322e-05
3.04411e-05
3.04484e-05
3.04544e-05
3.04588e-05
3.04609e-05
3.04402e-05
3.04777e-05
3.04981e-05
3.04956e-05
3.04906e-05
3.04837e-05
3.04749e-05
3.04645e-05
3.04523e-05
3.04385e-05
3.04231e-05
3.04062e-05
3.03885e-05
3.03712e-05
3.0356e-05
3.03462e-05
3.03463e-05
3.03564e-05
3.03715e-05
3.03885e-05
3.0406e-05
3.0423e-05
3.04387e-05
3.04527e-05
3.04649e-05
3.04752e-05
3.04837e-05
3.04906e-05
3.04956e-05
3.04982e-05
3.04777e-05
3.05225e-05
3.05425e-05
3.05395e-05
3.05338e-05
3.05259e-05
3.05159e-05
3.0504e-05
3.049e-05
3.0474e-05
3.04559e-05
3.04362e-05
3.04157e-05
3.03957e-05
3.03783e-05
3.03671e-05
3.03672e-05
3.03785e-05
3.03958e-05
3.04156e-05
3.0436e-05
3.04557e-05
3.04739e-05
3.04901e-05
3.05042e-05
3.05161e-05
3.05259e-05
3.05336e-05
3.05393e-05
3.05422e-05
3.05224e-05
3.05754e-05
3.05949e-05
3.05914e-05
3.0585e-05
3.05762e-05
3.0565e-05
3.05515e-05
3.05356e-05
3.05171e-05
3.04961e-05
3.04733e-05
3.04497e-05
3.04267e-05
3.0407e-05
3.03942e-05
3.03942e-05
3.0407e-05
3.04268e-05
3.04497e-05
3.04733e-05
3.0496e-05
3.05169e-05
3.05355e-05
3.05516e-05
3.05652e-05
3.05761e-05
3.05847e-05
3.0591e-05
3.05942e-05
3.05751e-05
3.06376e-05
3.06566e-05
3.06525e-05
3.06455e-05
3.06358e-05
3.06235e-05
3.06084e-05
3.05904e-05
3.05692e-05
3.05453e-05
3.05192e-05
3.04922e-05
3.04662e-05
3.04438e-05
3.04294e-05
3.04293e-05
3.04438e-05
3.04663e-05
3.04925e-05
3.05194e-05
3.05453e-05
3.05692e-05
3.05904e-05
3.06086e-05
3.06237e-05
3.06359e-05
3.06454e-05
3.0652e-05
3.06557e-05
3.0637e-05
3.07102e-05
3.07286e-05
3.07241e-05
3.07166e-05
3.07063e-05
3.0693e-05
3.06763e-05
3.06561e-05
3.06323e-05
3.06053e-05
3.05759e-05
3.05456e-05
3.05163e-05
3.04912e-05
3.04749e-05
3.04748e-05
3.04911e-05
3.05165e-05
3.05461e-05
3.05765e-05
3.06059e-05
3.06328e-05
3.06566e-05
3.06768e-05
3.06934e-05
3.07067e-05
3.07168e-05
3.07237e-05
3.07279e-05
3.07096e-05
3.07944e-05
3.08123e-05
3.08076e-05
3.07999e-05
3.07891e-05
3.07749e-05
3.07569e-05
3.07347e-05
3.07085e-05
3.06787e-05
3.06462e-05
3.06123e-05
3.05796e-05
3.05515e-05
3.05334e-05
3.05334e-05
3.05516e-05
3.05798e-05
3.06128e-05
3.06468e-05
3.06795e-05
3.07095e-05
3.07356e-05
3.07576e-05
3.07756e-05
3.07899e-05
3.08002e-05
3.08075e-05
3.0812e-05
3.07941e-05
3.08913e-05
3.09091e-05
3.09042e-05
3.08966e-05
3.08857e-05
3.0871e-05
3.0852e-05
3.08285e-05
3.08004e-05
3.0768e-05
3.07323e-05
3.0695e-05
3.06588e-05
3.06279e-05
3.06081e-05
3.06081e-05
3.0628e-05
3.06589e-05
3.06951e-05
3.07324e-05
3.07684e-05
3.0801e-05
3.08292e-05
3.08527e-05
3.08719e-05
3.08865e-05
3.0897e-05
3.09045e-05
3.09092e-05
3.08917e-05
3.10019e-05
3.10198e-05
3.10151e-05
3.1008e-05
3.09976e-05
3.09832e-05
3.09642e-05
3.09401e-05
3.09106e-05
3.0876e-05
3.08374e-05
3.0797e-05
3.07578e-05
3.07242e-05
3.07025e-05
3.07024e-05
3.07239e-05
3.07573e-05
3.07967e-05
3.08371e-05
3.08758e-05
3.09104e-05
3.09401e-05
3.09645e-05
3.09839e-05
3.0998e-05
3.10084e-05
3.10156e-05
3.10204e-05
3.1003e-05
3.11269e-05
3.11452e-05
3.11411e-05
3.11353e-05
3.11265e-05
3.11136e-05
3.10956e-05
3.10718e-05
3.10418e-05
3.10061e-05
3.09658e-05
3.09231e-05
3.08813e-05
3.08452e-05
3.08219e-05
3.08217e-05
3.08448e-05
3.08806e-05
3.09225e-05
3.09651e-05
3.10056e-05
3.1041e-05
3.10711e-05
3.10954e-05
3.11136e-05
3.11265e-05
3.11357e-05
3.11414e-05
3.11461e-05
3.11279e-05
3.12663e-05
3.12855e-05
3.12827e-05
3.12796e-05
3.12737e-05
3.12638e-05
3.12484e-05
3.12266e-05
3.11978e-05
3.11624e-05
3.11217e-05
3.10779e-05
3.10346e-05
3.09968e-05
3.09722e-05
3.09722e-05
3.09965e-05
3.10341e-05
3.10775e-05
3.11212e-05
3.11621e-05
3.11972e-05
3.12258e-05
3.1248e-05
3.12632e-05
3.12734e-05
3.12797e-05
3.12831e-05
3.12864e-05
3.12669e-05
3.14199e-05
3.14407e-05
3.14405e-05
3.14414e-05
3.14403e-05
3.14353e-05
3.14248e-05
3.14074e-05
3.13822e-05
3.13494e-05
3.13101e-05
3.12668e-05
3.12232e-05
3.11847e-05
3.11597e-05
3.11598e-05
3.1185e-05
3.12234e-05
3.1267e-05
3.13103e-05
3.13495e-05
3.13821e-05
3.1407e-05
3.14245e-05
3.14346e-05
3.14399e-05
3.14416e-05
3.14413e-05
3.14415e-05
3.14201e-05
3.1587e-05
3.16106e-05
3.16145e-05
3.16216e-05
3.16275e-05
3.16301e-05
3.16274e-05
3.16178e-05
3.15996e-05
3.15728e-05
3.15376e-05
3.14967e-05
3.14542e-05
3.14164e-05
3.13918e-05
3.13922e-05
3.14169e-05
3.14546e-05
3.14968e-05
3.15379e-05
3.15729e-05
3.15994e-05
3.16177e-05
3.16273e-05
3.16295e-05
3.16272e-05
3.16218e-05
3.16155e-05
3.16109e-05
3.15872e-05
3.17651e-05
3.17928e-05
3.18026e-05
3.18189e-05
3.1836e-05
3.185e-05
3.18592e-05
3.18617e-05
3.18551e-05
3.18385e-05
3.18125e-05
3.17783e-05
3.1741e-05
3.17072e-05
3.16855e-05
3.16855e-05
3.17069e-05
3.17411e-05
3.17784e-05
3.18126e-05
3.18385e-05
3.18549e-05
3.18619e-05
3.18591e-05
3.18494e-05
3.18359e-05
3.18193e-05
3.18034e-05
3.17927e-05
3.17652e-05
3.19473e-05
3.1982e-05
3.20011e-05
3.20307e-05
3.20641e-05
3.20971e-05
3.21269e-05
3.21505e-05
3.21665e-05
3.21738e-05
3.21761e-05
3.21761e-05
3.21843e-05
3.21964e-05
3.2222e-05
3.22222e-05
3.21964e-05
3.21842e-05
3.21763e-05
3.21763e-05
3.21739e-05
3.21664e-05
3.21507e-05
3.21265e-05
3.20968e-05
3.20643e-05
3.20312e-05
3.20015e-05
3.19821e-05
3.19477e-05
3.21548e-05
3.22008e-05
3.22371e-05
3.22917e-05
3.23578e-05
3.24351e-05
3.25254e-05
3.26356e-05
3.27739e-05
3.29597e-05
3.32227e-05
3.35988e-05
3.41424e-05
3.47836e-05
3.54652e-05
3.54639e-05
3.47839e-05
3.41431e-05
3.3601e-05
3.32255e-05
3.29618e-05
3.27753e-05
3.26363e-05
3.25252e-05
3.24349e-05
3.23574e-05
3.22917e-05
3.22368e-05
3.22005e-05
3.21552e-05
3.24341e-05
3.25034e-05
3.25922e-05
3.27315e-05
3.29323e-05
3.32434e-05
3.37389e-05
3.45333e-05
3.57785e-05
3.77045e-05
4.06381e-05
4.48952e-05
5.03498e-05
5.67509e-05
6.33126e-05
6.33052e-05
5.67542e-05
5.03663e-05
4.49263e-05
4.06716e-05
3.7729e-05
3.57937e-05
3.45419e-05
3.37419e-05
3.3243e-05
3.29303e-05
3.27299e-05
3.25908e-05
3.25015e-05
3.24315e-05
3.27977e-05
3.29574e-05
3.3323e-05
3.39201e-05
3.49274e-05
3.67707e-05
4.00768e-05
4.56588e-05
5.46513e-05
6.86341e-05
8.94013e-05
0.000118198
0.000152589
0.000187039
0.000221618
0.000221606
0.000187056
0.000152756
0.00011846
8.96509e-05
6.88109e-05
5.47602e-05
4.5726e-05
4.01089e-05
3.67757e-05
3.49195e-05
3.39102e-05
3.3314e-05
3.29453e-05
3.27817e-05
3.44537e-05
3.50628e-05
3.69022e-05
3.98706e-05
4.50549e-05
5.47134e-05
7.18313e-05
9.94459e-05
0.000141564
0.000204424
0.000293932
0.000409372
0.000531121
0.000642515
0.000750602
0.000750602
0.000642651
0.000532013
0.000410656
0.000295126
0.000205281
0.000142116
9.97972e-05
7.20345e-05
5.47903e-05
4.50529e-05
3.98426e-05
3.687e-05
3.50023e-05
3.43827e-05
4.3886e-05
4.62985e-05
5.44042e-05
6.69375e-05
8.82351e-05
0.000126
0.0001879
0.000278086
0.000401031
0.000579244
0.000863039
0.00123649
0.00164865
0.00199967
0.00226
0.0022604
0.00200081
0.0016513
0.00124095
0.000867014
0.000582093
0.000403004
0.000279311
0.000188773
0.000126523
8.83988e-05
6.69457e-05
5.43518e-05
4.60756e-05
4.36687e-05
7.59039e-05
8.41298e-05
0.000111106
0.00015207
0.000219337
0.000331231
0.000499905
0.000731964
0.00103294
0.00140076
0.00180046
0.00222435
0.00257246
0.00285726
0.00310355
0.00310402
0.00285834
0.0025788
0.00223245
0.00180966
0.00140881
0.00103837
0.000736099
0.000502924
0.000333023
0.000220456
0.000152645
0.00011119
8.37046e-05
7.55992e-05
7.20981e-05
7.82417e-05
0.000108064
0.000169578
0.000267652
0.000388216
0.000521846
0.000690455
0.000941266
0.00132976
0.00188352
0.00252553
0.00307751
0.00346411
0.00378008
0.00378448
0.00347361
0.00309368
0.00254784
0.00190391
0.00134549
0.000950598
0.000695539
0.000525195
0.000390732
0.000269758
0.000170754
0.000108464
7.81558e-05
7.2432e-05
7.38557e-05
7.62786e-05
8.7449e-05
0.000115362
0.000182775
0.000314071
0.000509397
0.000744337
0.000998992
0.00127056
0.00160042
0.00199037
0.00237615
0.00267328
0.00289287
0.00289507
0.00267919
0.00238438
0.00199962
0.00161048
0.00127903
0.0010066
0.000751012
0.000514119
0.000317622
0.000184467
0.000115857
8.73768e-05
7.56609e-05
7.36416e-05
7.51348e-05
7.64915e-05
8.16122e-05
9.10941e-05
0.000110945
0.000158659
0.00026966
0.000478876
0.000771867
0.00109844
0.00144343
0.0017855
0.00207477
0.00229411
0.00244126
0.00244358
0.00229929
0.00208316
0.00179452
0.00145197
0.00110633
0.000778799
0.000484473
0.00027305
0.000160355
0.000111674
9.14351e-05
8.18575e-05
7.66201e-05
7.46481e-05
7.65465e-05
7.68946e-05
8.01448e-05
8.50569e-05
9.18241e-05
0.000103295
0.000128137
0.000193749
0.000349985
0.000626321
0.000994748
0.00139321
0.00174643
0.00201467
0.0022034
0.00220487
0.0020164
0.00175009
0.00139882
0.0010009
0.000632375
0.000354873
0.000196075
0.000129179
0.000103695
9.20291e-05
8.50039e-05
8.02e-05
7.72829e-05
7.62866e-05
7.78976e-05
7.74565e-05
7.98649e-05
8.33197e-05
8.76039e-05
9.28628e-05
9.97161e-05
0.000112453
0.000143213
0.000223368
0.000403013
0.000720929
0.00109656
0.00144628
0.00173056
0.00173169
0.00144687
0.00109853
0.000724392
0.000405903
0.000225259
0.00014421
0.000112802
9.99301e-05
9.28746e-05
8.76523e-05
8.3316e-05
7.96984e-05
7.76215e-05
7.78303e-05
7.89995e-05
7.79784e-05
7.98223e-05
8.26272e-05
8.59459e-05
8.97883e-05
9.41496e-05
9.92691e-05
0.000106284
0.000119963
0.000153152
0.000238025
0.000396488
0.000632921
0.00091929
0.000919372
0.000632815
0.000396921
0.000238868
0.00015383
0.00012019
0.000106425
9.93339e-05
9.41632e-05
8.97735e-05
8.60037e-05
8.26866e-05
7.97344e-05
7.801e-05
7.89643e-05
7.92897e-05
7.79512e-05
7.93256e-05
8.16129e-05
8.44751e-05
8.74739e-05
9.11387e-05
9.47025e-05
9.88063e-05
0.000103338
0.000109642
0.000122252
0.000148624
0.000202436
0.000289363
0.000289234
0.000202338
0.000148765
0.000122331
0.000109711
0.000103356
9.87528e-05
9.48206e-05
9.1048e-05
8.74989e-05
8.44914e-05
8.16615e-05
7.9368e-05
7.78907e-05
7.9269e-05
7.87087e-05
7.71103e-05
7.82848e-05
8.00799e-05
8.2326e-05
8.49447e-05
8.77154e-05
9.07114e-05
9.37703e-05
9.6671e-05
9.96058e-05
0.000102634
0.000106474
0.000113079
0.000123946
0.0001239
0.000113104
0.000106564
0.000102654
9.96193e-05
9.66656e-05
9.37288e-05
9.07334e-05
8.77383e-05
8.49808e-05
8.24332e-05
8.01131e-05
7.82764e-05
7.71186e-05
7.86197e-05
7.70244e-05
7.53679e-05
7.61732e-05
7.78017e-05
7.95672e-05
8.16755e-05
8.39084e-05
8.62258e-05
8.84001e-05
9.05027e-05
9.23442e-05
9.38151e-05
9.51096e-05
9.62568e-05
9.72874e-05
9.7206e-05
9.62129e-05
9.51405e-05
9.38383e-05
9.23695e-05
9.05519e-05
8.85366e-05
8.62824e-05
8.38698e-05
8.17089e-05
7.96211e-05
7.77988e-05
7.62533e-05
7.5425e-05
7.70319e-05
7.46187e-05
7.30492e-05
7.37036e-05
7.49062e-05
7.62175e-05
7.78597e-05
7.94995e-05
8.11251e-05
8.26872e-05
8.40533e-05
8.50955e-05
8.59073e-05
8.65092e-05
8.68e-05
8.68671e-05
8.69027e-05
8.68598e-05
8.65577e-05
8.59845e-05
8.51372e-05
8.39892e-05
8.26186e-05
8.10769e-05
7.94556e-05
7.78633e-05
7.62374e-05
7.48268e-05
7.36835e-05
7.30702e-05
7.47102e-05
7.17799e-05
7.00201e-05
7.05172e-05
7.13908e-05
7.24073e-05
7.35179e-05
7.46743e-05
7.58036e-05
7.67916e-05
7.75457e-05
7.8127e-05
7.85618e-05
7.87409e-05
7.87288e-05
7.86509e-05
7.86768e-05
7.87223e-05
7.86733e-05
7.85397e-05
7.82033e-05
7.76376e-05
7.68406e-05
7.58315e-05
7.47217e-05
7.35333e-05
7.24072e-05
7.1419e-05
7.05977e-05
7.01511e-05
7.17538e-05
6.84002e-05
6.68555e-05
6.71795e-05
6.76273e-05
6.84805e-05
6.91822e-05
6.9962e-05
7.06113e-05
7.10828e-05
7.14341e-05
7.16455e-05
7.16226e-05
7.14372e-05
7.12696e-05
7.11635e-05
7.11779e-05
7.1327e-05
7.15163e-05
7.16607e-05
7.16742e-05
7.14925e-05
7.10996e-05
7.05371e-05
6.99026e-05
6.91739e-05
6.84227e-05
6.77197e-05
6.71389e-05
6.68681e-05
6.8397e-05
6.47956e-05
6.3308e-05
6.34899e-05
6.39777e-05
6.43512e-05
6.48106e-05
6.52244e-05
6.5507e-05
6.5682e-05
6.57065e-05
6.5519e-05
6.51879e-05
6.48355e-05
6.45187e-05
6.42862e-05
6.42638e-05
6.44885e-05
6.48371e-05
6.52146e-05
6.55383e-05
6.57344e-05
6.57425e-05
6.55659e-05
6.52358e-05
6.4814e-05
6.4375e-05
6.39484e-05
6.35707e-05
6.34216e-05
6.48356e-05
6.12071e-05
5.98596e-05
5.99254e-05
6.02395e-05
6.04294e-05
6.07298e-05
6.08092e-05
6.08018e-05
6.0725e-05
6.04628e-05
6.00244e-05
5.95082e-05
5.89892e-05
5.85214e-05
5.82104e-05
5.82013e-05
5.85012e-05
5.89836e-05
5.95434e-05
6.00763e-05
6.05018e-05
6.07538e-05
6.08409e-05
6.07921e-05
6.065e-05
6.04491e-05
6.02119e-05
5.99889e-05
5.99463e-05
6.12468e-05
5.7656e-05
5.65193e-05
5.6576e-05
5.65742e-05
5.67175e-05
5.67274e-05
5.66522e-05
5.6562e-05
5.62743e-05
5.57488e-05
5.51315e-05
5.44949e-05
5.38591e-05
5.33016e-05
5.29686e-05
5.29832e-05
5.3315e-05
5.38408e-05
5.44723e-05
5.51452e-05
5.57717e-05
5.62617e-05
5.65708e-05
5.671e-05
5.67299e-05
5.66911e-05
5.66234e-05
5.65464e-05
5.65775e-05
5.77526e-05
5.44804e-05
5.32515e-05
5.32178e-05
5.32419e-05
5.32976e-05
5.31515e-05
5.29848e-05
5.26745e-05
5.21618e-05
5.15671e-05
5.09332e-05
5.02198e-05
4.94758e-05
4.88532e-05
4.85064e-05
4.85208e-05
4.88671e-05
4.94513e-05
5.01815e-05
5.09708e-05
5.16935e-05
5.22659e-05
5.26729e-05
5.29524e-05
5.31431e-05
5.32653e-05
5.33161e-05
5.32973e-05
5.33413e-05
5.44026e-05
5.12017e-05
5.03526e-05
5.02337e-05
5.02534e-05
5.01004e-05
4.98993e-05
4.96659e-05
4.92574e-05
4.87291e-05
4.8125e-05
4.73896e-05
4.65537e-05
4.57707e-05
4.5178e-05
4.48587e-05
4.48655e-05
4.51981e-05
4.57876e-05
4.65332e-05
4.73339e-05
4.80874e-05
4.87354e-05
4.92585e-05
4.96629e-05
4.99522e-05
5.01306e-05
5.02102e-05
5.02308e-05
5.0322e-05
5.12971e-05
4.84482e-05
4.7586e-05
4.74792e-05
4.73927e-05
4.71959e-05
4.70362e-05
4.67191e-05
4.62623e-05
4.57338e-05
4.50796e-05
4.42862e-05
4.34586e-05
4.27276e-05
4.21572e-05
4.18135e-05
4.17878e-05
4.21142e-05
4.27237e-05
4.34959e-05
4.43123e-05
4.50781e-05
4.57441e-05
4.62924e-05
4.67231e-05
4.70402e-05
4.72541e-05
4.7388e-05
4.74782e-05
4.7612e-05
4.84683e-05
4.59501e-05
4.51076e-05
4.50428e-05
4.49171e-05
4.4776e-05
4.45452e-05
4.41529e-05
4.37062e-05
4.31705e-05
4.24915e-05
4.17267e-05
4.09683e-05
4.02808e-05
3.97142e-05
3.93661e-05
3.93508e-05
3.96918e-05
4.02964e-05
4.10313e-05
4.17843e-05
4.24898e-05
4.31261e-05
4.36832e-05
4.41469e-05
4.45055e-05
4.47615e-05
4.49315e-05
4.50436e-05
4.51734e-05
4.59067e-05
4.35053e-05
4.29833e-05
4.2847e-05
4.27404e-05
4.26149e-05
4.23103e-05
4.19462e-05
4.15321e-05
4.09914e-05
4.03428e-05
3.96524e-05
3.89577e-05
3.82904e-05
3.77271e-05
3.73898e-05
3.73819e-05
3.77047e-05
3.82605e-05
3.89304e-05
3.96284e-05
4.03075e-05
4.09438e-05
4.151e-05
4.1977e-05
4.233e-05
4.25784e-05
4.27463e-05
4.28614e-05
4.29929e-05
4.36344e-05
4.16286e-05
4.10512e-05
4.09664e-05
4.087e-05
4.06612e-05
4.03612e-05
4.00503e-05
3.96462e-05
3.91339e-05
3.85577e-05
3.79341e-05
3.72706e-05
3.66195e-05
3.60878e-05
3.57904e-05
3.58036e-05
3.61127e-05
3.66256e-05
3.72441e-05
3.78981e-05
3.85422e-05
3.914e-05
3.966e-05
4.0082e-05
4.04053e-05
4.06473e-05
4.08293e-05
4.09672e-05
4.11036e-05
4.16485e-05
3.99006e-05
3.93694e-05
3.93326e-05
3.92162e-05
3.89898e-05
3.87596e-05
3.84664e-05
3.80694e-05
3.76053e-05
3.70878e-05
3.65069e-05
3.58876e-05
3.53022e-05
3.48453e-05
3.45958e-05
3.46124e-05
3.48832e-05
3.53305e-05
3.58811e-05
3.64727e-05
3.706e-05
3.76017e-05
3.80712e-05
3.84591e-05
3.87707e-05
3.90183e-05
3.92104e-05
3.935e-05
3.94659e-05
3.9902e-05
3.82553e-05
3.80324e-05
3.7907e-05
3.77718e-05
3.76027e-05
3.74024e-05
3.71068e-05
3.67454e-05
3.63353e-05
3.58623e-05
3.53318e-05
3.47875e-05
3.42857e-05
3.38853e-05
3.36489e-05
3.36431e-05
3.387e-05
3.4266e-05
3.47665e-05
3.53111e-05
3.5849e-05
3.63402e-05
3.67647e-05
3.7119e-05
3.74082e-05
3.7638e-05
3.78106e-05
3.7928e-05
3.80191e-05
3.83729e-05
3.71055e-05
3.68338e-05
3.66995e-05
3.65699e-05
3.64277e-05
3.62158e-05
3.59469e-05
3.56409e-05
3.52777e-05
3.48498e-05
3.43841e-05
3.39157e-05
3.34744e-05
3.31012e-05
3.28685e-05
3.28565e-05
3.30705e-05
3.34456e-05
3.39088e-05
3.43995e-05
3.48714e-05
3.5296e-05
3.56627e-05
3.59721e-05
3.6227e-05
3.64291e-05
3.65797e-05
3.6683e-05
3.67667e-05
3.70677e-05
3.60626e-05
3.56963e-05
3.56423e-05
3.55343e-05
3.53942e-05
3.52039e-05
3.49881e-05
3.47266e-05
3.4401e-05
3.40266e-05
3.36292e-05
3.32234e-05
3.28269e-05
3.24846e-05
3.22743e-05
3.22728e-05
3.24794e-05
3.28218e-05
3.32271e-05
3.36432e-05
3.40384e-05
3.43978e-05
3.47163e-05
3.49918e-05
3.52214e-05
3.54036e-05
3.55402e-05
3.56376e-05
3.57178e-05
3.59683e-05
3.49818e-05
3.48101e-05
3.47474e-05
3.46589e-05
3.45349e-05
3.43863e-05
3.42014e-05
3.39597e-05
3.36686e-05
3.33486e-05
3.30086e-05
3.26526e-05
3.23019e-05
3.20041e-05
3.18268e-05
3.18324e-05
3.20162e-05
3.23113e-05
3.26543e-05
3.30055e-05
3.33451e-05
3.36625e-05
3.39491e-05
3.4197e-05
3.44003e-05
3.45587e-05
3.46773e-05
3.47638e-05
3.48343e-05
3.50331e-05
3.42081e-05
3.41302e-05
3.40312e-05
3.39532e-05
3.38469e-05
3.37138e-05
3.35348e-05
3.33133e-05
3.30652e-05
3.2796e-05
3.25027e-05
3.21924e-05
3.18903e-05
3.16375e-05
3.14869e-05
3.14904e-05
3.16469e-05
3.18991e-05
3.21939e-05
3.2501e-05
3.28023e-05
3.30834e-05
3.33325e-05
3.35415e-05
3.37081e-05
3.38369e-05
3.39364e-05
3.40134e-05
3.40772e-05
3.42354e-05
3.36291e-05
3.34711e-05
3.34094e-05
3.33354e-05
3.32401e-05
3.31148e-05
3.29574e-05
3.27775e-05
3.25793e-05
3.2357e-05
3.21087e-05
3.18456e-05
3.15904e-05
3.13733e-05
3.12371e-05
3.12341e-05
3.13659e-05
3.15807e-05
3.18363e-05
3.21048e-05
3.23651e-05
3.26016e-05
3.28048e-05
3.29712e-05
3.3104e-05
3.32112e-05
3.33014e-05
3.33764e-05
3.34382e-05
3.35653e-05
3.30181e-05
3.28869e-05
3.28584e-05
3.27915e-05
3.27105e-05
3.26083e-05
3.24856e-05
3.23445e-05
3.21825e-05
3.19965e-05
3.17893e-05
3.1571e-05
3.13565e-05
3.1168e-05
3.10438e-05
3.10342e-05
3.1144e-05
3.13288e-05
3.15508e-05
3.17806e-05
3.19983e-05
3.21915e-05
3.23553e-05
3.24903e-05
3.26028e-05
3.27002e-05
3.27859e-05
3.28567e-05
3.29106e-05
3.30049e-05
3.24975e-05
3.24701e-05
3.24248e-05
3.23716e-05
3.23082e-05
3.22263e-05
3.21231e-05
3.19992e-05
3.18553e-05
3.16936e-05
3.15188e-05
3.13367e-05
3.11557e-05
3.09914e-05
3.08777e-05
3.08684e-05
3.09692e-05
3.1134e-05
3.13269e-05
3.15219e-05
3.17029e-05
3.18623e-05
3.19984e-05