/*--------------------------------*- C++ -*----------------------------------*\
| =========                 |                                                 |
| \\      /  F ield         | OpenFOAM: The Open Source CFD Toolbox           |
|  \\    /   O peration     | Version:  2312                                  |
|   \\  /    A nd           | Website:  www.openfoam.com                      |
|    \\/     M anipulation  |                                                 |
\*---------------------------------------------------------------------------*/
FoamFile
{
    version     2.0;
    format      ascii;
    arch        "LSB;label=32;scalar=64";
    class       volScalarField;
    location    "0.46258";
    object      nut;
}
// * * * * * * * * * * * * * * * * * * * * * * * * * * * * * * * * * * * * * //

dimensions      [0 2 -1 0 0 0 0];

internalField   nonuniform List<scalar> 
90000
(
6.06968e-06
6.06976e-06
6.06978e-06
6.06979e-06
6.06979e-06
6.06979e-06
6.06979e-06
6.06978e-06
6.06978e-06
6.06978e-06
6.06978e-06
6.06979e-06
6.0698e-06
6.06981e-06
6.06981e-06
6.06982e-06
6.06983e-06
6.06983e-06
6.06983e-06
6.06981e-06
6.06978e-06
6.06974e-06
6.06975e-06
6.06977e-06
6.0698e-06
6.06981e-06
6.06981e-06
6.06978e-06
6.06973e-06
6.06968e-06
6.06975e-06
6.07281e-06
6.07291e-06
6.07291e-06
6.07291e-06
6.0729e-06
6.07291e-06
6.07292e-06
6.07293e-06
6.07295e-06
6.07296e-06
6.07298e-06
6.07299e-06
6.073e-06
6.073e-06
6.07299e-06
6.07298e-06
6.07296e-06
6.07293e-06
6.0729e-06
6.07289e-06
6.07288e-06
6.07286e-06
6.07285e-06
6.07283e-06
6.07281e-06
6.07281e-06
6.07283e-06
6.07264e-06
6.06942e-06
6.06978e-06
6.07298e-06
6.07309e-06
6.07309e-06
6.07309e-06
6.07309e-06
6.07309e-06
6.07309e-06
6.0731e-06
6.07311e-06
6.07312e-06
6.07312e-06
6.07312e-06
6.07313e-06
6.07313e-06
6.07311e-06
6.07309e-06
6.07308e-06
6.07309e-06
6.0731e-06
6.0731e-06
6.0731e-06
6.07309e-06
6.07308e-06
6.0731e-06
6.07313e-06
6.07317e-06
6.07324e-06
6.0732e-06
6.06978e-06
6.06982e-06
6.07304e-06
6.07316e-06
6.07317e-06
6.07317e-06
6.07316e-06
6.07316e-06
6.07315e-06
6.07315e-06
6.07315e-06
6.07315e-06
6.07315e-06
6.07314e-06
6.07313e-06
6.07311e-06
6.07309e-06
6.07309e-06
6.07311e-06
6.07313e-06
6.07315e-06
6.07316e-06
6.07316e-06
6.07317e-06
6.0732e-06
6.07324e-06
6.07324e-06
6.07321e-06
6.07315e-06
6.07308e-06
6.06983e-06
6.06987e-06
6.0731e-06
6.07323e-06
6.07324e-06
6.07324e-06
6.07323e-06
6.07322e-06
6.0732e-06
6.07319e-06
6.07317e-06
6.07316e-06
6.07314e-06
6.07312e-06
6.07309e-06
6.07307e-06
6.07306e-06
6.07307e-06
6.0731e-06
6.07312e-06
6.07314e-06
6.07316e-06
6.07318e-06
6.07322e-06
6.07326e-06
6.07329e-06
6.07329e-06
6.07325e-06
6.07316e-06
6.07306e-06
6.06988e-06
6.06992e-06
6.07317e-06
6.07329e-06
6.07329e-06
6.07329e-06
6.07327e-06
6.07326e-06
6.07323e-06
6.0732e-06
6.07317e-06
6.07314e-06
6.07311e-06
6.07308e-06
6.07305e-06
6.07303e-06
6.07303e-06
6.07304e-06
6.07306e-06
6.07308e-06
6.07311e-06
6.07315e-06
6.0732e-06
6.07324e-06
6.07325e-06
6.07323e-06
6.0732e-06
6.0732e-06
6.0732e-06
6.07309e-06
6.06989e-06
6.06998e-06
6.07322e-06
6.07333e-06
6.07332e-06
6.0733e-06
6.07328e-06
6.07326e-06
6.07324e-06
6.0732e-06
6.07315e-06
6.07309e-06
6.07306e-06
6.07303e-06
6.07301e-06
6.073e-06
6.073e-06
6.07301e-06
6.07302e-06
6.07306e-06
6.07311e-06
6.07317e-06
6.07321e-06
6.07322e-06
6.0732e-06
6.07318e-06
6.07319e-06
6.07321e-06
6.07323e-06
6.0731e-06
6.0699e-06
6.07002e-06
6.07323e-06
6.07333e-06
6.07331e-06
6.07329e-06
6.07327e-06
6.07325e-06
6.07323e-06
6.07319e-06
6.07314e-06
6.07308e-06
6.07303e-06
6.073e-06
6.07299e-06
6.073e-06
6.073e-06
6.07302e-06
6.07304e-06
6.0731e-06
6.07316e-06
6.0732e-06
6.07321e-06
6.0732e-06
6.07318e-06
6.07319e-06
6.07321e-06
6.07323e-06
6.07325e-06
6.07312e-06
6.06995e-06
6.07001e-06
6.07322e-06
6.07331e-06
6.07329e-06
6.07327e-06
6.07326e-06
6.07324e-06
6.07322e-06
6.0732e-06
6.07315e-06
6.0731e-06
6.07306e-06
6.07302e-06
6.07301e-06
6.07302e-06
6.07305e-06
6.0731e-06
6.07315e-06
6.0732e-06
6.07323e-06
6.07325e-06
6.07325e-06
6.07323e-06
6.07322e-06
6.07323e-06
6.07326e-06
6.07328e-06
6.0733e-06
6.07319e-06
6.07003e-06
6.06999e-06
6.07321e-06
6.0733e-06
6.07329e-06
6.07327e-06
6.07326e-06
6.07324e-06
6.07323e-06
6.07321e-06
6.07318e-06
6.07315e-06
6.07312e-06
6.07309e-06
6.07307e-06
6.07308e-06
6.07313e-06
6.0732e-06
6.07326e-06
6.0733e-06
6.07332e-06
6.07331e-06
6.0733e-06
6.07327e-06
6.07326e-06
6.07327e-06
6.07331e-06
6.07335e-06
6.07338e-06
6.07327e-06
6.07012e-06
6.06998e-06
6.07323e-06
6.07332e-06
6.07332e-06
6.0733e-06
6.07329e-06
6.07327e-06
6.07324e-06
6.07323e-06
6.07322e-06
6.07321e-06
6.07319e-06
6.07317e-06
6.07314e-06
6.07313e-06
6.07318e-06
6.07325e-06
6.07331e-06
6.07334e-06
6.07335e-06
6.07334e-06
6.07332e-06
6.07331e-06
6.0733e-06
6.07332e-06
6.07336e-06
6.07341e-06
6.07344e-06
6.07333e-06
6.07015e-06
6.07003e-06
6.07331e-06
6.07341e-06
6.0734e-06
6.07339e-06
6.07336e-06
6.07332e-06
6.07328e-06
6.07324e-06
6.07324e-06
6.07325e-06
6.07325e-06
6.07324e-06
6.0732e-06
6.07315e-06
6.07318e-06
6.07324e-06
6.07329e-06
6.07332e-06
6.07332e-06
6.07332e-06
6.07332e-06
6.07332e-06
6.07334e-06
6.07338e-06
6.07342e-06
6.07345e-06
6.07347e-06
6.07334e-06
6.07016e-06
6.07015e-06
6.07345e-06
6.07354e-06
6.07353e-06
6.07351e-06
6.07347e-06
6.07342e-06
6.07337e-06
6.07331e-06
6.07327e-06
6.07327e-06
6.07328e-06
6.07327e-06
6.07323e-06
6.07317e-06
6.07315e-06
6.07318e-06
6.07322e-06
6.07323e-06
6.07325e-06
6.07327e-06
6.07331e-06
6.07335e-06
6.0734e-06
6.07344e-06
6.07347e-06
6.07349e-06
6.07349e-06
6.07335e-06
6.07018e-06
6.07037e-06
6.07359e-06
6.07368e-06
6.07366e-06
6.07362e-06
6.07356e-06
6.07351e-06
6.07344e-06
6.07339e-06
6.07334e-06
6.0733e-06
6.07329e-06
6.07327e-06
6.07323e-06
6.07318e-06
6.07314e-06
6.07313e-06
6.07313e-06
6.07315e-06
6.0732e-06
6.07328e-06
6.07336e-06
6.07343e-06
6.07349e-06
6.07353e-06
6.07354e-06
6.07354e-06
6.07353e-06
6.07339e-06
6.07023e-06
6.07063e-06
6.0737e-06
6.07379e-06
6.07375e-06
6.07369e-06
6.07362e-06
6.07356e-06
6.07349e-06
6.07344e-06
6.07339e-06
6.07334e-06
6.07329e-06
6.07324e-06
6.07321e-06
6.07317e-06
6.07314e-06
6.07312e-06
6.07311e-06
6.07313e-06
6.07323e-06
6.07335e-06
6.07346e-06
6.07355e-06
6.07361e-06
6.07363e-06
6.07364e-06
6.07363e-06
6.07362e-06
6.07348e-06
6.07032e-06
6.07085e-06
6.07376e-06
6.07387e-06
6.07381e-06
6.07374e-06
6.07367e-06
6.0736e-06
6.07355e-06
6.0735e-06
6.07345e-06
6.07338e-06
6.07329e-06
6.07321e-06
6.07317e-06
6.07314e-06
6.07312e-06
6.07312e-06
6.07314e-06
6.07321e-06
6.07332e-06
6.07345e-06
6.07358e-06
6.07367e-06
6.07372e-06
6.07375e-06
6.07375e-06
6.07375e-06
6.07374e-06
6.07361e-06
6.07047e-06
6.07101e-06
6.07383e-06
6.07395e-06
6.07389e-06
6.07382e-06
6.07376e-06
6.07371e-06
6.07367e-06
6.07362e-06
6.07354e-06
6.07343e-06
6.0733e-06
6.0732e-06
6.07314e-06
6.0731e-06
6.0731e-06
6.07313e-06
6.0732e-06
6.0733e-06
6.07342e-06
6.07358e-06
6.07371e-06
6.0738e-06
6.07385e-06
6.07388e-06
6.0739e-06
6.07391e-06
6.07392e-06
6.07379e-06
6.0707e-06
6.07114e-06
6.07395e-06
6.07408e-06
6.07404e-06
6.074e-06
6.07397e-06
6.07393e-06
6.07387e-06
6.07378e-06
6.07365e-06
6.0735e-06
6.07334e-06
6.07322e-06
6.07315e-06
6.07309e-06
6.07309e-06
6.07316e-06
6.07327e-06
6.0734e-06
6.07356e-06
6.07373e-06
6.07385e-06
6.07395e-06
6.07402e-06
6.07407e-06
6.07412e-06
6.07416e-06
6.07418e-06
6.07407e-06
6.07103e-06
6.0713e-06
6.07415e-06
6.0743e-06
6.07429e-06
6.07427e-06
6.07425e-06
6.0742e-06
6.07411e-06
6.07398e-06
6.07382e-06
6.07363e-06
6.07346e-06
6.07331e-06
6.0732e-06
6.07312e-06
6.07312e-06
6.07323e-06
6.07338e-06
6.07356e-06
6.07374e-06
6.0739e-06
6.07403e-06
6.07414e-06
6.07423e-06
6.07432e-06
6.0744e-06
6.07447e-06
6.07452e-06
6.07443e-06
6.07138e-06
6.07155e-06
6.07443e-06
6.07459e-06
6.07459e-06
6.07458e-06
6.07456e-06
6.07449e-06
6.07438e-06
6.07423e-06
6.07404e-06
6.07384e-06
6.07365e-06
6.07347e-06
6.07331e-06
6.07319e-06
6.07319e-06
6.07334e-06
6.07354e-06
6.07374e-06
6.07392e-06
6.07408e-06
6.07422e-06
6.07435e-06
6.07447e-06
6.0746e-06
6.07471e-06
6.07481e-06
6.07487e-06
6.07477e-06
6.07167e-06
6.07189e-06
6.07479e-06
6.07495e-06
6.07495e-06
6.07495e-06
6.07492e-06
6.07485e-06
6.07472e-06
6.07455e-06
6.07434e-06
6.07412e-06
6.07388e-06
6.07365e-06
6.07342e-06
6.07326e-06
6.07328e-06
6.07346e-06
6.07369e-06
6.0739e-06
6.07409e-06
6.07425e-06
6.07441e-06
6.07458e-06
6.07475e-06
6.07491e-06
6.07506e-06
6.07516e-06
6.0752e-06
6.07505e-06
6.07194e-06
6.07233e-06
6.07527e-06
6.07543e-06
6.07544e-06
6.07544e-06
6.07539e-06
6.07529e-06
6.07513e-06
6.07493e-06
6.07469e-06
6.07441e-06
6.07411e-06
6.07381e-06
6.07352e-06
6.07332e-06
6.07335e-06
6.07357e-06
6.07382e-06
6.07406e-06
6.07427e-06
6.07447e-06
6.07468e-06
6.07491e-06
6.07514e-06
6.07535e-06
6.0755e-06
6.07559e-06
6.07559e-06
6.07543e-06
6.0724e-06
6.07293e-06
6.07594e-06
6.0761e-06
6.07611e-06
6.07608e-06
6.07599e-06
6.07584e-06
6.07562e-06
6.07535e-06
6.07504e-06
6.07469e-06
6.07432e-06
6.07395e-06
6.07361e-06
6.07338e-06
6.07344e-06
6.0737e-06
6.07399e-06
6.07428e-06
6.07456e-06
6.07483e-06
6.07513e-06
6.07543e-06
6.07573e-06
6.07597e-06
6.07612e-06
6.07618e-06
6.07619e-06
6.07608e-06
6.07316e-06
6.07375e-06
6.07684e-06
6.07699e-06
6.07697e-06
6.07687e-06
6.0767e-06
6.07646e-06
6.07616e-06
6.07581e-06
6.07542e-06
6.075e-06
6.07457e-06
6.07415e-06
6.07378e-06
6.07354e-06
6.07361e-06
6.07392e-06
6.07428e-06
6.07464e-06
6.07499e-06
6.07536e-06
6.07575e-06
6.07614e-06
6.07647e-06
6.07671e-06
6.07686e-06
6.07695e-06
6.07704e-06
6.07703e-06
6.07411e-06
6.07482e-06
6.07796e-06
6.07805e-06
6.07796e-06
6.07777e-06
6.07751e-06
6.07718e-06
6.0768e-06
6.07637e-06
6.07591e-06
6.07544e-06
6.07496e-06
6.07451e-06
6.07411e-06
6.07384e-06
6.0739e-06
6.07424e-06
6.07466e-06
6.0751e-06
6.07555e-06
6.07602e-06
6.07649e-06
6.07692e-06
6.07727e-06
6.07751e-06
6.07769e-06
6.07787e-06
6.07807e-06
6.07811e-06
6.07509e-06
6.07613e-06
6.07923e-06
6.07925e-06
6.07906e-06
6.07879e-06
6.07846e-06
6.07807e-06
6.07763e-06
6.07714e-06
6.07662e-06
6.07608e-06
6.07554e-06
6.07502e-06
6.07454e-06
6.07419e-06
6.07422e-06
6.07458e-06
6.07507e-06
6.0756e-06
6.07617e-06
6.07675e-06
6.0773e-06
6.07776e-06
6.07812e-06
6.07842e-06
6.07871e-06
6.07901e-06
6.07927e-06
6.07928e-06
6.0762e-06
6.07766e-06
6.08064e-06
6.08059e-06
6.08035e-06
6.08003e-06
6.07966e-06
6.07922e-06
6.07872e-06
6.07815e-06
6.07753e-06
6.07689e-06
6.07625e-06
6.07561e-06
6.075e-06
6.07453e-06
6.07451e-06
6.07492e-06
6.07551e-06
6.0762e-06
6.07692e-06
6.07762e-06
6.07824e-06
6.07876e-06
6.0792e-06
6.07962e-06
6.08004e-06
6.08042e-06
6.08067e-06
6.08064e-06
6.07764e-06
6.07941e-06
6.08228e-06
6.08221e-06
6.08194e-06
6.08159e-06
6.08117e-06
6.08066e-06
6.08005e-06
6.07935e-06
6.0786e-06
6.07783e-06
6.07704e-06
6.07624e-06
6.07548e-06
6.0749e-06
6.07486e-06
6.07537e-06
6.07613e-06
6.077e-06
6.07788e-06
6.0787e-06
6.07941e-06
6.08002e-06
6.0806e-06
6.08117e-06
6.08169e-06
6.08209e-06
6.08231e-06
6.08234e-06
6.07944e-06
6.08147e-06
6.08429e-06
6.08421e-06
6.08391e-06
6.08351e-06
6.083e-06
6.08236e-06
6.08161e-06
6.08077e-06
6.07988e-06
6.07895e-06
6.078e-06
6.07703e-06
6.07611e-06
6.07545e-06
6.07543e-06
6.07606e-06
6.077e-06
6.07805e-06
6.07907e-06
6.07999e-06
6.08082e-06
6.08159e-06
6.08233e-06
6.08302e-06
6.0836e-06
6.084e-06
6.08428e-06
6.0844e-06
6.08152e-06
6.08396e-06
6.08677e-06
6.08666e-06
6.08631e-06
6.08581e-06
6.08517e-06
6.08439e-06
6.08349e-06
6.08251e-06
6.08147e-06
6.08037e-06
6.07923e-06
6.07805e-06
6.07697e-06
6.07622e-06
6.07621e-06
6.07696e-06
6.07806e-06
6.07927e-06
6.08044e-06
6.08152e-06
6.08253e-06
6.08351e-06
6.08442e-06
6.08521e-06
6.08583e-06
6.08631e-06
6.08671e-06
6.08688e-06
6.08403e-06
6.08699e-06
6.08977e-06
6.0896e-06
6.08916e-06
6.08855e-06
6.08778e-06
6.08685e-06
6.08581e-06
6.08468e-06
6.08346e-06
6.08214e-06
6.08074e-06
6.07933e-06
6.07805e-06
6.07719e-06
6.0772e-06
6.07807e-06
6.07934e-06
6.08073e-06
6.0821e-06
6.08342e-06
6.08469e-06
6.08589e-06
6.08696e-06
6.08783e-06
6.08855e-06
6.08917e-06
6.08967e-06
6.08984e-06
6.08707e-06
6.09062e-06
6.09335e-06
6.09311e-06
6.09258e-06
6.09185e-06
6.09094e-06
6.08987e-06
6.08867e-06
6.08734e-06
6.08587e-06
6.08428e-06
6.08259e-06
6.08091e-06
6.07944e-06
6.07847e-06
6.0785e-06
6.07952e-06
6.08098e-06
6.08259e-06
6.08423e-06
6.08584e-06
6.08737e-06
6.08876e-06
6.08997e-06
6.09098e-06
6.09185e-06
6.0926e-06
6.09315e-06
6.09337e-06
6.09064e-06
6.09496e-06
6.09762e-06
6.09731e-06
6.09669e-06
6.09584e-06
6.09479e-06
6.09354e-06
6.09213e-06
6.09055e-06
6.0888e-06
6.0869e-06
6.08491e-06
6.08296e-06
6.08128e-06
6.0802e-06
6.08023e-06
6.08136e-06
6.08302e-06
6.0849e-06
6.08685e-06
6.08877e-06
6.09055e-06
6.09216e-06
6.09357e-06
6.09479e-06
6.09584e-06
6.09669e-06
6.09731e-06
6.09761e-06
6.09492e-06
6.10013e-06
6.10274e-06
6.10237e-06
6.10164e-06
6.10065e-06
6.09942e-06
6.09798e-06
6.09633e-06
6.09448e-06
6.09241e-06
6.09017e-06
6.08785e-06
6.0856e-06
6.08365e-06
6.0824e-06
6.0824e-06
6.08364e-06
6.08556e-06
6.08777e-06
6.09009e-06
6.09234e-06
6.09442e-06
6.0963e-06
6.09799e-06
6.09947e-06
6.10067e-06
6.10162e-06
6.10234e-06
6.10268e-06
6.10014e-06
6.10632e-06
6.10887e-06
6.10841e-06
6.10756e-06
6.10642e-06
6.10501e-06
6.10335e-06
6.10145e-06
6.09928e-06
6.09685e-06
6.09422e-06
6.09151e-06
6.0889e-06
6.08666e-06
6.08521e-06
6.08519e-06
6.08661e-06
6.08886e-06
6.09147e-06
6.09418e-06
6.09679e-06
6.09921e-06
6.10142e-06
6.10339e-06
6.10508e-06
6.10644e-06
6.10753e-06
6.10835e-06
6.10876e-06
6.10636e-06
6.11369e-06
6.11616e-06
6.11558e-06
6.1146e-06
6.11331e-06
6.11173e-06
6.10984e-06
6.10764e-06
6.1051e-06
6.10225e-06
6.09919e-06
6.09607e-06
6.09309e-06
6.09054e-06
6.0889e-06
6.08889e-06
6.09054e-06
6.09313e-06
6.09614e-06
6.09923e-06
6.10223e-06
6.10504e-06
6.10763e-06
6.10988e-06
6.11178e-06
6.11334e-06
6.11462e-06
6.1155e-06
6.11605e-06
6.11367e-06
6.12241e-06
6.12475e-06
6.12406e-06
6.12299e-06
6.12157e-06
6.1198e-06
6.11765e-06
6.11508e-06
6.11213e-06
6.10885e-06
6.10536e-06
6.10181e-06
6.09844e-06
6.09556e-06
6.09369e-06
6.09369e-06
6.09555e-06
6.09849e-06
6.1019e-06
6.10543e-06
6.10891e-06
6.11216e-06
6.11513e-06
6.11767e-06
6.11982e-06
6.12162e-06
6.12303e-06
6.12401e-06
6.12468e-06
6.12231e-06
6.13265e-06
6.1349e-06
6.13413e-06
6.13297e-06
6.1314e-06
6.12941e-06
6.12694e-06
6.12401e-06
6.12066e-06
6.11698e-06
6.11305e-06
6.10904e-06
6.10521e-06
6.10195e-06
6.09985e-06
6.09985e-06
6.10194e-06
6.10524e-06
6.10909e-06
6.11309e-06
6.11708e-06
6.12077e-06
6.12412e-06
6.12696e-06
6.12943e-06
6.13144e-06
6.13298e-06
6.13414e-06
6.13487e-06
6.13258e-06
6.14465e-06
6.14688e-06
6.14602e-06
6.14475e-06
6.14302e-06
6.14079e-06
6.13804e-06
6.13479e-06
6.13107e-06
6.12694e-06
6.12253e-06
6.118e-06
6.11366e-06
6.11001e-06
6.10769e-06
6.1077e-06
6.11002e-06
6.11365e-06
6.11796e-06
6.12246e-06
6.12698e-06
6.13112e-06
6.13487e-06
6.13809e-06
6.14087e-06
6.14306e-06
6.14477e-06
6.14607e-06
6.14687e-06
6.14469e-06
6.1587e-06
6.16094e-06
6.15995e-06
6.15858e-06
6.15671e-06
6.15429e-06
6.15131e-06
6.14776e-06
6.14365e-06
6.13904e-06
6.13408e-06
6.12903e-06
6.12421e-06
6.12015e-06
6.11758e-06
6.11756e-06
6.12009e-06
6.12411e-06
6.12894e-06
6.13398e-06
6.13904e-06
6.14361e-06
6.14778e-06
6.15136e-06
6.15437e-06
6.15673e-06
6.15865e-06
6.15999e-06
6.16097e-06
6.15882e-06
6.17502e-06
6.17728e-06
6.17618e-06
6.17476e-06
6.17282e-06
6.17029e-06
6.16711e-06
6.16326e-06
6.15876e-06
6.1537e-06
6.14824e-06
6.14269e-06
6.13737e-06
6.13287e-06
6.13004e-06
6.13002e-06
6.13282e-06
6.13726e-06
6.1426e-06
6.14812e-06
6.15366e-06
6.15867e-06
6.16321e-06
6.16713e-06
6.17033e-06
6.17288e-06
6.17486e-06
6.1762e-06
6.17735e-06
6.17513e-06
6.19383e-06
6.19616e-06
6.195e-06
6.19362e-06
6.1917e-06
6.18913e-06
6.18583e-06
6.18173e-06
6.17691e-06
6.17144e-06
6.16551e-06
6.15944e-06
6.15365e-06
6.14875e-06
6.1457e-06
6.14568e-06
6.14872e-06
6.15355e-06
6.15938e-06
6.1654e-06
6.17141e-06
6.17687e-06
6.18166e-06
6.1858e-06
6.1891e-06
6.19173e-06
6.19363e-06
6.19501e-06
6.19623e-06
6.19385e-06
6.21537e-06
6.21787e-06
6.21673e-06
6.21552e-06
6.21371e-06
6.21121e-06
6.2079e-06
6.2037e-06
6.19864e-06
6.19282e-06
6.18644e-06
6.17991e-06
6.17368e-06
6.16839e-06
6.16509e-06
6.16508e-06
6.16842e-06
6.17369e-06
6.17995e-06
6.18645e-06
6.19282e-06
6.19865e-06
6.20363e-06
6.20786e-06
6.21117e-06
6.21371e-06
6.21553e-06
6.21685e-06
6.21794e-06
6.21534e-06
6.23993e-06
6.24278e-06
6.24178e-06
6.2409e-06
6.23939e-06
6.23711e-06
6.23394e-06
6.22983e-06
6.22468e-06
6.21866e-06
6.21191e-06
6.20486e-06
6.19813e-06
6.19246e-06
6.18897e-06
6.18901e-06
6.19255e-06
6.19819e-06
6.20483e-06
6.21194e-06
6.21867e-06
6.22465e-06
6.22977e-06
6.23393e-06
6.23709e-06
6.23936e-06
6.2409e-06
6.24188e-06
6.24278e-06
6.23995e-06
6.26753e-06
6.27094e-06
6.27023e-06
6.26996e-06
6.26916e-06
6.26745e-06
6.26468e-06
6.26087e-06
6.2559e-06
6.24982e-06
6.24291e-06
6.23546e-06
6.22844e-06
6.2225e-06
6.21884e-06
6.21881e-06
6.22239e-06
6.22846e-06
6.23545e-06
6.24289e-06
6.24983e-06
6.25583e-06
6.26088e-06
6.26467e-06
6.26735e-06
6.26916e-06
6.27002e-06
6.27033e-06
6.27087e-06
6.26754e-06
6.29785e-06
6.30225e-06
6.30223e-06
6.30305e-06
6.30353e-06
6.30326e-06
6.30195e-06
6.29944e-06
6.2957e-06
6.29068e-06
6.28489e-06
6.27857e-06
6.27492e-06
6.27275e-06
6.27342e-06
6.27352e-06
6.27283e-06
6.2749e-06
6.27861e-06
6.28492e-06
6.29072e-06
6.29567e-06
6.29946e-06
6.30192e-06
6.30322e-06
6.3036e-06
6.30311e-06
6.30228e-06
6.30224e-06
6.29793e-06
6.33598e-06
6.34212e-06
6.34417e-06
6.34824e-06
6.35301e-06
6.35881e-06
6.36592e-06
6.3749e-06
6.38556e-06
6.39812e-06
6.41269e-06
6.42986e-06
6.46771e-06
6.52373e-06
6.58534e-06
6.58516e-06
6.52378e-06
6.46774e-06
6.43006e-06
6.41307e-06
6.39841e-06
6.38576e-06
6.37504e-06
6.36596e-06
6.35879e-06
6.35293e-06
6.34819e-06
6.34405e-06
6.34198e-06
6.33606e-06
6.39067e-06
6.40127e-06
6.41421e-06
6.43565e-06
6.46781e-06
6.51965e-06
6.60036e-06
6.71789e-06
6.87442e-06
7.07256e-06
7.30956e-06
7.58769e-06
7.8808e-06
8.32945e-06
8.78855e-06
8.78811e-06
8.32971e-06
7.88224e-06
7.59089e-06
7.31357e-06
7.07598e-06
6.87693e-06
6.71958e-06
6.60113e-06
6.51966e-06
6.46745e-06
6.43532e-06
6.41388e-06
6.40081e-06
6.39004e-06
6.48687e-06
6.51858e-06
6.59756e-06
6.72283e-06
6.92771e-06
7.27942e-06
7.8332e-06
8.58911e-06
9.50485e-06
1.058e-05
1.17148e-05
1.29198e-05
1.40667e-05
1.50624e-05
1.62285e-05
1.62283e-05
1.50623e-05
1.40761e-05
1.29362e-05
1.17335e-05
1.05972e-05
9.51857e-06
8.5998e-06
7.8399e-06
7.28174e-06
6.92721e-06
6.72139e-06
6.59586e-06
6.51572e-06
6.48345e-06
6.93163e-06
7.05431e-06
7.44599e-06
8.03584e-06
8.97347e-06
1.04422e-05
1.23709e-05
1.44049e-05
1.63589e-05
1.87379e-05
2.13883e-05
2.40854e-05
2.60527e-05
2.75897e-05
2.95701e-05
2.95694e-05
2.75887e-05
2.60815e-05
2.41252e-05
2.14331e-05
1.87815e-05
1.6397e-05
1.44352e-05
1.23988e-05
1.04627e-05
8.98004e-06
8.03547e-06
7.44255e-06
7.04287e-06
6.91991e-06
8.6396e-06
8.99877e-06
1.02449e-05
1.19296e-05
1.42515e-05
1.71809e-05
2.01899e-05
2.27712e-05
2.48067e-05
2.85668e-05
3.65933e-05
4.64737e-05
5.69074e-05
6.4186e-05
6.72618e-05
6.72904e-05
6.4216e-05
5.69376e-05
4.65586e-05
3.66752e-05
2.86425e-05
2.48759e-05
2.28118e-05
2.02422e-05
1.7249e-05
1.4284e-05
1.1946e-05
1.02521e-05
8.9737e-06
8.62422e-06
1.13744e-05
1.20547e-05
1.41614e-05
1.71507e-05
2.12433e-05
2.61568e-05
3.14087e-05
3.68124e-05
4.21336e-05
4.67211e-05
4.84911e-05
4.98835e-05
5.01648e-05
5.15947e-05
5.31782e-05
5.31851e-05
5.15684e-05
5.02431e-05
4.99217e-05
4.85936e-05
4.68708e-05
4.2253e-05
3.69386e-05
3.1518e-05
2.62387e-05
2.12998e-05
1.71963e-05
1.41834e-05
1.20622e-05
1.13741e-05
9.70564e-06
1.04524e-05
1.3563e-05
1.85085e-05
2.34151e-05
2.68817e-05
2.98683e-05
3.39777e-05
3.95054e-05
4.55434e-05
5.08258e-05
5.47415e-05
5.74266e-05
5.94184e-05
6.09778e-05
6.10593e-05
5.95558e-05
5.75541e-05
5.49221e-05
5.09575e-05
4.57634e-05
3.96846e-05
3.40861e-05
2.99709e-05
2.69531e-05
2.3509e-05
1.86105e-05
1.36134e-05
1.04591e-05
9.72339e-06
9.48565e-06
9.77865e-06
1.10035e-05
1.39508e-05
1.97054e-05
2.65589e-05
3.22115e-05
3.63054e-05
3.9594e-05
4.32564e-05
4.79222e-05
5.28693e-05
5.66075e-05
5.91743e-05
6.07959e-05
6.08397e-05
5.928e-05
5.667e-05
5.28494e-05
4.80241e-05
4.33871e-05
3.97588e-05
3.65037e-05
3.23067e-05
2.67351e-05
1.98255e-05
1.40148e-05
1.10163e-05
9.72844e-06
9.4459e-06
9.65833e-06
9.82986e-06
1.03383e-05
1.13373e-05
1.36312e-05
1.87699e-05
2.70065e-05
3.46745e-05
3.96837e-05
4.31671e-05
4.68526e-05
5.00822e-05
5.26667e-05
5.45775e-05
5.55389e-05
5.55802e-05
5.47029e-05
5.28357e-05
5.02455e-05
4.69842e-05
4.33255e-05
3.97987e-05
3.4803e-05
2.71777e-05
1.89331e-05
1.37203e-05
1.13799e-05
1.03676e-05
9.84932e-06
9.55693e-06
9.81718e-06
9.90716e-06
1.01861e-05
1.0617e-05
1.12884e-05
1.27014e-05
1.61218e-05
2.4092e-05
3.37309e-05
4.00195e-05
4.47794e-05
4.86214e-05
5.12645e-05
5.29875e-05
5.37555e-05
5.37861e-05
5.30127e-05
5.12969e-05
4.86919e-05
4.48637e-05
4.01494e-05
3.3984e-05
2.43296e-05
1.62929e-05
1.2764e-05
1.13195e-05
1.06161e-05
1.02032e-05
9.99617e-06
9.77164e-06
9.93275e-06
9.96661e-06
1.01507e-05
1.0403e-05
1.07607e-05
1.12317e-05
1.19579e-05
1.37319e-05
1.84354e-05
2.80443e-05
3.87234e-05
4.50619e-05
4.88836e-05
5.11232e-05
5.22879e-05
5.23414e-05
5.1149e-05
4.89362e-05
4.51682e-05
3.88415e-05
2.82543e-05
1.85996e-05
1.3793e-05
1.19906e-05
1.12259e-05
1.07594e-05
1.04026e-05
1.01293e-05
1.00057e-05
9.93651e-06
1.00159e-05
1.00027e-05
1.01264e-05
1.03306e-05
1.05655e-05
1.08523e-05
1.11823e-05
1.16441e-05
1.24359e-05
1.44753e-05
1.97782e-05
3.08905e-05
4.24894e-05
4.84684e-05
4.98785e-05
4.99248e-05
4.85017e-05
4.25195e-05
3.09512e-05
1.98926e-05
1.45049e-05
1.24669e-05
1.16471e-05
1.11731e-05
1.08593e-05
1.05642e-05
1.03508e-05
1.01181e-05
1.00193e-05
1.00213e-05
1.00405e-05
9.9987e-06
1.0079e-05
1.0244e-05
1.04434e-05
1.06283e-05
1.09089e-05
1.11375e-05
1.14579e-05
1.18795e-05
1.26991e-05
1.48141e-05
1.95576e-05
2.81745e-05
3.80246e-05
3.80281e-05
2.81766e-05
1.95883e-05
1.48322e-05
1.27076e-05
1.18903e-05
1.14577e-05
1.11515e-05
1.08956e-05
1.06339e-05
1.04332e-05
1.02497e-05
1.0091e-05
9.99562e-06
1.00443e-05
1.00145e-05
9.9407e-06
1.00234e-05
1.01303e-05
1.02841e-05
1.04417e-05
1.06394e-05
1.08287e-05
1.10481e-05
1.12565e-05
1.15174e-05
1.1881e-05
1.24982e-05
1.37761e-05
1.60106e-05
1.59977e-05
1.37879e-05
1.25078e-05
1.18839e-05
1.15175e-05
1.12521e-05
1.10441e-05
1.08267e-05
1.06419e-05
1.04391e-05
1.02926e-05
1.01303e-05
1.00247e-05
9.94858e-06
1.00069e-05
9.89769e-06
9.81222e-06
9.8547e-06
9.97299e-06
1.00778e-05
1.02258e-05
1.03638e-05
1.05132e-05
1.06577e-05
1.08145e-05
1.09682e-05
1.11046e-05
1.12541e-05
1.14465e-05
1.16695e-05
1.16492e-05
1.14414e-05
1.12612e-05
1.11013e-05
1.09685e-05
1.08228e-05
1.06747e-05
1.05209e-05
1.03545e-05
1.02186e-05
1.0092e-05
9.96972e-06
9.86362e-06
9.82354e-06
9.90132e-06
9.72336e-06
9.6541e-06
9.68634e-06
9.78024e-06
9.84313e-06
9.96552e-06
1.00656e-05
1.01749e-05
1.02851e-05
1.03865e-05
1.04669e-05
1.05437e-05
1.06177e-05
1.06669e-05
1.06943e-05
1.0702e-05
1.06773e-05
1.06241e-05
1.05561e-05
1.04745e-05
1.03751e-05
1.0266e-05
1.01741e-05
1.00641e-05
9.96952e-06
9.85596e-06
9.76306e-06
9.68635e-06
9.65795e-06
9.73988e-06
9.54786e-06
9.42461e-06
9.45766e-06
9.52178e-06
9.58501e-06
9.65836e-06
9.7336e-06
9.81317e-06
9.88341e-06
9.9333e-06
9.98229e-06
1.0033e-05
1.00659e-05
1.00804e-05
1.00794e-05
1.00854e-05
1.00768e-05
1.0052e-05
1.00299e-05
9.99464e-06
9.94667e-06
9.88948e-06
9.82319e-06
9.74416e-06
9.66386e-06
9.58881e-06
9.52557e-06
9.47044e-06
9.44842e-06
9.53587e-06
9.28596e-06
9.21084e-06
9.23466e-06
9.24472e-06
9.31891e-06
9.35873e-06
9.41849e-06
9.45844e-06
9.4825e-06
9.50958e-06
9.53757e-06
9.5415e-06
9.52933e-06
9.5281e-06
9.5275e-06
9.53316e-06
9.54033e-06
9.54327e-06
9.5458e-06
9.53776e-06
9.5125e-06
9.48089e-06
9.44104e-06
9.40534e-06
9.36041e-06
9.30799e-06
9.25644e-06
9.21875e-06
9.21222e-06
9.30044e-06
9.03938e-06
8.93805e-06
8.94501e-06
8.98897e-06
9.00434e-06
9.03728e-06
9.06528e-06
9.07689e-06
9.09004e-06
9.09761e-06
9.08641e-06
9.06206e-06
9.04152e-06
9.02766e-06
9.01376e-06
9.01056e-06
9.0229e-06
9.04318e-06
9.0665e-06
9.08659e-06
9.09728e-06
9.10199e-06
9.0942e-06
9.07399e-06
9.042e-06
9.00946e-06
8.98209e-06
8.96106e-06
8.95907e-06
9.04115e-06
8.76737e-06
8.67991e-06
8.67899e-06
8.71244e-06
8.718e-06
8.74645e-06
8.73985e-06
8.73415e-06
8.73218e-06
8.7098e-06
8.67172e-06
8.63525e-06
8.60521e-06
8.57395e-06
8.54681e-06
8.54332e-06
8.56743e-06
8.60621e-06
8.64825e-06
8.68459e-06
8.71202e-06
8.73012e-06
8.73895e-06
8.73753e-06
8.72942e-06
8.71797e-06
8.70337e-06
8.68909e-06
8.69216e-06
8.77309e-06
8.49027e-06
8.42343e-06
8.43234e-06
8.41474e-06
8.43048e-06
8.42712e-06
8.41545e-06
8.41407e-06
8.3889e-06
8.33736e-06
8.28816e-06
8.24441e-06
8.19758e-06
8.1514e-06
8.12245e-06
8.12617e-06
8.15637e-06
8.19676e-06
8.24153e-06
8.29023e-06
8.34116e-06
8.38469e-06
8.4133e-06
8.42599e-06
8.42806e-06
8.42654e-06
8.42477e-06
8.42292e-06
8.4305e-06
8.50579e-06
8.26486e-06
8.14919e-06
8.14666e-06
8.1522e-06
8.16482e-06
8.14467e-06
8.13039e-06
8.10114e-06
8.04859e-06
7.9988e-06
7.95598e-06
7.90155e-06
7.83635e-06
7.78058e-06
7.75195e-06
7.75681e-06
7.78796e-06
7.83542e-06
7.89563e-06
7.96318e-06
8.02547e-06
8.07163e-06
8.10145e-06
8.12271e-06
8.14163e-06
8.15882e-06
8.1685e-06
8.16713e-06
8.17006e-06
8.24195e-06
7.9631e-06
7.9284e-06
7.91015e-06
7.92219e-06
7.90318e-06
7.88122e-06
7.86145e-06
7.82072e-06
7.7754e-06
7.73137e-06
7.67025e-06
7.59159e-06
7.5198e-06
7.47176e-06
7.44889e-06
7.45056e-06
7.47679e-06
7.52456e-06
7.58759e-06
7.65683e-06
7.72184e-06
7.77665e-06
7.82081e-06
7.85714e-06
7.88605e-06
7.90505e-06
7.91146e-06
7.91016e-06
7.91927e-06
7.9939e-06
7.76114e-06
7.68706e-06
7.68006e-06
7.66891e-06
7.64352e-06
7.63517e-06
7.60656e-06
7.56575e-06
7.52543e-06
7.46982e-06
7.39349e-06
7.31581e-06
7.25423e-06
7.20854e-06
7.17749e-06
7.17044e-06
7.19598e-06
7.25092e-06
7.32336e-06
7.39966e-06
7.46909e-06
7.527e-06
7.57308e-06
7.60944e-06
7.63714e-06
7.6565e-06
7.66874e-06
7.67805e-06
7.69462e-06
7.76238e-06
7.55767e-06
7.46532e-06
7.47035e-06
7.45532e-06
7.44822e-06
7.43011e-06
7.38945e-06
7.35039e-06
7.30377e-06
7.23763e-06
7.16427e-06
7.09828e-06
7.0411e-06
6.99048e-06
6.95499e-06
6.95026e-06
6.98209e-06
7.041e-06
7.11086e-06
7.17862e-06
7.23899e-06
7.29323e-06
7.34268e-06
7.38591e-06
7.42017e-06
7.44465e-06
7.46063e-06
7.47123e-06
7.48487e-06
7.54282e-06
7.30666e-06
7.29487e-06
7.2715e-06
7.26348e-06
7.2593e-06
7.22487e-06
7.19067e-06
7.15697e-06
7.10639e-06
7.04362e-06
6.98125e-06
6.92026e-06
6.85822e-06
6.80219e-06
6.76741e-06
6.76615e-06
6.7979e-06
6.8514e-06
6.91374e-06
6.97683e-06
7.03863e-06
7.09913e-06
7.15518e-06
7.20119e-06
7.23352e-06
7.2535e-06
7.26551e-06
7.27448e-06
7.28829e-06
7.34339e-06
7.17317e-06
7.11574e-06
7.10457e-06
7.10005e-06
7.07497e-06
7.04205e-06
7.0189e-06
6.98478e-06
6.93629e-06
6.88324e-06
6.82608e-06
6.76096e-06
6.69412e-06
6.64058e-06
6.61323e-06
6.61735e-06
6.64886e-06
6.69802e-06
6.75624e-06
6.81815e-06
6.88026e-06
6.9389e-06
6.98937e-06
7.028e-06
7.05471e-06
7.07334e-06
7.08838e-06
7.10232e-06
7.1188e-06
7.16789e-06
7.02132e-06
6.94588e-06
6.9566e-06
6.94734e-06
6.91949e-06
6.9029e-06
6.88043e-06
6.84226e-06
6.79739e-06
6.74824e-06
6.69025e-06
6.62591e-06
6.56701e-06
6.52482e-06
6.50434e-06
6.50767e-06
6.53273e-06
6.57322e-06
6.62441e-06
6.68195e-06
6.74041e-06
6.79404e-06
6.83901e-06
6.87445e-06
6.90218e-06
6.92495e-06
6.94399e-06
6.95867e-06
6.97106e-06
7.00828e-06
6.82938e-06
6.83314e-06
6.8199e-06
6.8053e-06
6.79227e-06
6.77913e-06
6.75012e-06
6.71352e-06
6.67385e-06
6.62682e-06
6.57236e-06
6.51785e-06
6.47069e-06
6.4343e-06
6.41149e-06
6.40883e-06
6.42821e-06
6.46483e-06
6.51442e-06
6.57099e-06
6.62718e-06
6.67698e-06
6.71805e-06
6.75123e-06
6.77834e-06
6.80032e-06
6.81656e-06
6.82644e-06
6.8334e-06
6.86318e-06
6.74795e-06
6.72805e-06
6.70931e-06
6.69624e-06
6.68613e-06
6.66358e-06
6.63465e-06
6.60577e-06
6.57143e-06
6.52857e-06
6.48199e-06
6.43689e-06
6.3945e-06
6.35643e-06
6.33006e-06
6.32642e-06
6.34749e-06
6.38658e-06
6.43588e-06
6.4878e-06
6.53615e-06
6.57759e-06
6.61201e-06
6.64083e-06
6.66491e-06
6.68386e-06
6.69698e-06
6.70476e-06
6.71129e-06
6.73929e-06
6.6621e-06
6.60125e-06
6.60537e-06
6.59678e-06
6.58275e-06
6.56182e-06
6.5427e-06
6.52057e-06
6.48958e-06
6.45215e-06
6.41302e-06
6.37293e-06
6.33156e-06
6.29347e-06
6.26908e-06
6.26855e-06
6.29155e-06
6.32896e-06
6.37158e-06
6.41327e-06
6.45125e-06
6.48519e-06
6.51578e-06
6.54308e-06
6.5661e-06
6.58374e-06
6.59591e-06
6.60399e-06
6.61145e-06
6.63642e-06
6.52591e-06
6.51636e-06
6.515e-06
6.50737e-06
6.49493e-06
6.48291e-06
6.46872e-06
6.44616e-06
6.41636e-06
6.3838e-06
6.34968e-06
6.3129e-06
6.27501e-06
6.24239e-06
6.2237e-06
6.22542e-06
6.24624e-06
6.27801e-06
6.31283e-06
6.34695e-06
6.37985e-06
6.41168e-06
6.44161e-06
6.46778e-06
6.48848e-06
6.50333e-06
6.51347e-06
6.52083e-06
6.52779e-06
6.54765e-06
6.45759e-06
6.46909e-06
6.45066e-06
6.44178e-06
6.43206e-06
6.42154e-06
6.40392e-06
6.37962e-06
6.35323e-06
6.32618e-06
6.29669e-06
6.26438e-06
6.23244e-06
6.20636e-06
6.19174e-06
6.19283e-06
6.20959e-06
6.23593e-06
6.26569e-06
6.29669e-06
6.32795e-06
6.35791e-06
6.3844e-06
6.40555e-06
6.42077e-06
6.43129e-06
6.43934e-06
6.44654e-06
6.45369e-06
6.46978e-06
6.42358e-06
6.39997e-06
6.38919e-06
6.38071e-06
6.37255e-06
6.36077e-06
6.34342e-06
6.32411e-06
6.30509e-06
6.28471e-06
6.26085e-06
6.23412e-06
6.2075e-06
6.18475e-06
6.17013e-06
6.16907e-06
6.18176e-06
6.20288e-06
6.22908e-06
6.25776e-06
6.2861e-06
6.3114e-06
6.33174e-06
6.34652e-06
6.35684e-06
6.36507e-06
6.37342e-06
6.38212e-06
6.39022e-06
6.40358e-06
6.35168e-06
6.32772e-06
6.32798e-06
6.32157e-06
6.31563e-06
6.30634e-06
6.29415e-06
6.28106e-06
6.26713e-06
6.25086e-06
6.2314e-06
6.2094e-06
6.18666e-06
6.16599e-06
6.15187e-06
6.14891e-06
6.1578e-06
6.17567e-06
6.19964e-06
6.22566e-06
6.25003e-06
6.27023e-06
6.2853e-06
6.29597e-06
6.30439e-06
6.31284e-06
6.32212e-06
6.33107e-06
6.33814e-06
6.34741e-06
6.28658e-06
6.291e-06
6.2864e-06
6.28217e-06
6.27791e-06
6.27064e-06
6.26076e-06
6.24891e-06
6.2351e-06
6.21932e-06
6.20183e-06
6.18304e-06
6.16372e-06
6.14561e-06
6.13228e-06
6.12953e-06
6.1389e-06