/*--------------------------------*- C++ -*----------------------------------*\
| =========                 |                                                 |
| \\      /  F ield         | OpenFOAM: The Open Source CFD Toolbox           |
|  \\    /   O peration     | Version:  2312                                  |
|   \\  /    A nd           | Website:  www.openfoam.com                      |
|    \\/     M anipulation  |                                                 |
\*---------------------------------------------------------------------------*/
FoamFile
{
    version     2.0;
    format      ascii;
    arch        "LSB;label=32;scalar=64";
    class       volScalarField;
    location    "0.46258";
    object      p;
}
// * * * * * * * * * * * * * * * * * * * * * * * * * * * * * * * * * * * * * //

dimensions      [1 -1 -2 0 0 0 0];

internalField   nonuniform List<scalar> 
90000
(
4847.44
4847.44
4847.44
4847.44
4847.44
4847.44
4847.44
4847.44
4847.44
4847.44
4847.44
4847.44
4847.44
4847.44
4847.44
4847.44
4847.44
4847.44
4847.44
4847.44
4847.44
4847.44
4847.44
4847.44
4847.44
4847.44
4847.44
4847.44
4847.44
4847.44
4749.34
4749.34
4749.34
4749.34
4749.34
4749.34
4749.34
4749.34
4749.34
4749.34
4749.34
4749.34
4749.34
4749.34
4749.34
4749.34
4749.34
4749.34
4749.34
4749.34
4749.34
4749.34
4749.34
4749.34
4749.34
4749.34
4749.34
4749.34
4749.34
4749.34
4651.24
4651.24
4651.24
4651.24
4651.24
4651.24
4651.24
4651.24
4651.24
4651.24
4651.24
4651.24
4651.24
4651.24
4651.24
4651.24
4651.24
4651.24
4651.24
4651.24
4651.24
4651.24
4651.24
4651.24
4651.24
4651.24
4651.24
4651.24
4651.23
4651.23
4553.14
4553.14
4553.14
4553.14
4553.14
4553.14
4553.14
4553.14
4553.14
4553.14
4553.14
4553.14
4553.14
4553.14
4553.14
4553.14
4553.14
4553.14
4553.14
4553.14
4553.14
4553.14
4553.14
4553.14
4553.14
4553.14
4553.13
4553.13
4553.13
4553.13
4455.03
4455.03
4455.03
4455.03
4455.03
4455.04
4455.04
4455.04
4455.04
4455.04
4455.04
4455.04
4455.04
4455.04
4455.04
4455.04
4455.04
4455.04
4455.04
4455.04
4455.04
4455.04
4455.04
4455.04
4455.03
4455.03
4455.03
4455.03
4455.03
4455.03
4356.93
4356.93
4356.93
4356.93
4356.93
4356.93
4356.93
4356.93
4356.94
4356.94
4356.94
4356.94
4356.94
4356.94
4356.94
4356.94
4356.94
4356.94
4356.94
4356.94
4356.94
4356.94
4356.93
4356.93
4356.93
4356.93
4356.93
4356.93
4356.93
4356.93
4258.83
4258.83
4258.83
4258.83
4258.83
4258.83
4258.83
4258.83
4258.83
4258.83
4258.83
4258.84
4258.84
4258.84
4258.84
4258.84
4258.84
4258.84
4258.84
4258.84
4258.83
4258.83
4258.83
4258.83
4258.83
4258.83
4258.83
4258.83
4258.83
4258.83
4160.73
4160.73
4160.73
4160.73
4160.73
4160.73
4160.73
4160.73
4160.73
4160.73
4160.73
4160.73
4160.73
4160.74
4160.74
4160.74
4160.74
4160.74
4160.74
4160.73
4160.73
4160.73
4160.73
4160.73
4160.73
4160.73
4160.73
4160.73
4160.73
4160.73
4062.62
4062.62
4062.63
4062.63
4062.63
4062.63
4062.63
4062.63
4062.63
4062.63
4062.63
4062.63
4062.63
4062.63
4062.63
4062.63
4062.63
4062.63
4062.63
4062.63
4062.63
4062.63
4062.63
4062.63
4062.63
4062.63
4062.63
4062.63
4062.63
4062.62
3964.52
3964.52
3964.52
3964.52
3964.52
3964.52
3964.53
3964.53
3964.53
3964.53
3964.53
3964.53
3964.53
3964.53
3964.53
3964.53
3964.53
3964.53
3964.53
3964.53
3964.53
3964.53
3964.53
3964.53
3964.53
3964.52
3964.52
3964.52
3964.52
3964.52
3866.42
3866.42
3866.42
3866.42
3866.42
3866.42
3866.42
3866.42
3866.43
3866.43
3866.43
3866.43
3866.43
3866.43
3866.43
3866.43
3866.43
3866.43
3866.43
3866.43
3866.43
3866.43
3866.43
3866.42
3866.42
3866.42
3866.42
3866.42
3866.42
3866.42
3768.31
3768.31
3768.31
3768.31
3768.31
3768.32
3768.32
3768.32
3768.32
3768.33
3768.33
3768.33
3768.33
3768.33
3768.33
3768.33
3768.33
3768.33
3768.33
3768.33
3768.33
3768.33
3768.32
3768.32
3768.32
3768.32
3768.32
3768.32
3768.31
3768.31
3670.2
3670.2
3670.2
3670.21
3670.21
3670.21
3670.21
3670.22
3670.22
3670.22
3670.22
3670.23
3670.23
3670.23
3670.23
3670.23
3670.23
3670.23
3670.23
3670.23
3670.22
3670.22
3670.22
3670.22
3670.22
3670.21
3670.21
3670.21
3670.21
3670.21
3572.09
3572.09
3572.1
3572.1
3572.1
3572.1
3572.11
3572.11
3572.12
3572.12
3572.12
3572.13
3572.13
3572.13
3572.13
3572.13
3572.13
3572.13
3572.12
3572.12
3572.12
3572.12
3572.11
3572.11
3572.11
3572.11
3572.1
3572.1
3572.1
3572.1
3473.99
3473.99
3473.99
3473.99
3473.99
3474
3474
3474.01
3474.01
3474.02
3474.02
3474.02
3474.02
3474.03
3474.03
3474.03
3474.02
3474.02
3474.02
3474.02
3474.01
3474.01
3474.01
3474
3474
3474
3473.99
3473.99
3473.99
3473.99
3375.88
3375.88
3375.88
3375.88
3375.89
3375.89
3375.9
3375.9
3375.91
3375.91
3375.92
3375.92
3375.92
3375.92
3375.92
3375.92
3375.92
3375.92
3375.92
3375.91
3375.91
3375.91
3375.9
3375.9
3375.89
3375.89
3375.89
3375.88
3375.88
3375.88
3277.77
3277.77
3277.77
3277.78
3277.78
3277.79
3277.79
3277.8
3277.8
3277.81
3277.81
3277.82
3277.82
3277.82
3277.82
3277.82
3277.82
3277.82
3277.81
3277.81
3277.8
3277.8
3277.79
3277.79
3277.78
3277.78
3277.78
3277.77
3277.77
3277.77
3179.66
3179.66
3179.66
3179.67
3179.67
3179.68
3179.68
3179.69
3179.7
3179.7
3179.71
3179.71
3179.72
3179.72
3179.72
3179.72
3179.72
3179.72
3179.71
3179.71
3179.7
3179.69
3179.69
3179.68
3179.68
3179.67
3179.67
3179.66
3179.66
3179.66
3081.55
3081.55
3081.55
3081.56
3081.56
3081.57
3081.58
3081.58
3081.59
3081.6
3081.6
3081.61
3081.61
3081.62
3081.62
3081.62
3081.62
3081.61
3081.61
3081.6
3081.6
3081.59
3081.58
3081.57
3081.57
3081.56
3081.55
3081.55
3081.55
3081.54
2983.43
2983.43
2983.44
2983.44
2983.45
2983.46
2983.46
2983.47
2983.48
2983.49
2983.5
2983.51
2983.51
2983.51
2983.52
2983.52
2983.51
2983.51
2983.5
2983.5
2983.49
2983.48
2983.47
2983.46
2983.45
2983.45
2983.44
2983.43
2983.43
2983.43
2885.31
2885.31
2885.32
2885.32
2885.33
2885.34
2885.35
2885.36
2885.37
2885.38
2885.39
2885.4
2885.41
2885.41
2885.41
2885.41
2885.41
2885.41
2885.4
2885.39
2885.38
2885.37
2885.36
2885.35
2885.34
2885.33
2885.32
2885.31
2885.31
2885.31
2787.18
2787.18
2787.19
2787.2
2787.21
2787.22
2787.23
2787.24
2787.26
2787.27
2787.28
2787.29
2787.3
2787.31
2787.31
2787.31
2787.31
2787.3
2787.29
2787.28
2787.27
2787.26
2787.25
2787.23
2787.22
2787.21
2787.2
2787.19
2787.18
2787.18
2689.05
2689.05
2689.06
2689.07
2689.08
2689.09
2689.11
2689.13
2689.14
2689.16
2689.17
2689.19
2689.2
2689.2
2689.21
2689.21
2689.2
2689.2
2689.19
2689.17
2689.16
2689.14
2689.13
2689.11
2689.1
2689.08
2689.07
2689.06
2689.05
2689.05
2590.91
2590.91
2590.92
2590.93
2590.95
2590.96
2590.98
2591
2591.02
2591.04
2591.06
2591.08
2591.09
2591.1
2591.1
2591.1
2591.1
2591.09
2591.08
2591.06
2591.05
2591.03
2591.01
2590.99
2590.97
2590.95
2590.93
2590.92
2590.92
2590.91
2492.76
2492.77
2492.78
2492.79
2492.81
2492.83
2492.85
2492.88
2492.9
2492.92
2492.95
2492.97
2492.98
2492.99
2493
2493
2492.99
2492.98
2492.97
2492.95
2492.93
2492.9
2492.88
2492.85
2492.83
2492.81
2492.79
2492.78
2492.77
2492.76
2394.6
2394.61
2394.62
2394.64
2394.66
2394.69
2394.71
2394.74
2394.77
2394.8
2394.83
2394.85
2394.87
2394.88
2394.89
2394.89
2394.88
2394.87
2394.85
2394.83
2394.8
2394.77
2394.74
2394.71
2394.69
2394.66
2394.64
2394.62
2394.61
2394.6
2296.43
2296.44
2296.46
2296.48
2296.5
2296.53
2296.57
2296.6
2296.64
2296.67
2296.71
2296.73
2296.76
2296.77
2296.78
2296.78
2296.77
2296.76
2296.73
2296.71
2296.67
2296.64
2296.6
2296.57
2296.53
2296.5
2296.48
2296.45
2296.44
2296.43
2198.25
2198.26
2198.27
2198.3
2198.33
2198.37
2198.41
2198.45
2198.5
2198.54
2198.58
2198.61
2198.64
2198.66
2198.66
2198.66
2198.66
2198.64
2198.61
2198.58
2198.54
2198.5
2198.45
2198.41
2198.37
2198.33
2198.3
2198.27
2198.26
2198.25
2100.05
2100.06
2100.08
2100.11
2100.15
2100.19
2100.24
2100.29
2100.35
2100.4
2100.44
2100.48
2100.51
2100.54
2100.55
2100.55
2100.54
2100.51
2100.48
2100.44
2100.4
2100.35
2100.29
2100.24
2100.19
2100.15
2100.11
2100.08
2100.06
2100.04
2001.82
2001.83
2001.86
2001.9
2001.94
2002
2002.06
2002.12
2002.18
2002.24
2002.3
2002.35
2002.38
2002.41
2002.42
2002.42
2002.41
2002.39
2002.35
2002.3
2002.24
2002.18
2002.12
2002.06
2002
2001.94
2001.9
2001.86
2001.83
2001.82
1903.57
1903.59
1903.62
1903.66
1903.72
1903.78
1903.85
1903.93
1904.01
1904.08
1904.14
1904.2
1904.25
1904.28
1904.29
1904.29
1904.28
1904.25
1904.2
1904.15
1904.08
1904.01
1903.93
1903.85
1903.78
1903.72
1903.66
1903.61
1903.58
1903.57
1805.29
1805.31
1805.34
1805.4
1805.46
1805.54
1805.63
1805.72
1805.81
1805.89
1805.97
1806.04
1806.1
1806.13
1806.15
1806.15
1806.13
1806.1
1806.04
1805.97
1805.9
1805.81
1805.72
1805.63
1805.54
1805.46
1805.39
1805.34
1805.3
1805.29
1706.97
1706.99
1707.03
1707.1
1707.18
1707.27
1707.37
1707.48
1707.59
1707.69
1707.78
1707.87
1707.93
1707.98
1708
1708
1707.98
1707.93
1707.87
1707.78
1707.69
1707.59
1707.48
1707.37
1707.27
1707.17
1707.09
1707.03
1706.99
1706.97
1608.6
1608.63
1608.68
1608.75
1608.85
1608.96
1609.08
1609.21
1609.34
1609.46
1609.57
1609.67
1609.74
1609.8
1609.82
1609.82
1609.8
1609.74
1609.67
1609.57
1609.46
1609.34
1609.21
1609.08
1608.96
1608.85
1608.75
1608.68
1608.63
1608.6
1510.19
1510.22
1510.28
1510.36
1510.47
1510.6
1510.75
1510.9
1511.05
1511.19
1511.32
1511.44
1511.53
1511.59
1511.62
1511.62
1511.59
1511.53
1511.44
1511.32
1511.19
1511.05
1510.9
1510.75
1510.6
1510.47
1510.36
1510.28
1510.22
1510.18
1411.71
1411.74
1411.81
1411.91
1412.04
1412.19
1412.36
1412.54
1412.71
1412.88
1413.04
1413.17
1413.28
1413.35
1413.39
1413.39
1413.35
1413.28
1413.17
1413.04
1412.88
1412.71
1412.53
1412.36
1412.19
1412.04
1411.91
1411.81
1411.74
1411.71
1313.16
1313.2
1313.28
1313.4
1313.54
1313.72
1313.91
1314.11
1314.32
1314.52
1314.7
1314.85
1314.98
1315.06
1315.11
1315.11
1315.06
1314.98
1314.85
1314.7
1314.52
1314.32
1314.11
1313.91
1313.72
1313.54
1313.39
1313.28
1313.2
1313.16
1214.52
1214.57
1214.66
1214.79
1214.96
1215.16
1215.38
1215.62
1215.85
1216.08
1216.29
1216.47
1216.62
1216.72
1216.77
1216.77
1216.72
1216.62
1216.47
1216.29
1216.08
1215.85
1215.61
1215.38
1215.16
1214.96
1214.79
1214.66
1214.57
1214.52
1115.8
1115.85
1115.95
1116.1
1116.29
1116.51
1116.76
1117.02
1117.29
1117.55
1117.79
1118
1118.17
1118.28
1118.34
1118.34
1118.28
1118.17
1118
1117.79
1117.55
1117.29
1117.02
1116.76
1116.51
1116.29
1116.1
1115.95
1115.85
1115.8
1016.96
1017.02
1017.13
1017.29
1017.5
1017.75
1018.02
1018.32
1018.62
1018.91
1019.18
1019.42
1019.61
1019.74
1019.81
1019.81
1019.74
1019.61
1019.42
1019.18
1018.91
1018.62
1018.32
1018.02
1017.75
1017.5
1017.29
1017.13
1017.02
1016.96
918.017
918.077
918.194
918.365
918.586
918.85
919.148
919.469
919.799
920.123
920.426
920.692
920.906
921.056
921.133
921.133
921.055
920.905
920.691
920.425
920.122
919.798
919.468
919.147
918.849
918.585
918.364
918.193
918.076
918.016
818.946
819.007
819.124
819.296
819.521
819.793
820.103
820.442
820.794
821.145
821.476
821.768
822.006
822.173
822.259
822.259
822.172
822.005
821.768
821.475
821.144
820.793
820.441
820.102
819.791
819.52
819.295
819.123
819.006
818.945
719.75
719.807
719.914
720.074
720.286
720.548
720.854
721.195
721.557
721.923
722.274
722.588
722.846
723.029
723.123
723.123
723.028
722.846
722.588
722.273
721.922
721.556
721.194
720.853
720.547
720.285
720.073
719.913
719.806
719.75
620.437
620.481
620.562
620.687
620.861
621.084
621.357
621.673
622.022
622.385
622.742
623.068
623.34
623.535
623.637
623.637
623.535
623.339
623.068
622.741
622.384
622.021
621.673
621.356
621.083
620.859
620.686
620.561
620.48
620.436
521.03
521.049
521.079
521.135
521.228
521.369
521.563
521.812
522.107
522.435
522.773
523.095
523.369
523.571
523.677
523.677
523.57
523.369
523.094
522.773
522.435
522.107
521.811
521.562
521.368
521.227
521.134
521.078
521.048
521.029
421.578
421.555
421.498
421.434
421.385
421.373
421.418
421.53
421.711
421.952
422.23
422.516
422.774
422.971
423.077
423.077
422.971
422.774
422.515
422.229
421.951
421.711
421.529
421.417
421.372
421.384
421.433
421.497
421.554
421.577
322.119
322.025
321.832
321.577
321.299
321.038
320.831
320.707
320.683
320.757
320.911
321.114
321.326
321.501
321.6
321.6
321.5
321.326
321.114
320.911
320.757
320.682
320.706
320.83
321.037
321.298
321.576
321.831
322.025
322.118
222.765
222.549
222.146
221.595
220.954
220.292
219.673
219.157
218.782
218.565
218.488
218.528
218.638
218.761
218.838
218.838
218.761
218.638
218.528
218.487
218.565
218.781
219.156
219.673
220.291
220.954
221.594
222.145
222.549
222.764
124.174
123.764
123.042
122.024
120.791
119.444
118.093
116.85
115.809
115.041
114.496
114.197
114.083
114.08
114.094
114.095
114.08
114.083
114.197
114.496
115.042
115.809
116.85
118.092
119.443
120.791
122.024
123.042
123.763
124.173
37.6641
37.2775
36.5875
35.6019
34.3788
33.0069
31.5889
30.2466
29.0948
28.2618
27.5851
27.1522
26.876
26.755
26.7018
26.7033
26.7536
26.8766
27.1515
27.5844
28.2623
29.0948
30.2459
31.5882
33.0073
34.3783
35.6013
36.5876
37.2763
37.6636
-2.64275
-2.731
-2.91078
-3.15011
-3.43255
-3.72946
-4.01414
-4.25615
-4.43872
-4.53393
-4.59206
-4.60032
-4.58468
-4.55869
-4.54334
-4.54325
-4.55898
-4.58484
-4.60079
-4.59243
-4.53396
-4.43863
-4.2563
-4.01412
-3.72898
-3.4332
-3.15092
-2.9107
-2.7316
-2.64197
-4.97789
-4.97615
-4.97411
-4.97103
-4.96693
-4.96173
-4.95526
-4.94793
-4.94029
-4.93204
-4.92007
-4.90981
-4.90176
-4.89745
-4.8953
-4.89533
-4.89742
-4.90177
-4.90978
-4.92006
-4.93206
-4.9403
-4.94795
-4.95531
-4.9618
-4.96699
-4.9711
-4.9742
-4.97623
-4.97797
-5.07602
-5.07512
-5.07352
-5.07134
-5.06856
-5.06529
-5.06111
-5.05603
-5.0498
-5.04322
-5.03642
-5.03051
-5.02615
-5.0236
-5.02244
-5.02247
-5.02363
-5.02612
-5.03043
-5.03631
-5.04316
-5.04976
-5.05601
-5.06114
-5.06534
-5.06863
-5.07142
-5.07359
-5.07518
-5.07609
-5.17609
-5.17545
-5.17424
-5.1726
-5.17062
-5.16839
-5.16605
-5.16361
-5.16121
-5.15844
-5.155
-5.15118
-5.14789
-5.14558
-5.14425
-5.14425
-5.14558
-5.14781
-5.15101
-5.15488
-5.15838
-5.16123
-5.16366
-5.16606
-5.16845
-5.17067
-5.17267
-5.17431
-5.17552
-5.17619
-5.27784
-5.27747
-5.27676
-5.27563
-5.27423
-5.27263
-5.2709
-5.26931
-5.26847
-5.26823
-5.26787
-5.26719
-5.26629
-5.26537
-5.26471
-5.26472
-5.26538
-5.26629
-5.26718
-5.26786
-5.26825
-5.26849
-5.26932
-5.27091
-5.27268
-5.2743
-5.2757
-5.27683
-5.2775
-5.27783
-5.38028
-5.38007
-5.37967
-5.37901
-5.37821
-5.37728
-5.37619
-5.37512
-5.37435
-5.37412
-5.37414
-5.37461
-5.37518
-5.37576
-5.37624
-5.37625
-5.37575
-5.37516
-5.37459
-5.37413
-5.37413
-5.3744
-5.37516
-5.37626
-5.37735
-5.37829
-5.3791
-5.37976
-5.38018
-5.38027
-5.48315
-5.48306
-5.48288
-5.48258
-5.48218
-5.48175
-5.48126
-5.48078
-5.48035
-5.48004
-5.4798
-5.47973
-5.47994
-5.48038
-5.48081
-5.48083
-5.48037
-5.47992
-5.47973
-5.47979
-5.48006
-5.48038
-5.48082
-5.48132
-5.4818
-5.48224
-5.48265
-5.48294
-5.48316
-5.4832
-5.58623
-5.58623
-5.58619
-5.58614
-5.58605
-5.58596
-5.58585
-5.58582
-5.58577
-5.58579
-5.58573
-5.58561
-5.58544
-5.58531
-5.58528
-5.58529
-5.58531
-5.58543
-5.58559
-5.58574
-5.58579
-5.58581
-5.58585
-5.58589
-5.58602
-5.5861
-5.58622
-5.58626
-5.58631
-5.58629
-5.68935
-5.68941
-5.68947
-5.68961
-5.68975
-5.68989
-5.69012
-5.69033
-5.69058
-5.69085
-5.6911
-5.69127
-5.69127
-5.69118
-5.69108
-5.69108
-5.69119
-5.69127
-5.69125
-5.69108
-5.69086
-5.69061
-5.69036
-5.69017
-5.68995
-5.68978
-5.68967
-5.68955
-5.68947
-5.68941
-5.79242
-5.7925
-5.79266
-5.7929
-5.79321
-5.79353
-5.79397
-5.7944
-5.79489
-5.79536
-5.79582
-5.79619
-5.79644
-5.79659
-5.79661
-5.79661
-5.79661
-5.79645
-5.79619
-5.79582
-5.79537
-5.79492
-5.79444
-5.79403
-5.79358
-5.79326
-5.79295
-5.79273
-5.79256
-5.79246
-5.89529
-5.89539
-5.89562
-5.89597
-5.89636
-5.89687
-5.89744
-5.89804
-5.8987
-5.89935
-5.89997
-5.9005
-5.9009
-5.90119
-5.90131
-5.9013
-5.90119
-5.90091
-5.9005
-5.89999
-5.89938
-5.89874
-5.89811
-5.89749
-5.89692
-5.89644
-5.89601
-5.89566
-5.89545
-5.89534
-5.99791
-5.99805
-5.99831
-5.99873
-5.99921
-5.99982
-6.00049
-6.00123
-6.00202
-6.0028
-6.00353
-6.00418
-6.00468
-6.00504
-6.00521
-6.00522
-6.00505
-6.00469
-6.0042
-6.00356
-6.00283
-6.00205
-6.00132
-6.00057
-5.9999
-5.9993
-5.99878
-5.99836
-5.99811
-5.99797
-6.10028
-6.10041
-6.10071
-6.10116
-6.10171
-6.10239
-6.10314
-6.10397
-6.10483
-6.10568
-6.1065
-6.10722
-6.10779
-6.1082
-6.1084
-6.10841
-6.10821
-6.10781
-6.10725
-6.10655
-6.10574
-6.10489
-6.10405
-6.10323
-6.10247
-6.10179
-6.10121
-6.10076
-6.10047
-6.10032
-6.20226
-6.20244
-6.20277
-6.20323
-6.20383
-6.20454
-6.20535
-6.20621
-6.20711
-6.20802
-6.20888
-6.20963
-6.21024
-6.21067
-6.2109
-6.21091
-6.2107
-6.21027
-6.20968
-6.20894
-6.20808
-6.20718
-6.20629
-6.20543
-6.20463
-6.2039
-6.20329
-6.20282
-6.20251
-6.20235
-6.30399
-6.30414
-6.30447
-6.30494
-6.30556
-6.30628
-6.30709
-6.30797
-6.30889
-6.30981
-6.31068
-6.31143
-6.31204
-6.31249
-6.31271
-6.31272
-6.3125
-6.31208
-6.31149
-6.31073
-6.30987
-6.30898
-6.30807
-6.3072
-6.30637
-6.30563
-6.30501
-6.30453
-6.30421
-6.30404
-6.4053
-6.40547
-6.40581
-6.4063
-6.4069
-6.40761
-6.40841
-6.40928
-6.41019
-6.41107
-6.4119
-6.41264
-6.41325
-6.41368
-6.4139
-6.41391
-6.41371
-6.41331
-6.41273
-6.412
-6.41116
-6.41027
-6.40938
-6.40851
-6.4077
-6.40697
-6.40636
-6.40588
-6.40555
-6.40538
-6.50632
-6.50649
-6.50681
-6.50726
-6.50784
-6.50854
-6.50931
-6.51015
-6.511
-6.51185
-6.51265
-6.51336
-6.51394
-6.51434
-6.51455
-6.51456
-6.51438
-6.514
-6.51344
-6.51274
-6.51195
-6.51111
-6.51026
-6.50942
-6.50864
-6.50793
-6.50734
-6.50688
-6.50656
-6.50639
-6.60702
-6.60714
-6.60745
-6.60789
-6.60845
-6.60911
-6.60984
-6.61062
-6.61143
-6.61222
-6.61297
-6.61363
-6.61416
-6.61453
-6.61473
-6.61475
-6.61458
-6.61422
-6.6137
-6.61306
-6.61233
-6.61154
-6.61073
-6.60994
-6.60921
-6.60855
-6.60799
-6.60755
-6.60723
-6.60707
-6.70734
-6.70751
-6.7078
-6.70821
-6.70874
-6.70933
-6.71
-6.71073
-6.71147
-6.71221
-6.71289
-6.71349
-6.71397
-6.71432
-6.71451
-6.71453
-6.71437
-6.71404
-6.71357
-6.71299
-6.71232
-6.71159
-6.71084
-6.71012
-6.70944
-6.70884
-6.70831
-6.70789
-6.70759
-6.70744
-6.80746
-6.80759
-6.80784
-6.80821
-6.80868
-6.80923
-6.80986
-6.81053
-6.81122
-6.81188
-6.81249
-6.81302
-6.81346
-6.81378
-6.81396
-6.81396
-6.81381
-6.81352
-6.81311
-6.81259
-6.81198
-6.81132
-6.81064
-6.80998
-6.80936
-6.8088
-6.80832
-6.80793
-6.80767
-6.80754
-6.90728
-6.90738
-6.90762
-6.90795
-6.90839
-6.9089
-6.90947
-6.91006
-6.91066
-6.91125
-6.9118
-6.91228
-6.91268
-6.91297
-6.91311
-6.91312
-6.91298
-6.91273
-6.91237
-6.9119
-6.91136
-6.91077
-6.91017
-6.90958
-6.90902
-6.9085
-6.90807
-6.90772
-6.90749
-6.90737
-7.00684
-7.00697
-7.00717
-7.00747
-7.00785
-7.0083
-7.00879
-7.00932
-7.00987
-7.0104
-7.01089
-7.01132
-7.01166
-7.01191
-7.01204
-7.01205
-7.01194
-7.01172
-7.01139
-7.01098
-7.01051
-7.00999
-7.00947
-7.00894
-7.00843
-7.00797
-7.00757
-7.00727
-7.00706
-7.00696
-7.10625
-7.10633
-7.10651
-7.10678
-7.10711
-7.1075
-7.10795
-7.10843
-7.10891
-7.10937
-7.10979
-7.11015
-7.11045
-7.11068
-7.1108
-7.11082
-7.11072
-7.11052
-7.11023
-7.10987
-7.10946
-7.10902
-7.10856
-7.10809
-7.10763
-7.10722
-7.10687
-7.1066
-7.10642
-7.10633
-7.20544
-7.2055
-7.20567
-7.2059
-7.20619
-7.20655
-7.20694
-7.20736
-7.20777
-7.20816
-7.20852
-7.20884
-7.20911
-7.20931
-7.20943
-7.20944
-7.20935
-7.20917
-7.20891
-7.20861
-7.20826
-7.20788
-7.20747
-7.20706
-7.20666
-7.2063
-7.206
-7.20577
-7.20561
-7.20553
-7.30443
-7.30451
-7.30466
-7.30487
-7.30513
-7.30543
-7.30577
-7.30613
-7.30648
-7.30682
-7.30714
-7.30743
-7.30766
-7.30783
-7.30793
-7.30794
-7.30786
-7.3077
-7.30749
-7.30723
-7.30694
-7.3066
-7.30625
-7.30589
-7.30554
-7.30523
-7.30498
-7.30477
-7.30463
-7.30456
-7.40333
-7.40341
-7.40354
-7.40372
-7.40393
-7.40419
-7.40447
-7.40478
-7.40508
-7.40539
-7.40567
-7.40592
-7.40612
-7.40626
-7.40634
-7.40635
-7.40628
-7.40616
-7.40598
-7.40575
-7.40549
-7.4052
-7.40489
-7.40458
-7.40429
-7.40403
-7.40381
-7.40363
-7.40351
-7.40344
-7.5021
-7.50214
-7.50226
-7.50241
-7.5026
-7.50282
-7.50307
-7.50334
-7.50361
-7.50387
-7.50411
-7.50432
-7.50449
-7.50461
-7.50468
-7.50469
-7.50464
-7.50453
-7.50438
-7.50418
-7.50395
-7.5037
-7.50344
-7.50318
-7.50294
-7.50271
-7.50252
-7.50237
-7.50226
-7.50221
-7.60073
-7.60079
-7.60088
-7.60101
-7.60118
-7.60137
-7.60159
-7.60182
-7.60205
-7.60227
-7.60248
-7.60266
-7.60281
-7.60292
-7.60298
-7.60299
-7.60294
-7.60285
-7.60271
-7.60254
-7.60234
-7.60213
-7.60191
-7.60169
-7.60148
-7.6013
-7.60113
-7.60101
-7.60092
-7.60088
-7.69932
-7.69937
-7.69944
-7.69954
-7.69968
-7.69985
-7.70003
-7.70022
-7.70041
-7.7006
-7.70079
-7.70095
-7.70109
-7.70118
-7.70123
-7.70123
-7.70119
-7.70111
-7.701
-7.70085
-7.70068
-7.7005
-7.70031
-7.70012
-7.69995
-7.69979
-7.69966
-7.69956
-7.69949
-7.69946
-7.79784
-7.79786
-7.79791
-7.79799
-7.79811
-7.79824
-7.79839
-7.79856
-7.79873
-7.7989
-7.79907
-7.79922
-7.79933
-7.79941
-7.79944
-7.79943
-7.7994
-7.79934
-7.79924
-7.79912
-7.79898
-7.79881
-7.79865
-7.79849
-7.79834
-7.79821
-7.79811
-7.79804
-7.79798
-7.79795
-7.89625
-7.89627
-7.89631
-7.89638
-7.89648
-7.89659
-7.89672
-7.89687
-7.89702
-7.89718
-7.89732
-7.89745
-7.89754
-7.8976
-7.89762
-7.89762
-7.8976
-7.89755
-7.89747
-7.89736
-7.89723
-7.89709
-7.89694
-7.8968
-7.89668
-7.89658
-7.8965
-7.89644
-7.89639
-7.89637
-7.99461
-7.99463
-7.99466
-7.99472
-7.99481
-7.99491
-7.99502
-7.99515
-7.99528
-7.99541
-7.99554
-7.99564
-7.99571
-7.99576
-7.99579
-7.9958
-7.99579
-7.99575
-7.99568
-7.99558
-7.99546
-7.99533
-7.99521
-7.99509
-7.99498
-7.9949
-7.99483
-7.99478
-7.99474
-7.99472
-8.09292
-8.09294
-8.09298
-8.09303
-8.0931
-8.09319
-8.09328
-8.09339
-8.09351
-8.09362
-8.09372
-8.0938
-8.09387
-8.09392
-8.09396
-8.09397
-8.09396
-8.09392
-8.09385
-8.09377
-8.09366
-8.09355
-8.09344
-8.09334
-8.09325
-8.09317
-8.09311
-8.09306
-8.09303
-8.09301
-8.19119
-8.19121
-8.19125
-8.19129
-8.19135
-8.19142
-8.19151
-8.19161
-8.19171
-8.19181
-8.1919
-8.19198
-8.19204
-8.19209
-8.19212
-8.19213
-8.19211
-8.19207
-8.192
-8.19192
-8.19183
-8.19173
-8.19164
-8.19155
-8.19148
-8.19141
-8.19135
-8.19131
-8.19127
-8.19126
-8.28942
-8.28943
-8.28947
-8.28951
-8.28957
-8.28963
-8.28971
-8.2898
-8.28989
-8.28999
-8.29007
-8.29014
-8.29021
-8.29025
-8.29027
-8.29027
-8.29025
-8.2902
-8.29013
-8.29006
-8.28998
-8.2899
-8.28982
-8.28975
-8.28968
-8.28962
-8.28956
-8.28952
-8.28949
-8.28948
-8.38762
-8.38763
-8.38766
-8.3877
-8.38776
-8.38782
-8.38789
-8.38797
-8.38805
-8.38813
-8.38821
-8.38828
-8.38834
-8.38838
-8.3884
-8.38839
-8.38837
-8.38832
-8.38826
-8.3882
-8.38813
-8.38806
-8.38798
-8.38792
-8.38785
-8.38779
-8.38774
-8.38771
-8.38768
-8.38767
-8.48578
-8.4858
-8.48583
-8.48587
-8.48592
-8.48598
-8.48604
-8.48611
-8.48618
-8.48626
-8.48632
-8.48639
-8.48644
-8.48648
-8.4865
-8.4865
-8.48648
-8.48644
-8.48638
-8.48632
-8.48625
-8.48618
-8.48612
-8.48605
-8.48599
-8.48594
-8.4859
-8.48586
-8.48584
-8.48583
-8.58393
-8.58395
-8.58397
-8.58401
-8.58405
-8.58411
-8.58417
-8.58423
-8.5843
-8.58436
-8.58442
-8.58448
-8.58453
-8.58457
-8.58459
-8.58459
-8.58457
-8.58454
-8.58449
-8.58443
-8.58436
-8.58429
-8.58422
-8.58416
-8.5841
-8.58406
-8.58402
-8.584
-8.58398
-8.58397
-8.68207
-8.68209
-8.6821
-8.68212
-8.68216
-8.68221
-8.68227
-8.68233
-8.6824
-8.68246
-8.68251
-8.68257
-8.68261
-8.68265
-8.68266
-8.68266
-8.68265
-8.68261
-8.68256
-8.6825
-8.68244
-8.68237
-8.68231
-8.68225
-8.6822
-8.68216
-8.68213
-8.68211
-8.6821
-8.68209
-8.78019
-8.78019
-8.7802
-8.78022
-8.78025
-8.7803
-8.78036
-8.78041
-8.78047
-8.78053
-8.78058
-8.78063
-8.78067
-8.7807
-8.78071
-8.78071
-8.78069
-8.78066
-8.78061
-8.78056
-8.7805
-8.78044
-8.78038
-8.78033
-8.78028
-8.78025
-8.78022
-8.7802
-8.78018
-8.78018
-8.87825
-8.87825
-8.87826
-8.87829
-8.87833
-8.87838
-8.87843
-8.87848
-8.87853
-8.87857
-8.87862
-8.87866
-8.87869
-8.87871
-8.87872
-8.87872
-8.8787
-8.87867
-8.87863
-8.87859
-8.87854
-8.87849
-8.87844
-8.8784
-8.87836
-8.87832
-8.87829
-8.87827
-8.87825
-8.87824
-8.97628
-8.97628
-8.97631
-8.97635
-8.97639
-8.97643
-8.97648
-8.97652
-8.97656
-8.9766
-8.97663
-8.97666
-8.97669
-8.9767
-8.97671
-8.9767
-8.97669
-8.97667
-8.97664
-8.97661
-8.97658
-8.97654
-8.9765
-8.97647
-8.97643
-8.97639
-8.97635
-8.97633
-8.97631
-8.9763
-9.07432
-9.07433
-9.07436
-9.0744
-9.07444
-9.07447
-9.07451
-9.07454
-9.07457
-9.07461
-9.07464
-9.07466
-9.07468
-9.07469
-9.07469
-9.07469
-9.07468
-9.07467
-9.07466
-9.07464
-9.07462
-9.0746
-9.07456
-9.07453
-9.07449
-9.07445
-9.07441
-9.07438
-9.07436
-9.07435
-9.17238
-9.17239
-9.17242
-9.17245
-9.17247
-9.1725
-9.17253
-9.17256
-9.17259
-9.17262
-9.17265
-9.17267
-9.17268
-9.17269
-9.1727
-9.1727
-9.1727
-9.1727
-9.17269
-9.17268
-9.17267
-9.17265
-9.17262
-9.17258
-9.17254
-9.1725
-9.17246
-9.17243
-9.17241
-9.1724
-9.27046
-9.27047
-9.27048
-9.27049
-9.27051
-9.27053
-9.27056
-9.2706
-9.27063
-9.27066
-9.27068
-9.2707
-9.27071
-9.27072
-9.27073
-9.27073
-9.27074
-9.27074
-9.27074
-9.27073
-9.27072
-9.2707
-9.27067
-9.27063
-9.27059
-9.27055
-9.27051
-9.27049
-9.27047
-9.27046
-9.36852
-9.36853
-9.36853
-9.36854
-9.36855
-9.36858
-9.36862
-9.36865
-9.36869
-9.36872
-9.36874
-9.36876
-9.36876
-9.36877
-9.36878
-9.36878
-9.36878
-9.36878
-9.36878
-9.36877
-9.36876
-9.36873
-9.3687
-9.36867
-9.36864
-9.3686
-9.36857
-9.36854
-9.36853
-9.36852
-9.46658
-9.46658
-9.46658
-9.46659
-9.46662
-9.46665
-9.46669
-9.46673
-9.46677
-9.46679
-9.46681
-9.46682
-9.46683
-9.46683
-9.46683
-9.46683
-9.46683
-9.46683
-9.46682
-9.46681
-9.46679
-9.46677
-9.46674
-9.46671
-9.46668
-9.46665
-9.46663
-9.46661
-9.4666
-9.4666
-9.56465
-9.56464
-9.56465
-9.56467
-9.5647
-9.56474
-9.56479
-9.56482
-9.56485
-9.56487
-9.56488
-9.56489
-9.56489
-9.56489
-9.56489
-9.56488
-9.56488
-9.56487
-9.56486
-9.56485
-9.56483
-9.56481
-9.56479
-9.56476
-9.56474
-9.56472
-9.56471
-9.5647
-9.5647
-9.5647
-9.66275
-9.66275
-9.66276
-9.66278
-9.66281
-9.66285
-9.66288
-9.66291
-9.66293
-9.66294
-9.66295
-9.66295
-9.66295
-9.66294
-9.66294
-9.66293
-9.66293
-9.66292
-9.66291
-9.6629
-9.66288
-9.66287
-9.66286
-9.66284
-9.66283
-9.66282
-9.66281
-9.66281
-9.66281
-9.66281
-9.76091
-9.76091
-9.76092
-9.76093
-9.76094
-9.76095
-9.76097
-9.76098
-9.76098
-9.76099
-9.76099
-9.76099
-9.76099
-9.76098
-9.76098
-9.76098
-9.76098
-9.76097
-9.76097
-9.76096
-9.76096
-9.76095
-9.76095
-9.76094
-9.76094
-9.76094
-9.76094
-9.76093
-9.76093
-9.76094
4847.44
4847.44
4847.44
4847.44
4847.44
4847.44
4847.44
4847.44
4847.44
4847.44
4847.44
4847.44
4847.44
4847.44
4847.44
4847.44
4847.44
4847.44
4847.44
4847.44
4847.44
4847.44
4847.44
4847.44
4847.44
4847.44
4847.44
4847.44
4847.44
4847.44
4749.34
4749.34
4749.34
4749.34
4749.34
4749.34
4749.34
4749.34
4749.34
4749.34
4749.34
4749.34
4749.34
4749.34
4749.34
4749.34
4749.34
4749.34
4749.34
4749.34
4749.34
4749.34
4749.34
4749.34
4749.34
4749.34
4749.34
4749.34
4749.34
4749.34
4651.24
4651.24
4651.24
4651.24
4651.24
4651.24
4651.24
4651.24
4651.24
4651.24
4651.24
4651.24
4651.24
4651.24
4651.24
4651.24
4651.24
4651.24
4651.24
4651.24
4651.24
4651.24
4651.24
4651.24
4651.24
4651.24
4651.24
4651.24
4651.23
4651.24
4553.14
4553.14
4553.14
4553.14
4553.14
4553.14
4553.14
4553.14
4553.14
4553.14
4553.14
4553.14
4553.14
4553.14
4553.14
4553.14
4553.14
4553.14
4553.14
4553.14
4553.14
4553.14
4553.14
4553.14
4553.14
4553.14
4553.13
4553.13
4553.13
4553.13
4455.03
4455.03
4455.03
4455.03
4455.04
4455.04
4455.04
4455.04
4455.04
4455.04
4455.04
4455.04
4455.04
4455.04
4455.04
4455.04
4455.04
4455.04
4455.04
4455.04
4455.04
4455.04
4455.04
4455.04
4455.03
4455.03
4455.03
4455.03
4455.03
4455.03
4356.93
4356.93
4356.93
4356.93
4356.93
4356.93
4356.93
4356.94
4356.94
4356.94
4356.94
4356.94
4356.94
4356.94
4356.94
4356.94
4356.94
4356.94
4356.94
4356.94
4356.94
4356.94
4356.93
4356.93
4356.93
4356.93
4356.93
4356.93
4356.93
4356.93
4258.83
4258.83
4258.83
4258.83
4258.83
4258.83
4258.83
4258.83
4258.83
4258.83
4258.84
4258.84
4258.84
4258.84
4258.84
4258.84
4258.84
4258.84
4258.84
4258.84
4258.84
4258.83
4258.83
4258.83
4258.83
4258.83
4258.83
4258.83
4258.83
4258.83
4160.73
4160.73
4160.73
4160.73
4160.73
4160.73
4160.73
4160.73
4160.73
4160.73
4160.73
4160.73
4160.73
4160.74
4160.74
4160.74
4160.74
4160.74
4160.74
4160.73
4160.73
4160.73
4160.73
4160.73
4160.73
4160.73
4160.73
4160.73
4160.73
4160.73
4062.62
4062.63
4062.63
4062.63
4062.63
4062.63
4062.63
4062.63
4062.63
4062.63
4062.63
4062.63
4062.63
4062.63
4062.63
4062.64
4062.64
4062.63
4062.63
4062.63
4062.63
4062.63
4062.63
4062.63
4062.63
4062.63
4062.63
4062.63
4062.63
4062.62
3964.52
3964.52
3964.52
3964.52
3964.52
3964.53
3964.53
3964.53
3964.53
3964.53
3964.53
3964.53
3964.53
3964.53
3964.53
3964.53
3964.53
3964.53
3964.53
3964.53
3964.53
3964.53
3964.53
3964.53
3964.53
3964.52
3964.52
3964.52
3964.52
3964.52
3866.42
3866.42
3866.42
3866.42
3866.42
3866.42
3866.42
3866.42
3866.43
3866.43
3866.43
3866.43
3866.43
3866.43
3866.43
3866.43
3866.43
3866.43
3866.43
3866.43
3866.43
3866.43
3866.43
3866.43
3866.42
3866.42
3866.42
3866.42
3866.42
3866.42
3768.31
3768.31
3768.31
3768.31
3768.31
3768.32
3768.32
3768.32
3768.32
3768.33
3768.33
3768.33
3768.33
3768.33
3768.33
3768.33
3768.33
3768.33
3768.33
3768.33
3768.33
3768.33
3768.32
3768.32
3768.32
3768.32
3768.32
3768.32
3768.31
3768.31
3670.2
3670.2
3670.2
3670.21
3670.21
3670.21
3670.21
3670.22
3670.22
3670.22
3670.23
3670.23
3670.23
3670.23
3670.23
3670.23
3670.23
3670.23
3670.23
3670.23
3670.23
3670.22
3670.22
3670.22
3670.22
3670.21
3670.21
3670.21
3670.21
3670.21
3572.09
3572.09
3572.1
3572.1
3572.1
3572.1
3572.11
3572.11
3572.12
3572.12
3572.12
3572.13
3572.13
3572.13
3572.13
3572.13
3572.13
3572.13
3572.13
3572.12
3572.12
3572.12
3572.12
3572.11
3572.11
3572.11
3572.1
3572.1
3572.1
3572.1
3473.99
3473.99
3473.99
3473.99
3474
3474
3474
3474.01
3474.01
3474.02
3474.02
3474.02
3474.03
3474.03
3474.03
3474.03
3474.03
3474.02
3474.02
3474.02
3474.02
3474.01
3474.01
3474
3474
3474
3474
3473.99
3473.99
3473.99
3375.88
3375.88
3375.88
3375.89
3375.89
3375.89
3375.9
3375.9
3375.91
3375.91
3375.92
3375.92
3375.92
3375.92
3375.93
3375.93
3375.92
3375.92
3375.92
3375.91
3375.91
3375.91
3375.9
3375.9
3375.89
3375.89
3375.89
3375.88
3375.88
3375.88
3277.77
3277.77
3277.77
3277.78
3277.78
3277.79
3277.79
3277.8
3277.8
3277.81
3277.81
3277.82
3277.82