/*--------------------------------*- C++ -*----------------------------------*\
| =========                 |                                                 |
| \\      /  F ield         | OpenFOAM: The Open Source CFD Toolbox           |
|  \\    /   O peration     | Version:  2312                                  |
|   \\  /    A nd           | Website:  www.openfoam.com                      |
|    \\/     M anipulation  |                                                 |
\*---------------------------------------------------------------------------*/
FoamFile
{
    version     2.0;
    format      ascii;
    arch        "LSB;label=32;scalar=64";
    class       volScalarField;
    location    "0.46258";
    object      p_rgh;
}
// * * * * * * * * * * * * * * * * * * * * * * * * * * * * * * * * * * * * * //

dimensions      [1 -1 -2 0 0 0 0];

internalField   nonuniform List<scalar> 
90000
(
4896.49
4896.49
4896.49
4896.49
4896.49
4896.49
4896.49
4896.49
4896.49
4896.49
4896.49
4896.49
4896.49
4896.49
4896.49
4896.49
4896.49
4896.49
4896.49
4896.49
4896.49
4896.49
4896.49
4896.49
4896.49
4896.49
4896.49
4896.49
4896.49
4896.49
4896.49
4896.49
4896.49
4896.49
4896.49
4896.49
4896.49
4896.49
4896.49
4896.49
4896.49
4896.49
4896.49
4896.49
4896.49
4896.49
4896.49
4896.49
4896.49
4896.49
4896.49
4896.49
4896.49
4896.49
4896.49
4896.49
4896.49
4896.49
4896.5
4896.5
4896.49
4896.48
4896.49
4896.49
4896.49
4896.49
4896.49
4896.49
4896.49
4896.49
4896.49
4896.49
4896.49
4896.49
4896.49
4896.49
4896.49
4896.49
4896.49
4896.49
4896.49
4896.49
4896.49
4896.49
4896.49
4896.49
4896.49
4896.49
4896.49
4896.49
4896.48
4896.48
4896.48
4896.48
4896.49
4896.49
4896.49
4896.49
4896.49
4896.49
4896.49
4896.49
4896.49
4896.49
4896.49
4896.49
4896.49
4896.49
4896.49
4896.49
4896.49
4896.49
4896.49
4896.49
4896.49
4896.49
4896.49
4896.49
4896.49
4896.49
4896.48
4896.48
4896.48
4896.48
4896.48
4896.48
4896.49
4896.49
4896.49
4896.49
4896.49
4896.49
4896.49
4896.49
4896.49
4896.49
4896.49
4896.49
4896.49
4896.49
4896.49
4896.49
4896.49
4896.49
4896.49
4896.49
4896.48
4896.48
4896.48
4896.48
4896.48
4896.48
4896.48
4896.48
4896.48
4896.48
4896.48
4896.49
4896.49
4896.49
4896.49
4896.49
4896.49
4896.49
4896.49
4896.49
4896.49
4896.49
4896.49
4896.49
4896.49
4896.49
4896.49
4896.49
4896.48
4896.48
4896.47
4896.47
4896.47
4896.47
4896.48
4896.48
4896.48
4896.48
4896.48
4896.48
4896.48
4896.48
4896.49
4896.49
4896.49
4896.49
4896.49
4896.49
4896.49
4896.49
4896.49
4896.49
4896.49
4896.48
4896.49
4896.48
4896.48
4896.48
4896.48
4896.47
4896.47
4896.46
4896.46
4896.46
4896.48
4896.48
4896.48
4896.48
4896.48
4896.48
4896.48
4896.48
4896.48
4896.48
4896.48
4896.49
4896.49
4896.49
4896.49
4896.49
4896.49
4896.49
4896.49
4896.48
4896.48
4896.48
4896.48
4896.47
4896.47
4896.46
4896.46
4896.46
4896.46
4896.46
4896.48
4896.48
4896.48
4896.48
4896.48
4896.48
4896.48
4896.48
4896.48
4896.48
4896.48
4896.48
4896.48
4896.48
4896.49
4896.49
4896.49
4896.49
4896.49
4896.49
4896.48
4896.48
4896.47
4896.47
4896.46
4896.46
4896.46
4896.46
4896.46
4896.47
4896.47
4896.48
4896.48
4896.48
4896.48
4896.48
4896.48
4896.48
4896.47
4896.47
4896.47
4896.48
4896.48
4896.48
4896.49
4896.49
4896.49
4896.49
4896.49
4896.49
4896.48
4896.47
4896.47
4896.46
4896.46
4896.46
4896.46
4896.46
4896.46
4896.46
4896.47
4896.48
4896.48
4896.48
4896.48
4896.48
4896.48
4896.48
4896.48
4896.47
4896.47
4896.47
4896.48
4896.48
4896.48
4896.49
4896.49
4896.49
4896.49
4896.48
4896.48
4896.47
4896.47
4896.46
4896.46
4896.46
4896.46
4896.45
4896.45
4896.45
4896.47
4896.48
4896.48
4896.48
4896.48
4896.48
4896.48
4896.48
4896.48
4896.47
4896.47
4896.47
4896.47
4896.47
4896.48
4896.48
4896.48
4896.48
4896.48
4896.48
4896.48
4896.47
4896.47
4896.47
4896.47
4896.46
4896.46
4896.45
4896.45
4896.46
4896.47
4896.48
4896.48
4896.48
4896.48
4896.48
4896.48
4896.48
4896.47
4896.47
4896.47
4896.47
4896.47
4896.47
4896.47
4896.47
4896.47
4896.48
4896.48
4896.48
4896.49
4896.49
4896.49
4896.49
4896.48
4896.47
4896.47
4896.46
4896.47
4896.47
4896.46
4896.46
4896.46
4896.47
4896.47
4896.47
4896.47
4896.47
4896.47
4896.47
4896.47
4896.47
4896.47
4896.47
4896.47
4896.47
4896.47
4896.48
4896.48
4896.49
4896.5
4896.5
4896.5
4896.5
4896.49
4896.48
4896.48
4896.48
4896.48
4896.47
4896.45
4896.43
4896.44
4896.44
4896.44
4896.44
4896.45
4896.45
4896.46
4896.47
4896.47
4896.48
4896.48
4896.47
4896.47
4896.47
4896.47
4896.48
4896.49
4896.5
4896.5
4896.5
4896.5
4896.49
4896.48
4896.48
4896.48
4896.47
4896.46
4896.44
4896.42
4896.39
4896.4
4896.4
4896.41
4896.42
4896.43
4896.45
4896.46
4896.48
4896.48
4896.48
4896.48
4896.47
4896.47
4896.47
4896.47
4896.47
4896.48
4896.48
4896.48
4896.47
4896.47
4896.46
4896.46
4896.46
4896.45
4896.44
4896.42
4896.41
4896.39
4896.36
4896.37
4896.38
4896.39
4896.4
4896.42
4896.45
4896.46
4896.48
4896.48
4896.48
4896.48
4896.47
4896.46
4896.46
4896.46
4896.46
4896.46
4896.46
4896.45
4896.44
4896.44
4896.44
4896.44
4896.43
4896.42
4896.4
4896.39
4896.39
4896.37
4896.34
4896.36
4896.37
4896.38
4896.4
4896.42
4896.44
4896.46
4896.47
4896.47
4896.47
4896.46
4896.46
4896.46
4896.46
4896.46
4896.45
4896.44
4896.43
4896.43
4896.42
4896.43
4896.42
4896.42
4896.4
4896.38
4896.37
4896.38
4896.39
4896.36
4896.34
4896.35
4896.36
4896.38
4896.4
4896.41
4896.43
4896.44
4896.45
4896.46
4896.46
4896.46
4896.46
4896.47
4896.47
4896.46
4896.45
4896.44
4896.43
4896.43
4896.42
4896.42
4896.41
4896.39
4896.38
4896.37
4896.37
4896.38
4896.39
4896.35
4896.34
4896.35
4896.36
4896.38
4896.39
4896.41
4896.42
4896.43
4896.44
4896.45
4896.46
4896.47
4896.47
4896.48
4896.47
4896.46
4896.45
4896.44
4896.43
4896.43
4896.42
4896.41
4896.39
4896.37
4896.36
4896.36
4896.37
4896.37
4896.37
4896.34
4896.33
4896.34
4896.36
4896.37
4896.39
4896.4
4896.42
4896.42
4896.43
4896.44
4896.46
4896.47
4896.48
4896.48
4896.47
4896.46
4896.45
4896.44
4896.43
4896.42
4896.41
4896.38
4896.36
4896.36
4896.36
4896.36
4896.36
4896.35
4896.34
4896.32
4896.32
4896.33
4896.35
4896.37
4896.38
4896.4
4896.4
4896.41
4896.42
4896.44
4896.45
4896.46
4896.47
4896.47
4896.46
4896.46
4896.45
4896.44
4896.43
4896.41
4896.39
4896.37
4896.36
4896.35
4896.35
4896.35
4896.33
4896.31
4896.31
4896.29
4896.3
4896.31
4896.33
4896.35
4896.36
4896.38
4896.39
4896.4
4896.41
4896.43
4896.44
4896.45
4896.46
4896.46
4896.46
4896.45
4896.45
4896.44
4896.42
4896.39
4896.37
4896.36
4896.36
4896.35
4896.34
4896.32
4896.3
4896.29
4896.29
4896.26
4896.27
4896.28
4896.3
4896.32
4896.33
4896.35
4896.36
4896.38
4896.4
4896.41
4896.43
4896.44
4896.44
4896.45
4896.45
4896.45
4896.44
4896.42
4896.4
4896.38
4896.36
4896.36
4896.35
4896.34
4896.31
4896.29
4896.27
4896.27
4896.28
4896.22
4896.23
4896.24
4896.26
4896.27
4896.29
4896.31
4896.33
4896.35
4896.38
4896.39
4896.41
4896.42
4896.43
4896.44
4896.44
4896.44
4896.42
4896.4
4896.38
4896.37
4896.36
4896.35
4896.33
4896.3
4896.28
4896.26
4896.25
4896.25
4896.25
4896.16
4896.17
4896.18
4896.2
4896.22
4896.24
4896.26
4896.29
4896.32
4896.35
4896.37
4896.39
4896.41
4896.42
4896.44
4896.44
4896.43
4896.42
4896.4
4896.38
4896.37
4896.35
4896.32
4896.29
4896.25
4896.23
4896.21
4896.21
4896.21
4896.19
4896.09
4896.1
4896.11
4896.12
4896.15
4896.17
4896.21
4896.24
4896.28
4896.31
4896.34
4896.37
4896.4
4896.42
4896.44
4896.44
4896.43
4896.41
4896.39
4896.37
4896.34
4896.3
4896.26
4896.22
4896.19
4896.16
4896.15
4896.14
4896.12
4896.1
4896
4896.01
4896.02
4896.04
4896.07
4896.1
4896.14
4896.18
4896.23
4896.27
4896.31
4896.35
4896.39
4896.41
4896.42
4896.42
4896.4
4896.38
4896.36
4896.32
4896.28
4896.23
4896.18
4896.13
4896.1
4896.07
4896.06
4896.04
4896.01
4896
4895.89
4895.9
4895.92
4895.94
4895.97
4896.02
4896.06
4896.12
4896.17
4896.22
4896.27
4896.32
4896.36
4896.38
4896.39
4896.39
4896.37
4896.35
4896.31
4896.27
4896.21
4896.15
4896.1
4896.05
4896.01
4895.99
4895.96
4895.92
4895.9
4895.9
4895.77
4895.78
4895.8
4895.83
4895.87
4895.92
4895.97
4896.03
4896.1
4896.16
4896.23
4896.28
4896.32
4896.34
4896.35
4896.35
4896.34
4896.31
4896.27
4896.21
4896.15
4896.09
4896.02
4895.97
4895.93
4895.89
4895.85
4895.81
4895.79
4895.79
4895.62
4895.63
4895.65
4895.69
4895.74
4895.8
4895.87
4895.94
4896.02
4896.09
4896.16
4896.22
4896.27
4896.3
4896.32
4896.32
4896.3
4896.27
4896.23
4896.16
4896.09
4896.01
4895.94
4895.88
4895.83
4895.76
4895.7
4895.67
4895.65
4895.63
4895.43
4895.45
4895.48
4895.53
4895.59
4895.66
4895.74
4895.82
4895.91
4896
4896.08
4896.15
4896.21
4896.26
4896.28
4896.29
4896.27
4896.24
4896.18
4896.1
4896.01
4895.92
4895.83
4895.76
4895.68
4895.58
4895.53
4895.49
4895.46
4895.43
4895.22
4895.24
4895.28
4895.34
4895.4
4895.48
4895.57
4895.67
4895.78
4895.89
4895.99
4896.08
4896.16
4896.21
4896.24
4896.24
4896.22
4896.18
4896.1
4896.01
4895.9
4895.8
4895.7
4895.59
4895.48
4895.38
4895.33
4895.27
4895.22
4895.2
4894.96
4894.99
4895.03
4895.1
4895.18
4895.27
4895.38
4895.5
4895.63
4895.76
4895.88
4895.99
4896.08
4896.13
4896.16
4896.17
4896.14
4896.08
4895.99
4895.88
4895.76
4895.65
4895.52
4895.38
4895.26
4895.16
4895.09
4895.02
4894.95
4894.94
4894.64
4894.68
4894.73
4894.81
4894.9
4895.02
4895.15
4895.3
4895.45
4895.6
4895.74
4895.87
4895.96
4896.03
4896.07
4896.08
4896.04
4895.97
4895.86
4895.75
4895.62
4895.48
4895.32
4895.16
4895.04
4894.92
4894.81
4894.72
4894.66
4894.64
4894.27
4894.3
4894.36
4894.46
4894.57
4894.72
4894.88
4895.05
4895.23
4895.4
4895.57
4895.71
4895.82
4895.9
4895.95
4895.96
4895.91
4895.83
4895.72
4895.59
4895.44
4895.27
4895.08
4894.91
4894.76
4894.59
4894.46
4894.36
4894.29
4894.25
4893.81
4893.85
4893.93
4894.04
4894.18
4894.35
4894.54
4894.74
4894.95
4895.15
4895.34
4895.5
4895.63
4895.73
4895.78
4895.78
4895.72
4895.63
4895.52
4895.37
4895.18
4894.97
4894.77
4894.57
4894.38
4894.19
4894.05
4893.94
4893.86
4893.82
4893.28
4893.32
4893.41
4893.54
4893.71
4893.91
4894.12
4894.35
4894.58
4894.82
4895.04
4895.22
4895.37
4895.48
4895.53
4895.53
4895.48
4895.38
4895.25
4895.07
4894.83
4894.6
4894.37
4894.12
4893.89
4893.69
4893.54
4893.41
4893.31
4893.29
4892.64
4892.7
4892.8
4892.95
4893.14
4893.35
4893.6
4893.86
4894.14
4894.4
4894.65
4894.85
4895.02
4895.14
4895.21
4895.21
4895.15
4895.04
4894.88
4894.65
4894.39
4894.14
4893.87
4893.59
4893.35
4893.13
4892.94
4892.8
4892.7
4892.67
4891.91
4891.98
4892.09
4892.25
4892.45
4892.69
4892.97
4893.27
4893.58
4893.87
4894.14
4894.37
4894.57
4894.71
4894.78
4894.78
4894.72
4894.58
4894.39
4894.13
4893.87
4893.59
4893.28
4892.98
4892.73
4892.48
4892.26
4892.11
4892
4891.94
4891.07
4891.15
4891.26
4891.42
4891.64
4891.9
4892.2
4892.53
4892.86
4893.18
4893.48
4893.75
4893.98
4894.13
4894.21
4894.19
4894.13
4893.97
4893.75
4893.48
4893.19
4892.87
4892.52
4892.21
4891.92
4891.63
4891.42
4891.26
4891.15
4891.07
4890.11
4890.18
4890.29
4890.45
4890.67
4890.94
4891.26
4891.6
4891.95
4892.29
4892.62
4892.92
4893.17
4893.33
4893.41
4893.4
4893.33
4893.16
4892.94
4892.65
4892.33
4891.97
4891.6
4891.28
4890.96
4890.67
4890.47
4890.31
4890.18
4890.09
4889.02
4889.07
4889.17
4889.33
4889.54
4889.81
4890.11
4890.46
4890.81
4891.17
4891.53
4891.85
4892.11
4892.28
4892.37
4892.38
4892.31
4892.12
4891.86
4891.54
4891.19
4890.8
4890.44
4890.12
4889.79
4889.52
4889.35
4889.2
4889.06
4889.01
4887.8
4887.84
4887.92
4888.05
4888.22
4888.45
4888.72
4889.03
4889.37
4889.73
4890.1
4890.42
4890.69
4890.89
4890.99
4891.02
4890.91
4890.71
4890.42
4890.09
4889.73
4889.36
4889.03
4888.73
4888.42
4888.22
4888.07
4887.95
4887.82
4887.81
4886.48
4886.51
4886.53
4886.59
4886.69
4886.82
4887.01
4887.26
4887.56
4887.89
4888.22
4888.55
4888.81
4889.03
4889.14
4889.16
4889.03
4888.82
4888.55
4888.23
4887.88
4887.57
4887.29
4887.02
4886.81
4886.7
4886.61
4886.54
4886.49
4886.49
4885.13
4885.1
4885.05
4884.98
4884.93
4884.92
4884.96
4885.07
4885.25
4885.49
4885.77
4886.06
4886.31
4886.51
4886.61
4886.62
4886.5
4886.3
4886.05
4885.77
4885.48
4885.25
4885.08
4884.96
4884.91
4884.93
4884.98
4885.04
4885.09
4885.13
4883.75
4883.65
4883.46
4883.21
4882.93
4882.67
4882.47
4882.35
4882.32
4882.4
4882.55
4882.75
4882.97
4883.15
4883.24
4883.25
4883.14
4882.97
4882.76
4882.55
4882.39
4882.32
4882.35
4882.46
4882.66
4882.93
4883.21
4883.46
4883.65
4883.74
4882.15
4881.92
4881.55
4881.02
4880.42
4879.81
4879.25
4878.76
4878.42
4878.25
4878.19
4878.22
4878.32
4878.44
4878.53
4878.54
4878.44
4878.33
4878.24
4878.18
4878.25
4878.43
4878.78
4879.25
4879.81
4880.43
4881.03
4881.54
4881.92
4882.15
4876.76
4876.2
4875.63
4874.79
4873.85
4872.99
4872.3
4871.87
4871.69
4871.69
4871.74
4871.42
4870.81
4870.59
4870.59
4870.58
4870.58
4870.8
4871.41
4871.73
4871.69
4871.7
4871.88
4872.3
4872.99
4873.86
4874.79
4875.63
4876.21
4876.77
3820.37
3796.39
3756.82
3697.77
3623.09
3537.79
3448.17
3361.67
3284.96
3228.21
3180.31
3146.29
3121.08
3105.94
3098.06
3098.18
3105.87
3121.18
3146.34
3180.33
3228.23
3284.91
3361.63
3448.08
3537.75
3623.16
3697.88
3756.87
3796.36
3820.24
228.53
219.235
200.651
175.843
146.44
115.388
85.3266
59.2979
38.9996
28.3212
18.9633
15.1887
13.8015
15.4646
16.6709
16.7027
15.4176
13.8005
15.1284
18.9219
28.3274
39.0126
59.273
85.3315
115.456
146.373
175.76
200.676
219.175
228.626
0.0746672
0.0763834
0.0784441
0.0816007
0.0857932
0.0916741
0.10262
0.132451
0.214413
0.405283
0.572635
0.604233
0.599193
0.595825
0.586818
0.587342
0.595439
0.598684
0.60255
0.57061
0.402241
0.213444
0.132316
0.102478
0.0915514
0.085711
0.0815112
0.0783408
0.0763014
0.0745822
0.0754324
0.0766941
0.082406
0.0866409
0.0920938
0.116595
0.134007
0.140749
0.166759
0.229952
0.332009
0.313679
0.320528
0.306369
0.305016
0.305336
0.306438
0.321112
0.312722
0.331097
0.228487
0.165732
0.140849
0.134469
0.116999
0.0919357
0.0864512
0.0823582
0.0766532
0.0754293
0.0723268
0.0730488
0.0743976
0.0765816
0.0797343
0.0875238
0.0962515
0.0972969
0.144165
0.282456
0.304114
0.286167
0.285135
0.28119
0.262307
0.263105
0.281839
0.285553
0.286652
0.305671
0.284046
0.14473
0.0975017
0.0965471
0.0876752
0.0797073
0.0765206
0.0743234
0.0729795
0.0722208
0.0686094
0.0689771
0.0696867
0.0708212
0.0722258
0.0738488
0.0756579
0.0776558
0.0878108
0.158991
0.233817
0.267404
0.263914
0.264243
0.268527
0.268534
0.265061
0.264673
0.268356
0.235837
0.161338
0.0888628
0.0776783
0.075655
0.0738
0.0721545
0.0707522
0.0696242
0.0689485
0.06862
0.0642742
0.0644788
0.0648764
0.0655419
0.0663365
0.0672728
0.0683699
0.0694643
0.0704476
0.0716275
0.0855258
0.113233
0.131811
0.145968
0.137234
0.136421
0.146054
0.132456
0.114285
0.0862711
0.0716407
0.0704064
0.0694348
0.0682977
0.0671986
0.066258
0.0654526
0.064793
0.0643733
0.0642831
0.0595046
0.0595878
0.0597735
0.0600714
0.0604679
0.0608994
0.0613936
0.0618693
0.0623154
0.0626962
0.0631717
0.0638001
0.0644817
0.0651991
0.0654131
0.065383
0.0652127
0.0645072
0.0638184
0.0631879
0.0626827
0.0622835
0.0618304
0.0613317
0.0608458
0.0604115
0.0600009
0.0597096
0.0594933
0.0594508
0.0545241
0.0545241
0.0545615
0.0546107
0.0547
0.0547872
0.0548953
0.0549338
0.0549774
0.0549692
0.0550418
0.0552051
0.0554695
0.05576
0.0559244
0.0559181
0.055759
0.0554793
0.0552247
0.0550309
0.0549662
0.0549404
0.0549028
0.0548607
0.0547263
0.054647
0.0545272
0.0544919
0.0544446
0.0544571
0.0494961
0.0494428
0.0493792
0.0492444
0.0491049
0.048961
0.0487284
0.0485248
0.0482725
0.0479993
0.0477559
0.0475885
0.0475897
0.0476905
0.0478029
0.0478062
0.0476834
0.0475871
0.047606
0.0477666
0.0479862
0.0482408
0.0484873
0.0486846
0.0488995
0.049069
0.0491784
0.0493022
0.0493829
0.0494431
0.0445296
0.0444498
0.0442871
0.0440522
0.0437404
0.0434179
0.0429754
0.0425482
0.0420565
0.0415857
0.0411341
0.0407568
0.0405073
0.0403644
0.0403411
0.0403419
0.0403436
0.0405049
0.0407623
0.0411335
0.0415763
0.0420274
0.0425092
0.0429187
0.0433665
0.0436944
0.0439966
0.0442214
0.044391
0.0444926
0.0397595
0.0396573
0.0394292
0.0390815
0.0386873
0.0381764
0.0376138
0.0370124
0.0363517
0.0356979
0.0350786
0.0345521
0.0341458
0.0338636
0.0337389
0.033748
0.0338563
0.0341397
0.0345531
0.0350641
0.03567
0.0363085
0.0369411
0.037555
0.0381348
0.0386115
0.0390424
0.0393852
0.0395984
0.0397122
0.0352412
0.0351043
0.0348405
0.0344187
0.0339388
0.0333254
0.0326607
0.0319179
0.031133
0.0303548
0.0296184
0.0289748
0.0284691
0.0281113
0.0279368
0.0279293
0.0280991
0.0284552
0.0289528
0.0295864
0.0303218
0.0310972
0.0318344
0.0325793
0.0332479
0.0338534
0.0343744
0.0347867
0.0350442
0.035178
0.030969
0.030845
0.0305406
0.0300867
0.0295392
0.0288623
0.0281062
0.0272808
0.026423
0.0255671
0.0247511
0.0240347
0.0234559
0.0230462
0.0228466
0.0228366
0.0230372
0.023441
0.0240007
0.0247035
0.0255102
0.0263597
0.0271954
0.0280222
0.0287778
0.029461
0.0300393
0.0304891
0.0307806
0.0309307
0.0270887
0.0269122
0.0265771
0.0261164
0.0255231
0.0248105
0.0240017
0.0231386
0.0222394
0.0213333
0.0204702
0.0197203
0.0191131
0.0186753
0.0184531
0.0184403
0.0186542
0.0190781
0.019666
0.0204086
0.0212696
0.0221661
0.0230589
0.0239174
0.0247202
0.0254462
0.0260597
0.0265294
0.0268387
0.0270004
0.0234576
0.0233121
0.0229801
0.0225052
0.0218924
0.0211669
0.0203551
0.0194816
0.0185611
0.01764
0.0167746
0.0160222
0.0154076
0.0149624
0.0147371
0.0147333
0.0149487
0.015368
0.0159638
0.0167157
0.0175774
0.0184721
0.0193751
0.020253
0.0210801
0.0218206
0.0224407
0.022918
0.0232409
0.0234111
0.0202512
0.0200781
0.0197412
0.0192527
0.0186499
0.0179396
0.0171419
0.0162694
0.0153631
0.0144786
0.0136516
0.0129121
0.0122982
0.0118656
0.0116483
0.0116424
0.0118443
0.0122434
0.0128205
0.0135527
0.0143929
0.0152787
0.0161721
0.0170405
0.0178535
0.01858
0.019194
0.0196725
0.0199986
0.020168
0.0173269
0.0171623
0.0168402
0.0163868
0.0158053
0.0151088
0.014336
0.013504
0.0126481
0.0118032
0.0110015
0.0102891
0.00971
0.00930839
0.00910356
0.00909054
0.0092733
0.00965046
0.0102052
0.0109062
0.0117015
0.0125424
0.0133938
0.0142275
0.0150124
0.0157158
0.0163096
0.0167729
0.0170939
0.0172624
0.0147337
0.0146059
0.0143038
0.0138646
0.0132952
0.0126376
0.0119114
0.0111282
0.0103224
0.0095281
0.00877766
0.00811754
0.0075886
0.00721848
0.00701925
0.00699868
0.00716953
0.00752817
0.00804549
0.00868638
0.00941687
0.0102053
0.0110156
0.011808
0.0125449
0.0131988
0.0137555
0.0142025
0.0145201
0.0146846
0.0125061
0.0123399
0.012054
0.011636
0.0111134
0.0105165
0.00984816
0.00912405
0.00837663
0.00764218
0.00695817
0.00636277
0.00588024
0.00553015
0.00533584
0.00531841
0.00548287
0.00581236
0.00627828
0.00685719
0.00752742
0.0082582
0.00900776
0.00973486
0.0104088
0.0110134
0.0115387
0.0119647
0.012262
0.0124091
0.0104888
0.0103626
0.0101063
0.00973847
0.00927468
0.00871848
0.00808853
0.00741593
0.0067346
0.00607455
0.00546478
0.00493061
0.00448986
0.00416738
0.00399452
0.00398811
0.0041399
0.00443016
0.00484117
0.00536013
0.00596747
0.00662987
0.00730817
0.00796873
0.00858783
0.00914846
0.00963312
0.010018
0.0102805
0.0104105
0.00877341
0.00867311
0.00843234
0.0080973
0.00766054
0.00714576
0.00658219
0.00599142
0.00539002
0.00479935
0.00424928
0.00376578
0.00336836
0.00308305
0.00293631
0.00293477
0.00306603
0.00331714
0.00368055
0.00414588
0.00468997
0.00527896
0.005881
0.00647281
0.00703495
0.00754629
0.00798415
0.00832703
0.0085606
0.00867947
0.00731273
0.00718432
0.00698134
0.00667928
0.0062969
0.00585023
0.00535559
0.00482719
0.00428102
0.00374645
0.00325599
0.00283122
0.00248587
0.00223848
0.00210793
0.00210002
0.00220991
0.00243093
0.00275541
0.00316803
0.00364368
0.004155
0.00468139
0.0052079
0.00571625
0.00618135
0.00657707
0.00688327
0.00708959
0.0071934
0.00600448
0.00591563
0.00573513
0.00546998
0.00514148
0.00474661
0.0043011
0.00382411
0.00334016
0.00287827
0.00245959
0.00209567
0.00179532
0.00157313
0.00144739
0.00143058
0.00152665
0.00172795
0.00201884
0.00237874
0.00278735
0.00322863
0.00369075
0.00416059
0.00461723
0.00503311
0.00538258
0.00564914
0.00582674
0.00591531
0.00491438
0.00485346
0.00467891
0.0044516
0.00415795
0.00380416
0.00340766
0.00299055
0.00257877
0.00218834
0.00182784
0.00150733
0.00123962
0.00103959
0.00092491
0.000911195
0.00100182
0.00118425
0.00143741
0.00174249
0.00208859
0.00246925
0.0028755
0.00329097
0.00369183
0.00405252
0.00435334
0.00458366
0.00473982
0.00482012
0.00402483
0.00393609
0.00378507
0.00358233
0.00332179
0.00301694
0.00267652
0.00232142
0.00197034
0.00162974
0.0013078
0.00102125
0.00078691
0.000616897
0.000522603
0.00051477
0.000593863
0.000747888
0.00095948
0.00121622
0.00151315
0.00184577
0.00220257
0.0025642
0.00290827
0.00321574
0.00347426
0.00367674
0.00381805
0.00389243
0.00321681
0.00314387
0.00301234
0.00283378
0.0026169
0.00236375
0.00207608
0.00177256
0.00146555
0.00116293
0.000878396
0.000630218
0.000432191
0.000291384
0.000213194
0.000204512
0.000266069
0.000392318
0.00057223
0.000796471
0.00105873
0.00135082
0.00165912
0.0019664
0.0022564
0.00251709
0.00274023
0.0029186
0.00304418
0.00310887
0.00255432
0.00250626
0.00238686
0.00223553
0.00205119
0.00182809
0.00157596
0.00130939
0.00103942
0.000777641
0.000536449
0.000327039
0.000157991
3.59539e-05
-3.28669e-05
-4.26955e-05
8.01791e-06
0.000116548
0.000274992
0.000473797
0.000703534
0.000954077
0.00121376
0.00147068
0.00171447
0.00193654
0.00212881
0.00228256
0.00238913
0.00244169
0.00201839
0.00196359
0.00186819
0.00174031
0.00157462
0.00137565
0.00115646
0.000926707
0.00069679
0.000476978
0.000273533
9.14075e-05
-6.06054e-05
-0.000171155
-0.000231568
-0.000238197
-0.00019175
-9.65082e-05
4.06967e-05
0.000211758
0.000407993
0.000620353
0.000839799
0.00105751
0.0012651
0.00145436
0.00161674
0.00174415
0.00183035
0.00187181
0.00152744
0.00147869
0.00141211
0.00130739
0.00116734
0.00100195
0.00082106
0.000630092
0.000436509
0.000246497
6.46083e-05
-0.000101468
-0.000238744
-0.000334222
-0.000381395
-0.00038175
-0.000339799
-0.000260142
-0.000146399
-2.64405e-06
0.000165091
0.000348531
0.000538457
0.00072588
0.000902211
0.00105927
0.0011902
0.00129044
0.00135755
0.00139081
0.00111349
0.00108962
0.00103773
0.000956208
0.000842319
0.00070625
0.000555281
0.000393175
0.000223036
4.91491e-05
-0.000119464
-0.000268688
-0.000383965
-0.000457013
-0.000488312
-0.000483915
-0.000449612
-0.000386741
-0.000294128
-0.000172196
-2.5771e-05
0.000136134
0.000302728
0.000463442
0.000610407
0.000736238
0.000837881
0.000914702
0.000967031
0.000995339
0.000800631
0.000782845
0.00074077
0.000673105
0.000574539
0.000456652
0.000325896
0.000184428
3.23424e-05
-0.00012519
-0.00027484
-0.00040038
-0.000491022
-0.000545478
-0.00056947
-0.000568454
-0.000545791
-0.000497688
-0.000420293
-0.000313293
-0.00018243
-3.79131e-05
0.000108455
0.000246943
0.000368509
0.000470084
0.000550773
0.000612099
0.00065513
0.000680202
0.000541641
0.000523493
0.000489382
0.000426396
0.000339629
0.000238451
0.000126543
4.14374e-06
-0.000127967
-0.000262516
-0.000386408
-0.000487684
-0.00056155
-0.000610495
-0.000639025
-0.000648073
-0.000636118
-0.000597236
-0.000527941
-0.000430586
-0.000312526
-0.000184013
-5.56037e-05
6.38086e-05
0.000167423
0.000253506
0.000322165
0.000374855
0.000412406
0.00043442
0.000325299
0.000308365
0.000274717
0.000216784
0.000145326
6.23574e-05
-3.27753e-05
-0.000140145
-0.000255069
-0.000368236
-0.000469941
-0.00055461
-0.000621392
-0.000671973
-0.000706353
-0.000720315
-0.000710093
-0.000671555
-0.000604984
-0.000515234
-0.000409895
-0.000298118
-0.000187981
-8.55707e-05
4.3848e-06
8.04704e-05
0.000142384
0.000190274
0.000223999
0.000242738
0.000159338
0.000143389
0.000104897
5.5642e-05
-1.76858e-06
-7.13977e-05
-0.000156505
-0.000255255
-0.000359661
-0.000460173
-0.000550194
-0.000627142
-0.000690997
-0.000740644
-0.000772214
-0.000780645
-0.000762667
-0.00071851
-0.000651969
-0.000569471
-0.000478058
-0.000383866
-0.000291651
-0.00020492
-0.000126335
-5.76778e-05
-3.27582e-07
4.44518e-05
7.54796e-05
9.1382e-05
3.12342e-05
1.64296e-05
-2.10305e-05
-6.39893e-05
-0.000115537
-0.000179471
-0.000258236
-0.000349144
-0.000444157
-0.000535902
-0.000619906
-0.000693878
-0.000755439
-0.000800594
-0.00082441
-0.00082331
-0.000796935
-0.000748712
-0.000684485
-0.000610512
-0.00053193
-0.000452308
-0.000374015
-0.000298922
-0.000228876
-0.000165998
-0.000112516
-7.05184e-05
-4.16132e-05
-2.78362e-05
-6.52378e-05
-7.74745e-05
-0.000110741
-0.000154017
-0.000205635
-0.000267588
-0.000339734
-0.00041976
-0.000502233
-0.000583641
-0.000660912
-0.000730921
-0.000789116
-0.000830156
-0.000849388
-0.000844761
-0.000817454
-0.000771752
-0.000713166
-0.000646849
-0.000576632
-0.000505054
-0.000434023
-0.000365298
-0.00030087
-0.000243028
-0.000194157
-0.000156281
-0.000130606
-0.00011903
-0.00013131
-0.0001459
-0.000176291
-0.000218415
-0.000269016
-0.000328513
-0.000394562
-0.000464123
-0.000534999
-0.000605834
-0.000674635
-0.000738186
-0.000791896
-0.00083068
-0.000850233
-0.000848491
-0.000826248
-0.000786563
-0.000733652
-0.000671723
-0.000604402
-0.000534833
-0.000466058
-0.000400549
-0.000340775
-0.000288867
-0.000246431
-0.000214637
-0.000193713
-0.000184386
-0.000182264
-0.000198938
-0.00022457
-0.000258065
-0.000302383
-0.000357457
-0.000419374
-0.000484159
-0.000549162
-0.000613127
-0.000674846
-0.000732182
-0.000781576
-0.000818279
-0.000838659
-0.000840022
-0.000822058
-0.000786327
-0.000736233
-0.000675328
-0.000607897
-0.000538336
-0.000470692
-0.000408361
-0.000353938
-0.000308974
-0.000273857
-0.000248375
-0.000232195
-0.000224495
-0.000223212
-0.00023717
-0.000251259
-0.00027376
-0.000310746
-0.000361555
-0.000420982
-0.000483661
-0.00054624
-0.000606876
-0.000664632
-0.000717524
-0.000762542
-0.000795923
-0.000814266
-0.00081496
-0.000797306
-0.000762363
-0.000713224
-0.000653194
-0.000587085
-0.000519804
-0.000455729
-0.000398289
-0.000349664
-0.000310668
-0.000281038
-0.000259863
-0.000245919
-0.000238565
-0.000236487
-0.000238777
-0.000245886
-0.000266121
-0.000302197
-0.000351034
-0.000406727
-0.000464729
-0.000522652
-0.000579169
-0.000632646
-0.000680703
-0.000720351
-0.000748446
-0.000762203
-0.00075941
-0.000740703
-0.000706838
-0.000660753
-0.000605642
-0.00054591
-0.000485732
-0.000428785
-0.000377713
-0.000334084
-0.000298328
-0.000270122
-0.000249226
-0.000234619
-0.000226579
-0.000203407
-0.000196957
-0.000208725
-0.000238212
-0.000279676
-0.000327207
-0.000376714
-0.000426503
-0.000476085
-0.000524719
-0.000570674
-0.000611165
-0.000643246
-0.000664275
-0.000672549
-0.000667376
-0.000649467
-0.000620427
-0.000582604
-0.000538427
-0.000490569
-0.000441752
-0.000394173
-0.000349496
-0.000308996
-0.000273503
-0.000243607
-0.000219378
-0.00020221
-0.000193181
-0.000134395
-0.000130455
-0.000155653
-0.000195605
-0.000240282
-0.000284171
-0.00032593
-0.00036642
-0.000406662
-0.000446137
-0.000483011
-0.000514674
-0.000538452
-0.000552701
-0.000556905
-0.000551863
-0.000538682
-0.000518704
-0.000493222
-0.000463378
-0.000429812
-0.000393383
-0.000354914
-0.000315337
-0.000275955
-0.000238356
-0.000204381
-0.000176261
-0.000156426
-0.000146723
-6.87974e-05
-7.55616e-05
-0.000108169
-0.000147505
-0.000186274
-0.000222398
-0.000256665
-0.000290503
-0.000324378
-0.000357195
-0.000386887
-0.00041111
-0.000428307
-0.000438084
-0.000441239
-0.000439186
-0.000433011
-0.000423403
-0.000410441
-0.000393745
-0.000372203
-0.000345403
-0.00031333
-0.000276606
-0.000236887
-0.000196719
-0.000159285
-0.000128077
-0.000106345
-9.63471e-05
-2.92619e-05
-4.41016e-05
-6.99772e-05
-9.66182e-05
-0.000123132
-0.000150678
-0.000180307
-0.000211913
-0.000243962
-0.000274126
-0.00030017
-0.000320152
-0.000333894
-0.00034217
-0.000346409
-0.000348345
-0.00034866
-0.000347255
-0.000343
-0.00033433
-0.000319583
-0.000297832
-0.000268633
-0.000232812
-0.000192542
-0.000151069
-0.000112292
-8.02156e-05
-5.82852e-05
-4.86341e-05
-5.40619e-06
-1.81342e-05
-2.92933e-05
-4.18438e-05
-5.92473e-05
-8.3291e-05
-0.000113362
-0.000146782
-0.000179988
-0.000209911
-0.000234015
-0.00025164
-0.000263653
-0.000271558
-0.000277219
-0.000281842
-0.000285474
-0.000287392
-0.000286012
-0.000279492
-0.000266211
-0.000245176
-0.000216359
-0.000181017
-0.000141634
-0.000101625
-6.48549e-05
-3.50543e-05
-1.52e-05
-6.81998e-06
2.65187e-05
2.23379e-05
2.19585e-05
1.40696e-05
-4.1651e-06
-3.24498e-05
-6.75162e-05
-0.000104603
-0.000139187
-0.000168317
-0.000190082
-0.000205116
-0.000214936
-0.000221449
-0.0002262
-0.000230085
-0.000232741
-0.000233125
-0.000229711
-0.000220954
-0.000205615
-0.000183311
-0.000154641
-0.000121194
-8.53933e-05
-5.02977e-05
-1.91156e-05
5.25459e-06
2.08296e-05
2.68458e-05
6.89325e-05
7.34016e-05
7.35499e-05
5.99013e-05
3.29107e-05
-3.75204e-06
-4.45891e-05
-8.39639e-05
-0.000117766
-0.000143724
-0.000161663
-0.000172481
-0.000178318
-0.000181278
-0.000182561
-0.000182688
-0.000181228
-0.000177151
-0.00016943
-0.000157023
-0.0001394
-0.00011678
-9.01277e-05
-6.10201e-05
-3.15951e-05
-4.23986e-06
1.8838e-05
3.57041e-05
4.56874e-05
4.88024e-05
0.000101728
0.000108985
0.000102478
8.04121e-05
4.61513e-05
5.27047e-06
-3.61305e-05
-7.29796e-05
-0.000102126
-0.000122459
-0.000134658
-0.000140443
-0.00014178
-0.000140521
-0.000137752
-0.000133769
-0.000128218
-0.000120461
-0.000109736
-9.56633e-05
-7.8298e-05
-5.82193e-05
-3.64484e-05
-1.43039e-05
6.74045e-06
2.51791e-05
3.97167e-05
4.9363e-05
5.39337e-05
5.41374e-05
9.68077e-05
0.000100125
8.90359e-05
6.62938e-05
3.55862e-05
1.89289e-06
-3.00609e-05
-5.68056e-05
-7.6601e-05
-8.91888e-05
-9.55004e-05
-9.70162e-05
-9.53883e-05
-9.19481e-05
-8.74287e-05
-8.19907e-05
-7.55652e-05
-6.76831e-05
-5.80529e-05
-4.66296e-05
-3.36757e-05
-1.97392e-05
-5.56766e-06
8.00536e-06
2.01647e-05
3.01954e-05
3.74604e-05
4.16505e-05
4.26987e-05
4.11423e-05
4.19027e-05
4.10193e-05
3.44449e-05
2.35269e-05
1.00287e-05
-3.92682e-06
-1.64912e-05
-2.64479e-05
-3.33041e-05
-3.71413e-05
-3.84712e-05
-3.79891e-05
-3.6364e-05
-3.41305e-05
-3.15641e-05
-2.87724e-05
-2.57192e-05
-2.22798e-05
-1.83602e-05
-1.39631e-05
-9.19962e-06
-4.26417e-06
5.94914e-07
5.12416e-06
9.02523e-06
1.20982e-05
1.42e-05
1.52709e-05
1.526e-05
1.43005e-05
4896.49
4896.49
4896.49
4896.49
4896.49
4896.49
4896.49
4896.49
4896.49
4896.49
4896.49
4896.49
4896.49
4896.49
4896.49
4896.49
4896.49
4896.49
4896.49
4896.49
4896.49
4896.49
4896.49
4896.49
4896.49
4896.49
4896.49
4896.49
4896.49
4896.49
4896.49
4896.49
4896.49
4896.49
4896.49
4896.49
4896.49
4896.49
4896.49