/*--------------------------------*- C++ -*----------------------------------*\
| =========                 |                                                 |
| \\      /  F ield         | OpenFOAM: The Open Source CFD Toolbox           |
|  \\    /   O peration     | Version:  2312                                  |
|   \\  /    A nd           | Website:  www.openfoam.com                      |
|    \\/     M anipulation  |                                                 |
\*---------------------------------------------------------------------------*/
FoamFile
{
    version     2.0;
    format      ascii;
    arch        "LSB;label=32;scalar=64";
    class       surfaceScalarField;
    location    "0.46258";
    object      phi;
}
// * * * * * * * * * * * * * * * * * * * * * * * * * * * * * * * * * * * * * //

dimensions      [0 3 -1 0 0 0 0];

oriented        oriented;

internalField   nonuniform List<scalar> 
263100
(
1.41054e-11
-2.82102e-11
1.41054e-11
-4.02297e-10
6.2586e-10
-1.34801e-10
-6.71739e-10
4.87015e-10
-1.5019e-10
-8.32407e-10
4.06341e-10
-1.76095e-10
-8.89533e-10
3.12047e-10
-1.83463e-10
-8.44213e-10
1.98707e-10
-1.73124e-10
-7.17341e-10
9.3892e-11
-1.54325e-10
-5.48407e-10
1.23496e-11
-1.24254e-10
-3.9698e-10
-1.68797e-11
-9.21752e-11
-2.9369e-10
5.57484e-12
-8.59144e-11
-2.34003e-10
5.21954e-11
-1.11714e-10
-2.05965e-10
1.14893e-10
-1.66811e-10
-1.67958e-10
1.55132e-10
-2.39769e-10
-8.44778e-11
1.59256e-10
-3.0809e-10
7.29073e-11
1.23028e-10
-3.5802e-10
3.06355e-10
5.42604e-11
-3.69183e-10
5.50697e-10
1.19211e-11
-3.32109e-10
7.32389e-10
-1.00188e-12
-2.41399e-10
7.90206e-10
4.73934e-11
-1.42263e-10
6.79854e-10
1.51406e-10
-4.8063e-11
3.75477e-10
2.91139e-10
3.97956e-11
-9.63636e-11
4.59848e-10
7.23377e-11
-6.7983e-10
6.10115e-10
6.45045e-11
-1.26816e-09
6.79974e-10
2.45749e-11
-1.69971e-09
5.96323e-10
-3.12387e-11
-1.81255e-09
3.42312e-10
-8.73296e-11
-1.5447e-09
-2.12771e-11
-1.04375e-10
-1.00241e-09
-4.0764e-10
3.16357e-13
-2.58607e-10
-8.84627e-10
2.63505e-10
-1.44383e-09
1.29336e-09
-1.39655e-10
3.42917e-10
-1.39655e-10
-2.68935e-10
9.82598e-10
-1.22817e-10
-3.44056e-10
7.75074e-10
-1.09641e-10
-4.04907e-10
6.53999e-10
-8.19422e-11
-4.42987e-10
5.05518e-10
-5.2442e-11
-4.5856e-10
3.39434e-10
-3.01634e-11
-4.482e-10
1.78395e-10
-1.56124e-11
-4.21314e-10
5.72709e-11
-1.66797e-11
-3.83397e-10
7.25963e-12
-3.86204e-11
-3.22708e-10
6.992e-12
-7.56792e-11
-2.38215e-10
2.7716e-11
-1.12527e-10
-1.27193e-10
5.3359e-11
-1.38599e-10
-3.26169e-13
6.01751e-11
-1.50939e-10
1.29817e-10
4.09471e-11
-1.50079e-10
2.48343e-10
-3.24802e-12
-1.35955e-10
3.17126e-10
-3.6214e-11
-1.12188e-10
3.38468e-10
-2.17635e-11
-9.64316e-11
3.10267e-10
6.93161e-11
-1.12433e-10
2.33066e-10
2.4297e-10
-1.40468e-10
1.12695e-10
4.84709e-10
-1.81798e-10
-1.25949e-11
7.29815e-10
-2.29322e-10
-1.37527e-10
9.45775e-10
-2.29405e-10
-2.03235e-10
1.05503e-09
-2.09637e-10
-1.87129e-10
1.00604e-09
-1.46799e-10
-1.03704e-10
7.47071e-10
-2.58635e-11
6.24504e-11
2.86992e-10
1.00122e-10
2.96962e-10
-2.61957e-10
2.21113e-10
4.33786e-10
-5.7698e-10
2.95382e-10
4.67891e-11
-4.76375e-10
4.42644e-10
-1.07639e-09
7.43947e-10
-7.63699e-11
5.4695e-10
-7.63699e-11
1.17367e-11
9.18844e-10
-1.60478e-11
6.07013e-11
7.30376e-10
8.13786e-12
5.26932e-11
6.3296e-10
4.07538e-11
-1.0827e-11
5.13543e-10
6.42101e-11
-1.12091e-10
3.76228e-10
6.65063e-11
-2.29629e-10
2.42458e-10
4.41149e-11
-3.23939e-10
1.2402e-10
1.99994e-12
-3.67875e-10
5.22252e-11
-4.67207e-11
-3.29261e-10
-8.75773e-12
-9.06901e-11
-2.11239e-10
-6.0831e-11
-1.19007e-10
-4.12227e-11
-1.08672e-10
-1.16001e-10
1.3469e-10
-1.49958e-10
-8.64865e-11
2.65549e-10
-1.69755e-10
-4.58856e-11
2.97128e-10
-1.59347e-10
2.51695e-12
2.17255e-10
-8.51476e-11
1.91116e-11
6.03892e-11
5.3682e-11
-8.68729e-12
-1.23736e-10
2.5425e-10
-6.6337e-11
-2.71636e-10
4.96777e-10
-1.44839e-10
-2.9444e-10
7.41207e-10
-2.47212e-10
-1.66776e-10
9.30664e-10
-3.20473e-10
1.22729e-10
1.02832e-09
-3.4809e-10
5.22141e-10
1.00149e-09
-3.12264e-10
9.60121e-10
8.07922e-10
-2.02543e-10
1.3318e-09
4.95816e-10
-8.53044e-11
1.5455e-09
3.93918e-11
5.54347e-11
1.51177e-09
-4.3732e-10
1.77301e-10
1.35627e-09
-7.1894e-10
9.95361e-11
4.40393e-10
-3.89895e-11
-2.74756e-11
-1.89055e-10
-2.77204e-10
1.89922e-11
5.03122e-10
1.89922e-11
2.29949e-10
5.20626e-10
8.45995e-11
3.43787e-10
4.11356e-10
1.12604e-10
3.69374e-10
3.69977e-10
1.4214e-10
2.96718e-10
3.33811e-10
1.53549e-10
1.53054e-10
2.82098e-10
1.34421e-10
-2.70234e-11
2.23192e-10
9.03133e-11
-2.00055e-10
1.54856e-10
2.6933e-11
-2.91626e-10
5.9612e-11
-3.6831e-11
-2.88494e-10
-6.5201e-11
-7.15548e-11
-1.98513e-10
-1.86455e-10
-8.97603e-11
-4.85876e-11
-2.97407e-10
-8.28798e-11
9.50609e-11
-3.58019e-10
-4.89143e-11
1.71085e-10
-3.44317e-10
-2.40339e-12
1.48788e-10
-2.41546e-10
1.85394e-11
3.0849e-11
-5.29439e-11
1.51645e-11
-1.41019e-10
1.97603e-10
-2.9448e-11
-3.00859e-10
4.46527e-10
-8.14092e-11
-3.67204e-10
6.68365e-10
-1.52424e-10
-2.67463e-10
8.01113e-10
-2.12407e-10
2.86611e-11
8.26285e-10
-2.5659e-10
5.01051e-10
7.36333e-10
-2.61368e-10
1.05314e-09
5.72959e-10
-2.20884e-10
1.55934e-09
3.53219e-10
-1.60828e-10
1.886e-09
1.52858e-10
-9.43568e-11
1.87041e-09
7.14824e-12
-3.92266e-11
1.47975e-09
-6.72604e-11
5.95878e-12
1.01513e-09
-1.46881e-10
-4.67125e-11
3.11485e-10
6.19106e-10
-1.70344e-10
6.72591e-10
-5.54154e-10
1.09225e-10
2.10951e-10
1.09225e-10
3.87881e-10
-1.42288e-10
1.81295e-10
5.32594e-10
-1.26888e-10
2.06156e-10
5.71969e-10
-7.59195e-11
2.16316e-10
5.1115e-10
5.49052e-12
1.96911e-10
3.65528e-10
8.10752e-11
1.54492e-10
1.7516e-10
1.25157e-10
9.92413e-11
-6.65669e-12
1.12417e-10
4.21162e-11
-1.34022e-10
2.76424e-11
-1.06467e-11
-2.02222e-10
-1.02472e-10
-4.65551e-11
-2.05771e-10
-2.54412e-10
-5.68071e-11
-1.73642e-10
-3.77123e-10
-5.24308e-11
-1.37518e-10
-4.21631e-10
-4.18274e-11
-1.23887e-10
-3.60788e-10
-3.66641e-11
-1.46795e-10
-1.87263e-10
-4.58327e-11
-1.9832e-10
7.03198e-11
-6.98759e-11
-2.37385e-10
3.38534e-10
-9.57225e-11
-2.30093e-10
5.55632e-10
-1.19853e-10
-1.30039e-10
6.64554e-10
-1.22946e-10
1.00564e-10
6.22715e-10
-1.13192e-10
4.40959e-10
4.87562e-10
-1.02899e-10
8.52884e-10
2.76224e-10
-9.2408e-11
1.26633e-09
6.27625e-11
-7.50648e-11
1.56367e-09
-5.53948e-11
-7.82199e-11
1.64303e-09
-3.26494e-13
-1.20527e-10
1.44113e-09
2.21196e-10
-2.06187e-10
9.22238e-10
5.92084e-10
-3.12061e-10
2.83278e-10
8.71783e-10
-4.30362e-10
-1.63437e-10
1.51505e-09
-5.5598e-10
1.34012e-09
-8.58666e-10
1.71836e-10
-2.62915e-10
1.71836e-10
4.32051e-10
-8.92888e-10
2.32227e-10
5.69023e-10
-7.37874e-10
2.35345e-10
6.26364e-10
-5.8229e-10
2.09875e-10
6.07047e-10
-3.76821e-10
1.64234e-10
5.20528e-10
-1.70152e-10
1.0668e-10
3.92914e-10
-1.47236e-11
4.89918e-11
2.44006e-10
5.86546e-11
4.46252e-12
8.7773e-11
3.67863e-11
-2.21759e-11
-6.49745e-11
-5.04479e-11
-3.12332e-11
-2.11103e-10
-1.59212e-10
-3.6924e-11
-3.42448e-10
-2.42204e-10
-4.38003e-11
-4.41605e-10
-2.58927e-10
-5.71086e-11
-4.91479e-10
-1.7378e-10
-9.04315e-11
-4.78919e-10
-3.8923e-12
-1.20916e-10
-3.87468e-10
2.01591e-10
-1.35931e-10
-2.249e-10
3.8679e-10
-1.31547e-10
-3.68579e-12
4.71013e-10
-8.40919e-11
2.59626e-10
4.39242e-10
-2.82225e-11
5.48746e-10
2.65922e-10
2.50846e-11
8.08772e-10
4.3767e-11
8.77177e-11
9.96926e-10
-1.86434e-10
1.33085e-10
1.07177e-09
-2.83332e-10
1.006e-10
1.00846e-09
-1.57883e-10
-1.18153e-11
8.00776e-10
1.90011e-10
-1.41923e-10
4.78019e-10
7.28548e-10
-3.11348e-10
9.17744e-11
1.38222e-09
-5.13112e-10
-3.1048e-10
1.93709e-09
-7.1067e-10
-4.59761e-10
2.4614e-09
-8.34864e-10
1.74336e-09
-8.67952e-10
1.58084e-10
-7.34237e-10
1.58084e-10
3.38317e-10
-1.497e-09
1.75194e-10
4.56289e-10
-1.22415e-09
1.40486e-10
5.46644e-10
-9.78413e-10
8.13942e-11
6.10508e-10
-6.76744e-10
1.7874e-11
6.45798e-10
-3.74453e-10
-3.74421e-11
6.31945e-10
-1.22074e-10
-6.57841e-11
5.50259e-10
4.85002e-11
-6.63436e-11
3.912e-10
1.28161e-10
-5.18473e-11
1.53004e-10
1.44611e-10
-2.91356e-11
-1.36733e-10
1.29258e-10
-1.80988e-11
-4.28082e-10
1.10124e-10
-2.65747e-11
-6.57112e-10
1.08301e-10
-5.51731e-11
-7.58252e-10
1.33499e-10
-8.60031e-11
-6.9808e-10
1.77897e-10
-1.01983e-10
-4.92988e-10
2.11503e-10
-7.60948e-11
-1.82433e-10
2.18101e-10
-2.55577e-11
1.80999e-10
1.52635e-10
3.01691e-11
5.3387e-10
1.86936e-13
1.08485e-10
7.74964e-10
-2.10631e-10
2.02169e-10
8.73093e-10
-4.2202e-10
2.86201e-10
8.02354e-10
-5.09955e-10
2.80822e-10
5.78448e-10
-3.87394e-10
2.03403e-10
2.55515e-10
-1.07333e-11
5.98008e-11
-1.04529e-10
5.87764e-10
-1.28769e-10
-4.18794e-10
1.3145e-09
-3.2398e-10
-5.9211e-10
2.03979e-09
-5.10948e-10
-6.28155e-10
2.54861e-09
-5.82542e-10
-4.64167e-10
2.85981e-09
-5.70824e-10
1.78282e-09
-5.17608e-10
2.37318e-11
-9.20992e-10
2.37318e-11
1.45549e-10
-1.79609e-09
-2.84505e-12
2.62123e-10
-1.43631e-09
-6.54353e-11
4.11661e-10
-1.15364e-09
-1.28617e-10
5.922e-10
-8.22795e-10
-1.80167e-10
7.69461e-10
-4.87682e-10
-1.96337e-10
8.85799e-10
-1.80155e-10
-1.70147e-10
8.89923e-10
8.19484e-11
-1.20619e-10
7.53649e-10
2.84439e-10
-6.58364e-11
4.66456e-10
4.2915e-10
4.02082e-13
7.93703e-11
5.23733e-10
3.64343e-11
-3.22462e-10
5.55524e-10
4.34331e-11
-6.38721e-10
5.20616e-10
2.49358e-11
-7.96165e-10
4.12707e-10
1.82695e-11
-7.53016e-10
2.43703e-10
3.10147e-11
-5.49165e-10
7.30338e-11
5.433e-11
-2.18344e-10
-1.45552e-10
1.14731e-10
1.394e-10
-3.72467e-10
2.00111e-10
4.1826e-10
-5.98828e-10
3.01378e-10
5.58638e-10
-7.86209e-10
3.72197e-10
5.15939e-10
-8.51723e-10
3.80662e-10
3.04764e-10
-7.29255e-10
3.301e-10
-1.8869e-11
-3.7728e-10
2.24204e-10
-3.8031e-10
1.83862e-10
1.01372e-10
-6.51874e-10
8.43104e-10
-2.536e-11
-8.05737e-10
1.55562e-09
-1.11463e-10
-7.72779e-10
2.1387e-09
-1.53326e-10
-5.77943e-10
2.45308e-09
-1.38352e-10
-2.12856e-10
2.51988e-09
-9.50905e-11
1.45674e-09
1.70083e-11
-1.7132e-10
-6.67896e-10
-1.7132e-10
-6.38554e-11
-1.76338e-09
-2.24445e-10
7.47969e-11
-1.35635e-09
-2.88612e-10
3.01948e-10
-1.11571e-09
-3.28196e-10
5.91196e-10
-8.35989e-10
-3.32004e-10
8.87732e-10
-5.38546e-10
-2.91644e-10
1.10719e-09
-2.2137e-10
-2.0941e-10
1.18365e-09
1.06854e-10
-1.12025e-10
1.08453e-09
4.20621e-10
-2.22137e-11
8.11664e-10
6.83041e-10
6.18914e-11
4.20945e-10
8.62686e-10
1.212e-10
4.30685e-12
8.98924e-10
1.62669e-10
-3.41671e-10
7.72175e-10
1.92221e-10
-5.61525e-10
5.01572e-10
2.21953e-10
-6.48725e-10
1.42593e-10
2.56137e-10
-5.86513e-10
-2.52025e-10
2.93578e-10
-4.38728e-10
-6.46896e-10
3.39076e-10
-2.74783e-10
-9.781e-10
3.82019e-10
-1.57715e-10
-1.2076e-09
3.95719e-10
-1.2457e-10
-1.29665e-09
3.60784e-10
-1.86356e-10
-1.20314e-09
2.9476e-10
-3.30253e-10
-9.01086e-10
2.11139e-10
-5.03112e-10
-4.28044e-10
1.40914e-10
-6.42075e-10
1.59664e-10
9.99953e-11
-7.27697e-10
7.6466e-10
1.0569e-10
-6.96129e-10
1.30031e-09
1.47618e-10
-5.46823e-10
1.6892e-09
1.88308e-10
-3.03844e-10
1.8069e-09
2.419e-10
-3.712e-12
1.70812e-09
3.01837e-10
8.80009e-10
3.53732e-10
-3.20801e-10
-5.49866e-11
-3.20801e-10
-1.89595e-10
-1.55562e-09
-3.47057e-10
-1.97663e-11
-1.15739e-09
-3.69178e-10
2.48407e-10
-1.02912e-09
-3.51879e-10
5.74848e-10
-8.65721e-10
-2.91439e-10
8.97853e-10
-6.52623e-10
-2.00078e-10
1.13276e-09
-3.49481e-10
-9.19055e-11
1.24323e-09
3.30125e-11
-1.31585e-11
1.19976e-09
4.23068e-10
7.42373e-11
1.02504e-09
7.45469e-10
1.53831e-10
7.44932e-10
9.75698e-10
2.11931e-10
4.21421e-10
9.9762e-10
2.64409e-10
9.95893e-11
7.9454e-10
3.22674e-10
-1.87812e-10
4.07349e-10
3.77015e-10
-4.50107e-10
-5.57968e-11
4.1941e-10
-6.69438e-10
-5.54042e-10
4.40042e-10
-8.55246e-10
-1.00837e-09
4.30093e-10
-9.83831e-10
-1.35004e-09
3.59027e-10
-1.04556e-09
-1.54248e-09
2.47631e-10
-1.04841e-09
-1.5486e-09
1.15806e-10
-9.87811e-10
-1.41165e-09
3.15817e-11
-8.84003e-10
-1.101e-09
5.03852e-12
-7.50705e-10
-6.50266e-10
1.27746e-11
-6.08039e-10
-1.39605e-10
7.42751e-11
-4.62127e-10
3.43943e-10
1.60415e-10
-3.09774e-10
7.22081e-10
2.55217e-10
-1.30243e-10
9.2071e-10
3.52246e-10
2.92642e-11
9.36354e-10
4.13848e-10
1.26216e-10
8.50773e-10
4.23791e-10
3.20546e-10
3.87873e-10
-2.37953e-10
4.33921e-10
-2.37953e-10
-1.15809e-10
-1.44969e-09
-2.20154e-10
3.97764e-12
-1.08433e-09
-1.82547e-10
2.01501e-10
-1.09161e-09
-1.26419e-10
4.21709e-10
-1.03141e-09
-4.77975e-11
6.31335e-10
-8.71652e-10
1.53301e-11
7.84643e-10
-5.87904e-10
9.13444e-11
8.82117e-10
-2.00938e-10
1.42988e-10
9.30913e-10
2.1712e-10
1.61786e-10
9.31682e-10
5.78864e-10
1.63954e-10
8.83496e-10
8.03084e-10
2.05289e-10
7.51552e-10
8.39917e-10
2.52244e-10
5.18562e-10
6.54509e-10
3.06158e-10
1.59567e-10
3.15942e-10
3.49953e-10
-2.9683e-10
-9.48246e-11
3.63059e-10
-8.09407e-10
-5.16016e-10
3.19083e-10
-1.2992e-09
-8.98406e-10
2.16649e-10
-1.6703e-09
-1.19989e-09
6.90148e-11
-1.84311e-09
-1.40538e-09
-8.74721e-11
-1.79193e-09
-1.48547e-09
-1.98718e-10
-1.55125e-09
-1.44848e-09
-2.519e-10
-1.20366e-09
-1.26166e-09
-2.15463e-10
-8.24332e-10
-9.55019e-10
-1.124e-10
-4.64656e-10
-5.80686e-10
9.32265e-13
-1.64716e-10
-2.18317e-10
1.12632e-10
5.77423e-11
5.48008e-11
2.14412e-10
2.00756e-10
1.99671e-10
2.76903e-10
2.48561e-10
2.46816e-10
2.97242e-10
2.0384e-10
2.58888e-10
2.83352e-10
-2.63253e-11
2.81152e-10
7.49175e-11
2.96515e-10
7.49175e-11
5.31511e-11
-1.58925e-09
1.14433e-10
2.52634e-11
-1.28874e-09
1.87718e-10
9.37095e-12
-1.36048e-09
2.37266e-10
-1.98364e-11
-1.36251e-09
3.12522e-10
-3.85068e-11
-1.22959e-09
3.31104e-10
-1.13254e-11
-9.49364e-10
2.91672e-10
9.39823e-11
-5.63309e-10
2.1523e-10
2.91526e-10
-1.57895e-10
1.31283e-10
5.49733e-10
1.94725e-10
6.80757e-11
7.89979e-10
4.27777e-10
5.74347e-11
8.9261e-10
5.24194e-10
1.09319e-10
7.74591e-10
5.06003e-10
1.34496e-10
3.98742e-10
3.8898e-10
1.47162e-10
-1.8367e-10
2.0529e-10
1.15292e-10
-8.698e-10
-1.33515e-11
2.40288e-11
-1.51591e-09
-2.61717e-10
-1.2053e-10
-1.97972e-09
-5.56382e-10
-2.60854e-10
-2.15434e-09
-8.71635e-10
-3.81344e-10
-2.03767e-09
-1.14686e-09
-4.23151e-10
-1.70395e-09
-1.33235e-09
-3.84468e-10
-1.25002e-09
-1.37666e-09
-2.74797e-10
-7.85499e-10
-1.26136e-09
-1.34419e-10
-3.76038e-10
-1.01903e-09
-1.98329e-11
-4.69761e-11
-7.41514e-10
5.93072e-11
1.92291e-10
-5.12879e-10
1.1721e-10
3.38326e-10
-3.56595e-10
1.52616e-10
3.95213e-10
-2.53547e-10
1.77127e-10
3.48317e-10
-1.64081e-10
2.24763e-10
-1.76101e-10
3.41763e-10
5.43776e-10
-8.22869e-10
5.43776e-10
1.55893e-10
-1.90475e-09
5.60376e-10
-1.12585e-10
-1.75965e-09
6.06842e-10
-4.16745e-10
-1.7731e-09
5.88425e-10
-7.12597e-10
-1.72006e-09
5.3565e-10
-9.38458e-10
-1.53426e-09
4.27445e-10
-9.94352e-10
-1.26205e-09
2.79817e-10
-8.06776e-10
-9.47364e-10
1.17134e-10
-4.28287e-10
-6.02672e-10
-1.23004e-11
9.51669e-11
-3.44437e-10
-7.23404e-11
5.8942e-10
-9.08868e-11
-8.20326e-11
8.90652e-10
1.61392e-10
-6.74653e-11
8.78824e-10
4.06023e-10
-3.66457e-11
5.45682e-10
6.27885e-10
-6.1592e-11
-2.77696e-11
7.71019e-10
-1.35801e-10
-7.02502e-10
7.73166e-10
-2.19126e-10
-1.3096e-09
5.99706e-10
-3.03695e-10
-1.67774e-09
2.07065e-10
-3.73938e-10
-1.79243e-09
-2.8651e-10
-3.80769e-10
-1.67649e-09
-8.07547e-10
-3.1744e-10
-1.41176e-09
-1.24538e-09
-2.0071e-10
-1.09068e-09
-1.48417e-09
-9.04883e-11
-7.69854e-10
-1.50381e-09
-1.78626e-11
-4.69395e-10
-1.38413e-09
4.60213e-11
-1.72815e-10
-1.21368e-09
8.5444e-11
1.15498e-10
-1.05324e-09
1.18654e-10
3.58907e-10
-9.11573e-10
1.7114e-10
4.92435e-10
-7.68989e-10
2.61999e-10
4.70548e-10
-6.12011e-10
3.78364e-10
-2.76733e-10
5.29581e-10
8.95276e-10
-2.70885e-09
8.95276e-10
1.08305e-10
-2.07577e-09
7.33417e-10
-4.21899e-10
-2.09647e-09
6.67977e-10
-9.30593e-10
-2.02034e-09
5.76506e-10
-1.3898e-09
-1.85384e-09
4.41923e-10
-1.66999e-09
-1.64326e-09
2.70195e-10
-1.69733e-09
-1.42711e-09
1.0243e-10
-1.41513e-09
-1.24211e-09
-5.74612e-11
-8.4112e-10
-1.11611e-09
-1.23525e-10
-1.59617e-10
-9.67412e-10
-1.27808e-10
4.49663e-10
-6.70167e-10
-1.15461e-10
8.25022e-10
-2.16832e-10
-1.01391e-10
8.90122e-10
3.32932e-10
-1.08391e-10
6.5996e-10
8.88502e-10
-1.43019e-10
2.36146e-10
1.28387e-09
-1.75884e-10
-2.23247e-10
1.42681e-09
-2.32965e-10
-6.0279e-10
1.25752e-09
-2.53353e-10
-8.41011e-10
7.3762e-10
-2.01599e-10
-9.45691e-10
7.5551e-11
-1.15511e-10
-9.62618e-10
-6.41293e-10
1.41196e-11
-9.53243e-10
-1.23795e-09
1.31531e-10
-9.50594e-10
-1.61433e-09
2.28708e-10
-9.11029e-10
-1.7679e-09
2.6286e-10
-7.55815e-10
-1.79113e-09
2.3404e-10
-4.7413e-10
-1.75914e-09
2.15939e-10
-1.24975e-10
-1.69959e-09
2.51808e-10
1.8555e-10
-1.59433e-09
3.51644e-10
3.53254e-10
-1.41932e-09
4.88228e-10
3.29108e-10
-1.16809e-09
5.95659e-10
-4.66501e-10
5.33593e-10
8.24073e-10
-4.49799e-09
8.24073e-10
-1.39565e-10
-1.89668e-09
5.402e-10
-7.58558e-10
-2.09667e-09
4.15513e-10
-1.27516e-09
-1.94972e-09
2.78811e-10
-1.67597e-09
-1.71564e-09
1.40155e-10
-1.84923e-09
-1.55567e-09
8.87175e-12
-1.73647e-09
-1.50465e-09
-7.33953e-11
-1.30342e-09
-1.57226e-09
-1.15699e-10
-6.89789e-10
-1.64694e-09
-8.65084e-11
-4.7895e-11
-1.5624e-09
-5.67276e-11
4.7148e-10
-1.19797e-09
-1.74355e-11
7.59371e-10
-5.39484e-10
-8.621e-12
8.20822e-10
2.63289e-10
-4.47828e-11
7.31292e-10
1.03945e-09
-1.08332e-10
5.63929e-10
1.56652e-09
-1.37486e-10
4.12855e-10
1.72959e-09
-1.33828e-10
2.83737e-10
1.49986e-09
-4.98325e-11
1.48567e-10
8.82201e-10
9.11116e-11
-3.55271e-11
1.28415e-10
2.47324e-10
-3.08013e-10
-6.38993e-10
3.73519e-10
-6.65304e-10
-1.24665e-09
4.31825e-10
-9.99858e-10
-1.66497e-09
4.03155e-10
-1.17377e-09
-1.93864e-09
3.24547e-10
-1.10878e-09
-2.15218e-09
2.64621e-10
-8.36708e-10
-2.31511e-09
2.72239e-10
-4.83578e-10
-2.37135e-09
3.45273e-10
-2.01624e-10
-2.25172e-09
4.3544e-10
-9.60464e-11
-1.92496e-09
4.6882e-10
-1.50689e-10
-1.44043e-09
3.78868e-10
-7.45989e-10
1.52243e-10
3.94233e-10
-5.4294e-09
3.94233e-10
-3.65762e-10
-1.44004e-09
1.07147e-10
-8.08645e-10
-1.79583e-09
-7.75603e-12
-1.10995e-09
-1.64613e-09
-1.07235e-10
-1.24922e-09
-1.48075e-09
-1.50192e-10
-1.19549e-09
-1.48048e-09
-1.3542e-10
-9.02632e-10
-1.67709e-09
-8.84766e-11
-4.46247e-10
-1.9632e-09
-9.7134e-12
1.86161e-11
-2.12946e-09
8.09888e-11
3.84071e-10
-2.01304e-09
1.42285e-10
5.88798e-10
-1.52108e-09
1.61197e-10
6.55928e-10
-7.00439e-10
1.22068e-10
6.76937e-10
2.37727e-10
2.53111e-11
7.30112e-10
1.06198e-09
-5.09217e-11
8.17748e-10
1.58457e-09
-6.58644e-11
9.13307e-10
1.70028e-09
-6.67193e-12
9.46038e-10
1.41014e-09
1.30914e-10
7.81904e-10
8.2637e-10
2.92459e-10
4.26429e-10
1.28044e-10
4.05826e-10
-1.32492e-10
-5.12744e-10
4.42732e-10
-7.46197e-10
-1.05432e-09
3.87414e-10
-1.23182e-09
-1.53068e-09
2.88257e-10
-1.4577e-09
-1.9855e-09
2.11288e-10
-1.4122e-09
-2.42077e-09
1.9728e-10
-1.20848e-09
-2.73119e-09
2.41997e-10
-1.00937e-09
-2.78407e-09
2.92061e-10
-9.15841e-10
-2.52626e-09
2.78179e-10
-9.06109e-10
-2.01508e-09
1.61439e-10
-8.03134e-10
-1.44342e-09
-5.17724e-11
-1.34255e-09
-1.89789e-10
-1.13391e-10
-5.30866e-09
-1.13391e-10
-3.70166e-10
-1.00968e-09
-2.90057e-10
-4.32003e-10
-1.53028e-09
-2.82307e-10
-3.80683e-10
-1.45581e-09
-2.80721e-10
-1.75333e-10
-1.46811e-09
-2.14261e-10
1.78145e-10
-1.67985e-09
-1.10863e-10
5.6779e-10
-2.02295e-09
3.0579e-11
8.55707e-10
-2.33405e-09
1.76851e-10
9.82407e-10
-2.42493e-09
2.70494e-10
9.20012e-10
-2.15588e-09
3.0554e-10
7.39033e-10
-1.51002e-09
2.64222e-10
5.88053e-10
-5.99248e-10
1.38561e-10
5.64993e-10
3.23534e-10
2.47465e-11
7.08573e-10
1.03716e-09
-2.80405e-11
9.34883e-10
1.45021e-09
2.69084e-12
1.11936e-09
1.4981e-09
1.09446e-10
1.13636e-09
1.23473e-09
2.32684e-10
8.50015e-10
8.10973e-10
3.39915e-10
2.97894e-10
2.90943e-10
3.76609e-10
-3.9968e-10
-2.20924e-10
3.40657e-10
-1.06002e-09
-7.53003e-10
2.58597e-10
-1.51718e-09
-1.37564e-09
2.0038e-10
-1.71908e-09
-2.04845e-09
2.00756e-10
-1.74216e-09
-2.64625e-09
2.47936e-10
-1.72782e-09
-2.96843e-09
2.83975e-10
-1.74896e-09
-2.92044e-09
2.50704e-10
-1.75368e-09
-2.55883e-09
1.22547e-10
-1.598e-09
-2.06871e-09
-5.17287e-11
-1.11008e-09
-1.82005e-09
-9.79537e-11
-2.46696e-09
-1.55878e-12
-3.0797e-10
-4.75194e-09
-3.0797e-10
-1.83796e-11
-1.09491e-09
-2.5132e-10
3.33029e-10
-1.70504e-09
-2.03555e-10
7.70404e-10
-1.71328e-09
-1.81199e-10
1.29754e-09
-1.87365e-09
-9.44248e-11
1.80268e-09
-2.16663e-09
3.57511e-11
2.13597e-09
-2.46998e-09
1.90476e-10
2.18221e-09
-2.60463e-09
3.17807e-10
1.93591e-09
-2.44434e-09
3.70405e-10
1.48649e-09
-1.93675e-09
3.42339e-10
1.0098e-09
-1.15769e-09
2.4232e-10
6.93199e-10
-2.90536e-10
1.32033e-10
6.25575e-10
4.48429e-10
7.3189e-11
7.41394e-10
9.66341e-10
8.85455e-11
9.23143e-10
1.22519e-09
1.70699e-10
9.9757e-10
1.24571e-09
2.83118e-10
8.21443e-10
1.08741e-09
3.86455e-10
3.9831e-10
8.01927e-10
4.36099e-10
-2.45156e-10
4.61667e-10
4.12609e-10
-9.25483e-10
-1.46771e-11
3.63627e-10
-1.48687e-09
-6.65106e-10
3.45253e-10
-1.85323e-09
-1.47831e-09
3.64342e-10
-2.06607e-09
-2.30106e-09
4.1665e-10
-2.23749e-09
-2.91224e-09
4.51039e-10
-2.40384e-09
-3.16584e-09
4.16077e-10
-2.4877e-09
-3.08791e-09
3.01842e-10
-2.33101e-09
-2.86824e-09
1.68104e-10
-1.80767e-09
-2.80727e-09
1.85447e-10
-9.534e-10
-3.06393e-09
3.22841e-10
-3.98791e-09
4.81237e-10
-1.5947e-10
-4.459e-09
-1.5947e-10
6.26005e-10
-1.8373e-09
-3.53286e-11
1.30855e-09
-2.36375e-09
-1.18399e-11
2.03116e-09
-2.44318e-09
3.26902e-11
2.72851e-09
-2.6541e-09
1.23911e-10
3.25896e-09
-2.88119e-09
2.39701e-10
3.47678e-09
-2.97277e-09
3.53606e-10
3.31014e-09
-2.78778e-09
4.29442e-10
2.80093e-09
-2.28649e-09
4.40819e-10
2.12542e-09
-1.55929e-09
3.97255e-10
1.50296e-09
-7.57677e-10
3.32396e-10
1.08164e-09
-4.85952e-11
3.00562e-10
8.78307e-10
4.61582e-10
3.20321e-10
8.12576e-10
7.75066e-10
3.88166e-10
7.48579e-10
9.27771e-10
4.78735e-10
5.52032e-10
9.6182e-10
5.63641e-10
1.80093e-10
8.8873e-10
5.99842e-10
-3.86729e-10
7.39209e-10
5.93801e-10
-1.02231e-09
4.39951e-10
5.62767e-10
-1.60716e-09
-1.03722e-10
5.46688e-10
-2.05758e-09
-8.92494e-10
5.57219e-10
-2.39514e-09
-1.813e-09
5.94299e-10
-2.69324e-09
-2.64163e-09
6.17408e-10
-2.96594e-09
-3.19597e-09
5.74965e-10
-3.11316e-09
-3.46237e-09
4.63063e-10
-2.98162e-09
-3.62288e-09
3.85558e-10
-2.4797e-09
-3.89052e-09
4.49737e-10
-1.63374e-09
-4.35109e-09
5.83753e-10
-6.81814e-10
-4.89711e-09
7.43325e-10
-5.57995e-09
7.96467e-10
1.53877e-10
-4.76585e-09
1.53877e-10
1.29073e-09
-3.15897e-09
2.6589e-10
2.22937e-09
-3.51208e-09
2.86713e-10
3.15827e-09
-3.62374e-09
3.3453e-10
3.96399e-09
-3.78901e-09
4.14531e-10
4.48544e-09
-3.83034e-09
5.10871e-10
4.59404e-09
-3.59821e-09
5.94062e-10
4.28157e-09
-3.04212e-09
6.36378e-10
3.66741e-09
-2.24488e-09
6.35572e-10
2.92383e-09
-1.37553e-09
6.20329e-10
2.22137e-09
-6.06314e-10
6.14834e-10
1.6505e-09
-4.46239e-11
6.38798e-10
1.20844e-09
3.01163e-10
6.83127e-10
8.27666e-10
4.9951e-10
7.38919e-10
3.96774e-10
6.40273e-10
7.88169e-10
-1.19018e-10
7.31642e-10
7.83889e-10
-7.2604e-10
7.41714e-10
7.44615e-10
-1.37054e-09
6.35341e-10
6.89253e-10
-1.97067e-09
3.00761e-10
6.47538e-10
-2.4829e-09
-3.17875e-10
6.35621e-10
-2.91065e-09
-1.15794e-09
6.40124e-10
-3.29723e-09
-2.04591e-09
6.23964e-10
-3.62689e-09
-2.81284e-09
5.52161e-10
-3.79835e-09
-3.42245e-09
4.58052e-10
-3.69204e-09
-4.00305e-09
4.5963e-10
-3.20495e-09
-4.66068e-09
5.18428e-10
-2.39515e-09
-5.42969e-09
6.49665e-10
-1.47037e-09
-6.1655e-09
7.95119e-10
-6.58487e-10
-6.60721e-09
8.27436e-10
-6.94892e-09
7.27374e-10
5.22673e-10
-5.76174e-09
5.22673e-10
1.91752e-09
-4.9814e-09
6.20007e-10
3.09876e-09
-5.16484e-09
6.51378e-10
4.19389e-09
-5.26358e-09
7.18049e-10
5.05963e-09
-5.30417e-09
8.03168e-10
5.54868e-09
-5.08276e-09
8.85885e-10
5.58371e-09
-4.48932e-09
9.40442e-10
5.20835e-09
-3.57729e-09
9.56215e-10
4.56396e-09
-2.52817e-09
9.41165e-10
3.80168e-09
-1.54826e-09
9.29042e-10
3.01245e-09
-7.6804e-10
9.41601e-10
2.24527e-09
-2.38254e-10
9.62695e-10
1.48775e-09
9.62903e-11
9.8311e-10
7.13245e-10
3.32667e-10
9.77794e-10
-6.8481e-11
5.37474e-10
9.23344e-10
-8.69473e-10
7.03446e-10
8.53158e-10
-1.65717e-09
7.55183e-10
7.72608e-10
-2.38212e-09
6.31621e-10
7.07217e-10
-3.01698e-09
2.56699e-10
6.62322e-10
-3.56349e-09
-3.7907e-10
6.29914e-10
-4.04564e-09
-1.18295e-09
5.9193e-10
-4.43967e-09
-2.0363e-09
5.2711e-10
-4.65127e-09
-2.90975e-09
4.73189e-10
-4.57032e-09
-3.84944e-09
4.8366e-10
-4.13005e-09
-4.92299e-09
5.5876e-10
-3.39461e-09
-6.06363e-09
6.96184e-10
-2.52459e-09
-7.099e-09
8.21101e-10
-1.68271e-09
-7.78467e-09
8.46994e-10
-8.88992e-10
-7.99194e-09
7.51789e-10
-8.28969e-09
6.97093e-10
9.20681e-10
-7.47673e-09
9.20681e-10
2.58919e-09
-7.38841e-09
1.0366e-09
4.01228e-09
-7.43234e-09
1.1098e-09
5.22616e-09
-7.44941e-09
1.20558e-09
6.08149e-09
-7.2626e-09
1.28584e-09
6.47996e-09
-6.69066e-09
1.32834e-09
6.42927e-09
-5.71364e-09
1.32673e-09
6.03444e-09
-4.47016e-09
1.27984e-09
5.4133e-09
-3.17463e-09
1.21816e-09
4.64092e-09
-2.01383e-09
1.17276e-09
3.75478e-09
-1.09137e-09
1.15638e-09
2.77273e-09
-4.10879e-10
1.13603e-09
1.71075e-09
8.84033e-11
1.09523e-09
6.12711e-10
4.63063e-10
1.03086e-09
-4.67267e-10
7.44245e-10
9.56039e-10
-1.49734e-09
9.26485e-10
8.89835e-10
-2.45622e-09
9.50267e-10
8.38547e-10
-3.32494e-09
7.78249e-10
8.00585e-10
-4.08897e-09
3.62217e-10
7.67874e-10
-4.74733e-09
-2.87948e-10
7.32296e-10
-5.27322e-09
-1.12291e-09
6.87531e-10
-5.59154e-09
-2.13771e-09
6.65507e-10
-5.61498e-09
-3.37005e-09
7.01353e-10
-5.30268e-09
-4.81402e-09
8.02538e-10
-4.70673e-09
-6.37939e-09
9.47855e-10
-3.94698e-09
-7.80423e-09
1.05766e-09
-3.10712e-09
-8.85834e-09
1.05697e-09
-2.18166e-09
-9.44329e-09
9.80667e-10
-1.10941e-09
-9.62751e-09
9.17843e-10
-1.00483e-08
9.65452e-10
1.39267e-09
-1.00713e-08
1.39267e-09
3.36005e-09
-1.05953e-08
1.55487e-09
4.99217e-09
-1.04687e-08
1.66029e-09
6.25546e-09
-1.0259e-08
1.74458e-09
7.03054e-09
-9.68671e-09
1.7769e-09
7.31384e-09
-8.67752e-09
1.75828e-09
7.21633e-09
-7.27148e-09
1.64565e-09
6.84924e-09
-5.66962e-09
1.51252e-09
6.26661e-09
-4.07222e-09
1.41101e-09
5.48326e-09
-2.62445e-09
1.34285e-09
4.4925e-09
-1.39779e-09
1.29335e-09
3.31679e-09
-4.14786e-10
1.23932e-09
2.02005e-09
3.25106e-10
1.18052e-09
6.7892e-10
8.38464e-10
1.12636e-09
-6.41014e-10
1.14836e-09
1.08767e-09
-1.91153e-09
1.28828e-09
1.07002e-09
-3.11426e-09
1.24513e-09
1.05683e-09
-4.21075e-09
9.90906e-10
1.0398e-09
-5.16661e-09
4.93012e-10
1.01341e-09
-5.9393e-09
-2.72715e-10
9.85641e-10
-6.46917e-09
-1.34444e-09
9.92693e-10
-6.69877e-09
-2.76782e-09
1.06067e-09
-6.61085e-09
-4.53187e-09
1.1874e-09
-6.24454e-09
-6.49752e-09
1.3418e-09
-5.69115e-09
-8.38864e-09
1.4489e-09
-4.97208e-09
-9.93288e-09
1.4569e-09
-4.02927e-09
-1.10102e-08
1.37079e-09
-2.80904e-09
-1.1681e-08
1.28531e-09
-1.30965e-09
-1.21416e-08
1.30401e-09
-1.26775e-08
1.43855e-09
1.95421e-09
-1.37939e-08
1.95421e-09
4.18576e-09
-1.47459e-08
2.13317e-09
5.96694e-09
-1.43199e-08
2.21632e-09
7.23672e-09
-1.36994e-08
2.25914e-09
7.95053e-09
-1.25851e-08
2.21897e-09
8.22444e-09
-1.1009e-08
2.04919e-09
8.17607e-09
-9.12434e-09
1.86845e-09
7.87579e-09
-7.12412e-09
1.72221e-09
7.33047e-09
-5.15066e-09
1.61891e-09
6.50844e-09
-3.30121e-09
1.54615e-09
5.40277e-09
-1.66331e-09
1.484e-09
4.0609e-09
-3.26527e-10
1.42684e-09
2.56519e-09
6.47621e-10
1.38252e-09
9.86331e-10
1.26424e-09
1.36295e-09
-6.12666e-10
1.55774e-09
1.36917e-09
-2.20445e-09
1.64966e-09
1.36972e-09
-3.72889e-09
1.52393e-09
1.36126e-09
-5.10719e-09
1.15559e-09
1.33642e-09
-6.25959e-09
4.80379e-10
1.3142e-09
-7.1289e-09
-5.76815e-10
1.33363e-09
-7.67797e-09
-2.09208e-09
1.41819e-09
-7.91284e-09
-4.06122e-09
1.55709e-09
-7.87826e-09
-6.3488e-09
1.70531e-09
-7.62526e-09
-8.68351e-09
1.80332e-09
-7.13203e-09
-1.07977e-08
1.82878e-09
-6.31469e-09
-1.25057e-08
1.78107e-09
-5.11166e-09
-1.37978e-08
1.71231e-09
-3.50144e-09
-1.48353e-08
1.68467e-09
-1.57707e-09
-1.57859e-08
1.76544e-09
-1.62403e-08
1.8987e-09
2.54535e-09
-1.8779e-08
2.54535e-09
4.97399e-09
-1.97895e-08
2.68743e-09
6.89587e-09
-1.89448e-08
2.73437e-09
8.2479e-09
-1.76876e-08
2.6438e-09
9.07153e-09
-1.58876e-08
2.47573e-09
9.47528e-09
-1.37064e-08
2.29281e-09
9.56022e-09
-1.13277e-08
2.13343e-09
9.34676e-09
-8.88138e-09
2.01555e-09
8.7968e-09
-6.44271e-09
1.92872e-09
7.88328e-09
-4.10444e-09
1.85012e-09
6.63075e-09
-2.01669e-09
1.77718e-09
5.10118e-09
-3.35008e-10
1.72204e-09
3.36734e-09
8.39385e-10
1.70315e-09
1.48646e-09
1.54603e-09
1.70552e-09
-5.02634e-10
1.88167e-09
1.70678e-09
-2.5002e-09
1.94183e-09
1.70241e-09
-4.39634e-09
1.73388e-09
1.67986e-09
-6.05939e-09
1.18309e-09
1.66142e-09
-7.40759e-09
1.98748e-10
1.68889e-09
-8.41013e-09
-1.3041e-09
1.7803e-09
-9.08634e-09
-3.35453e-09
1.9222e-09
-9.48246e-09
-5.84512e-09
2.07045e-09
-9.62086e-09
-8.55921e-09
2.18605e-09
-9.46318e-09
-1.11897e-08
2.22441e-09
-8.89708e-09
-1.35627e-08
2.19258e-09
-7.83792e-09
-1.56128e-08
2.15298e-09
-6.2737e-09
-1.73944e-08
2.14987e-09
-4.25139e-09
-1.90223e-08
2.18698e-09
-1.9442e-09
-2.04521e-08
2.27913e-09
-2.0601e-08
2.38549e-09
3.10365e-09
-2.49697e-08
3.10365e-09
5.72167e-09
-2.55557e-08
3.16012e-09
7.89392e-09
-2.41732e-08
3.06856e-09
9.52646e-09
-2.222e-08
2.92479e-09
1.06598e-08
-1.97467e-08
2.76615e-09
1.13511e-08
-1.69639e-08
2.62146e-09
1.16228e-08
-1.40404e-08
2.51037e-09
1.14479e-08
-1.10421e-08
2.41987e-09
1.08063e-08
-8.02735e-09
2.32588e-09
9.72517e-09
-5.1384e-09
2.22359e-09
8.25834e-09
-2.59436e-09
2.14408e-09
6.4751e-09
-5.93182e-10
2.10472e-09
4.40877e-09
8.13691e-10
2.09368e-09
2.09523e-09
1.69997e-09
2.09307e-09
-3.76825e-10
2.16098e-09
2.08197e-09
-2.85033e-09
2.24892e-09
2.05985e-09
-5.1379e-09
1.9255e-09
2.04114e-09
-7.10981e-09
1.10127e-09
2.06499e-09
-8.71425e-09
-3.17651e-10
2.16387e-09
-9.96297e-09
-2.36875e-09
2.32472e-09
-1.09094e-08
-4.9682e-09
2.4967e-09
-1.15661e-08
-7.93675e-09
2.63408e-09
-1.18664e-08
-1.10567e-08
2.71796e-09
-1.16984e-08
-1.40484e-08
2.72589e-09
-1.09511e-08
-1.68506e-08
2.69431e-09
-9.54885e-09
-1.95224e-08
2.68698e-09
-7.54277e-09
-2.20571e-08
2.74896e-09
-5.09552e-09
-2.43303e-08
2.8501e-09
-2.43553e-09
-2.60327e-08
2.92973e-09
-2.58571e-08
2.95463e-09
3.59796e-09
-3.21694e-08
3.59796e-09
6.60239e-09
-3.20403e-08
3.54867e-09
9.2406e-09
-3.01501e-08
3.42183e-09
1.13775e-08
-2.75635e-08
3.29917e-09
1.29786e-08
-2.44447e-08
3.1841e-09
1.4017e-08
-2.10213e-08
3.08939e-09
1.44468e-08
-1.74205e-08
3.00157e-09
1.42441e-08
-1.3698e-08
2.89604e-09
1.34503e-08
-9.96919e-09
2.76554e-09
1.2148e-08
-6.45989e-09
2.64386e-09
1.04079e-08
-3.42427e-09
2.5667e-09
8.25787e-09
-1.01888e-09