/*--------------------------------*- C++ -*----------------------------------*\
| =========                 |                                                 |
| \\      /  F ield         | OpenFOAM: The Open Source CFD Toolbox           |
|  \\    /   O peration     | Version:  2312                                  |
|   \\  /    A nd           | Website:  www.openfoam.com                      |
|    \\/     M anipulation  |                                                 |
\*---------------------------------------------------------------------------*/
FoamFile
{
    version     2.0;
    format      ascii;
    arch        "LSB;label=32;scalar=64";
    class       volVectorField;
    location    "0.46258";
    object      U;
}
// * * * * * * * * * * * * * * * * * * * * * * * * * * * * * * * * * * * * * //

dimensions      [0 1 -1 0 0 0 0];

internalField   nonuniform List<vector> 
90000
(
(1.22338e-06 -8.99168e-07 1.22338e-06)
(-1.35121e-06 3.44989e-06 1.92598e-07)
(-5.91058e-06 2.63365e-06 -8.29467e-08)
(-7.54567e-06 2.174e-06 -5.20546e-07)
(-8.66389e-06 1.73351e-06 -7.79227e-07)
(-8.71985e-06 1.1331e-06 -9.44285e-07)
(-7.83241e-06 4.9984e-07 -1.04965e-06)
(-6.33097e-06 5.65454e-08 -1.01202e-06)
(-4.6824e-06 -9.52605e-08 -8.80682e-07)
(-3.3633e-06 4.36364e-08 -8.28135e-07)
(-2.57552e-06 3.76202e-07 -9.19943e-07)
(-2.18983e-06 7.75118e-07 -1.16477e-06)
(-1.91255e-06 1.0618e-06 -1.53232e-06)
(-1.36627e-06 1.13682e-06 -1.89474e-06)
(-1.60817e-07 9.61457e-07 -2.14578e-06)
(1.85764e-06 6.05973e-07 -2.16939e-06)
(4.30037e-06 1.75812e-07 -1.89276e-06)
(6.46986e-06 -7.07607e-08 -1.26638e-06)
(7.72531e-06 1.82015e-08 -5.47288e-07)
(7.50965e-06 5.40493e-07 1.7376e-07)
(5.47474e-06 1.33609e-06 6.09864e-07)
(1.54493e-06 2.34167e-06 6.61829e-07)
(-3.84558e-06 3.2234e-06 4.30673e-07)
(-9.78285e-06 3.78956e-06 -1.81341e-07)
(-1.49827e-05 3.57943e-06 -1.19705e-06)
(-1.77796e-05 2.48763e-06 -2.26172e-06)
(-1.69968e-05 4.86465e-07 -3.01905e-06)
(-1.30775e-05 -1.85138e-06 -2.62607e-06)
(-5.4098e-06 -4.63369e-06 -6.02339e-07)
(-1.40565e-07 -7.48132e-06 6.67754e-06)
(-8.06739e-07 1.09672e-06 -8.06739e-07)
(-2.12031e-06 8.49729e-06 -6.99192e-07)
(-3.04716e-06 6.63815e-06 -6.37211e-07)
(-3.74702e-06 5.57066e-06 -4.88325e-07)
(-4.24612e-06 4.33198e-06 -3.32679e-07)
(-4.51514e-06 2.81255e-06 -2.33305e-07)
(-4.54181e-06 1.34539e-06 -1.70672e-07)
(-4.35267e-06 2.89385e-07 -2.06091e-07)
(-4.02802e-06 -1.19544e-07 -3.73503e-07)
(-3.53822e-06 4.57687e-08 -5.91545e-07)
(-2.81394e-06 5.4262e-07 -7.84369e-07)
(-1.83643e-06 1.12211e-06 -8.85839e-07)
(-6.43088e-07 1.44392e-06 -8.84325e-07)
(6.50283e-07 1.33794e-06 -7.94775e-07)
(1.90656e-06 8.94143e-07 -6.18301e-07)
(2.85675e-06 2.91227e-07 -4.10199e-07)
(3.30756e-06 -1.1762e-07 -2.36817e-07)
(3.27081e-06 1.01878e-07 -3.40561e-07)
(2.76039e-06 1.16356e-06 -5.47201e-07)
(1.75396e-06 2.96638e-06 -8.99191e-07)
(4.94266e-07 5.09025e-06 -1.2545e-06)
(-7.73005e-07 7.24921e-06 -1.33643e-06)
(-1.75933e-06 8.72028e-06 -1.26237e-06)
(-2.00523e-06 9.02218e-06 -9.12526e-07)
(-1.49718e-06 7.37649e-06 -1.62511e-07)
(-3.56778e-07 3.78953e-06 6.69758e-07)
(1.69045e-06 -1.17078e-06 1.46002e-06)
(4.05268e-06 -5.27438e-06 1.89912e-06)
(2.76266e-06 -7.87157e-06 2.74754e-06)
(2.59513e-07 -1.38222e-05 4.27218e-06)
(-7.96631e-07 4.82369e-06 -7.96631e-07)
(-5.51782e-07 9.96481e-06 -3.97408e-07)
(5.51344e-07 7.90699e-06 -1.77394e-07)
(6.00502e-07 6.7253e-06 9.19384e-08)
(2.4728e-07 5.26613e-06 2.84753e-07)
(-5.88907e-07 3.62291e-06 3.40209e-07)
(-1.70289e-06 2.10499e-06 2.46675e-07)
(-2.80022e-06 9.50189e-07 3.57211e-08)
(-3.53524e-06 2.4535e-07 -2.60059e-07)
(-3.59631e-06 -4.56822e-08 -5.37387e-07)
(-2.79281e-06 -1.23993e-07 -7.00963e-07)
(-1.286e-06 -1.72894e-07 -6.5228e-07)
(4.91493e-07 -3.362e-07 -4.22257e-07)
(2.06262e-06 -6.09379e-07 -7.19029e-08)
(2.90116e-06 -8.39975e-07 2.81205e-07)
(2.65633e-06 -7.69513e-07 4.56699e-07)
(1.43137e-06 -4.3648e-08 3.5675e-07)
(-3.29231e-07 1.43611e-06 -2.71732e-08)
(-2.05305e-06 3.65297e-06 -6.70535e-07)
(-2.95592e-06 6.22678e-06 -1.33945e-06)
(-2.44918e-06 8.56576e-06 -1.83684e-06)
(-4.47242e-07 1.02424e-05 -2.01798e-06)
(3.0289e-06 1.06883e-05 -1.76052e-06)
(7.38756e-06 9.42604e-06 -1.0053e-06)
(1.15419e-05 6.313e-06 1.88778e-07)
(1.455e-05 1.39436e-06 1.63146e-06)
(1.54207e-05 -4.06178e-06 2.65513e-06)
(1.4668e-05 -7.15812e-06 2.39827e-06)
(9.05e-06 -3.29028e-06 1.57437e-06)
(2.0263e-06 -7.14403e-06 -1.13358e-06)
(-3.43632e-07 5.57065e-06 -3.43632e-07)
(9.54941e-07 7.60136e-06 2.02931e-07)
(3.03509e-06 6.06917e-06 4.67673e-07)
(3.61525e-06 5.29091e-06 7.09838e-07)
(3.3798e-06 4.45136e-06 8.22776e-07)
(2.27663e-06 3.50823e-06 7.96704e-07)
(6.36178e-07 2.49635e-06 6.27037e-07)
(-1.16661e-06 1.51385e-06 3.29853e-07)
(-2.54138e-06 5.64256e-07 4.16886e-08)
(-3.01416e-06 -3.89137e-07 -2.1897e-07)
(-2.51021e-06 -1.26813e-06 -3.59846e-07)
(-1.24283e-06 -2.06883e-06 -3.22513e-07)
(2.71668e-07 -2.61547e-06 -1.01534e-07)
(1.40723e-06 -2.67483e-06 1.71674e-07)
(1.70701e-06 -2.0889e-06 3.08596e-07)
(1.02368e-06 -7.81059e-07 3.0968e-07)
(-4.9718e-07 1.19483e-06 8.27902e-08)
(-2.25941e-06 3.57291e-06 -3.13601e-07)
(-3.45336e-06 5.98196e-06 -8.48348e-07)
(-3.33376e-06 7.93878e-06 -1.25783e-06)
(-1.40832e-06 9.05141e-06 -1.52381e-06)
(2.45194e-06 9.14067e-06 -1.51057e-06)
(7.7127e-06 8.04509e-06 -1.1647e-06)
(1.31364e-05 5.86181e-06 -4.7705e-07)
(1.74121e-05 3.10989e-06 5.59426e-07)
(1.90463e-05 -4.74173e-08 1.50652e-06)
(1.69519e-05 -2.91074e-06 2.21285e-06)
(1.25917e-05 -4.7293e-06 2.05238e-06)
(6.17988e-06 2.85505e-06 8.30455e-07)
(1.05756e-06 2.76313e-06 -2.65296e-06)
(3.18001e-07 3.85711e-06 3.18001e-07)
(2.34076e-06 2.00946e-06 8.68718e-07)
(4.71994e-06 1.55156e-06 1.06515e-06)
(5.57301e-06 1.59868e-06 1.1713e-06)
(5.45869e-06 1.82119e-06 1.15591e-06)
(4.41193e-06 1.97567e-06 1.02441e-06)
(2.71462e-06 1.8623e-06 8.18659e-07)
(8.36057e-07 1.34521e-06 5.80493e-07)
(-7.80318e-07 4.17338e-07 3.39652e-07)
(-1.77052e-06 -8.88417e-07 1.32548e-07)
(-2.06296e-06 -2.31328e-06 1.39669e-08)
(-1.89747e-06 -3.53939e-06 -2.53085e-08)
(-1.54063e-06 -4.12239e-06 -5.1405e-08)
(-1.23869e-06 -3.71784e-06 -1.11224e-07)
(-1.29308e-06 -2.24176e-06 -2.51546e-07)
(-1.72665e-06 9.89705e-08 -4.40932e-07)
(-2.20358e-06 2.77829e-06 -6.51643e-07)
(-2.39493e-06 5.25772e-06 -8.19294e-07)
(-1.8965e-06 6.96558e-06 -8.55847e-07)
(-2.98001e-07 7.42993e-06 -7.77531e-07)
(2.57537e-06 6.80838e-06 -6.05421e-07)
(6.42697e-06 5.22077e-06 -3.37522e-07)
(1.06293e-05 3.15755e-06 1.23198e-07)
(1.42471e-05 1.32902e-06 5.18125e-07)
(1.62194e-05 5.24149e-07 4.8852e-07)
(1.567e-05 9.03475e-07 9.40278e-09)
(1.20205e-05 2.43259e-06 -7.14265e-07)
(5.98302e-06 3.45956e-06 -1.50163e-06)
(-3.28062e-07 1.06062e-05 -2.5136e-06)
(-1.65189e-06 1.0568e-05 -4.46821e-06)
(8.35018e-07 -1.76809e-07 8.35018e-07)
(3.01903e-06 -5.20028e-06 1.21312e-06)
(5.06274e-06 -4.34378e-06 1.273e-06)
(6.01e-06 -3.31038e-06 1.19248e-06)
(6.19708e-06 -1.87434e-06 1.02536e-06)
(5.66122e-06 -4.59756e-07 8.0136e-07)
(4.58296e-06 5.44539e-07 5.93302e-07)
(3.19585e-06 8.32314e-07 4.6095e-07)
(1.66665e-06 2.93683e-07 3.82226e-07)
(1.19126e-07 -8.45062e-07 2.82684e-07)
(-1.37895e-06 -2.23338e-06 1.51383e-07)
(-2.77266e-06 -3.33015e-06 -2.79724e-08)
(-3.94127e-06 -3.59862e-06 -2.94335e-07)
(-4.70339e-06 -2.76674e-06 -6.18991e-07)
(-4.89424e-06 -9.04308e-07 -9.44206e-07)
(-4.37552e-06 1.5878e-06 -1.16697e-06)
(-3.10491e-06 4.02621e-06 -1.19209e-06)
(-1.18095e-06 5.58352e-06 -9.05121e-07)
(1.24846e-06 5.88116e-06 -4.79891e-07)
(4.03127e-06 4.78685e-06 7.6235e-08)
(6.80653e-06 2.79699e-06 5.28359e-07)
(9.08822e-06 4.35701e-07 1.00554e-06)
(1.04516e-05 -1.20262e-06 1.14902e-06)
(1.05387e-05 -1.22468e-06 8.88842e-07)
(9.17022e-06 7.94968e-07 8.72952e-08)
(6.44651e-06 4.6814e-06 -1.17493e-06)
(2.85363e-06 1.01313e-05 -2.58837e-06)
(-1.1855e-06 1.46434e-05 -3.72697e-06)
(-4.44743e-06 2.04689e-05 -4.4638e-06)
(-2.85004e-06 1.61475e-05 -4.82472e-06)
(8.15889e-07 -5.06547e-06 8.15889e-07)
(2.50039e-06 -1.20174e-05 9.19562e-07)
(3.98681e-06 -9.87e-06 7.49121e-07)
(5.0237e-06 -7.84931e-06 4.52682e-07)
(5.79644e-06 -5.29922e-06 1.42152e-07)
(6.29923e-06 -2.7399e-06 -6.30914e-08)
(6.4179e-06 -6.82346e-07 -1.4518e-07)
(5.95332e-06 5.34074e-07 -1.0108e-07)
(4.75591e-06 8.11858e-07 6.88275e-08)
(2.76067e-06 4.1231e-07 1.98153e-07)
(9.84065e-08 -2.6735e-07 1.80143e-07)
(-2.83707e-06 -7.89468e-07 -3.00007e-08)
(-5.51828e-06 -8.01311e-07 -3.77124e-07)
(-7.21186e-06 -1.63416e-07 -7.83969e-07)
(-7.38622e-06 1.04649e-06 -1.0894e-06)
(-6.03558e-06 2.46672e-06 -1.10038e-06)
(-3.42265e-06 3.49866e-06 -8.17548e-07)
(-1.7212e-08 3.52805e-06 -2.5985e-07)
(3.62089e-06 2.46407e-06 4.52305e-07)
(6.66076e-06 4.48557e-07 1.06367e-06)
(8.41808e-06 -1.88595e-06 1.6731e-06)
(8.54778e-06 -3.52992e-06 1.83619e-06)
(7.00331e-06 -3.4263e-06 1.51658e-06)
(4.20687e-06 -8.91017e-07 7.66954e-07)
(7.38349e-07 3.94871e-06 -3.46437e-07)
(-2.68782e-06 1.05425e-05 -1.66548e-06)
(-5.1496e-06 1.78303e-05 -2.90921e-06)
(-6.21724e-06 2.35009e-05 -3.35712e-06)
(-5.64228e-06 2.74678e-05 -3.48838e-06)
(-2.47464e-06 1.814e-05 -3.33932e-06)
(2.2113e-08 -8.42918e-06 2.2113e-08)
(7.47701e-07 -1.65373e-05 -1.5362e-07)
(2.0382e-06 -1.3362e-05 -5.93633e-07)
(3.3626e-06 -1.06975e-05 -9.83034e-07)
(5.01964e-06 -7.50975e-06 -1.24003e-06)
(6.82645e-06 -4.29547e-06 -1.26051e-06)
(8.32071e-06 -1.47206e-06 -1.00887e-06)
(8.94879e-06 7.05436e-07 -6.02841e-07)
(8.30083e-06 2.13247e-06 -2.02974e-07)
(6.17036e-06 2.94021e-06 1.53133e-07)
(2.75764e-06 3.30936e-06 3.18248e-07)
(-1.2522e-06 3.39187e-06 2.86597e-07)
(-4.95485e-06 3.26404e-06 1.27503e-07)
(-7.37628e-06 2.94681e-06 -3.2153e-08)
(-7.8927e-06 2.47422e-06 -9.23795e-08)
(-6.60106e-06 1.70866e-06 -1.45249e-08)
(-3.87304e-06 5.80641e-07 3.93424e-07)
(-3.17067e-07 -9.98288e-07 9.73654e-07)
(2.99768e-06 -2.95609e-06 1.5793e-06)
(5.10527e-06 -5.01601e-06 2.03137e-06)
(5.63507e-06 -6.40546e-06 2.17139e-06)
(4.36073e-06 -6.22513e-06 1.93607e-06)
(1.5173e-06 -3.83122e-06 1.33099e-06)
(-2.01339e-06 9.43108e-07 5.86651e-07)
(-5.22116e-06 7.68123e-06 -2.1416e-07)
(-7.38095e-06 1.49991e-05 -1.01489e-06)
(-7.99631e-06 2.16151e-05 -1.48003e-06)
(-6.87061e-06 2.59282e-05 -1.56508e-06)
(-3.93131e-06 2.75798e-05 -1.38835e-06)
(-1.00505e-06 1.64957e-05 -4.5353e-07)
(-1.38445e-06 -8.0667e-06 -1.38445e-06)
(-1.63464e-06 -1.78325e-05 -1.7122e-06)
(9.42669e-08 -1.39847e-05 -2.11718e-06)
(1.86124e-06 -1.1346e-05 -2.36474e-06)
(4.46308e-06 -8.2688e-06 -2.35808e-06)
(7.41735e-06 -5.08266e-06 -2.06094e-06)
(1.00315e-05 -1.93938e-06 -1.49567e-06)
(1.15386e-05 1.03824e-06 -7.70077e-07)
(1.14283e-05 3.68447e-06 -8.50327e-08)
(9.54522e-06 5.79968e-06 4.14014e-07)
(6.18836e-06 7.12066e-06 7.63302e-07)
(2.11157e-06 7.45666e-06 9.88716e-07)
(-1.81128e-06 6.65359e-06 1.11961e-06)
(-4.71665e-06 4.7907e-06 1.25034e-06)
(-6.17717e-06 2.17183e-06 1.41169e-06)
(-6.22566e-06 -9.32798e-07 1.60122e-06)
(-5.14406e-06 -4.07859e-06 1.84376e-06)
(-3.56577e-06 -6.90893e-06 2.06754e-06)
(-2.14749e-06 -9.17698e-06 2.14251e-06)
(-1.38848e-06 -1.05385e-05 1.93516e-06)
(-1.53326e-06 -1.03223e-05 1.5485e-06)
(-2.56952e-06 -8.15878e-06 1.08063e-06)
(-4.16599e-06 -3.98134e-06 6.59753e-07)
(-5.74346e-06 1.87757e-06 3.36484e-07)
(-6.88889e-06 8.64667e-06 3.06569e-07)
(-7.18125e-06 1.49023e-05 4.14125e-07)
(-6.28287e-06 1.95385e-05 5.43156e-07)
(-4.3269e-06 2.16818e-05 8.50096e-07)
(-1.19582e-06 2.13749e-05 1.25668e-06)
(3.55284e-07 1.18321e-05 1.71012e-06)
(-2.38117e-06 -3.61011e-06 -2.38117e-06)
(-3.08236e-06 -1.65736e-05 -2.53526e-06)
(-8.51095e-07 -1.25393e-05 -2.71837e-06)
(1.11355e-06 -1.06868e-05 -2.66582e-06)
(4.11991e-06 -8.46616e-06 -2.30199e-06)
(7.39234e-06 -5.90831e-06 -1.70474e-06)
(1.02076e-05 -2.79382e-06 -9.62173e-07)
(1.19465e-05 7.91446e-07 -1.78101e-07)
(1.22716e-05 4.39594e-06 4.03492e-07)
(1.11635e-05 7.54301e-06 8.7776e-07)
(8.87186e-06 9.48768e-06 1.25282e-06)
(5.83779e-06 9.67155e-06 1.59066e-06)
(2.60361e-06 7.93335e-06 1.96281e-06)
(-4.6317e-07 4.58719e-06 2.29745e-06)
(-3.21243e-06 2.16366e-07 2.55057e-06)
(-5.60772e-06 -4.36735e-06 2.64567e-06)
(-7.64174e-06 -8.63675e-06 2.54922e-06)
(-9.22163e-06 -1.19657e-05 2.06288e-06)
(-1.01763e-05 -1.39985e-05 1.33871e-06)
(-1.04965e-05 -1.43564e-05 5.56437e-07)
(-1.01988e-05 -1.31106e-05 -1.7176e-07)
(-9.36599e-06 -1.00188e-05 -6.2392e-07)
(-8.17466e-06 -5.32884e-06 -6.25048e-07)
(-6.79718e-06 2.29226e-07 -2.17517e-07)
(-5.36276e-06 5.77737e-06 2.98946e-07)
(-3.88096e-06 1.04242e-05 8.78005e-07)
(-2.22026e-06 1.31725e-05 1.4913e-06)
(-5.22047e-07 1.37476e-05 1.91718e-06)
(1.26583e-06 1.27629e-05 2.05041e-06)
(1.13486e-06 5.97228e-06 1.94973e-06)
(-1.8515e-06 2.22443e-06 -1.8515e-06)
(-2.30437e-06 -1.49752e-05 -1.76212e-06)
(-4.58875e-07 -1.11448e-05 -1.60108e-06)
(1.02282e-06 -1.05586e-05 -1.32538e-06)
(3.13103e-06 -9.45376e-06 -7.5055e-07)
(5.29015e-06 -7.59878e-06 -9.62242e-08)
(7.10365e-06 -4.65931e-06 4.31563e-07)
(8.34898e-06 -7.85506e-07 7.31505e-07)
(9.07504e-06 3.32527e-06 8.31346e-07)
(9.32426e-06 6.97907e-06 8.53995e-07)
(9.10036e-06 9.25226e-06 1.13124e-06)
(8.21892e-06 9.36462e-06 1.46447e-06)
(6.41519e-06 7.24717e-06 1.87818e-06)
(3.47183e-06 3.45206e-06 2.2276e-06)
(-6.2573e-07 -1.22244e-06 2.36773e-06)
(-5.51829e-06 -5.86414e-06 2.12823e-06)
(-1.05746e-05 -9.97911e-06 1.46541e-06)
(-1.49245e-05 -1.30746e-05 4.92917e-07)
(-1.76641e-05 -1.49262e-05 -6.4347e-07)
(-1.8253e-05 -1.52326e-05 -1.61607e-06)
(-1.67627e-05 -1.43187e-05 -2.22431e-06)
(-1.37943e-05 -1.18166e-05 -2.30798e-06)
(-1.01436e-05 -7.98846e-06 -1.89294e-06)
(-6.44147e-06 -3.5385e-06 -1.08402e-06)
(-3.14384e-06 6.95726e-07 -1.84104e-07)
(-5.32086e-07 3.93563e-06 5.77768e-07)
(1.31771e-06 5.62089e-06 1.07943e-06)
(2.27913e-06 5.8948e-06 1.32018e-06)
(2.71224e-06 5.50114e-06 1.33579e-06)
(1.47472e-06 1.43152e-06 1.41278e-06)
(4.13584e-07 4.40419e-06 4.13584e-07)
(6.84941e-07 -1.51697e-05 6.55789e-07)
(4.1242e-07 -1.18184e-05 1.10052e-06)
(1.96683e-07 -1.22519e-05 1.35778e-06)
(-3.41131e-08 -1.19834e-05 1.77839e-06)
(-2.94231e-07 -1.05298e-05 1.84566e-06)
(-2.69082e-07 -7.69554e-06 1.57196e-06)
(3.81342e-07 -3.80483e-06 1.10888e-06)
(1.89966e-06 3.63433e-07 6.31698e-07)
(4.2023e-06 4.04012e-06 2.86384e-07)
(6.7405e-06 6.40442e-06 2.57075e-07)
(8.51797e-06 6.96996e-06 5.84241e-07)
(8.49368e-06 5.76385e-06 8.00684e-07)
(6.03147e-06 3.26819e-06 9.99613e-07)
(1.21752e-06 1.38928e-07 9.29654e-07)
(-5.21149e-06 -3.01432e-06 4.41159e-07)
(-1.19867e-05 -6.04292e-06 -4.0846e-07)
(-1.75922e-05 -8.90219e-06 -1.36969e-06)
(-2.07892e-05 -1.14202e-05 -2.31429e-06)
(-2.105e-05 -1.31705e-05 -2.84199e-06)
(-1.87654e-05 -1.39083e-05 -2.97317e-06)
(-1.47959e-05 -1.31884e-05 -2.62648e-06)
(-1.01859e-05 -1.10729e-05 -1.92581e-06)
(-5.81194e-06 -7.97605e-06 -1.09847e-06)
(-2.11856e-06 -4.77373e-06 -3.80532e-07)
(7.38181e-07 -2.26278e-06 1.18973e-07)
(2.77739e-06 -7.65758e-07 4.70871e-07)
(3.80713e-06 -2.87672e-08 7.44314e-07)
(4.1809e-06 4.71223e-07 1.09637e-06)
(2.20345e-06 -1.01681e-06 1.77275e-06)
(3.63074e-06 -1.9752e-06 3.63074e-06)
(4.29627e-06 -1.75015e-05 3.74433e-06)
(1.58373e-07 -1.5269e-05 4.00704e-06)
(-2.61998e-06 -1.57155e-05 3.81529e-06)
(-5.68937e-06 -1.54727e-05 3.41917e-06)
(-8.35004e-06 -1.38741e-05 2.64968e-06)
(-9.79836e-06 -1.10839e-05 1.63333e-06)
(-9.30383e-06 -7.54707e-06 5.87603e-07)
(-6.40054e-06 -3.75352e-06 -1.97456e-07)
(-1.66524e-06 -6.61868e-07 -6.60055e-07)
(3.50056e-06 1.76808e-06 -6.9303e-07)
(7.56772e-06 3.49595e-06 -4.68084e-07)
(9.05848e-06 4.5438e-06 -1.76153e-07)
(7.30285e-06 4.98433e-06 -2.75293e-07)
(2.75915e-06 4.78746e-06 -6.31633e-07)
(-3.57626e-06 3.79371e-06 -1.07148e-06)
(-1.01412e-05 1.81494e-06 -1.54043e-06)
(-1.50444e-05 -1.52492e-06 -2.06233e-06)
(-1.74374e-05 -5.70761e-06 -2.27883e-06)
(-1.74084e-05 -9.74132e-06 -2.13406e-06)
(-1.54806e-05 -1.28891e-05 -1.70603e-06)
(-1.25402e-05 -1.4315e-05 -1.10507e-06)
(-9.33226e-06 -1.38345e-05 -4.81642e-07)
(-6.22837e-06 -1.20131e-05 -4.73894e-08)
(-3.23788e-06 -9.75246e-06 2.25343e-07)
(-2.83725e-07 -7.79698e-06 4.86253e-07)
(2.44777e-06 -6.30821e-06 8.54264e-07)
(4.36306e-06 -5.08368e-06 1.38485e-06)
(5.32074e-06 -3.85192e-06 2.01485e-06)
(2.84758e-06 -2.21585e-06 2.86551e-06)
(6.31645e-06 -1.74985e-05 6.31645e-06)
(6.45848e-06 -1.99832e-05 5.26064e-06)
(-1.89406e-06 -1.93625e-05 4.81851e-06)
(-6.75816e-06 -1.90389e-05 4.17547e-06)
(-1.16388e-05 -1.79282e-05 3.19868e-06)
(-1.55289e-05 -1.59231e-05 1.94386e-06)
(-1.72996e-05 -1.34519e-05 7.15616e-07)
(-1.59017e-05 -1.09246e-05 -2.96105e-07)
(-1.13562e-05 -8.55628e-06 -9.34031e-07)
(-4.97055e-06 -6.53156e-06 -1.14581e-06)
(1.56439e-06 -3.79295e-06 -9.76309e-07)
(6.54731e-06 -2.63802e-07 -7.39654e-07)
(8.75275e-06 3.77438e-06 -6.72005e-07)
(7.88146e-06 7.67451e-06 -8.16577e-07)
(4.53142e-06 1.04965e-05 -9.78529e-07)
(4.54995e-08 1.13445e-05 -1.27309e-06)
(-4.17935e-06 9.67184e-06 -1.35421e-06)
(-7.26338e-06 5.24817e-06 -1.10299e-06)
(-8.96291e-06 -8.89162e-07 -5.46324e-07)
(-9.56283e-06 -7.21435e-06 1.42105e-07)
(-9.60326e-06 -1.24331e-05 7.95717e-07)
(-9.56158e-06 -1.55225e-05 1.36175e-06)
(-9.37776e-06 -1.63974e-05 1.52969e-06)
(-8.40642e-06 -1.58893e-05 1.34312e-06)
(-6.18493e-06 -1.48615e-05 1.25497e-06)
(-2.98541e-06 -1.37597e-05 1.49872e-06)
(3.48947e-07 -1.253e-05 2.10858e-06)
(2.81074e-06 -1.09441e-05 2.90519e-06)
(3.70083e-06 -8.89316e-06 3.49188e-06)
(1.86509e-06 -3.63546e-06 3.10144e-06)
(6.16333e-06 -3.61602e-05 6.16333e-06)
(4.8182e-06 -1.99415e-05 4.30442e-06)
(-5.08515e-06 -2.10307e-05 3.45998e-06)
(-1.01983e-05 -1.98953e-05 2.48892e-06)
(-1.48242e-05 -1.78629e-05 1.44408e-06)
(-1.77566e-05 -1.59782e-05 4.08771e-07)
(-1.80877e-05 -1.46213e-05 -2.82807e-07)
(-1.53185e-05 -1.40421e-05 -5.9228e-07)
(-9.98905e-06 -1.38259e-05 -4.99362e-07)
(-3.62329e-06 -1.26778e-05 -3.81966e-07)
(2.23301e-06 -9.38537e-06 -1.38834e-07)
(6.27431e-06 -3.81519e-06 -6.40947e-08)
(7.97891e-06 3.0886e-06 -2.57736e-07)
(7.7958e-06 9.81477e-06 -6.26821e-07)
(6.48668e-06 1.4598e-05 -7.57784e-07)
(4.86348e-06 1.62659e-05 -6.94362e-07)
(3.47064e-06 1.41733e-05 -2.18054e-07)
(2.18193e-06 8.59342e-06 5.95541e-07)
(5.8483e-07 1.12232e-06 1.54595e-06)
(-1.71329e-06 -6.41021e-06 2.35385e-06)
(-4.89494e-06 -1.24591e-05 2.7576e-06)
(-8.40254e-06 -1.64333e-05 2.64073e-06)
(-1.09745e-05 -1.85762e-05 2.22831e-06)
(-1.15018e-05 -1.9746e-05 1.92267e-06)
(-9.76634e-06 -2.04067e-05 1.99159e-06)
(-6.59423e-06 -2.04013e-05 2.39744e-06)
(-3.39753e-06 -1.92822e-05 2.8864e-06)
(-1.46345e-06 -1.67628e-05 3.05645e-06)
(-1.34541e-06 -1.30505e-05 2.5076e-06)
(-8.91928e-07 -5.95757e-06 1.08549e-06)
(3.27163e-06 -4.98239e-05 3.27163e-06)
(9.20495e-07 -1.66831e-05 1.4085e-06)
(-6.44255e-06 -1.94514e-05 6.07693e-07)
(-9.73611e-06 -1.7944e-05 -1.50375e-07)
(-1.20303e-05 -1.59065e-05 -5.60055e-07)
(-1.24651e-05 -1.50902e-05 -5.97682e-07)
(-1.05537e-05 -1.58472e-05 -3.96958e-07)
(-6.72585e-06 -1.76775e-05 7.22341e-10)
(-2.07422e-06 -1.8948e-05 4.75951e-07)
(2.10085e-06 -1.79795e-05 7.95781e-07)
(4.93412e-06 -1.36876e-05 8.76221e-07)
(6.2515e-06 -6.26776e-06 6.51943e-07)
(6.6565e-06 2.55257e-06 1.29371e-07)
(7.02195e-06 1.0689e-05 -2.90451e-07)
(7.73812e-06 1.60364e-05 -3.61442e-07)
(8.67631e-06 1.74687e-05 -2.02771e-08)
(9.37604e-06 1.47671e-05 7.27214e-07)
(8.90663e-06 8.73976e-06 1.68588e-06)
(6.25258e-06 1.28935e-06 2.4538e-06)
(1.46278e-06 -5.77626e-06 2.79222e-06)
(-4.44764e-06 -1.15221e-05 2.58197e-06)
(-9.99139e-06 -1.59888e-05 2.08542e-06)
(-1.3556e-05 -1.96329e-05 1.68999e-06)
(-1.44208e-05 -2.2894e-05 1.63118e-06)
(-1.3128e-05 -2.52782e-05 1.88461e-06)
(-1.10907e-05 -2.58312e-05 2.14009e-06)
(-9.63246e-06 -2.39313e-05 2.00652e-06)
(-9.14163e-06 -1.97044e-05 1.26786e-06)
(-8.89151e-06 -1.43554e-05 -1.99239e-08)
(-4.40074e-06 -1.02852e-05 -9.25237e-07)
(-4.39409e-07 -5.38147e-05 -4.39409e-07)
(-2.35615e-06 -1.20703e-05 -1.44931e-06)
(-4.08386e-06 -1.64698e-05 -1.43241e-06)
(-4.09681e-06 -1.53428e-05 -1.60074e-06)
(-2.80501e-06 -1.4574e-05 -1.15748e-06)
(1.32157e-08 -1.5674e-05 -5.79279e-07)
(3.7812e-06 -1.8453e-05 1.88457e-07)
(7.21278e-06 -2.1516e-05 9.64397e-07)
(9.29577e-06 -2.2848e-05 1.4699e-06)
(9.58706e-06 -2.09578e-05 1.663e-06)
(8.30925e-06 -1.52457e-05 1.41198e-06)
(6.60251e-06 -6.54283e-06 7.18556e-07)
(5.72058e-06 2.85122e-06 1.10466e-07)
(6.33996e-06 1.07202e-05 -2.01441e-07)
(8.22587e-06 1.53469e-05 -2.12451e-08)
(1.03409e-05 1.61279e-05 5.73764e-07)
(1.14305e-05 1.33577e-05 1.23332e-06)
(1.01314e-05 8.21808e-06 1.86598e-06)
(5.82839e-06 2.11319e-06 2.16203e-06)
(-5.46058e-07 -3.63503e-06 2.05462e-06)
(-7.36657e-06 -8.99051e-06 1.67406e-06)
(-1.29774e-05 -1.44901e-05 1.39987e-06)
(-1.62582e-05 -2.01515e-05 1.42611e-06)
(-1.73511e-05 -2.53424e-05 1.68854e-06)
(-1.73763e-05 -2.85135e-05 1.86355e-06)
(-1.74172e-05 -2.85212e-05 1.61322e-06)
(-1.7576e-05 -2.53776e-05 8.11647e-07)
(-1.68573e-05 -2.0285e-05 -1.91794e-07)
(-1.38512e-05 -1.60926e-05 -5.12545e-07)
(-5.89456e-06 -1.88746e-05 -1.39435e-07)
(-2.44396e-06 -5.02572e-05 -2.44396e-06)
(-2.53788e-06 -1.01859e-05 -1.83905e-06)
(1.56594e-06 -1.59117e-05 -1.40555e-06)
(5.49787e-06 -1.55964e-05 -1.3828e-06)
(1.03465e-05 -1.65089e-05 -7.63105e-07)
(1.55656e-05 -1.91128e-05 8.01632e-08)
(1.98215e-05 -2.2428e-05 9.7236e-07)
(2.17438e-05 -2.47119e-05 1.64955e-06)
(2.07099e-05 -2.4388e-05 1.9363e-06)
(1.71586e-05 -2.05017e-05 1.78448e-06)
(1.24593e-05 -1.33555e-05 1.24774e-06)
(8.45956e-06 -4.42018e-06 6.64803e-07)
(6.5418e-06 3.94843e-06 3.20451e-07)
(6.8116e-06 1.02359e-05 3.85098e-07)
(8.34788e-06 1.35146e-05 8.42714e-07)
(9.71833e-06 1.38157e-05 1.45649e-06)
(9.45125e-06 1.1721e-05 2.00676e-06)
(6.3876e-06 8.17399e-06 2.30137e-06)
(7.7197e-07 3.85047e-06 2.20996e-06)
(-5.89228e-06 -1.07446e-06 1.9856e-06)
(-1.2122e-05 -6.99059e-06 1.91811e-06)
(-1.67644e-05 -1.41967e-05 2.041e-06)
(-1.96462e-05 -2.17067e-05 2.32833e-06)
(-2.15598e-05 -2.77652e-05 2.49951e-06)
(-2.32609e-05 -3.06277e-05 2.26832e-06)
(-2.45412e-05 -2.99472e-05 1.6006e-06)
(-2.42143e-05 -2.69524e-05 8.71128e-07)
(-2.08239e-05 -2.41082e-05 9.20773e-07)
(-1.3919e-05 -2.4132e-05 1.59888e-06)
(-4.9074e-06 -3.21688e-05 2.39432e-06)
(-1.79701e-06 -4.58322e-05 -1.79701e-06)
(1.34651e-06 -1.43056e-05 -7.63699e-07)
(9.70739e-06 -2.00666e-05 -5.92379e-07)
(1.67032e-05 -2.05272e-05 -2.90346e-07)
(2.3849e-05 -2.24412e-05 3.46927e-07)
(3.00561e-05 -2.51119e-05 1.0933e-06)
(3.38482e-05 -2.71475e-05 1.77192e-06)
(3.41027e-05 -2.69259e-05 2.19204e-06)
(3.06655e-05 -2.36159e-05 2.25816e-06)
(2.4661e-05 -1.74186e-05 2.03625e-06)
(1.81137e-05 -9.48655e-06 1.6982e-06)
(1.28767e-05 -1.58975e-06 1.52047e-06)
(9.7654e-06 4.65644e-06 1.61673e-06)
(8.44572e-06 8.8135e-06 1.9741e-06)
(7.83664e-06 1.08249e-05 2.45503e-06)
(6.67156e-06 1.1075e-05 2.90149e-06)
(3.8141e-06 9.91438e-06 3.09534e-06)
(-1.01902e-06 7.81541e-06 3.08001e-06)
(-7.05645e-06 4.60777e-06 2.93391e-06)
(-1.3182e-05 -4.90625e-07 2.86228e-06)
(-1.83707e-05 -7.70947e-06 2.92338e-06)
(-2.2311e-05 -1.64066e-05 3.11376e-06)
(-2.54925e-05 -2.46747e-05 3.22374e-06)
(-2.83635e-05 -3.04838e-05 2.97913e-06)
(-3.04934e-05 -3.30335e-05 2.3752e-06)
(-3.05999e-05 -3.33762e-05 1.96137e-06)
(-2.74423e-05 -3.3552e-05 2.27857e-06)
(-2.06635e-05 -3.55519e-05 2.9508e-06)
(-1.15734e-05 -3.96421e-05 3.77267e-06)
(-3.44453e-06 -4.78097e-05 4.03674e-06)
(1.71717e-07 -4.58162e-05 1.71717e-07)
(6.6195e-06 -2.46655e-05 9.5558e-07)
(1.76509e-05 -2.90905e-05 1.10301e-06)
(2.69686e-05 -3.00721e-05 1.40271e-06)
(3.57025e-05 -3.20043e-05 1.90822e-06)
(4.24056e-05 -3.34003e-05 2.50015e-06)
(4.55856e-05 -3.27337e-05 2.99413e-06)
(4.45369e-05 -2.90356e-05 3.24179e-06)
(3.9839e-05 -2.25262e-05 3.25091e-06)
(3.29877e-05 -1.45215e-05 3.18068e-06)
(2.57201e-05 -6.66826e-06 3.159e-06)
(1.93441e-05 -3.511e-07 3.28797e-06)
(1.42853e-05 3.87107e-06 3.52045e-06)
(1.01823e-05 6.38155e-06 3.80828e-06)
(6.138e-06 7.65497e-06 4.05852e-06)
(1.4057e-06 8.26606e-06 4.03742e-06)
(-4.21964e-06 8.10159e-06 3.83848e-06)
(-1.0491e-05 6.89557e-06 3.55735e-06)
(-1.67309e-05 3.74705e-06 3.34569e-06)
(-2.23047e-05 -2.06649e-06 3.2829e-06)
(-2.70128e-05 -1.02188e-05 3.29762e-06)
(-3.10961e-05 -1.92566e-05 3.20102e-06)
(-3.4698e-05 -2.72101e-05 2.82397e-06)
(-3.72295e-05 -3.29848e-05 2.33239e-06)
(-3.7582e-05 -3.71641e-05 2.32455e-06)
(-3.4625e-05 -4.12136e-05 2.59775e-06)
(-2.81037e-05 -4.64081e-05 3.26321e-06)
(-1.93616e-05 -5.24546e-05 4.03424e-06)
(-1.0603e-05 -5.74614e-05 4.21881e-06)
(-3.31368e-06 -6.26207e-05 3.705e-06)
(2.32588e-06 -5.23203e-05 2.32588e-06)
(1.18748e-05 -4.03825e-05 2.92272e-06)
(2.51387e-05 -4.30687e-05 3.10519e-06)
(3.65321e-05 -4.41583e-05 3.4908e-06)
(4.64019e-05 -4.52442e-05 3.99182e-06)
(5.32252e-05 -4.43916e-05 4.47631e-06)
(5.58481e-05 -4.02825e-05 4.79445e-06)
(5.41041e-05 -3.29342e-05 4.89745e-06)
(4.89513e-05 -2.36894e-05 4.83721e-06)
(4.18806e-05 -1.44505e-05 4.79253e-06)
(3.41046e-05 -6.74603e-06 4.873e-06)
(2.63132e-05 -1.35703e-06 4.99191e-06)
(1.86804e-05 1.98015e-06 5.09743e-06)
(1.10084e-05 4.105e-06 5.0617e-06)
(3.21612e-06 5.63501e-06 4.77024e-06)
(-4.70099e-06 6.87694e-06 4.40182e-06)
(-1.26486e-05 7.41547e-06 3.98599e-06)
(-2.02249e-05 6.3433e-06 3.64661e-06)
(-2.7037e-05 2.81435e-06 3.40778e-06)
(-3.29546e-05 -3.44315e-06 3.22873e-06)
(-3.81105e-05 -1.16417e-05 3.01962e-06)
(-4.25106e-05 -2.03123e-05 2.66863e-06)
(-4.5563e-05 -2.8468e-05 2.35842e-06)
(-4.62379e-05 -3.61678e-05 2.36207e-06)
(-4.36405e-05 -4.44131e-05 2.7157e-06)
(-3.77415e-05 -5.34147e-05 3.43626e-06)
(-2.96602e-05 -6.24871e-05 4.12824e-06)
(-2.10443e-05 -6.96509e-05 4.30231e-06)
(-1.28005e-05 -7.29084e-05 3.83792e-06)
(-4.47165e-06 -7.60946e-05 3.5316e-06)
(4.47192e-06 -6.58486e-05 4.47192e-06)
(1.73651e-05 -6.14764e-05 5.12932e-06)
(3.31023e-05 -6.26367e-05 5.54595e-06)
(4.63219e-05 -6.32824e-05 6.08528e-06)
(5.67223e-05 -6.26233e-05 6.5401e-06)
(6.30049e-05 -5.87e-05 6.79124e-06)
(6.47133e-05 -5.08594e-05 6.81186e-06)
(6.24424e-05 -4.00748e-05 6.59591e-06)
(5.73352e-05 -2.83523e-05 6.29738e-06)
(5.0358e-05 -1.76779e-05 6.07977e-06)
(4.20578e-05 -9.2178e-06 6.00936e-06)
(3.26999e-05 -3.21989e-06 5.90646e-06)
(2.24524e-05 9.16436e-07 5.68527e-06)
(1.1624e-05 3.94632e-06 5.33984e-06)
(7.16326e-07 6.33613e-06 4.94466e-06)
(-9.84214e-06 8.02876e-06 4.59972e-06)
(-1.97975e-05 8.53311e-06 4.33064e-06)
(-2.89532e-05 7.09374e-06 4.12394e-06)
(-3.7136e-05 3.16924e-06 3.93735e-06)
(-4.42637e-05 -3.22313e-06 3.73295e-06)
(-5.01999e-05 -1.13725e-05 3.47806e-06)
(-5.44365e-05 -2.06652e-05 3.33231e-06)
(-5.61603e-05 -3.11554e-05 3.48122e-06)
(-5.47268e-05 -4.30557e-05 3.97692e-06)
(-5.01812e-05 -5.62607e-05 4.72734e-06)
(-4.33714e-05 -6.91278e-05 5.32385e-06)
(-3.5325e-05 -7.96221e-05 5.35454e-06)
(-2.64709e-05 -8.59844e-05 4.98427e-06)
(-1.64506e-05 -8.78849e-05 4.64417e-06)
(-5.63233e-06 -9.14711e-05 4.83197e-06)
(6.93925e-06 -8.73199e-05 6.93925e-06)
(2.36907e-05 -8.95078e-05 7.84937e-06)
(4.19286e-05 -8.91588e-05 8.43477e-06)
(5.64428e-05 -8.82819e-05 8.90162e-06)
(6.66548e-05 -8.45545e-05 9.10966e-06)
(7.19122e-05 -7.66827e-05 9.06252e-06)
(7.27926e-05 -6.47708e-05 8.50082e-06)
(7.04452e-05 -5.05389e-05 7.8163e-06)
(6.56978e-05 -3.60825e-05 7.29702e-06)
(5.88767e-05 -2.3067e-05 6.95252e-06)
(5.00007e-05 -1.23556e-05 6.70176e-06)
(3.91396e-05 -4.05886e-06 6.4204e-06)
(2.67389e-05 2.1317e-06 6.11175e-06)
(1.35315e-05 6.56811e-06 5.82859e-06)
(2.11636e-07 9.51202e-06 5.62876e-06)
(-1.2773e-05 1.11098e-05 5.53631e-06)
(-2.51721e-05 1.10598e-05 5.45904e-06)
(-3.67004e-05 8.95612e-06 5.35485e-06)
(-4.69896e-05 4.42946e-06 5.19986e-06)
(-5.56489e-05 -2.6027e-06 5.03929e-06)
(-6.21697e-05 -1.20918e-05 5.05721e-06)
(-6.59721e-05 -2.42543e-05 5.38919e-06)
(-6.66891e-05 -3.92287e-05 6.02602e-06)
(-6.44257e-05 -5.62875e-05 6.80885e-06)
(-5.9817e-05 -7.35971e-05 7.36057e-06)
(-5.34219e-05 -8.84777e-05 7.41392e-06)
(-4.509e-05 -9.91409e-05 6.98344e-06)
(-3.42852e-05 -0.000105362 6.52244e-06)
(-2.06351e-05 -0.00010849 6.56239e-06)
(-6.66411e-06 -0.000113317 7.21434e-06)
(9.86413e-06 -0.000118842 9.86413e-06)
(3.07484e-05 -0.000126325 1.08617e-05)
(5.10107e-05 -0.000123632 1.13426e-05)
(6.62788e-05 -0.00011956 1.16307e-05)
(7.61691e-05 -0.00011117 1.14827e-05)
(8.10512e-05 -9.82535e-05 1.06032e-05)
(8.21449e-05 -8.17881e-05 9.65046e-06)
(8.04035e-05 -6.3772e-05 8.88314e-06)
(7.61991e-05 -4.59304e-05 8.34902e-06)
(6.93754e-05 -2.94662e-05 7.97883e-06)
(5.97206e-05 -1.51548e-05 7.66371e-06)
(4.74447e-05 -3.55344e-06 7.37224e-06)
(3.32198e-05 5.02095e-06 7.14759e-06)
(1.78291e-05 1.06656e-05 7.05194e-06)
(1.91224e-06 1.37963e-05 7.08727e-06)
(-1.40952e-05 1.48562e-05 7.0879e-06)
(-2.97326e-05 1.40023e-05 7.03371e-06)
(-4.42939e-05 1.09168e-05 6.89064e-06)
(-5.69772e-05 5.09477e-06 6.76246e-06)
(-6.70957e-05 -3.9854e-06 6.84912e-06)
(-7.41877e-05 -1.69024e-05 7.27065e-06)
(-7.81124e-05 -3.38636e-05 7.9698e-06)
(-7.91287e-05 -5.41267e-05 8.71403e-06)
(-7.76981e-05 -7.56436e-05 9.20757e-06)
(-7.39465e-05 -9.56943e-05 9.34243e-06)
(-6.73706e-05 -0.000111962 9.11021e-06)
(-5.72889e-05 -0.000123758 8.74311e-06)
(-4.32423e-05 -0.0001322 8.54597e-06)
(-2.54364e-05 -0.000139191 8.93259e-06)
(-7.99044e-06 -0.000144243 9.59006e-06)
(1.29261e-05 -0.000162393 1.29261e-05)
(3.77245e-05 -0.000172362 1.38139e-05)
(5.96284e-05 -0.000166054 1.41452e-05)
(7.60009e-05 -0.000156694 1.37032e-05)
(8.68467e-05 -0.000142121 1.2821e-05)
(9.29681e-05 -0.000123315 1.18434e-05)
(9.54475e-05 -0.000101991 1.09966e-05)
(9.4857e-05 -7.9775e-05 1.03822e-05)
(9.10551e-05 -5.7742e-05 9.93929e-06)
(8.37106e-05 -3.682e-05 9.54138e-06)
(7.28269e-05 -1.81888e-05 9.1737e-06)
(5.88598e-05 -3.08305e-06 8.8973e-06)
(4.24998e-05 7.65742e-06 8.80978e-06)
(2.43941e-05 1.42548e-05 8.83161e-06)
(4.97608e-06 1.75215e-05 8.84464e-06)
(-1.50451e-05 1.81897e-05 8.81739e-06)
(-3.45838e-05 1.6506e-05 8.69055e-06)
(-5.24372e-05 1.19409e-05 8.58519e-06)
(-6.75218e-05 3.66937e-06 8.71547e-06)
(-7.92848e-05 -9.11981e-06 9.17274e-06)
(-8.76937e-05 -2.69495e-05 9.88697e-06)
(-9.30884e-05 -4.92465e-05 1.06306e-05)
(-9.57934e-05 -7.4253e-05 1.12156e-05)
(-9.5704e-05 -9.9089e-05 1.1423e-05)