/*--------------------------------*- C++ -*----------------------------------*\
| =========                 |                                                 |
| \\      /  F ield         | OpenFOAM: The Open Source CFD Toolbox           |
|  \\    /   O peration     | Version:  2312                                  |
|   \\  /    A nd           | Website:  www.openfoam.com                      |
|    \\/     M anipulation  |                                                 |
\*---------------------------------------------------------------------------*/
FoamFile
{
    version     2.0;
    format      ascii;
    arch        "LSB;label=32;scalar=64";
    class       volScalarField;
    location    "0.54522";
    object      alpha.water;
}
// * * * * * * * * * * * * * * * * * * * * * * * * * * * * * * * * * * * * * //

dimensions      [0 0 0 0 0 0 0];

internalField   nonuniform List<scalar> 
90000
(
1
0.999992
0.999993
0.999995
0.999996
0.999998
1
1
1
1
1
1
1
1
1.00001
1.00001
1.00001
1.00001
1.00001
1
1
0.999998
0.999996
0.999996
0.999998
1
1.00001
1.00002
1.00002
1.00003
0.999991
0.999988
0.999991
0.999994
0.999997
1
1
1.00001
1.00001
1.00001
1.00001
1.00001
1.00001
1.00001
1.00001
1.00001
1.00001
1.00001
1.00001
1
0.999998
0.999995
0.999994
0.999997
1.00001
1.00002
1.00003
1.00005
1.0001
1.00021
0.999994
0.999993
0.999995
0.999997
0.999999
1
1
1.00001
1.00001
1.00001
1.00001
1.00001
1.00001
1.00001
1.00001
1.00001
1.00001
1
1
1
0.999998
0.999997
0.999998
1
1.00001
1.00001
1.00001
0.99998
0.999925
1.00004
0.999996
0.999998
0.999999
1
1
1
1
1
1.00001
1.00001
1.00001
1.00001
1.00001
1
1
1
1
1
0.999999
0.999999
1
1
1
1
1.00001
1.00001
1.00002
1.00003
0.999976
1.00001
0.999999
1
1
1
1
1
1
1
1
1.00001
1.00001
1.00001
1.00001
1
1
1
0.999999
0.999998
0.999998
1
1
1
1
1
1
0.999996
0.99999
1
0.999982
0.999989
1
1.00001
1.00001
1
1
1
1
1
1
1.00001
1.00001
1.00001
1.00001
1.00001
1
1
1
0.999999
1
1
1
1.00001
1
1
1
0.999995
0.999985
0.999985
0.999978
0.999982
1
1.00001
1.00001
1
1
1
1
1
1
1.00001
1.00001
1.00001
1.00001
1.00001
1.00001
1.00001
1
1
1
1
1
1
1
1
0.999995
0.999991
0.999986
0.999982
0.999979
0.999985
1
1.00001
1.00001
1
1
1
1
1
1
1
1.00001
1.00001
1.00001
1.00001
1.00001
1.00001
1.00001
1.00001
1.00001
1
1
1
0.999999
0.999997
0.999993
0.99999
0.999987
0.999985
0.999985
0.99999
1
1.00001
1.00001
1.00001
1
1
1
1
0.999999
0.999999
1
1
1
1.00001
1.00001
1.00001
1.00001
1.00001
1.00001
1
1
0.999998
0.999996
0.999993
0.999991
0.999989
0.999989
0.999989
0.99999
0.999994
1.00001
1.00001
1.00001
1.00001
1.00001
1.00001
1
1
0.999997
0.999995
0.999994
0.999995
0.999998
1
1
1
1.00001
1
1
1
0.999999
0.999996
0.999994
0.999991
0.99999
0.999989
0.999989
0.999991
0.999992
0.999994
1.00001
1.00002
1.00002
1.00002
1.00002
1.00001
1.00001
1
0.999996
0.999992
0.999989
0.999989
0.99999
0.999992
0.999995
0.999997
0.999999
1
1
1
0.999999
0.999998
0.999995
0.999993
0.999991
0.99999
0.999991
0.999992
0.999994
0.999995
1.00001
1.00003
1.00003
1.00003
1.00002
1.00002
1.00001
1
0.999997
0.999991
0.999987
0.999985
0.999985
0.999986
0.999988
0.99999
0.999993
0.999997
1
1
1
1
1
1
0.999998
0.999997
0.999997
0.999998
0.999998
1
1.00002
1.00003
1.00003
1.00003
1.00002
1.00002
1.00001
1
0.999998
0.999993
0.99999
0.999987
0.999985
0.999985
0.999985
0.999988
0.999992
0.999998
1
1.00001
1.00001
1.00001
1.00001
1.00001
1.00001
1.00001
1.00001
1.00001
1.00001
1.00001
1.00002
1.00002
1.00002
1.00001
1.00001
1.00001
1
1
1
0.999999
0.999997
0.999994
0.999992
0.99999
0.999989
0.999992
0.999996
1
1.00001
1.00001
1.00002
1.00002
1.00002
1.00002
1.00002
1.00002
1.00001
1.00001
1.00001
1
1.00001
0.999996
0.999995
0.999993
0.999992
0.999993
0.999996
1
1
1.00001
1.00001
1
1
0.999997
0.999996
0.999997
1
1.00001
1.00001
1.00001
1.00002
1.00002
1.00002
1.00002
1.00002
1.00002
1.00001
1.00001
1
0.999997
0.999995
0.999969
0.999972
0.999973
0.999977
0.999984
0.999992
1
1.00001
1.00001
1.00001
1.00001
1
1
0.999998
0.999998
1
1
1.00001
1.00001
1.00001
1.00001
1.00001
1.00001
1.00001
1.00001
1.00001
0.999999
0.999993
0.99999
0.999979
0.999952
0.999958
0.999963
0.999971
0.999981
0.999991
1
1.00001
1.00001
1.00001
1
1
0.999998
0.999996
0.999995
0.999996
0.999996
0.999998
1
1
1
1.00001
1.00001
1.00001
1
0.999996
0.99999
0.999987
0.999992
0.99997
0.999949
0.999958
0.999965
0.999974
0.999983
0.999991
0.999997
0.999999
1
0.999998
0.999997
0.999996
0.999995
0.999995
0.999995
0.999994
0.999994
0.999995
0.999996
0.999997
0.999999
1
1
0.999997
0.999993
0.999989
0.999987
0.99999
0.999997
0.999971
0.999958
0.999966
0.999973
0.99998
0.999986
0.99999
0.999993
0.999993
0.999994
0.999994
0.999996
0.999998
1
1
0.999999
0.999998
0.999997
0.999996
0.999996
0.999996
0.999996
0.999995
0.999992
0.999987
0.999984
0.999984
0.999988
0.999993
0.999995
0.999978
0.999971
0.999977
0.999982
0.999986
0.99999
0.999993
0.999994
0.999996
0.999998
1
1
1.00001
1.00001
1.00001
1
1
0.999997
0.999994
0.999992
0.999991
0.999988
0.999985
0.999981
0.999979
0.99998
0.999984
0.999989
0.99999
0.999987
0.999985
0.999982
0.999986
0.99999
0.999995
0.999999
1
1
1.00001
1.00001
1.00001
1.00001
1.00001
1.00001
1
1
0.999997
0.999994
0.999991
0.999988
0.999985
0.999981
0.999979
0.999978
0.99998
0.999985
0.999989
0.99999
0.999985
0.999985
0.999991
0.999992
0.999996
1
1.00001
1.00001
1.00001
1.00001
1.00001
1.00001
1.00001
1.00001
1.00001
1
1
0.999998
0.999997
0.999995
0.999992
0.999989
0.999985
0.999983
0.999984
0.999988
0.999993
0.999997
0.999997
0.999992
0.999987
0.99999
0.999996
1
1.00001
1.00001
1.00001
1.00002
1.00002
1.00002
1.00001
1.00001
1.00001
1
1
0.999999
1
1
1
1
0.999997
0.999993
0.99999
0.999992
0.999996
1
1.00001
1.00001
1
0.999997
0.999995
0.999996
1
1.00001
1.00002
1.00002
1.00002
1.00002
1.00001
1.00001
1.00001
1.00001
1
0.999998
0.999997
0.999999
1
1.00001
1.00001
1
0.999997
0.999995
0.999996
1
1.00001
1.00001
1.00001
1.00001
1.00001
1
1
1
1.00001
1.00002
1.00002
1.00002
1.00001
1.00001
1.00001
1
1
1
0.999997
0.999996
0.999997
1
1.00001
1.00001
1
0.999999
0.999997
0.999998
1
1.00001
1.00001
1.00001
1.00001
1.00001
1.00001
1.00001
1.00001
1.00002
1.00001
1.00002
1.00002
1.00001
1
1
0.999999
0.999999
0.999998
0.999996
0.999994
0.999995
0.999999
1
1
1
0.999999
0.999997
0.999999
1
1.00001
1.00001
1.00001
1.00001
1.00001
1.00002
1.00002
1.00002
1.00002
1.00002
1.00001
1.00001
1.00001
1
0.999995
0.999994
0.999995
0.999995
0.999995
0.999993
0.999994
0.999997
1
1
1
0.999998
0.999996
0.999997
1
1.00001
1.00001
1.00001
1.00001
1.00001
1.00001
1.00001
1.00001
1.00002
1.00002
1.00002
1.00001
0.999999
0.999994
0.999991
0.99999
0.999991
0.999992
0.999992
0.999991
0.999991
0.999993
0.999998
1
1
0.999997
0.999994
0.999994
0.999998
1
1
1
0.999997
0.999996
0.999995
0.999994
0.999997
1
1.00001
1.00001
1
0.999998
0.999989
0.999988
0.999987
0.999989
0.99999
0.999989
0.999987
0.999986
0.999988
0.999992
0.999997
0.999999
0.999997
0.999993
0.999992
0.999995
0.999997
0.999997
0.999994
0.99999
0.999986
0.999985
0.999984
0.999984
0.999991
1
1
1
1
0.999993
0.999985
0.999987
0.999988
0.999989
0.999988
0.999984
0.999982
0.999982
0.999987
0.999993
0.999997
0.999997
0.999994
0.999992
0.999992
0.999994
0.999994
0.99999
0.999986
0.999984
0.999981
0.999979
0.999981
0.999986
0.999994
0.999999
0.999998
1
1.00001
0.999991
0.999988
0.99999
0.999991
0.99999
0.999986
0.999982
0.999979
0.999982
0.999987
0.999993
0.999995
0.999994
0.999992
0.999992
0.999993
0.999993
0.999992
0.999989
0.999987
0.999987
0.999983
0.99998
0.999987
0.999994
0.999995
0.999996
1
1.00001
1.00001
0.999994
0.999994
0.999995
0.999995
0.999992
0.999986
0.999982
0.99998
0.999983
0.999988
0.999991
0.999992
0.999991
0.999992
0.999994
0.999996
0.999996
0.999995
0.999995
0.999993
0.999991
0.999987
0.999986
0.999993
0.999995
0.99999
0.999994
1
1
1
0.999997
0.999999
0.999999
0.999998
0.999993
0.999987
0.999982
0.999981
0.999984
0.999987
0.999989
0.999989
0.999991
0.999994
0.999997
0.999999
0.999999
0.999999
1
0.999994
0.999988
0.999987
0.999987
0.99999
0.999987
0.999984
0.999993
0.999999
0.999994
0.999991
1
1
1
0.999999
0.999994
0.999988
0.999985
0.999985
0.999986
0.999987
0.999987
0.999988
0.999992
0.999996
0.999999
1
1
1
0.999997
0.999989
0.999983
0.999986
0.999985
0.999981
0.99998
0.999985
0.999994
0.999993
0.999989
0.999989
1
1
1
0.999999
0.999995
0.999991
0.99999
0.999989
0.999988
0.999987
0.999987
0.99999
0.999995
1
1
1
1
0.999999
0.999995
0.999989
0.999988
0.999994
0.999989
0.999987
0.999993
0.999998
1
0.999995
0.999994
1
1
1
1
0.999999
0.999997
0.999994
0.999993
0.999992
0.99999
0.99999
0.999991
0.999995
0.999999
1
1
1
1
0.999998
0.999997
0.999997
0.999998
1
0.999996
0.999999
1.00001
1
1
0.999996
0.999998
1
1
1
1
0.999999
0.999997
0.999996
0.999996
0.999995
0.999993
0.999993
0.999995
0.999998
1
1
1
1
1
0.999998
1
1
1
1
0.999999
1
1.00001
1
1
0.999999
1.00001
1.00001
1
1
1
0.999999
0.999997
0.999997
0.999997
0.999996
0.999995
0.999995
0.999996
0.999999
0.999999
0.999998
1
1
1
1
1
1.00001
1
1
0.999999
0.999999
0.999998
0.999997
0.999996
0.999997
1
1
1
1
1
0.999999
0.999998
0.999997
0.999997
0.999997
0.999998
0.999999
0.999997
0.999996
0.999996
0.999998
1
1
1
1
1
1
0.999997
0.999998
0.999998
0.999996
0.999997
0.999997
0.999995
0.999999
1
1
1
1
1
0.999999
0.999997
0.999998
1
1
1
0.999999
0.999996
0.999995
0.999998
1
1
1
1
1
1
1
1
1
1
1
1
1
1
1
1.00001
1
1
1
1
0.999999
0.999998
0.999999
1
1
0.999998
0.999997
0.999997
0.999997
1
1
1
1
1.00001
0.999999
1
0.999997
1
1
1
1
0.999998
0.999996
1
1
1.00001
0.999998
1
1
1
0.999999
0.999999
1
1
1
0.999999
0.999997
0.999997
0.999996
1
1
1
0.999996
1
0.999997
1
1
1.00001
1
1
1
0.999998
0.999999
1
1
1
0.999995
1
1
0.999999
0.999999
1
1
0.999999
0.999998
0.999999
0.999996
0.999997
0.999998
1
1
0.999997
1
1.00001
1
1
0.999999
0.999997
0.999997
1
1
0.999997
1
1.00001
1.00001
1.00001
1
1
0.999999
0.999999
0.999999
1
1
1
0.999998
0.999997
0.999999
0.999998
0.999999
0.999997
1
0.999999
1
1
1
0.999997
1
0.999998
0.999996
1
1
0.999997
1
1
1
0.999999
1.00001
0.999997
0.999998
1
0.999999
1
0.999999
0.999997
0.999998
0.999998
1
0.999997
1
0.999998
1
0.999996
1
1
1
0.999996
0.999998
0.999997
1
1
0.999995
0.999992
1
0.999999
1
0.999998
0.999996
0.999998
0.999995
0.999999
0.999999
0.999997
0.999996
0.999995
0.999997
0.999995
0.999998
0.999997
0.999998
0.999995
1
0.999996
0.999995
0.999999
0.999994
1
1
0.999997
1
0.999999
0.999999
1
0.999996
0.999991
0.999997
0.999999
0.999997
1
0.999991
0.999996
0.999999
0.999998
0.999995
0.999997
0.999997
0.999995
0.999998
0.999995
0.999997
0.999997
0.999997
0.999994
0.999998
1
0.999994
0.999994
0.999994
0.999993
0.999994
0.999991
0.99999
0.999998
0.999996
0.999994
0.999998
0.999995
0.999997
0.999994
0.999987
0.999984
0.999978
0.999979
0.99998
0.999984
0.999989
0.999984
0.99999
0.999991
0.99999
0.99999
0.999993
0.999992
0.999999
0.999989
0.99999
0.999994
0.999989
0.999989
0.999984
0.999988
0.999986
0.999985
0.999978
0.999978
0.999991
0.999984
0.999989
0.999994
0.999991
0.999988
0.999992
0.999997
1
1
1
1
1
1
1
1
1
1
1
1
1
1
1
1
1
1
1
0.999999
0.999999
0.999993
0.999991
0.999989
0.999989
0.628215
0.632549
0.643011
0.658463
0.678028
0.698083
0.719682
0.742102
0.764151
0.787708
0.808241
0.826261
0.838976
0.846899
0.85085
0.850859
0.846911
0.838991
0.826266
0.808254
0.787719
0.764152
0.742103
0.719687
0.698071
0.678026
0.658466
0.643001
0.632553
0.628222
0.000154361
0.00132275
0.00332246
0.00702093
0.015005
0.0268871
0.0420678
0.0601082
0.0808326
0.103395
0.125176
0.144613
0.159066
0.168676
0.173285
0.173281
0.168695
0.159056
0.144592
0.125159
0.103375
0.0808148
0.0601008
0.0420607
0.0268783
0.0150017
0.00701993
0.00332117
0.00131466
0.000154112
4.43693e-06
3.19546e-05
0.000100462
0.000160473
0.000281014
0.000430299
0.000711332
0.00103092
0.00136765
0.00171841
0.00207375
0.0023759
0.0026084
0.00279992
0.00285846
0.00285601
0.00280165
0.00260784
0.00237504
0.00207318
0.00171711
0.00136623
0.00102974
0.000711002
0.000430005
0.000281102
0.00016059
0.000100567
3.1886e-05
4.41643e-06
6.09417e-07
4.4358e-06
1.39392e-05
2.2717e-05
3.99339e-05
6.49292e-05
0.000115834
0.000175626
0.000238956
0.000307495
0.000381931
0.000448358
0.00049823
0.000530219
0.000539827
0.000539359
0.000530576
0.000498203
0.000448368
0.000382075
0.000307427
0.000238901
0.000175701
0.000116023
6.50513e-05
4.00193e-05
2.27741e-05
1.39869e-05
4.41534e-06
6.0886e-07
7.55441e-08
6.08281e-07
1.75321e-06
2.84672e-06
5.05857e-06
8.59148e-06
1.65099e-05
2.69103e-05
3.85566e-05
5.23094e-05
7.60743e-05
9.49371e-05
0.000109338
0.000118523
0.000118467
0.000118442
0.000118679
0.000109458
9.51667e-05
7.67428e-05
5.24447e-05
3.86811e-05
2.70396e-05
1.6617e-05
8.65592e-06
5.08867e-06
2.86014e-06
1.75991e-06
6.07765e-07
7.54485e-08
8.29598e-09
7.36521e-08
1.94409e-07
3.12478e-07
5.49047e-07
9.38666e-07
1.90636e-06
3.37391e-06
5.21349e-06
7.70576e-06
1.43489e-05
2.20294e-05
2.748e-05
3.08208e-05
3.08031e-05
3.0764e-05
3.08896e-05
2.75802e-05
2.21961e-05
1.46699e-05
7.7538e-06
5.25567e-06
3.40634e-06
1.92902e-06
9.49839e-07
5.54119e-07
3.14526e-07
1.95575e-07
7.35874e-08
8.30147e-09
7.96203e-10
7.25722e-09
1.87341e-08
2.95153e-08
5.09066e-08
8.62159e-08
1.76788e-07
3.27661e-07
5.40073e-07
8.82139e-07
1.57646e-06
3.47219e-06
5.40118e-06
6.79277e-06
7.42042e-06
7.40801e-06
6.79874e-06
5.42809e-06
3.51889e-06
1.62357e-06
8.90965e-07
5.47025e-07
3.32387e-07
1.79488e-07
8.73591e-08
5.14611e-08
2.97525e-08
1.88634e-08
7.26143e-09
7.97892e-10
6.68297e-11
6.24037e-10
1.5679e-09
2.40654e-09
4.03963e-09
6.69744e-09
1.35213e-08
2.51674e-08
4.24268e-08
7.35777e-08
1.48369e-07
3.12599e-07
6.08594e-07
9.41512e-07
1.2229e-06
1.22344e-06
9.41521e-07
6.10773e-07
3.16777e-07
1.49962e-07
7.44746e-08
4.30487e-08
2.55533e-08
1.37355e-08
6.79537e-09
4.08744e-09
2.43021e-09
1.58094e-09
6.25061e-10
6.70918e-11
6.16556e-12
4.68746e-11
1.14348e-10
1.70638e-10
2.76139e-10
4.45316e-10
8.73006e-10
1.59474e-09
2.67137e-09
4.71426e-09
1.01285e-08
2.49784e-08
4.88119e-08
8.13265e-08
1.28459e-07
1.28274e-07
8.13685e-08
4.89459e-08
2.53584e-08
1.02856e-08
4.77582e-09
2.71275e-09
1.62152e-09
8.87384e-10
4.52352e-10
2.79782e-10
1.72367e-10
1.15511e-10
4.70493e-11
6.23585e-12
1.10748e-12
3.66087e-12
8.09181e-12
1.16965e-11
1.76583e-11
2.89053e-11
5.32267e-11
9.30544e-11
1.61702e-10
3.19075e-10
7.49536e-10
1.90616e-09
4.1943e-09
7.62291e-09
1.14534e-08
1.14491e-08
7.62377e-09
4.21306e-09
1.93104e-09
7.66257e-10
3.2534e-10
1.64709e-10
9.48635e-11
5.3867e-11
2.93724e-11
1.7914e-11
1.18265e-11
8.18271e-12
3.67974e-12
1.13469e-12
1.13395e-13
4.1343e-13
6.91847e-13
8.23794e-13
1.21822e-12
2.36568e-12
4.46023e-12
8.12785e-12
1.39876e-11
2.83597e-11
6.46875e-11
1.61452e-10
3.43073e-10
6.25001e-10
9.05279e-10
9.0546e-10
6.25417e-10
3.44353e-10
1.63084e-10
6.58276e-11
2.87994e-11
1.42603e-11
8.27441e-12
4.48151e-12
2.40789e-12
1.24064e-12
8.29816e-13
6.98055e-13
4.15463e-13
1.17417e-13
5.05498e-15
2.39754e-14
4.67684e-14
6.57564e-14
1.19553e-13
2.71199e-13
6.45339e-13
1.41691e-12
2.44693e-12
4.90641e-12
1.1232e-11
1.93725e-11
3.34748e-11
5.48065e-11
7.77956e-11
7.7795e-11
5.48679e-11
3.35284e-11
1.94387e-11
1.14245e-11
5.0143e-12
2.48726e-12
1.44682e-12
6.61081e-13
2.7717e-13
1.22136e-13
6.6868e-14
4.73273e-14
2.40963e-14
5.24624e-15
1.68771e-16
9.33186e-16
1.94485e-15
2.83802e-15
5.33105e-15
1.35826e-14
4.15078e-14
1.11916e-13
2.64058e-13
6.77939e-13
1.53281e-12
3.18626e-12
6.82242e-12
1.21421e-11
1.66481e-11
1.6641e-11
1.21561e-11
6.85472e-12
3.20742e-12
1.56367e-12
6.94134e-13
2.71498e-13
1.15471e-13
4.30052e-14
1.39936e-14
5.45854e-15
2.88724e-15
1.97865e-15
9.40469e-16
1.75212e-16
5.7751e-18
3.31619e-17
6.68062e-17
9.45264e-17
1.79912e-16
5.00944e-16
1.64627e-15
4.83171e-15
1.35277e-14
4.1142e-14
1.19263e-13
3.49838e-13
7.69893e-13
1.30757e-12
1.88073e-12
1.87953e-12
1.31039e-12
7.76733e-13
3.54158e-13
1.22227e-13
4.23916e-14
1.4029e-14
5.02712e-15
1.70092e-15
5.17594e-16
1.85117e-16
9.63763e-17
6.79988e-17
3.35541e-17
6.0171e-18
1.8434e-19
1.04734e-18
2.02939e-18
2.82755e-18
5.73965e-18
1.7627e-17
5.94881e-17
1.76089e-16
4.84901e-16
1.50033e-15
5.15946e-15
1.75595e-14
4.4737e-14
9.11792e-14
1.41198e-13
1.40828e-13
9.1398e-14
4.5323e-14
1.78974e-14
5.31252e-15
1.556e-15
5.03249e-16
1.82345e-16
6.16887e-17
1.82799e-17
5.94301e-18
2.89934e-18
2.06218e-18
1.05937e-18
1.929e-19
5.27516e-21
2.87315e-20
5.29664e-20
7.46321e-20
1.65627e-19
5.59708e-19
1.94826e-18
5.73621e-18
1.52449e-17
4.59219e-17
1.53074e-16
5.17185e-16
1.45445e-15
3.33933e-15
5.3763e-15
5.37481e-15
3.35209e-15
1.46836e-15
5.28616e-16
1.58422e-16
4.7739e-17
1.59042e-17
5.92602e-18
2.02545e-18
5.83133e-19
1.72124e-19
7.67868e-20
5.43283e-20
2.91623e-20
5.54218e-21
1.35559e-22
6.9394e-22
1.21441e-21
1.74918e-21
4.30078e-21
1.5829e-20
5.62486e-20
1.61423e-19
4.17737e-19
1.21255e-18
3.86348e-18
1.26518e-17
3.4736e-17
7.80644e-17
1.26854e-16
1.27575e-16
7.88742e-17
3.51545e-17
1.29926e-17
4.0238e-18
1.25774e-18
4.3345e-19
1.6753e-19
5.85445e-20
1.66335e-20
4.50976e-21
1.80856e-21
1.25129e-21
7.05956e-22
1.43676e-22
3.16693e-24
1.48985e-23
2.48057e-23
3.67092e-23
1.01081e-22
3.98076e-22
1.4049e-21
3.89362e-21
9.75611e-21
2.6971e-20
8.25823e-20
2.60114e-19
6.89769e-19
1.5244e-18
2.46307e-18
2.4605e-18
1.53072e-18
7.01527e-19
2.66906e-19
8.5427e-20
2.79655e-20
1.01488e-20
4.08049e-21
1.46218e-21
4.17259e-22
1.06978e-22
3.83775e-23
2.55387e-23
1.5245e-23
3.3784e-24
6.6913e-26
2.89055e-25
4.52568e-25
7.01984e-25
2.16116e-24
8.73732e-24
2.99921e-23
8.0882e-23
1.92319e-22
4.99889e-22
1.44665e-21
4.32907e-21
1.11875e-20
2.42789e-20
3.85275e-20
3.84459e-20
2.43919e-20
1.14236e-20
4.45505e-21
1.49508e-21
5.17722e-22
1.99261e-22
8.42427e-23
3.15643e-23
9.20916e-24
2.28674e-24
7.42182e-25
4.70001e-25
2.97596e-25
7.19403e-26
1.26728e-27
5.13791e-27
7.50601e-27
1.24015e-26
4.02352e-26
1.6396e-25
5.52377e-25
1.42619e-24
3.1578e-24
7.64567e-24
2.07571e-23
5.89713e-23
1.45537e-22
3.01267e-22
4.68527e-22
4.7224e-22
3.05356e-22
1.46799e-22
5.98958e-23
2.15743e-23
8.01162e-24
3.30224e-24
1.48484e-24
5.85812e-25
1.76176e-25
4.32888e-26
1.31036e-26
7.90479e-27
5.29907e-27
1.37724e-27
2.15227e-29
8.25772e-29
1.15381e-28
1.96374e-28
6.56338e-28
2.6906e-27
8.70421e-27
2.0764e-26
4.27074e-26
9.64345e-26
2.44738e-25
6.46135e-25
1.48893e-24
2.96268e-24
4.6024e-24
4.67112e-24
3.05252e-24
1.52117e-24
6.59403e-25
2.5541e-25
1.01791e-25
4.52786e-26
2.19223e-26
9.19201e-27
2.8798e-27
7.15096e-28
2.09309e-28
1.22025e-28
8.61791e-29
2.34047e-29
3.11298e-31
1.1848e-30
1.62452e-30
2.70977e-30
9.52411e-30
3.72992e-29
1.12696e-28
2.52047e-28
4.87164e-28
1.01112e-27
2.31412e-27
5.46636e-27
1.17491e-26
2.26377e-26
3.44063e-26
3.43027e-26
2.28778e-26
1.22032e-26
5.76422e-27
2.44065e-27
1.06241e-27
5.18393e-28
2.72675e-28
1.21847e-28
3.9921e-29
1.01945e-29
2.98127e-30
1.71416e-30
1.2639e-30
3.47635e-31
4.01395e-33
1.55152e-32
1.94915e-32
3.40302e-32
1.14226e-31
4.20509e-31
1.21857e-30
2.59311e-30
4.60913e-30
8.53617e-30
1.73681e-29
3.72472e-29
7.56368e-29
1.37802e-28
1.99136e-28
1.98923e-28
1.41065e-28
8.13742e-29
4.11278e-29
1.88786e-29
9.09645e-30
4.94387e-30
2.8323e-30
1.34775e-30
4.65019e-31
1.24187e-31
3.71539e-32
2.14498e-32
1.63788e-32
4.45786e-33
4.34178e-35
1.70569e-34
2.09317e-34
3.65991e-34
1.13654e-33
4.18251e-33
1.15501e-32
2.23088e-32
3.49759e-32
5.69917e-32
1.04751e-31
2.0708e-31
3.84696e-31
6.39018e-31
8.83758e-31
9.07386e-31
6.76404e-31
4.09822e-31
2.23592e-31
1.16311e-31
6.41311e-32
3.88511e-32
2.40964e-32
1.22977e-32
4.55333e-33
1.29139e-33
4.00727e-34
2.34956e-34
1.8447e-34
4.89461e-35
4.00618e-37
1.5769e-36
2.03643e-36
3.14792e-36
1.00532e-35
3.53908e-35
8.89257e-35
1.5492e-34
2.19846e-34
3.27701e-34
5.44379e-34
9.28632e-34
1.46709e-33
2.20426e-33
3.01842e-33
3.21693e-33
2.51599e-33
1.64737e-33
1.01924e-33
6.0839e-34
3.74922e-34
2.4925e-34
1.694e-34
9.52033e-35
3.83812e-35
1.15172e-35
3.69772e-36
2.21301e-36
1.78089e-36
4.58704e-37
3.22227e-39
1.36404e-38
1.57568e-38
2.47709e-38
7.64294e-38
2.38545e-37
5.60119e-37
9.17494e-37
1.21624e-36
1.64469e-36
2.32787e-36
3.30933e-36
4.68319e-36
6.86367e-36
9.23356e-36
9.45508e-36
7.45116e-36
5.37634e-36
3.84201e-36
2.61159e-36
1.79835e-36
1.33959e-36
1.02269e-36
6.36979e-37
2.75032e-37
8.5914e-38
2.86046e-38
1.77136e-38
1.47544e-38
3.68742e-39
2.13465e-41
9.80677e-41
1.05987e-40
1.74424e-40
4.65982e-40
1.42219e-39
3.25544e-39
4.9035e-39
5.74464e-39
6.49904e-39
7.54335e-39
9.51446e-39
1.29161e-38
1.74489e-38
2.02003e-38
1.88954e-38
1.62114e-38
1.42288e-38
1.2117e-38
9.28898e-39
7.15167e-39
6.04065e-39
5.21729e-39
3.57808e-39
1.64023e-39
5.3632e-40
1.88294e-40
1.22255e-40
1.05731e-40
2.54207e-41
1.29156e-43
5.54031e-43
6.78342e-43
9.45765e-43
2.45664e-42
7.5169e-42
1.55176e-41
2.07112e-41
2.10714e-41
2.0587e-41
2.18154e-41
2.63422e-41
3.15561e-41
3.41441e-41
3.3577e-41
3.27207e-41
3.34603e-41
3.37009e-41
3.08313e-41
2.57242e-41
2.2923e-41
2.28877e-41
2.29118e-41
1.72948e-41
8.37564e-42
2.87651e-42
1.07016e-42
7.27179e-43
6.46848e-43
1.48656e-43
6.44102e-46
2.98985e-45
3.39017e-45
4.4158e-45
1.18907e-44
3.18008e-44
5.81972e-44
7.16692e-44
6.56273e-44
5.91146e-44
5.89088e-44
6.15069e-44
5.61756e-44
4.87004e-44
4.69042e-44
5.15758e-44
5.6112e-44
5.68183e-44
5.59237e-44
5.67242e-44
6.40351e-44
7.63134e-44
8.65643e-44
6.94763e-44
3.52947e-44
1.29332e-44
5.15736e-45
3.66915e-45
3.32942e-45
7.27817e-46
2.38421e-48
1.37041e-47
1.258e-47
1.82336e-47
4.40354e-47
1.06483e-46
1.93881e-46
2.21082e-46
1.86157e-46
1.47177e-46
1.23528e-46
9.95212e-47
7.29992e-47
5.8448e-47
5.93085e-47
6.49622e-47
6.60901e-47
6.85542e-47
8.26951e-47
1.0933e-46
1.50448e-46
2.03743e-46
2.42073e-46
2.153e-46
1.21375e-46
4.96775e-47
2.13499e-47
1.56967e-47
1.41845e-47
2.92472e-48
8.71213e-51
4.0786e-50
4.23195e-50
5.69241e-50
1.19462e-49
2.94695e-49
5.20128e-49
5.05602e-49
3.89451e-49
2.58518e-49
1.84195e-49
1.31682e-49
9.35529e-50
7.44091e-50
6.73499e-50
6.00041e-50
5.63042e-50
6.8654e-50
1.07575e-49
1.74814e-49
2.72095e-49
4.14885e-49
5.30473e-49
5.69759e-49
3.72114e-49
1.67157e-49
7.41991e-50
5.46436e-50
4.8336e-50
9.5104e-51
2.28861e-53
9.60687e-53
1.19363e-52
1.35848e-52
2.92012e-52
6.87832e-52
1.03639e-51
9.15527e-52
6.10181e-52
3.63611e-52
2.45394e-52
1.75177e-52
1.1999e-52
7.9526e-53
5.44834e-53
4.21146e-53
4.59761e-53
7.51702e-53
1.43507e-52
2.57661e-52
4.27806e-52
7.13842e-52
1.08214e-51
1.28853e-51
9.50919e-52
4.40493e-52
1.97289e-52
1.47113e-52
1.31918e-52
2.55493e-53
3.51747e-56
2.51235e-55
2.28396e-55
2.73538e-55
5.90842e-55
1.23883e-54
1.76025e-54
1.5341e-54
9.47216e-55
5.40698e-55
3.58827e-55
2.39112e-55
1.36276e-55
7.20447e-56
4.44944e-56
3.92225e-56
5.32096e-56
9.6068e-56
1.8308e-55
3.2421e-55
5.58722e-55
1.03121e-54
1.81333e-54
2.30401e-54
1.82526e-54
8.60131e-55
4.03577e-55
3.19834e-55
3.03827e-55
5.8365e-56
8.18712e-59
4.96728e-58
3.83546e-58
5.03412e-58
9.19656e-58
1.9031e-57
2.68657e-57
2.25601e-57
1.27947e-57
7.11213e-58
4.46196e-58
2.57586e-58
1.25534e-58
6.46753e-59
4.56552e-59
4.62381e-59
6.16884e-59
9.97732e-59
1.80796e-58
3.36246e-58
6.57972e-58
1.40275e-57
2.77445e-57
3.60345e-57
2.91186e-57
1.39045e-57
7.02309e-58
5.99967e-58
6.03381e-58
1.13514e-58
2.22313e-61
5.82599e-61
7.74756e-61
9.34195e-61
1.60704e-60
3.4849e-60
4.17123e-60
3.18e-60
1.64122e-60
8.66689e-61
4.84441e-61
2.47115e-61
1.18092e-61
6.89405e-62
5.45206e-62
5.37861e-62
6.47862e-62
9.90291e-62
1.96035e-61
4.28555e-61
9.60539e-61
2.1804e-60
4.29337e-60
5.28376e-60
4.10396e-60
1.98617e-60
1.09104e-60
9.9061e-61
1.04035e-60
1.91752e-61
1.74925e-64
1.09257e-63
1.60147e-63
1.71663e-63
3.11442e-63
6.16085e-63
6.14606e-63
4.61805e-63
2.31923e-63
1.15607e-63
5.79034e-64
2.75101e-64
1.34437e-64
8.17132e-65
6.15205e-65
5.53579e-65
6.58057e-65
1.11211e-64
2.54969e-64
6.13486e-64
1.38058e-63
2.94104e-63
5.48951e-63
6.40975e-63
5.14731e-63
2.71115e-63
1.63264e-63
1.55188e-63
1.66118e-63
2.97388e-64
2.88373e-67
3.22406e-66
2.76081e-66
2.76513e-66
4.57778e-66
7.59099e-66
7.22702e-66
5.72837e-66
2.88321e-66
1.3327e-66
6.0602e-67
2.69912e-67
1.2514e-67
6.88574e-68
4.60592e-68
4.05207e-68
5.43427e-68
1.09416e-67
2.78553e-67
6.70836e-67
1.42754e-66
2.94911e-66
5.88462e-66
7.37082e-66
7.02769e-66
4.1194e-66
2.56375e-66
2.42788e-66
2.5321e-66
4.33323e-67
9.63921e-70
4.70087e-69
3.56038e-69
3.61225e-69
5.45335e-69
8.46358e-69
8.22981e-69
6.42869e-69
2.99351e-69
1.21535e-69
4.9436e-70
2.04224e-70
8.71403e-71
4.31819e-71
2.79353e-71
2.77647e-71
4.51752e-71
1.03509e-70
2.66817e-70
6.14954e-70
1.29562e-69
2.88902e-69
6.69651e-69
9.76491e-69
1.0297e-68
6.16109e-69
3.70799e-69
3.41874e-69
3.53436e-69
5.95075e-70
1.00652e-72
3.37338e-72
3.94487e-72
4.2432e-72
6.59455e-72
1.00255e-71
9.59917e-72
6.73329e-72
2.76337e-72
9.81043e-73
3.75036e-73
1.56097e-73
6.75633e-74
3.45806e-74
2.45618e-74
2.75823e-74
4.74202e-74
1.04127e-73
2.45392e-73
5.35796e-73
1.17516e-72
2.90975e-72
7.43083e-72
1.14806e-71
1.18246e-71
6.80774e-72
4.18304e-72
4.03157e-72
4.58492e-72
8.02687e-73
5.68125e-76
5.81557e-75
5.7848e-75
5.68614e-75
7.70408e-75
1.00512e-74
9.38603e-75
6.11752e-75
2.3195e-75
7.92625e-76
3.21647e-76
1.46994e-76
6.8287e-77
3.68776e-77
2.70876e-77
2.92967e-77
4.48172e-77
8.42949e-77
1.79406e-76
3.95272e-76
9.45511e-76
2.55019e-75
6.65151e-75
9.76518e-75
9.50902e-75
5.56919e-75
3.98031e-75
4.39332e-75
5.86317e-75
1.06375e-75
1.48263e-78
1.3803e-77
8.79104e-78
7.32714e-78
7.76218e-78
9.32658e-78
9.36494e-78
6.17307e-78
2.30559e-78
8.32161e-79
3.70535e-79
1.76258e-79
8.03358e-80
4.14085e-80
2.80874e-80
2.66233e-80
3.49097e-80
5.90748e-80
1.26191e-79
3.073e-79
8.12063e-79
2.25949e-78
5.61852e-78
7.56735e-78
7.1343e-78
4.63159e-78
3.73286e-78
4.78621e-78
6.98429e-78
1.23852e-78
4.42917e-81
1.36585e-80
9.26399e-81
6.34006e-81
6.88954e-81
1.01986e-80
1.09145e-80
7.10825e-81
2.6702e-81
1.02973e-81
4.65097e-82
2.07339e-82
8.62458e-83
4.1278e-83
2.64144e-83
2.35529e-83
2.98468e-83
5.1731e-83
1.19654e-82
3.16805e-82
8.54904e-82
2.26029e-81
5.14606e-81
6.60608e-81
6.15743e-81
4.30555e-81
3.5741e-81
4.69276e-81
6.68105e-81
1.11537e-81
1.87445e-84
6.44565e-84
7.06928e-84
5.67777e-84
7.65396e-84
1.23807e-83
1.15653e-83
6.40063e-84
2.36904e-84
9.01674e-85
3.7043e-85
1.4485e-85
5.63455e-86
2.77868e-86
1.92707e-86
1.87232e-86
2.56064e-86
4.7463e-86
1.14246e-85
3.0309e-85
7.87269e-85
1.97791e-84
4.39993e-84
5.86547e-84
5.67521e-84
4.09731e-84
3.24814e-84
3.93536e-84
4.94277e-84
7.81201e-85
9.95557e-88
1.11367e-86
9.9897e-87
8.34673e-87
1.22571e-86
1.46501e-86
9.81399e-87
4.27092e-87
1.44818e-87
4.64737e-88
1.49696e-88
4.92726e-89
1.9474e-89
1.14513e-89
9.57619e-90
1.0591e-89
1.55285e-89
2.94672e-89
7.04619e-89
1.84237e-88
4.85677e-88
1.31055e-87
3.30797e-87
5.28373e-87
5.70719e-87
4.16994e-87
3.05765e-87
3.17033e-87
3.30533e-87
5.01263e-88
2.37934e-90
2.27822e-89
1.57093e-89
1.35157e-89
1.63548e-89
1.34401e-89
7.84847e-90
3.21542e-90
9.70919e-91
2.45056e-91
6.24928e-92
1.91865e-92
7.99849e-93
5.05194e-93
4.3541e-93
4.74671e-93
6.74895e-93
1.25222e-92
2.99351e-92
8.2286e-92
2.50587e-91
8.41574e-91
2.70035e-90
5.43167e-90
6.51971e-90
4.70029e-90
3.07704e-90
2.73776e-90
2.41761e-90
3.60205e-91
4.89998e-93
1.79699e-92
1.3507e-92
1.07182e-92
1.215e-92
1.07209e-92
7.51089e-93
3.15626e-93
8.40086e-94
1.836e-94
4.45106e-95
1.37427e-95
5.62752e-96
3.14071e-96
2.23525e-96
2.13553e-96
2.92443e-96
5.61333e-96
1.43483e-95
4.35408e-95
1.51959e-94
6.06658e-94
2.32259e-93
5.44722e-93
6.90773e-93
4.87683e-93
2.96152e-93
2.5095e-93
2.14512e-93
3.32056e-94
1.79403e-96
8.30015e-96
9.86254e-96
8.63376e-96
1.018e-95
1.1046e-95
8.00328e-96
2.83131e-96
6.2204e-97
1.27599e-97
3.23508e-98
9.93245e-99
3.54e-99
1.56712e-99
9.20885e-100
8.63819e-100
1.33874e-99
2.98119e-99
8.44964e-99
2.68025e-98
9.52412e-98
3.86193e-97
1.55214e-96
3.95426e-96
5.2844e-96
4.02962e-96
2.66596e-96
2.47595e-96
2.42902e-96
4.04903e-97
1.24385e-99
1.4584e-98
1.40238e-98
1.13586e-98
1.43233e-98
1.44385e-98
7.24045e-99
1.70591e-99
3.00447e-100
6.05259e-101
1.55257e-101
4.30497e-102
1.23153e-102
4.37164e-103
2.59299e-103
2.93243e-103
5.66227e-103
1.50731e-102
4.52429e-102
1.3759e-101
4.4741e-101
1.69508e-100
6.79547e-100
1.95606e-99
3.0395e-99
3.0384e-99
2.48795e-99
2.83773e-99
3.372e-99
5.8894e-100
2.87166e-102
2.58713e-101
1.83391e-101
1.48724e-101
1.81198e-101
1.49156e-101
4.59091e-102
7.48306e-103
1.25734e-103
2.61688e-104
6.29578e-105
1.48209e-105
3.6684e-106
1.27021e-106
7.9257e-107
1.00353e-106
2.19898e-106
6.11791e-106
1.82635e-105
5.27907e-105
1.63804e-104
6.21048e-104
2.67049e-103
9.21604e-103
1.96731e-102
2.60821e-102
2.61435e-102
3.55779e-102
4.80161e-102
8.29843e-103
4.82203e-105
2.00316e-104
1.38405e-104
1.2273e-104
1.36663e-104
8.58256e-105
2.2867e-105
4.15209e-106
7.93571e-107
1.56907e-107
3.21794e-108
6.29185e-109
1.35697e-109
4.39339e-110
2.57137e-110
3.00978e-110
6.01129e-110
1.62968e-109
5.19285e-109
1.77502e-108
6.77449e-108
3.05595e-107
1.50427e-106
6.28977e-106
1.65738e-105
2.53723e-105
2.76066e-105
3.98522e-105
5.58025e-105
9.24142e-106
1.69411e-105
1.69411e-105
4.63643e-105
6.84242e-105
4.28052e-105
1.5078e-105
3.25436e-106
5.42035e-107
9.00163e-108
1.53621e-108
2.60448e-109
5.2152e-110
1.49062e-110
6.81957e-111
3.77785e-111
6.53329e-114
1.06237e-113
2.20306e-113
1.85485e-110
1.02553e-109
5.86375e-109
3.23636e-108
1.81023e-107
1.04782e-106
4.76195e-106
1.3366e-105
2.21079e-105
1.62685e-105
7.32367e-106
7.32367e-106
0.999992
0.999988
0.999991
0.999993
0.999997
1
1
1.00001
1.00001
1.00001
1.00001
1.00001
1.00001
1.00001
1.00001
1.00001
1.00001
1.00001
1.00001
1
0.999999
0.999994
0.999993
0.999996
1
1.00001
1.00002
1.00002
0.999988
0.999862
0.999988
0.999988
0.999991
0.999995
0.999999
1
1.00001
1.00001
1.00001
1.00001
1.00001
1.00001
1.00001
1.00001
1.00001
1.00001
1.00001
1.00001
1.00001
1
0.999996
0.999993
0.999993
0.999999
1.00001
1.00002
1.00003
1.00004
1.00005
1.00003
0.999993
0.999993
0.999996
0.999998
1
1
1.00001
1.00001
1.00001
1.00001
1.00001
1.00001
1.00001
1.00001
1.00001
1.00001
1.00001
1
1
1
0.999998
0.999998
0.999999
1
1.00001
1.00002
1.00004
1.00005
0.999988
1.00001
0.999998
0.999999
1
1
1
1
1
1.00001
1.00001
1.00001
1.00001
1.00001
1.00001
1
1
1
1
0.999999
0.999999
1
1
1
1
1
1
0.999995
0.999994
1.00003
0.999985
0.999992
1
1
1
1
1
1
1
1
1.00001
1.00001
1.00001
1.00001