/*--------------------------------*- C++ -*----------------------------------*\
| =========                 |                                                 |
| \\      /  F ield         | OpenFOAM: The Open Source CFD Toolbox           |
|  \\    /   O peration     | Version:  2312                                  |
|   \\  /    A nd           | Website:  www.openfoam.com                      |
|    \\/     M anipulation  |                                                 |
\*---------------------------------------------------------------------------*/
FoamFile
{
    version     2.0;
    format      ascii;
    arch        "LSB;label=32;scalar=64";
    class       surfaceScalarField;
    location    "0.54522";
    object      alphaPhi0.water;
}
// * * * * * * * * * * * * * * * * * * * * * * * * * * * * * * * * * * * * * //

dimensions      [0 3 -1 0 0 0 0];

oriented        oriented;

internalField   nonuniform List<scalar> 
263100
(
-5.26412e-11
1.05283e-10
-5.26412e-11
-5.41912e-10
8.61307e-10
-1.97984e-10
-8.85952e-10
6.79864e-10
-1.98078e-10
-1.11811e-09
5.58875e-10
-2.18225e-10
-1.24916e-09
4.17971e-10
-2.17439e-10
-1.27243e-09
2.44917e-10
-1.97102e-10
-1.19972e-09
7.92909e-11
-1.73383e-10
-1.07133e-09
-3.75327e-11
-1.54884e-10
-9.45238e-10
-8.20226e-11
-1.43918e-10
-8.41893e-10
-6.08552e-11
-1.68434e-10
-7.56245e-10
1.33218e-11
-2.39259e-10
-6.625e-10
1.14687e-10
-3.50504e-10
-5.10721e-10
1.93119e-10
-4.77023e-10
-2.56905e-10
2.22203e-10
-5.89076e-10
1.22987e-10
1.97153e-10
-6.66197e-10
6.12116e-10
1.27751e-10
-6.82573e-10
1.12214e-09
5.87709e-11
-6.16861e-10
1.52857e-09
1.8431e-11
-4.65428e-10
1.7271e-09
4.69068e-11
-2.90912e-10
1.63228e-09
1.52308e-10
-1.19726e-10
1.21922e-09
3.15146e-10
1.04834e-11
5.14887e-10
5.23432e-10
6.5755e-11
-4.01237e-10
6.9709e-10
8.1144e-11
-1.36119e-09
7.86353e-10
2.56118e-11
-2.09914e-09
6.81954e-10
-8.30593e-11
-2.41134e-09
3.71914e-10
-1.6734e-10
-2.2804e-09
-4.16887e-11
-1.43993e-10
-2.024e-09
-3.69103e-10
1.25588e-10
-1.90125e-09
-8.15429e-10
7.75539e-10
-5.58253e-09
3.81957e-09
-2.26366e-10
7.37205e-10
-2.26366e-10
-3.65886e-10
1.43916e-09
-1.92929e-10
-4.83897e-10
1.14667e-09
-1.66318e-10
-6.07614e-10
9.22481e-10
-1.21675e-10
-7.2609e-10
6.59737e-10
-7.91627e-11
-8.29639e-10
3.71476e-10
-5.5141e-11
-9.03586e-10
1.01665e-10
-5.1605e-11
-9.45705e-10
-8.72015e-11
-7.10479e-11
-9.42347e-10
-1.73082e-10
-1.18528e-10
-8.74856e-10
-1.72015e-10
-1.86377e-10
-7.36321e-10
-1.00909e-10
-2.57432e-10
-5.20118e-10
-6.64113e-12
-3.11884e-10
-2.40564e-10
7.29484e-11
-3.45574e-10
7.63839e-11
1.13115e-10
-3.55651e-10
3.96782e-10
1.05174e-10
-3.38932e-10
6.59486e-10
8.23096e-11
-3.003e-10
8.41133e-10
7.32024e-11
-2.68247e-10
9.33449e-10
1.21498e-10
-2.76558e-10
9.18587e-10
2.5103e-10
-2.97987e-10
8.02509e-10
4.58672e-10
-3.39047e-10
6.28804e-10
6.86517e-10
-3.89049e-10
4.20008e-10
8.89578e-10
-3.81799e-10
2.42975e-10
9.90473e-10
-3.52297e-10
1.54538e-10
9.33513e-10
-2.75164e-10
1.64013e-10
6.38732e-10
-1.27788e-10
3.78336e-10
9.47235e-11
-1.11959e-11
7.7942e-10
-4.41023e-10
3.28953e-11
9.06238e-10
-2.71189e-10
-7.94898e-11
-5.62421e-10
1.01152e-09
-1.245e-10
-6.22716e-09
3.11603e-10
-1.78748e-10
1.22801e-09
-1.78748e-10
-6.71725e-11
1.57408e-09
-9.33645e-11
-5.36777e-11
1.2947e-09
-5.2176e-11
-1.27933e-10
1.06699e-09
-6.16273e-12
-2.84613e-10
8.11852e-10
1.8828e-11
-4.87681e-10
5.27755e-10
1.1967e-11
-7.00588e-10
2.68676e-10
-3.23734e-11
-8.63194e-10
5.84143e-11
-9.51446e-11
-9.30198e-10
-6.94947e-11
-1.70189e-10
-8.55949e-10
-1.44499e-10
-2.43089e-10
-6.41969e-10
-1.6044e-10
-2.90202e-10
-3.23599e-10
-1.50588e-10
-2.93845e-10
2.86208e-11
-1.18943e-10
-2.5709e-10
3.30909e-10
-6.40854e-11
-1.98578e-10
5.09817e-10
7.34135e-12
-1.36555e-10
5.38361e-10
1.17678e-10
-1.1136e-10
4.28644e-10
2.6763e-10
-1.36403e-10
2.57268e-10
4.32282e-10
-2.06793e-10
1.14688e-10
6.21233e-10
-3.18149e-10
1.1922e-10
8.0347e-10
-4.64008e-10
3.16592e-10
9.27965e-10
-5.71149e-10
6.96805e-10
9.80545e-10
-6.07636e-10
1.21658e-09
9.11041e-10
-5.6234e-10
1.77079e-09
6.95971e-10
-4.0369e-10
2.18921e-09
3.91748e-10
-2.04915e-10
2.36045e-09
-2.03028e-11
-2.38837e-11
2.41356e-09
-5.34187e-10
1.39796e-10
3.03675e-09
-5.39442e-10
-2.0022e-10
1.80584e-09
3.02585e-09
-6.00578e-10
-2.25343e-09
-2.02695e-09
-9.30282e-11
1.49931e-09
-9.30282e-11
1.05301e-10
1.41625e-09
1.23355e-11
1.78017e-10
1.21251e-09
4.12791e-11
1.22005e-10
1.06395e-09
6.59821e-11
-3.91113e-11
8.92492e-10
6.24914e-11
-2.74442e-10
7.07535e-10
1.58837e-11
-5.3421e-10
5.18438e-10
-4.55771e-11
-7.45708e-10
3.38732e-10
-1.33011e-10
-8.29234e-10
1.57581e-10
-2.08697e-10
-7.61335e-10
-7.0287e-12
-2.64859e-10
-5.47541e-10
-1.36968e-10
-2.86895e-10
-2.38294e-10
-2.32755e-10
-2.6614e-10
6.46384e-11
-2.45071e-10
-2.08497e-10
2.84722e-10
-1.7174e-10
-1.43279e-10
3.59422e-10
-3.08889e-12
-1.02523e-10
2.76362e-10
2.49866e-10
-1.02335e-10
1.00688e-10
5.15057e-10
-1.44105e-10
-7.90658e-11
7.56807e-10
-2.35047e-10
-1.36608e-10
9.29109e-10
-3.51091e-10
2.23365e-11
9.91223e-10
-4.45181e-10
4.6625e-10
9.34322e-10
-5.30928e-10
1.16082e-09
7.84837e-10
-5.46864e-10
1.96401e-09
5.94217e-10
-4.91287e-10
2.68757e-09
4.18049e-10
-4.04199e-10
3.12831e-09
3.37509e-10
-3.03918e-10
2.99331e-09
4.03727e-10
-1.78439e-10
2.26369e-09
3.5297e-10
-3.8224e-11
1.78802e-09
2.32939e-11
1.83602e-11
1.69113e-09
3.24258e-09
-5.1031e-11
8.4413e-10
-1.41126e-09
6.54824e-12
1.51146e-09
6.54823e-12
2.16392e-10
1.04752e-09
1.02178e-10
2.75987e-10
1.00461e-09
9.64854e-11
2.23751e-10
9.65458e-10
9.54044e-11
7.30583e-11
9.2984e-10
5.7771e-11
-1.37887e-10
8.87109e-10
-1.99018e-11
-3.66877e-10
7.999e-10
-9.49081e-11
-5.44884e-10
6.55169e-10
-1.68635e-10
-6.33294e-10
4.5213e-10
-2.23063e-10
-6.15187e-10
2.16995e-10
-2.4807e-10
-5.00473e-10
-3.03587e-13
-2.52425e-10
-3.3239e-10
-1.75809e-10
-2.30602e-10
-1.65821e-10
-2.38688e-10
-1.943e-10
-5.92792e-11
-1.57218e-10
-1.687e-10
-2.87026e-11
4.99324e-11
-1.64193e-10
-5.81208e-11
3.54469e-10
-1.887e-10
-1.04545e-10
6.61585e-10
-2.3804e-10
-9.03959e-11
8.85601e-10
-2.88634e-10
6.33213e-11
9.67384e-10
-3.23209e-10
4.18686e-10
8.78836e-10
-3.36606e-10
9.67093e-10
6.87832e-10
-3.39762e-10
1.65458e-09
4.53475e-10
-3.30387e-10
2.33606e-09
3.01489e-10
-3.05524e-10
2.82433e-09
3.52924e-10
-3.0276e-10
3.00707e-09
6.39205e-10
-3.58267e-10
2.79985e-09
1.17735e-09
-4.70518e-10
1.87638e-09
1.92256e-09
-6.1298e-10
5.51723e-10
1.87399e-09
-5.76124e-10
5.27042e-10
3.75194e-09
-6.22007e-10
2.59542e-09
-1.42226e-09
6.27287e-11
1.34803e-09
6.27287e-11
1.79166e-10
6.43455e-10
1.17438e-10
1.8514e-10
7.64319e-10
9.17157e-11
1.35976e-10
8.37638e-10
4.76202e-11
4.48851e-11
9.44278e-10
-3.37992e-11
-7.314e-11
1.02959e-09
-1.10771e-10
-1.94474e-10
1.04446e-09
-1.82768e-10
-3.01109e-10
9.53934e-10
-2.26153e-10
-3.8964e-10
7.69772e-10
-2.43665e-10
-4.5779e-10
5.17188e-10
-2.38068e-10
-5.05988e-10
2.49457e-10
-2.13924e-10
-5.52769e-10
4.02435e-11
-2.04407e-10
-5.84006e-10
-7.29468e-11
-2.07066e-10
-5.75625e-10
-5.30583e-11
-2.3146e-10
-5.11677e-10
8.28736e-11
-2.61935e-10
-3.71534e-10
3.03893e-10
-2.89486e-10
-1.50466e-10
5.25437e-10
-2.97993e-10
1.61543e-10
6.46493e-10
-2.70443e-10
5.62424e-10
6.38313e-10
-2.24146e-10
1.03885e-09
4.82703e-10
-1.64084e-10
1.52328e-09
3.08154e-10
-1.09936e-10
1.94372e-09
1.8012e-10
-8.15047e-11
2.2149e-09
2.5949e-10
-1.19329e-10
2.24695e-09
6.37237e-10
-2.03453e-10
2.00178e-09
1.27862e-09
-3.25889e-10
1.57435e-09
2.11184e-09
-5.26417e-10
1.01294e-09
3.17385e-09
-8.24624e-10
-1.12793e-11
3.67626e-09
-1.03156e-09
-1.73906e-10
4.69562e-09
-1.1293e-09
3.41531e-09
-1.34095e-09
2.00991e-11
1.20431e-09
2.00991e-11
-2.3795e-11
3.83578e-10
1.32484e-11
-7.13824e-11
6.04844e-10
-3.97667e-11
-1.042e-10
7.80595e-10
-1.32851e-10
-9.33499e-11
9.61625e-10
-2.1806e-10
-5.67046e-11
1.12473e-09
-2.82276e-10
-2.37511e-11
1.21693e-09
-3.15367e-10
-3.77614e-11
1.20484e-09
-3.11652e-10
-1.17404e-10
1.07744e-09
-2.79632e-10
-2.81201e-10
8.70182e-10
-2.35048e-10
-5.16755e-10
6.26494e-10
-2.01539e-10
-7.71409e-10
3.83872e-10
-1.81676e-10
-9.71465e-10
1.83689e-10
-1.9432e-10
-1.02772e-09
6.05805e-11
-2.42595e-10
-9.02271e-10
1.43274e-11
-2.79891e-10
-5.84042e-10
2.44508e-11
-2.78412e-10
-1.0855e-10
6.16814e-11
-2.39116e-10
4.45897e-10
6.55137e-11
-1.58305e-10
1.02282e-09
-1.64299e-12
-5.51411e-11
1.51e-09
-7.17309e-11
2.65613e-11
1.80908e-09
-7.70134e-11
1.1575e-10
1.88547e-09
7.1798e-11
1.06108e-10
1.75864e-09
4.52552e-10
1.17957e-11
1.42518e-09
1.14184e-09
-1.36637e-10
9.13931e-10
2.06853e-09
-3.30992e-10
3.66014e-10
3.06703e-09
-5.7474e-10
1.02918e-11
4.10051e-09
-8.58494e-10
-4.34304e-10
4.69464e-09
-9.59635e-10
-3.72131e-10
5.15497e-09
-9.61235e-10
3.63053e-09
-9.48791e-10
-1.70025e-10
1.36876e-09
-1.70025e-10
-3.31748e-10
3.48771e-10
-2.16115e-10
-4.23341e-10
6.54329e-10
-3.158e-10
-4.09939e-10
8.52263e-10
-4.0959e-10
-2.73858e-10
1.03059e-09
-4.82865e-10
-6.8494e-11
1.20535e-09
-5.08235e-10
1.26303e-10
1.33131e-09
-4.75333e-10
2.23735e-10
1.3924e-09
-4.03483e-10
1.5987e-10
1.36901e-09
-3.14719e-10
-7.51934e-11
1.26004e-09
-2.31077e-10
-4.37001e-10
1.07467e-09
-1.72679e-10
-8.30556e-10
8.13886e-10
-1.4845e-10
-1.13209e-09
4.96064e-10
-1.547e-10
-1.23995e-09
1.6208e-10
-1.63858e-10
-1.08744e-09
-1.4683e-10
-1.71444e-10
-6.91594e-10
-3.85257e-10
-1.52496e-10
-1.06645e-10
-5.66378e-10
-8.50691e-11
5.34005e-10
-6.54931e-10
7.94234e-12
1.10794e-09
-6.76834e-10
9.15039e-11
1.49628e-09
-6.04842e-10
1.87221e-10
1.64553e-09
-3.67494e-10
2.10926e-10
1.52396e-09
8.64684e-11
1.6846e-10
1.17021e-09
7.62531e-10
5.90822e-11
6.90084e-10
1.6491e-09
-9.00012e-11
2.12303e-10
2.6523e-09
-2.64762e-10
-2.15143e-10
3.6521e-09
-4.10632e-10
-3.77722e-10
4.4546e-09
-5.1702e-10
-4.11053e-10
4.89292e-09
-5.25913e-10
-1.28724e-10
5.01297e-09
-4.94472e-10
3.58872e-09
-3.25035e-10
-4.72323e-10
2.06306e-09
-4.72323e-10
-6.78559e-10
5.8826e-10
-5.40604e-10
-7.99049e-10
9.6954e-10
-6.3774e-10
-6.98034e-10
1.0503e-09
-6.95677e-10
-4.62544e-10
1.17554e-09
-7.12557e-10
-1.32141e-10
1.2874e-09
-6.69399e-10
1.70422e-10
1.42061e-09
-5.74168e-10
3.44763e-10
1.54453e-09
-4.45354e-10
3.16998e-10
1.6361e-09
-3.13486e-10
9.31486e-11
1.64186e-09
-2.08641e-10
-2.68545e-10
1.52191e-09
-1.30683e-10
-6.60034e-10
1.23473e-09
-7.89113e-11
-9.63866e-10
7.99093e-10
-5.24691e-11
-1.08612e-09
2.62909e-10
-2.5128e-11
-1.00519e-09
-2.71473e-10
1.9999e-11
-7.05577e-10
-7.19177e-10
4.88787e-11
-2.57531e-10
-1.04273e-09
8.92027e-11
2.38546e-10
-1.19126e-09
1.43363e-10
6.72859e-10
-1.15661e-09
1.73249e-10
9.59707e-10
-9.22207e-10
1.54962e-10
1.06192e-09
-4.79925e-10
9.93274e-11
9.71634e-10
1.74299e-10
2.83687e-11
7.22418e-10
1.00211e-09
-4.39563e-11
4.08811e-10
1.94001e-09
-1.10757e-10
1.14078e-10
2.89434e-09
-1.44766e-10
-8.87342e-11
3.73961e-09
-1.1799e-10
-1.23254e-10
4.34438e-09
-9.12948e-11
-2.91428e-12
4.60639e-09
-4.39286e-11
1.80702e-10
4.619e-09
4.13259e-11
3.57797e-09
1.07499e-10
-7.11446e-10
3.17954e-09
-7.11446e-10
-9.5552e-10
1.07818e-09
-7.71431e-10
-1.05015e-09
1.41496e-09
-8.03341e-10
-9.64449e-10
1.37032e-09
-7.95278e-10
-7.12951e-10
1.35071e-09
-7.33667e-10
-3.89381e-10
1.37895e-09
-6.30583e-10
-9.75531e-11
1.49994e-09
-4.99144e-10
9.48407e-11
1.66457e-09
-3.67488e-10
1.36751e-10
1.85356e-09
-2.61476e-10
4.2446e-11
1.9369e-09
-1.69062e-10
-1.5475e-10
1.87034e-09
-9.85312e-11
-3.77235e-10
1.5695e-09
-4.19079e-11
-5.69842e-10
1.047e-09
3.81583e-11
-6.83971e-10
3.98639e-10
1.0484e-10
-7.26177e-10
-2.14638e-10
1.52588e-10
-6.69807e-10
-7.41863e-10
1.73444e-10
-5.41176e-10
-1.10249e-09
1.64544e-10
-3.40544e-10
-1.25424e-09
9.60233e-11
-9.24454e-11
-1.19502e-09
-9.03087e-12
1.33801e-10
-9.06303e-10
-1.06535e-10
3.3167e-10
-4.38575e-10
-1.90155e-10
4.81028e-10
2.28918e-10
-2.4581e-10
5.62993e-10
1.06197e-09
-2.5999e-10
5.60859e-10
1.97836e-09
-2.01169e-10
5.28016e-10
2.86207e-09
-1.1038e-10
4.99012e-10
3.62299e-09
-7.82216e-12
5.28768e-10
4.13219e-09
7.06644e-11
5.45699e-10
4.37222e-09
1.48132e-10
4.85084e-10
4.43996e-09
1.95883e-10
3.85257e-09
1.82389e-10
-7.30121e-10
4.32884e-09
-7.30121e-10
-1.00694e-09
1.63649e-09
-7.08314e-10
-1.20093e-09
1.92372e-09
-6.66101e-10
-1.24072e-09
1.7222e-09
-5.88776e-10
-1.16736e-09
1.57615e-09
-4.86613e-10
-1.03922e-09
1.53689e-09
-3.83239e-10
-8.98574e-10
1.63229e-09
-2.89915e-10
-7.57017e-10
1.8115e-09
-2.43123e-10
-5.92257e-10
2.00353e-09
-2.26146e-10
-4.31122e-10
2.10089e-09
-2.07489e-10
-2.84331e-10
2.02316e-09
-1.58533e-10
-1.92085e-10
1.74809e-09
-1.03593e-10
-1.68176e-10
1.26912e-09
-4.56324e-11
-2.4872e-10
7.22585e-10
-5.29129e-12
-4.15623e-10
2.20387e-10
3.09315e-12
-6.23894e-10
-2.20761e-10
-2.60837e-11
-8.02281e-10
-5.34832e-10
-1.1655e-10
-8.78274e-10
-7.11742e-10
-2.43054e-10
-7.83271e-10
-7.42534e-10
-4.04594e-10
-5.16979e-10
-5.97503e-10
-5.30285e-10
-1.37246e-10
-2.72936e-10
-5.9636e-10
2.7552e-10
2.71898e-10
-5.80499e-10
6.52752e-10
1.0187e-09
-4.97254e-10
9.53375e-10
1.88722e-09
-3.73662e-10
1.15156e-09
2.75247e-09
-2.24839e-10
1.23766e-09
3.52094e-09
-8.05234e-11
1.2127e-09
4.06882e-09
2.42365e-11
1.03103e-09
4.42246e-09
7.75115e-11
6.76113e-10
4.63702e-09
8.76899e-11
4.35452e-09
8.10548e-11
-4.15605e-10
4.91963e-09
-4.15605e-10
-9.39574e-10
2.3232e-09
-3.75861e-10
-1.38422e-09
2.49855e-09
-2.79853e-10
-1.74649e-09
2.2246e-09
-2.20538e-10
-2.04958e-09
2.00078e-09
-1.30772e-10
-2.25951e-09
1.89973e-09
-1.0028e-10
-2.31906e-09
1.9294e-09
-1.39883e-10
-2.20322e-09
2.03559e-09
-2.15571e-10
-1.85898e-09
2.11153e-09
-3.15054e-10
-1.33476e-09
2.10349e-09
-3.82269e-10
-7.52683e-10
1.9845e-09
-3.88468e-10
-2.56456e-10
1.75727e-09
-3.32417e-10
1.83769e-11
1.48579e-09
-2.947e-10
4.34553e-11
1.208e-09
-2.9259e-10
-1.37051e-10
9.40674e-10
-3.15733e-10
-4.6512e-10
7.28377e-10
-4.16765e-10
-8.08964e-10
5.08385e-10
-5.45207e-10
-9.80944e-10
2.41167e-10
-7.02073e-10
-8.96954e-10
1.11729e-11
-8.44997e-10
-5.72001e-10
-1.02574e-10
-9.0526e-10
-7.86088e-11
-1.75428e-11
-8.8747e-10
4.8765e-10
3.38033e-10
-7.91413e-10
1.01497e-09
9.84357e-10
-6.42712e-10
1.43213e-09
1.83976e-09
-4.93793e-10
1.69865e-09
2.7545e-09
-3.6824e-10
1.80933e-09
3.57843e-09
-2.59467e-10
1.71408e-09
4.23079e-09
-1.7166e-10
1.40559e-09
4.70542e-09
-1.09688e-10
8.95967e-10
5.02533e-09
-4.53891e-11
5.02937e-09
6.3364e-11
4.51841e-13
4.81727e-09
4.51844e-13
-9.58875e-10
3.29369e-09
4.6875e-11
-1.78592e-09
3.28208e-09
1.34667e-10
-2.6029e-09
3.05571e-09
1.17865e-10
-3.33334e-09
2.84435e-09
4.69655e-11
-3.87505e-09
2.69326e-09
-8.21351e-11
-4.1031e-09
2.54648e-09
-2.27835e-10
-3.91055e-09
2.38219e-09
-3.98608e-10
-3.31681e-09
2.18945e-09
-5.54623e-10
-2.40704e-09
1.93858e-09
-6.45e-10
-1.41122e-09
1.74674e-09
-6.64099e-10
-5.55138e-10
1.64834e-09
-6.49227e-10
-1.95056e-12
1.65687e-09
-6.20445e-10
2.10245e-10
1.73618e-09
-6.39866e-10
1.24485e-10
1.81554e-09
-7.10617e-10
-9.60715e-11
1.79088e-09
-8.06777e-10
-3.04469e-10
1.60199e-09
-9.0782e-10
-3.402e-10
1.2002e-09
-1.00344e-09
-1.67584e-10
7.41772e-10
-1.0236e-09
1.94585e-10
3.7397e-10
-9.70299e-10
6.53119e-10
2.73129e-10
-8.62257e-10
1.13011e-09
5.16928e-10
-7.32325e-10
1.54185e-09
1.13269e-09
-6.01313e-10
1.85739e-09
1.99097e-09
-4.92978e-10
2.07391e-09
2.91349e-09
-4.16174e-10
2.15744e-09
3.76e-09
-3.44611e-10
2.05132e-09
4.46527e-09
-2.53347e-10
1.70946e-09
5.03129e-09
-1.37832e-10
1.13664e-09
5.47864e-09
-2.8894e-11
5.9455e-09
1.42329e-10
3.63204e-10
4.15583e-09
3.63204e-10
-1.18612e-09
4.99346e-09
1.44261e-10
-2.47302e-09
4.78627e-09
6.78464e-11
-3.64619e-09
4.56389e-09
-5.35054e-11
-4.68267e-09
4.30448e-09
-1.67933e-10
-5.39575e-09
3.95537e-09
-3.38374e-10
-5.64891e-09
3.47943e-09
-5.24263e-10
-5.32962e-09
2.88135e-09
-7.16417e-10
-4.47657e-09
2.21952e-09
-8.22587e-10
-3.31004e-09
1.65432e-09
-8.46019e-10
-2.07683e-09
1.37254e-09
-8.31937e-10
-1.00278e-09
1.42318e-09
-8.2453e-10
-2.12749e-10
1.72989e-09
-8.46606e-10
2.61365e-10
2.15402e-09
-8.97508e-10
5.01739e-10
2.47355e-09
-9.41066e-10
6.38445e-10
2.57092e-09
-1.00259e-09
7.80765e-10
2.37047e-09
-1.02923e-09
9.81796e-10
1.85463e-09
-9.78768e-10
1.25284e-09
1.25083e-09
-8.71683e-10
1.52883e-09
8.09518e-10
-7.40116e-10
1.78507e-09
6.90806e-10
-6.2772e-10
1.9492e-09
9.78435e-10
-5.19346e-10
2.05669e-09
1.60424e-09
-4.49164e-10
2.17804e-09
2.44169e-09
-4.61568e-10
2.28214e-09
3.30057e-09
-4.29927e-10
2.31724e-09
4.09654e-09
-3.61957e-10
2.16282e-09
4.86238e-09
-2.57158e-10
1.76986e-09
5.55412e-09
-1.23744e-10
1.09394e-09
6.22458e-09
-5.40466e-12
7.24654e-09
-7.0845e-11
3.56503e-11
4.28486e-09
3.56503e-11
-1.7922e-09
7.50817e-09
-2.73685e-10
-3.31176e-09
7.03266e-09
-3.63894e-10
-4.61992e-09
6.6875e-09
-4.99184e-10
-5.67657e-09
6.25664e-09
-6.46251e-10
-6.32281e-09
5.55724e-09
-7.82139e-10
-6.43696e-09
4.57096e-09
-8.73362e-10
-5.94031e-09
3.37982e-09
-9.41754e-10
-5.00783e-09
2.21985e-09
-9.05735e-10
-3.84409e-09
1.38442e-09
-8.71936e-10
-2.6426e-09
1.0429e-09
-8.45194e-10
-1.55085e-09
1.2192e-09
-8.60812e-10
-6.21803e-10
1.73508e-09
-9.2246e-10
1.78216e-10
2.34572e-09
-1.01222e-09
8.7284e-10
2.77354e-09
-1.05412e-09
1.51902e-09
2.88588e-09
-1.04737e-09
2.10312e-09
2.65573e-09
-9.5043e-10
2.59279e-09
2.14178e-09
-8.10893e-10
2.91261e-09
1.6434e-09
-6.64233e-10
3.03228e-09
1.36828e-09
-5.35554e-10
2.94718e-09
1.44826e-09
-4.52412e-10
2.75276e-09
1.89214e-09
-4.63695e-10
2.57148e-09
2.55554e-09
-5.25569e-10
2.48256e-09
3.29409e-09
-5.60067e-10
2.4624e-09
4.03296e-09
-5.48318e-10
2.3789e-09
4.81648e-09
-4.80451e-10
2.06317e-09
5.76469e-09
-3.94202e-10
1.49706e-09
6.72348e-09
-3.43993e-10
6.6666e-10
7.79678e-09
-4.22298e-10
8.88266e-09
-6.73387e-10
-5.60593e-10
5.66198e-09
-5.60593e-10
-2.4597e-09
1.07032e-08
-9.17231e-10
-3.9053e-09
9.80218e-09
-1.01864e-09
-5.08267e-09
9.23116e-09
-1.13099e-09
-5.92282e-09
8.43337e-09
-1.1786e-09
-6.33675e-09
7.2107e-09
-1.14974e-09
-6.24752e-09
5.62087e-09
-1.09354e-09
-5.74441e-09
3.89986e-09
-9.9049e-10
-4.97884e-09
2.40533e-09
-9.04286e-10
-4.11419e-09
1.45371e-09
-8.59577e-10
-3.21203e-09
1.10926e-09
-8.71406e-10
-2.27453e-09
1.32087e-09
-9.39503e-10
-1.24779e-09
1.84353e-09
-1.05818e-09
-1.01648e-10
2.39377e-09
-1.15631e-09
1.09252e-09
2.76626e-09
-1.1848e-09
2.24369e-09
2.83669e-09
-1.11032e-09
3.24366e-09
2.64136e-09
-9.66013e-10
3.92993e-09
2.34435e-09
-8.06928e-10
4.24474e-09
2.16106e-09
-6.74765e-10
4.19928e-09
2.26633e-09
-6.34254e-10
3.88493e-09
2.65035e-09
-6.45643e-10
3.5053e-09
3.22514e-09
-7.26456e-10
3.19207e-09
3.86113e-09
-7.99475e-10
2.9792e-09
4.49146e-09
-8.12374e-10
2.75809e-09
5.21437e-09
-7.70047e-10
2.35997e-09
6.18295e-09
-7.18188e-10
1.73295e-09
7.44724e-09
-7.28645e-10
9.01931e-10
8.78595e-09
-8.53794e-10
1.28934e-10
1.00388e-08
-1.103e-09
1.04486e-08
-1.20733e-09
-1.35581e-09
8.58993e-09
-1.35581e-09
-2.90649e-09
1.41123e-08
-1.63537e-09
-4.08771e-09
1.27421e-08
-1.60614e-09
-4.97288e-09
1.18131e-08
-1.609e-09
-5.48742e-09
1.0493e-08
-1.51223e-09
-5.61931e-09
8.71762e-09
-1.37176e-09
-5.47742e-09
6.68056e-09
-1.19399e-09
-5.20084e-09
4.70261e-09
-1.03621e-09
-4.8464e-09
3.11368e-09
-9.67277e-10
-4.42679e-09
2.1555e-09
-9.77108e-10
-3.86696e-09
1.782e-09
-1.06231e-09
-3.06266e-09
1.89305e-09
-1.21243e-09
-1.91276e-09
2.18634e-09
-1.36192e-09
-4.71141e-10
2.47203e-09
-1.4315e-09
1.12347e-09
2.63057e-09
-1.39989e-09
2.66251e-09
2.64778e-09
-1.29252e-09
3.92579e-09
2.59474e-09
-1.13381e-09
4.73643e-09
2.65391e-09
-1.00333e-09
5.06685e-09
2.88771e-09
-9.2235e-10
5.00835e-09
3.36562e-09
-9.21355e-10
4.70916e-09
4.00599e-09
-9.81756e-10
4.36399e-09
4.6198e-09
-1.02337e-09
4.03137e-09
5.22671e-09
-1.02461e-09
3.65846e-09
5.8864e-09
-9.783e-10
3.09704e-09
6.83874e-09
-9.37435e-10
2.29117e-09
8.17282e-09
-9.67319e-10
1.35691e-09
9.72538e-09
-1.07684e-09
4.64525e-10
1.12174e-08
-1.29743e-09
-7.88343e-11
1.2079e-08
-1.34941e-09
1.1537e-08
-1.16398e-09
-1.97857e-09
1.26554e-08
-1.97857e-09
-3.06136e-09
1.71244e-08
-1.89755e-09
-3.94744e-09
1.54476e-08
-1.83221e-09
-4.55606e-09
1.41633e-08
-1.79045e-09
-4.85352e-09
1.23817e-08
-1.65452e-09
-4.91786e-09
1.02449e-08
-1.51058e-09
-4.90407e-09
8.03206e-09
-1.36819e-09
-4.94362e-09
6.04855e-09
-1.2471e-09
-5.00074e-09
4.52884e-09
-1.23818e-09
-4.94691e-09
3.57158e-09
-1.3104e-09
-4.6181e-09
3.05546e-09
-1.43538e-09
-3.79503e-09
2.80425e-09
-1.58993e-09
-2.4885e-09
2.63916e-09
-1.65225e-09
-8.02451e-10
2.49664e-09
-1.63494e-09
1.03983e-09
2.4019e-09
-1.54922e-09
2.7747e-09
2.39559e-09
-1.41056e-09
4.16632e-09
2.55412e-09
-1.2695e-09
5.10912e-09
2.95362e-09
-1.17382e-09
5.5643e-09
3.60582e-09
-1.15428e-09
5.69341e-09
4.33562e-09
-1.15869e-09
5.59927e-09
5.12799e-09
-1.16374e-09
5.39871e-09
5.79473e-09
-1.14468e-09
5.03562e-09
6.51748e-09
-1.06674e-09
4.403e-09
7.48773e-09
-1.02123e-09
3.48791e-09
8.86352e-09
-1.06393e-09
2.41735e-09
1.05184e-08
-1.17372e-09
1.43901e-09
1.21418e-08
-1.35781e-09
7.54714e-10
1.32105e-08
-1.31545e-09
3.66153e-10
1.34745e-08
-1.10827e-09
1.26954e-08
-9.14842e-10
-2.11878e-09
1.68839e-08
-2.11878e-09
-2.96639e-09
1.98186e-08
-1.94474e-09
-3.78188e-09
1.80808e-08
-1.92322e-09
-4.33314e-09
1.64951e-08
-1.88661e-09
-4.64089e-09
1.44051e-08
-1.80243e-09
-4.8184e-09
1.20824e-08
-1.70781e-09
-5.01324e-09
9.83547e-09
-1.60615e-09
-5.29214e-09
7.92878e-09
-1.55139e-09
-5.57474e-09
6.4603e-09
-1.56935e-09
-5.63864e-09
5.35328e-09
-1.63528e-09
-5.27116e-09
4.47311e-09
-1.72329e-09
-4.33505e-09
3.64842e-09
-1.74809e-09
-2.90334e-09
2.94452e-09
-1.72421e-09
-1.11714e-09
2.37576e-09
-1.64852e-09
7.89643e-10
2.06811e-09
-1.53205e-09
2.58259e-09
2.10387e-09
-1.43576e-09
4.09724e-09
2.49006e-09
-1.38733e-09
5.21581e-09
3.21514e-09
-1.36321e-09
5.95931e-09
4.16503e-09
-1.36973e-09
6.37634e-09
5.13443e-09
-1.37189e-09
6.56591e-09
6.05971e-09
-1.32868e-09
6.46957e-09
6.97332e-09
-1.27579e-09
5.99402e-09
8.11025e-09
-1.23941e-09
5.14108e-09
9.59494e-09
-1.28945e-09
4.10355e-09
1.13473e-08
-1.43055e-09
3.09796e-09
1.30472e-08
-1.52158e-09
2.31138e-09
1.42888e-08
-1.42239e-09
1.71307e-09
1.49092e-08
-1.22222e-09
1.04254e-09
1.5079e-08
-1.05107e-09
1.47551e-08
-1.02732e-09
-2.14502e-09
2.10998e-08
-2.14502e-09
-3.04561e-09
2.26236e-08
-2.01608e-09
-3.96326e-09
2.09357e-08
-2.02895e-09
-4.60566e-09
1.90624e-08
-1.99642e-09
-5.04017e-09
1.67135e-08
-1.91953e-09
-5.39456e-09
1.42544e-08
-1.83692e-09
-5.78637e-09
1.19977e-08
-1.77263e-09
-6.19802e-09
1.00869e-08
-1.74957e-09
-6.47271e-09
8.47578e-09
-1.76607e-09
-6.42784e-09
7.03212e-09
-1.78554e-09
-5.89488e-09
5.63293e-09
-1.78844e-09
-4.84768e-09
4.25977e-09
-1.76498e-09
-3.37327e-09
3.11238e-09
-1.72353e-09
-1.58371e-09
2.25895e-09
-1.69722e-09
3.17447e-10
1.88069e-09
-1.67296e-09
2.17123e-09
2.0176e-09
-1.68553e-09
3.83928e-09
2.62715e-09
-1.73005e-09
5.23111e-09
3.62365e-09
-1.77982e-09
6.32879e-09
4.82855e-09
-1.81466e-09
7.09853e-09
6.08141e-09
-1.82183e-09
7.50492e-09
7.35298e-09
-1.80496e-09
7.44035e-09
8.78083e-09
-1.80116e-09
6.93466e-09
1.04939e-08
-1.87834e-09
6.13556e-09
1.24086e-08
-1.99026e-09
5.24665e-09
1.42087e-08
-1.97459e-09
4.45014e-09
1.56287e-08
-1.84152e-09
3.73716e-09
1.65596e-08
-1.64436e-09
2.83463e-09
1.7251e-08
-1.4849e-09
1.51117e-09
1.79097e-08
-1.44202e-09
1.79998e-08
-1.5667e-09
-2.22847e-09
2.54949e-08
-2.22847e-09
-3.36679e-09
2.58491e-08
-2.12782e-09
-4.48866e-09
2.41623e-08
-2.1228e-09
-5.33964e-09
2.19779e-08
-2.06753e-09
-6.01479e-09
1.93838e-08
-1.99188e-09
-6.60564e-09
1.67893e-08
-1.94982e-09
-7.16713e-09
1.4443e-08
-1.91905e-09
-7.61874e-09
1.23774e-08
-1.92342e-09
-7.79659e-09
1.04678e-08
-1.95747e-09
-7.55528e-09
8.58565e-09
-1.98651e-09
-6.84733e-09
6.71162e-09
-1.99314e-09
-5.69597e-09
4.93493e-09
-1.99913e-09
-4.15118e-09
3.49176e-09
-2.0174e-09
-2.31501e-09
2.50395e-09
-2.07405e-09
-2.95979e-10
2.12316e-09
-2.16963e-09
1.76145e-09
2.36057e-09
-2.27038e-09
3.71397e-09
3.14407e-09
-2.35495e-09
5.46321e-09
4.37009e-09
-2.4283e-09
6.91364e-09
5.87271e-09
-2.46757e-09
7.97068e-09
7.53073e-09
-2.48424e-09
8.53263e-09
9.34795e-09
-2.50692e-09
8.58032e-09
1.13709e-08
-2.56087e-09
8.23498e-09
1.35081e-08
-2.60457e-09
7.69246e-09
1.55066e-08
-2.55305e-09
7.06727e-09
1.7151e-08
-2.39151e-09
6.29705e-09
1.84452e-08
-2.155e-09
5.20663e-09
1.95755e-08
-1.98817e-09
3.69233e-09
2.07564e-08
-1.93882e-09
1.86703e-09
2.19449e-08
-2.04155e-09
2.21244e-08
-2.10561e-09
-2.42834e-09
3.03456e-08
-2.42834e-09
-3.86713e-09
2.96203e-08
-2.31241e-09
-5.26203e-09
2.78363e-08
-2.25395e-09
-6.45636e-09
2.53612e-08
-2.16664e-09
-7.52587e-09
2.25687e-08
-2.10858e-09
-8.49811e-09
1.98334e-08
-2.0982e-09
-9.29711e-09
1.73047e-08
-2.14043e-09
-9.76534e-09
1.49339e-08
-2.22789e-09
-9.77868e-09
1.26215e-08
-2.33378e-09
-9.2983e-09
1.03079e-08
-2.41778e-09
-8.34511e-09
8.05416e-09
-2.48223e-09
-6.968e-09
6.02346e-09
-2.57207e-09
-5.21023e-09
4.42829e-09
-2.69076e-09
-3.117e-09
3.3239e-09
-2.807e-09
-7.75888e-10
2.8623e-09
-2.91362e-09
1.6585e-09
3.08685e-09
-2.98912e-09
4.00854e-09
3.96313e-09
-3.0312e-09
6.12455e-09
5.40909e-09
-3.05317e-09
7.88625e-09
7.2724e-09
-3.06826e-09
9.18304e-09
9.43265e-09
-3.08752e-09
9.95685e-09
1.18151e-08
-3.11749e-09
1.02586e-08
1.42789e-08
-3.11909e-09
1.02177e-08
1.65818e-08
-3.02977e-09
9.89596e-09
1.85411e-08
-2.81474e-09
9.23959e-09
2.02067e-08
-2.56188e-09
8.09728e-09
2.18471e-08
-2.4012e-09
6.43053e-09
2.35713e-08
-2.38608e-09
4.39587e-09
2.53027e-08
-2.48023e-09
2.2485e-09
2.66763e-08
-2.52884e-09
2.68114e-08
-2.46778e-09
-2.6898e-09
3.57512e-08
-2.6898e-09
-4.49603e-09
3.39198e-08
-2.49567e-09
-6.32446e-09
3.20454e-08
-2.39158e-09
-8.0655e-09
2.9413e-08
-2.32825e-09
-9.72941e-09
2.65352e-08
-2.32982e-09
-1.11953e-08
2.36547e-08
-2.40239e-09
-1.22425e-08
2.08832e-08
-2.60985e-09
-1.26816e-08
1.80982e-08
-2.83759e-09
-1.24863e-08
1.53119e-08
-3.0153e-09
-1.16987e-08
1.25669e-08
-3.15733e-09
-1.04019e-08
9.99526e-09
-3.28601e-09
-8.64016e-09
7.72629e-09
-3.42033e-09
-6.41144e-09
5.87671e-09
-3.54243e-09
-3.80275e-09
4.53457e-09
-3.63079e-09
-9.35689e-10
3.85691e-09
-3.67278e-09
1.98696e-09
3.98816e-09
-3.67585e-09
4.76933e-09
4.9485e-09
-3.66669e-09
7.26603e-09
6.65572e-09
-3.66296e-09
9.36155e-09
8.9441e-09
-3.67642e-09
1.09815e-08
1.16097e-08
-3.69376e-09
1.20874e-08
1.44434e-08
-3.65675e-09
1.27179e-08
1.71566e-08
-3.50907e-09
1.28907e-08
1.95749e-08
-3.26631e-09
1.25199e-08
2.17521e-08
-3.0046e-09
1.14611e-08
2.395e-08
-2.8433e-09
9.73526e-09
2.62549e-08
-2.78295e-09
7.54103e-09
2.85903e-08
-2.87305e-09
5.14516e-09
3.05932e-08
-2.94271e-09
2.71998e-09
3.19066e-08
-2.90364e-09
3.21843e-08
-2.76574e-09
-2.97804e-09
4.17023e-08
-2.97804e-09
-5.38102e-09
3.90042e-08
-2.76954e-09
-7.89068e-09
3.71618e-08
-2.68979e-09
-1.03929e-08
3.45244e-08
-2.67304e-09
-1.27382e-08
3.16515e-08
-2.80936e-09
-1.46334e-08
2.86388e-08
-3.10953e-09
-1.58215e-08
2.54743e-08
-3.41926e-09
-1.61969e-08
2.21442e-08
-3.68779e-09
-1.57704e-08
1.87747e-08
-3.89606e-09
-1.46402e-08
1.55363e-08
-4.07122e-09
-1.28813e-08
1.25598e-08
-4.23772e-09
-1.0533e-08
9.90902e-09
-4.38648e-09
-7.63964e-09
7.6475e-09
-4.48789e-09
-4.34368e-09
5.93014e-09
-4.52865e-09
-8.36573e-10
4.98337e-09
-4.52146e-09
2.64289e-09
5.06267e-09
-4.49919e-09
5.92871e-09
6.18449e-09
-4.49766e-09
8.90632e-09
8.22182e-09
-4.51398e-09
1.14867e-08
1.09302e-08
-4.519e-09
1.35725e-08
1.40106e-08
-4.44796e-09
1.50947e-08
1.71603e-08
-4.25418e-09
1.59957e-08
2.01551e-08
-3.98644e-09
1.61465e-08
2.30174e-08
-3.71784e-09
1.53939e-08
2.5925e-08
-3.52121e-09
1.37967e-08
2.89051e-08
-3.3996e-09
1.15469e-08
3.19077e-08
-3.40432e-09
8.90622e-09
3.46702e-08
-3.45213e-09
6.13612e-09
3.67464e-08
-3.44576e-09
3.36586e-09
3.79129e-08
-3.32683e-09
3.85993e-08
-3.05923e-09
-3.43561e-09
4.85031e-08
-3.43561e-09
-6.76417e-09
4.54555e-08
-3.26092e-09
-1.01744e-08
4.37219e-08
-3.24937e-09
-1.34899e-08
4.12521e-08
-3.45778e-09
-1.64234e-08
3.83684e-08
-3.77545e-09
-1.86521e-08
3.503e-08
-4.12008e-09
-1.99366e-08
3.12472e-08
-4.4344e-09
-2.02231e-08
2.71818e-08
-4.69753e-09
-1.95741e-08
2.31106e-08
-4.927e-09
-1.80672e-08
1.926e-08
-5.15452e-09
-1.57479e-08
1.57134e-08
-5.37207e-09
-1.26749e-08
1.24819e-08
-5.53303e-09
-8.97797e-09
9.65882e-09
-5.61261e-09
-4.8844e-09
7.52635e-09
-5.63687e-09
-6.64685e-10
6.40808e-09
-5.636e-09
3.4946e-09
6.53144e-09
-5.63684e-09
7.46168e-09
7.8771e-09
-5.64936e-09
1.11431e-08
1.02213e-08
-5.63768e-09
1.44045e-08
1.3248e-08
-5.52806e-09
1.70792e-08
1.66539e-08
-5.3036e-09
1.89939e-08
2.02013e-08
-4.99985e-09
1.99839e-08
2.38043e-08
-4.71096e-09
1.98863e-08
2.74921e-08
-4.40958e-09
1.86842e-08
3.13945e-08
-4.2221e-09
1.66013e-08
3.52545e-08
-4.17641e-09
1.3912e-08
3.88177e-08
-4.15216e-09
1.08296e-08
4.1872e-08
-4.10205e-09
7.58106e-09
4.39825e-08
-3.99625e-09
4.24204e-09
4.50757e-08
-3.80003e-09
4.63815e-08
-3.46608e-09
-4.16711e-09
5.67387e-08
-4.16711e-09
-8.74179e-09
5.40934e-08
-4.13844e-09
-1.31596e-08
5.24784e-08
-4.35709e-09
-1.72451e-08
5.00389e-08
-4.66253e-09
-2.06571e-08
4.68647e-08
-5.00994e-09
-2.31191e-08
4.29129e-08
-5.34276e-09
-2.44876e-08
3.83054e-08
-5.63252e-09
-2.47499e-08
3.33846e-08
-5.90884e-09
-2.39236e-08
2.85021e-08
-6.19955e-09
-2.20084e-08
2.38676e-08
-6.50269e-09
-1.90377e-08
1.95161e-08
-6.74797e-09
-1.51263e-08
1.54916e-08
-6.90181e-09
-1.05297e-08
1.20448e-08
-6.98199e-09
-5.56442e-09
9.56201e-09
-7.01438e-09
-4.89657e-10
8.3699e-09
-7.03555e-09
4.55197e-09
8.5968e-09
-7.0559e-09
9.45833e-09
1.01245e-08
-7.04151e-09
1.40729e-08
1.26791e-08
-6.93089e-09
1.8157e-08
1.5962e-08
-6.68587e-09
2.1455e-08
1.9745e-08
-6.34314e-09
2.36631e-08
2.39543e-08
-5.96136e-09
2.45905e-08
2.85216e-08
-5.62808e-09
2.42243e-08
3.33201e-08
-5.3762e-09
2.26675e-08
3.82998e-08
-5.2069e-09
2.01596e-08
4.3018e-08
-5.1313e-09
1.70191e-08
4.70524e-08
-5.03745e-09
1.34592e-08
5.03038e-08
-4.8526e-09
9.53403e-09
5.25318e-08
-4.58575e-09
5.17798e-09
5.38508e-08
-4.35168e-09
5.58757e-08
-4.31465e-09
-5.35692e-09
6.74057e-08
-5.35692e-09
-1.12316e-08
6.55613e-08
-5.51497e-09
-1.66622e-08
6.38242e-08
-5.80448e-09
-2.1447e-08
6.10732e-08
-6.12689e-09
-2.5308e-08
5.72776e-08
-6.45297e-09
-2.80567e-08
5.24646e-08
-6.75424e-09
-2.96145e-08
4.69174e-08
-7.0582e-09
-2.99327e-08
4.10731e-08
-7.40723e-09
-2.89193e-08
3.52413e-08
-7.7943e-09
-2.65125e-08
2.95861e-08
-8.15399e-09
-2.27664e-08
2.4176e-08