/*--------------------------------*- C++ -*----------------------------------*\
| =========                 |                                                 |
| \\      /  F ield         | OpenFOAM: The Open Source CFD Toolbox           |
|  \\    /   O peration     | Version:  2312                                  |
|   \\  /    A nd           | Website:  www.openfoam.com                      |
|    \\/     M anipulation  |                                                 |
\*---------------------------------------------------------------------------*/
FoamFile
{
    version     2.0;
    format      ascii;
    arch        "LSB;label=32;scalar=64";
    class       volScalarField;
    location    "0.54522";
    object      epsilon;
}
// * * * * * * * * * * * * * * * * * * * * * * * * * * * * * * * * * * * * * //

dimensions      [0 2 -3 0 0 0 0];

internalField   nonuniform List<scalar> 
90000
(
1.27553e-05
1.27558e-05
1.2756e-05
1.2756e-05
1.27561e-05
1.27561e-05
1.2756e-05
1.2756e-05
1.2756e-05
1.2756e-05
1.2756e-05
1.2756e-05
1.27561e-05
1.27561e-05
1.27561e-05
1.27561e-05
1.27562e-05
1.27563e-05
1.27563e-05
1.27562e-05
1.2756e-05
1.27559e-05
1.27559e-05
1.2756e-05
1.27562e-05
1.27563e-05
1.27563e-05
1.27561e-05
1.27558e-05
1.27556e-05
1.27558e-05
1.27748e-05
1.27755e-05
1.27755e-05
1.27755e-05
1.27755e-05
1.27755e-05
1.27755e-05
1.27756e-05
1.27757e-05
1.27757e-05
1.27758e-05
1.27758e-05
1.27758e-05
1.27758e-05
1.27758e-05
1.27758e-05
1.27757e-05
1.27756e-05
1.27755e-05
1.27754e-05
1.27754e-05
1.27754e-05
1.27753e-05
1.27751e-05
1.2775e-05
1.27751e-05
1.27753e-05
1.27748e-05
1.27573e-05
1.2756e-05
1.27758e-05
1.27766e-05
1.27766e-05
1.27765e-05
1.27765e-05
1.27765e-05
1.27766e-05
1.27766e-05
1.27766e-05
1.27767e-05
1.27766e-05
1.27766e-05
1.27766e-05
1.27766e-05
1.27765e-05
1.27765e-05
1.27764e-05
1.27765e-05
1.27766e-05
1.27766e-05
1.27766e-05
1.27765e-05
1.27765e-05
1.27766e-05
1.27767e-05
1.27768e-05
1.27767e-05
1.27755e-05
1.27567e-05
1.27562e-05
1.27761e-05
1.27769e-05
1.27769e-05
1.27769e-05
1.27769e-05
1.27769e-05
1.27768e-05
1.27768e-05
1.27768e-05
1.27768e-05
1.27767e-05
1.27767e-05
1.27766e-05
1.27765e-05
1.27764e-05
1.27764e-05
1.27765e-05
1.27767e-05
1.27768e-05
1.27768e-05
1.27768e-05
1.27768e-05
1.2777e-05
1.27772e-05
1.27773e-05
1.27773e-05
1.27772e-05
1.27759e-05
1.27563e-05
1.27565e-05
1.27764e-05
1.27772e-05
1.27773e-05
1.27773e-05
1.27772e-05
1.27772e-05
1.27771e-05
1.2777e-05
1.27769e-05
1.27768e-05
1.27767e-05
1.27766e-05
1.27764e-05
1.27763e-05
1.27763e-05
1.27764e-05
1.27765e-05
1.27766e-05
1.27767e-05
1.27768e-05
1.27769e-05
1.27771e-05
1.27773e-05
1.27775e-05
1.27774e-05
1.27773e-05
1.2777e-05
1.27762e-05
1.27566e-05
1.27568e-05
1.27767e-05
1.27775e-05
1.27775e-05
1.27775e-05
1.27775e-05
1.27774e-05
1.27772e-05
1.27771e-05
1.27769e-05
1.27767e-05
1.27766e-05
1.27764e-05
1.27763e-05
1.27762e-05
1.27762e-05
1.27763e-05
1.27764e-05
1.27765e-05
1.27766e-05
1.27768e-05
1.27771e-05
1.27773e-05
1.27774e-05
1.27773e-05
1.27772e-05
1.27772e-05
1.27773e-05
1.27767e-05
1.27568e-05
1.2757e-05
1.2777e-05
1.27777e-05
1.27777e-05
1.27776e-05
1.27775e-05
1.27774e-05
1.27773e-05
1.27771e-05
1.27768e-05
1.27766e-05
1.27764e-05
1.27762e-05
1.27762e-05
1.27761e-05
1.27761e-05
1.27762e-05
1.27762e-05
1.27764e-05
1.27767e-05
1.2777e-05
1.27772e-05
1.27773e-05
1.27773e-05
1.27773e-05
1.27774e-05
1.27776e-05
1.27777e-05
1.27769e-05
1.2757e-05
1.27572e-05
1.27771e-05
1.27778e-05
1.27777e-05
1.27776e-05
1.27775e-05
1.27775e-05
1.27773e-05
1.27772e-05
1.27769e-05
1.27766e-05
1.27763e-05
1.27761e-05
1.27761e-05
1.27761e-05
1.27761e-05
1.27762e-05
1.27763e-05
1.27766e-05
1.27769e-05
1.27772e-05
1.27773e-05
1.27773e-05
1.27773e-05
1.27775e-05
1.27777e-05
1.27779e-05
1.27779e-05
1.27771e-05
1.27573e-05
1.27573e-05
1.27772e-05
1.27778e-05
1.27777e-05
1.27776e-05
1.27776e-05
1.27775e-05
1.27774e-05
1.27772e-05
1.2777e-05
1.27767e-05
1.27765e-05
1.27763e-05
1.27762e-05
1.27762e-05
1.27763e-05
1.27765e-05
1.27768e-05
1.2777e-05
1.27772e-05
1.27774e-05
1.27774e-05
1.27774e-05
1.27775e-05
1.27777e-05
1.27779e-05
1.2778e-05
1.27781e-05
1.27773e-05
1.27576e-05
1.27574e-05
1.27773e-05
1.27779e-05
1.27778e-05
1.27777e-05
1.27776e-05
1.27776e-05
1.27775e-05
1.27774e-05
1.27772e-05
1.2777e-05
1.27768e-05
1.27766e-05
1.27764e-05
1.27764e-05
1.27766e-05
1.2777e-05
1.27773e-05
1.27775e-05
1.27776e-05
1.27776e-05
1.27776e-05
1.27776e-05
1.27776e-05
1.27778e-05
1.2778e-05
1.27782e-05
1.27783e-05
1.27776e-05
1.2758e-05
1.27576e-05
1.27774e-05
1.27781e-05
1.2778e-05
1.27779e-05
1.27778e-05
1.27777e-05
1.27776e-05
1.27775e-05
1.27774e-05
1.27773e-05
1.27772e-05
1.2777e-05
1.27767e-05
1.27766e-05
1.27768e-05
1.27772e-05
1.27775e-05
1.27777e-05
1.27778e-05
1.27778e-05
1.27777e-05
1.27777e-05
1.27778e-05
1.2778e-05
1.27782e-05
1.27784e-05
1.27786e-05
1.27779e-05
1.27583e-05
1.2758e-05
1.27778e-05
1.27785e-05
1.27785e-05
1.27784e-05
1.27782e-05
1.2778e-05
1.27778e-05
1.27776e-05
1.27775e-05
1.27775e-05
1.27774e-05
1.27773e-05
1.2777e-05
1.27767e-05
1.27768e-05
1.27772e-05
1.27775e-05
1.27777e-05
1.27778e-05
1.27778e-05
1.27778e-05
1.27778e-05
1.2778e-05
1.27782e-05
1.27785e-05
1.27787e-05
1.27788e-05
1.27781e-05
1.27584e-05
1.27586e-05
1.27785e-05
1.27792e-05
1.27791e-05
1.2779e-05
1.27788e-05
1.27786e-05
1.27783e-05
1.2778e-05
1.27778e-05
1.27776e-05
1.27775e-05
1.27774e-05
1.27772e-05
1.27768e-05
1.27767e-05
1.2777e-05
1.27772e-05
1.27774e-05
1.27775e-05
1.27777e-05
1.27779e-05
1.27781e-05
1.27783e-05
1.27786e-05
1.27788e-05
1.2779e-05
1.27791e-05
1.27783e-05
1.27587e-05
1.27596e-05
1.27793e-05
1.27799e-05
1.27798e-05
1.27797e-05
1.27795e-05
1.27792e-05
1.27789e-05
1.27785e-05
1.27781e-05
1.27778e-05
1.27776e-05
1.27774e-05
1.27772e-05
1.2777e-05
1.27768e-05
1.27769e-05
1.2777e-05
1.27771e-05
1.27774e-05
1.27778e-05
1.27782e-05
1.27785e-05
1.27788e-05
1.27791e-05
1.27792e-05
1.27794e-05
1.27794e-05
1.27786e-05
1.27591e-05
1.27608e-05
1.278e-05
1.27807e-05
1.27806e-05
1.27803e-05
1.278e-05
1.27797e-05
1.27793e-05
1.27789e-05
1.27785e-05
1.27781e-05
1.27777e-05
1.27774e-05
1.27772e-05
1.2777e-05
1.27769e-05
1.27769e-05
1.2777e-05
1.27773e-05
1.27777e-05
1.27783e-05
1.27788e-05
1.27792e-05
1.27795e-05
1.27797e-05
1.27799e-05
1.278e-05
1.278e-05
1.27792e-05
1.27599e-05
1.27619e-05
1.27808e-05
1.27815e-05
1.27813e-05
1.2781e-05
1.27806e-05
1.27802e-05
1.27798e-05
1.27794e-05
1.27789e-05
1.27784e-05
1.27778e-05
1.27774e-05
1.27771e-05
1.27769e-05
1.27769e-05
1.2777e-05
1.27772e-05
1.27777e-05
1.27783e-05
1.27789e-05
1.27795e-05
1.278e-05
1.27803e-05
1.27806e-05
1.27807e-05
1.27808e-05
1.2781e-05
1.27803e-05
1.2761e-05
1.27631e-05
1.27818e-05
1.27825e-05
1.27822e-05
1.27818e-05
1.27813e-05
1.27809e-05
1.27805e-05
1.278e-05
1.27795e-05
1.27789e-05
1.27782e-05
1.27776e-05
1.27771e-05
1.27769e-05
1.27769e-05
1.27771e-05
1.27776e-05
1.27783e-05
1.2779e-05
1.27797e-05
1.27803e-05
1.27808e-05
1.27812e-05
1.27815e-05
1.27818e-05
1.2782e-05
1.27823e-05
1.27816e-05
1.27623e-05
1.27642e-05
1.27829e-05
1.27836e-05
1.27833e-05
1.27829e-05
1.27825e-05
1.2782e-05
1.27816e-05
1.2781e-05
1.27803e-05
1.27795e-05
1.27787e-05
1.27779e-05
1.27773e-05
1.27769e-05
1.27769e-05
1.27774e-05
1.27782e-05
1.2779e-05
1.27798e-05
1.27806e-05
1.27813e-05
1.27818e-05
1.27823e-05
1.27828e-05
1.27832e-05
1.27836e-05
1.27838e-05
1.27831e-05
1.27638e-05
1.27656e-05
1.27843e-05
1.2785e-05
1.27848e-05
1.27844e-05
1.27841e-05
1.27836e-05
1.2783e-05
1.27822e-05
1.27813e-05
1.27804e-05
1.27794e-05
1.27785e-05
1.27777e-05
1.27771e-05
1.27771e-05
1.27778e-05
1.27787e-05
1.27798e-05
1.27807e-05
1.27816e-05
1.27823e-05
1.2783e-05
1.27837e-05
1.27843e-05
1.27849e-05
1.27853e-05
1.27855e-05
1.27848e-05
1.27655e-05
1.27675e-05
1.27861e-05
1.27869e-05
1.27866e-05
1.27864e-05
1.2786e-05
1.27854e-05
1.27847e-05
1.27838e-05
1.27827e-05
1.27815e-05
1.27804e-05
1.27792e-05
1.27781e-05
1.27773e-05
1.27773e-05
1.27782e-05
1.27794e-05
1.27806e-05
1.27817e-05
1.27827e-05
1.27836e-05
1.27845e-05
1.27853e-05
1.27861e-05
1.27868e-05
1.27872e-05
1.27874e-05
1.27867e-05
1.27674e-05
1.27699e-05
1.27885e-05
1.27893e-05
1.27891e-05
1.27888e-05
1.27883e-05
1.27877e-05
1.27868e-05
1.27857e-05
1.27844e-05
1.2783e-05
1.27815e-05
1.278e-05
1.27787e-05
1.27777e-05
1.27778e-05
1.27789e-05
1.27803e-05
1.27816e-05
1.27829e-05
1.2784e-05
1.27852e-05
1.27863e-05
1.27874e-05
1.27883e-05
1.2789e-05
1.27895e-05
1.27897e-05
1.27889e-05
1.27698e-05
1.27729e-05
1.27916e-05
1.27924e-05
1.27922e-05
1.27918e-05
1.27912e-05
1.27904e-05
1.27893e-05
1.27879e-05
1.27863e-05
1.27846e-05
1.27828e-05
1.2781e-05
1.27794e-05
1.27782e-05
1.27784e-05
1.27797e-05
1.27813e-05
1.27829e-05
1.27845e-05
1.27859e-05
1.27874e-05
1.27888e-05
1.27901e-05
1.27911e-05
1.27919e-05
1.27924e-05
1.27927e-05
1.2792e-05
1.27732e-05
1.27768e-05
1.27956e-05
1.27964e-05
1.27961e-05
1.27956e-05
1.27948e-05
1.27936e-05
1.27922e-05
1.27905e-05
1.27886e-05
1.27865e-05
1.27844e-05
1.27823e-05
1.27804e-05
1.2779e-05
1.27793e-05
1.27808e-05
1.27827e-05
1.27847e-05
1.27866e-05
1.27885e-05
1.27903e-05
1.2792e-05
1.27935e-05
1.27947e-05
1.27956e-05
1.27962e-05
1.27966e-05
1.27962e-05
1.27775e-05
1.27817e-05
1.28007e-05
1.28013e-05
1.28009e-05
1.28001e-05
1.2799e-05
1.27975e-05
1.27957e-05
1.27936e-05
1.27913e-05
1.27889e-05
1.27865e-05
1.2784e-05
1.27818e-05
1.27802e-05
1.27805e-05
1.27822e-05
1.27845e-05
1.27869e-05
1.27893e-05
1.27917e-05
1.27939e-05
1.27959e-05
1.27976e-05
1.27989e-05
1.28e-05
1.28009e-05
1.28016e-05
1.28013e-05
1.27826e-05
1.27878e-05
1.28069e-05
1.28073e-05
1.28066e-05
1.28055e-05
1.2804e-05
1.28021e-05
1.28e-05
1.27975e-05
1.27949e-05
1.27921e-05
1.27892e-05
1.27864e-05
1.27837e-05
1.27818e-05
1.2782e-05
1.2784e-05
1.27867e-05
1.27896e-05
1.27926e-05
1.27954e-05
1.2798e-05
1.28003e-05
1.28023e-05
1.2804e-05
1.28054e-05
1.28066e-05
1.28076e-05
1.28074e-05
1.27885e-05
1.27953e-05
1.28142e-05
1.28144e-05
1.28134e-05
1.2812e-05
1.28101e-05
1.28079e-05
1.28054e-05
1.28025e-05
1.27994e-05
1.27961e-05
1.27927e-05
1.27893e-05
1.27861e-05
1.27838e-05
1.27838e-05
1.27861e-05
1.27894e-05
1.27929e-05
1.27964e-05
1.27998e-05
1.28029e-05
1.28057e-05
1.28081e-05
1.28101e-05
1.2812e-05
1.28135e-05
1.28147e-05
1.28146e-05
1.27958e-05
1.28043e-05
1.28229e-05
1.28229e-05
1.28216e-05
1.28199e-05
1.28177e-05
1.28151e-05
1.28121e-05
1.28087e-05
1.2805e-05
1.28011e-05
1.2797e-05
1.27928e-05
1.2789e-05
1.27861e-05
1.27861e-05
1.27888e-05
1.27927e-05
1.27969e-05
1.28012e-05
1.28053e-05
1.2809e-05
1.28122e-05
1.28151e-05
1.28178e-05
1.28201e-05
1.28219e-05
1.28232e-05
1.28232e-05
1.28046e-05
1.28149e-05
1.28332e-05
1.2833e-05
1.28315e-05
1.28295e-05
1.28269e-05
1.28239e-05
1.28202e-05
1.28162e-05
1.28117e-05
1.2807e-05
1.28021e-05
1.27971e-05
1.27924e-05
1.27891e-05
1.27891e-05
1.27923e-05
1.27969e-05
1.28021e-05
1.28072e-05
1.2812e-05
1.28163e-05
1.28203e-05
1.28239e-05
1.2827e-05
1.28297e-05
1.28318e-05
1.28333e-05
1.28335e-05
1.28151e-05
1.28276e-05
1.28457e-05
1.28453e-05
1.28435e-05
1.28411e-05
1.2838e-05
1.28344e-05
1.283e-05
1.28252e-05
1.282e-05
1.28143e-05
1.28084e-05
1.28024e-05
1.2797e-05
1.27932e-05
1.27932e-05
1.27969e-05
1.28024e-05
1.28085e-05
1.28145e-05
1.28201e-05
1.28254e-05
1.28301e-05
1.28344e-05
1.28381e-05
1.28412e-05
1.28437e-05
1.28455e-05
1.28458e-05
1.28277e-05
1.28428e-05
1.28606e-05
1.286e-05
1.28579e-05
1.2855e-05
1.28514e-05
1.2847e-05
1.2842e-05
1.28363e-05
1.28301e-05
1.28234e-05
1.28163e-05
1.28092e-05
1.28028e-05
1.27985e-05
1.27985e-05
1.28029e-05
1.28092e-05
1.28163e-05
1.28234e-05
1.28301e-05
1.28364e-05
1.28421e-05
1.28472e-05
1.28515e-05
1.28551e-05
1.2858e-05
1.28601e-05
1.28607e-05
1.28429e-05
1.28609e-05
1.28785e-05
1.28776e-05
1.28751e-05
1.28717e-05
1.28675e-05
1.28624e-05
1.28565e-05
1.28499e-05
1.28426e-05
1.28346e-05
1.28262e-05
1.28179e-05
1.28105e-05
1.28055e-05
1.28055e-05
1.28105e-05
1.28178e-05
1.28261e-05
1.28344e-05
1.28424e-05
1.28499e-05
1.28567e-05
1.28626e-05
1.28676e-05
1.28718e-05
1.28752e-05
1.28777e-05
1.28785e-05
1.2861e-05
1.28825e-05
1.28998e-05
1.28987e-05
1.28958e-05
1.28918e-05
1.28869e-05
1.2881e-05
1.28742e-05
1.28665e-05
1.28579e-05
1.28485e-05
1.28386e-05
1.28289e-05
1.28203e-05
1.28146e-05
1.28146e-05
1.28203e-05
1.28288e-05
1.28384e-05
1.28482e-05
1.28577e-05
1.28664e-05
1.28743e-05
1.28811e-05
1.2887e-05
1.28919e-05
1.28958e-05
1.28987e-05
1.28999e-05
1.28825e-05
1.29083e-05
1.29252e-05
1.29238e-05
1.29204e-05
1.29159e-05
1.29102e-05
1.29035e-05
1.28956e-05
1.28867e-05
1.28766e-05
1.28656e-05
1.28541e-05
1.28428e-05
1.28329e-05
1.28265e-05
1.28266e-05
1.2833e-05
1.28428e-05
1.28539e-05
1.28654e-05
1.28764e-05
1.28865e-05
1.28956e-05
1.29035e-05
1.29104e-05
1.2916e-05
1.29204e-05
1.29238e-05
1.29252e-05
1.29082e-05
1.29388e-05
1.29553e-05
1.29535e-05
1.29498e-05
1.29446e-05
1.29382e-05
1.29306e-05
1.29216e-05
1.29112e-05
1.28995e-05
1.28868e-05
1.28735e-05
1.28605e-05
1.28493e-05
1.28421e-05
1.28421e-05
1.28494e-05
1.28605e-05
1.28734e-05
1.28866e-05
1.28993e-05
1.29109e-05
1.29214e-05
1.29306e-05
1.29384e-05
1.29447e-05
1.29497e-05
1.29535e-05
1.29552e-05
1.29388e-05
1.29748e-05
1.29908e-05
1.29888e-05
1.29846e-05
1.29789e-05
1.29718e-05
1.29631e-05
1.29529e-05
1.2941e-05
1.29276e-05
1.29131e-05
1.28979e-05
1.28833e-05
1.28706e-05
1.28623e-05
1.28623e-05
1.28705e-05
1.28832e-05
1.28979e-05
1.2913e-05
1.29275e-05
1.29408e-05
1.29528e-05
1.29632e-05
1.29719e-05
1.2979e-05
1.29845e-05
1.29886e-05
1.29906e-05
1.29748e-05
1.30171e-05
1.30326e-05
1.30304e-05
1.30258e-05
1.30197e-05
1.30118e-05
1.30021e-05
1.29906e-05
1.29773e-05
1.29622e-05
1.29458e-05
1.29287e-05
1.29121e-05
1.28979e-05
1.28887e-05
1.28886e-05
1.28978e-05
1.29122e-05
1.29288e-05
1.29458e-05
1.29622e-05
1.29772e-05
1.29907e-05
1.30022e-05
1.30118e-05
1.30197e-05
1.30257e-05
1.303e-05
1.30323e-05
1.30169e-05
1.30667e-05
1.30816e-05
1.30791e-05
1.30743e-05
1.30678e-05
1.30593e-05
1.30488e-05
1.30361e-05
1.30213e-05
1.30046e-05
1.29863e-05
1.29673e-05
1.29488e-05
1.2933e-05
1.29228e-05
1.29229e-05
1.29331e-05
1.2949e-05
1.29675e-05
1.29864e-05
1.30048e-05
1.30215e-05
1.30363e-05
1.30489e-05
1.30594e-05
1.3068e-05
1.30744e-05
1.30788e-05
1.30812e-05
1.30662e-05
1.31242e-05
1.31386e-05
1.31359e-05
1.31311e-05
1.31244e-05
1.31155e-05
1.31044e-05
1.30907e-05
1.30747e-05
1.30565e-05
1.30366e-05
1.30157e-05
1.29955e-05
1.29781e-05
1.29669e-05
1.29669e-05
1.29781e-05
1.29955e-05
1.30158e-05
1.30367e-05
1.3057e-05
1.30751e-05
1.30912e-05
1.31047e-05
1.31159e-05
1.31248e-05
1.31314e-05
1.3136e-05
1.31383e-05
1.3124e-05
1.31904e-05
1.32044e-05
1.32018e-05
1.31972e-05
1.31907e-05
1.31818e-05
1.31703e-05
1.31561e-05
1.31393e-05
1.31201e-05
1.30987e-05
1.30762e-05
1.30542e-05
1.30352e-05
1.3023e-05
1.3023e-05
1.30352e-05
1.30541e-05
1.30761e-05
1.30986e-05
1.31203e-05
1.31396e-05
1.31566e-05
1.31707e-05
1.31822e-05
1.31912e-05
1.31977e-05
1.32021e-05
1.32044e-05
1.31907e-05
1.32661e-05
1.32799e-05
1.32778e-05
1.32738e-05
1.32678e-05
1.32594e-05
1.32483e-05
1.32344e-05
1.32174e-05
1.31975e-05
1.3175e-05
1.31512e-05
1.31277e-05
1.31075e-05
1.30945e-05
1.30944e-05
1.31074e-05
1.31274e-05
1.31507e-05
1.31744e-05
1.31972e-05
1.3217e-05
1.32345e-05
1.32486e-05
1.32597e-05
1.32682e-05
1.32742e-05
1.3278e-05
1.32803e-05
1.32668e-05
1.3352e-05
1.33661e-05
1.33647e-05
1.33619e-05
1.33572e-05
1.33503e-05
1.33405e-05
1.33275e-05
1.3311e-05
1.32912e-05
1.32685e-05
1.32443e-05
1.32201e-05
1.3199e-05
1.3185e-05
1.31848e-05
1.31985e-05
1.32195e-05
1.32439e-05
1.32681e-05
1.32908e-05
1.33103e-05
1.33271e-05
1.33403e-05
1.33502e-05
1.33574e-05
1.33621e-05
1.33647e-05
1.33667e-05
1.33527e-05
1.345e-05
1.34651e-05
1.3464e-05
1.34629e-05
1.34605e-05
1.34561e-05
1.34487e-05
1.34377e-05
1.3423e-05
1.34047e-05
1.33833e-05
1.33595e-05
1.33352e-05
1.33136e-05
1.32995e-05
1.32995e-05
1.33137e-05
1.3335e-05
1.33591e-05
1.33827e-05
1.34044e-05
1.34225e-05
1.34371e-05
1.34483e-05
1.34557e-05
1.34605e-05
1.3463e-05
1.34642e-05
1.34656e-05
1.34503e-05
1.3562e-05
1.35778e-05
1.35776e-05
1.35788e-05
1.35795e-05
1.35786e-05
1.3575e-05
1.35679e-05
1.3557e-05
1.35419e-05
1.35229e-05
1.35009e-05
1.34781e-05
1.34573e-05
1.34435e-05
1.34433e-05
1.34573e-05
1.34781e-05
1.3501e-05
1.3523e-05
1.35418e-05
1.35569e-05
1.35677e-05
1.35749e-05
1.35783e-05
1.35793e-05
1.35789e-05
1.35783e-05
1.35784e-05
1.35622e-05
1.36871e-05
1.37048e-05
1.37068e-05
1.37115e-05
1.37163e-05
1.37204e-05
1.37225e-05
1.37217e-05
1.37167e-05
1.3707e-05
1.3693e-05
1.36751e-05
1.3655e-05
1.36356e-05
1.36226e-05
1.36226e-05
1.36358e-05
1.3655e-05
1.36751e-05
1.36935e-05
1.37072e-05
1.37164e-05
1.37215e-05
1.37223e-05
1.372e-05
1.37161e-05
1.37115e-05
1.37073e-05
1.3705e-05
1.36874e-05
1.38247e-05
1.38459e-05
1.38516e-05
1.38618e-05
1.38735e-05
1.38847e-05
1.38949e-05
1.39026e-05
1.39065e-05
1.39063e-05
1.39009e-05
1.38899e-05
1.38753e-05
1.38606e-05
1.38509e-05
1.38508e-05
1.38606e-05
1.38754e-05
1.38898e-05
1.39008e-05
1.39063e-05
1.39065e-05
1.39027e-05
1.38945e-05
1.38843e-05
1.38735e-05
1.38621e-05
1.3852e-05
1.38457e-05
1.38247e-05
1.39733e-05
1.40017e-05
1.40134e-05
1.40323e-05
1.40544e-05
1.40773e-05
1.41012e-05
1.41237e-05
1.41439e-05
1.4163e-05
1.41792e-05
1.41935e-05
1.42116e-05
1.42292e-05
1.42504e-05
1.42503e-05
1.42292e-05
1.42114e-05
1.41938e-05
1.41796e-05
1.4163e-05
1.41437e-05
1.4124e-05
1.41011e-05
1.40771e-05
1.40544e-05
1.40325e-05
1.40136e-05
1.4002e-05
1.39736e-05
1.41665e-05
1.42069e-05
1.42282e-05
1.42631e-05
1.43059e-05
1.4357e-05
1.44179e-05
1.44937e-05
1.45852e-05
1.47196e-05
1.49046e-05
1.51595e-05
1.55191e-05
1.59411e-05
1.63874e-05
1.63867e-05
1.59416e-05
1.55195e-05
1.51606e-05
1.49064e-05
1.47209e-05
1.45861e-05
1.44939e-05
1.44176e-05
1.4357e-05
1.43057e-05
1.4263e-05
1.42277e-05
1.42064e-05
1.41667e-05
1.44743e-05
1.4543e-05
1.46135e-05
1.47206e-05
1.48649e-05
1.50801e-05
1.53937e-05
1.58907e-05
1.66117e-05
1.78162e-05
1.9758e-05
2.27179e-05
2.66888e-05
3.15898e-05
3.68847e-05
3.68801e-05
3.15923e-05
2.67019e-05
2.27407e-05
1.9781e-05
1.78323e-05
1.66222e-05
1.58971e-05
1.53962e-05
1.50799e-05
1.48633e-05
1.4719e-05
1.46119e-05
1.45405e-05
1.44711e-05
1.51373e-05
1.53093e-05
1.56932e-05
1.62471e-05
1.70878e-05
1.84736e-05
2.07993e-05
2.47111e-05
3.11455e-05
4.12993e-05
5.94286e-05
8.87065e-05
0.000128801
0.000174459
0.000223449
0.000223444
0.000174497
0.000129018
8.89976e-05
5.96693e-05
4.14522e-05
3.12379e-05
2.47677e-05
2.08278e-05
1.84824e-05
1.70842e-05
1.62395e-05
1.56847e-05
1.52941e-05
1.51189e-05
1.80225e-05
1.86687e-05
2.09289e-05
2.39079e-05
2.88609e-05
3.72514e-05
5.32446e-05
8.24005e-05
0.000134473
0.000211123
0.000354087
0.000586123
0.000883771
0.00119977
0.00150606
0.00150629
0.00120042
0.000885956
0.000588798
0.000356224
0.000212388
0.000135272
8.28555e-05
5.34919e-05
3.73755e-05
2.88828e-05
2.3894e-05
2.09056e-05
1.86055e-05
1.79503e-05
3.05071e-05
3.58092e-05
5.35688e-05
8.33898e-05
0.000131386
0.000212506
0.000399266
0.000742061
0.00132588
0.00224612
0.00365113
0.00536259
0.00708368
0.00860295
0.00976651
0.00976987
0.00861175
0.00710042
0.00538511
0.00367208
0.00226083
0.00133488
0.000747092
0.000401901
0.000214018
0.000132142
8.3632e-05
5.35914e-05
3.56306e-05
3.03057e-05
6.35031e-05
8.57978e-05
0.000144285
0.00024481
0.00041363
0.00073158
0.00120941
0.00188248
0.0027897
0.00394981
0.00549991
0.00751078
0.009548
0.0111677
0.0124815
0.0124889
0.0111726
0.00957087
0.00754736
0.00553699
0.0039796
0.00281224
0.00189604
0.00121775
0.000737305
0.000416113
0.000246008
0.000144822
8.54423e-05
6.30733e-05
6.4329e-05
8.53101e-05
0.000164743
0.000330751
0.00059563
0.000964631
0.00146215
0.0021675
0.00316804
0.00451989
0.00636183
0.00855615
0.0107395
0.0124917
0.0138749
0.0138909
0.0125153
0.0107796
0.00862132
0.00642641
0.00456775
0.00320301
0.00219058
0.00147497
0.000973047
0.000601742
0.000334497
0.000166225
8.55369e-05
6.47403e-05
6.767e-05
7.75048e-05
0.000118816
0.000229221
0.000474871
0.00090694
0.00152435
0.00230999
0.00326174
0.00438001
0.00585524
0.00767055
0.00954441
0.0109798
0.0121002
0.0121163
0.0110077
0.00958546
0.00772928
0.00591285
0.00442259
0.00329418
0.00233451
0.00154119
0.000917777
0.000481006
0.000231985
0.000119397
7.72342e-05
6.79079e-05
7.10918e-05
7.59435e-05
9.27029e-05
0.000135172
0.000242244
0.000489446
0.000986347
0.00177995
0.00279872
0.00396756
0.00533784
0.00674848
0.00812343
0.0091424
0.0098586
0.00987083
0.00916709
0.00815828
0.00679218
0.0053818
0.00400259
0.00282657
0.00180217
0.00100069
0.000497215
0.000245666
0.000136396
9.30225e-05
7.57281e-05
7.10866e-05
7.29564e-05
7.53175e-05
8.28311e-05
9.81974e-05
0.000131012
0.00020693
0.000390937
0.000794982
0.00152365
0.00261079
0.00404137
0.00558596
0.00699743
0.00800359
0.00861647
0.00862376
0.00801853
0.00702266
0.00561789
0.00407339
0.00263567
0.00154366
0.00080801
0.00039704
0.000209574
0.000132218
9.86019e-05
8.297e-05
7.54105e-05
7.25842e-05
7.35156e-05
7.4324e-05
7.83939e-05
8.54502e-05
9.6963e-05
0.000118255
0.000163654
0.000270785
0.000514234
0.00102155
0.00197261
0.00338057
0.0049163
0.00621982
0.00714121
0.00714708
0.00622707
0.00493095
0.00339956
0.00198904
0.00103326
0.000521333
0.000274325
0.000165276
0.000118915
9.7359e-05
8.56554e-05
7.85901e-05
7.46823e-05
7.34759e-05
7.32346e-05
7.31176e-05
7.57664e-05
8.00711e-05
8.56975e-05
9.39802e-05
0.00010694
0.000131994
0.00018466
0.00030663
0.000602296
0.0012286
0.0022007
0.0033585
0.00445384
0.00445799
0.00336066
0.00220568
0.00123527
0.000606896
0.00030946
0.000186294
0.000132583
0.000107234
9.41558e-05
8.59351e-05
8.01215e-05
7.57319e-05
7.32005e-05
7.33517e-05
7.20564e-05
7.13139e-05
7.29209e-05
7.61279e-05
8.00626e-05
8.48105e-05
9.09107e-05
9.89015e-05
0.000111944
0.000137312
0.000194946
0.000335319
0.000616299
0.00107995
0.00166778
0.00166903
0.00108003
0.000617299
0.000336538
0.000195734
0.000137684
0.000112179
9.91748e-05
9.08668e-05
8.48734e-05
8.01751e-05
7.6268e-05
7.30432e-05
7.12558e-05
7.20721e-05
6.97123e-05
6.8497e-05
6.99685e-05
7.20562e-05
7.5041e-05
7.84002e-05
8.23741e-05
8.67975e-05
9.21453e-05
9.91855e-05
0.000111162
0.000136092
0.000185571
0.000277624
0.00041421
0.000414264
0.000277551
0.000185842
0.000136317
0.000111359
9.92285e-05
9.21218e-05
8.68576e-05
8.24378e-05
7.85353e-05
7.5229e-05
7.22491e-05
6.99155e-05
6.85588e-05
6.96939e-05
6.64001e-05
6.47745e-05
6.56734e-05
6.75625e-05
6.96405e-05
7.22299e-05
7.50819e-05
7.80178e-05
8.10529e-05
8.42753e-05
8.80341e-05
9.3268e-05
0.000101673
0.000115749
0.000135808
0.000135574
0.000115639
0.000101824
9.33756e-05
8.81312e-05
8.427e-05
8.11267e-05
7.80819e-05
7.50724e-05
7.22976e-05
6.98106e-05
6.75397e-05
6.58203e-05
6.48959e-05
6.62299e-05
6.18097e-05
6.06255e-05
6.11978e-05
6.24075e-05
6.39674e-05
6.58456e-05
6.77361e-05
6.96689e-05
7.1571e-05
7.33059e-05
7.48316e-05
7.63474e-05
7.81507e-05
8.03467e-05
8.28757e-05
8.28102e-05
8.03764e-05
7.82909e-05
7.64533e-05
7.48494e-05
7.32058e-05
7.15227e-05
6.97016e-05
6.77234e-05
6.58947e-05
6.40837e-05
6.24517e-05
6.11931e-05
6.06122e-05
6.20321e-05
5.7387e-05
5.57402e-05
5.60884e-05
5.70479e-05
5.80795e-05
5.92572e-05
6.04916e-05
6.17035e-05
6.27226e-05
6.3441e-05
6.3985e-05
6.44989e-05
6.48777e-05
6.51265e-05
6.53074e-05
6.53031e-05
6.51379e-05
6.48846e-05
6.45565e-05
6.41183e-05
6.35238e-05
6.27341e-05
6.17377e-05
6.05374e-05
5.93376e-05
5.81811e-05
5.71529e-05
5.62499e-05
5.58826e-05
5.73197e-05
5.23285e-05
5.10156e-05
5.11499e-05
5.16468e-05
5.23506e-05
5.30643e-05
5.37928e-05
5.43365e-05
5.46672e-05
5.48397e-05
5.48706e-05
5.47203e-05
5.44056e-05
5.41534e-05
5.40231e-05
5.40468e-05
5.42367e-05
5.44633e-05
5.4715e-05
5.49054e-05
5.49163e-05
5.46929e-05
5.42693e-05
5.37608e-05
5.31583e-05
5.24422e-05
5.17348e-05
5.11584e-05
5.1028e-05
5.24011e-05
4.74652e-05
4.61434e-05
4.62048e-05
4.64988e-05
4.68791e-05
4.72596e-05
4.75456e-05
4.76725e-05
4.7633e-05
4.73946e-05
4.69553e-05
4.63876e-05
4.5803e-05
4.53482e-05
4.50714e-05
4.50665e-05
4.53655e-05
4.58355e-05
4.64195e-05
4.701e-05
4.74528e-05
4.76872e-05
4.7711e-05
4.75637e-05
4.72874e-05
4.69471e-05
4.65853e-05
4.62718e-05
4.62672e-05
4.75191e-05
4.28311e-05
4.16013e-05
4.15598e-05
4.17876e-05
4.19309e-05
4.20467e-05
4.19838e-05
4.18224e-05
4.15374e-05
4.10191e-05
4.03173e-05
3.95575e-05
3.8843e-05
3.82685e-05
3.79013e-05
3.78725e-05
3.82343e-05
3.88695e-05
3.96431e-05
4.04102e-05
4.10549e-05
4.15409e-05
4.18813e-05
4.20609e-05
4.20762e-05
4.19711e-05
4.17989e-05
4.16535e-05
4.17512e-05
4.28933e-05
3.84674e-05
3.75753e-05
3.74605e-05
3.7439e-05
3.74289e-05
3.73412e-05
3.71823e-05
3.6927e-05
3.64303e-05
3.56829e-05
3.48605e-05
3.40528e-05
3.32826e-05
3.2628e-05
3.22213e-05
3.22156e-05
3.26195e-05
3.32895e-05
3.40898e-05
3.49314e-05
3.57316e-05
3.64107e-05
3.69197e-05
3.72379e-05
3.73937e-05
3.74527e-05
3.74647e-05
3.74758e-05
3.76288e-05
3.86363e-05
3.48363e-05
3.37593e-05
3.36377e-05
3.35793e-05
3.35242e-05
3.33558e-05
3.30888e-05
3.2635e-05
3.19818e-05
3.12416e-05
3.04771e-05
2.96549e-05
2.88157e-05
2.81173e-05
2.77278e-05
2.7754e-05
2.81632e-05
2.88229e-05
2.96237e-05
3.04969e-05
3.1347e-05
3.20812e-05
3.26504e-05
3.30598e-05
3.33491e-05
3.35567e-05
3.36907e-05
3.3756e-05
3.38896e-05
3.47679e-05
3.12721e-05
3.05216e-05
3.03745e-05
3.03218e-05
3.015e-05
2.99066e-05
2.95604e-05
2.90593e-05
2.84472e-05
2.77579e-05
2.69642e-05
2.60898e-05
2.52668e-05
2.46452e-05
2.43217e-05
2.43452e-05
2.47026e-05
2.53113e-05
2.6082e-05
2.6938e-05
2.77796e-05
2.85176e-05
2.91076e-05
2.95636e-05
2.99189e-05
3.01852e-05
3.035e-05
3.04302e-05
3.05663e-05
3.1356e-05
2.83282e-05
2.77159e-05
2.75432e-05
2.74039e-05
2.72013e-05
2.6965e-05
2.66029e-05
2.61288e-05
2.55598e-05
2.4866e-05
2.40648e-05
2.32475e-05
2.25262e-05
2.19748e-05
2.16564e-05
2.16427e-05
2.1959e-05
2.25423e-05
2.32907e-05
2.41018e-05
2.48811e-05
2.55674e-05
2.61394e-05
2.66082e-05
2.69859e-05
2.72678e-05
2.74503e-05
2.75627e-05
2.77181e-05
2.84118e-05
2.59186e-05
2.52021e-05
2.51024e-05
2.4953e-05
2.47878e-05
2.45329e-05
2.41665e-05
2.37226e-05
2.31684e-05
2.24958e-05
2.17703e-05
2.10627e-05
2.04233e-05
1.99027e-05
1.95846e-05
1.95659e-05
1.98706e-05
2.04246e-05
2.11139e-05
2.18358e-05
2.25227e-05
2.31473e-05
2.36979e-05
2.4165e-05
2.45398e-05
2.4819e-05
2.50103e-05
2.51403e-05
2.52927e-05
2.58792e-05
2.3592e-05
2.31416e-05
2.30241e-05
2.292e-05
2.27699e-05
2.24926e-05
2.21517e-05
2.17344e-05
2.12092e-05
2.06116e-05
1.99922e-05
1.93738e-05
1.87828e-05
1.8287e-05
1.79898e-05
1.79818e-05
1.82678e-05
1.87673e-05
1.93756e-05
2.001e-05
2.06246e-05
2.12001e-05
2.17176e-05
2.21555e-05
2.25015e-05
2.27594e-05
2.29434e-05
2.30749e-05
2.32183e-05
2.37147e-05
2.17863e-05
2.14369e-05
2.13065e-05
2.1206e-05
2.10126e-05
2.07496e-05
2.04505e-05
2.00701e-05
1.96148e-05
1.91146e-05
1.85761e-05
1.80063e-05
1.74516e-05
1.69989e-05
1.67437e-05
1.6753e-05
1.7017e-05
1.74584e-05
1.79922e-05
1.85551e-05
1.9109e-05
1.96299e-05
2.0095e-05
2.0484e-05
2.07903e-05
2.10233e-05
2.11992e-05
2.13335e-05
2.1469e-05
2.18845e-05
2.03406e-05
1.99311e-05
1.98557e-05
1.97426e-05
1.9555e-05
1.93484e-05
1.90817e-05
1.87414e-05
1.83531e-05
1.79172e-05
1.74274e-05
1.691e-05
1.64254e-05
1.60463e-05
1.58385e-05
1.5853e-05
1.60802e-05
1.64541e-05
1.69117e-05
1.74043e-05
1.78966e-05
1.83593e-05
1.87686e-05
1.91097e-05
1.93814e-05
1.95945e-05
1.9761e-05
1.98884e-05
2.00042e-05
2.03368e-05
1.89513e-05
1.87114e-05
1.86312e-05
1.85196e-05
1.83838e-05
1.82107e-05
1.79618e-05
1.76636e-05
1.73256e-05
1.6934e-05
1.64975e-05
1.60551e-05
1.5651e-05
1.53285e-05
1.51382e-05
1.51363e-05
1.53249e-05
1.56478e-05
1.60518e-05
1.6492e-05
1.69306e-05
1.73371e-05
1.76923e-05
1.79888e-05
1.8229e-05
1.842e-05
1.85675e-05
1.86745e-05
1.87642e-05
1.90274e-05
1.79025e-05
1.7738e-05
1.76334e-05
1.75312e-05
1.74168e-05
1.7243e-05
1.70204e-05
1.67689e-05
1.64763e-05
1.61357e-05
1.57668e-05
1.5398e-05
1.50515e-05
1.47576e-05
1.45722e-05
1.45623e-05
1.47342e-05
1.50319e-05
1.53974e-05
1.57853e-05
1.61611e-05
1.6503e-05
1.68017e-05
1.70556e-05
1.72658e-05
1.74334e-05
1.75593e-05
1.76472e-05
1.77196e-05
1.79348e-05
1.70838e-05
1.68553e-05
1.67838e-05
1.66985e-05
1.65865e-05
1.6431e-05
1.62522e-05
1.60446e-05
1.5796e-05
1.55112e-05
1.52054e-05
1.48908e-05
1.45834e-05
1.43171e-05
1.41499e-05
1.41458e-05
1.43076e-05
1.4575e-05
1.48901e-05
1.52136e-05
1.55223e-05
1.58054e-05
1.60589e-05
1.62803e-05
1.64658e-05
1.66123e-05
1.67204e-05
1.67962e-05
1.68593e-05
1.70353e-05
1.62683e-05
1.61087e-05
1.60603e-05
1.59959e-05
1.59021e-05
1.57844e-05
1.5641e-05
1.54623e-05
1.52496e-05
1.50104e-05
1.47484e-05
1.4471e-05
1.41991e-05
1.39686e-05
1.38278e-05
1.38273e-05
1.39699e-05
1.41989e-05
1.44633e-05
1.47338e-05
1.4996e-05
1.52422e-05
1.54658e-05
1.56599e-05
1.58192e-05
1.59422e-05
1.60329e-05
1.60983e-05
1.61529e-05
1.62914e-05
1.56219e-05
1.5552e-05
1.54971e-05
1.54443e-05
1.53683e-05
1.5269e-05
1.51383e-05
1.49785e-05
1.47969e-05
1.45941e-05
1.43688e-05
1.41297e-05
1.38989e-05
1.37063e-05
1.35881e-05
1.35847e-05
1.37022e-05
1.3896e-05
1.41217e-05
1.43572e-05
1.45892e-05
1.48062e-05
1.49985e-05
1.51592e-05
1.52863e-05
1.53837e-05
1.54581e-05
1.55156e-05
1.55638e-05
1.56716e-05
1.51654e-05
1.50787e-05
1.50364e-05
1.49873e-05
1.49182e-05
1.48245e-05
1.47091e-05
1.45768e-05
1.44283e-05
1.42608e-05
1.40754e-05
1.38808e-05
1.36927e-05
1.35312e-05
1.34255e-05
1.34158e-05
1.3509e-05
1.36702e-05
1.38637e-05
1.40686e-05
1.42691e-05
1.44518e-05
1.46075e-05
1.4733e-05
1.48312e-05
1.49092e-05
1.49742e-05
1.50285e-05
1.50736e-05
1.51582e-05
1.47359e-05
1.46438e-05
1.46245e-05
1.45825e-05
1.45212e-05
1.44449e-05
1.43578e-05
1.42564e-05
1.41367e-05
1.39994e-05
1.38493e-05
1.36931e-05
1.35387e-05
1.33989e-05
1.33015e-05
1.32875e-05
1.33603e-05
1.34923e-05
1.36569e-05
1.38318e-05
1.39996e-05
1.41489e-05
1.42735e-05
1.43734e-05
1.44542e-05
1.45228e-05
1.45829e-05
1.46333e-05
1.46724e-05
1.47342e-05
1.43459e-05
1.43067e-05
1.42926e-05
1.4259e-05
1.421e-05
1.41538e-05
1.40877e-05
1.40046e-05
1.39028e-05
1.37863e-05
1.36613e-05
1.35317e-05
1.34005e-05
1.32779e-05
1.31893e-05
1.31765e-05
1.32413e-05
1.33533e-05
1.34929e-05
1.36403e-05
1.37797e-05
1.39024e-05
1.40055e-05
1.40904e-05
1.41616e-05
1.4223e-05
1.42747e-05
1.43145e-05
1.43412e-05