/*--------------------------------*- C++ -*----------------------------------*\
| =========                 |                                                 |
| \\      /  F ield         | OpenFOAM: The Open Source CFD Toolbox           |
|  \\    /   O peration     | Version:  2312                                  |
|   \\  /    A nd           | Website:  www.openfoam.com                      |
|    \\/     M anipulation  |                                                 |
\*---------------------------------------------------------------------------*/
FoamFile
{
    version     2.0;
    format      ascii;
    arch        "LSB;label=32;scalar=64";
    class       volScalarField;
    location    "0.54522";
    object      k;
}
// * * * * * * * * * * * * * * * * * * * * * * * * * * * * * * * * * * * * * //

dimensions      [0 2 -2 0 0 0 0];

internalField   nonuniform List<scalar> 
90000
(
2.91822e-05
2.91831e-05
2.91833e-05
2.91834e-05
2.91835e-05
2.91835e-05
2.91835e-05
2.91834e-05
2.91834e-05
2.91834e-05
2.91834e-05
2.91834e-05
2.91835e-05
2.91835e-05
2.91835e-05
2.91836e-05
2.91837e-05
2.91838e-05
2.91839e-05
2.91838e-05
2.91835e-05
2.91832e-05
2.91832e-05
2.91835e-05
2.91838e-05
2.9184e-05
2.9184e-05
2.91837e-05
2.91833e-05
2.9183e-05
2.9183e-05
2.92134e-05
2.92146e-05
2.92146e-05
2.92146e-05
2.92146e-05
2.92147e-05
2.92147e-05
2.92148e-05
2.92149e-05
2.9215e-05
2.92151e-05
2.92151e-05
2.92152e-05
2.92152e-05
2.92152e-05
2.92151e-05
2.9215e-05
2.92148e-05
2.92147e-05
2.92146e-05
2.92146e-05
2.92145e-05
2.92144e-05
2.92142e-05
2.9214e-05
2.92141e-05
2.92146e-05
2.92136e-05
2.91859e-05
2.91834e-05
2.92152e-05
2.92164e-05
2.92164e-05
2.92163e-05
2.92163e-05
2.92163e-05
2.92164e-05
2.92165e-05
2.92165e-05
2.92165e-05
2.92165e-05
2.92164e-05
2.92164e-05
2.92164e-05
2.92163e-05
2.92162e-05
2.92161e-05
2.92162e-05
2.92164e-05
2.92165e-05
2.92165e-05
2.92164e-05
2.92164e-05
2.92165e-05
2.92167e-05
2.92169e-05
2.92168e-05
2.92148e-05
2.91848e-05
2.91838e-05
2.92157e-05
2.9217e-05
2.9217e-05
2.9217e-05
2.9217e-05
2.92169e-05
2.92168e-05
2.92168e-05
2.92168e-05
2.92167e-05
2.92166e-05
2.92164e-05
2.92163e-05
2.92162e-05
2.9216e-05
2.9216e-05
2.92163e-05
2.92165e-05
2.92166e-05
2.92167e-05
2.92167e-05
2.92169e-05
2.92172e-05
2.92175e-05
2.92177e-05
2.92176e-05
2.92174e-05
2.92154e-05
2.91839e-05
2.91842e-05
2.92162e-05
2.92175e-05
2.92176e-05
2.92176e-05
2.92175e-05
2.92174e-05
2.92172e-05
2.92171e-05
2.92169e-05
2.92167e-05
2.92165e-05
2.92163e-05
2.9216e-05
2.92158e-05
2.92158e-05
2.9216e-05
2.92162e-05
2.92165e-05
2.92166e-05
2.92167e-05
2.92169e-05
2.92172e-05
2.92176e-05
2.92178e-05
2.92178e-05
2.92175e-05
2.9217e-05
2.92158e-05
2.91842e-05
2.91847e-05
2.92167e-05
2.9218e-05
2.9218e-05
2.92179e-05
2.92178e-05
2.92177e-05
2.92175e-05
2.92172e-05
2.92169e-05
2.92166e-05
2.92163e-05
2.92161e-05
2.92159e-05
2.92157e-05
2.92158e-05
2.92159e-05
2.92161e-05
2.92163e-05
2.92165e-05
2.92168e-05
2.92172e-05
2.92175e-05
2.92176e-05
2.92175e-05
2.92174e-05
2.92174e-05
2.92176e-05
2.92166e-05
2.91847e-05
2.91851e-05
2.92171e-05
2.92182e-05
2.92182e-05
2.92181e-05
2.9218e-05
2.92178e-05
2.92176e-05
2.92173e-05
2.92168e-05
2.92164e-05
2.92161e-05
2.92159e-05
2.92158e-05
2.92157e-05
2.92157e-05
2.92158e-05
2.92159e-05
2.92162e-05
2.92167e-05
2.92171e-05
2.92174e-05
2.92175e-05
2.92174e-05
2.92174e-05
2.92177e-05
2.92181e-05
2.92183e-05
2.92171e-05
2.91851e-05
2.91854e-05
2.92173e-05
2.92184e-05
2.92182e-05
2.92181e-05
2.9218e-05
2.92179e-05
2.92177e-05
2.92174e-05
2.92169e-05
2.92164e-05
2.9216e-05
2.92158e-05
2.92158e-05
2.92158e-05
2.92158e-05
2.92159e-05
2.92161e-05
2.92165e-05
2.9217e-05
2.92174e-05
2.92175e-05
2.92175e-05
2.92176e-05
2.92179e-05
2.92182e-05
2.92186e-05
2.92187e-05
2.92174e-05
2.91856e-05
2.91855e-05
2.92174e-05
2.92184e-05
2.92183e-05
2.92181e-05
2.9218e-05
2.92179e-05
2.92178e-05
2.92175e-05
2.92172e-05
2.92168e-05
2.92164e-05
2.92161e-05
2.9216e-05
2.9216e-05
2.92162e-05
2.92165e-05
2.92168e-05
2.92172e-05
2.92175e-05
2.92177e-05
2.92177e-05
2.92177e-05
2.92179e-05
2.92182e-05
2.92186e-05
2.9219e-05
2.92191e-05
2.92178e-05
2.91863e-05
2.91857e-05
2.92175e-05
2.92186e-05
2.92184e-05
2.92182e-05
2.92181e-05
2.9218e-05
2.92179e-05
2.92177e-05
2.92175e-05
2.92172e-05
2.92169e-05
2.92166e-05
2.92163e-05
2.92163e-05
2.92167e-05
2.92172e-05
2.92176e-05
2.92179e-05
2.9218e-05
2.9218e-05
2.92179e-05
2.9218e-05
2.92182e-05
2.92185e-05
2.92189e-05
2.92193e-05
2.92195e-05
2.92183e-05
2.91868e-05
2.91861e-05
2.92178e-05
2.92189e-05
2.92188e-05
2.92186e-05
2.92184e-05
2.92182e-05
2.9218e-05
2.92179e-05
2.92178e-05
2.92177e-05
2.92175e-05
2.92172e-05
2.92168e-05
2.92166e-05
2.9217e-05
2.92176e-05
2.9218e-05
2.92183e-05
2.92184e-05
2.92183e-05
2.92182e-05
2.92182e-05
2.92184e-05
2.92188e-05
2.92192e-05
2.92196e-05
2.92199e-05
2.92186e-05
2.91871e-05
2.91867e-05
2.92184e-05
2.92196e-05
2.92195e-05
2.92193e-05
2.92191e-05
2.92188e-05
2.92184e-05
2.92181e-05
2.9218e-05
2.92179e-05
2.92178e-05
2.92176e-05
2.92172e-05
2.92167e-05
2.92168e-05
2.92174e-05
2.92178e-05
2.92181e-05
2.92182e-05
2.92182e-05
2.92183e-05
2.92184e-05
2.92187e-05
2.92191e-05
2.92195e-05
2.92199e-05
2.92201e-05
2.92188e-05
2.91872e-05
2.91877e-05
2.92195e-05
2.92206e-05
2.92205e-05
2.92203e-05
2.92201e-05
2.92197e-05
2.92193e-05
2.92188e-05
2.92184e-05
2.92181e-05
2.9218e-05
2.92177e-05
2.92173e-05
2.92168e-05
2.92166e-05
2.9217e-05
2.92173e-05
2.92176e-05
2.92178e-05
2.92181e-05
2.92184e-05
2.92188e-05
2.92192e-05
2.92196e-05
2.922e-05
2.92202e-05
2.92203e-05
2.92189e-05
2.91876e-05
2.91891e-05
2.92207e-05
2.92218e-05
2.92216e-05
2.92214e-05
2.92211e-05
2.92207e-05
2.92201e-05
2.92196e-05
2.9219e-05
2.92184e-05
2.9218e-05
2.92177e-05
2.92174e-05
2.92169e-05
2.92167e-05
2.92168e-05
2.92169e-05
2.92172e-05
2.92177e-05
2.92183e-05
2.9219e-05
2.92195e-05
2.922e-05
2.92203e-05
2.92206e-05
2.92207e-05
2.92208e-05
2.92194e-05
2.91883e-05
2.91908e-05
2.92218e-05
2.9223e-05
2.92228e-05
2.92224e-05
2.9222e-05
2.92214e-05
2.92208e-05
2.92202e-05
2.92195e-05
2.92188e-05
2.92181e-05
2.92176e-05
2.92173e-05
2.9217e-05
2.92168e-05
2.92169e-05
2.92171e-05
2.92176e-05
2.92183e-05
2.92192e-05
2.922e-05
2.92206e-05
2.92211e-05
2.92214e-05
2.92215e-05
2.92217e-05
2.92218e-05
2.92205e-05
2.91896e-05
2.91926e-05
2.9223e-05
2.92242e-05
2.92239e-05
2.92234e-05
2.92228e-05
2.92222e-05
2.92215e-05
2.92209e-05
2.92202e-05
2.92193e-05
2.92184e-05
2.92177e-05
2.92173e-05
2.9217e-05
2.92169e-05
2.92172e-05
2.92177e-05
2.92184e-05
2.92194e-05
2.92203e-05
2.92211e-05
2.92218e-05
2.92223e-05
2.92226e-05
2.92229e-05
2.92231e-05
2.92234e-05
2.92223e-05
2.91914e-05
2.91943e-05
2.92246e-05
2.92257e-05
2.92252e-05
2.92246e-05
2.9224e-05
2.92233e-05
2.92226e-05
2.92219e-05
2.92211e-05
2.92201e-05
2.9219e-05
2.9218e-05
2.92174e-05
2.9217e-05
2.9217e-05
2.92176e-05
2.92184e-05
2.92194e-05
2.92205e-05
2.92215e-05
2.92224e-05
2.92232e-05
2.92237e-05
2.92242e-05
2.92246e-05
2.92251e-05
2.92256e-05
2.92245e-05
2.91935e-05
2.91962e-05
2.92264e-05
2.92275e-05
2.9227e-05
2.92264e-05
2.92258e-05
2.92251e-05
2.92243e-05
2.92234e-05
2.92224e-05
2.92211e-05
2.92198e-05
2.92187e-05
2.92177e-05
2.92171e-05
2.92172e-05
2.9218e-05
2.92191e-05
2.92204e-05
2.92217e-05
2.92229e-05
2.92238e-05
2.92247e-05
2.92254e-05
2.92262e-05
2.92269e-05
2.92276e-05
2.9228e-05
2.92269e-05
2.91958e-05
2.91985e-05
2.92287e-05
2.92299e-05
2.92295e-05
2.92289e-05
2.92283e-05
2.92276e-05
2.92266e-05
2.92254e-05
2.9224e-05
2.92225e-05
2.9221e-05
2.92195e-05
2.92182e-05
2.92173e-05
2.92173e-05
2.92184e-05
2.922e-05
2.92215e-05
2.9223e-05
2.92243e-05
2.92255e-05
2.92265e-05
2.92276e-05
2.92286e-05
2.92295e-05
2.92302e-05
2.92306e-05
2.92294e-05
2.91984e-05
2.92016e-05
2.92318e-05
2.92329e-05
2.92326e-05
2.92321e-05
2.92314e-05
2.92305e-05
2.92293e-05
2.92278e-05
2.92261e-05
2.92243e-05
2.92224e-05
2.92206e-05
2.92189e-05
2.92176e-05
2.92176e-05
2.92191e-05
2.92209e-05
2.92228e-05
2.92245e-05
2.9226e-05
2.92275e-05
2.92289e-05
2.92303e-05
2.92316e-05
2.92326e-05
2.92333e-05
2.92336e-05
2.92323e-05
2.92015e-05
2.92056e-05
2.92356e-05
2.92368e-05
2.92364e-05
2.92359e-05
2.92351e-05
2.9234e-05
2.92326e-05
2.92308e-05
2.92287e-05
2.92265e-05
2.92242e-05
2.92219e-05
2.92197e-05
2.92182e-05
2.92183e-05
2.92201e-05
2.92223e-05
2.92244e-05
2.92264e-05
2.92283e-05
2.92302e-05
2.9232e-05
2.92338e-05
2.92352e-05
2.92362e-05
2.92369e-05
2.92373e-05
2.92361e-05
2.92055e-05
2.92105e-05
2.92406e-05
2.92418e-05
2.92413e-05
2.92407e-05
2.92397e-05
2.92383e-05
2.92365e-05
2.92343e-05
2.92319e-05
2.92292e-05
2.92264e-05
2.92236e-05
2.92209e-05
2.92191e-05
2.92193e-05
2.92214e-05
2.9224e-05
2.92265e-05
2.9229e-05
2.92315e-05
2.92338e-05
2.92361e-05
2.92381e-05
2.92397e-05
2.92408e-05
2.92417e-05
2.92422e-05
2.92412e-05
2.92109e-05
2.92167e-05
2.92469e-05
2.9248e-05
2.92475e-05
2.92466e-05
2.92452e-05
2.92434e-05
2.92411e-05
2.92385e-05
2.92355e-05
2.92323e-05
2.9229e-05
2.92257e-05
2.92226e-05
2.92204e-05
2.92207e-05
2.92231e-05
2.92262e-05
2.92293e-05
2.92324e-05
2.92355e-05
2.92384e-05
2.92411e-05
2.92434e-05
2.92452e-05
2.92466e-05
2.92477e-05
2.92485e-05
2.92477e-05
2.92177e-05
2.92245e-05
2.92548e-05
2.92558e-05
2.92551e-05
2.92538e-05
2.92519e-05
2.92496e-05
2.92467e-05
2.92435e-05
2.924e-05
2.92363e-05
2.92324e-05
2.92285e-05
2.92249e-05
2.92223e-05
2.92226e-05
2.92254e-05
2.9229e-05
2.92328e-05
2.92367e-05
2.92404e-05
2.92439e-05
2.92471e-05
2.92497e-05
2.92519e-05
2.92537e-05
2.92551e-05
2.92562e-05
2.92557e-05
2.92256e-05
2.9234e-05
2.92645e-05
2.92652e-05
2.92641e-05
2.92623e-05
2.92599e-05
2.9257e-05
2.92536e-05
2.92498e-05
2.92457e-05
2.92412e-05
2.92367e-05
2.92321e-05
2.92279e-05
2.92248e-05
2.92249e-05
2.92282e-05
2.92325e-05
2.92371e-05
2.92418e-05
2.92463e-05
2.92505e-05
2.92541e-05
2.92573e-05
2.926e-05
2.92622e-05
2.92641e-05
2.92656e-05
2.92653e-05
2.9235e-05
2.92459e-05
2.92761e-05
2.92765e-05
2.92749e-05
2.92726e-05
2.92697e-05
2.92663e-05
2.92622e-05
2.92577e-05
2.92528e-05
2.92476e-05
2.92421e-05
2.92367e-05
2.92316e-05
2.92278e-05
2.92279e-05
2.92316e-05
2.92367e-05
2.92423e-05
2.9248e-05
2.92534e-05
2.92583e-05
2.92626e-05
2.92664e-05
2.92698e-05
2.92727e-05
2.92751e-05
2.92769e-05
2.92766e-05
2.92465e-05
2.926e-05
2.92899e-05
2.92899e-05
2.92879e-05
2.92852e-05
2.92818e-05
2.92776e-05
2.92728e-05
2.92675e-05
2.92616e-05
2.92553e-05
2.92488e-05
2.92422e-05
2.92361e-05
2.92316e-05
2.92316e-05
2.92359e-05
2.92421e-05
2.92488e-05
2.92556e-05
2.9262e-05
2.92679e-05
2.92731e-05
2.92777e-05
2.92818e-05
2.92854e-05
2.92883e-05
2.92904e-05
2.92903e-05
2.92605e-05
2.92768e-05
2.93063e-05
2.9306e-05
2.93037e-05
2.93004e-05
2.92964e-05
2.92915e-05
2.92857e-05
2.92793e-05
2.92723e-05
2.92648e-05
2.92569e-05
2.9249e-05
2.92417e-05
2.92365e-05
2.92364e-05
2.92415e-05
2.92488e-05
2.92569e-05
2.9265e-05
2.92727e-05
2.92796e-05
2.92858e-05
2.92915e-05
2.92965e-05
2.93007e-05
2.9304e-05
2.93064e-05
2.93066e-05
2.9277e-05
2.92969e-05
2.9326e-05
2.93254e-05
2.93226e-05
2.93188e-05
2.93139e-05
2.93081e-05
2.93013e-05
2.92937e-05
2.92854e-05
2.92764e-05
2.9267e-05
2.92575e-05
2.92489e-05
2.92429e-05
2.92429e-05
2.92488e-05
2.92575e-05
2.92671e-05
2.92766e-05
2.92856e-05
2.92939e-05
2.93014e-05
2.93082e-05
2.93141e-05
2.9319e-05
2.93228e-05
2.93255e-05
2.9326e-05
2.92969e-05
2.93208e-05
2.93495e-05
2.93486e-05
2.93453e-05
2.93408e-05
2.93351e-05
2.93283e-05
2.93203e-05
2.93114e-05
2.93015e-05
2.92908e-05
2.92796e-05
2.92684e-05
2.92582e-05
2.92513e-05
2.92513e-05
2.92582e-05
2.92683e-05
2.92796e-05
2.92908e-05
2.93014e-05
2.93114e-05
2.93204e-05
2.93284e-05
2.93353e-05
2.9341e-05
2.93454e-05
2.93487e-05
2.93495e-05
2.9321e-05
2.93494e-05
2.93776e-05
2.93764e-05
2.93725e-05
2.93673e-05
2.93607e-05
2.93527e-05
2.93434e-05
2.93329e-05
2.93213e-05
2.93086e-05
2.92953e-05
2.92821e-05
2.92703e-05
2.92624e-05
2.92625e-05
2.92703e-05
2.92821e-05
2.92952e-05
2.93084e-05
2.9321e-05
2.93328e-05
2.93435e-05
2.93529e-05
2.93609e-05
2.93675e-05
2.93727e-05
2.93765e-05
2.93778e-05
2.93497e-05
2.93836e-05
2.94113e-05
2.94097e-05
2.94052e-05
2.93991e-05
2.93914e-05
2.93821e-05
2.93714e-05
2.93591e-05
2.93455e-05
2.93306e-05
2.93149e-05
2.92995e-05
2.92859e-05
2.9277e-05
2.9277e-05
2.9286e-05
2.92996e-05
2.93148e-05
2.93303e-05
2.93452e-05
2.9359e-05
2.93715e-05
2.93823e-05
2.93915e-05
2.93991e-05
2.94052e-05
2.94098e-05
2.94116e-05
2.93837e-05
2.94242e-05
2.94515e-05
2.94494e-05
2.94442e-05
2.94371e-05
2.94283e-05
2.94176e-05
2.94052e-05
2.93911e-05
2.93751e-05
2.93577e-05
2.93395e-05
2.93217e-05
2.93061e-05
2.9296e-05
2.92961e-05
2.93063e-05
2.93217e-05
2.93393e-05
2.93574e-05
2.93748e-05
2.93909e-05
2.94052e-05
2.94177e-05
2.94284e-05
2.94371e-05
2.94441e-05
2.94494e-05
2.94516e-05
2.94243e-05
2.94724e-05
2.94989e-05
2.94964e-05
2.94905e-05
2.94825e-05
2.94725e-05
2.94604e-05
2.94462e-05
2.94298e-05
2.94114e-05
2.93913e-05
2.93704e-05
2.93499e-05
2.93323e-05
2.93208e-05
2.93209e-05
2.93323e-05
2.93499e-05
2.93701e-05
2.9391e-05
2.94111e-05
2.94295e-05
2.94461e-05
2.94605e-05
2.94726e-05
2.94826e-05
2.94904e-05
2.94964e-05
2.94988e-05
2.94725e-05
2.95292e-05
2.95549e-05
2.95519e-05
2.95454e-05
2.95366e-05
2.95253e-05
2.95117e-05
2.94956e-05
2.9477e-05
2.9456e-05
2.9433e-05
2.94092e-05
2.9386e-05
2.9366e-05
2.93531e-05
2.9353e-05
2.93658e-05
2.93858e-05
2.94089e-05
2.94327e-05
2.94557e-05
2.94767e-05
2.94956e-05
2.95118e-05
2.95255e-05
2.95367e-05
2.95453e-05
2.95516e-05
2.95546e-05
2.95292e-05
2.95959e-05
2.96207e-05
2.96173e-05
2.96103e-05
2.96006e-05
2.95883e-05
2.95732e-05
2.95552e-05
2.95343e-05
2.95106e-05
2.94848e-05
2.94578e-05
2.94317e-05
2.94093e-05
2.93949e-05
2.93949e-05
2.94093e-05
2.94318e-05
2.94579e-05
2.94847e-05
2.95105e-05
2.95342e-05
2.95553e-05
2.95733e-05
2.95884e-05
2.96007e-05
2.96101e-05
2.96167e-05
2.96201e-05
2.95954e-05
2.96737e-05
2.96975e-05
2.96938e-05
2.96864e-05
2.96762e-05
2.96631e-05
2.96467e-05
2.9627e-05
2.96038e-05
2.95775e-05
2.95487e-05
2.95187e-05
2.94898e-05
2.9465e-05
2.94492e-05
2.94493e-05
2.94653e-05
2.94901e-05
2.95191e-05
2.95489e-05
2.95777e-05
2.96039e-05
2.96272e-05
2.96469e-05
2.96633e-05
2.96766e-05
2.96865e-05
2.96934e-05
2.96968e-05
2.96729e-05
2.97638e-05
2.97866e-05
2.97828e-05
2.97754e-05
2.9765e-05
2.97514e-05
2.97341e-05
2.97129e-05
2.96878e-05
2.96593e-05
2.9628e-05
2.95953e-05
2.95636e-05
2.95366e-05
2.95191e-05
2.95192e-05
2.95365e-05
2.95637e-05
2.95955e-05
2.96282e-05
2.966e-05
2.96883e-05
2.97134e-05
2.97346e-05
2.97519e-05
2.97657e-05
2.97759e-05
2.97828e-05
2.97862e-05
2.97634e-05
2.98673e-05
2.98892e-05
2.98856e-05
2.98787e-05
2.98688e-05
2.98552e-05
2.98375e-05
2.98155e-05
2.97893e-05
2.97593e-05
2.97259e-05
2.96909e-05
2.96565e-05
2.96271e-05
2.96081e-05
2.96081e-05
2.96269e-05
2.96563e-05
2.96906e-05
2.97258e-05
2.97597e-05
2.97896e-05
2.98161e-05
2.98382e-05
2.98558e-05
2.98695e-05
2.98794e-05
2.9886e-05
2.98893e-05
2.98677e-05
2.99852e-05
3.00065e-05
3.00038e-05
2.9998e-05
2.99891e-05
2.99764e-05
2.99595e-05
2.9938e-05
2.99117e-05
2.98809e-05
2.9846e-05
2.98091e-05
2.97727e-05
2.97415e-05
2.97213e-05
2.97212e-05
2.97411e-05
2.97721e-05
2.98085e-05
2.98452e-05
2.98805e-05
2.99112e-05
2.99382e-05
2.99599e-05
2.99768e-05
2.99895e-05
2.99985e-05
3.00042e-05
3.00073e-05
2.99862e-05
3.01185e-05
3.01402e-05
3.01387e-05
3.01348e-05
3.01281e-05
3.01178e-05
3.01032e-05
3.00834e-05
3.00582e-05
3.00279e-05
2.9993e-05
2.99557e-05
2.99184e-05
2.98859e-05
2.98645e-05
2.98642e-05
2.98851e-05
2.99175e-05
2.99551e-05
2.99923e-05
3.00272e-05
3.00571e-05
3.00828e-05
3.01029e-05
3.01177e-05
3.01283e-05
3.01351e-05
3.01387e-05
3.0141e-05
3.01195e-05
3.02699e-05
3.02927e-05
3.0292e-05
3.02909e-05
3.0288e-05
3.0282e-05
3.02713e-05
3.02552e-05
3.02331e-05
3.02055e-05
3.01729e-05
3.01367e-05
3.00996e-05
3.00667e-05
3.00452e-05
3.00453e-05
3.00668e-05
3.00993e-05
3.01361e-05
3.0172e-05
3.02049e-05
3.02324e-05
3.02544e-05
3.02707e-05
3.02814e-05
3.02879e-05
3.0291e-05
3.02922e-05
3.02933e-05
3.02704e-05
3.04415e-05
3.0465e-05
3.04661e-05
3.04691e-05
3.04713e-05
3.04712e-05
3.0467e-05
3.04575e-05
3.04419e-05
3.04197e-05
3.03915e-05
3.03585e-05
3.03241e-05
3.02929e-05
3.02721e-05
3.02718e-05
3.02927e-05
3.03241e-05
3.03586e-05
3.03914e-05
3.04195e-05
3.04417e-05
3.04572e-05
3.04668e-05
3.04708e-05
3.04711e-05
3.04692e-05
3.04671e-05
3.04657e-05
3.04418e-05
3.06319e-05
3.06577e-05
3.06627e-05
3.06716e-05
3.06809e-05
3.06893e-05
3.06948e-05
3.06956e-05
3.06897e-05
3.06768e-05
3.0657e-05
3.06309e-05
3.06014e-05
3.05728e-05
3.05536e-05
3.05536e-05
3.05731e-05
3.06015e-05
3.06309e-05
3.06575e-05
3.0677e-05
3.06894e-05
3.06952e-05
3.06943e-05
3.06888e-05
3.06807e-05
3.06715e-05
3.06633e-05
3.06578e-05
3.06322e-05
3.08393e-05
3.08697e-05
3.08811e-05
3.08992e-05
3.09201e-05
3.09407e-05
3.09596e-05
3.09748e-05
3.09837e-05
3.09862e-05
3.09804e-05
3.09661e-05
3.09459e-05
3.09251e-05
3.09111e-05
3.0911e-05
3.0925e-05
3.0946e-05
3.09659e-05
3.09803e-05
3.09862e-05
3.09837e-05
3.09748e-05
3.09591e-05
3.09401e-05
3.09202e-05
3.08998e-05
3.08817e-05
3.08694e-05
3.08392e-05
3.10615e-05
3.11022e-05
3.11238e-05
3.11563e-05
3.11948e-05
3.12347e-05
3.12762e-05
3.13155e-05
3.13505e-05
3.13839e-05
3.14118e-05
3.14361e-05
3.1465e-05
3.14921e-05
3.15236e-05
3.15236e-05
3.14922e-05
3.14647e-05
3.14364e-05
3.14123e-05
3.13839e-05
3.13504e-05
3.13158e-05
3.12761e-05
3.12344e-05
3.11947e-05
3.11567e-05
3.11242e-05
3.11026e-05
3.10621e-05
3.13445e-05
3.14026e-05
3.14408e-05
3.14995e-05
3.15705e-05
3.16553e-05
3.17538e-05
3.18742e-05
3.20154e-05
3.22168e-05
3.24884e-05
3.28549e-05
3.33641e-05
3.39547e-05
3.45717e-05
3.45708e-05
3.39554e-05
3.33647e-05
3.28564e-05
3.24909e-05
3.22187e-05
3.20167e-05
3.18744e-05
3.17535e-05
3.16552e-05
3.15702e-05
3.14993e-05
3.14401e-05
3.14018e-05
3.13449e-05
3.17855e-05
3.18847e-05
3.19971e-05
3.21621e-05
3.23808e-05
3.2701e-05
3.31583e-05
3.38643e-05
3.48699e-05
3.64999e-05
3.90493e-05
4.27787e-05
4.75356e-05
5.30835e-05
5.87536e-05
5.87489e-05
5.30865e-05
4.7551e-05
4.28066e-05
3.9079e-05
3.65213e-05
3.48842e-05
3.38732e-05
3.31618e-05
3.27007e-05
3.23786e-05
3.21598e-05
3.19949e-05
3.18812e-05
3.17808e-05
3.2717e-05
3.29674e-05
3.35241e-05
3.4311e-05
3.54779e-05
3.73376e-05
4.03489e-05
4.51346e-05
5.24873e-05
6.31369e-05
8.01474e-05
0.000104438
0.000133792
0.000163858
0.000193105
0.000193103
0.000163884
0.000133942
0.000104664
8.03609e-05
6.32902e-05
5.25891e-05
4.52018e-05
4.03849e-05
3.73493e-05
3.5473e-05
3.43005e-05
3.35121e-05
3.29458e-05
3.26909e-05
3.67794e-05
3.76435e-05
4.0574e-05
4.42689e-05
5.01682e-05
5.93841e-05
7.5205e-05
0.000100333
0.000138444
0.000187265
0.00026418
0.000369534
0.000487181
0.000599316
0.00069696
0.000697036
0.000599555
0.000487978
0.000370649
0.00026524
0.000188014
0.000138989
0.0001007
7.54356e-05
5.95149e-05
5.01944e-05
4.42525e-05
4.05439e-05
3.75588e-05
3.66814e-05
5.6962e-05
6.50082e-05
8.51664e-05
0.000113986
0.000155355
0.000218147
0.000326073
0.000481668
0.000691291
0.000958376
0.00129282
0.00163966
0.00195535
0.00221422
0.00240108
0.00240159
0.00221568
0.00195829
0.00164401
0.00129753
0.000962352
0.000694313
0.000483791
0.000327489
0.000219137
0.000155977
0.000114277
8.52241e-05
6.48676e-05
5.67039e-05
9.17639e-05
0.000111982
0.000157133
0.000221128
0.000311745
0.00045145
0.000621545
0.000824755
0.00106761
0.0013583
0.00170684
0.00209792
0.00245134
0.00270771
0.00290579
0.00290702
0.00270873
0.00245517
0.00210437
0.0017142
0.00136486
0.00107304
0.000828513
0.000624378
0.000453699
0.000312872
0.000221838
0.000157551
0.000111918
9.12604e-05
9.69384e-05
0.000116561
0.000176194
0.000272575
0.000398146
0.00054706
0.000720727
0.000929349
0.00118174
0.00148252
0.00184279
0.00222649
0.00257595
0.00283646
0.00303406
0.00303613
0.00283962
0.00258183
0.00223652
0.00185409
0.0014922
0.00118981
0.000935422
0.000724783
0.000550298
0.000400641
0.000274548
0.000177191
0.000116823
9.72232e-05
9.91453e-05
0.000109592
0.000146853
0.000226076
0.000358303
0.000537785
0.00074535
0.000969802
0.00120898
0.00146282
0.00176324
0.00209739
0.00241207
0.00263859
0.00281
0.00281226
0.00264264
0.00241854
0.00210731
0.00177382
0.00147185
0.0012167
0.000976358
0.000750439
0.00054174
0.000361178
0.000227768
0.000147267
0.000109394
9.93995e-05
0.000101078
0.000106253
0.000123164
0.000161196
0.000239714
0.000378244
0.000586074
0.00084202
0.00111136
0.00138036
0.00166431
0.00193378
0.00218013
0.00235175
0.00247105
0.00247305
0.00235579
0.00218618
0.00194187
0.00167314
0.00138822
0.00111842
0.00084854
0.000591361
0.000382084
0.000241976
0.000162268
0.000123448
0.000106088
0.000101039
0.000101582
0.000104201
0.000111681
0.000126829
0.000157193
0.000216955
0.000332657
0.000523115
0.000780176
0.00108264
0.0014151
0.00172756
0.00198815
0.00215778
0.00225792
0.00225931
0.00216053
0.00199283
0.00173407
0.00142232
0.00108923
0.000786418
0.000528499
0.000336077
0.000218808
0.000158212
0.000127272
0.000111838
0.000104305
0.000101261
0.000100889
0.000101984
0.000105672
0.000112378
0.000123469
0.000143551
0.000182978
0.000260373
0.000396923
0.000614308
0.000924762
0.00128573
0.00161546
0.00185979
0.0020176
0.00201884
0.00186139
0.00161868
0.00129044
0.000929712
0.000618782
0.000400474
0.000262717
0.000184317
0.000144205
0.000123869
0.00011254
0.000105868
0.000102302
0.000100839
9.95988e-05
9.97356e-05
0.000102035
0.000105769
0.000110803
0.000118367
0.000130558
0.000153348
0.000196447
0.000279673
0.000439366
0.000695349
0.00100085
0.0012936
0.00152842
0.00152941
0.00129437
0.00100247
0.000697769
0.000441614
0.00028144
0.000197687
0.000153939
0.000130869
0.000118549
0.000111034
0.000105853
0.000102009
9.98665e-05
9.969e-05
9.76297e-05
9.72417e-05
9.85779e-05
0.000101223
0.000104525
0.000108555
0.000113795
0.000120954
0.00013278
0.000155102
0.000201568
0.00029659
0.000448619
0.000644846
0.000845325
0.000845809
0.000644938
0.000449102
0.000297324
0.000202156
0.000155461
0.000133049
0.000121199
0.000113768
0.000108605
0.000104641
0.000101377
9.86664e-05
9.71892e-05
9.7698e-05
9.48761e-05
9.39599e-05
9.5101e-05
9.69053e-05
9.93613e-05
0.000102135
0.000105354
0.000108968
0.000113478
0.0001197
0.000130702
0.000153211
0.00019432
0.000260808
0.000344066
0.000344119
0.000260768
0.000194522
0.000153409
0.000130888
0.00011975
0.000113461
0.000109053
0.000105411
0.000102238
9.95306e-05
9.70575e-05
9.51081e-05
9.40012e-05
9.48517e-05
9.12573e-05
8.99397e-05
9.06945e-05
9.22609e-05
9.40189e-05
9.61271e-05
9.84364e-05
0.000100815
0.000103246
0.000105851
0.000109103
0.000114026
0.000122235
0.000135823
0.000154232
0.000154068
0.00013572
0.000122343
0.000114112
0.000109188
0.000105855
0.000103269
0.000100858
9.8459e-05
9.62069e-05
9.41548e-05
9.22532e-05
9.0818e-05
9.00606e-05
9.11228e-05
8.65739e-05
8.55965e-05
8.6052e-05
8.70552e-05
8.83827e-05
8.99428e-05
9.1522e-05
9.30874e-05
9.45672e-05
9.59262e-05
9.7153e-05
9.84427e-05
0.000100134
0.000102399
0.000105135
0.000105075
0.000102427
0.000100269
9.85378e-05
9.7163e-05
9.58573e-05
9.45484e-05
9.31099e-05
9.15073e-05
9.00076e-05
8.85055e-05
8.71144e-05
8.60419e-05
8.55842e-05
8.67758e-05
8.20134e-05
8.05844e-05
8.08047e-05
8.16567e-05
8.25335e-05
8.3548e-05
8.45734e-05
8.55276e-05
8.63037e-05
8.68261e-05
8.71815e-05
8.7522e-05
8.78e-05
8.8021e-05
8.82367e-05
8.82347e-05
8.8038e-05
8.78108e-05
8.75723e-05
8.72903e-05
8.68933e-05
8.63286e-05
8.55594e-05
8.45928e-05
8.36083e-05
8.26359e-05
8.1745e-05
8.09656e-05
8.06967e-05
8.19548e-05
7.68204e-05
7.55971e-05
7.56665e-05
7.61135e-05
7.67145e-05
7.73326e-05
7.79079e-05
7.83075e-05
7.85181e-05
7.85546e-05
7.84378e-05
7.81713e-05
7.77827e-05
7.74757e-05
7.73175e-05
7.73392e-05
7.75508e-05
7.7838e-05
7.81804e-05
7.84818e-05
7.86151e-05
7.85358e-05
7.82668e-05
7.79025e-05
7.74228e-05
7.68138e-05
7.61979e-05
7.57009e-05
7.56369e-05
7.68872e-05
7.17221e-05
7.04593e-05
7.05009e-05
7.07206e-05
7.10633e-05
7.13466e-05
7.15389e-05
7.15894e-05
7.14473e-05
7.10774e-05
7.0513e-05
6.98406e-05
6.9163e-05
6.86317e-05
6.8316e-05
6.83164e-05
6.86566e-05
6.91965e-05
6.98728e-05
7.05724e-05
7.11328e-05
7.14889e-05
7.16254e-05
7.15751e-05
7.13806e-05
7.11106e-05
7.08084e-05
7.0545e-05
7.05906e-05
7.17784e-05
6.67669e-05
6.55752e-05
6.54523e-05
6.56316e-05
6.5751e-05
6.57976e-05
6.56901e-05
6.54528e-05
6.50492e-05
6.44029e-05
6.3576e-05
6.26833e-05
6.18319e-05
6.11428e-05
6.07096e-05
6.06798e-05
6.1106e-05
6.18522e-05
6.2764e-05
6.36761e-05
6.44543e-05
6.50552e-05
6.54925e-05
6.5755e-05
6.58432e-05
6.5799e-05
6.56715e-05
6.55587e-05
6.56989e-05
6.6831e-05
6.19849e-05
6.10413e-05
6.08759e-05
6.08603e-05
6.07849e-05
6.06515e-05
6.04313e-05
6.00721e-05
5.94543e-05
5.85741e-05
5.75966e-05
5.66145e-05
5.56742e-05
5.48837e-05
5.43984e-05
5.43957e-05
5.48861e-05
5.56977e-05
5.66647e-05
5.76745e-05
5.86297e-05
5.94448e-05
6.00713e-05
6.0487e-05
6.0718e-05
6.08304e-05
6.08783e-05
6.09186e-05
6.11182e-05
6.21628e-05
5.78954e-05
5.67092e-05
5.65588e-05
5.6467e-05
5.63543e-05
5.61458e-05
5.57902e-05
5.52199e-05
5.44337e-05
5.35333e-05
5.25804e-05
5.15536e-05
5.05154e-05
4.96502e-05
4.91586e-05
4.9182e-05
4.96895e-05
5.05151e-05
5.15157e-05
5.25967e-05
5.3641e-05
5.4542e-05
5.52457e-05
5.5759e-05
5.61265e-05
5.63934e-05
5.65724e-05
5.66743e-05
5.68563e-05
5.78027e-05
5.36983e-05
5.29129e-05
5.27045e-05
5.26015e-05
5.2401e-05
5.20897e-05
5.16374e-05
5.10164e-05
5.02594e-05
4.93902e-05
4.83847e-05
4.72797e-05
4.62317e-05
4.54234e-05
4.49899e-05
4.50148e-05
4.54857e-05
4.62845e-05
4.7282e-05
4.83705e-05
4.94248e-05
5.03419e-05
5.10765e-05
5.16492e-05
5.20996e-05
5.24412e-05
5.26598e-05
5.27762e-05
5.29566e-05
5.38378e-05
5.02514e-05
4.95059e-05
4.92864e-05
4.91014e-05
4.88493e-05
4.85244e-05
4.80596e-05
4.74625e-05
4.67327e-05
4.58374e-05
4.48048e-05
4.3744e-05
4.27905e-05
4.20468e-05
4.16124e-05
4.15972e-05
4.20316e-05
4.28156e-05
4.38021e-05
4.48543e-05
4.5855e-05
4.67341e-05
4.74691e-05
4.80734e-05
4.85599e-05
4.89227e-05
4.91595e-05
4.93081e-05
4.95092e-05
5.03138e-05
4.72609e-05
4.63711e-05
4.62459e-05
4.60579e-05
4.58304e-05
4.54949e-05
4.50297e-05
4.44524e-05
4.3722e-05
4.2837e-05
4.18777e-05
4.09275e-05
4.00538e-05
3.93344e-05
3.88939e-05
3.88721e-05
3.92982e-05
4.00574e-05
4.09882e-05
4.19533e-05
4.28664e-05
4.36926e-05
4.44161e-05
4.50251e-05
4.55106e-05
4.58717e-05
4.61208e-05
4.62929e-05
4.64944e-05
4.72e-05
4.42774e-05
4.37636e-05
4.35919e-05
4.3452e-05
4.32435e-05
4.2884e-05
4.24327e-05
4.18706e-05
4.1168e-05
4.03693e-05
3.95313e-05
3.868e-05
3.78566e-05
3.71612e-05
3.67429e-05
3.67349e-05
3.71424e-05
3.78423e-05
3.86844e-05
3.95549e-05
4.03909e-05
4.11661e-05
4.1856e-05
4.24359e-05
4.28936e-05
4.32365e-05
4.34831e-05
4.36607e-05
4.38525e-05
4.4467e-05
4.19874e-05
4.15368e-05
4.1355e-05
4.12134e-05
4.09541e-05
4.05999e-05
4.01863e-05
3.9666e-05
3.90496e-05
3.83669e-05
3.76208e-05
3.68216e-05
3.60362e-05
3.53894e-05
3.50202e-05
3.5033e-05
3.54141e-05
3.60442e-05
3.67982e-05
3.75862e-05
3.8354e-05
3.90694e-05
3.97032e-05
4.02316e-05
4.06479e-05
4.09653e-05
4.12042e-05
4.13851e-05
4.15668e-05
4.20951e-05
4.00651e-05
3.95002e-05
3.94068e-05
3.92498e-05
3.89969e-05
3.87091e-05
3.8339e-05
3.7873e-05
3.73378e-05
3.67276e-05
3.60339e-05
3.52953e-05
3.45971e-05
3.40438e-05
3.37348e-05
3.37541e-05
3.4088e-05
3.4633e-05
3.52934e-05
3.59968e-05
3.66925e-05
3.734e-05
3.79087e-05
3.83806e-05
3.87556e-05
3.90485e-05
3.9276e-05
3.94494e-05
3.96081e-05
4.00434e-05
3.81514e-05
3.78434e-05
3.77324e-05
3.75774e-05
3.73876e-05
3.71429e-05
3.67971e-05
3.63817e-05
3.59038e-05
3.53446e-05
3.47183e-05
3.40794e-05
3.34897e-05
3.30126e-05
3.27271e-05
3.27245e-05
3.30078e-05
3.34868e-05
3.40789e-05
3.4716e-05
3.53436e-05
3.59198e-05
3.64198e-05
3.68354e-05
3.71711e-05
3.74376e-05
3.76431e-05
3.77928e-05
3.79196e-05
3.82728e-05
3.67186e-05
3.6507e-05
3.63514e-05
3.62081e-05
3.60436e-05
3.57968e-05
3.54817e-05
3.51215e-05
3.46993e-05
3.42077e-05
3.36743e-05
3.31369e-05
3.26258e-05
3.21867e-05
3.19068e-05
3.18927e-05
3.21528e-05
3.25973e-05
3.31366e-05
3.37027e-05
3.42462e-05
3.47375e-05
3.51647e-05
3.55268e-05
3.58261e-05
3.60646e-05
3.62438e-05
3.63693e-05
3.64729e-05
3.67661e-05
3.5581e-05
3.52512e-05
3.51497e-05
3.50296e-05
3.48683e-05
3.46461e-05
3.43886e-05
3.40867e-05
3.37248e-05
3.33108e-05
3.28642e-05
3.24004e-05
3.1942e-05
3.15402e-05
3.12852e-05
3.12793e-05
3.15248e-05
3.19257e-05
3.23939e-05
3.2871e-05
3.33239e-05
3.37373e-05
3.41061e-05
3.44268e-05
3.46945e-05
3.49052e-05
3.50604e-05
3.51689e-05
3.52591e-05
3.55021e-05
3.44063e-05
3.4174e-05
3.41115e-05
3.40187e-05
3.38829e-05
3.37129e-05
3.35039e-05
3.32422e-05
3.29305e-05
3.25787e-05
3.21914e-05
3.17781e-05
3.13697e-05
3.10204e-05
3.0805e-05
3.08051e-05
3.10233e-05
3.13695e-05
3.17659e-05
3.21691e-05
3.2558e-05
3.29213e-05
3.32495e-05
3.35329e-05
3.37642e-05
3.39423e-05
3.40733e-05
3.4168e-05
3.42471e-05
3.44418e-05
3.34695e-05
3.33771e-05
3.32996e-05
3.32209e-05
3.31097e-05
3.29641e-05
3.27711e-05
3.25348e-05
3.22651e-05
3.1963e-05
3.16262e-05
3.12679e-05
3.09205e-05
3.06286e-05
3.04479e-05
3.0444e-05
3.06253e-05
3.09199e-05
3.12602e-05
3.1613e-05
3.19587e-05
3.22804e-05
3.25641e-05
3.28004e-05
3.29868e-05
3.31296e-05
3.3239e-05
3.33237e-05
3.33949e-05
3.35489e-05
3.28118e-05
3.26911e-05
3.26262e-05
3.2553e-05
3.24516e-05
3.2313e-05
3.2141e-05
3.19431e-05
3.17204e-05
3.1469e-05
3.11902e-05
3.08973e-05
3.06133e-05
3.03678e-05
3.02052e-05
3.0191e-05
3.03354e-05
3.05809e-05
3.08736e-05
3.11815e-05
3.14816e-05
3.17541e-05
3.19859e-05
3.21727e-05
3.23192e-05
3.24355e-05
3.25324e-05
3.26129e-05
3.26795e-05
3.28008e-05
3.21818e-05
3.20449e-05
3.20143e-05
3.19525e-05
3.18624e-05
3.17488e-05
3.16185e-05
3.14662e-05
3.12863e-05
3.10795e-05
3.08527e-05
3.06162e-05
3.03814e-05
3.01674e-05
3.00163e-05
2.99956e-05
3.0109e-05
3.03109e-05
3.05611e-05
3.08257e-05
3.10788e-05
3.13035e-05
3.14913e-05
3.16417e-05
3.17633e-05
3.18661e-05
3.19558e-05
3.20303e-05
3.20875e-05
3.21758e-05
3.15995e-05
3.15416e-05
3.15205e-05
3.14707e-05
3.13977e-05
3.13135e-05
3.12141e-05
3.1089e-05
3.09352e-05
3.07584e-05
3.0568e-05
3.03701e-05
3.01692e-05
2.9981e-05
2.98442e-05
2.9825e-05
2.99264e-05
3.00995e-05
3.03134e-05
3.05381e-05
3.07498e-05
3.09357e-05
3.10917e-05
3.122e-05