/*--------------------------------*- C++ -*----------------------------------*\
| =========                 |                                                 |
| \\      /  F ield         | OpenFOAM: The Open Source CFD Toolbox           |
|  \\    /   O peration     | Version:  2312                                  |
|   \\  /    A nd           | Website:  www.openfoam.com                      |
|    \\/     M anipulation  |                                                 |
\*---------------------------------------------------------------------------*/
FoamFile
{
    version     2.0;
    format      ascii;
    arch        "LSB;label=32;scalar=64";
    class       volScalarField;
    location    "0.54522";
    object      nut;
}
// * * * * * * * * * * * * * * * * * * * * * * * * * * * * * * * * * * * * * //

dimensions      [0 2 -1 0 0 0 0];

internalField   nonuniform List<scalar> 
90000
(
6.00881e-06
6.00891e-06
6.00895e-06
6.00896e-06
6.00898e-06
6.00898e-06
6.00898e-06
6.00897e-06
6.00897e-06
6.00896e-06
6.00897e-06
6.00897e-06
6.00898e-06
6.00898e-06
6.00897e-06
6.00898e-06
6.009e-06
6.00902e-06
6.00903e-06
6.00903e-06
6.009e-06
6.00896e-06
6.00895e-06
6.00899e-06
6.00904e-06
6.00907e-06
6.00907e-06
6.00905e-06
6.00901e-06
6.00899e-06
6.0089e-06
6.01248e-06
6.01263e-06
6.01264e-06
6.01264e-06
6.01264e-06
6.01265e-06
6.01267e-06
6.01268e-06
6.01269e-06
6.0127e-06
6.0127e-06
6.01271e-06
6.0127e-06
6.01271e-06
6.01271e-06
6.0127e-06
6.0127e-06
6.01268e-06
6.01267e-06
6.01267e-06
6.01267e-06
6.01268e-06
6.01267e-06
6.01265e-06
6.01263e-06
6.01265e-06
6.01271e-06
6.01257e-06
6.00935e-06
6.00895e-06
6.01271e-06
6.01287e-06
6.01287e-06
6.01286e-06
6.01286e-06
6.01286e-06
6.01287e-06
6.01288e-06
6.01289e-06
6.01288e-06
6.01287e-06
6.01286e-06
6.01285e-06
6.01285e-06
6.01284e-06
6.01283e-06
6.01282e-06
6.01284e-06
6.01286e-06
6.01288e-06
6.01289e-06
6.01289e-06
6.0129e-06
6.01292e-06
6.01295e-06
6.01296e-06
6.01296e-06
6.01273e-06
6.00919e-06
6.00901e-06
6.01279e-06
6.01295e-06
6.01295e-06
6.01295e-06
6.01294e-06
6.01293e-06
6.01292e-06
6.01292e-06
6.01291e-06
6.0129e-06
6.01287e-06
6.01285e-06
6.01283e-06
6.01281e-06
6.0128e-06
6.0128e-06
6.01283e-06
6.01286e-06
6.01288e-06
6.0129e-06
6.01291e-06
6.01293e-06
6.01298e-06
6.01302e-06
6.01304e-06
6.01302e-06
6.01298e-06
6.01277e-06
6.00903e-06
6.00907e-06
6.01285e-06
6.01302e-06
6.01302e-06
6.01302e-06
6.01301e-06
6.01299e-06
6.01297e-06
6.01295e-06
6.01292e-06
6.01289e-06
6.01286e-06
6.01283e-06
6.01279e-06
6.01277e-06
6.01277e-06
6.01279e-06
6.01282e-06
6.01285e-06
6.01287e-06
6.01289e-06
6.01291e-06
6.01296e-06
6.013e-06
6.01303e-06
6.01302e-06
6.01298e-06
6.01291e-06
6.0128e-06
6.00905e-06
6.00913e-06
6.01291e-06
6.01307e-06
6.01307e-06
6.01306e-06
6.01305e-06
6.01303e-06
6.013e-06
6.01296e-06
6.01292e-06
6.01288e-06
6.01284e-06
6.01281e-06
6.01278e-06
6.01277e-06
6.01278e-06
6.01279e-06
6.01282e-06
6.01284e-06
6.01287e-06
6.0129e-06
6.01294e-06
6.01298e-06
6.01299e-06
6.01298e-06
6.01297e-06
6.01298e-06
6.013e-06
6.01289e-06
6.00912e-06
6.00917e-06
6.01294e-06
6.01309e-06
6.01308e-06
6.01307e-06
6.01306e-06
6.01304e-06
6.01301e-06
6.01297e-06
6.01292e-06
6.01286e-06
6.01283e-06
6.01281e-06
6.0128e-06
6.0128e-06
6.0128e-06
6.0128e-06
6.01281e-06
6.01285e-06
6.0129e-06
6.01294e-06
6.01297e-06
6.01298e-06
6.01297e-06
6.01297e-06
6.01301e-06
6.01307e-06
6.01311e-06
6.01298e-06
6.0092e-06
6.0092e-06
6.01296e-06
6.0131e-06
6.01309e-06
6.01307e-06
6.01306e-06
6.01304e-06
6.01302e-06
6.01299e-06
6.01294e-06
6.01288e-06
6.01284e-06
6.01283e-06
6.01283e-06
6.01283e-06
6.01283e-06
6.01283e-06
6.01285e-06
6.0129e-06
6.01295e-06
6.01298e-06
6.01299e-06
6.01299e-06
6.01299e-06
6.01304e-06
6.0131e-06
6.01316e-06
6.0132e-06
6.01305e-06
6.00928e-06
6.00922e-06
6.01297e-06
6.01311e-06
6.01309e-06
6.01307e-06
6.01306e-06
6.01305e-06
6.01303e-06
6.01301e-06
6.01298e-06
6.01294e-06
6.0129e-06
6.01288e-06
6.01287e-06
6.01288e-06
6.0129e-06
6.01292e-06
6.01295e-06
6.01298e-06
6.01301e-06
6.01301e-06
6.01301e-06
6.01301e-06
6.01305e-06
6.01311e-06
6.01317e-06
6.01323e-06
6.01327e-06
6.01311e-06
6.00937e-06
6.00925e-06
6.01299e-06
6.01313e-06
6.01311e-06
6.01309e-06
6.01307e-06
6.01306e-06
6.01305e-06
6.01304e-06
6.01302e-06
6.013e-06
6.01298e-06
6.01294e-06
6.01292e-06
6.01292e-06
6.01296e-06
6.01301e-06
6.01305e-06
6.01307e-06
6.01307e-06
6.01305e-06
6.01304e-06
6.01305e-06
6.0131e-06
6.01315e-06
6.01322e-06
6.01328e-06
6.01331e-06
6.01316e-06
6.00942e-06
6.00931e-06
6.01303e-06
6.01318e-06
6.01316e-06
6.01314e-06
6.01311e-06
6.01309e-06
6.01307e-06
6.01306e-06
6.01306e-06
6.01305e-06
6.01303e-06
6.013e-06
6.01296e-06
6.01294e-06
6.01298e-06
6.01304e-06
6.01308e-06
6.0131e-06
6.0131e-06
6.01308e-06
6.01306e-06
6.01308e-06
6.01313e-06
6.01319e-06
6.01325e-06
6.0133e-06
6.01333e-06
6.01317e-06
6.00942e-06
6.0094e-06
6.01311e-06
6.01326e-06
6.01324e-06
6.01322e-06
6.0132e-06
6.01316e-06
6.01313e-06
6.0131e-06
6.01308e-06
6.01307e-06
6.01305e-06
6.01302e-06
6.01297e-06
6.01291e-06
6.01293e-06
6.01298e-06
6.01303e-06
6.01306e-06
6.01306e-06
6.01306e-06
6.01307e-06
6.0131e-06
6.01316e-06
6.01321e-06
6.01327e-06
6.0133e-06
6.01331e-06
6.01313e-06
6.0094e-06
6.0095e-06
6.01322e-06
6.01337e-06
6.01336e-06
6.01334e-06
6.01332e-06
6.01328e-06
6.01324e-06
6.01318e-06
6.01313e-06
6.01308e-06
6.01305e-06
6.01302e-06
6.01297e-06
6.0129e-06
6.01288e-06
6.01291e-06
6.01294e-06
6.01297e-06
6.013e-06
6.01303e-06
6.01309e-06
6.01314e-06
6.0132e-06
6.01325e-06
6.01328e-06
6.0133e-06
6.01329e-06
6.01311e-06
6.00941e-06
6.00963e-06
6.01335e-06
6.01349e-06
6.01348e-06
6.01346e-06
6.01344e-06
6.01339e-06
6.01334e-06
6.01326e-06
6.01318e-06
6.0131e-06
6.01304e-06
6.013e-06
6.01295e-06
6.01291e-06
6.01288e-06
6.01289e-06
6.01291e-06
6.01294e-06
6.01301e-06
6.01309e-06
6.01316e-06
6.01323e-06
6.01328e-06
6.01331e-06
6.01332e-06
6.01333e-06
6.01332e-06
6.01315e-06
6.00951e-06
6.00979e-06
6.01346e-06
6.01361e-06
6.0136e-06
6.01357e-06
6.01353e-06
6.01347e-06
6.01341e-06
6.01332e-06
6.01323e-06
6.01314e-06
6.01305e-06
6.01299e-06
6.01295e-06
6.01292e-06
6.01292e-06
6.01293e-06
6.01296e-06
6.01303e-06
6.01312e-06
6.01321e-06
6.01329e-06
6.01335e-06
6.01339e-06
6.01342e-06
6.01342e-06
6.01344e-06
6.01345e-06
6.01331e-06
6.00969e-06
6.00995e-06
6.01359e-06
6.01374e-06
6.01371e-06
6.01367e-06
6.01361e-06
6.01354e-06
6.01347e-06
6.01339e-06
6.0133e-06
6.01321e-06
6.0131e-06
6.01301e-06
6.01297e-06
6.01295e-06
6.01296e-06
6.013e-06
6.01307e-06
6.01316e-06
6.01327e-06
6.01336e-06
6.01344e-06
6.0135e-06
6.01354e-06
6.01356e-06
6.01359e-06
6.01363e-06
6.01368e-06
6.01357e-06
6.00993e-06
6.01014e-06
6.01377e-06
6.01391e-06
6.01387e-06
6.01381e-06
6.01373e-06
6.01366e-06
6.01358e-06
6.0135e-06
6.01341e-06
6.0133e-06
6.01318e-06
6.01308e-06
6.01301e-06
6.01298e-06
6.013e-06
6.01307e-06
6.01318e-06
6.01329e-06
6.0134e-06
6.0135e-06
6.01358e-06
6.01364e-06
6.01369e-06
6.01374e-06
6.01381e-06
6.01388e-06
6.01396e-06
6.01384e-06
6.01016e-06
6.01037e-06
6.014e-06
6.01413e-06
6.01409e-06
6.01402e-06
6.01395e-06
6.01386e-06
6.01377e-06
6.01368e-06
6.01356e-06
6.01343e-06
6.01329e-06
6.01316e-06
6.01306e-06
6.01299e-06
6.01301e-06
6.01312e-06
6.01325e-06
6.01339e-06
6.01351e-06
6.01362e-06
6.01371e-06
6.01379e-06
6.01388e-06
6.01397e-06
6.01407e-06
6.01417e-06
6.01423e-06
6.01408e-06
6.01039e-06
6.01067e-06
6.0143e-06
6.01444e-06
6.01439e-06
6.01433e-06
6.01425e-06
6.01415e-06
6.01404e-06
6.0139e-06
6.01375e-06
6.01358e-06
6.01341e-06
6.01325e-06
6.0131e-06
6.01299e-06
6.01301e-06
6.01314e-06
6.01331e-06
6.01348e-06
6.01363e-06
6.01376e-06
6.01388e-06
6.014e-06
6.01412e-06
6.01425e-06
6.01438e-06
6.01446e-06
6.0145e-06
6.01433e-06
6.01066e-06
6.01107e-06
6.01469e-06
6.01483e-06
6.01478e-06
6.01471e-06
6.01461e-06
6.01449e-06
6.01435e-06
6.01417e-06
6.01398e-06
6.01377e-06
6.01356e-06
6.01335e-06
6.01315e-06
6.01301e-06
6.01302e-06
6.01319e-06
6.0134e-06
6.0136e-06
6.01379e-06
6.01396e-06
6.01413e-06
6.0143e-06
6.01447e-06
6.01462e-06
6.01474e-06
6.0148e-06
6.01483e-06
6.01467e-06
6.01104e-06
6.01157e-06
6.01517e-06
6.0153e-06
6.01524e-06
6.01515e-06
6.01504e-06
6.01489e-06
6.01471e-06
6.0145e-06
6.01427e-06
6.01402e-06
6.01376e-06
6.0135e-06
6.01325e-06
6.01307e-06
6.01309e-06
6.01329e-06
6.01354e-06
6.01379e-06
6.01403e-06
6.01427e-06
6.01449e-06
6.01471e-06
6.01491e-06
6.01507e-06
6.01517e-06
6.01524e-06
6.01529e-06
6.01516e-06
6.01156e-06
6.01217e-06
6.01575e-06
6.01587e-06
6.0158e-06
6.01569e-06
6.01555e-06
6.01537e-06
6.01516e-06
6.01491e-06
6.01463e-06
6.01434e-06
6.01402e-06
6.01371e-06
6.01342e-06
6.0132e-06
6.01322e-06
6.01345e-06
6.01375e-06
6.01406e-06
6.01436e-06
6.01466e-06
6.01494e-06
6.0152e-06
6.01542e-06
6.01559e-06
6.01571e-06
6.01581e-06
6.01589e-06
6.01579e-06
6.01219e-06
6.01289e-06
6.01645e-06
6.01657e-06
6.01648e-06
6.01635e-06
6.01618e-06
6.01596e-06
6.01571e-06
6.01541e-06
6.01509e-06
6.01474e-06
6.01437e-06
6.01399e-06
6.01363e-06
6.01337e-06
6.01338e-06
6.01364e-06
6.014e-06
6.01438e-06
6.01475e-06
6.01512e-06
6.01545e-06
6.01575e-06
6.016e-06
6.01621e-06
6.01637e-06
6.01651e-06
6.01662e-06
6.01653e-06
6.01294e-06
6.01376e-06
6.01733e-06
6.01744e-06
6.01733e-06
6.01716e-06
6.01695e-06
6.01669e-06
6.01638e-06
6.01603e-06
6.01564e-06
6.01521e-06
6.01477e-06
6.01432e-06
6.01389e-06
6.01357e-06
6.01358e-06
6.01389e-06
6.01431e-06
6.01477e-06
6.01522e-06
6.01565e-06
6.01605e-06
6.01641e-06
6.01671e-06
6.01696e-06
6.01718e-06
6.01736e-06
6.01749e-06
6.01741e-06
6.01381e-06
6.01484e-06
6.01842e-06
6.0185e-06
6.01836e-06
6.01816e-06
6.01789e-06
6.01756e-06
6.01719e-06
6.01676e-06
6.01629e-06
6.01579e-06
6.01526e-06
6.01472e-06
6.01421e-06
6.01383e-06
6.01384e-06
6.0142e-06
6.01471e-06
6.01525e-06
6.0158e-06
6.01631e-06
6.01679e-06
6.01721e-06
6.01758e-06
6.0179e-06
6.01816e-06
6.01838e-06
6.01854e-06
6.01847e-06
6.0149e-06
6.01617e-06
6.01974e-06
6.0198e-06
6.01961e-06
6.01936e-06
6.01903e-06
6.01863e-06
6.01817e-06
6.01766e-06
6.01709e-06
6.01649e-06
6.01586e-06
6.01522e-06
6.01461e-06
6.01418e-06
6.01419e-06
6.01462e-06
6.01522e-06
6.01587e-06
6.01651e-06
6.01713e-06
6.0177e-06
6.01821e-06
6.01865e-06
6.01904e-06
6.01937e-06
6.01964e-06
6.01983e-06
6.01978e-06
6.01624e-06
6.01777e-06
6.02133e-06
6.02135e-06
6.02112e-06
6.0208e-06
6.02041e-06
6.01993e-06
6.01938e-06
6.01876e-06
6.01809e-06
6.01737e-06
6.01661e-06
6.01584e-06
6.01513e-06
6.01463e-06
6.01464e-06
6.01514e-06
6.01585e-06
6.01663e-06
6.0174e-06
6.01814e-06
6.01882e-06
6.01942e-06
6.01995e-06
6.02042e-06
6.02082e-06
6.02114e-06
6.02137e-06
6.02135e-06
6.01782e-06
6.01969e-06
6.02322e-06
6.0232e-06
6.02293e-06
6.02255e-06
6.02208e-06
6.02151e-06
6.02086e-06
6.02013e-06
6.01932e-06
6.01846e-06
6.01755e-06
6.01664e-06
6.0158e-06
6.01521e-06
6.01521e-06
6.01579e-06
6.01664e-06
6.01756e-06
6.01849e-06
6.01937e-06
6.02016e-06
6.02088e-06
6.02151e-06
6.02208e-06
6.02255e-06
6.02293e-06
6.0232e-06
6.0232e-06
6.01968e-06
6.02199e-06
6.02547e-06
6.02542e-06
6.02509e-06
6.02465e-06
6.0241e-06
6.02344e-06
6.02267e-06
6.02181e-06
6.02085e-06
6.01981e-06
6.01872e-06
6.01763e-06
6.01664e-06
6.01596e-06
6.01595e-06
6.01662e-06
6.01762e-06
6.01873e-06
6.01983e-06
6.02086e-06
6.02181e-06
6.02266e-06
6.02342e-06
6.0241e-06
6.02466e-06
6.02509e-06
6.02539e-06
6.02541e-06
6.02195e-06
6.02472e-06
6.02813e-06
6.02805e-06
6.02768e-06
6.02717e-06
6.02654e-06
6.02578e-06
6.02488e-06
6.02386e-06
6.02272e-06
6.02148e-06
6.02018e-06
6.01888e-06
6.01772e-06
6.01693e-06
6.01692e-06
6.0177e-06
6.01887e-06
6.02018e-06
6.02147e-06
6.02269e-06
6.02382e-06
6.02485e-06
6.02577e-06
6.02656e-06
6.02721e-06
6.0277e-06
6.02805e-06
6.02811e-06
6.02473e-06
6.02798e-06
6.03132e-06
6.03121e-06
6.03079e-06
6.03022e-06
6.02949e-06
6.0286e-06
6.02755e-06
6.02635e-06
6.025e-06
6.02353e-06
6.02199e-06
6.02046e-06
6.01911e-06
6.01821e-06
6.01821e-06
6.01911e-06
6.02047e-06
6.02199e-06
6.02351e-06
6.02495e-06
6.0263e-06
6.02753e-06
6.0286e-06
6.02951e-06
6.03025e-06
6.03081e-06
6.03123e-06
6.03137e-06
6.02803e-06
6.03186e-06
6.03515e-06
6.03501e-06
6.03453e-06
6.03387e-06
6.03302e-06
6.03199e-06
6.03076e-06
6.02935e-06
6.02776e-06
6.02604e-06
6.02425e-06
6.02248e-06
6.02092e-06
6.01991e-06
6.01992e-06
6.02095e-06
6.02251e-06
6.02426e-06
6.02603e-06
6.02773e-06
6.02931e-06
6.03074e-06
6.03198e-06
6.03302e-06
6.03385e-06
6.03452e-06
6.03504e-06
6.03523e-06
6.03191e-06
6.0365e-06
6.03973e-06
6.03955e-06
6.039e-06
6.03823e-06
6.03724e-06
6.03604e-06
6.03461e-06
6.03298e-06
6.03115e-06
6.02916e-06
6.02709e-06
6.02505e-06
6.02328e-06
6.02214e-06
6.02216e-06
6.02332e-06
6.02508e-06
6.02708e-06
6.02914e-06
6.03113e-06
6.03297e-06
6.03462e-06
6.03604e-06
6.03722e-06
6.03819e-06
6.03897e-06
6.03958e-06
6.03979e-06
6.03653e-06
6.042e-06
6.04517e-06
6.04493e-06
6.04429e-06
6.04341e-06
6.04228e-06
6.0409e-06
6.03928e-06
6.03742e-06
6.03533e-06
6.03305e-06
6.03067e-06
6.02834e-06
6.02633e-06
6.02504e-06
6.02505e-06
6.02633e-06
6.02831e-06
6.0306e-06
6.03298e-06
6.03529e-06
6.03742e-06
6.03931e-06
6.04093e-06
6.04227e-06
6.0434e-06
6.04429e-06
6.04495e-06
6.04518e-06
6.04204e-06
6.04848e-06
6.05156e-06
6.05126e-06
6.05054e-06
6.04955e-06
6.04828e-06
6.04675e-06
6.04493e-06
6.04283e-06
6.04046e-06
6.03786e-06
6.03514e-06
6.0325e-06
6.03023e-06
6.02878e-06
6.02877e-06
6.0302e-06
6.03244e-06
6.03506e-06
6.03779e-06
6.04043e-06
6.04283e-06
6.04497e-06
6.04678e-06
6.0483e-06
6.04957e-06
6.05055e-06
6.05123e-06
6.0515e-06
6.04848e-06
6.05606e-06
6.05901e-06
6.05867e-06
6.05789e-06
6.05682e-06
6.05545e-06
6.05377e-06
6.05176e-06
6.04941e-06
6.04673e-06
6.04379e-06
6.04072e-06
6.03775e-06
6.03522e-06
6.03362e-06
6.03363e-06
6.03523e-06
6.03775e-06
6.0407e-06
6.04376e-06
6.04672e-06
6.04939e-06
6.05176e-06
6.05377e-06
6.05546e-06
6.05685e-06
6.05788e-06
6.05859e-06
6.05891e-06
6.05597e-06
6.06486e-06
6.06766e-06
6.06731e-06
6.0665e-06
6.06539e-06
6.06395e-06
6.06214e-06
6.05995e-06
6.05735e-06
6.05438e-06
6.0511e-06
6.0477e-06
6.04443e-06
6.04167e-06
6.03993e-06
6.03995e-06
6.0417e-06
6.04448e-06
6.04773e-06
6.05111e-06
6.05439e-06
6.05732e-06
6.05991e-06
6.06212e-06
6.06397e-06
6.06544e-06
6.0665e-06
6.06725e-06
6.06756e-06
6.06474e-06
6.075e-06
6.07765e-06
6.07731e-06
6.07653e-06
6.07543e-06
6.07395e-06
6.07206e-06
6.06972e-06
6.06692e-06
6.0637e-06
6.06016e-06
6.05648e-06
6.05293e-06
6.04994e-06
6.04804e-06
6.04804e-06
6.04993e-06
6.05294e-06
6.0565e-06
6.06019e-06
6.06376e-06
6.06692e-06
6.06971e-06
6.07208e-06
6.07401e-06
6.0755e-06
6.07658e-06
6.07733e-06
6.07761e-06
6.07496e-06
6.0866e-06
6.08909e-06
6.08882e-06
6.08813e-06
6.0871e-06
6.08566e-06
6.08375e-06
6.08134e-06
6.07843e-06
6.07507e-06
6.07134e-06
6.06744e-06
6.06364e-06
6.06041e-06
6.05835e-06
6.05834e-06
6.06036e-06
6.0636e-06
6.06742e-06
6.07135e-06
6.07512e-06
6.07843e-06
6.08137e-06
6.08382e-06
6.08572e-06
6.08715e-06
6.0882e-06
6.08888e-06
6.08913e-06
6.08665e-06
6.09974e-06
6.10212e-06
6.10199e-06
6.10145e-06
6.10058e-06
6.09927e-06
6.09747e-06
6.09514e-06
6.09227e-06
6.08889e-06
6.08506e-06
6.081e-06
6.07702e-06
6.07362e-06
6.07143e-06
6.07141e-06
6.07354e-06
6.07694e-06
6.08095e-06
6.085e-06
6.08887e-06
6.09221e-06
6.09517e-06
6.09753e-06
6.09928e-06
6.10058e-06
6.10149e-06
6.10203e-06
6.10221e-06
6.09984e-06
6.11454e-06
6.11686e-06
6.11691e-06
6.11662e-06
6.11603e-06
6.11504e-06
6.11356e-06
6.11151e-06
6.10884e-06
6.10559e-06
6.10183e-06
6.09778e-06
6.09374e-06
6.09025e-06
6.08797e-06
6.08794e-06
6.09016e-06
6.09366e-06
6.09773e-06
6.10175e-06
6.1055e-06
6.10871e-06
6.11146e-06
6.11354e-06
6.11499e-06
6.11601e-06
6.11662e-06
6.1169e-06
6.11695e-06
6.11463e-06
6.13115e-06
6.13348e-06
6.13372e-06
6.13379e-06
6.13368e-06
6.13326e-06
6.13233e-06
6.13079e-06
6.12857e-06
6.12573e-06
6.1223e-06
6.11846e-06
6.11454e-06
6.11109e-06
6.10884e-06
6.10884e-06
6.11108e-06
6.11451e-06
6.11841e-06
6.12218e-06
6.12562e-06
6.12849e-06
6.13073e-06
6.13227e-06
6.13319e-06
6.13367e-06
6.13378e-06
6.13373e-06
6.13353e-06
6.1312e-06
6.14968e-06
6.15198e-06
6.15255e-06
6.15318e-06
6.15375e-06
6.15413e-06
6.15408e-06
6.15343e-06
6.15207e-06
6.14995e-06
6.14717e-06
6.14382e-06
6.14032e-06
6.13713e-06
6.135e-06
6.13495e-06
6.13709e-06
6.14031e-06
6.14383e-06
6.14713e-06
6.14992e-06
6.15206e-06
6.15341e-06
6.15405e-06
6.1541e-06
6.15375e-06
6.15318e-06
6.15262e-06
6.15201e-06
6.14971e-06
6.16991e-06
6.17231e-06
6.17345e-06
6.1749e-06
6.17649e-06
6.17803e-06
6.17926e-06
6.17995e-06
6.17989e-06
6.179e-06
6.17736e-06
6.17494e-06
6.17212e-06
6.16936e-06
6.16749e-06
6.16747e-06
6.16938e-06
6.17214e-06
6.17493e-06
6.17736e-06
6.17901e-06
6.17988e-06
6.1799e-06
6.1792e-06
6.17798e-06
6.17646e-06
6.17488e-06
6.17348e-06
6.1723e-06
6.16992e-06
6.19148e-06
6.1942e-06
6.19624e-06
6.19895e-06
6.20212e-06
6.20534e-06
6.20838e-06
6.211e-06
6.21286e-06
6.21393e-06
6.21405e-06
6.21322e-06
6.21166e-06
6.20986e-06
6.20861e-06
6.20859e-06
6.20985e-06
6.21168e-06
6.21319e-06
6.21402e-06
6.21396e-06
6.21286e-06
6.21098e-06
6.20832e-06
6.2053e-06
6.20214e-06
6.19902e-06
6.1963e-06
6.19417e-06
6.19146e-06
6.21428e-06
6.21789e-06
6.22138e-06
6.22598e-06
6.23151e-06
6.23732e-06
6.24332e-06
6.24904e-06
6.25408e-06
6.25893e-06
6.26293e-06
6.26628e-06
6.2698e-06
6.27286e-06
6.27607e-06
6.27609e-06
6.2729e-06
6.26979e-06
6.26626e-06
6.26294e-06
6.25895e-06
6.25408e-06
6.24904e-06
6.2433e-06
6.23729e-06
6.23152e-06
6.22602e-06
6.22141e-06
6.21794e-06
6.21434e-06
6.24169e-06
6.24702e-06
6.25289e-06
6.26089e-06
6.27033e-06
6.2816e-06
6.29408e-06
6.30872e-06
6.32483e-06
6.34617e-06
6.37349e-06
6.40852e-06
6.45561e-06
6.50916e-06
6.56409e-06
6.564e-06
6.50922e-06
6.45566e-06
6.40864e-06
6.37372e-06
6.34637e-06
6.32494e-06
6.30873e-06
6.29406e-06
6.28159e-06
6.2703e-06
6.26086e-06
6.25281e-06
6.24694e-06
6.24175e-06
6.28207e-06
6.29152e-06
6.30539e-06
6.32423e-06
6.34828e-06
6.38204e-06
6.42813e-06
6.4951e-06
6.58764e-06
6.72991e-06
6.94587e-06
7.24984e-06
7.61993e-06
8.02815e-06
8.42296e-06
8.42269e-06
8.02841e-06
7.62111e-06
7.25204e-06
6.94832e-06
6.73174e-06
6.58888e-06
6.49586e-06
6.42845e-06
6.38202e-06
6.34808e-06
6.32401e-06
6.30517e-06
6.29117e-06
6.28161e-06
6.36418e-06
6.38938e-06
6.44533e-06
6.52128e-06
6.62938e-06
6.79179e-06
7.04463e-06
7.4194e-06
7.96078e-06
8.68693e-06
9.72805e-06
1.10664e-05
1.25078e-05
1.38511e-05
1.50193e-05
1.50194e-05
1.38524e-05
1.25147e-05
1.1078e-05
9.74049e-06
8.69697e-06
7.96805e-06
7.42452e-06
7.04753e-06
6.79279e-06
6.62893e-06
6.52035e-06
6.44421e-06
6.38735e-06
6.36172e-06
6.75518e-06
6.83135e-06
7.07933e-06
7.37734e-06
7.84855e-06
8.52e-06
9.56004e-06
1.09952e-05
1.2828e-05
1.49494e-05
1.77391e-05
2.09683e-05
2.41704e-05
2.69438e-05
2.90278e-05
2.90299e-05
2.69506e-05
2.41897e-05
2.09991e-05
1.77745e-05
1.49794e-05
1.28528e-05
1.10149e-05
9.57429e-06
8.52918e-06
7.8508e-06
7.37615e-06
7.07671e-06
6.82377e-06
6.74629e-06
9.57219e-06
1.06215e-05
1.21862e-05
1.40227e-05
1.65327e-05
2.01544e-05
2.39668e-05
2.81384e-05
3.24385e-05
3.68028e-05
4.11997e-05
4.51206e-05
4.85774e-05
5.12904e-05
5.31272e-05
5.31313e-05
5.13059e-05
4.86085e-05
4.51705e-05
4.12631e-05
3.68674e-05
3.2502e-05
2.81958e-05
2.40168e-05
2.0194e-05
1.65701e-05
1.40536e-05
1.21976e-05
1.06286e-05
9.54868e-06
1.19341e-05
1.31541e-05
1.54012e-05
1.79762e-05
2.1146e-05
2.50726e-05
2.87485e-05
3.25209e-05
3.67715e-05
4.20397e-05
4.76733e-05
5.27394e-05
5.66419e-05
5.90859e-05
6.08844e-05
6.08996e-05
5.91041e-05
5.66832e-05
5.28068e-05
4.77629e-05
4.21291e-05
3.68488e-05
3.25832e-05
2.88124e-05
2.51264e-05
2.11722e-05
1.80039e-05
1.5426e-05
1.31937e-05
1.1884e-05
1.3147e-05
1.43333e-05
1.69596e-05
2.02168e-05
2.39525e-05
2.79223e-05
3.19737e-05
3.58625e-05
3.96732e-05
4.37636e-05
4.80412e-05
5.21441e-05
5.56071e-05
5.79657e-05
5.97119e-05
5.97244e-05
5.79857e-05
5.56539e-05
5.22173e-05
4.81433e-05
4.38726e-05
3.97778e-05
3.595e-05
3.20535e-05
2.80094e-05
2.40073e-05
2.02809e-05
1.69992e-05
1.43596e-05
1.31404e-05
1.30735e-05
1.39466e-05
1.63355e-05
2.00678e-05
2.43315e-05
2.87e-05
3.28002e-05
3.66437e-05
4.03303e-05
4.39695e-05
4.77882e-05
5.16149e-05
5.48621e-05
5.70679e-05
5.87306e-05
5.87468e-05
5.70982e-05
5.49208e-05
5.17085e-05
4.7892e-05
4.40852e-05
4.0445e-05
3.67506e-05
3.28864e-05
2.87798e-05
2.44081e-05
2.01265e-05
1.6348e-05
1.39451e-05
1.30945e-05
1.2934e-05
1.33794e-05
1.47271e-05
1.73008e-05
2.13489e-05
2.63076e-05
3.13414e-05
3.58492e-05
3.97188e-05
4.3222e-05
4.6703e-05
4.98713e-05
5.26583e-05
5.4446e-05
5.57431e-05
5.5764e-05
5.44858e-05
5.27251e-05
4.99659e-05
4.68144e-05
4.33326e-05
3.98282e-05
3.59577e-05
3.14521e-05
2.6425e-05
2.14508e-05
1.73743e-05
1.47443e-05
1.33758e-05
1.29251e-05
1.27295e-05
1.29745e-05
1.35521e-05
1.47427e-05
1.69745e-05
2.04719e-05
2.54758e-05
3.09799e-05
3.59536e-05
4.04049e-05
4.45954e-05
4.80854e-05
5.08394e-05
5.23565e-05
5.3251e-05
5.32716e-05
5.23924e-05
5.08959e-05
4.81731e-05
4.46969e-05
4.05129e-05
3.60577e-05
3.1111e-05
2.56027e-05
2.05603e-05
1.70385e-05
1.47852e-05
1.35676e-05
1.29843e-05
1.27142e-05
1.2461e-05
1.25945e-05
1.28198e-05
1.33013e-05
1.41498e-05
1.56831e-05
1.84125e-05
2.25326e-05
2.75736e-05
3.32472e-05
3.90176e-05
4.40104e-05
4.77747e-05
5.00486e-05
5.1303e-05
5.13237e-05
5.00765e-05
4.78227e-05
4.40855e-05
3.91107e-05
3.3351e-05
2.7687e-05
2.2644e-05
1.84996e-05
1.57386e-05
1.41838e-05
1.33077e-05
1.28354e-05
1.26121e-05
1.24553e-05
1.21909e-05
1.22439e-05
1.2367e-05
1.25743e-05
1.28938e-05
1.34173e-05
1.43452e-05
1.60343e-05
1.88088e-05
2.29577e-05
2.8846e-05
3.54192e-05
4.09654e-05
4.48434e-05
4.72053e-05
4.72226e-05
4.48681e-05
4.10052e-05
3.54735e-05
2.8921e-05
2.30362e-05
1.88799e-05
1.60861e-05
1.43741e-05
1.34335e-05
1.29116e-05
1.25864e-05
1.23662e-05
1.22622e-05
1.21937e-05
1.19051e-05
1.19337e-05
1.19936e-05
1.21131e-05
1.22816e-05
1.25052e-05
1.28195e-05
1.33132e-05
1.41745e-05
1.57678e-05
1.87574e-05
2.361e-05
2.93905e-05
3.46537e-05
3.85614e-05
3.85766e-05
3.46612e-05
2.94061e-05
2.36412e-05
1.8791e-05
1.57979e-05
1.42022e-05
1.33303e-05
1.28197e-05
1.25075e-05
1.22916e-05
1.21277e-05
1.1995e-05
1.19305e-05
1.19192e-05
1.16211e-05
1.16e-05
1.16335e-05
1.17291e-05
1.18407e-05
1.19749e-05
1.2127e-05
1.23121e-05
1.25774e-05
1.30013e-05
1.3831e-05
1.55234e-05
1.83133e-05
2.20509e-05
2.5722e-05
2.57266e-05
2.20501e-05
1.83247e-05
1.5538e-05
1.38459e-05
1.30063e-05
1.25768e-05
1.23228e-05
1.21308e-05
1.19786e-05
1.18514e-05
1.17346e-05
1.1644e-05
1.15997e-05
1.16182e-05
1.12878e-05
1.12394e-05
1.12724e-05
1.13389e-05
1.14238e-05
1.15138e-05
1.1615e-05
1.17247e-05
1.18364e-05
1.19654e-05
1.21693e-05
1.25464e-05
1.32259e-05
1.43441e-05
1.5764e-05
1.57576e-05
1.4336e-05
1.32297e-05
1.25508e-05
1.21749e-05
1.19672e-05
1.1831e-05
1.17251e-05
1.16218e-05
1.15221e-05
1.14289e-05
1.13409e-05
1.12779e-05
1.12485e-05
1.12835e-05
1.09134e-05
1.08767e-05
1.089e-05
1.09294e-05
1.09905e-05
1.10573e-05
1.11294e-05
1.1194e-05
1.12457e-05
1.12974e-05
1.13519e-05
1.14239e-05
1.1547e-05
1.17453e-05
1.20035e-05
1.19994e-05
1.17474e-05
1.15574e-05
1.14301e-05
1.13516e-05
1.12966e-05
1.12488e-05
1.11941e-05
1.11279e-05
1.1065e-05
1.10011e-05
1.09365e-05
1.08883e-05
1.0876e-05
1.0925e-05
1.05487e-05
1.04852e-05
1.04771e-05
1.05193e-05
1.05555e-05
1.06016e-05
1.06418e-05
1.06695e-05
1.06875e-05
1.06948e-05
1.06909e-05
1.06887e-05
1.06939e-05
1.07067e-05
1.07295e-05
1.07297e-05
1.0709e-05
1.06954e-05
1.06914e-05
1.06953e-05
1.06974e-05
1.06917e-05
1.06715e-05
1.06386e-05
1.06026e-05
1.05633e-05
1.05227e-05
1.04887e-05
1.04876e-05
1.0546e-05
1.01498e-05
1.00821e-05
1.00741e-05
1.00954e-05
1.01176e-05
1.0143e-05
1.0155e-05
1.01568e-05
1.01498e-05
1.01272e-05
1.00914e-05
1.00505e-05
1.00084e-05
9.97582e-06
9.95908e-06
9.96027e-06
9.9798e-06
1.0012e-05
1.00538e-05
1.00964e-05
1.01287e-05
1.01495e-05
1.01588e-05
1.01597e-05
1.01487e-05
1.01261e-05
1.01006e-05
1.00816e-05
1.00902e-05
1.01534e-05
9.75379e-06
9.683e-06
9.68154e-06
9.68038e-06
9.69515e-06
9.6939e-06
9.68761e-06
9.67548e-06
9.6451e-06
9.59349e-06
9.53006e-06
9.46362e-06
9.39933e-06
9.3483e-06
9.31936e-06
9.32048e-06
9.35151e-06
9.40176e-06
9.46582e-06
9.53503e-06
9.59669e-06
9.64535e-06
9.67738e-06
9.69374e-06
9.69744e-06
9.69398e-06
9.68641e-06
9.67961e-06
9.6931e-06
9.75803e-06
9.36711e-06
9.30282e-06
9.27726e-06
9.27731e-06
9.27923e-06
9.26682e-06
9.25039e-06
9.21914e-06
9.16826e-06
9.10054e-06
9.02271e-06
8.9396e-06
8.8584e-06
8.7921e-06
8.75191e-06
8.75e-06
8.78935e-06
8.85818e-06
8.94325e-06
9.03035e-06
9.10713e-06
9.16918e-06
9.21732e-06
9.2517e-06
9.27316e-06
9.28391e-06
9.28606e-06
9.28649e-06
9.30441e-06
9.37151e-06
8.98921e-06
8.92458e-06
8.90349e-06
8.90403e-06
8.88438e-06
8.86619e-06
8.83954e-06
8.79516e-06
8.73266e-06
8.65353e-06
8.5645e-06
8.4712e-06
8.38173e-06
8.30883e-06
8.26556e-06
8.26617e-06
8.31169e-06
8.38707e-06
8.47701e-06
8.57025e-06
8.65814e-06
8.73455e-06
8.79667e-06
8.84262e-06
8.87317e-06
8.89203e-06
8.90317e-06
8.91234e-06
8.93435e-06
9.00134e-06
8.65961e-06
8.57345e-06
8.55886e-06
8.54594e-06
8.52586e-06
8.50563e-06
8.46598e-06
8.40913e-06
8.33827e-06
8.25576e-06
8.16424e-06
8.06612e-06
7.97004e-06
7.8906e-06
7.84379e-06
7.84386e-06
7.89024e-06
7.96797e-06
8.06274e-06
8.16402e-06
8.26116e-06
8.34552e-06
8.413e-06
8.46393e-06
8.5015e-06
8.52943e-06
8.54952e-06
8.56373e-06
8.58486e-06
8.64888e-06
8.29864e-06
8.25579e-06
8.23054e-06
8.21265e-06
8.19661e-06
8.16545e-06
8.11823e-06
8.0608e-06
7.99168e-06
7.90929e-06
7.81395e-06
7.7112e-06
7.61328e-06
7.53478e-06
7.48998e-06
7.49099e-06
7.53788e-06
7.61726e-06
7.71427e-06
7.81698e-06
7.91418e-06
7.99814e-06
8.06637e-06
8.12107e-06
8.1652e-06
8.19963e-06
8.22323e-06
8.23788e-06
8.25735e-06
8.31947e-06
8.02271e-06
7.95843e-06
7.93747e-06
7.91802e-06
7.89533e-06
7.8589e-06
7.814e-06
7.75933e-06
7.69002e-06
7.60462e-06
7.50775e-06
7.40802e-06
7.3156e-06
7.24074e-06
7.19619e-06
7.19548e-06
7.24073e-06
7.31895e-06
7.41398e-06
7.51277e-06
7.60583e-06
7.6882e-06
7.75836e-06
7.81694e-06
7.8643e-06
7.89976e-06
7.92337e-06
7.93884e-06
7.95887e-06
8.01895e-06
7.75596e-06
7.67892e-06
7.66785e-06
7.65116e-06
7.62625e-06
7.5931e-06
7.55141e-06
7.49671e-06
7.42585e-06
7.34142e-06
7.25007e-06
7.15745e-06
7.06978e-06
6.99643e-06
6.95168e-06
6.95055e-06
6.99483e-06
7.07058e-06
7.16128e-06
7.25448e-06
7.3427e-06
7.42262e-06
7.49227e-06
7.55033e-06
7.59621e-06
7.6304e-06
7.6545e-06
7.67187e-06
7.69217e-06
7.74774e-06
7.47895e-06
7.44862e-06
7.42802e-06
7.41392e-06
7.39134e-06
7.35856e-06
7.31537e-06
7.25959e-06
7.1918e-06
7.11597e-06
7.03498e-06
6.95025e-06
6.86698e-06
6.79643e-06
6.75405e-06
6.7541e-06
6.79666e-06
6.86745e-06
6.9512e-06
7.03711e-06
7.11909e-06
7.19421e-06
7.26017e-06
7.31522e-06
7.35895e-06
7.39235e-06
7.41694e-06
7.43505e-06
7.45421e-06
7.50412e-06
7.28278e-06
7.24347e-06
7.22415e-06
7.20877e-06
7.18385e-06
7.14959e-06
7.10711e-06
7.05556e-06
6.99665e-06
6.93093e-06
6.85719e-06
6.77674e-06
6.69708e-06
6.63082e-06
6.59216e-06
6.59332e-06
6.63301e-06
6.69741e-06
6.77348e-06
6.85228e-06
6.92831e-06
6.99838e-06
7.06001e-06
7.1115e-06
7.15252e-06
7.18411e-06
7.20783e-06
7.22552e-06
7.24312e-06
7.28733e-06
7.10251e-06
7.04548e-06
7.03882e-06
7.02288e-06
6.99913e-06
6.96984e-06
6.93279e-06
6.88813e-06
6.83646e-06
6.77574e-06
6.70552e-06
6.63028e-06
6.55852e-06
6.50042e-06
6.46674e-06
6.46822e-06
6.50363e-06
6.5607e-06
6.62889e-06
6.70063e-06
6.77059e-06
6.83495e-06
6.89109e-06
6.93764e-06
6.9747e-06
7.00355e-06
7.02568e-06
7.04242e-06
7.05809e-06
7.09615e-06
6.91233e-06
6.88837e-06
6.87749e-06
6.86222e-06
6.84324e-06
6.81816e-06
6.78455e-06
6.74416e-06
6.69628e-06
6.63939e-06
6.57568e-06
6.51049e-06
6.44947e-06
6.39886e-06
6.36771e-06
6.36752e-06
6.3985e-06
6.44968e-06
6.51163e-06
6.57704e-06
6.64038e-06
6.69783e-06
6.74736e-06
6.78847e-06
6.8217e-06
6.84809e-06
6.86848e-06
6.88355e-06
6.89669e-06
6.9286e-06
6.77799e-06
6.76224e-06
6.7445e-06
6.73045e-06
6.71321e-06
6.68832e-06
6.65705e-06
6.6204e-06
6.57695e-06
6.52684e-06
6.47286e-06
6.41803e-06
6.36482e-06
6.31802e-06
6.2876e-06
6.28631e-06
6.31472e-06
6.36198e-06
6.41817e-06
6.47619e-06
6.53126e-06
6.58075e-06
6.62374e-06
6.66023e-06
6.69046e-06
6.71464e-06
6.73292e-06
6.74586e-06
6.75661e-06
6.78327e-06
6.66951e-06
6.63519e-06
6.62514e-06
6.61355e-06
6.59701e-06
6.57487e-06
6.54876e-06
6.51751e-06
6.4803e-06
6.43823e-06
6.39279e-06
6.34491e-06
6.29661e-06
6.25338e-06
6.22543e-06
6.22485e-06
6.25142e-06
6.29384e-06
6.34266e-06
6.39201e-06
6.43866e-06
6.48121e-06
6.51911e-06
6.55198e-06
6.57931e-06
6.60075e-06
6.61651e-06
6.6275e-06
6.63661e-06
6.65889e-06
6.54904e-06
6.52487e-06
6.52066e-06
6.51133e-06
6.49755e-06
6.48048e-06
6.45905e-06
6.43203e-06
6.39999e-06
6.36385e-06
6.32377e-06
6.28058e-06
6.23738e-06
6.19989e-06
6.17635e-06
6.17662e-06
6.20049e-06
6.23738e-06
6.2791e-06
6.32128e-06
6.36184e-06
6.39956e-06
6.43342e-06
6.46243e-06
6.48592e-06
6.50394e-06
6.51719e-06
6.52679e-06
6.5349e-06
6.55327e-06
6.45367e-06
6.4469e-06
6.43977e-06
6.43126e-06
6.4199e-06
6.40493e-06
6.38484e-06
6.36017e-06
6.33196e-06
6.30029e-06
6.26496e-06
6.2274e-06
6.19091e-06
6.15995e-06
6.14044e-06
6.14036e-06
6.16043e-06
6.19198e-06
6.22786e-06
6.26476e-06
6.3007e-06
6.33397e-06
6.36316e-06
6.38739e-06
6.40648e-06
6.42117e-06
6.43254e-06
6.44141e-06
6.44891e-06
6.46374e-06
6.38924e-06
6.37879e-06
6.37138e-06
6.36359e-06
6.35332e-06
6.33894e-06
6.32084e-06
6.29992e-06
6.27634e-06
6.24976e-06
6.22042e-06
6.18971e-06
6.15989e-06
6.13384e-06
6.11612e-06
6.11481e-06
6.13083e-06
6.15702e-06
6.1878e-06
6.21993e-06
6.25112e-06
6.27942e-06
6.30354e-06
6.32306e-06
6.33849e-06
6.35082e-06
6.36107e-06
6.36953e-06
6.37643e-06
6.38797e-06
6.32536e-06
6.3111e-06
6.3074e-06
6.30118e-06
6.29213e-06
6.28036e-06
6.26665e-06
6.25061e-06
6.23165e-06
6.20985e-06
6.1859e-06
6.16088e-06
6.13594e-06
6.11291e-06
6.09616e-06
6.09414e-06
6.10685e-06
6.12851e-06
6.15499e-06
6.18286e-06
6.20948e-06
6.23316e-06
6.25304e-06
6.26905e-06
6.28203e-06
6.29293e-06
6.30226e-06
6.30987e-06
6.31559e-06
6.32376e-06
6.26433e-06
6.25852e-06
6.25629e-06
6.25124e-06
6.24372e-06
6.23493e-06
6.2245e-06
6.21134e-06
6.19508e-06
6.17623e-06
6.15581e-06
6.13455e-06
6.11294e-06
6.09264e-06
6.07769e-06
6.0758e-06
6.08728e-06
6.10622e-06
6.12922e-06