/*--------------------------------*- C++ -*----------------------------------*\
| =========                 |                                                 |
| \\      /  F ield         | OpenFOAM: The Open Source CFD Toolbox           |
|  \\    /   O peration     | Version:  2312                                  |
|   \\  /    A nd           | Website:  www.openfoam.com                      |
|    \\/     M anipulation  |                                                 |
\*---------------------------------------------------------------------------*/
FoamFile
{
    version     2.0;
    format      ascii;
    arch        "LSB;label=32;scalar=64";
    class       volScalarField;
    location    "0.54522";
    object      p;
}
// * * * * * * * * * * * * * * * * * * * * * * * * * * * * * * * * * * * * * //

dimensions      [1 -1 -2 0 0 0 0];

internalField   nonuniform List<scalar> 
90000
(
4850.97
4850.97
4850.97
4850.97
4850.97
4850.97
4850.97
4850.96
4850.96
4850.96
4850.96
4850.96
4850.96
4850.97
4850.97
4850.97
4850.96
4850.96
4850.96
4850.96
4850.96
4850.96
4850.96
4850.96
4850.96
4850.96
4850.96
4850.96
4850.96
4850.96
4752.87
4752.87
4752.87
4752.87
4752.87
4752.87
4752.86
4752.86
4752.86
4752.86
4752.86
4752.86
4752.86
4752.86
4752.86
4752.86
4752.86
4752.86
4752.86
4752.86
4752.86
4752.86
4752.86
4752.86
4752.86
4752.86
4752.86
4752.86
4752.86
4752.86
4654.77
4654.77
4654.77
4654.77
4654.76
4654.76
4654.76
4654.76
4654.76
4654.76
4654.76
4654.76
4654.76
4654.76
4654.76
4654.76
4654.76
4654.76
4654.76
4654.76
4654.76
4654.76
4654.76
4654.76
4654.76
4654.76
4654.76
4654.76
4654.76
4654.76
4556.66
4556.66
4556.66
4556.66
4556.66
4556.66
4556.66
4556.66
4556.66
4556.66
4556.66
4556.66
4556.66
4556.67
4556.67
4556.67
4556.67
4556.66
4556.66
4556.66
4556.66
4556.66
4556.66
4556.66
4556.66
4556.66
4556.66
4556.66
4556.66
4556.66
4458.56
4458.56
4458.56
4458.56
4458.56
4458.56
4458.56
4458.56
4458.56
4458.56
4458.56
4458.56
4458.56
4458.56
4458.56
4458.56
4458.56
4458.56
4458.56
4458.56
4458.57
4458.57
4458.56
4458.56
4458.56
4458.56
4458.56
4458.56
4458.56
4458.56
4360.46
4360.46
4360.46
4360.46
4360.46
4360.46
4360.46
4360.46
4360.46
4360.46
4360.46
4360.46
4360.46
4360.46
4360.46
4360.46
4360.46
4360.46
4360.46
4360.46
4360.46
4360.46
4360.46
4360.46
4360.46
4360.46
4360.46
4360.46
4360.46
4360.46
4262.36
4262.36
4262.36
4262.36
4262.36
4262.36
4262.36
4262.36
4262.36
4262.36
4262.36
4262.36
4262.36
4262.36
4262.36
4262.36
4262.36
4262.36
4262.36
4262.36
4262.36
4262.36
4262.36
4262.36
4262.36
4262.36
4262.36
4262.36
4262.36
4262.36
4164.25
4164.25
4164.26
4164.26
4164.26
4164.26
4164.26
4164.26
4164.26
4164.26
4164.26
4164.26
4164.26
4164.26
4164.26
4164.26
4164.26
4164.26
4164.26
4164.26
4164.26
4164.26
4164.26
4164.26
4164.26
4164.26
4164.26
4164.26
4164.26
4164.26
4066.15
4066.15
4066.15
4066.15
4066.15
4066.16
4066.16
4066.16
4066.16
4066.15
4066.15
4066.15
4066.15
4066.15
4066.15
4066.15
4066.15
4066.15
4066.16
4066.16
4066.16
4066.16
4066.16
4066.16
4066.16
4066.16
4066.16
4066.15
4066.15
4066.15
3968.05
3968.05
3968.05
3968.05
3968.05
3968.05
3968.05
3968.05
3968.05
3968.05
3968.05
3968.05
3968.05
3968.05
3968.05
3968.05
3968.05
3968.05
3968.06
3968.06
3968.06
3968.06
3968.06
3968.06
3968.05
3968.05
3968.05
3968.05
3968.05
3968.05
3869.95
3869.95
3869.95
3869.95
3869.95
3869.95
3869.95
3869.95
3869.95
3869.95
3869.95
3869.95
3869.95
3869.95
3869.95
3869.95
3869.95
3869.96
3869.96
3869.96
3869.96
3869.96
3869.96
3869.96
3869.95
3869.95
3869.95
3869.95
3869.95
3869.95
3771.85
3771.85
3771.85
3771.85
3771.85
3771.85
3771.85
3771.85
3771.85
3771.86
3771.86
3771.86
3771.86
3771.86
3771.86
3771.86
3771.86
3771.86
3771.86
3771.86
3771.86
3771.86
3771.86
3771.86
3771.85
3771.85
3771.85
3771.85
3771.85
3771.86
3673.75
3673.75
3673.75
3673.75
3673.75
3673.75
3673.75
3673.75
3673.76
3673.76
3673.76
3673.76
3673.76
3673.76
3673.76
3673.76
3673.76
3673.76
3673.76
3673.76
3673.76
3673.76
3673.76
3673.75
3673.75
3673.75
3673.76
3673.76
3673.76
3673.76
3575.65
3575.65
3575.65
3575.65
3575.65
3575.65
3575.65
3575.66
3575.66
3575.66
3575.66
3575.66
3575.66
3575.66
3575.66
3575.66
3575.66
3575.66
3575.66
3575.66
3575.66
3575.65
3575.65
3575.65
3575.65
3575.65
3575.65
3575.65
3575.65
3575.65
3477.55
3477.55
3477.55
3477.55
3477.55
3477.55
3477.55
3477.56
3477.56
3477.56
3477.56
3477.56
3477.56
3477.56
3477.56
3477.56
3477.56
3477.56
3477.56
3477.56
3477.55
3477.55
3477.55
3477.55
3477.55
3477.55
3477.55
3477.55
3477.55
3477.55
3379.45
3379.45
3379.45
3379.45
3379.45
3379.45
3379.45
3379.46
3379.46
3379.46
3379.46
3379.46
3379.46
3379.46
3379.46
3379.46
3379.46
3379.46
3379.46
3379.45
3379.45
3379.45
3379.45
3379.45
3379.45
3379.45
3379.45
3379.45
3379.45
3379.45
3281.35
3281.35
3281.35
3281.35
3281.35
3281.35
3281.35
3281.36
3281.36
3281.36
3281.36
3281.36
3281.36
3281.36
3281.36
3281.36
3281.36
3281.36
3281.36
3281.35
3281.35
3281.35
3281.35
3281.35
3281.35
3281.35
3281.35
3281.35
3281.35
3281.35
3183.25
3183.25
3183.25
3183.25
3183.25
3183.25
3183.25
3183.25
3183.26
3183.26
3183.26
3183.26
3183.26
3183.26
3183.26
3183.26
3183.26
3183.26
3183.26
3183.26
3183.25
3183.25
3183.25
3183.25
3183.25
3183.25
3183.24
3183.24
3183.24
3183.24
3085.15
3085.15
3085.15
3085.15
3085.15
3085.15
3085.15
3085.15
3085.15
3085.16
3085.16
3085.16
3085.16
3085.16
3085.16
3085.16
3085.16
3085.16
3085.16
3085.16
3085.15
3085.15
3085.15
3085.15
3085.15
3085.14
3085.14
3085.14
3085.14
3085.14
2987.04
2987.04
2987.04
2987.04
2987.04
2987.05
2987.05
2987.05
2987.05
2987.06
2987.06
2987.06
2987.06
2987.06
2987.06
2987.06
2987.06
2987.06
2987.06
2987.06
2987.05
2987.05
2987.05
2987.04
2987.04
2987.04
2987.04
2987.04
2987.04
2987.03
2888.93
2888.93
2888.93
2888.94
2888.94
2888.94
2888.94
2888.95
2888.95
2888.95
2888.96
2888.96
2888.96
2888.96
2888.97
2888.97
2888.96
2888.96
2888.96
2888.96
2888.95
2888.95
2888.95
2888.94
2888.94
2888.94
2888.93
2888.93
2888.93
2888.93
2790.82
2790.82
2790.82
2790.83
2790.83
2790.83
2790.84
2790.84
2790.85
2790.85
2790.85
2790.86
2790.86
2790.86
2790.87
2790.87
2790.87
2790.86
2790.86
2790.86
2790.85
2790.85
2790.84
2790.84
2790.83
2790.83
2790.82
2790.82
2790.82
2790.82
2692.71
2692.71
2692.71
2692.72
2692.72
2692.72
2692.73
2692.74
2692.74
2692.75
2692.75
2692.76
2692.76
2692.77
2692.77
2692.77
2692.77
2692.77
2692.76
2692.76
2692.75
2692.75
2692.74
2692.73
2692.73
2692.72
2692.71
2692.71
2692.71
2692.71
2594.59
2594.59
2594.6
2594.6
2594.61
2594.61
2594.62
2594.63
2594.64
2594.64
2594.65
2594.66
2594.66
2594.67
2594.67
2594.67
2594.67
2594.67
2594.66
2594.66
2594.65
2594.64
2594.63
2594.62
2594.62
2594.61
2594.6
2594.6
2594.59
2594.59
2496.47
2496.47
2496.48
2496.48
2496.49
2496.5
2496.51
2496.52
2496.53
2496.54
2496.55
2496.56
2496.57
2496.57
2496.57
2496.58
2496.57
2496.57
2496.56
2496.56
2496.55
2496.54
2496.53
2496.51
2496.5
2496.5
2496.49
2496.48
2496.48
2496.47
2398.35
2398.35
2398.36
2398.36
2398.38
2398.39
2398.4
2398.42
2398.43
2398.44
2398.45
2398.46
2398.47
2398.48
2398.48
2398.48
2398.48
2398.47
2398.47
2398.46
2398.44
2398.43
2398.42
2398.4
2398.39
2398.38
2398.37
2398.36
2398.35
2398.35
2300.22
2300.22
2300.23
2300.24
2300.26
2300.27
2300.29
2300.31
2300.32
2300.34
2300.36
2300.37
2300.38
2300.39
2300.39
2300.39
2300.39
2300.38
2300.37
2300.36
2300.34
2300.33
2300.31
2300.29
2300.27
2300.26
2300.25
2300.23
2300.23
2300.22
2202.09
2202.09
2202.1
2202.11
2202.13
2202.15
2202.17
2202.2
2202.22
2202.24
2202.26
2202.27
2202.29
2202.3
2202.3
2202.3
2202.3
2202.29
2202.27
2202.26
2202.24
2202.22
2202.2
2202.18
2202.15
2202.13
2202.12
2202.1
2202.1
2202.09
2103.94
2103.95
2103.96
2103.98
2104
2104.03
2104.05
2104.08
2104.11
2104.14
2104.16
2104.18
2104.2
2104.21
2104.22
2104.22
2104.21
2104.2
2104.18
2104.16
2104.14
2104.11
2104.09
2104.06
2104.03
2104
2103.98
2103.97
2103.95
2103.95
2005.79
2005.8
2005.82
2005.84
2005.86
2005.9
2005.93
2005.97
2006
2006.04
2006.07
2006.09
2006.11
2006.13
2006.14
2006.14
2006.13
2006.11
2006.09
2006.07
2006.04
2006.01
2005.97
2005.93
2005.9
2005.87
2005.84
2005.82
2005.8
2005.79
1907.62
1907.63
1907.65
1907.68
1907.72
1907.76
1907.8
1907.85
1907.89
1907.94
1907.98
1908.01
1908.04
1908.05
1908.06
1908.06
1908.05
1908.04
1908.01
1907.98
1907.94
1907.9
1907.85
1907.8
1907.76
1907.72
1907.68
1907.66
1907.64
1907.62
1809.44
1809.45
1809.47
1809.51
1809.55
1809.61
1809.66
1809.72
1809.78
1809.84
1809.89
1809.93
1809.96
1809.98
1810
1810
1809.98
1809.96
1809.93
1809.89
1809.84
1809.78
1809.72
1809.67
1809.61
1809.56
1809.51
1809.47
1809.45
1809.44
1711.22
1711.24
1711.27
1711.32
1711.37
1711.44
1711.51
1711.59
1711.67
1711.74
1711.8
1711.85
1711.9
1711.93
1711.94
1711.94
1711.93
1711.9
1711.85
1711.8
1711.74
1711.67
1711.59
1711.52
1711.44
1711.38
1711.32
1711.27
1711.24
1711.22
1612.97
1612.99
1613.04
1613.1
1613.17
1613.26
1613.35
1613.45
1613.55
1613.64
1613.72
1613.79
1613.84
1613.88
1613.9
1613.9
1613.88
1613.84
1613.79
1613.72
1613.64
1613.55
1613.45
1613.35
1613.26
1613.17
1613.1
1613.04
1613
1612.98
1514.68
1514.71
1514.76
1514.84
1514.94
1515.05
1515.17
1515.3
1515.42
1515.54
1515.64
1515.73
1515.8
1515.85
1515.87
1515.87
1515.85
1515.8
1515.73
1515.64
1515.54
1515.42
1515.3
1515.17
1515.05
1514.94
1514.84
1514.77
1514.71
1514.69
1416.34
1416.37
1416.44
1416.54
1416.67
1416.81
1416.97
1417.13
1417.29
1417.44
1417.57
1417.69
1417.78
1417.84
1417.87
1417.87
1417.84
1417.78
1417.69
1417.57
1417.44
1417.29
1417.13
1416.97
1416.81
1416.67
1416.54
1416.45
1416.38
1416.34
1317.92
1317.97
1318.06
1318.18
1318.35
1318.53
1318.73
1318.94
1319.14
1319.34
1319.51
1319.66
1319.78
1319.85
1319.89
1319.89
1319.86
1319.78
1319.66
1319.51
1319.34
1319.15
1318.94
1318.73
1318.53
1318.35
1318.19
1318.06
1317.97
1317.93
1219.42
1219.47
1219.59
1219.75
1219.96
1220.2
1220.46
1220.72
1220.99
1221.24
1221.46
1221.65
1221.8
1221.9
1221.96
1221.96
1221.9
1221.8
1221.65
1221.46
1221.24
1220.99
1220.73
1220.46
1220.2
1219.96
1219.75
1219.59
1219.48
1219.42
1120.79
1120.87
1121.01
1121.22
1121.49
1121.79
1122.13
1122.47
1122.81
1123.14
1123.42
1123.67
1123.86
1123.99
1124.06
1124.06
1123.99
1123.86
1123.67
1123.42
1123.14
1122.82
1122.47
1122.13
1121.8
1121.49
1121.23
1121.01
1120.87
1120.79
1022.01
1022.11
1022.3
1022.57
1022.91
1023.3
1023.73
1024.17
1024.61
1025.03
1025.4
1025.71
1025.96
1026.13
1026.22
1026.22
1026.13
1025.96
1025.71
1025.4
1025.03
1024.61
1024.17
1023.73
1023.3
1022.91
1022.57
1022.3
1022.11
1022.02
923.043
923.166
923.405
923.751
924.186
924.69
925.239
925.808
926.371
926.902
927.381
927.786
928.103
928.321
928.433
928.433
928.322
928.103
927.786
927.381
926.903
926.371
925.808
925.24
924.691
924.188
923.753
923.407
923.168
923.045
823.825
823.981
824.285
824.723
825.277
825.919
826.621
827.349
828.07
828.753
829.366
829.887
830.295
830.576
830.719
830.719
830.576
830.296
829.887
829.367
828.753
828.071
827.349
826.622
825.921
825.278
824.725
824.286
823.983
823.827
724.295
724.491
724.873
725.425
726.125
726.939
727.832
728.761
729.683
730.556
731.343
732.011
732.534
732.894
733.078
733.078
732.895
732.535
732.011
731.344
730.556
729.683
728.761
727.832
726.94
726.126
725.426
724.874
724.493
724.297
624.371
624.617
625.09
625.779
626.655
627.68
628.81
629.99
631.164
632.28
633.286
634.141
634.811
635.272
635.507
635.507
635.272
634.811
634.141
633.287
632.28
631.164
629.99
628.81
627.681
626.655
625.779
625.091
624.618
624.373
523.965
524.263
524.84
525.685
526.769
528.049
529.468
530.962
532.451
533.87
535.154
536.245
537.1
537.689
537.989
537.989
537.689
537.1
536.245
535.155
533.87
532.451
530.962
529.468
528.049
526.769
525.685
524.84
524.264
523.966
422.967
423.325
424.014
425.02
426.341
427.921
429.692
431.567
433.45
435.246
436.884
438.269
439.356
440.107
440.49
440.49
440.107
439.356
438.269
436.884
435.246
433.449
431.567
429.692
427.92
426.34
425.02
424.014
423.325
422.967
321.256
321.688
322.487
323.642
325.203
327.123
329.314
331.661
334.033
336.312
338.373
340.13
341.501
342.466
342.955
342.954
342.466
341.502
340.13
338.373
336.311
334.033
331.661
329.314
327.123
325.203
323.642
322.487
321.688
321.255
218.563
219.145
220.119
221.332
223.134
225.407
228.087
231.008
233.987
236.869
239.476
241.693
243.43
244.64
245.25
245.25
244.64
243.43
241.693
239.476
236.868
233.986
231.008
228.086
225.406
223.133
221.332
220.119
219.145
218.562
113.083
113.989
115.611
117.669
119.834
122.436
125.711
129.341
133.094
136.773
140.086
142.93
145.133
146.674
147.414
147.414
146.674
145.133
142.93
140.086
136.773
133.094
129.341
125.71
122.434
119.833
117.669
115.61
113.988
113.083
26.0675
26.3624
27.0401
28.1849
30.0816
32.4497
35.2374
38.3868
41.8008
45.2742
48.4607
51.2088
53.3252
54.7588
55.4448
55.4449
54.7604
53.325
51.208
48.4602
45.2731
41.7993
38.3861
35.2365
32.448
30.0809
28.185
27.0394
26.3619
26.068
-4.78387
-4.74767
-4.67612
-4.52142
-4.13881
-3.56182
-2.7983
-1.864
-0.782373
0.374327
1.48581
2.45948
3.20771
3.72431
3.96172
3.9612
3.7255
3.20698
2.4585
1.4851
0.373269
-0.783289
-1.86434
-2.79868
-3.56229
-4.13916
-4.52158
-4.67627
-4.74793
-4.78384
-4.96355
-4.9773
-4.99915
-5.01799
-5.02681
-5.02748
-5.02343
-5.01138
-4.991
-4.96632
-4.94157
-4.92217
-4.9059
-4.89194
-4.88545
-4.8855
-4.89192
-4.90591
-4.92212
-4.9415
-4.96624
-4.99093
-5.01129
-5.0234
-5.02745
-5.02678
-5.01805
-4.99924
-4.97745
-4.96346
-5.10344
-5.11165
-5.12425
-5.13643
-5.14561
-5.15087
-5.15754
-5.16396
-5.16907
-5.17171
-5.17303
-5.17387
-5.17452
-5.175
-5.175
-5.17499
-5.17499
-5.17447
-5.17379
-5.17291
-5.1716
-5.16899
-5.16388
-5.15748
-5.15084
-5.1456
-5.13647
-5.12427
-5.11173
-5.10354
-5.223
-5.22732
-5.23462
-5.2424
-5.24947
-5.25633
-5.26359
-5.27096
-5.27774
-5.28311
-5.28798
-5.29186
-5.29471
-5.29642
-5.29729
-5.29728
-5.2964
-5.29467
-5.29179
-5.28788
-5.28304
-5.27768
-5.27093
-5.26355
-5.2563
-5.24947
-5.24236
-5.2345
-5.22727
-5.22307
-5.33468
-5.33718
-5.3417
-5.34717
-5.35299
-5.35877
-5.3648
-5.37102
-5.37699
-5.38226
-5.387
-5.39085
-5.3936
-5.3951
-5.39559
-5.39559
-5.39508
-5.39357
-5.39081
-5.38696
-5.38223
-5.37696
-5.37099
-5.36476
-5.35875
-5.35302
-5.34724
-5.34173
-5.3372
-5.33465
-5.44178
-5.44345
-5.44658
-5.45053
-5.45483
-5.45928
-5.46381
-5.4685
-5.47319
-5.47767
-5.482
-5.48587
-5.48882
-5.49082
-5.49167
-5.49166
-5.4908
-5.4888
-5.48586
-5.48197
-5.47764
-5.47315
-5.46847
-5.46377
-5.45924
-5.45483
-5.45056
-5.44661
-5.44349
-5.44177
-5.54565
-5.54676
-5.54891
-5.55183
-5.55513
-5.5586
-5.56216
-5.56568
-5.56912
-5.57235
-5.5754
-5.57829
-5.58083
-5.58286
-5.58392
-5.58392
-5.58285
-5.58082
-5.57826
-5.57536
-5.57232
-5.56907
-5.56565
-5.56212
-5.55858
-5.55513
-5.55181
-5.54893
-5.54679
-5.54566
-5.64739
-5.64816
-5.64973
-5.65183
-5.65431
-5.65703
-5.65984
-5.66262
-5.66525
-5.66761
-5.66964
-5.67136
-5.67279
-5.67394
-5.67459
-5.6746
-5.67395
-5.67278
-5.67132
-5.66959
-5.66757
-5.6652
-5.66259
-5.65979
-5.657
-5.65432
-5.65185
-5.64973
-5.64818
-5.64741
-5.74766
-5.74824
-5.74934
-5.75088
-5.75273
-5.7548
-5.75693
-5.75904
-5.76105
-5.76285
-5.76435
-5.76548
-5.76626
-5.76676
-5.76698
-5.76698
-5.76676
-5.76623
-5.76543
-5.76428
-5.7628
-5.761
-5.759
-5.75688
-5.75476
-5.75273
-5.7509
-5.74935
-5.74823
-5.74769
-5.84692
-5.8473
-5.84807
-5.84921
-5.85057
-5.85208
-5.85362
-5.85516
-5.85663
-5.85794
-5.85902
-5.85984
-5.86038
-5.86068
-5.86078
-5.86078
-5.86068
-5.86037
-5.8598
-5.85898
-5.85788
-5.85657
-5.85513
-5.85359
-5.85204
-5.85056
-5.84921
-5.84809
-5.84729
-5.84693
-5.94538
-5.94563
-5.94622
-5.947
-5.94797
-5.94901
-5.95012
-5.95122
-5.95222
-5.95309
-5.95381
-5.95435
-5.95471
-5.95491
-5.95498
-5.95497
-5.95489
-5.95467
-5.9543
-5.95376
-5.95303
-5.95214
-5.95116
-5.9501
-5.94901
-5.94795
-5.94699
-5.94622
-5.94565
-5.9454
-6.04332
-6.04352
-6.0439
-6.04443
-6.04506
-6.04578
-6.04654
-6.04725
-6.04788
-6.04843
-6.04886
-6.04916
-6.04936
-6.04947
-6.0495
-6.04949
-6.04947
-6.04935
-6.04914
-6.04881
-6.04839
-6.04784
-6.04721
-6.0465
-6.04577
-6.04507
-6.04441
-6.04389
-6.04351
-6.04334
-6.14095
-6.14106
-6.14128
-6.14163
-6.14204
-6.14252
-6.14297
-6.14337
-6.14373
-6.14404
-6.14426
-6.14439
-6.14446
-6.14448
-6.14447
-6.14447
-6.14447
-6.14441
-6.14433
-6.14419
-6.14399
-6.1437
-6.14334
-6.14292
-6.14247
-6.14203
-6.14161
-6.14128
-6.14105
-6.14094
-6.2383
-6.23835
-6.2385
-6.23871
-6.23895
-6.2392
-6.23942
-6.23963
-6.23982
-6.23993
-6.23997
-6.23997
-6.23994
-6.23991
-6.23988
-6.23987
-6.23988
-6.2399
-6.23993
-6.23994
-6.23988
-6.23976
-6.23962
-6.23942
-6.23918
-6.23892
-6.23869
-6.2385
-6.23837
-6.23831
-6.33556
-6.33559
-6.33569
-6.33577
-6.33588
-6.33596
-6.33603
-6.33611
-6.33614
-6.33611
-6.33604
-6.33594
-6.33585
-6.33578
-6.33574
-6.33574
-6.33576
-6.33583
-6.33592
-6.33599
-6.33605
-6.33608
-6.33608
-6.33603
-6.33594
-6.33583
-6.33573
-6.33565
-6.33559
-6.33556
-6.43279
-6.43281
-6.43279
-6.43279
-6.4328
-6.43281
-6.43282
-6.43278
-6.43269
-6.43258
-6.43244
-6.43229
-6.43216
-6.43205
-6.43198
-6.43196
-6.43201
-6.43211
-6.43224
-6.43239
-6.43252
-6.43263
-6.43272
-6.43278
-6.43281
-6.4328
-6.43279
-6.43277
-6.43276
-6.43276
-6.52998
-6.52994
-6.52992
-6.52991
-6.52986
-6.52981
-6.52971
-6.52957
-6.52943
-6.52929
-6.52911
-6.52891
-6.52875
-6.52864
-6.52857
-6.52856
-6.52862
-6.52874
-6.52889
-6.52905
-6.52923
-6.52941
-6.52957
-6.5297
-6.52979
-6.52985
-6.52989
-6.52992
-6.52994
-6.52996
-6.62726
-6.6272
-6.62719
-6.62712
-6.62703
-6.62691
-6.62675
-6.6266
-6.62645
-6.62626
-6.62604
-6.62584
-6.62568
-6.62557
-6.62549
-6.62546
-6.62551
-6.62562
-6.62579
-6.62599
-6.6262
-6.6264
-6.62659
-6.62675
-6.62688
-6.62698
-6.62706
-6.62713
-6.62717
-6.6272
-6.72448
-6.72452
-6.72444
-6.72434
-6.72426
-6.7241
-6.72394
-6.72378
-6.7236
-6.72339
-6.72317
-6.72298
-6.72282
-6.72269
-6.72261
-6.72259
-6.72265
-6.72278
-6.72296
-6.72315
-6.72335
-6.72355
-6.72375
-6.72394
-6.7241
-6.72423
-6.72433
-6.72441
-6.72447
-6.7245
-6.82197
-6.8219
-6.82183
-6.82174
-6.82161
-6.82144
-6.82128
-6.82111
-6.82091
-6.82071
-6.82051
-6.82032
-6.82015
-6.82001
-6.81995
-6.81995
-6.82002
-6.82013
-6.82028
-6.82045
-6.82065
-6.82087
-6.82109
-6.82128
-6.82145
-6.82158
-6.82168
-6.82177
-6.82183
-6.82186
-6.9194
-6.91932
-6.91926
-6.91917
-6.91902
-6.91889
-6.91875
-6.91857
-6.91838
-6.9182
-6.91801
-6.91782
-6.91765
-6.91753
-6.91748
-6.91748
-6.91753
-6.91762
-6.91775
-6.91793
-6.91814
-6.91835
-6.91855
-6.91873
-6.91888
-6.91902
-6.91913
-6.91921
-6.91927
-6.9193
-7.01683
-7.01687
-7.01679
-7.01668
-7.01656
-7.01644
-7.01628
-7.0161
-7.01593
-7.01577
-7.0156
-7.01542
-7.01528
-7.01518
-7.01514
-7.01513
-7.01517
-7.01525
-7.01537
-7.01554
-7.01573
-7.01592
-7.0161
-7.01626
-7.01642
-7.01656
-7.01667
-7.01674
-7.01679
-7.01681
-7.11457
-7.11451
-7.11444
-7.11433
-7.11422
-7.11408
-7.11391
-7.11375
-7.11361
-7.11346
-7.11331
-7.11316
-7.11303
-7.11294
-7.11289
-7.11287
-7.1129
-7.11298
-7.1131
-7.11324
-7.1134
-7.11357
-7.11374
-7.11391
-7.11406
-7.11419
-7.11428
-7.11434
-7.11438
-7.11441
-7.21221
-7.21212
-7.21208
-7.21199
-7.21188
-7.21175
-7.21163
-7.21151
-7.21138
-7.21124
-7.2111
-7.21096
-7.21085
-7.21075
-7.2107
-7.21069
-7.21072
-7.2108
-7.2109
-7.21103
-7.21117
-7.21132
-7.21148
-7.21163
-7.21176
-7.21187
-7.21196
-7.21202
-7.21206
-7.21209
-7.30983
-7.30986
-7.3098
-7.30972
-7.30962
-7.30952
-7.30942
-7.30931
-7.30917
-7.30903
-7.30891
-7.3088
-7.30871
-7.30863
-7.30859
-7.30859
-7.30862
-7.30869
-7.30878
-7.30889
-7.309
-7.30913
-7.30927
-7.3094
-7.30952
-7.30962
-7.3097
-7.30977
-7.30981
-7.30983
-7.40771
-7.40771
-7.40763
-7.40755
-7.40747
-7.40738
-7.40728
-7.40716
-7.40703
-7.40691
-7.40681
-7.40672
-7.40665
-7.40659
-7.40656
-7.40655
-7.40657
-7.40662
-7.40669
-7.40678
-7.40689
-7.407
-7.40712
-7.40723
-7.40734
-7.40743
-7.40751
-7.40757
-7.40761
-7.40762
-7.50557
-7.50549
-7.50545
-7.50539
-7.50532
-7.50525
-7.50516
-7.50505
-7.50494
-7.50484
-7.50475
-7.50468
-7.50462
-7.50458
-7.50455
-7.50454
-7.50455
-7.50459
-7.50465
-7.50473
-7.50482
-7.50492
-7.50502
-7.50512
-7.50521
-7.50529
-7.50536
-7.50541
-7.50545
-7.50546
-7.60335
-7.60333
-7.60331
-7.60327
-7.60321
-7.60315
-7.60307
-7.60298
-7.60288
-7.60279
-7.6027
-7.60264
-7.60259
-7.60256
-7.60255
-7.60255
-7.60256
-7.60259
-7.60264
-7.6027
-7.60278
-7.60286
-7.60295
-7.60303
-7.60312
-7.60319
-7.60325
-7.6033
-7.60334
-7.60336
-7.70127
-7.70129
-7.70127
-7.70123
-7.70118
-7.70111
-7.70104
-7.70095
-7.70085
-7.70076
-7.70068
-7.70063
-7.7006
-7.70059
-7.70059
-7.7006
-7.70061
-7.70062
-7.70065
-7.7007
-7.70075
-7.70082
-7.7009
-7.70098
-7.70106
-7.70113
-7.70119
-7.70124
-7.70127
-7.70129
-7.79928
-7.79927
-7.79923
-7.7992
-7.79915
-7.79909
-7.79901
-7.79893
-7.79885
-7.79877
-7.79871
-7.79867
-7.79864
-7.79864
-7.79864
-7.79865
-7.79865
-7.79866
-7.79868
-7.79871
-7.79876
-7.79882
-7.7989
-7.79897
-7.79905
-7.79911
-7.79917
-7.79921
-7.79924
-7.79926
-7.89724
-7.89721
-7.89719
-7.89716
-7.89712
-7.89707
-7.897
-7.89694
-7.89687
-7.89681
-7.89675
-7.89672
-7.89669
-7.89668
-7.89668
-7.89668
-7.89668
-7.8967
-7.89672
-7.89675
-7.8968
-7.89686
-7.89692
-7.89699
-7.89705
-7.89711
-7.89716
-7.8972
-7.89723
-7.89725
-7.99522
-7.99521
-7.99521
-7.99518
-7.99515
-7.9951
-7.99504
-7.99498
-7.99491
-7.99485
-7.9948
-7.99476
-7.99473
-7.99472
-7.99471
-7.99472
-7.99473
-7.99475
-7.99478
-7.99482
-7.99486
-7.99491
-7.99497
-7.99502
-7.99507
-7.99513
-7.99518
-7.99523
-7.99526
-7.99529
-8.09329
-8.09329
-8.09328
-8.09326
-8.09322
-8.09317
-8.09311
-8.09304
-8.09297
-8.09291
-8.09286
-8.09282
-8.09279
-8.09278
-8.09278
-8.09278
-8.0928
-8.09283
-8.09286
-8.0929
-8.09294
-8.09298
-8.09302
-8.09307
-8.09312
-8.09318
-8.09324
-8.09329
-8.09333
-8.09335
-8.19138
-8.19137
-8.19135
-8.19133
-8.19128
-8.19123
-8.19116
-8.19109
-8.19102
-8.19097
-8.19094
-8.19091
-8.19089
-8.19087
-8.19087
-8.19088
-8.19089
-8.19092
-8.19095
-8.19098
-8.19102
-8.19105
-8.1911
-8.19115
-8.1912
-8.19127
-8.19133
-8.19138
-8.19142
-8.19143
-8.28945
-8.28943
-8.28942
-8.28938
-8.28933
-8.28927
-8.28921
-8.28915
-8.28911
-8.28907
-8.28904
-8.28902
-8.289
-8.28898
-8.28898
-8.28898
-8.28899
-8.28901
-8.28904
-8.28907
-8.28911
-8.28915
-8.2892
-8.28925
-8.28931
-8.28937
-8.28943
-8.28947
-8.2895
-8.28951
-8.38753
-8.38753
-8.38751
-8.38747
-8.38741
-8.38736
-8.38731
-8.38727
-8.38723
-8.3872
-8.38717
-8.38714
-8.38712
-8.3871
-8.38709
-8.38709
-8.3871
-8.38712
-8.38714
-8.38718
-8.38722
-8.38726
-8.38731
-8.38736
-8.38742
-8.38747
-8.38752
-8.38756
-8.38758
-8.38759
-8.48566
-8.48566
-8.48563
-8.48559
-8.48554
-8.48549
-8.48545
-8.48541
-8.48537
-8.48533
-8.48529
-8.48526
-8.48523
-8.48521
-8.4852
-8.4852
-8.48522
-8.48524
-8.48527
-8.48531
-8.48534
-8.48539
-8.48544
-8.48548
-8.48553
-8.48558
-8.48562
-8.48565
-8.48567
-8.48567
-8.58379
-8.58378
-8.58375
-8.58371
-8.58366
-8.58362
-8.58358
-8.58354
-8.58349
-8.58345
-8.58341
-8.58337
-8.58334
-8.58333
-8.58333
-8.58334
-8.58336
-8.58338
-8.58341
-8.58345
-8.58348
-8.58352
-8.58357
-8.58361
-8.58365
-8.58369
-8.58372
-8.58375
-8.58376
-8.58377
-8.68189
-8.68188
-8.68185
-8.68181
-8.68178
-8.68174
-8.68169
-8.68165
-8.6816
-8.68156
-8.68152
-8.68149
-8.68148
-8.68148
-8.68148
-8.68149
-8.68151
-8.68153
-8.68156
-8.68159
-8.68162
-8.68166
-8.6817
-8.68174
-8.68177
-8.68181
-8.68183
-8.68185
-8.68186
-8.68187
-8.77997
-8.77996
-8.77994
-8.77991
-8.77988
-8.77984
-8.7798
-8.77976
-8.77972
-8.77968
-8.77966
-8.77965
-8.77964
-8.77964
-8.77964
-8.77965
-8.77966
-8.77968
-8.77969
-8.77972
-8.77975
-8.77978
-8.77982
-8.77986
-8.77989
-8.77992
-8.77994
-8.77995
-8.77995
-8.77995
-8.87804
-8.87804
-8.87803
-8.87801
-8.87798
-8.87795
-8.87791
-8.87788
-8.87786
-8.87784
-8.87782
-8.87781
-8.87781
-8.8778
-8.8778
-8.8778
-8.8778
-8.87781
-8.87782
-8.87784
-8.87787
-8.8779
-8.87793
-8.87796
-8.87799
-8.87801
-8.87802
-8.87803
-8.87803
-8.87802
-8.9761
-8.97611
-8.9761
-8.97609
-8.97607
-8.97605
-8.97603
-8.97601
-8.97599
-8.97598
-8.97597
-8.97596
-8.97595
-8.97594
-8.97594
-8.97593
-8.97593
-8.97593
-8.97594
-8.97596
-8.97598
-8.97601
-8.97603
-8.97606
-8.97607
-8.97608
-8.97609
-8.97609
-8.97608
-8.97608
-9.07414
-9.07414
-9.07414
-9.07413
-9.07413
-9.07412
-9.07412
-9.07411
-9.07411
-9.0741
-9.0741
-9.07409
-9.07408
-9.07407
-9.07406
-9.07405
-9.07405
-9.07406
-9.07407
-9.07409
-9.0741
-9.07412
-9.07413
-9.07414
-9.07415
-9.07415
-9.07414
-9.07414
-9.07413
-9.07413
-9.17217
-9.17216
-9.17216
-9.17216
-9.17217
-9.17217
-9.17218
-9.17219
-9.17219
-9.17219
-9.17219
-9.17219
-9.17219
-9.17218
-9.17218
-9.17218
-9.17219
-9.1722
-9.17221
-9.17222
-9.17222
-9.17223
-9.17223
-9.17222
-9.17222
-9.17221
-9.1722
-9.17219
-9.17218
-9.17218
-9.2702
-9.27019
-9.27019
-9.2702
-9.27022
-9.27023
-9.27025
-9.27027
-9.27028
-9.27029
-9.2703
-9.2703
-9.27031
-9.27031
-9.27032
-9.27033
-9.27033
-9.27034
-9.27035
-9.27035
-9.27034
-9.27033
-9.27032
-9.2703
-9.27029
-9.27027
-9.27026
-9.27025
-9.27024
-9.27024
-9.36826
-9.36825
-9.36826
-9.36827
-9.36829
-9.36832
-9.36834
-9.36837
-9.3684
-9.36842
-9.36843
-9.36845
-9.36846
-9.36847
-9.36848
-9.36848
-9.36849
-9.36848
-9.36848
-9.36846
-9.36845
-9.36843
-9.3684
-9.36838
-9.36836
-9.36834
-9.36832
-9.36831
-9.36831
-9.36831
-9.46635
-9.46635
-9.46636
-9.46637
-9.4664
-9.46644
-9.46647
-9.46651
-9.46654
-9.46657
-9.4666
-9.46661
-9.46663
-9.46664
-9.46664
-9.46664
-9.46663
-9.46662
-9.4666
-9.46657
-9.46655
-9.46652
-9.46649
-9.46646
-9.46644
-9.46642
-9.46641
-9.4664
-9.4664
-9.46641
-9.56449
-9.56449
-9.5645
-9.56452
-9.56455
-9.56458
-9.56462
-9.56466
-9.5647
-9.56473
-9.56476
-9.56477
-9.56478
-9.56479
-9.56478
-9.56477
-9.56476
-9.56473
-9.56471
-9.56468
-9.56465
-9.56462
-9.5646
-9.56457
-9.56455
-9.56454
-9.56453
-9.56453
-9.56453
-9.56454
-9.66267
-9.66267
-9.66268
-9.66269
-9.66272
-9.66275
-9.66278
-9.66281
-9.66284
-9.66287
-9.66288
-9.6629
-9.6629
-9.6629
-9.66289
-9.66288
-9.66286
-9.66284
-9.66282
-9.6628
-9.66277
-9.66275
-9.66273
-9.66272
-9.6627
-9.6627
-9.66269
-9.66269
-9.6627
-9.6627
-9.76089
-9.76089
-9.76089
-9.7609
-9.76091
-9.76092
-9.76093
-9.76094
-9.76095
-9.76096
-9.76097
-9.76097
-9.76097
-9.76097
-9.76097
-9.76096
-9.76096
-9.76095
-9.76094
-9.76093
-9.76092
-9.76091
-9.76091
-9.7609
-9.7609
-9.76089
-9.76089
-9.76089
-9.76089
-9.7609
4850.97
4850.97
4850.97
4850.97
4850.97
4850.97
4850.96
4850.96
4850.96
4850.96
4850.96
4850.96
4850.96
4850.96
4850.97
4850.97
4850.96
4850.96
4850.96
4850.96
4850.96
4850.96
4850.96
4850.96
4850.96
4850.96
4850.96
4850.96
4850.96
4850.96
4752.87
4752.87
4752.87
4752.87
4752.87
4752.86
4752.86
4752.86
4752.86
4752.86
4752.86
4752.86
4752.86
4752.86
4752.86
4752.86
4752.86
4752.86
4752.86
4752.86
4752.86
4752.86
4752.86
4752.86
4752.86
4752.86
4752.86
4752.86
4752.86
4752.86
4654.77
4654.77
4654.77
4654.77
4654.76
4654.76
4654.76
4654.76
4654.76
4654.76
4654.76
4654.76
4654.76
4654.76
4654.76
4654.76
4654.76
4654.76
4654.76
4654.76
4654.76
4654.76
4654.76
4654.76
4654.76
4654.76
4654.76
4654.76
4654.76
4654.76
4556.66
4556.66
4556.66
4556.66
4556.66
4556.66
4556.66
4556.66
4556.66
4556.66
4556.66
4556.66
4556.67
4556.67
4556.67
4556.67
4556.67
4556.67
4556.66
4556.66
4556.66
4556.66
4556.66
4556.66
4556.66
4556.66
4556.66
4556.66
4556.66
4556.66
4458.56
4458.56
4458.56
4458.56
4458.56
4458.56
4458.56
4458.56
4458.56
4458.56
4458.56
4458.56
4458.56
4458.56
4458.56
4458.56
4458.56
4458.56
4458.56
4458.56
4458.57
4458.57
4458.57
4458.56
4458.56
4458.56
4458.56
4458.56
4458.56
4458.56
4360.46
4360.46
4360.46
4360.46
4360.46
4360.46
4360.46
4360.46
4360.46
4360.46
4360.46
4360.46
4360.46
4360.46
4360.46
4360.46
4360.46
4360.46
4360.46
4360.46
4360.46
4360.46
4360.46
4360.46
4360.46
4360.46
4360.46
4360.46
4360.46
4360.46
4262.36
4262.36
4262.36
4262.36
4262.36
4262.36
4262.36
4262.36
4262.36
4262.36
4262.36
4262.36
4262.36
4262.36
4262.36
4262.36
4262.36
4262.36
4262.36
4262.36
4262.36
4262.36
4262.36
4262.36
4262.36
4262.36
4262.36
4262.36
4262.36
4262.36
4164.25
4164.25
4164.26
4164.26
4164.26
4164.26
4164.26
4164.26
4164.26
4164.26
4164.26
4164.26
4164.26
4164.26
4164.26
4164.26
4164.26
4164.26
4164.26
4164.26
4164.26
4164.26
4164.26
4164.26
4164.26
4164.26
4164.26
4164.26
4164.26
4164.26
4066.15
4066.15
4066.15
4066.15
4066.15
4066.16
4066.16
4066.16
4066.16
4066.15
4066.15
4066.15
4066.15
4066.15
4066.15
4066.15
4066.15
4066.15
4066.16
4066.16
4066.16
4066.16
4066.16
4066.16
4066.16
4066.16
4066.15
4066.15
4066.15
4066.15
3968.05
3968.05
3968.05
3968.05
3968.05
3968.05
3968.05
3968.05
3968.05
3968.05
3968.05
3968.05
3968.05
3968.05
3968.05
3968.05
3968.05
3968.05
3968.06
3968.06
3968.06
3968.06
3968.06
3968.06
3968.05
3968.05
3968.05
3968.05
3968.05
3968.05
3869.95
3869.95
3869.95
3869.95
3869.95
3869.95
3869.95
3869.95
3869.95
3869.95
3869.95
3869.95
3869.95
3869.95
3869.95
3869.95
3869.95
3869.96
3869.96
3869.96
3869.96
3869.96
3869.96
3869.96
3869.95
3869.95
3869.95
3869.95
3869.95
3869.95
3771.85
3771.85
3771.85
3771.85
3771.85
3771.85
3771.85
3771.85
3771.86
3771.86
3771.86
3771.86
3771.86
3771.86
3771.86
3771.86
3771.86
3771.86
3771.86
3771.86
3771.86
3771.86
3771.86
3771.86
3771.85
3771.85
3771.85
3771.86
3771.86
3771.86
3673.75
3673.75
3673.75
3673.75
3673.75
3673.75
3673.75
3673.75
3673.76
3673.76
3673.76
3673.76
3673.76
3673.76
3673.76
3673.76
3673.76
3673.76
3673.76
3673.76
3673.76
3673.76
3673.76
3673.75
3673.75
3673.76
3673.76
3673.76
3673.76
3673.76
3575.65
3575.64
3575.65
3575.65
3575.65
3575.65
3575.65
3575.66
3575.66
3575.66
3575.66
3575.66
3575.66
3575.66
3575.66
3575.66
3575.66
3575.66
3575.66
3575.66
3575.66
3575.65
3575.65
3575.65
3575.65
3575.65
3575.65
3575.65
3575.65
3575.65
3477.55
3477.55
3477.55
3477.55
3477.55
3477.55
3477.55
3477.56
3477.56
3477.56
3477.56
3477.56
3477.56
3477.56
3477.56
3477.56
3477.56
3477.56
3477.56
3477.56
3477.55
3477.55
3477.55
3477.55
3477.55
3477.55
3477.55
3477.55
3477.55
3477.55
3379.45
3379.45
3379.45
3379.45
3379.45
3379.45
3379.45
3379.46
3379.46
3379.46
3379.46
3379.46
3379.46
3379.46
3379.46
3379.46
3379.46
3379.46
3379.46
3379.45
3379.45
3379.45
3379.45
3379.45
3379.45
3379.45
3379.45
3379.45
3379.45
3379.45
3281.35
3281.35
3281.35
3281.35
3281.35
3281.35