/*--------------------------------*- C++ -*----------------------------------*\
| =========                 |                                                 |
| \\      /  F ield         | OpenFOAM: The Open Source CFD Toolbox           |
|  \\    /   O peration     | Version:  2312                                  |
|   \\  /    A nd           | Website:  www.openfoam.com                      |
|    \\/     M anipulation  |                                                 |
\*---------------------------------------------------------------------------*/
FoamFile
{
    version     2.0;
    format      ascii;
    arch        "LSB;label=32;scalar=64";
    class       volScalarField;
    location    "0.54522";
    object      p_rgh;
}
// * * * * * * * * * * * * * * * * * * * * * * * * * * * * * * * * * * * * * //

dimensions      [1 -1 -2 0 0 0 0];

internalField   nonuniform List<scalar> 
90000
(
4900.02
4900.02
4900.02
4900.02
4900.02
4900.02
4900.02
4900.01
4900.01
4900.01
4900.01
4900.01
4900.02
4900.02
4900.02
4900.02
4900.02
4900.01
4900.01
4900.01
4900.01
4900.01
4900.01
4900.01
4900.01
4900.01
4900.01
4900.01
4900.01
4900.01
4900.02
4900.02
4900.02
4900.02
4900.02
4900.02
4900.02
4900.02
4900.02
4900.02
4900.02
4900.02
4900.02
4900.02
4900.02
4900.02
4900.02
4900.02
4900.01
4900.01
4900.01
4900.01
4900.01
4900.01
4900.01
4900.01
4900.01
4900.01
4900.02
4900.04
4900.01
4900.01
4900.01
4900.01
4900.01
4900.01
4900.01
4900.01
4900.02
4900.02
4900.02
4900.02
4900.02
4900.02
4900.02
4900.02
4900.02
4900.02
4900.01
4900.01
4900.01
4900.01
4900.01
4900.01
4900.01
4900.01
4900.01
4900
4899.99
4900.02
4900.01
4900.01
4900.01
4900.01
4900.01
4900.01
4900.01
4900.01
4900.01
4900.02
4900.02
4900.02
4900.02
4900.02
4900.02
4900.02
4900.02
4900.01
4900.01
4900.01
4900.01
4900.01
4900.01
4900.01
4900.01
4900.02
4900.02
4900.02
4900
4900.01
4900.01
4900.01
4900.01
4900.01
4900.01
4900.01
4900.01
4900.01
4900.01
4900.02
4900.02
4900.02
4900.02
4900.02
4900.02
4900.01
4900.01
4900.01
4900.01
4900.01
4900.02
4900.02
4900.02
4900.02
4900.01
4900.01
4900.01
4900.01
4900
4900.01
4900.01
4900.01
4900.01
4900.01
4900.01
4900.01
4900.01
4900.01
4900.01
4900.01
4900.02
4900.02
4900.02
4900.02
4900.01
4900.01
4900.01
4900.01
4900.01
4900.01
4900.02
4900.02
4900.02
4900.02
4900.01
4900.01
4900.01
4900
4900
4900
4900.01
4900.01
4900.01
4900.01
4900.01
4900.01
4900.01
4900.01
4900.01
4900.01
4900.01
4900.01
4900.02
4900.01
4900.01
4900.01
4900.01
4900.01
4900.01
4900.01
4900.01
4900.01
4900.01
4900.01
4900.01
4900.01
4900
4900
4900
4900
4900.01
4900.01
4900.01
4900.01
4900.01
4900.01
4900.01
4900.01
4900.01
4900.01
4900.01
4900.01
4900.01
4900.01
4900.01
4900.01
4900.01
4900.01
4900.01
4900.01
4900.01
4900.01
4900.01
4900.01
4900
4900
4900
4900
4900
4900
4900.01
4900.01
4900.01
4900.01
4900.01
4900.01
4900.01
4900.01
4900
4900
4900
4900.01
4900.01
4900.01
4900.01
4900.01
4900.01
4900.01
4900.01
4900.01
4900.01
4900.01
4900
4900
4900
4900
4900
4900
4900
4900
4900.01
4900.02
4900.01
4900.01
4900.01
4900.01
4900.01
4900
4900
4900
4900
4900
4900
4900
4900
4900.01
4900.01
4900.01
4900.01
4900.01
4900.01
4900
4900
4900
4900
4899.99
4899.99
4899.99
4900
4900
4900.01
4900.02
4900.02
4900.02
4900.02
4900.02
4900.01
4900.01
4900
4900
4899.99
4899.99
4899.99
4900
4900
4900
4900
4900.01
4900.01
4900.01
4900.01
4900
4900
4900
4900
4899.99
4899.99
4900
4900
4900
4900.01
4900.03
4900.03
4900.03
4900.03
4900.02
4900.01
4900.01
4900
4900
4899.99
4899.99
4899.99
4899.99
4899.99
4900
4900
4900
4900.01
4900.01
4900.01
4900.01
4900.01
4900
4900
4900
4900
4900
4900
4900
4900.02
4900.03
4900.03
4900.03
4900.03
4900.02
4900.01
4900.01
4900
4900
4900
4899.99
4899.99
4899.99
4899.99
4900
4900
4900.01
4900.01
4900.02
4900.02
4900.02
4900.02
4900.02
4900.02
4900.01
4900.01
4900.01
4900.01
4900.01
4900.02
4900.02
4900.02
4900.02
4900.01
4900.01
4900.01
4900.01
4900.01
4900.01
4900.01
4900
4900
4900
4900
4900
4900.01
4900.01
4900.02
4900.03
4900.03
4900.03
4900.03
4900.03
4900.03
4900.03
4900.02
4900.02
4900.02
4900.01
4900.01
4899.99
4899.99
4899.99
4899.99
4899.99
4900
4900.01
4900.01
4900.02
4900.02
4900.02
4900.01
4900.01
4900.01
4900.01
4900.01
4900.02
4900.02
4900.03
4900.03
4900.03
4900.03
4900.03
4900.03
4900.03
4900.02
4900.02
4900.01
4900
4899.99
4899.95
4899.96
4899.96
4899.97
4899.98
4899.99
4900.01
4900.02
4900.03
4900.03
4900.03
4900.02
4900.02
4900.01
4900.01
4900.01
4900.01
4900.01
4900.02
4900.02
4900.02
4900.02
4900.02
4900.02
4900.02
4900.01
4900
4899.99
4899.98
4899.97
4899.92
4899.93
4899.94
4899.96
4899.97
4899.99
4900.01
4900.02
4900.02
4900.02
4900.02
4900.01
4900.01
4900.01
4900
4900
4900
4900
4900
4900.01
4900.01
4900.01
4900.01
4900.01
4900
4899.99
4899.98
4899.98
4899.98
4899.95
4899.91
4899.93
4899.94
4899.96
4899.97
4899.99
4900
4900
4900.01
4900.01
4900.01
4900.01
4900.01
4900.01
4900
4900
4900
4900
4900
4900
4900
4900
4900
4899.99
4899.98
4899.98
4899.97
4899.98
4899.99
4899.94
4899.92
4899.94
4899.95
4899.96
4899.97
4899.98
4899.99
4899.99
4900
4900
4900
4900.01
4900.01
4900.01
4900.01
4900.01
4900
4900
4900
4900
4899.99
4899.99
4899.98
4899.97
4899.97
4899.96
4899.97
4899.98
4899.98
4899.95
4899.94
4899.95
4899.96
4899.97
4899.98
4899.98
4899.99
4899.99
4900
4900.01
4900.02
4900.03
4900.03
4900.03
4900.02
4900.01
4900.01
4900
4899.99
4899.99
4899.98
4899.97
4899.96
4899.95
4899.95
4899.96
4899.97
4899.97
4899.96
4899.95
4899.95
4899.96
4899.97
4899.98
4899.99
4900
4900
4900.01
4900.02
4900.03
4900.03
4900.03
4900.03
4900.02
4900.02
4900.01
4900
4899.99
4899.98
4899.97
4899.96
4899.95
4899.95
4899.95
4899.95
4899.96
4899.96
4899.95
4899.95
4899.95
4899.96
4899.97
4899.98
4899.99
4900
4900.01
4900.02
4900.02
4900.03
4900.03
4900.03
4900.03
4900.02
4900.02
4900.01
4900.01
4900
4900
4899.98
4899.97
4899.96
4899.96
4899.96
4899.97
4899.97
4899.97
4899.96
4899.94
4899.95
4899.95
4899.97
4899.98
4899.99
4900
4900.01
4900.01
4900.02
4900.02
4900.02
4900.02
4900.02
4900.01
4900.01
4900.02
4900.02
4900.02
4900.02
4900
4899.99
4899.98
4899.98
4899.98
4899.99
4899.99
4899.98
4899.97
4899.95
4899.95
4899.95
4899.95
4899.98
4899.98
4899.99
4900
4900
4900
4900
4900.01
4900.01
4900.01
4900
4900.01
4900.02
4900.03
4900.03
4900.03
4900.02
4900.01
4900
4899.99
4899.99
4900
4900
4899.99
4899.98
4899.96
4899.96
4899.95
4899.95
4899.94
4899.98
4899.98
4899.98
4899.97
4899.97
4899.98
4899.98
4899.99
4899.99
4899.99
4900
4900.01
4900.03
4900.04
4900.04
4900.03
4900.02
4900.01
4900
4900
4900.01
4900.01
4900
4899.99
4899.98
4899.96
4899.96
4899.96
4899.96
4899.93
4899.96
4899.95
4899.94
4899.94
4899.94
4899.95
4899.96
4899.97
4899.98
4899.99
4900
4900.02
4900.04
4900.04
4900.04
4900.03
4900.02
4900.01
4900.02
4900.02
4900.02
4900
4899.99
4899.97
4899.97
4899.96
4899.96
4899.96
4899.96
4899.9
4899.91
4899.9
4899.89
4899.89
4899.91
4899.93
4899.94
4899.96
4899.97
4899.99
4900.01
4900.03
4900.04
4900.04
4900.03
4900.03
4900.02
4900.03
4900.03
4900.02
4900
4899.98
4899.96
4899.94
4899.93
4899.93
4899.93
4899.93
4899.91
4899.85
4899.84
4899.83
4899.84
4899.85
4899.88
4899.9
4899.92
4899.94
4899.96
4899.99
4900.02
4900.04
4900.05
4900.04
4900.03
4900.03
4900.03
4900.03
4900.02
4899.99
4899.96
4899.94
4899.91
4899.89
4899.88
4899.88
4899.88
4899.87
4899.85
4899.79
4899.77
4899.78
4899.8
4899.82
4899.85
4899.87
4899.9
4899.92
4899.95
4899.99
4900.02
4900.05
4900.05
4900.05
4900.04
4900.05
4900.04
4900.02
4899.99
4899.96
4899.92
4899.89
4899.86
4899.84
4899.83
4899.83
4899.82
4899.81
4899.81
4899.72
4899.71
4899.73
4899.75
4899.78
4899.81
4899.84
4899.86
4899.9
4899.95
4900
4900.03
4900.05
4900.06
4900.06
4900.06
4900.06
4900.05
4900.02
4899.98
4899.94
4899.9
4899.86
4899.83
4899.81
4899.8
4899.79
4899.76
4899.76
4899.77
4899.65
4899.65
4899.68
4899.71
4899.74
4899.77
4899.8
4899.84
4899.89
4899.95
4900
4900.04
4900.07
4900.08
4900.09
4900.09
4900.08
4900.06
4900.03
4899.99
4899.95
4899.9
4899.84
4899.81
4899.79
4899.75
4899.72
4899.71
4899.71
4899.7
4899.57
4899.58
4899.61
4899.64
4899.68
4899.71
4899.76
4899.81
4899.88
4899.95
4900.01
4900.05
4900.08
4900.11
4900.13
4900.13
4900.12
4900.1
4900.06
4900.02
4899.96
4899.89
4899.83
4899.79
4899.74
4899.68
4899.64
4899.63
4899.61
4899.59
4899.46
4899.49
4899.52
4899.56
4899.6
4899.65
4899.71
4899.78
4899.86
4899.95
4900.01
4900.07
4900.12
4900.16
4900.18
4900.19
4900.17
4900.14
4900.1
4900.03
4899.95
4899.87
4899.8
4899.74
4899.65
4899.58
4899.55
4899.52
4899.47
4899.44
4899.32
4899.35
4899.39
4899.44
4899.5
4899.57
4899.65
4899.75
4899.85
4899.94
4900.02
4900.1
4900.16
4900.22
4900.24
4900.25
4900.23
4900.19
4900.13
4900.03
4899.93
4899.85
4899.75
4899.64
4899.55
4899.47
4899.43
4899.37
4899.31
4899.29
4899.14
4899.17
4899.22
4899.29
4899.37
4899.47
4899.59
4899.71
4899.83
4899.94
4900.05
4900.15
4900.23
4900.3
4900.33
4900.33
4900.31
4900.25
4900.16
4900.06
4899.95
4899.85
4899.71
4899.58
4899.48
4899.38
4899.29
4899.2
4899.14
4899.14
4898.89
4898.93
4899
4899.09
4899.2
4899.34
4899.49
4899.65
4899.8
4899.95
4900.09
4900.22
4900.32
4900.39
4900.43
4900.43
4900.4
4900.32
4900.23
4900.11
4899.98
4899.84
4899.66
4899.51
4899.38
4899.23
4899.1
4898.98
4898.92
4898.91
4898.58
4898.63
4898.71
4898.83
4898.98
4899.17
4899.37
4899.57
4899.77
4899.96
4900.14
4900.3
4900.43
4900.51
4900.56
4900.55
4900.51
4900.42
4900.31
4900.18
4900
4899.81
4899.59
4899.4
4899.2
4899.01
4898.84
4898.71
4898.64
4898.59
4898.17
4898.23
4898.34
4898.5
4898.7
4898.94
4899.2
4899.46
4899.72
4899.97
4900.2
4900.4
4900.55
4900.65
4900.7
4900.71
4900.66
4900.56
4900.42
4900.24
4899.99
4899.75
4899.47
4899.21
4898.94
4898.7
4898.49
4898.33
4898.24
4898.18
4897.65
4897.73
4897.86
4898.07
4898.33
4898.63
4898.97
4899.31
4899.66
4899.98
4900.27
4900.5
4900.7
4900.83
4900.92
4900.92
4900.86
4900.72
4900.53
4900.28
4899.97
4899.66
4899.32
4898.96
4898.63
4898.33
4898.06
4897.86
4897.72
4897.65
4896.97
4897.07
4897.25
4897.51
4897.85
4898.24
4898.68
4899.13
4899.56
4899.97
4900.33
4900.64
4900.9
4901.09
4901.18
4901.18
4901.09
4900.92
4900.68
4900.35
4899.98
4899.57
4899.14
4898.69
4898.27
4897.87
4897.53
4897.26
4897.08
4896.97
4896.1
4896.23
4896.46
4896.8
4897.23
4897.74
4898.29
4898.86
4899.41
4899.94
4900.42
4900.82
4901.15
4901.38
4901.5
4901.5
4901.39
4901.15
4900.84
4900.42
4899.96
4899.42
4898.87
4898.3
4897.73
4897.22
4896.8
4896.46
4896.24
4896.09
4894.99
4895.14
4895.44
4895.87
4896.42
4897.07
4897.77
4898.5
4899.22
4899.89
4900.5
4901.02
4901.45
4901.74
4901.87
4901.85
4901.72
4901.43
4901.05
4900.52
4899.92
4899.22
4898.5
4897.78
4897.06
4896.42
4895.89
4895.44
4895.15
4894.96
4893.56
4893.74
4894.12
4894.67
4895.38
4896.19
4897.08
4898
4898.93
4899.79
4900.58
4901.25
4901.79
4902.14
4902.32
4902.33
4902.17
4901.8
4901.26
4900.59
4899.79
4898.92
4898.03
4897.09
4896.18
4895.38
4894.7
4894.15
4893.77
4893.55
4891.72
4891.96
4892.44
4893.12
4894.01
4895.03
4896.17
4897.33
4898.5
4899.62
4900.63
4901.49
4902.15
4902.64
4902.85
4902.87
4902.62
4902.17
4901.48
4900.65
4899.62
4898.5
4897.35
4896.17
4895.02
4894.03
4893.13
4892.45
4891.96
4891.75
4889.4
4889.7
4890.29
4891.13
4892.22
4893.49
4894.9
4896.4
4897.89
4899.32
4900.59
4901.69
4902.54
4903.15
4903.42
4903.45
4903.15
4902.55
4901.68
4900.6
4899.31
4897.91
4896.43
4894.9
4893.46
4892.24
4891.13
4890.3
4889.7
4889.4
4886.51
4886.85
4887.56
4888.57
4889.88
4891.45
4893.22
4895.11
4896.98
4898.79
4900.42
4901.81
4902.89
4903.66
4904.02
4904.02
4903.65
4902.88
4901.82
4900.44
4898.78
4897.01
4895.11
4893.24
4891.47
4889.87
4888.53
4887.55
4886.87
4886.5
4882.91
4883.3
4884.12
4885.29
4886.84
4888.75
4890.95
4893.3
4895.66
4897.95
4900
4901.77
4903.14
4904.1
4904.58
4904.59
4904.12
4903.12
4901.75
4899.99
4897.93
4895.66
4893.27
4890.92
4888.76
4886.83
4885.27
4884.13
4883.31
4882.89
4878.29
4878.83
4879.8
4880.98
4882.79
4885.06
4887.76
4890.71
4893.66
4896.57
4899.19
4901.4
4903.13
4904.36
4904.96
4905
4904.34
4903.13
4901.41
4899.18
4896.57
4893.66
4890.7
4887.77
4885.08
4882.78
4880.98
4879.83
4878.82
4878.26
4870.91
4871.8
4873.4
4875.48
4877.67
4880.29
4883.56
4887.19
4890.94
4894.62
4897.94
4900.78
4902.98
4904.52
4905.26
4905.27
4904.52
4902.98
4900.78
4897.94
4894.62
4890.94
4887.19
4883.56
4880.28
4877.68
4875.49
4873.42
4871.79
4870.88
3078.45
3099.77
3151.2
3227.3
3324.11
3423.77
3531.34
3643.25
3753.63
3871.37
3974.17
4064.34
4128.13
4168
4187.85
4187.9
4168.06
4128.2
4064.36
3974.23
3871.43
3753.63
3643.25
3531.36
3423.71
3324.1
3227.32
3151.15
3099.79
3078.49
0.934133
6.75277
16.7211
35.1799
75.0764
134.459
210.353
300.571
404.22
517.038
625.946
723.12
795.393
843.473
866.518
866.501
843.567
795.342
723.013
625.861
516.942
404.131
300.534
210.318
134.415
75.0595
35.1748
16.7145
6.71251
0.932922
0.110995
0.236131
0.560044
0.844077
1.44365
2.19643
3.61888
5.24391
6.9638
8.75883
10.577
12.1214
13.3111
14.2917
14.5936
14.5812
14.3004
13.3083
12.1171
10.5742
8.75235
6.95673
5.23804
3.61724
2.19498
1.44412
0.844616
0.560486
0.235632
0.110977
0.04995
0.0614255
0.0977173
0.130702
0.210101
0.333443
0.588689
0.889903
1.21063
1.56063
1.9423
2.28322
2.53918
2.70328
2.75272
2.75032
2.70513
2.53908
2.28336
1.94315
1.56039
1.21043
0.89037
0.589722
0.334106
0.210557
0.13095
0.0979437
0.0612358
0.0498458
0.0257488
0.024215
0.0229258
0.0208801
0.0254007
0.0370617
0.0713261
0.118484
0.172768
0.239501
0.359237
0.454255
0.526904
0.573354
0.572196
0.572075
0.574196
0.527582
0.455533
0.362845
0.240281
0.173474
0.119192
0.0719264
0.0374297
0.0255638
0.0209824
0.0230765
0.0242683
0.0256709
0.0118117
0.00966242
0.00579268
0.000944952
-0.00360524
-0.00730246
-0.00816843
-0.00654902
-0.00268981
0.00534446
0.036086
0.0732618
0.0996248
0.115972
0.115378
0.115176
0.116359
0.100187
0.0741943
0.0378456
0.00563119
-0.00243913
-0.00634451
-0.0080101
-0.00722994
-0.00360905
0.000887712
0.0057695
0.00964785
0.0118444
0.00277091
0.00113712
-0.00192391
-0.00581628
-0.010008
-0.0142568
-0.0183029
-0.0221708
-0.0257017
-0.02832
-0.0288794
-0.0224389
-0.0148891
-0.00932165
-0.00675551
-0.00681466
-0.00926868
-0.0147245
-0.0221661
-0.0285942
-0.0282448
-0.0256284
-0.0221111
-0.0182475
-0.0142123
-0.0100044
-0.00584833
-0.00196236
0.00109591
0.00278097
-0.00300411
-0.00411055
-0.00624937
-0.00916176
-0.0124578
-0.0159145
-0.0194319
-0.0228956
-0.0262343
-0.0292955
-0.0319268
-0.0339091
-0.0348126
-0.0349999
-0.0344976
-0.0344953
-0.0349858
-0.0347832
-0.0338583
-0.0318778
-0.0292559
-0.0261857
-0.0228545
-0.0193989
-0.0158954
-0.0124524
-0.0091461
-0.00627568
-0.00413995
-0.00301284
-0.0066447
-0.00741164
-0.00897772
-0.0110794
-0.0135616
-0.0162784
-0.0190895
-0.0218639
-0.0244862
-0.0268362
-0.0288284
-0.0304698
-0.0317671
-0.0327362
-0.0331208
-0.0331243
-0.0327383
-0.0317514
-0.0304226
-0.0287771
-0.0267903
-0.0244336
-0.0218262
-0.0190385
-0.0162426
-0.013566
-0.0110957
-0.00897508
-0.00742688
-0.00665565
-0.00881149
-0.00938837
-0.01049
-0.0120333
-0.013878
-0.0159492
-0.0180779
-0.0201852
-0.0221955
-0.0239999
-0.0254908
-0.0266207
-0.0273844
-0.0278653
-0.0280658
-0.0280691
-0.0278617
-0.0273597
-0.0265702
-0.0254297
-0.0239511
-0.0221536
-0.0201453
-0.018026
-0.0159086
-0.0138778
-0.0120454
-0.0105019
-0.00937776
-0.00884442
-0.00996905
-0.0103459
-0.0111161
-0.0122578
-0.013624
-0.0151261
-0.0166676
-0.0182131
-0.0196829
-0.0209857
-0.0220688
-0.02289
-0.023433
-0.0237291
-0.0238262
-0.0238247
-0.0237296
-0.0234143
-0.0228482
-0.0220264
-0.0209297
-0.0196218
-0.0181773
-0.0166379
-0.0150949
-0.013613
-0.0122575
-0.0111417
-0.0103428
-0.00997765
-0.0103309
-0.0105807
-0.011169
-0.0119528
-0.0129247
-0.0139609
-0.0150659
-0.0161671
-0.0171676
-0.0180371
-0.0187616
-0.0192986
-0.0196592
-0.0198638
-0.0199276
-0.0199215
-0.019842
-0.0196244
-0.0192522
-0.0187073
-0.0179809
-0.0170921
-0.0161115
-0.0150523
-0.0139586
-0.0129046
-0.0119446
-0.0111653
-0.0106002
-0.0103464
-0.010171
-0.0103716
-0.0107518
-0.0112791
-0.0119118
-0.0126305
-0.0133916
-0.014101
-0.0147286
-0.0152756
-0.0157051
-0.0160111
-0.0162098
-0.0163234
-0.0163486
-0.0163415
-0.0163153
-0.0162013
-0.0159878
-0.0156649
-0.0152378
-0.0146899
-0.0140558
-0.0133533
-0.0126222
-0.0119189
-0.011265
-0.0107357
-0.0103632
-0.0101948
-0.00970079
-0.00981245
-0.0100251
-0.0103754
-0.0107929
-0.0112671
-0.0117183
-0.0121169
-0.0124832
-0.0127946
-0.0130083
-0.0131401
-0.0132082
-0.0132295
-0.013225
-0.0132227
-0.0132154
-0.0131649
-0.0130788
-0.0129448
-0.0127409
-0.0124499
-0.012087
-0.0116695
-0.0112212
-0.010777
-0.0103593
-0.0100262
-0.00979905
-0.00969033
-0.00895472
-0.00900177
-0.00914847
-0.0093575
-0.00960468
-0.00985433
-0.0100739
-0.0102833
-0.010465
-0.0105768
-0.0106229
-0.0106227
-0.0105937
-0.0105553
-0.0105264
-0.0105213
-0.0105314
-0.0105534
-0.0105835
-0.0105873
-0.0105281
-0.0104135
-0.0102651
-0.0100736
-0.00983211
-0.00957453
-0.00933838
-0.00915239
-0.00902355
-0.00895991
-0.00811491
-0.00814227
-0.0082363
-0.0083222
-0.00842926
-0.00850507
-0.00858397
-0.00865895
-0.00868898
-0.00866101
-0.0085896
-0.00848953
-0.00839582
-0.00833136
-0.0082921
-0.00828592
-0.00831319
-0.00837952
-0.00846548
-0.00854364
-0.00859833
-0.00863024
-0.00863086
-0.00858227
-0.00849031
-0.00838405
-0.00828246
-0.00819664
-0.00813641
-0.00810957
-0.00723697
-0.00726058
-0.00723837
-0.00724008
-0.00725026
-0.00725743
-0.0072674
-0.00723115
-0.00714353
-0.00702924
-0.00689236
-0.0067419
-0.00660821
-0.00650368
-0.00642956
-0.00641034
-0.00645583
-0.00655911
-0.00669386
-0.00683514
-0.0069671
-0.00708255
-0.00717458
-0.0072326
-0.00725581
-0.00725412
-0.00723793
-0.00722016
-0.0072105
-0.00721072
-0.0063259
-0.00629264
-0.00626692
-0.00626399
-0.00620682
-0.00615609
-0.00605522
-0.00591641
-0.00577986
-0.00563543
-0.00545553
-0.00526158
-0.00509945
-0.00498527
-0.00491856
-0.00491326
-0.00497337
-0.00508767
-0.00523662
-0.00540462
-0.00558144
-0.00575708
-0.00591822
-0.00604766
-0.00613786
-0.00619655
-0.00623632
-0.00626762
-0.00629362
-0.0063126
-0.00551451
-0.00545229
-0.0054379
-0.00536741
-0.00527793
-0.0051631
-0.00500128
-0.00484923
-0.00470112
-0.00451442
-0.004293
-0.00408655
-0.00392934
-0.00381637
-0.00373955
-0.00371466
-0.00375992
-0.00387463
-0.00404245
-0.00424074
-0.00444909
-0.00465184
-0.00483829
-0.00499913
-0.00512994
-0.00523301
-0.0053131
-0.00537557
-0.00542258
-0.00545253
-0.00462728
-0.00466556
-0.00459369
-0.00448988
-0.00440712
-0.00425319
-0.00408798
-0.00393413
-0.00375295
-0.00353721
-0.00332162
-0.0031335
-0.00297492
-0.00284371
-0.0027553
-0.00273555
-0.00280012
-0.00293276
-0.00310685
-0.00329912
-0.00349803
-0.00370019
-0.00390182
-0.00409119
-0.00425401
-0.00438333
-0.00448217
-0.00455859
-0.00461581
-0.0046501
-0.00401978
-0.00394803
-0.00387714
-0.00379398
-0.00366114
-0.00348719
-0.00333169
-0.00316285
-0.00296351
-0.00275696
-0.00256004
-0.00237096
-0.00219734
-0.00206459
-0.00199697
-0.00200048
-0.00206779
-0.00218
-0.00232603
-0.00250144
-0.00270253
-0.00291966
-0.00313635
-0.00333319
-0.0034975
-0.00362889
-0.00373418
-0.00381851
-0.00387981
-0.00391315
-0.00334865
-0.00326881
-0.00320909
-0.00312127
-0.00297081
-0.00283625
-0.00269666
-0.00252225
-0.00233392
-0.00214972
-0.00196146
-0.00176742
-0.00159573
-0.00148041
-0.0014308
-0.00143431
-0.00147996
-0.00156683
-0.00170072
-0.00187951
-0.00208712
-0.00230012
-0.00249963
-0.00267679
-0.00283138
-0.00296554
-0.00307783
-0.00316367
-0.00321964
-0.00324736
-0.00267568
-0.0027194
-0.00263767
-0.00253167
-0.00241258
-0.00229132
-0.00212943
-0.00194816
-0.00177846
-0.00161652
-0.00144648
-0.00127426
-0.00112867
-0.00103325
-0.000987902
-0.000983423
-0.00101628
-0.00109535
-0.00122443
-0.00139324
-0.00158071
-0.00176774
-0.00194606
-0.00211489
-0.00227219
-0.00241003
-0.00251815
-0.00259201
-0.00263627
-0.00266003
-0.00232258
-0.00226002
-0.00218859
-0.00208425
-0.00197452
-0.00182958
-0.00166019
-0.00150216
-0.00135911
-0.00121475
-0.00106286
-0.000913573
-0.000784868
-0.000690771
-0.000636041
-0.000622573
-0.000652419
-0.000728283
-0.000845506
-0.000992193
-0.00115465
-0.00132347
-0.00149395
-0.00166057
-0.00181303
-0.00193905
-0.00203142
-0.00209284
-0.00213275
-0.00215858
-0.00185556
-0.00176672
-0.00172591
-0.00164034
-0.001534
-0.00140372
-0.00127689
-0.00115726
-0.00102927
-0.000889086
-0.000747013
-0.000613351
-0.000495625
-0.000403655
-0.000348721
-0.000338691
-0.000374163
-0.000449165
-0.0005542
-0.000680454
-0.000821634
-0.000972851
-0.00112804
-0.00127811
-0.00141239
-0.00152274
-0.00160694
-0.00166848
-0.00171221
-0.00173943
-0.00137842
-0.00140671
-0.00134916
-0.00127083
-0.00117469
-0.00107417
-0.000973745
-0.000857921
-0.000722955
-0.000584701
-0.000459453
-0.00035088
-0.000257303
-0.000183755
-0.00014148
-0.000138655
-0.000174415
-0.000240967
-0.00032979
-0.000435431
-0.000554827
-0.000684284
-0.000817788
-0.000947676
-0.00106665
-0.00116952
-0.00125353
-0.00131759
-0.00136118
-0.00138366
-0.0011598
-0.00115601
-0.00107868
-0.00100409
-0.000919666
-0.000832516
-0.000732109
-0.000610195
-0.000478516
-0.000356983
-0.00025594
-0.00017267
-0.000101375
-4.34495e-05
-7.04584e-06
5.17446e-07
-2.23218e-05
-7.20288e-05
-0.000143746
-0.00023341
-0.000337279
-0.000450572
-0.000567403
-0.000681797
-0.000788487
-0.000882933
-0.000961081
-0.00101975
-0.00105754
-0.001075
-0.000919688
-0.000843717
-0.000797946
-0.000740304
-0.000673119
-0.000598606
-0.000508006
-0.000401611
-0.00029129
-0.00018976
-0.00010329
-3.16874e-05
2.7472e-05
7.41495e-05
0.000104708
0.000114591
0.000100583
6.25373e-05
2.45259e-06
-7.60076e-05
-0.000167908
-0.00026752
-0.000369204
-0.000468144
-0.000560356
-0.000642227
-0.000710342
-0.000762096
-0.000796528
-0.000814104
-0.000601666
-0.00057607
-0.000560094
-0.000516724
-0.000463466
-0.000399552
-0.000320641
-0.000228869
-0.000131055
-3.56554e-05
4.84944e-05
0.00011457
0.000160434
0.000188209
0.000201065
0.000200638
0.000186146
0.000156051
0.000109526
4.75525e-05
-2.70312e-05
-0.000110115
-0.000197147
-0.000283758
-0.000365967
-0.00044014
-0.000503066
-0.00055231
-0.000586536
-0.00060518
-0.000423037
-0.000441561
-0.000416652
-0.000376503
-0.000327088
-0.000263492
-0.000185161
-9.5967e-05
-1.51671e-06
9.01966e-05
0.00016855
0.000224185
0.000254309
0.000263867
0.000261482
0.000253823
0.000242517
0.000225036
0.000197009
0.000154945
9.78799e-05
2.77889e-05
-5.1003e-05
-0.00013291
-0.000212226
-0.000283994
-0.000344503
-0.000391366
-0.000423314
-0.000439762
-0.00033155
-0.00031641
-0.000282442
-0.000246966
-0.000199852
-0.000137257
-6.25823e-05
1.84147e-05
0.000100354
0.000176999
0.000240462
0.000283938
0.000305892
0.000311276
0.000308401
0.000303952
0.000299585
0.000291812
0.000274547
0.000242493
0.000193475
0.00012926
5.48999e-05
-2.2899e-05
-9.76005e-05
-0.000164149
-0.000219421
-0.000261845
-0.000290686
-0.000305376
-0.000192117
-0.00015932
-0.000138794
-0.000111968
-7.11925e-05
-1.66908e-05
4.70075e-05
0.000114576
0.00018151
0.000243438
0.000295621
0.000334132
0.000357873
0.0003692
0.000372467
0.000371052
0.000365966
0.000354695
0.000333438
0.000299209
0.000251562
0.000192868
0.000127568
6.07574e-05
-3.18284e-06
-6.12614e-05
-0.000111687
-0.000153123
-0.000183903
-0.000201735
-7.1406e-05
-6.44152e-05
-5.62091e-05
-3.47586e-05
4.28633e-07
4.92721e-05
0.000108764
0.000173859
0.000238982
0.000298974
0.000349971
0.000389683
0.000417242
0.00043305
0.00043816
0.000433547
0.000420288
0.000398402
0.000368148
0.00033019
0.000285883
0.000236911
0.000184972
0.000131376
7.70699e-05
2.30887e-05
-2.8785e-05
-7.55066e-05
-0.000112749
-0.000135573
-3.60348e-05
-4.1445e-05
-3.1172e-05
-9.97484e-06
2.57689e-05
7.79394e-05
0.000143253
0.00021459
0.000283739
0.000344183
0.000393032
0.000430078
0.000455882
0.000470624
0.000474157
0.000465785
0.000447538
0.000420387
0.000387247
0.000350812
0.000312532
0.000272438
0.000229374
0.000181818
0.000129035
7.21136e-05
1.4537e-05
-3.80841e-05
-7.90715e-05
-0.000102341
-2.50638e-05
-1.68695e-05
-1.8151e-06
2.31247e-05
6.54475e-05
0.000124446
0.000193484
0.000263236
0.000325394
0.000375555
0.000413656
0.00044191
0.000462487
0.000475607
0.000479764
0.000473356
0.000456552
0.000431655
0.000401602
0.000368698
0.000333665
0.000295546
0.000252375
0.000202415
0.000145639
8.46146e-05
2.45285e-05
-2.77836e-05
-6.54548e-05
-8.35216e-05
4.75109e-06
1.81697e-05
3.47261e-05
6.72835e-05
0.000117392
0.000178377
0.000241006
0.000297542
0.000343664
0.000379282
0.000407271
0.000430312
0.000449866
0.00046505
0.000473343
0.000471589
0.000459591
0.00043855
0.000411163
0.000379003
0.000342408
0.000300805
0.000253166
0.000199202
0.000140401
8.04288e-05
2.46842e-05
-2.08307e-05
-5.09521e-05
-6.28139e-05
1.67659e-05
1.95425e-05
4.05623e-05
8.18842e-05
0.000135125
0.000190573
0.000241218
0.000284335
0.000320571
0.00035227
0.000381572
0.000409598
0.000434676
0.000453862
0.000463631
0.000463788
0.000453418
0.000433902
0.000406054
0.000372289
0.000333032
0.000288493
0.000238927
0.000185376
0.000130141
7.6775e-05
2.95531e-05
-7.38849e-06
-3.09322e-05
-3.97207e-05
-9.82987e-06
-1.18431e-05
1.73238e-05
6.29709e-05
0.000112945
0.000160056
0.000202297
0.000241205
0.000279445
0.000318342
0.000357304
0.000393422
0.000422606
0.000441977
0.000449988
0.000446372
0.000432288
0.000409738
0.000380456
0.000344905
0.000305561
0.00026195
0.000214977
0.000166218
0.000117929
7.29127e-05
3.40932e-05
4.03159e-06
-1.54558e-05
-2.35885e-05
-3.8625e-05
-3.30755e-05
7.08727e-08
4.23372e-05
8.56997e-05
0.000127604
0.000169004
0.000211587
0.000256276
0.000302097
0.000344933
0.000380796
0.000406144
0.000418606
0.000418966
0.000408901
0.000390742
0.000366561
0.000337672
0.000304758
0.000267258
0.000226844
0.000184257
0.000141051
9.93293e-05
6.13371e-05
2.91664e-05
4.51225e-06
-1.1459e-05
-1.82255e-05
-3.76855e-05
-2.6115e-05
1.98501e-06
3.64778e-05
7.4256e-05
0.000114739
0.000158385
0.00020422
0.000250215
0.000293296
0.000329699
0.000355789
0.000370342
0.000373815
0.000368226
0.000355708
0.000338273
0.000316881
0.000291689
0.000262452
0.000229019
0.000191931
0.000152894
0.0001138
7.69374e-05
4.44354e-05
1.80373e-05
-1.07136e-06
-1.22694e-05
-1.55903e-05
-1.55992e-05
-8.9171e-06
9.54693e-06
3.61735e-05
6.93598e-05
0.000107627
0.000150259
0.000193815
0.000233382
0.000265755
0.000289548
0.000304262
0.000310973
0.000311354
0.000307181
0.000299552
0.00028887
0.000274455
0.000255192
0.000230411
0.00020021
0.00016586
0.000129526
9.39831e-05
6.16843e-05
3.48131e-05
1.468e-05
1.88259e-06
-3.69937e-06
-2.91065e-06
1.10412e-05
1.01725e-05
2.11092e-05
4.14889e-05
6.9316e-05
0.000101612
0.000135994
0.000167745
0.000194282
0.000214677
0.000228894
0.000238247
0.000244544
0.000249019
0.000252073
0.000253239
0.000251045
0.000243687
0.000229705
0.000208711
0.000181625
0.00015051
0.000118172
8.79568e-05
6.23922e-05
4.28249e-05
2.99667e-05
2.36309e-05
2.29463e-05
2.64745e-05
4.80391e-05
4.48617e-05
5.15503e-05
6.47054e-05
8.27061e-05
0.000103977
0.000123735
0.00014138
0.000155818
0.00016766
0.000177709
0.000187044
0.000196803
0.000206522
0.000214984
0.000221204
0.000223072
0.000218668
0.000207115
0.00018895
0.000165934
0.00014063
0.000115873
9.40115e-05
7.83409e-05
6.81021e-05
6.31885e-05
6.27524e-05
6.54386e-05
6.97095e-05
0.000107859
0.000108089
0.000112152
0.000117211
0.000123302
0.000129536
0.000134514
0.000138307
0.000142764
0.000147882
0.000154417
0.000163462
0.000173244
0.000182923
0.000191565
0.000196428
0.000196022
0.000189865
0.000178532
0.000163437
0.000146605
0.000130571
0.000117346
0.000108307
0.000103581
0.000103293
0.000106175
0.000110697
0.000115438
0.00011914
0.000184085
0.000187923
0.00018907
0.00018706
0.00018217
0.000175811
0.000168566
0.000161852
0.000157617
0.000155986
0.000156573
0.00015949
0.000163715
0.000167601
0.000169058
0.00016688
0.000160948
0.000152206
0.000142201
0.000132685
0.000125138
0.000121115
0.00012158
0.000126177
0.000133176
0.000142236
0.000151543
0.000159523
0.00016516
0.000168135
0.000253634
0.00025832
0.000256046
0.000247908
0.000234361
0.000218291
0.000200764
0.000184063
0.000170393
0.000159957
0.000153029
0.00014769
0.000142918
0.000137637
0.000131092
0.000123341
0.000115267
0.000108368
0.000104368
0.0001048
0.000108992
0.000118046
0.000131261
0.000147305
0.000164221
0.000180223
0.000193599
0.000203449
0.000209059
0.00021048
0.000294814
0.000298691
0.000293263
0.000279771
0.000258872
0.000233354
0.000205552
0.000178945
0.000154504
0.000133911
0.000117195
0.000103396
9.18347e-05
8.19604e-05
7.37127e-05
6.76642e-05
6.48201e-05
6.63678e-05
7.32396e-05
8.57187e-05
0.000102998
0.000124173
0.000147721
0.000171553
0.000193856
0.000212724
0.000226842
0.000235656
0.000239412
0.000238668
0.000298931
0.000301762
0.000293648
0.000275317
0.000247957
0.000213871
0.000177128
0.00014045
0.000106759
7.77568e-05
5.40772e-05
3.57725e-05
2.26406e-05
1.45157e-05
1.14129e-05
1.34408e-05
2.09806e-05
3.42374e-05
5.28155e-05
7.57351e-05
0.000103433
0.000132829
0.000161722
0.000188064
0.000210767
0.000228338
0.000240062
0.000246161
0.000246866
0.000243233
0.000257381
0.000259397
0.00025058
0.000230976
0.000201784
0.00016591
0.000126124
8.61989e-05
4.94954e-05
1.82571e-05
-6.33201e-06
-2.37485e-05
-3.38158e-05
-3.67047e-05
-3.27585e-05
-2.24361e-05
-6.16005e-06
1.53328e-05
4.09141e-05
6.91732e-05
9.88228e-05
0.000127942
0.000154783
0.000178277
0.000196925
0.000210584
0.000218886
0.000221777
0.000219815
0.000214034
0.000180853
0.000181788
0.000173495
0.000156592
0.000132174
0.000102479
7.01115e-05
3.79361e-05
8.72749e-06
-1.55728e-05
-3.39879e-05
-4.59018e-05
-5.11631e-05
-4.99363e-05
-4.28374e-05
-3.04985e-05
-1.37086e-05
6.55817e-06
2.91374e-05
5.27497e-05
7.61199e-05
9.79691e-05
0.000117196
0.000133079
0.000145077
0.000153117
0.000157221
0.000157571
0.000154571
0.000148722
6.47533e-05
6.42096e-05
6.0643e-05
5.3952e-05
4.43951e-05
3.27824e-05
2.02184e-05
7.83737e-06
-3.27482e-06
-1.24382e-05
-1.91994e-05
-2.33109e-05
-2.47218e-05
-2.35682e-05
-2.00764e-05
-1.45475e-05
-7.33975e-06
1.10341e-06
1.02863e-05
1.96864e-05
2.88006e-05
3.71594e-05
4.43655e-05
5.01695e-05
5.44222e-05
5.71545e-05
5.84149e-05
5.82792e-05
5.6809e-05
5.38655e-05
4900.02
4900.02
4900.02
4900.02
4900.02
4900.02
4900.02
4900.01
4900.01
4900.01
4900.01
4900.01
4900.02
4900.02
4900.02
4900.02
4900.02
4900.01
4900.01
4900.01
4900.01