/*--------------------------------*- C++ -*----------------------------------*\
| =========                 |                                                 |
| \\      /  F ield         | OpenFOAM: The Open Source CFD Toolbox           |
|  \\    /   O peration     | Version:  2312                                  |
|   \\  /    A nd           | Website:  www.openfoam.com                      |
|    \\/     M anipulation  |                                                 |
\*---------------------------------------------------------------------------*/
FoamFile
{
    version     2.0;
    format      ascii;
    arch        "LSB;label=32;scalar=64";
    class       surfaceScalarField;
    location    "0.54522";
    object      phi;
}
// * * * * * * * * * * * * * * * * * * * * * * * * * * * * * * * * * * * * * //

dimensions      [0 3 -1 0 0 0 0];

oriented        oriented;

internalField   nonuniform List<scalar> 
263100
(
-8.1559e-11
1.63119e-10
-8.1559e-11
-6.72775e-10
9.10347e-10
-2.4451e-10
-1.08916e-09
7.37273e-10
-2.57241e-10
-1.37108e-09
6.27001e-10
-2.87501e-10
-1.52409e-09
4.97275e-10
-2.95175e-10
-1.54125e-09
3.34822e-10
-2.79053e-10
-1.43801e-09
1.78123e-10
-2.54173e-10
-1.26113e-09
6.72684e-11
-2.28378e-10
-1.07663e-09
2.4831e-11
-2.0426e-10
-9.13835e-10
4.3126e-11
-2.10143e-10
-7.75398e-10
1.08668e-10
-2.58837e-10
-6.41163e-10
1.95965e-10
-3.47262e-10
-4.64607e-10
2.55783e-10
-4.52601e-10
-2.01937e-10
2.63352e-10
-5.47494e-10
1.73513e-10
2.16666e-10
-6.13417e-10
6.49682e-10
1.2941e-10
-6.26014e-10
1.14575e-09
4.90981e-11
-5.64953e-10
1.54598e-09
6.84373e-12
-4.27193e-10
1.75582e-09
4.07414e-11
-2.72884e-10
1.69583e-09
1.57102e-10
-1.24116e-10
1.33976e-09
3.34411e-10
-1.31525e-11
7.07394e-10
5.56916e-10
2.95139e-11
-1.34662e-10
7.42477e-10
3.95118e-11
-1.03438e-09
8.36514e-10
-1.33247e-11
-1.74104e-09
7.2592e-10
-1.13286e-10
-2.06202e-09
3.95528e-10
-1.85596e-10
-1.98457e-09
-5.2536e-11
-1.50839e-10
-1.82345e-09
-4.23561e-10
1.25465e-10
-1.81885e-09
-9.16123e-10
7.68707e-10
-5.74169e-09
3.77992e-09
-2.61089e-10
7.7229e-10
-2.61089e-10
-5.02833e-10
1.49725e-09
-2.44909e-10
-6.88139e-10
1.2362e-09
-2.27821e-10
-8.52355e-10
1.05062e-09
-1.88091e-10
-9.84013e-10
8.28962e-10
-1.45957e-10
-1.07659e-09
5.80412e-10
-1.17459e-10
-1.12122e-09
3.45524e-10
-1.0541e-10
-1.12132e-09
1.81064e-10
-1.12802e-10
-1.06975e-09
1.05279e-10
-1.44854e-10
-9.54176e-10
9.97147e-11
-1.95133e-10
-7.72639e-10
1.46821e-10
-2.48859e-10
-5.23104e-10
2.01084e-10
-2.86057e-10
-2.21998e-10
2.29006e-10
-3.04635e-10
1.04222e-10
2.14054e-10
-3.03893e-10
4.23249e-10
1.57232e-10
-2.82431e-10
6.79711e-10
9.9096e-11
-2.45697e-10
8.58228e-10
7.47894e-11
-2.22984e-10
9.57676e-10
1.29344e-10
-2.43832e-10
9.66687e-10
2.80651e-10
-2.79137e-10
8.93045e-10
5.19212e-10
-3.32939e-10
7.7484e-10
7.80794e-10
-3.92967e-10
6.27277e-10
1.00837e-09
-3.94349e-10
5.06026e-10
1.11431e-09
-3.70389e-10
4.57505e-10
1.03151e-09
-2.96976e-10
4.82633e-10
6.73297e-10
-1.52358e-10
6.78363e-10
3.20047e-11
-3.71655e-11
1.02137e-09
-6.23044e-10
4.31965e-12
1.05435e-09
-5.73344e-10
-1.16012e-10
-5.35142e-10
6.16784e-10
-1.77494e-10
-6.68425e-09
2.23788e-10
-2.10374e-10
1.24523e-09
-2.10374e-10
-1.85884e-10
1.62857e-09
-1.38922e-10
-2.22923e-10
1.38515e-09
-1.00923e-10
-3.24203e-10
1.20601e-09
-5.30191e-11
-4.87885e-10
1.00582e-09
-2.20193e-11
-6.83563e-10
7.78794e-10
-2.02756e-11
-8.79641e-10
5.71315e-10
-5.36906e-11
-1.0203e-09
3.99355e-10
-1.04704e-10
-1.06284e-09
2.9011e-10
-1.68623e-10
-9.63335e-10
2.09321e-10
-2.30596e-10
-7.24906e-10
1.6323e-10
-2.67684e-10
-3.84747e-10
1.22686e-10
-2.63101e-10
-1.48463e-11
9.23526e-11
-2.21441e-10
3.01362e-10
8.46066e-11
-1.61884e-10
4.93175e-10
1.03909e-10
-1.02416e-10
5.3748e-10
1.81514e-10
-8.30249e-11
4.51111e-10
3.22587e-10
-1.15174e-10
3.13145e-10
5.01217e-10
-1.91146e-10
2.11765e-10
7.19921e-10
-3.05203e-10
2.597e-10
9.38958e-10
-4.51251e-10
4.96123e-10
1.09794e-09
-5.58439e-10
9.04599e-10
1.16659e-09
-5.96038e-10
1.43911e-09
1.08057e-09
-5.5543e-10
1.99344e-09
8.04041e-10
-4.05238e-10
2.39564e-09
3.89683e-10
-2.16729e-10
2.53241e-09
-1.67144e-10
-4.97507e-11
2.53064e-09
-8.37877e-10
9.74999e-11
3.08284e-09
-9.80493e-10
-2.63669e-10
1.7861e-09
2.48714e-09
-6.85004e-10
-2.83234e-09
-2.13874e-09
-1.17904e-10
1.48387e-09
-1.17904e-10
2.46874e-11
1.42344e-09
-1.74326e-11
6.92661e-11
1.25034e-09
1.50354e-11
-1.40326e-12
1.15116e-09
4.66587e-11
-1.69136e-10
1.04175e-09
5.20962e-11
-4.08026e-10
9.25606e-10
1.5509e-11
-6.70819e-10
8.02625e-10
-3.72627e-11
-8.86425e-10
6.76966e-10
-1.17775e-10
-9.73138e-10
5.278e-10
-1.8868e-10
-9.05076e-10
3.6833e-10
-2.42352e-10
-6.86767e-10
2.18214e-10
-2.63098e-10
-3.67118e-10
8.48432e-11
-2.45016e-10
-4.76875e-11
2.67784e-11
-1.91449e-10
1.9647e-10
5.70868e-11
-1.31927e-10
3.04915e-10
1.94886e-10
-9.77173e-11
2.66401e-10
4.34263e-10
-1.02593e-10
1.44376e-10
7.03456e-10
-1.45401e-10
2.07426e-11
9.63561e-10
-2.31751e-10
1.39118e-11
1.15734e-09
-3.37603e-10
2.06568e-10
1.24176e-09
-4.22012e-10
6.60806e-10
1.19505e-09
-5.0041e-10
1.34177e-09
1.02949e-09
-5.15399e-10
2.11278e-09
7.84822e-10
-4.6638e-10
2.79405e-09
5.10062e-10
-3.92858e-10
3.18756e-09
2.95734e-10
-3.13211e-10
3.00644e-09
2.12314e-10
-2.13603e-10
2.2384e-09
2.03972e-11
-1.01626e-10
1.74112e-09
-4.14665e-10
-7.23233e-11
1.6382e-09
2.75514e-09
-1.59022e-10
3.54593e-10
-1.52445e-09
-9.78322e-12
1.44682e-09
-9.78322e-12
1.85302e-10
9.69192e-10
8.89015e-11
2.39776e-10
9.51509e-10
9.04173e-11
1.82426e-10
9.59698e-10
9.90883e-11
2.22938e-11
9.90726e-10
7.07299e-11
-2.04414e-10
1.02711e-09
1.83219e-13
-4.56985e-10
1.02188e-09
-7.00069e-11
-6.6249e-10
9.48586e-10
-1.41674e-10
-7.77487e-10
7.96749e-10
-1.96651e-10
-7.80516e-10
5.89628e-10
-2.24714e-10
-6.7728e-10
3.8127e-10
-2.35328e-10
-5.08363e-10
2.03398e-10
-2.20609e-10
-3.24861e-10
1.35137e-10
-1.93097e-10
-1.82248e-10
2.14912e-10
-1.7618e-10
-9.70209e-11
4.2777e-10
-1.76579e-10
-5.83052e-11
7.44749e-10
-1.99793e-10
-3.2618e-11
1.06687e-09
-2.41299e-10
4.55112e-11
1.30138e-09
-2.78075e-10
2.4084e-10
1.38321e-09
-2.99376e-10
6.05992e-10
1.27982e-09
-3.00389e-10
1.13117e-09
1.05167e-09
-2.97421e-10
1.76767e-09
7.52582e-10
-2.89947e-10
2.38188e-09
5.07179e-10
-2.75668e-10
2.80006e-09
4.44479e-10
-2.93552e-10
2.92192e-09
6.12898e-10
-3.75507e-10
2.67667e-09
1.04806e-09
-5.18156e-10
1.74752e-09
1.72103e-09
-6.89051e-10
4.51156e-10
1.63957e-09
-6.67754e-10
4.82808e-10
3.5288e-09
-7.12278e-10
2.40979e-09
-1.49107e-09
4.78247e-11
1.243e-09
4.78247e-11
1.92009e-10
4.86263e-10
1.10997e-10
2.13302e-10
6.32303e-10
9.62641e-11
1.69456e-10
7.532e-10
6.06367e-11
7.04762e-11
9.31939e-10
-1.40035e-11
-7.0523e-11
1.10684e-09
-8.59582e-11
-2.26805e-10
1.21635e-09
-1.54754e-10
-3.74168e-10
1.21239e-09
-1.97321e-10
-5.03081e-10
1.10006e-09
-2.16343e-10
-6.05451e-10
9.04743e-10
-2.14907e-10
-6.76017e-10
6.85053e-10
-1.97373e-10
-7.2783e-10
5.21006e-10
-1.9626e-10
-7.42187e-10
4.53451e-10
-2.07283e-10
-6.93158e-10
5.18209e-10
-2.36756e-10
-5.67945e-10
6.94463e-10
-2.66516e-10
-3.55804e-10
9.45334e-10
-2.86374e-10
-6.63602e-11
1.18008e-09
-2.8278e-10
2.93241e-10
1.29138e-09
-2.41129e-10
7.10245e-10
1.24411e-09
-1.82552e-10
1.16767e-09
1.02276e-09
-1.16473e-10
1.60227e-09
7.5729e-10
-6.32164e-11
1.95251e-09
5.22962e-10
-4.4268e-11
2.148e-09
4.92697e-10
-9.89704e-11
2.11257e-09
7.75329e-10
-2.02898e-10
1.82443e-09
1.35361e-09
-3.4779e-10
1.39014e-09
2.16391e-09
-5.66612e-10
8.63548e-10
3.24089e-09
-8.74051e-10
-9.12408e-11
3.78467e-09
-1.07577e-09
-1.67464e-10
4.85797e-09
-1.15259e-09
3.62738e-09
-1.3231e-09
-1.67047e-12
1.10995e-09
-1.67047e-12
2.04394e-11
2.18634e-10
5.99941e-12
1.07176e-11
4.72293e-10
-3.77068e-11
-2.91517e-12
7.00103e-10
-1.23064e-10
6.42574e-12
9.56898e-10
-2.01325e-10
2.22101e-11
1.21073e-09
-2.58818e-10
1.97732e-11
1.39784e-09
-2.86512e-10
-3.7701e-11
1.47541e-09
-2.79435e-10
-1.61985e-10
1.43e-09
-2.46366e-10
-3.64915e-10
1.30087e-09
-2.03507e-10
-6.27472e-10
1.13674e-09
-1.74104e-10
-8.90866e-10
9.77228e-10
-1.59186e-10
-1.07777e-09
8.59266e-10
-1.74522e-10
-1.0995e-09
8.09798e-10
-2.22675e-10
-9.25576e-10
8.18261e-10
-2.54592e-10
-5.57754e-10
8.54528e-10
-2.42547e-10
-4.55485e-11
8.83693e-10
-1.91556e-10
5.21243e-10
8.4299e-10
-1.02421e-10
1.08055e-09
6.95026e-10
2.48451e-12
1.52486e-09
5.15457e-10
7.94241e-11
1.76625e-09
3.86929e-10
1.56511e-10
1.78145e-09
4.1979e-10
1.32424e-10
1.60312e-09
7.11144e-10
2.36265e-11
1.23954e-09
1.35635e-09
-1.36753e-10
7.29589e-10
2.28945e-09
-3.35704e-10
2.17659e-10
3.33713e-09
-5.7326e-10
-7.34096e-11
4.44367e-09
-8.39524e-10
-4.39984e-10
5.11073e-09
-9.15942e-10
-3.05858e-10
5.62131e-09
-8.90706e-10
4.12416e-09
-8.42513e-10
-1.97829e-10
1.37001e-09
-1.97829e-10
-2.62297e-10
2.97679e-10
-2.27337e-10
-2.96247e-10
6.44148e-10
-3.17264e-10
-2.48938e-10
8.94027e-10
-4.00833e-10
-1.03586e-10
1.13833e-09
-4.63611e-10
8.88746e-11
1.38532e-09
-4.78951e-10
2.53363e-10
1.58328e-09
-4.36863e-10
3.10524e-10
1.71287e-09
-3.58988e-10
2.04049e-10
1.75759e-09
-2.67696e-10
-6.86709e-11
1.72218e-09
-1.84014e-10
-4.57259e-10
1.61973e-09
-1.26636e-10
-8.62549e-10
1.44802e-09
-1.02826e-10
-1.16001e-09
1.21432e-09
-1.0738e-10
-1.25377e-09
9.45334e-10
-1.09147e-10
-1.08611e-09
6.71189e-10
-1.07099e-10
-6.82931e-10
4.3027e-10
-8.18519e-11
-1.07057e-10
2.07755e-10
-1.22404e-11
5.05319e-10
4.2264e-11
7.69807e-11
1.03717e-09
-8.39842e-11
1.48551e-10
1.37818e-09
-1.28843e-10
2.28154e-10
1.48591e-09
-7.7243e-13
2.35432e-10
1.33917e-09
3.73499e-10
1.80223e-10
9.83023e-10
1.01445e-09
6.56211e-11
5.2699e-10
1.91466e-09
-7.71722e-11
9.728e-11
2.97101e-09
-2.32815e-10
-2.6801e-10
4.04475e-09
-3.49589e-10
-3.69385e-10
4.91842e-09
-4.24519e-10
-3.55694e-10
5.39904e-09
-4.0724e-10
-5.22522e-11
5.51799e-09
-3.58321e-10
4.07599e-09
-1.87809e-10
-4.93525e-10
2.24381e-09
-4.93525e-10
-5.81841e-10
7.53222e-10
-5.39871e-10
-6.34675e-10
1.1794e-09
-6.24596e-10
-4.91463e-10
1.29617e-09
-6.69605e-10
-2.40373e-10
1.45552e-09
-6.73686e-10
8.19423e-11
1.59563e-09
-6.1996e-10
3.58931e-10
1.75115e-09
-5.17643e-10
4.98339e-10
1.89475e-09
-3.8583e-10
4.33797e-10
2.01141e-09
-2.54074e-10
1.7879e-10
2.05354e-09
-1.51201e-10
-2.05378e-10
1.98289e-09
-7.36844e-11
-6.11448e-10
1.75071e-09
-1.95219e-11
-9.26751e-10
1.36187e-09
1.16559e-11
-1.06393e-09
8.49245e-10
4.37044e-11
-1.00722e-09
3.05727e-10
9.1229e-11
-7.44814e-10
-1.84604e-10
1.18087e-10
-3.45677e-10
-5.76977e-10
1.49678e-10
9.74037e-11
-8.08771e-10
1.87404e-10
4.84017e-10
-8.58329e-10
1.97965e-10
7.39683e-10
-6.93882e-10
1.60662e-10
8.35717e-10
-2.9353e-10
9.13728e-11
7.67888e-10
3.54291e-10
1.77e-11
5.66791e-10
1.20884e-09
-4.33023e-11
3.17497e-10
2.19506e-09
-8.51373e-11
8.89242e-11
3.20234e-09
-8.63615e-11
-6.05976e-11
4.08583e-09
-2.69368e-11
-6.60532e-11
4.69892e-09
2.46977e-11
5.32064e-11
4.93271e-09
8.24001e-11
2.09518e-10
4.89074e-09
1.57533e-10
3.80375e-09
1.91025e-10
-6.99178e-10
3.55464e-09
-6.99178e-10
-8.33842e-10
1.475e-09
-7.36734e-10
-8.65998e-10
1.84209e-09
-7.55116e-10
-7.43787e-10
1.7991e-09
-7.36049e-10
-4.81314e-10
1.76216e-09
-6.66058e-10
-1.68116e-10
1.75691e-09
-5.59424e-10
9.98097e-11
1.83462e-09
-4.2969e-10
2.62857e-10
1.95572e-09
-3.04075e-10
2.77553e-10
2.11061e-09
-2.06216e-10
1.61684e-10
2.17393e-09
-1.20434e-10
-5.26253e-11
2.10159e-09
-5.37719e-11
-2.92941e-10
1.79896e-09
2.44779e-12
-5.11978e-10
1.26642e-09
8.34748e-11
-6.66866e-10
5.88408e-10
1.48663e-10
-7.64674e-10
-7.65898e-11
1.89001e-10
-7.73624e-10
-6.69288e-10
1.95541e-10
-7.10023e-10
-1.09332e-09
1.67194e-10
-5.61604e-10
-1.28925e-09
7.70695e-11
-3.4187e-10
-1.2423e-09
-4.72974e-11
-1.13445e-10
-9.29915e-10
-1.56318e-10
1.1737e-10
-4.07297e-10
-2.39761e-10
3.24144e-10
3.30569e-10
-2.81207e-10
4.74871e-10
1.22966e-09
-2.69199e-10
5.36279e-10
2.18918e-09
-1.79133e-10
5.47227e-10
3.0803e-09
-6.13435e-11
5.33391e-10
3.8075e-09
5.76725e-11
5.50578e-10
4.24945e-09
1.36494e-10
5.34567e-10
4.40848e-09
1.98939e-10
4.39066e-10
4.40744e-09
2.19887e-10
3.78946e-09
1.719e-10
-6.63948e-10
4.80454e-09
-6.63948e-10
-8.74229e-10
2.15305e-09
-6.27828e-10
-1.03097e-09
2.43737e-09
-5.7866e-10
-1.05485e-09
2.19256e-09
-4.99622e-10
-9.845e-10
1.97449e-09
-4.00725e-10
-8.72683e-10
1.84547e-09
-3.07335e-10
-7.5437e-10
1.84463e-09
-2.28944e-10
-6.34937e-10
1.93253e-09
-1.98849e-10
-4.8731e-10
2.0459e-09
-1.97748e-10
-3.3868e-10
2.07991e-09
-1.9237e-10
-2.05608e-10
1.95167e-09
-1.51901e-10
-1.34784e-10
1.63084e-09
-1.05984e-10
-1.47134e-10
1.10054e-09
-5.65529e-11
-2.79632e-10
4.91976e-10
-2.77088e-11
-5.08546e-10
-7.51892e-11
-3.59429e-11
-7.78107e-10
-5.66875e-10
-8.54959e-11
-1.00388e-09
-8.96361e-10
-1.96385e-10
-1.10202e-09
-1.03931e-09
-3.37988e-10
-9.99139e-10
-9.84119e-10
-5.0472e-10
-6.97492e-10
-7.16691e-10
-6.22384e-10
-2.65074e-10
-2.59196e-10
-6.67477e-10
2.02954e-10
3.96751e-10
-6.22271e-10
6.22061e-10
1.20869e-09
-5.09929e-10
9.40965e-10
2.08403e-09
-3.67002e-10
1.13286e-09
2.90011e-09
-2.13957e-10
1.19505e-09
3.58056e-09
-8.07045e-11
1.14133e-09
4.03056e-09
2.67808e-12
9.41159e-10
4.30862e-09
3.27689e-11
5.92107e-10
4.49209e-09
2.78095e-11
4.23084e-09
1.99998e-11
-3.01526e-10
5.31517e-09
-3.01526e-10
-8.26602e-10
2.75e-09
-2.62415e-10
-1.27081e-09
2.87953e-09
-1.71156e-10
-1.64331e-09
2.52815e-09
-1.2602e-10
-1.96303e-09
2.20268e-09
-5.64514e-11
-2.1916e-09
1.9919e-09
-4.93985e-11
-2.26738e-09
1.91584e-09
-1.13305e-10
-2.16343e-09
1.92941e-09
-2.11608e-10
-1.82814e-09
1.92918e-09
-3.30519e-10
-1.31316e-09
1.85869e-09
-4.14869e-10
-7.4466e-10
1.6856e-09
-4.37306e-10
-2.7295e-10
1.40508e-09
-3.94179e-10
-3.29509e-11
1.0766e-09
-3.71468e-10
-4.78152e-11
7.4331e-10
-3.88211e-10
-2.65802e-10
4.37242e-10
-4.29644e-10
-6.18211e-10
2.23152e-10
-5.44862e-10
-9.63793e-10
5.69652e-11
-6.80635e-10
-1.11113e-09
-9.81845e-11
-8.33712e-10
-9.85461e-10
-1.7039e-10
-9.56224e-10
-6.13335e-10
-1.14281e-10
-9.85203e-10
-8.4828e-11
1.17716e-10
-9.29911e-10
4.89191e-10
5.69146e-10
-8.02271e-10
9.93206e-10
1.24632e-09
-6.38302e-10
1.36555e-09
2.07163e-09
-4.9455e-10
1.58417e-09
2.91561e-09
-3.90402e-10
1.66325e-09
3.65967e-09
-3.0946e-10
1.56676e-09
4.25522e-09
-2.44176e-10
1.29215e-09
4.71566e-09
-1.8842e-10
8.42358e-10
5.0655e-09
-1.09146e-10
5.13674e-09
3.21372e-11
1.2693e-10
4.94344e-09
1.2693e-10
-8.9633e-10
3.42459e-09
1.49391e-10
-1.75491e-09
3.34169e-09
2.14269e-10
-2.59882e-09
3.02942e-09
1.75043e-10
-3.34976e-09
2.7298e-09
7.69883e-11
-3.90301e-09
2.50138e-09
-7.9553e-11
-4.13485e-09
2.29635e-09
-2.49903e-10
-3.94399e-09
2.09452e-09
-4.39764e-10
-3.35564e-09
1.88056e-09
-6.1153e-10
-2.45821e-09
1.61444e-09
-7.16885e-10
-1.48195e-09
1.40441e-09
-7.51052e-10
-6.48944e-10
1.28011e-09
-7.5219e-10
-1.15197e-10
1.25827e-09
-7.4036e-10
8.83479e-11
1.3152e-09
-7.7273e-10
1.20585e-11
1.4014e-09
-8.5161e-10
-1.76223e-10
1.42848e-09
-9.47235e-10
-3.33166e-10
1.34228e-09
-1.03309e-09
-3.09349e-10
1.08146e-09
-1.09878e-09
-8.46115e-11
7.75318e-10
-1.07772e-09
3.01535e-10
5.39144e-10
-9.80194e-10
7.41076e-10
5.26375e-10
-8.37256e-10
1.1557e-09
8.06487e-10
-6.92298e-10
1.47975e-09
1.4134e-09
-5.69892e-10
1.71219e-09
2.23728e-09
-4.8742e-10
1.8782e-09
3.12729e-09
-4.40452e-10
1.95999e-09
3.96765e-09
-3.89136e-10
1.90059e-09
4.70294e-09
-2.98838e-10
1.63624e-09
5.32573e-09
-1.62357e-10
1.1423e-09
5.83483e-09
-1.77515e-11
6.35158e-09
1.9219e-10
4.47123e-10
3.92519e-09
4.47123e-10
-1.19367e-09
4.7332e-09
1.93216e-10
-2.52169e-09
4.45514e-09
9.1356e-11
-3.7181e-09
4.17819e-09
-5.67921e-11
-4.76038e-09
3.88691e-09
-1.96628e-10
-5.46554e-09
3.535e-09
-3.87192e-10
-5.70728e-09
3.08607e-09
-5.86058e-10
-5.3836e-09
2.5355e-09
-7.85607e-10
-4.53908e-09
1.92789e-09
-8.98098e-10
-3.39506e-09
1.40663e-09
-9.26956e-10
-2.18868e-09
1.14882e-09
-9.21783e-10
-1.13261e-09
1.20447e-09
-9.24655e-10
-3.40528e-10
1.51164e-09
-9.55957e-10
1.61683e-10
1.95064e-09
-1.0109e-09
4.5822e-10
2.31553e-09
-1.05015e-09
6.72551e-10
2.48857e-09
-1.09268e-09
8.97871e-10
2.38612e-09
-1.08718e-09
1.16661e-09
1.9637e-09
-9.94466e-10
1.46681e-09
1.42525e-09
-8.43385e-10
1.71703e-09
1.00863e-09
-6.78181e-10
1.89383e-09
8.7833e-10
-5.52756e-10
1.94689e-09
1.13623e-09
-4.54171e-10
1.9474e-09
1.73871e-09
-4.09676e-10
1.99906e-09
2.58197e-09
-4.48582e-10
2.08793e-09
3.48881e-09
-4.2924e-10
2.1598e-09
4.36944e-09
-3.52098e-10
2.074e-09
5.23305e-09
-2.1907e-10
1.75307e-09
6.00628e-09
-5.42878e-11
1.12782e-09
6.71824e-09
8.28879e-11
7.71685e-09
3.06425e-11
4.4179e-11
3.75606e-09
4.4179e-11
-1.85269e-09
6.93416e-09
-2.95534e-10
-3.39674e-09
6.42243e-09
-4.07178e-10
-4.70532e-09
6.0795e-09
-5.61219e-10
-5.74222e-09
5.68813e-09
-7.20886e-10
-6.35911e-09
5.06328e-09
-8.61597e-10
-6.45256e-09
4.17855e-09
-9.48191e-10
-5.95147e-09
3.09546e-09
-1.01183e-09
-5.03907e-09
2.03058e-09
-9.66089e-10
-3.9094e-09
1.26114e-09
-9.2912e-10
-2.74111e-09
9.57541e-10
-9.06695e-10
-1.66346e-09
1.14886e-09
-9.26977e-10
-7.17518e-10
1.68197e-09
-9.90835e-10
1.35571e-10
2.32807e-09
-1.07671e-09
9.10667e-10
2.8163e-09
-1.10565e-09
1.64948e-09
2.98967e-09
-1.0745e-09
2.31298e-09
2.80139e-09
-9.44496e-10
2.84193e-09
2.28517e-09
-7.72001e-10
3.14426e-09
1.73328e-09
-6.03313e-10
3.19167e-09
1.36922e-09
-4.7191e-10
3.00304e-09
1.35677e-09
-4.05542e-10
2.71012e-09
1.73982e-09
-4.42548e-10
2.46588e-09
2.40106e-09
-5.22208e-10
2.36152e-09
3.20453e-09
-5.54601e-10
2.36625e-09
4.05911e-09
-5.19826e-10
2.32735e-09
4.9715e-09
-4.16377e-10
2.04924e-09
6.02221e-09
-2.97382e-10
1.49691e-09
7.03104e-09
-2.33319e-10
6.67129e-10
8.08845e-09
-3.1933e-10
9.09757e-09
-5.92472e-10
-6.27005e-10
5.02877e-09
-6.27005e-10
-2.53406e-09
1.00463e-08
-9.96352e-10
-3.96739e-09
9.15769e-09
-1.10499e-09
-5.11314e-09
8.64092e-09
-1.22059e-09
-5.90998e-09
7.92946e-09
-1.26453e-09
-6.28497e-09
6.81513e-09
-1.22422e-09
-6.17567e-09
5.33986e-09
-1.15228e-09
-5.68098e-09
3.71918e-09
-1.03404e-09
-4.94968e-09
2.29484e-09
-9.37636e-10
-4.12927e-09
1.37658e-09
-8.91438e-10
-3.26441e-09
1.04075e-09
-9.02796e-10
-2.34008e-09
1.25766e-09
-9.75729e-10
-1.29113e-09
1.80274e-09
-1.09654e-09
-9.0566e-11
2.40081e-09
-1.19126e-09
1.18162e-09
2.82678e-09
-1.20849e-09
2.40122e-09
2.92956e-09
-1.11574e-09
3.43842e-09
2.7095e-09
-9.53164e-10
4.11349e-09
2.32492e-09
-7.86732e-10
4.37188e-09
2.00638e-09
-6.64919e-10
4.24833e-09
1.96803e-09
-6.50546e-10
3.86869e-09
2.24353e-09
-6.90716e-10
3.46233e-09
2.77839e-09
-7.85451e-10
3.16382e-09
3.45528e-09
-8.46946e-10
2.98823e-09
4.19033e-09
-8.25447e-10
2.79949e-09
5.03877e-09
-7.3881e-10
2.40524e-09
6.1076e-09
-6.50977e-10
1.74732e-09
7.42197e-09
-6.49973e-10
8.71931e-10
8.75769e-09
-7.89544e-10
7.41207e-11
9.97194e-09
-1.06581e-09
1.03453e-08
-1.20405e-09
-1.46182e-09
8.09798e-09
-1.46182e-09
-2.94906e-09
1.36447e-08
-1.72822e-09
-4.07977e-09
1.23222e-08
-1.6914e-09
-4.90993e-09
1.14636e-08
-1.68192e-09
-5.37532e-09
1.02224e-08
-1.56873e-09
-5.47709e-09
8.52091e-09
-1.41089e-09
-5.33362e-09
6.53914e-09
-1.21876e-09
-5.0854e-09
4.58693e-09
-1.05336e-09
-4.77668e-09
2.98912e-09
-9.85708e-10
-4.40364e-09
1.99741e-09
-1.00197e-09
-3.87647e-09
1.59489e-09
-1.09682e-09
-3.07927e-09
1.70511e-09
-1.25688e-09
-1.9049e-09
2.02979e-09
-1.41045e-09
-4.19995e-10
2.3772e-09
-1.478e-09
1.21801e-09
2.585e-09
-1.43776e-09
2.77676e-09
2.60796e-09
-1.31995e-09
4.0216e-09
2.49603e-09
-1.16318e-09
4.77731e-09
2.44502e-09
-1.05037e-09
5.04429e-09
2.54444e-09
-1.00072e-09
4.94919e-09
2.91098e-09
-1.0321e-09
4.66413e-09
3.49636e-09
-1.10709e-09
4.37866e-09
4.12666e-09
-1.13486e-09
4.11992e-09
4.80911e-09
-1.09803e-09
3.797e-09
5.56386e-09
-1.00498e-09
3.2351e-09
6.58629e-09
-9.27538e-10
2.37493e-09
7.94712e-09
-9.46278e-10
1.3602e-09
9.49444e-09
-1.07142e-09
4.05528e-10
1.09756e-08
-1.31876e-09
-1.53831e-10
1.18574e-08
-1.39422e-09
1.13698e-08
-1.21505e-09
-2.07437e-09
1.24924e-08
-2.07437e-09
-3.0414e-09
1.70233e-08
-1.96126e-09
-3.85639e-09
1.53936e-08
-1.87469e-09
-4.41009e-09
1.41491e-08
-1.8123e-09
-4.67748e-09
1.23883e-08
-1.65972e-09
-4.74227e-09
1.0244e-08
-1.50742e-09
-4.75609e-09
7.98986e-09
-1.36723e-09
-4.83949e-09
5.93631e-09
-1.2593e-09
-4.94218e-09
4.33108e-09
-1.27128e-09
-4.92e-09
3.29206e-09
-1.36394e-09
-4.60076e-09
2.73734e-09
-1.50726e-09
-3.76467e-09
2.50275e-09
-1.67256e-09
-2.4316e-09
2.39541e-09
-1.73753e-09
-7.19807e-10
2.32261e-09
-1.71032e-09
1.12238e-09
2.27441e-09
-1.61321e-09
2.81964e-09
2.26567e-09
-1.47107e-09
4.1431e-09
2.37311e-09
-1.34313e-09
5.01582e-09
2.70085e-09
-1.27493e-09
5.43698e-09
3.29215e-09
-1.28688e-09
5.59538e-09
3.99902e-09
-1.30525e-09
5.58761e-09
4.81834e-09
-1.29709e-09
5.49307e-09
5.55034e-09
-1.24212e-09
5.20991e-09
6.34156e-09
-1.12122e-09
4.60005e-09
7.34447e-09
-1.04353e-09
3.64434e-09
8.70708e-09
-1.07675e-09
2.49394e-09
1.03304e-08
-1.19963e-09
1.44089e-09
1.19455e-08
-1.40505e-09
7.21882e-10
1.30641e-08
-1.37729e-09
3.46156e-10
1.34298e-08
-1.16285e-09
1.27409e-08
-9.29381e-10
-2.16513e-09
1.70935e-08
-2.16513e-09
-2.88739e-09
2.00773e-08
-1.95099e-09
-3.63968e-09
1.83516e-08
-1.90655e-09
-4.16234e-09
1.67496e-08
-1.85466e-09
-4.47856e-09
1.46112e-08
-1.76712e-09
-4.69515e-09
1.22064e-08
-1.68401e-09
-4.94227e-09
9.84774e-09
-1.60795e-09
-5.26547e-09
7.81642e-09
-1.58688e-09
-5.57022e-09
6.2371e-09
-1.63738e-09
-5.62739e-09
5.05935e-09
-1.73282e-09
-5.22957e-09
4.17343e-09
-1.83565e-09
-4.25189e-09
3.3987e-09
-1.86008e-09
-2.78787e-09
2.7686e-09
-1.82349e-09
-1.00105e-09
2.26344e-09
-1.73001e-09
8.61714e-10
1.98531e-09
-1.60112e-09
2.57328e-09
2.01372e-09
-1.50748e-09
3.9985e-09
2.37713e-09
-1.47813e-09
5.06601e-09
3.09098e-09
-1.47851e-09
5.82518e-09
4.06121e-09
-1.49339e-09
6.32147e-09
5.08835e-09
-1.48107e-09
6.61853e-09
6.09197e-09
-1.40469e-09
6.61202e-09
7.07001e-09
-1.31535e-09
6.17865e-09
8.21967e-09
-1.25528e-09
5.31456e-09
9.65787e-09
-1.30169e-09
4.22926e-09
1.13439e-08
-1.4555e-09
3.17408e-09
1.30128e-08
-1.56185e-09
2.36408e-09
1.43004e-08
-1.46809e-09
1.77496e-09
1.50324e-08
-1.2516e-09
1.12487e-09
1.53078e-08
-1.04061e-09
1.50301e-08
-9.76098e-10
-2.13431e-09
2.15732e-08
-2.13431e-09
-2.94433e-09
2.30801e-08
-1.97464e-09
-3.83214e-09
2.13628e-08
-1.97476e-09
-4.4869e-09
1.94325e-08
-1.94211e-09
-4.96897e-09
1.70037e-08
-1.88064e-09
-5.3859e-09
1.44422e-08
-1.82777e-09
-5.82872e-09
1.20697e-08
-1.80199e-09
-6.25872e-09
1.00515e-08
-1.81678e-09
-6.51312e-09
8.37221e-09
-1.86236e-09
-6.41263e-09
6.91123e-09
-1.89727e-09
-5.80722e-09
5.55088e-09
-1.89805e-09
-4.69882e-09
4.24593e-09
-1.85835e-09
-3.20181e-09
3.15359e-09
-1.79236e-09
-1.44466e-09
2.32095e-09
-1.74637e-09
3.75163e-10
1.93062e-09
-1.71942e-09
2.13159e-09
2.04146e-09
-1.74819e-09
3.7314e-09
2.6397e-09
-1.81399e-09
5.11704e-09
3.6605e-09
-1.87258e-09
6.27029e-09
4.92826e-09
-1.89388e-09
7.12503e-09
6.26524e-09
-1.87075e-09
7.60354e-09
7.60567e-09
-1.82359e-09
7.57393e-09
9.04776e-09
-1.80451e-09
7.0668e-09
1.07073e-08
-1.88461e-09
6.24964e-09
1.25362e-08
-2.01178e-09
5.34848e-09
1.42901e-08
-2.01337e-09
4.56348e-09
1.57391e-08
-1.88447e-09
3.88205e-09
1.67626e-08
-1.66686e-09
3.00649e-09
1.75424e-08
-1.46685e-09
1.65103e-09
1.82324e-08
-1.39198e-09
1.83014e-08
-1.53148e-09
-2.18901e-09
2.60553e-08
-2.18901e-09
-3.29381e-09
2.63157e-08
-2.07802e-09
-4.42751e-09
2.45881e-08
-2.07522e-09
-5.32422e-09
2.23516e-08
-2.03448e-09
-6.06349e-09
1.96999e-08
-1.9835e-09
-6.71029e-09
1.70395e-08
-1.9721e-09
-7.29432e-09
1.46275e-08
-1.97106e-09
-7.72234e-09
1.25162e-08
-1.99623e-09
-7.83165e-09
1.06007e-08
-2.03815e-09
-7.49978e-09
8.75384e-09
-2.06201e-09
-6.70478e-09
6.92862e-09
-2.0474e-09
-5.50458e-09
5.19219e-09
-2.02901e-09
-3.96985e-09
3.74403e-09
-2.0306e-09
-2.20149e-09
2.71072e-09
-2.08979e-09
-2.78016e-10
2.26371e-09
-2.20512e-09
1.70397e-09
2.44579e-09
-2.33484e-09
3.63982e-09
3.20679e-09
-2.43599e-09
5.43139e-09
4.45755e-09
-2.50245e-09
6.94985e-09
6.01911e-09
-2.51739e-09
8.05901e-09
7.73641e-09
-2.50944e-09
8.6358e-09
9.57364e-09
-2.52267e-09
8.66935e-09
1.15594e-08
-2.58509e-09
8.30666e-09
1.36302e-08
-2.64954e-09
7.76982e-09
1.55911e-08
-2.61931e-09
7.18151e-09
1.72722e-08
-2.46166e-09
6.47124e-09
1.86513e-08
-2.20928e-09
5.43328e-09
1.98499e-08
-2.00877e-09
3.90704e-09
2.10353e-08
-1.93049e-09
1.97297e-09
2.21838e-08
-2.04696e-09
2.23096e-08
-2.16014e-09
-2.40129e-09
3.08674e-08
-2.40129e-09
-3.85843e-09
3.00254e-08
-2.29363e-09
-5.29345e-09
2.82285e-08
-2.24674e-09
-6.54167e-09
2.57393e-08
-2.17568e-09
-7.66131e-09
2.2933e-08
-2.13364e-09
-8.65652e-09
2.01773e-08
-2.1368e-09
-9.43813e-09
1.76335e-08
-2.18767e-09
-9.84723e-09
1.52604e-08
-2.27063e-09
-9.77249e-09
1.29696e-08
-2.36327e-09
-9.20109e-09
1.06888e-08
-2.42789e-09
-8.18617e-09
8.4483e-09
-2.47581e-09
-6.80139e-09
6.39203e-09
-2.55571e-09
-5.09786e-09
4.72428e-09
-2.6826e-09
-3.09472e-09
3.52341e-09
-2.829e-09
-8.28977e-10
2.96492e-09
-2.97491e-09
1.58613e-09
3.12237e-09
-3.07941e-09
3.97777e-09
3.97579e-09
-3.12708e-09
6.164e-09
5.44334e-09
-3.13478e-09
7.98046e-09
7.34527e-09
-3.13257e-09
9.2915e-09
9.5244e-09
-3.14625e-09
1.00442e-08
1.18899e-08
-3.18622e-09
1.03215e-08
1.43179e-08
-3.2079e-09
1.02814e-08
1.66184e-08
-3.13519e-09
9.99631e-09
1.86427e-08
-2.92253e-09
9.40466e-09
2.04183e-08
-2.65432e-09
8.32616e-09
2.21394e-08
-2.46812e-09
6.67332e-09
2.3865e-08
-2.43209e-09
4.56518e-09
2.55416e-08
-2.53662e-09
2.29067e-09
2.68595e-08
-2.62209e-09
2.69724e-08
-2.58641e-09
-2.69848e-09
3.62321e-08
-2.69848e-09
-4.55339e-09
3.43435e-08
-2.5191e-09
-6.42901e-09
3.24921e-08
-2.42344e-09
-8.21067e-09
2.98708e-08
-2.36593e-09
-9.89483e-09
2.69877e-08
-2.36642e-09
-1.13491e-08
2.4088e-08
-2.43499e-09
-1.23536e-08
2.12966e-08
-2.6289e-09
-1.27252e-08
1.84994e-08
-2.84373e-09
-1.24543e-08
1.57088e-08
-3.00935e-09
-1.16093e-08
1.29498e-08
-3.14161e-09
-1.02986e-08
1.03308e-08
-3.26829e-09
-8.57669e-09
7.98163e-09
-3.41572e-09
-6.42635e-09
6.03459e-09
-3.57079e-09
-3.89122e-09
4.60035e-09
-3.70037e-09
-1.04851e-09
3.85602e-09
-3.77807e-09
1.91367e-09
3.96116e-09
-3.79609e-09
4.77118e-09
4.93527e-09
-3.77953e-09
7.33535e-09
6.67859e-09
-3.76266e-09
9.46274e-09
8.994e-09
-3.77524e-09
1.10818e-08
1.16533e-08
-3.80291e-09
1.21788e-08
1.44686e-08
-3.77999e-09
1.2818e-08
1.71957e-08
-3.6398e-09
1.30227e-08
1.97018e-08
-3.39137e-09
1.26996e-08
2.20141e-08
-3.11131e-09
1.16895e-08
2.43172e-08
-2.92464e-09
9.97871e-09
2.66451e-08
-2.84707e-09
7.73586e-09
2.8941e-08
-2.94684e-09
5.24831e-09
3.08959e-08
-3.04879e-09
2.74672e-09
3.21854e-08
-3.02215e-09
3.24911e-08
-2.86718e-09
-3.0131e-09
4.22301e-08
-3.0131e-09
-5.48035e-09
3.95799e-08
-2.81512e-09
-8.03783e-09
3.77565e-08
-2.7314e-09
-1.05671e-08
3.51018e-08
-2.71175e-09
-1.29144e-08
3.21744e-08
-2.84073e-09
-1.47866e-08
2.90892e-08
-3.13123e-09
-1.59297e-08
2.58574e-08
-3.4348e-09
-1.62496e-08
2.24721e-08
-3.70033e-09
-1.57742e-08
1.90516e-08
-3.90794e-09
-1.46217e-08
1.57505e-08
-4.08615e-09
-1.2883e-08
1.26953e-08
-4.26503e-09
-1.0591e-08
9.96562e-09
-4.43934e-09
-7.7572e-09
7.6423e-09
-4.57244e-09
-4.48391e-09
5.89675e-09
-4.63971e-09
-9.45107e-10
4.96131e-09
-4.64123e-09
2.60258e-09
5.08408e-09
-4.60537e-09
5.95348e-09
6.26952e-09
-4.58705e-09
8.97098e-09
8.35808e-09
-4.60123e-09
1.15708e-08
1.10797e-08
-4.61688e-09
1.36761e-08
1.41439e-08
-4.55832e-09
1.52365e-08
1.72978e-08
-4.36744e-09
1.61877e-08
2.03609e-08
-4.08758e-09
1.63841e-08
2.33456e-08
-3.79607e-09
1.56593e-08
2.63628e-08
-3.57864e-09
1.40586e-08
2.93784e-08
-3.4464e-09
1.1763e-08
3.23549e-08
-3.45817e-09
9.04755e-09
3.50941e-08
-3.53278e-09
6.2195e-09
3.7166e-08
-3.54003e-09
3.41628e-09
3.83491e-08
-3.40266e-09
3.90487e-08
-3.11081e-09
-3.4661e-09
4.91435e-08
-3.4661e-09
-6.8875e-09
4.62197e-08
-3.29119e-09
-1.03553e-08
4.44535e-08
-3.28638e-09
-1.37046e-08
4.18996e-08
-3.49647e-09
-1.66464e-08
3.88901e-08
-3.81482e-09
-1.88564e-08
3.54237e-08
-4.16508e-09
-2.01017e-08
3.15368e-08
-4.486e-09
-2.03417e-08
2.73916e-08
-4.75445e-09
-1.96561e-08
2.32496e-08
-4.98646e-09
-1.81399e-08
1.93274e-08
-5.21735e-09
-1.58405e-08
1.57155e-08
-5.44436e-09
-1.27969e-08
1.24458e-08
-5.62149e-09
-9.10498e-09
9.61842e-09
-5.71265e-09
-4.97505e-09
7.51982e-09
-5.73156e-09
-6.93621e-10
6.46699e-09
-5.7057e-09
3.51571e-09
6.67312e-09
-5.67909e-09
7.50425e-09
8.09215e-09
-5.68191e-09
1.11933e-08
1.04674e-08
-5.67896e-09
1.4478e-08
1.34825e-08
-5.58248e-09
1.72095e-08
1.68755e-08
-5.36423e-09
1.9204e-08
2.04572e-08
-5.05269e-09
2.02654e-08
2.41408e-08
-4.74302e-09
2.02017e-08
2.79051e-08
-4.4223e-09
1.89872e-08
3.18324e-08
-4.23406e-09
1.68529e-08
3.56748e-08
-4.20692e-09
1.40978e-08
3.92289e-08
-4.21029e-09
1.0962e-08
4.23098e-08
-4.16849e-09
7.67728e-09
4.44588e-08
-4.04848e-09
4.29827e-09
4.55658e-08
-3.83691e-09
4.68177e-08
-3.50399e-09
-4.18276e-09
5.74679e-08
-4.18276e-09
-8.88989e-09
5.49471e-08
-4.17275e-09
-1.34018e-08
5.32343e-08
-4.40025e-09
-1.75438e-08
5.06521e-08
-4.72061e-09
-2.09732e-08
4.73237e-08
-5.08505e-09
-2.34157e-08
4.32458e-08
-5.43179e-09
-2.47377e-08
3.85527e-08
-5.72703e-09
-2.49459e-08
3.35722e-08
-5.99836e-09
-2.40791e-08
2.8636e-08
-6.27832e-09
-2.21472e-08
2.39487e-08
-6.57445e-09
-1.91725e-08
1.95575e-08
-6.82258e-09
-1.52408e-08
1.55144e-08
-6.9782e-09
-1.05904e-08
1.20723e-08
-7.04897e-09
-5.55244e-09
9.61749e-09
-7.05415e-09
-4.26795e-10
8.47614e-09
-7.04473e-09
4.62098e-09
8.75698e-09
-7.05106e-09
9.50591e-09
1.03131e-08
-7.0433e-09
1.41139e-08
1.28609e-08
-6.95038e-09
1.82393e-08
1.6127e-08
-6.71588e-09
2.16204e-08
1.99313e-08
-6.37177e-09
2.39196e-08
2.42026e-08
-5.97803e-09
2.49083e-08
2.88271e-08
-5.63511e-09
2.45546e-08
3.36288e-08
-5.38566e-09
2.29636e-08
3.858e-08
-5.23737e-09
2.04031e-08
4.33014e-08
-5.19167e-09
1.72198e-08
4.73878e-08
-5.1051e-09
1.36196e-08
5.07071e-08
-4.89845e-09
9.62795e-09
5.29884e-08
-4.62034e-09
5.20034e-09
5.42741e-08
-4.39715e-09
5.62264e-08
-4.3736e-09
-5.36687e-09
6.81041e-08
-5.36687e-09
-1.14332e-08
6.63312e-08
-5.5636e-09
-1.69855e-08
6.44612e-08
-5.87811e-09
-2.18388e-08
6.15763e-08
-6.22555e-09
-2.57129e-08
5.76739e-08
-6.56731e-09
-2.84258e-08
5.27995e-08
-6.87002e-09
-2.9921e-08
4.72262e-08
-7.15943e-09
-3.0179e-08
4.13624e-08
-7.4836e-09
-2.91271e-08
3.54986e-08
-7.8496e-09
-2.67019e-08
2.97995e-08
-8.20213e-09
-2.29285e-08
2.43378e-08
-8.47311e-09