/*--------------------------------*- C++ -*----------------------------------*\
| =========                 |                                                 |
| \\      /  F ield         | OpenFOAM: The Open Source CFD Toolbox           |
|  \\    /   O peration     | Version:  2312                                  |
|   \\  /    A nd           | Website:  www.openfoam.com                      |
|    \\/     M anipulation  |                                                 |
\*---------------------------------------------------------------------------*/
FoamFile
{
    version     2.0;
    format      ascii;
    arch        "LSB;label=32;scalar=64";
    class       volVectorField;
    location    "0.54522";
    object      U;
}
// * * * * * * * * * * * * * * * * * * * * * * * * * * * * * * * * * * * * * //

dimensions      [0 1 -1 0 0 0 0];

internalField   nonuniform List<vector> 
90000
(
(1.18681e-06 -1.16637e-07 1.18681e-06)
(-2.83927e-06 4.94264e-06 -3.11475e-07)
(-9.44519e-06 3.95083e-06 -6.16606e-07)
(-1.23471e-05 3.33551e-06 -1.10831e-06)
(-1.45596e-05 2.69183e-06 -1.41371e-06)
(-1.54026e-05 1.82541e-06 -1.59902e-06)
(-1.49371e-05 9.24373e-07 -1.71963e-06)
(-1.35033e-05 2.75855e-07 -1.71887e-06)
(-1.16446e-05 3.29106e-08 -1.6023e-06)
(-9.86281e-06 2.22655e-07 -1.57274e-06)
(-8.38361e-06 6.89017e-07 -1.74659e-06)
(-7.07431e-06 1.25998e-06 -2.14833e-06)
(-5.57852e-06 1.69279e-06 -2.67939e-06)
(-3.46343e-06 1.82192e-06 -3.17678e-06)
(-2.98057e-07 1.59531e-06 -3.51365e-06)
(4.04611e-06 1.09285e-06 -3.54228e-06)
(9.00173e-06 4.40568e-07 -3.12768e-06)
(1.35442e-05 -3.645e-08 -2.21803e-06)
(1.66757e-05 -6.88398e-08 -1.20359e-06)
(1.74873e-05 4.81636e-07 -1.61783e-07)
(1.54499e-05 1.50472e-06 5.78399e-07)
(1.05485e-05 2.83854e-06 7.12165e-07)
(3.0263e-06 3.93575e-06 2.85032e-07)
(-5.91361e-06 4.69726e-06 -6.62296e-07)
(-1.41129e-05 4.40935e-06 -2.08389e-06)
(-1.93704e-05 2.9329e-06 -3.52118e-06)
(-2.05265e-05 6.01622e-07 -4.25194e-06)
(-1.94188e-05 -2.32569e-06 -2.34465e-06)
(-1.86298e-05 -7.5617e-06 5.08161e-06)
(-9.2623e-06 -3.14082e-05 2.55971e-05)
(-1.37636e-06 4.11559e-06 -1.37636e-06)
(-3.87004e-06 1.2601e-05 -1.30507e-06)
(-5.9562e-06 1.02919e-05 -1.2279e-06)
(-7.70989e-06 8.7308e-06 -1.01884e-06)
(-9.19449e-06 6.90639e-06 -8.00478e-07)
(-1.03173e-05 4.70205e-06 -6.71908e-07)
(-1.10037e-05 2.57294e-06 -6.24143e-07)
(-1.12235e-05 1.0372e-06 -6.94279e-07)
(-1.09676e-05 4.44886e-07 -9.21378e-07)
(-1.01372e-05 7.01139e-07 -1.22739e-06)
(-8.6543e-06 1.45049e-06 -1.52048e-06)
(-6.4982e-06 2.33796e-06 -1.67766e-06)
(-3.74107e-06 2.90398e-06 -1.69528e-06)
(-5.89976e-07 2.87526e-06 -1.59316e-06)
(2.66644e-06 2.26672e-06 -1.36776e-06)
(5.56585e-06 1.31415e-06 -1.08757e-06)
(7.73867e-06 4.69883e-07 -8.70393e-07)
(9.12463e-06 3.14191e-07 -9.99411e-07)
(9.68113e-06 1.19786e-06 -1.25228e-06)
(9.33255e-06 3.09601e-06 -1.67254e-06)
(8.33719e-06 5.55962e-06 -2.14586e-06)
(6.97111e-06 8.13717e-06 -2.27409e-06)
(5.51788e-06 9.83202e-06 -2.21134e-06)
(4.62106e-06 1.01556e-05 -1.8133e-06)
(4.52407e-06 7.88528e-06 -9.43038e-07)
(5.55175e-06 2.90122e-06 -2.55329e-07)
(8.3587e-06 -2.89341e-06 -6.21682e-07)
(1.27512e-05 -4.723e-06 -2.50312e-06)
(1.17307e-06 -5.21083e-06 -2.91782e-06)
(-6.40287e-06 -6.74984e-05 9.15308e-08)
(-1.5084e-06 1.05641e-05 -1.5084e-06)
(-2.16771e-06 1.61813e-05 -1.0363e-06)
(-1.77322e-06 1.35587e-05 -7.54757e-07)
(-2.67424e-06 1.16313e-05 -3.78543e-07)
(-3.97396e-06 9.37761e-06 -1.17407e-07)
(-5.80766e-06 6.85179e-06 -2.59087e-08)
(-7.81459e-06 4.55746e-06 -1.56279e-07)
(-9.54419e-06 2.84235e-06 -4.51616e-07)
(-1.0513e-05 1.88461e-06 -8.74277e-07)
(-1.02661e-05 1.57527e-06 -1.26067e-06)
(-8.55296e-06 1.60863e-06 -1.49315e-06)
(-5.58469e-06 1.73103e-06 -1.44036e-06)
(-1.93961e-06 1.71525e-06 -1.12883e-06)
(1.56157e-06 1.5208e-06 -6.69692e-07)
(4.12427e-06 1.20124e-06 -1.86181e-07)
(5.29523e-06 1.08955e-06 7.89732e-08)
(5.01913e-06 1.54031e-06 -9.39929e-08)
(3.80905e-06 2.84583e-06 -6.41038e-07)
(2.47022e-06 4.90201e-06 -1.47942e-06)
(2.09093e-06 7.43751e-06 -2.40264e-06)
(3.40445e-06 9.76359e-06 -3.12711e-06)
(6.61252e-06 1.14088e-05 -3.37913e-06)
(1.15202e-05 1.1582e-05 -3.05389e-06)
(1.71515e-05 9.69336e-06 -2.01471e-06)
(2.20678e-05 5.49254e-06 -2.19227e-07)
(2.48543e-05 -1.31206e-06 2.2886e-06)
(2.53381e-05 -8.41084e-06 3.73746e-06)
(2.90231e-05 -7.6324e-06 9.21596e-07)
(2.51944e-05 1.58742e-05 -2.30202e-06)
(8.84871e-06 -4.97869e-05 -1.2452e-05)
(-1.1923e-06 1.40055e-05 -1.1923e-06)
(-6.41943e-07 1.5725e-05 -4.77415e-07)
(9.19972e-07 1.35773e-05 -1.72744e-07)
(4.96473e-07 1.20958e-05 2.03687e-07)
(-6.86819e-07 1.04738e-05 3.8931e-07)
(-2.83046e-06 8.73703e-06 3.89852e-07)
(-5.38438e-06 7.02793e-06 1.34881e-07)
(-7.84171e-06 5.48751e-06 -2.98247e-07)
(-9.41907e-06 4.1124e-06 -7.25772e-07)
(-9.53991e-06 2.8934e-06 -1.08628e-06)
(-8.06711e-06 1.84359e-06 -1.25243e-06)
(-5.29208e-06 9.70948e-07 -1.16632e-06)
(-1.94691e-06 4.63741e-07 -8.38917e-07)
(9.46434e-07 5.37072e-07 -4.48989e-07)
(2.68304e-06 1.33654e-06 -1.89947e-07)
(3.02373e-06 2.86712e-06 -1.80909e-07)
(2.11877e-06 4.99168e-06 -4.70326e-07)
(6.70084e-07 7.40281e-06 -1.06194e-06)
(-2.46542e-07 9.585e-06 -1.78248e-06)
(6.18862e-07 1.12026e-05 -2.333e-06)
(3.88115e-06 1.18216e-05 -2.78294e-06)
(9.69441e-06 1.13779e-05 -2.80282e-06)
(1.72179e-05 9.57895e-06 -2.36949e-06)
(2.46397e-05 6.64684e-06 -1.49049e-06)
(3.01975e-05 3.2244e-06 -1.8459e-07)
(3.14265e-05 -6.33192e-07 1.63092e-06)
(2.65152e-05 -5.688e-06 3.79207e-06)
(1.99291e-05 -9.78743e-06 4.48979e-06)
(1.74284e-05 2.70669e-05 2.48637e-06)
(8.77528e-06 -1.0938e-05 -7.56975e-06)
(-6.16912e-07 1.49853e-05 -6.16912e-07)
(5.48891e-07 1.21319e-05 1.84996e-07)
(2.41474e-06 1.11675e-05 4.42159e-07)
(2.20592e-06 1.07023e-05 6.18547e-07)
(1.12749e-06 1.03302e-05 6.35246e-07)
(-8.43218e-07 9.91841e-06 4.99431e-07)
(-3.30224e-06 9.23746e-06 1.87952e-07)
(-5.66562e-06 8.14056e-06 -1.79455e-07)
(-7.33459e-06 6.59736e-06 -5.12759e-07)
(-7.9006e-06 4.67609e-06 -7.60614e-07)
(-7.3347e-06 2.70468e-06 -8.87518e-07)
(-5.93764e-06 1.12736e-06 -8.76259e-07)
(-4.14953e-06 4.43068e-07 -8.14094e-07)
(-2.4589e-06 9.79256e-07 -8.11185e-07)
(-1.32149e-06 2.8935e-06 -9.07398e-07)
(-7.6804e-07 5.79749e-06 -1.10239e-06)
(-4.94847e-07 8.97416e-06 -1.3939e-06)
(-9.17696e-08 1.1616e-05 -1.62926e-06)
(1.17079e-06 1.30724e-05 -1.7532e-06)
(3.97359e-06 1.29811e-05 -1.71798e-06)
(8.51817e-06 1.15207e-05 -1.56612e-06)
(1.4445e-05 9.07629e-06 -1.26897e-06)
(2.08012e-05 6.30637e-06 -7.65049e-07)
(2.60594e-05 4.26599e-06 -3.75235e-07)
(2.88676e-05 3.88536e-06 -5.59731e-07)
(2.83946e-05 5.76059e-06 -1.24507e-06)
(2.25912e-05 7.84905e-06 -2.1365e-06)
(9.58628e-06 3.74012e-06 -1.64765e-06)
(3.29142e-06 3.11811e-05 -2.63783e-06)
(2.641e-06 1.49829e-05 -7.7036e-06)
(-9.76279e-08 1.35516e-05 -9.76279e-08)
(9.868e-07 7.1016e-06 5.73996e-07)
(2.19633e-06 7.73146e-06 5.96271e-07)
(1.97047e-06 8.48521e-06 5.17264e-07)
(1.25037e-06 9.60176e-06 3.2582e-07)
(3.65173e-08 1.06529e-05 6.1567e-08)
(-1.46464e-06 1.11659e-05 -2.2846e-07)
(-2.99412e-06 1.07751e-05 -4.1426e-07)
(-4.38152e-06 9.39435e-06 -5.13641e-07)
(-5.54175e-06 7.26177e-06 -5.59304e-07)
(-6.40968e-06 4.90811e-06 -5.8352e-07)
(-7.02975e-06 3.05013e-06 -7.48339e-07)
(-7.38145e-06 2.38316e-06 -1.03079e-06)
(-7.23031e-06 3.22598e-06 -1.36825e-06)
(-6.37277e-06 5.54055e-06 -1.73423e-06)
(-4.69307e-06 8.68202e-06 -2.00873e-06)
(-2.20348e-06 1.16732e-05 -2.06801e-06)
(1.02339e-06 1.3478e-05 -1.78314e-06)
(4.94608e-06 1.35791e-05 -1.28828e-06)
(9.37905e-06 1.18921e-05 -6.31278e-07)
(1.38785e-05 9.20406e-06 -4.08053e-09)
(1.78548e-05 6.26275e-06 6.20358e-07)
(2.06448e-05 4.56876e-06 7.34198e-07)
(2.14872e-05 5.46081e-06 3.22209e-07)
(1.98492e-05 9.24033e-06 -6.0008e-07)
(1.61474e-05 1.58754e-05 -2.23806e-06)
(1.155e-05 2.51041e-05 -4.35229e-06)
(3.05324e-06 2.77755e-05 -5.56594e-06)
(-3.00392e-06 4.24662e-05 -6.12233e-06)
(-1.5402e-06 3.10156e-05 -7.35167e-06)
(-1.81535e-07 1.14521e-05 -1.81535e-07)
(-2.34607e-08 2.9175e-06 5.11287e-08)
(2.34553e-07 5.11076e-06 -1.48673e-07)
(4.65718e-08 6.97018e-06 -5.24788e-07)
(2.64992e-08 9.30766e-06 -9.09355e-07)
(1.64909e-07 1.15431e-05 -1.16403e-06)
(2.57235e-07 1.30461e-05 -1.22995e-06)
(3.26732e-08 1.34137e-05 -1.10097e-06)
(-8.3034e-07 1.25741e-05 -8.12544e-07)
(-2.51688e-06 1.08524e-05 -5.29667e-07)
(-4.92064e-06 8.84109e-06 -4.29674e-07)
(-7.61181e-06 7.10459e-06 -5.656e-07)
(-9.96341e-06 6.2157e-06 -9.52736e-07)
(-1.1074e-05 6.4567e-06 -1.48426e-06)
(-1.02975e-05 7.70072e-06 -1.92763e-06)
(-7.56209e-06 9.41636e-06 -2.05277e-06)
(-3.16259e-06 1.0842e-05 -1.8118e-06)
(2.2981e-06 1.11713e-05 -1.20774e-06)
(8.07184e-06 1.01295e-05 -3.49855e-07)
(1.31803e-05 7.97532e-06 4.64085e-07)
(1.66766e-05 5.5782e-06 1.22506e-06)
(1.79557e-05 4.31063e-06 1.49032e-06)
(1.70652e-05 5.65405e-06 1.20809e-06)
(1.42891e-05 1.04063e-05 2.26474e-07)
(9.84961e-06 1.82039e-05 -1.2752e-06)
(4.35844e-06 2.78373e-05 -2.93198e-06)
(3.56109e-07 3.92036e-05 -4.71257e-06)
(-2.85206e-06 4.56712e-05 -5.19821e-06)
(-4.22803e-06 5.33681e-05 -5.37941e-06)
(-1.81701e-06 3.93339e-05 -5.32038e-06)
(-1.18967e-06 1.16722e-05 -1.18967e-06)
(-2.48532e-06 1.69987e-06 -1.36959e-06)
(-2.86496e-06 5.16245e-06 -1.89527e-06)
(-2.85992e-06 7.52482e-06 -2.38644e-06)
(-1.81556e-06 1.03225e-05 -2.70186e-06)
(-6.21615e-08 1.29494e-05 -2.71362e-06)
(1.78485e-06 1.49354e-05 -2.36056e-06)
(2.95503e-06 1.59783e-05 -1.79706e-06)
(2.75297e-06 1.59915e-05 -1.15563e-06)
(8.60158e-07 1.51591e-05 -5.41213e-07)
(-2.52559e-06 1.37945e-05 -1.87982e-07)
(-6.63056e-06 1.21639e-05 -2.03406e-07)
(-1.02981e-05 1.04777e-05 -4.77341e-07)
(-1.23362e-05 9.00253e-06 -7.67178e-07)
(-1.19286e-05 7.8139e-06 -9.92417e-07)
(-9.01579e-06 6.80061e-06 -1.06587e-06)
(-4.07145e-06 5.78699e-06 -6.88104e-07)
(2.02728e-06 4.59018e-06 -3.01377e-08)
(7.94151e-06 3.20287e-06 7.66173e-07)
(1.23387e-05 1.96157e-06 1.36724e-06)
(1.46294e-05 1.69173e-06 1.61416e-06)
(1.44231e-05 3.6085e-06 1.42415e-06)
(1.17362e-05 8.53552e-06 7.91462e-07)
(7.53349e-06 1.64374e-05 -1.49589e-07)
(2.97993e-06 2.68526e-05 -1.29535e-06)
(-1.11733e-06 3.76278e-05 -2.3064e-06)
(-3.42311e-06 4.76326e-05 -3.04239e-06)
(-3.93423e-06 5.35764e-05 -3.16678e-06)
(-1.8816e-06 5.6477e-05 -3.04238e-06)
(9.26949e-08 4.13391e-05 -1.76408e-06)
(-3.09531e-06 1.71122e-05 -3.09531e-06)
(-5.8992e-06 4.68277e-06 -3.41061e-06)
(-6.11344e-06 8.67583e-06 -3.95976e-06)
(-5.85162e-06 1.06921e-05 -4.25302e-06)
(-3.78316e-06 1.29265e-05 -4.25293e-06)
(-7.73892e-07 1.49749e-05 -3.86064e-06)
(2.30191e-06 1.675e-05 -3.12603e-06)
(4.44962e-06 1.81471e-05 -2.17434e-06)
(4.84483e-06 1.90113e-05 -1.25213e-06)
(3.22375e-06 1.91201e-05 -4.68274e-07)
(-5.3243e-08 1.82214e-05 9.7361e-08)
(-4.1515e-06 1.62149e-05 4.35142e-07)
(-7.89293e-06 1.31223e-05 5.64091e-07)
(-1.01959e-05 9.23235e-06 5.79201e-07)
(-1.05435e-05 5.13894e-06 6.39829e-07)
(-8.8731e-06 1.26943e-06 7.38294e-07)
(-5.49886e-06 -1.91394e-06 9.11206e-07)
(-1.20651e-06 -4.0529e-06 1.12387e-06)
(3.02128e-06 -4.96286e-06 1.20829e-06)
(6.26267e-06 -4.36769e-06 9.97335e-07)
(8.00966e-06 -1.61809e-06 5.69954e-07)
(8.11533e-06 3.56502e-06 9.61049e-08)
(6.70862e-06 1.12238e-05 -4.87853e-07)
(4.39981e-06 2.08848e-05 -9.39805e-07)
(1.91738e-06 3.1508e-05 -1.11677e-06)
(-5.3425e-08 4.13232e-05 -1.04898e-06)
(-7.91787e-07 4.85504e-05 -1.04774e-06)
(-4.93377e-07 5.20829e-05 -5.82807e-07)
(1.70582e-06 5.22931e-05 1.62095e-07)
(1.8112e-06 3.95282e-05 8.05724e-07)
(-4.44115e-06 2.85282e-05 -4.44115e-06)
(-8.34624e-06 1.10669e-05 -4.70271e-06)
(-8.49085e-06 1.49073e-05 -4.9106e-06)
(-8.28565e-06 1.54946e-05 -4.85548e-06)
(-6.15334e-06 1.6147e-05 -4.42799e-06)
(-3.19587e-06 1.68782e-05 -3.71411e-06)
(-2.26737e-07 1.80149e-05 -2.79177e-06)
(1.95233e-06 1.95153e-05 -1.86005e-06)
(2.82993e-06 2.08211e-05 -1.06192e-06)
(2.29743e-06 2.15466e-05 -3.32055e-07)
(6.02135e-07 2.07605e-05 2.2426e-07)
(-1.73061e-06 1.80014e-05 7.48934e-07)
(-4.05767e-06 1.32989e-05 1.23127e-06)
(-5.94091e-06 7.2473e-06 1.57814e-06)
(-7.19777e-06 8.88979e-07 1.78891e-06)
(-7.71926e-06 -4.75035e-06 1.78929e-06)
(-7.45002e-06 -8.94806e-06 1.56977e-06)
(-6.39731e-06 -1.11012e-05 9.18148e-07)
(-4.55194e-06 -1.1031e-05 9.20361e-09)
(-2.29974e-06 -8.46112e-06 -9.70099e-07)
(9.87592e-09 -3.66263e-06 -1.8024e-06)
(2.2097e-06 3.40388e-06 -2.33247e-06)
(4.01555e-06 1.23065e-05 -2.48552e-06)
(5.07882e-06 2.21852e-05 -2.11929e-06)
(5.41404e-06 3.16783e-05 -1.64913e-06)
(5.37508e-06 3.97773e-05 -1.03127e-06)
(5.40376e-06 4.48485e-05 -2.0964e-07)
(5.41003e-06 4.66696e-05 5.334e-07)
(5.41377e-06 4.63442e-05 8.82821e-07)
(2.78496e-06 3.782e-05 7.79311e-07)
(-4.1027e-06 4.22957e-05 -4.1027e-06)
(-8.29582e-06 1.82226e-05 -3.94174e-06)
(-9.52951e-06 2.15186e-05 -3.74262e-06)
(-1.05737e-05 2.00399e-05 -3.3205e-06)
(-1.01929e-05 1.87371e-05 -2.68075e-06)
(-9.26307e-06 1.80588e-05 -2.03022e-06)
(-8.08664e-06 1.84439e-05 -1.45618e-06)
(-6.90891e-06 1.96696e-05 -1.15231e-06)
(-5.60087e-06 2.09598e-05 -1.02014e-06)
(-4.11455e-06 2.16442e-05 -9.24929e-07)
(-2.68416e-06 2.06557e-05 -5.21051e-07)
(-1.63168e-06 1.73703e-05 -6.30586e-08)
(-1.29318e-06 1.18575e-05 5.70877e-07)
(-1.93806e-06 5.18744e-06 1.07602e-06)
(-3.79714e-06 -1.58987e-06 1.19183e-06)
(-6.41859e-06 -7.12644e-06 8.44153e-07)
(-8.95753e-06 -1.08418e-05 -7.91855e-08)
(-1.06492e-05 -1.24153e-05 -1.37877e-06)
(-1.06655e-05 -1.16779e-05 -2.75766e-06)
(-8.62021e-06 -8.52214e-06 -3.91141e-06)
(-4.89347e-06 -3.48381e-06 -4.63061e-06)
(-3.37955e-07 3.60765e-06 -4.76058e-06)
(4.21693e-06 1.22233e-05 -4.38889e-06)
(7.94543e-06 2.13763e-05 -3.71237e-06)
(1.04344e-05 2.99413e-05 -2.83204e-06)
(1.17127e-05 3.68816e-05 -1.97254e-06)
(1.17816e-05 4.12968e-05 -1.27032e-06)
(1.04862e-05 4.34046e-05 -7.92206e-07)
(8.13184e-06 4.42787e-05 -6.4961e-07)
(3.44857e-06 3.97218e-05 -4.68706e-07)
(-1.3666e-06 5.20538e-05 -1.3666e-06)
(-5.49859e-06 2.45764e-05 -1.09311e-06)
(-1.04915e-05 2.67082e-05 -4.64281e-07)
(-1.45597e-05 2.36255e-05 -1.68471e-07)
(-1.80238e-05 2.08495e-05 3.36994e-07)
(-2.08082e-05 1.9107e-05 3.57742e-07)
(-2.24314e-05 1.8736e-05 -2.35149e-07)
(-2.2324e-05 1.93095e-05 -9.90842e-07)
(-2.00594e-05 1.99763e-05 -1.80961e-06)
(-1.57444e-05 1.99018e-05 -2.29517e-06)
(-1.01554e-05 1.84546e-05 -2.33233e-06)
(-4.80444e-06 1.53422e-05 -1.92109e-06)
(-1.02581e-06 1.08429e-05 -1.57246e-06)
(2.1405e-07 5.85347e-06 -1.37284e-06)
(-1.18362e-06 1.01395e-06 -1.42897e-06)
(-4.31193e-06 -2.65052e-06 -2.13963e-06)
(-8.00082e-06 -5.02681e-06 -3.20163e-06)
(-1.05735e-05 -6.15498e-06 -4.29372e-06)
(-1.07099e-05 -6.02634e-06 -5.36507e-06)
(-8.17295e-06 -4.2787e-06 -5.95542e-06)
(-3.59865e-06 -7.73809e-07 -6.12845e-06)
(1.98578e-06 4.81629e-06 -5.76174e-06)
(7.43945e-06 1.22477e-05 -5.01255e-06)
(1.18762e-05 2.06979e-05 -4.24033e-06)
(1.48652e-05 2.90397e-05 -3.6012e-06)
(1.6339e-05 3.61133e-05 -2.9582e-06)
(1.63165e-05 4.1347e-05 -2.42473e-06)
(1.4456e-05 4.50303e-05 -1.96472e-06)
(1.11938e-05 4.77085e-05 -1.3806e-06)
(4.75378e-06 4.65624e-05 -1.03724e-07)
(2.95629e-06 5.27699e-05 2.95629e-06)
(-2.07309e-06 3.0769e-05 3.06807e-06)
(-1.3728e-05 3.09958e-05 3.4223e-06)
(-2.17376e-05 2.76196e-05 3.04138e-06)
(-2.98014e-05 2.44308e-05 2.34676e-06)
(-3.64033e-05 2.22322e-05 1.08031e-06)
(-4.0401e-05 2.08735e-05 -5.50307e-07)
(-4.07622e-05 1.99898e-05 -2.17909e-06)
(-3.67862e-05 1.91065e-05 -3.39317e-06)
(-2.91111e-05 1.74825e-05 -4.14304e-06)
(-1.95552e-05 1.55541e-05 -4.31803e-06)
(-1.02603e-05 1.34989e-05 -4.14272e-06)
(-3.14475e-06 1.16533e-05 -3.79077e-06)
(4.82936e-07 1.01724e-05 -3.84733e-06)
(8.99885e-07 9.02748e-06 -4.22591e-06)
(-6.51717e-07 8.0069e-06 -4.73422e-06)
(-2.68895e-06 6.82359e-06 -5.23482e-06)
(-3.43633e-06 5.05954e-06 -5.78755e-06)
(-2.18165e-06 3.18265e-06 -5.91246e-06)
(9.08944e-07 2.35417e-06 -5.64637e-06)
(5.12313e-06 3.23066e-06 -5.09727e-06)
(9.47312e-06 6.8433e-06 -4.40603e-06)
(1.31778e-05 1.324e-05 -3.74854e-06)
(1.59487e-05 2.15079e-05 -3.28494e-06)
(1.79442e-05 3.02313e-05 -3.02168e-06)
(1.92206e-05 3.81647e-05 -2.64204e-06)
(1.94232e-05 4.48255e-05 -2.01228e-06)
(1.78305e-05 5.02373e-05 -1.03743e-06)
(1.45765e-05 5.45186e-05 1.62938e-08)
(6.40936e-06 5.74654e-05 1.48821e-06)
(6.33024e-06 4.46961e-05 6.33024e-06)
(-9.84588e-07 4.03409e-05 4.74154e-06)
(-1.98072e-05 3.8563e-05 4.18663e-06)
(-3.11985e-05 3.56391e-05 3.15013e-06)
(-4.24689e-05 3.27003e-05 1.51601e-06)
(-5.14152e-05 2.98991e-05 -4.90295e-07)
(-5.63913e-05 2.67695e-05 -2.45245e-06)
(-5.58897e-05 2.30758e-05 -3.99231e-06)
(-4.97768e-05 1.90896e-05 -5.00576e-06)
(-3.96673e-05 1.51401e-05 -5.37598e-06)
(-2.77387e-05 1.2812e-05 -5.31178e-06)
(-1.62267e-05 1.24322e-05 -5.1448e-06)
(-6.85132e-06 1.39269e-05 -5.11689e-06)
(-4.70152e-07 1.64417e-05 -5.26191e-06)
(3.26109e-06 1.88468e-05 -5.39279e-06)
(5.63225e-06 2.00038e-05 -5.60819e-06)
(7.75041e-06 1.91518e-05 -5.56215e-06)
(1.02068e-05 1.58424e-05 -5.09284e-06)
(1.30989e-05 1.1568e-05 -4.21222e-06)
(1.58977e-05 8.12001e-06 -3.28795e-06)
(1.80427e-05 6.98639e-06 -2.36411e-06)
(1.91747e-05 9.49238e-06 -1.6691e-06)
(1.93932e-05 1.56187e-05 -1.4749e-06)
(1.96188e-05 2.40326e-05 -1.80654e-06)
(2.03682e-05 3.30899e-05 -1.78955e-06)
(2.12644e-05 4.17456e-05 -1.3181e-06)
(2.12839e-05 4.96723e-05 -3.22839e-07)
(1.9346e-05 5.66141e-05 9.77834e-07)
(1.48645e-05 6.26536e-05 2.127e-06)
(6.02033e-06 7.04135e-05 1.79922e-06)
(5.24288e-06 3.6628e-05 5.24288e-06)
(-5.53683e-06 5.77825e-05 2.22117e-06)
(-2.76823e-05 5.38014e-05 1.1673e-06)
(-4.05684e-05 5.0898e-05 -4.14999e-07)
(-5.23712e-05 4.76529e-05 -2.04585e-06)
(-6.07356e-05 4.2882e-05 -3.5836e-06)
(-6.43458e-05 3.6355e-05 -4.64021e-06)
(-6.22526e-05 2.82114e-05 -5.17966e-06)
(-5.50319e-05 1.97744e-05 -5.13473e-06)
(-4.46477e-05 1.32417e-05 -5.11925e-06)
(-3.30481e-05 1.0369e-05 -4.92874e-06)
(-2.1794e-05 1.16526e-05 -4.92528e-06)
(-1.16539e-05 1.60614e-05 -5.16507e-06)
(-2.74343e-06 2.15973e-05 -5.56515e-06)
(5.26644e-06 2.60691e-05 -5.6591e-06)
(1.27855e-05 2.79648e-05 -5.43501e-06)
(1.98091e-05 2.64539e-05 -4.66837e-06)
(2.58208e-05 2.17965e-05 -3.40685e-06)
(3.00472e-05 1.61644e-05 -1.99746e-06)
(3.17924e-05 1.18084e-05 -7.66417e-07)
(3.0984e-05 1.09237e-05 -1.15316e-07)
(2.84635e-05 1.40171e-05 -2.4797e-07)
(2.56899e-05 2.05011e-05 -8.81394e-07)
(2.39571e-05 2.8823e-05 -1.23942e-06)
(2.35562e-05 3.76301e-05 -1.07434e-06)
(2.35144e-05 4.65631e-05 -3.13996e-07)
(2.20446e-05 5.56356e-05 4.24165e-07)
(1.80087e-05 6.48043e-05 8.68018e-07)
(1.07199e-05 7.38016e-05 2.58237e-07)
(3.06142e-06 8.42213e-05 -2.08268e-06)
(-1.69836e-07 4.08297e-05 -1.69836e-07)
(-1.37493e-05 8.46923e-05 -3.25194e-06)
(-3.34626e-05 7.76099e-05 -4.29204e-06)
(-4.55789e-05 7.35056e-05 -5.46194e-06)
(-5.54014e-05 6.81561e-05 -6.08018e-06)
(-6.12918e-05 5.95156e-05 -6.05319e-06)
(-6.24585e-05 4.77138e-05 -5.75057e-06)
(-5.93254e-05 3.40719e-05 -5.24581e-06)
(-5.30364e-05 2.14359e-05 -4.65799e-06)
(-4.52231e-05 1.25125e-05 -4.38879e-06)
(-3.68758e-05 9.23761e-06 -4.43834e-06)
(-2.79884e-05 1.16266e-05 -4.84595e-06)
(-1.8187e-05 1.74178e-05 -5.54018e-06)
(-6.99183e-06 2.38374e-05 -6.08237e-06)
(5.40529e-06 2.85392e-05 -6.15351e-06)
(1.7948e-05 2.99659e-05 -5.61499e-06)
(2.93222e-05 2.78185e-05 -4.50592e-06)
(3.80879e-05 2.32364e-05 -3.0597e-06)
(4.27227e-05 1.85936e-05 -1.93884e-06)
(4.31821e-05 1.63017e-05 -1.29037e-06)
(4.05547e-05 1.77016e-05 -1.54948e-06)
(3.64416e-05 2.24073e-05 -2.19693e-06)
(3.28651e-05 2.91824e-05 -2.66691e-06)
(3.0627e-05 3.68734e-05 -2.60528e-06)
(2.89304e-05 4.53018e-05 -2.06886e-06)
(2.61324e-05 5.50313e-05 -1.50784e-06)
(2.08899e-05 6.62297e-05 -1.59207e-06)
(1.31537e-05 7.86215e-05 -2.73019e-06)
(3.26148e-06 9.03096e-05 -4.93063e-06)
(-1.19392e-06 9.75162e-05 -6.07143e-06)
(-7.13631e-06 6.39101e-05 -7.13631e-06)
(-2.20186e-05 0.000118672 -8.69205e-06)
(-3.53485e-05 0.000107593 -8.54384e-06)
(-4.50658e-05 0.000100736 -8.69617e-06)
(-5.15747e-05 9.09915e-05 -8.07351e-06)
(-5.43567e-05 7.68589e-05 -7.225e-06)
(-5.40282e-05 5.94537e-05 -6.16498e-06)
(-5.19983e-05 4.13965e-05 -5.16202e-06)
(-4.91879e-05 2.60299e-05 -4.54774e-06)
(-4.58153e-05 1.58748e-05 -4.50496e-06)
(-4.1412e-05 1.23026e-05 -5.07551e-06)
(-3.48971e-05 1.42206e-05 -6.26228e-06)
(-2.52547e-05 1.9151e-05 -7.24377e-06)
(-1.19344e-05 2.411e-05 -7.73809e-06)
(3.94768e-06 2.72452e-05 -7.51346e-06)
(2.00784e-05 2.78367e-05 -6.63241e-06)
(3.4243e-05 2.61563e-05 -5.71218e-06)
(4.43257e-05 2.3863e-05 -4.70304e-06)
(4.9314e-05 2.26612e-05 -4.15368e-06)
(4.9995e-05 2.42832e-05 -4.16708e-06)
(4.7987e-05 2.86858e-05 -4.61203e-06)
(4.49723e-05 3.46604e-05 -4.82453e-06)
(4.22812e-05 4.13622e-05 -4.57168e-06)
(3.95531e-05 4.87142e-05 -3.92473e-06)
(3.51976e-05 5.79634e-05 -3.43381e-06)
(2.80748e-05 7.00014e-05 -3.67007e-06)
(1.86099e-05 8.42569e-05 -4.87994e-06)
(8.58796e-06 9.8889e-05 -6.5812e-06)
(7.012e-08 0.000109597 -7.27899e-06)
(-1.89594e-06 0.000108853 -6.7146e-06)
(-1.15478e-05 0.000102742 -1.15478e-05)
(-2.65672e-05 0.000153831 -1.06894e-05)
(-3.44003e-05 0.000138923 -1.0193e-05)
(-4.14284e-05 0.000128392 -9.98842e-06)
(-4.54918e-05 0.00011331 -9.09564e-06)
(-4.70536e-05 9.39532e-05 -8.0565e-06)
(-4.73265e-05 7.26128e-05 -6.91186e-06)
(-4.77642e-05 5.24265e-05 -6.16887e-06)
(-4.87488e-05 3.62427e-05 -6.01523e-06)
(-4.92842e-05 2.59404e-05 -6.50049e-06)
(-4.77562e-05 2.1337e-05 -7.51888e-06)
(-4.21056e-05 2.07823e-05 -8.48276e-06)
(-3.1295e-05 2.22036e-05 -9.1202e-06)
(-1.59762e-05 2.37146e-05 -9.07918e-06)
(1.99392e-06 2.44363e-05 -8.41513e-06)
(1.98808e-05 2.44621e-05 -7.52242e-06)
(3.52436e-05 2.44446e-05 -6.71081e-06)
(4.6179e-05 2.58292e-05 -6.19072e-06)
(5.2355e-05 2.92841e-05 -6.179e-06)
(5.51486e-05 3.49686e-05 -6.28979e-06)
(5.58446e-05 4.17631e-05 -6.19299e-06)
(5.5294e-05 4.85859e-05 -5.81434e-06)
(5.34726e-05 5.57751e-05 -5.1123e-06)
(4.90843e-05 6.4468e-05 -4.6133e-06)
(4.12193e-05 7.63518e-05 -4.82946e-06)
(3.05796e-05 9.13859e-05 -5.83348e-06)
(1.93858e-05 0.000107486 -7.14614e-06)
(1.04244e-05 0.000120689 -7.25777e-06)
(5.09363e-06 0.000126914 -6.40603e-06)
(1.57928e-06 0.000120406 -4.9141e-06)
(-1.27385e-05 0.000148219 -1.27385e-05)
(-2.68102e-05 0.000185988 -1.1295e-05)
(-3.23557e-05 0.000169058 -1.09739e-05)
(-3.90741e-05 0.000154794 -1.0621e-05)
(-4.31739e-05 0.000135211 -9.8912e-06)
(-4.57341e-05 0.000112363 -9.02793e-06)
(-4.79673e-05 8.91815e-05 -8.32078e-06)
(-5.08176e-05 6.86782e-05 -7.996e-06)
(-5.4054e-05 5.27586e-05 -8.17966e-06)
(-5.6039e-05 4.17817e-05 -8.68605e-06)
(-5.45748e-05 3.46332e-05 -9.30515e-06)
(-4.77631e-05 2.98436e-05 -9.55236e-06)
(-3.54935e-05 2.59434e-05 -9.45291e-06)
(-1.91001e-05 2.30308e-05 -8.99667e-06)
(-6.54189e-07 2.13364e-05 -8.3551e-06)
(1.73914e-05 2.14e-05 -7.70759e-06)
(3.31225e-05 2.37492e-05 -7.36045e-06)
(4.54471e-05 2.90477e-05 -7.31802e-06)
(5.44886e-05 3.68854e-05 -7.38752e-06)
(6.07188e-05 4.58628e-05 -7.31349e-06)
(6.46731e-05 5.46576e-05 -6.89588e-06)
(6.62389e-05 6.30664e-05 -6.39225e-06)
(6.40695e-05 7.24409e-05 -5.99539e-06)
(5.74572e-05 8.46932e-05 -6.28893e-06)
(4.7613e-05 0.000100257 -7.24095e-06)
(3.67668e-05 0.000116943 -8.05359e-06)
(2.70912e-05 0.000131594 -7.80728e-06)
(2.02377e-05 0.000140793 -6.61499e-06)
(1.48507e-05 0.000143449 -5.22068e-06)
(5.95332e-06 0.000138279 -4.79421e-06)
(-1.25808e-05 0.000193724 -1.25808e-05)
(-2.69622e-05 0.000216149 -1.13227e-05)
(-3.35704e-05 0.000198888 -1.12479e-05)
(-4.16085e-05 0.000181193 -1.09874e-05)
(-4.71915e-05 0.00015829 -1.05439e-05)
(-5.15825e-05 0.000133387 -9.97236e-06)
(-5.58339e-05 0.000109685 -9.52242e-06)
(-6.02512e-05 8.94333e-05 -9.38036e-06)
(-6.37812e-05 7.31916e-05 -9.52038e-06)
(-6.46741e-05 6.00899e-05 -9.69433e-06)
(-6.13233e-05 4.88376e-05 -9.72649e-06)
(-5.2987e-05 3.87203e-05 -9.522e-06)
(-3.99315e-05 2.96541e-05 -9.13877e-06)
(-2.33702e-05 2.28435e-05 -8.71347e-06)
(-5.31434e-06 1.9301e-05 -8.51536e-06)
(1.26092e-05 1.99844e-05 -8.65103e-06)
(2.93796e-05 2.49429e-05 -8.99338e-06)
(4.42665e-05 3.37267e-05 -9.3702e-06)
(5.69397e-05 4.49504e-05 -9.55049e-06)
(6.70491e-05 5.67579e-05 -9.39838e-06)
(7.37753e-05 6.83999e-05 -9.05028e-06)
(7.5963e-05 8.04204e-05 -8.95309e-06)
(7.31919e-05 9.43007e-05 -9.41377e-06)
(6.64865e-05 0.00011078 -1.02049e-05)
(5.78134e-05 0.000128355 -1.04121e-05)
(4.93482e-05 0.000144017 -1.00667e-05)
(4.21016e-05 0.000155485 -8.878e-06)
(3.45017e-05 0.000162389 -7.3771e-06)
(2.3739e-05 0.000166718 -6.88315e-06)
(8.58992e-06 0.000166291 -7.5954e-06)
(-1.26224e-05 0.000238519 -1.26224e-05)
(-2.89515e-05 0.000247313 -1.17457e-05)
(-3.84365e-05 0.000230092 -1.16621e-05)
(-4.87134e-05 0.000209212 -1.13066e-05)
(-5.67964e-05 0.000183734 -1.0803e-05)
(-6.36555e-05 0.000157562 -1.02943e-05)
(-6.98094e-05 0.000133625 -1.00176e-05)
(-7.49424e-05 0.000113011 -9.99981e-06)
(-7.77219e-05 9.50675e-05 -1.01475e-05)
(-7.66781e-05 7.85255e-05 -1.02294e-05)
(-7.10759e-05 6.25461e-05 -1.01142e-05)
(-6.11069e-05 4.73486e-05 -9.99509e-06)
(-4.74218e-05 3.42749e-05 -9.99088e-06)
(-3.08898e-05 2.48451e-05 -1.0286e-05)
(-1.24179e-05 2.05371e-05 -1.08953e-05)
(7.12186e-06 2.20351e-05 -1.15799e-05)
(2.67141e-05 2.9069e-05 -1.22145e-05)
(4.53485e-05 4.05293e-05 -1.25684e-05)
(6.19067e-05 5.46689e-05 -1.26772e-05)
(7.50705e-05 6.99281e-05 -1.26489e-05)
(8.35087e-05 8.58337e-05 -1.27323e-05)
(8.65124e-05 0.000103018 -1.31539e-05)
(8.47924e-05 0.000121815 -1.37039e-05)
(8.02346e-05 0.000140889 -1.38471e-05)
(7.4595e-05 0.00015811 -1.33155e-05)
(6.8159e-05 0.000172154 -1.19525e-05)
(5.95369e-05 0.000183041 -1.03974e-05)
(4.68081e-05 0.000192329 -9.69212e-06)
(2.95022e-05 0.000201718 -1.02935e-05)
(9.85539e-06 0.000203189 -1.09871e-05)
(-1.32709e-05 0.000285018 -1.32709e-05)
(-3.25051e-05 0.000282095 -1.23307e-05)
(-4.56021e-05 0.000264453 -1.18987e-05)
(-5.9046e-05 0.00024073 -1.1291e-05)
(-7.08128e-05 0.000213336 -1.08418e-05)
(-8.1375e-05 0.000186191 -1.06593e-05)
(-9.03139e-05 0.000161405 -1.08091e-05)
(-9.63435e-05 0.000139016 -1.11857e-05)
(-9.80641e-05 0.000117996 -1.1638e-05)
(-9.48468e-05 9.73233e-05 -1.19517e-05)
(-8.69138e-05 7.69136e-05 -1.21696e-05)
(-7.49197e-05 5.78191e-05 -1.25587e-05)
(-5.9555e-05 4.1905e-05 -1.32141e-05)
(-4.10502e-05 3.0886e-05 -1.39903e-05)
(-1.96672e-05 2.5927e-05 -1.47845e-05)
(3.74665e-06 2.76599e-05 -1.53653e-05)
(2.77985e-05 3.58638e-05 -1.56598e-05)
(5.06952e-05 4.9495e-05 -1.57492e-05)
(7.0718e-05 6.68165e-05 -1.57804e-05)
(8.63595e-05 8.63442e-05 -1.59227e-05)
(9.66514e-05 0.000107451 -1.62749e-05)
(0.000101752 0.000129623 -1.66246e-05)
(0.000102896 0.000151573 -1.65647e-05)
(0.000101259 0.00017153 -1.5827e-05)
(9.69106e-05 0.000188733 -1.43165e-05)
(8.86312e-05 0.000204069 -1.28919e-05)
(7.50256e-05 0.000218558 -1.24496e-05)
(5.62001e-05 0.000232959 -1.30308e-05)
(3.42805e-05 0.000245833 -1.37667e-05)
(1.13932e-05 0.000246737 -1.36609e-05)
(-1.41105e-05 0.000335992 -1.41105e-05)
(-3.68448e-05 0.000322267 -1.2953e-05)
(-5.46935e-05 0.000303937 -1.22537e-05)
(-7.297e-05 0.000278247 -1.17593e-05)
(-9.02831e-05 0.000249691 -1.1632e-05)
(-0.000106042 0.00022135 -1.1902e-05)
(-0.000118427 0.00019458 -1.28728e-05)
(-0.000125356 0.000168885 -1.39862e-05)
(-0.000125857 0.000143485 -1.48371e-05)
(-0.000120254 0.000118255 -1.55052e-05)
(-0.000109466 9.39075e-05 -1.61375e-05)
(-9.43306e-05 7.18157e-05 -1.6884e-05)
(-7.50195e-05 5.35717e-05 -1.76674e-05)
(-5.16149e-05 4.0582e-05 -1.83836e-05)
(-2.47212e-05 3.40961e-05 -1.88158e-05)
(4.30621e-06 3.541e-05 -1.89372e-05)
(3.34051e-05 4.45832e-05 -1.88868e-05)
(6.0506e-05 6.06603e-05 -1.88371e-05)
(8.3951e-05 8.17988e-05 -1.89662e-05)
(0.000102666 0.000106112 -1.92402e-05)
(0.000116225 0.000132078 -1.93445e-05)
(0.000124887 0.000157911 -1.89924e-05)
(0.000129104 0.000181941 -1.78991e-05)
(0.000128534 0.00020354 -1.63508e-05)
(0.000121904 0.000223669 -1.49626e-05)
(0.000108317 0.000243976 -1.44249e-05)
(8.85209e-05 0.000264143 -1.50358e-05)
(6.48123e-05 0.000282444 -1.59609e-05)
(3.99955e-05 0.000295828 -1.61127e-05)
(1.37307e-05 0.000297634 -1.50392e-05)
(-1.52392e-05 0.000392909 -1.52392e-05)
(-4.26021e-05 0.000369944 -1.40056e-05)
(-6.72778e-05 0.000351465 -1.34215e-05)
(-9.27308e-05 0.000324949 -1.31878e-05)
(-0.000117178 0.000295823 -1.37068e-05)
(-0.000138386 0.000265887 -1.5241e-05)
(-0.000153534 0.000235705 -1.6862e-05)
(-0.000160859 0.000204955 -1.82612e-05)
(-0.000160044 0.000173899 -1.93327e-05)
(-0.00015187 0.000143578 -2.0236e-05)
(-0.00013742 0.000115199 -2.1138e-05)
(-0.000117305 8.98113e-05 -2.2036e-05)
(-9.17498e-05 6.84791e-05 -2.27287e-05)
(-6.1224e-05 5.25883e-05 -2.3093e-05)
(-2.71275e-05 4.42671e-05 -2.31105e-05)
(8.29097e-06 4.52989e-05 -2.29431e-05)
(4.27516e-05 5.60802e-05 -2.2873e-05)
(7.45542e-05 7.52836e-05 -2.29984e-05)
(0.000102616 0.000100561 -2.31755e-05)
(0.000126134 0.000129322 -2.30432e-05)
(0.000144465 0.000159151 -2.24093e-05)
(0.000157035 0.000188069 -2.1043e-05)
(0.000162791 0.000215448 -1.92181e-05)
(0.00016016 0.000241925 -1.79345e-05)
(0.00014853 0.000268394 -1.71938e-05)
(0.000129021 0.0002951 -1.73124e-05)
(0.000103894 0.000320394 -1.7917e-05)
(7.61258e-05 0.000340677 -1.83287e-05)
(4.8371e-05 0.000353106 -1.76671e-05)
(1.72789e-05 0.000357981 -1.57458e-05)
(-1.71704e-05 0.000457381 -1.71704e-05)
(-5.15976e-05 0.000429147 -1.60813e-05)
(-8.58792e-05 0.000411129 -1.58382e-05)
(-0.000120005 0.000385037 -1.68568e-05)
(-0.000151549 0.000355367 -1.85357e-05)
(-0.000177383 0.000322663 -2.04139e-05)
(-0.000194661 0.000287099 -2.21185e-05)
(-0.000202035 0.000249448 -2.35139e-05)
(-0.000199771 0.000211607 -2.46979e-05)
(-0.000188772 0.000175481 -2.58722e-05)
(-0.000169739 0.000142169 -2.70357e-05)
(-0.000143076 0.000112226 -2.79558e-05)
(-0.000109439 8.6463e-05 -2.84301e-05)
(-7.03279e-05 6.72029e-05 -2.85279e-05)
(-2.82925e-05 5.73223e-05 -2.83978e-05)
(1.40986e-05 5.88677e-05 -2.82669e-05)
(5.50293e-05 7.19001e-05 -2.83118e-05)
(9.33642e-05 9.42915e-05 -2.83506e-05)
(0.000128218 0.000123073 -2.79411e-05)
(0.000158311 0.000155398 -2.69837e-05)
(0.000181956 0.000189024 -2.54742e-05)
(0.000197243 0.000222702 -2.35872e-05)
(0.000202228 0.000256384 -2.18901e-05)
(0.000195806 0.00029097 -2.09151e-05)